Protein in INSANE! Membrane UpperLeaflet>POPC=1.0 LowerLeaflet>POPC=1.0
246639
   22AUC    AUC    1  18.348  29.167   7.500
   23AUC    AUC    2  18.594  29.167   7.348
   24AUC    AUC    3  18.594  29.167   7.651
   25AUC    AUC    4  18.103  29.167   7.348
   26AUC    AUC    5  18.103  29.167   7.651
   27AUC    AUC    6  18.197  29.412   7.500
   28AUC    AUC    7  18.500  29.412   7.500
   29AUC    AUC    8  18.197  28.921   7.500
   30AUC    AUC    9  18.500  28.921   7.500
   31AUC    AUC   10  18.348  29.015   7.745
   32AUC    AUC   11  18.348  29.318   7.745
   33AUC    AUC   12  18.348  29.015   7.254
   34AUC    AUC   13  18.348  29.318   7.254
   35AUC    AUC   14  18.839  29.167   7.196
   36AUC    AUC   15  18.839  29.167   7.500
   37AUC    AUC   16  18.839  29.167   7.803
   38AUC    AUC   17  17.857  29.167   7.196
   39AUC    AUC   18  17.857  29.167   7.500
   40AUC    AUC   19  17.857  29.167   7.803
   41AUC    AUC   20  18.045  29.657   7.500
   42AUC    AUC   21  18.348  29.657   7.500
   43AUC    AUC   22  18.652  29.657   7.500
   44AUC    AUC   23  18.045  28.676   7.500
   45AUC    AUC   24  18.348  28.676   7.500
   46AUC    AUC   25  18.652  28.676   7.500
   47AUC    AUC   26  18.348  28.863   7.991
   48AUC    AUC   27  18.348  29.167   7.991
   49AUC    AUC   28  18.348  29.470   7.991
   50AUC    AUC   29  18.348  28.863   7.009
   51AUC    AUC   30  18.348  29.167   7.009
   52AUC    AUC   31  18.348  29.470   7.009
   53AUC    AUC   32  18.594  29.015   7.897
   54AUC    AUC   33  18.594  29.318   7.897
   55AUC    AUC   34  18.594  29.015   7.103
   56AUC    AUC   35  18.594  29.318   7.103
   57AUC    AUC   36  18.103  29.015   7.897
   58AUC    AUC   37  18.103  29.318   7.897
   59AUC    AUC   38  18.103  29.015   7.103
   60AUC    AUC   39  18.103  29.318   7.103
   61AUC    AUC   40  18.745  29.412   7.348
   62AUC    AUC   41  18.745  29.412   7.651
   63AUC    AUC   42  17.951  29.412   7.348
   64AUC    AUC   43  17.951  29.412   7.651
   65AUC    AUC   44  18.745  28.921   7.348
   66AUC    AUC   45  18.745  28.921   7.651
   67AUC    AUC   46  17.951  28.921   7.348
   68AUC    AUC   47  17.951  28.921   7.651
   69AUC    AUC   48  18.197  29.564   7.745
   70AUC    AUC   49  18.500  29.564   7.745
   71AUC    AUC   50  18.197  28.769   7.745
   72AUC    AUC   51  18.500  28.769   7.745
   73AUC    AUC   52  18.197  29.564   7.254
   74AUC    AUC   53  18.500  29.564   7.254
   75AUC    AUC   54  18.197  28.769   7.254
   76AUC    AUC   55  18.500  28.769   7.254
   77AUSL   AUS   56  18.757  29.167   8.080
   78AUSL   AUS   57  18.613  28.750   8.011
   79AUL    AUL   58  18.839  28.863   8.294
   80THSLK    S   59  18.731  28.562   8.156
   81ETHY    C1   60  18.827  28.194   8.412
   82ETHY    C1   61  19.005  27.811   8.753
   83ETHY    C1   62  19.247  27.511   9.130
   84ETHY    C1   63  19.543  27.292   9.534
   85THSLK    S   64  18.856  29.120   8.327
   86ETHY    C1   65  19.083  28.970   8.694
   87ETHY    C1   66  19.367  28.882   9.148
   88ETHY    C1   67  19.651  28.904   9.607
   89ETHY    C1   68  19.928  29.026  10.061
   90AUSL   AUS   69  18.512  29.015   8.173
   91AUSL   AUS   70  18.185  29.318   8.173
   92AUL    AUL   71  18.348  29.167   8.482
   93THSLK    S   72  18.593  28.964   8.418
   94ETHY    C1   73  18.683  28.746   8.810
   95ETHY    C1   74  18.811  28.572   9.308
   96ETHY    C1   75  18.957  28.507   9.823
   97ETHY    C1   76  19.114  28.541  10.346
   98THSLK    S   77  18.098  29.278   8.432
   99ETHY    C1   78  18.009  29.204   8.874
  100ETHY    C1   79  17.885  29.206   9.403
  101ETHY    C1   80  17.740  29.315   9.912
  102ETHY    C1   81  17.577  29.519  10.392
  103AUSL   AUS   82  18.512  29.318   8.173
  104AUSL   AUS   83  18.858  29.431   7.916
  105AUL    AUL   84  18.839  29.470   8.294
  106THSLK    S   85  18.599  29.370   8.416
  107ETHY    C1   86  18.687  29.587   8.809
  108ETHY    C1   87  18.812  29.760   9.308
  109ETHY    C1   88  18.957  29.826   9.823
  110ETHY    C1   89  19.120  29.793  10.345
  111THSLK    S   90  19.034  29.537   8.079
  112ETHY    C1   91  19.396  29.587   8.355
  113ETHY    C1   92  19.803  29.736   8.681
  114ETHY    C1   93  20.165  29.985   8.995
  115ETHY    C1   94  20.477  30.321   9.293
  116AUSL   AUS   95  18.757  29.167   6.920
  117AUSL   AUS   96  18.613  29.583   6.990
  118AUL    AUL   97  18.839  29.470   6.706
  119THSLK    S   98  18.861  29.120   6.676
  120ETHY    C1   99  19.088  28.970   6.308
  121ETHY    C1  100  19.367  28.882   5.851
  122ETHY    C1  101  19.651  28.904   5.393
  123ETHY    C1  102  19.933  29.026   4.941
  124THSLK    S  103  18.790  29.702   6.820
  125ETHY    C1  104  19.062  29.843   6.480
  126ETHY    C1  105  19.340  30.090   6.085
  127ETHY    C1  106  19.556  30.423   5.720
  128ETHY    C1  107  19.713  30.830   5.391
  129AUSL   AUS  108  18.512  29.015   6.826
  130AUSL   AUS  109  18.858  28.902   7.083
  131AUL    AUL  110  18.839  28.863   6.706
  132THSLK    S  111  18.998  28.711   6.939
  133ETHY    C1  112  19.231  28.394   6.707
  134ETHY    C1  113  19.561  28.087   6.403
  135ETHY    C1  114  19.941  27.878   6.083
  136ETHY    C1  115  20.362  27.761   5.754
  137THSLK    S  116  18.599  28.963   6.583
  138ETHY    C1  117  18.687  28.746   6.191
  139ETHY    C1  118  18.812  28.573   5.692
  140ETHY    C1  119  18.957  28.507   5.176
  141ETHY    C1  120  19.120  28.540   4.656
  142AUSL   AUS  121  18.512  29.318   6.826
  143AUSL   AUS  122  18.185  29.015   6.826
  144AUL    AUL  123  18.348  29.167   6.518
  145THSLK    S  124  18.089  28.963   6.586
  146ETHY    C1  125  17.950  28.748   6.206
  147ETHY    C1  126  17.793  28.577   5.717
  148ETHY    C1  127  17.654  28.511   5.199
  149ETHY    C1  128  17.538  28.542   4.666
  150THSLK    S  129  18.614  29.279   6.572
  151ETHY    C1  130  18.751  29.202   6.142
  152ETHY    C1  131  18.904  29.202   5.622
  153ETHY    C1  132  19.042  29.311   5.112
  154ETHY    C1  133  19.165  29.518   4.621
  155AUSL   AUS  134  17.939  29.167   8.080
  156AUSL   AUS  135  18.084  29.583   8.011
  157AUL    AUL  136  17.857  29.470   8.294
  158THSLK    S  137  17.835  29.120   8.325
  159ETHY    C1  138  17.609  28.970   8.691
  160ETHY    C1  139  17.329  28.882   9.148
  161ETHY    C1  140  17.046  28.904   9.607
  162ETHY    C1  141  16.763  29.026  10.058
  163THSLK    S  142  17.961  29.716   8.201
  164ETHY    C1  143  17.865  29.911   8.604
  165ETHY    C1  144  17.692  30.192   9.034
  166ETHY    C1  145  17.449  30.518   9.390
  167ETHY    C1  146  17.148  30.877   9.671
  168AUSL   AUS  147  18.185  29.015   8.173
  169AUSL   AUS  148  17.838  28.902   7.916
  170AUL    AUL  149  17.857  28.863   8.294
  171THSLK    S  150  17.659  28.736   8.032
  172ETHY    C1  151  17.298  28.489   8.166
  173ETHY    C1  152  16.893  28.223   8.410
  174ETHY    C1  153  16.532  28.003   8.745
  175ETHY    C1  154  16.216  27.830   9.156
  176THSLK    S  155  18.083  28.965   8.413
  177ETHY    C1  156  17.945  28.750   8.793
  178ETHY    C1  157  17.792  28.577   9.284
  179ETHY    C1  158  17.655  28.511   9.800
  180ETHY    C1  159  17.531  28.543  10.332
  181AUSL   AUS  160  17.939  29.167   6.920
  182AUSL   AUS  161  18.084  28.750   6.990
  183AUL    AUL  162  17.857  28.863   6.706
  184THSLK    S  163  17.840  29.120   6.673
  185ETHY    C1  164  17.613  28.970   6.305
  186ETHY    C1  165  17.330  28.882   5.851
  187ETHY    C1  166  17.046  28.904   5.393
  188ETHY    C1  167  16.769  29.026   4.938
  189THSLK    S  168  17.910  28.575   6.865
  190ETHY    C1  169  17.638  28.262   6.673
  191ETHY    C1  170  17.357  27.914   6.367
  192ETHY    C1  171  17.140  27.606   5.980
  193ETHY    C1  172  16.988  27.339   5.528
  194AUSL   AUS  173  18.185  29.318   6.826
  195AUSL   AUS  174  17.838  29.431   7.083
  196AUL    AUL  175  17.857  29.470   6.706
  197THSLK    S  176  17.702  29.562   6.893
  198ETHY    C1  177  17.468  29.683   6.518
  199ETHY    C1  178  17.136  29.871   6.132
  200ETHY    C1  179  16.756  30.110   5.833
  201ETHY    C1  180  16.339  30.390   5.618
  202THSLK    S  181  18.104  29.280   6.566
  203ETHY    C1  182  18.014  29.205   6.124
  204ETHY    C1  183  17.886  29.206   5.597
  205ETHY    C1  184  17.740  29.315   5.089
  206ETHY    C1  185  17.583  29.521   4.608
  207AUSL   AUS  186  18.928  29.576   7.500
  208AUSL   AUS  187  18.858  29.431   7.083
  209AUL    AUL  188  19.142  29.657   7.196
  210THSLK    S  189  19.038  29.538   6.925
  211ETHY    C1  190  19.399  29.588   6.648
  212ETHY    C1  191  19.803  29.736   6.319
  213ETHY    C1  192  20.165  29.985   6.005
  214ETHY    C1  193  20.481  30.322   5.713
  215THSLK    S  194  19.198  29.637   7.503
  216ETHY    C1  195  19.645  29.737   7.502
  217ETHY    C1  196  20.147  29.943   7.500
  218ETHY    C1  197  20.594  30.245   7.500
  219ETHY    C1  198  20.982  30.629   7.503
  220AUSL   AUS  199  19.022  29.330   7.348
  221AUSL   AUS  200  19.022  29.003   7.651
  222AUL    AUL  201  19.330  29.167   7.500
  223THSLK    S  202  19.284  29.377   7.345
  224ETHY    C1  203  19.734  29.346   7.270
  225ETHY    C1  204  20.266  29.401   7.179
  226ETHY    C1  205  20.773  29.564   7.091
  227ETHY    C1  206  21.248  29.822   7.011
  228THSLK    S  207  19.259  28.866   7.659
  229ETHY    C1  208  19.630  28.608   7.726
  230ETHY    C1  209  20.116  28.382   7.808
  231ETHY    C1  210  20.635  28.262   7.896
  232ETHY    C1  211  21.173  28.240   7.989
  233AUSL   AUS  212  19.022  29.330   7.651
  234AUSL   AUS  213  18.765  29.677   7.764
  235AUL    AUL  214  19.142  29.657   7.803
  236THSLK    S  215  18.950  29.801   7.924
  237ETHY    C1  216  19.307  29.993   8.136
  238ETHY    C1  217  19.684  30.300   8.377
  239ETHY    C1  218  19.985  30.687   8.602
  240ETHY    C1  219  20.212  31.138   8.809
  241THSLK    S  220  19.283  29.376   7.661
  242ETHY    C1  221  19.734  29.346   7.734
  243ETHY    C1  222  20.267  29.401   7.821
  244ETHY    C1  223  20.773  29.564   7.908
  245ETHY    C1  224  21.247  29.822   7.995
  246AUSL   AUS  225  17.768  29.576   7.500
  247AUSL   AUS  226  17.838  29.431   7.916
  248AUL    AUL  227  17.554  29.657   7.803
  249THSLK    S  228  17.698  29.557   8.107
  250ETHY    C1  229  17.465  29.678   8.482
  251ETHY    C1  230  17.136  29.871   8.868
  252ETHY    C1  231  16.756  30.110   9.166
  253ETHY    C1  232  16.335  30.385   9.381
  254THSLK    S  233  17.547  29.716   7.503
  255ETHY    C1  234  17.258  30.071   7.502
  256ETHY    C1  235  16.850  30.428   7.500
  257ETHY    C1  236  16.380  30.692   7.500
  258ETHY    C1  237  15.862  30.868   7.503
  259AUSL   AUS  238  17.675  29.330   7.348
  260AUSL   AUS  239  17.932  29.677   7.236
  261AUL    AUL  240  17.554  29.657   7.196
  262THSLK    S  241  17.438  29.444   7.303
  263ETHY    C1  242  17.066  29.618   7.101
  264ETHY    C1  243  16.580  29.794   6.936
  265ETHY    C1  244  16.062  29.926   6.868
  266ETHY    C1  245  15.524  30.018   6.890
  267THSLK    S  246  17.812  29.844   7.056
  268ETHY    C1  247  17.660  30.163   6.765
  269ETHY    C1  248  17.406  30.543   6.473
  270ETHY    C1  249  17.073  30.911   6.260
  271ETHY    C1  250  16.677  31.261   6.122
  272AUSL   AUS  251  17.675  29.330   7.651
  273AUSL   AUS  252  17.675  29.003   7.348
  274AUL    AUL  253  17.367  29.167   7.500
  275THSLK    S  254  17.413  28.928   7.384
  276ETHY    C1  255  16.963  28.877   7.446
  277ETHY    C1  256  16.430  28.774   7.434
  278ETHY    C1  257  15.923  28.624   7.327
  279ETHY    C1  258  15.450  28.431   7.135
  280THSLK    S  259  17.437  29.438   7.699
  281ETHY    C1  260  17.066  29.614   7.901
  282ETHY    C1  261  16.580  29.793   8.063
  283ETHY    C1  262  16.062  29.926   8.133
  284ETHY    C1  263  15.523  30.012   8.114
  285AUSL   AUS  264  18.928  28.757   7.500
  286AUSL   AUS  265  18.858  28.902   7.916
  287AUL    AUL  266  19.142  28.676   7.803
  288THSLK    S  267  19.149  28.617   7.503
  289ETHY    C1  268  19.438  28.262   7.502
  290ETHY    C1  269  19.847  27.905   7.500
  291ETHY    C1  270  20.317  27.641   7.500
  292ETHY    C1  271  20.834  27.465   7.503
  293THSLK    S  272  18.995  28.712   8.066
  294ETHY    C1  273  19.228  28.395   8.297
  295ETHY    C1  274  19.561  28.088   8.598
  296ETHY    C1  275  19.941  27.878   8.918
  297ETHY    C1  276  20.358  27.762   9.250
  298AUSL   AUS  277  19.022  29.003   7.348
  299AUSL   AUS  278  18.765  28.656   7.236
  300AUL    AUL  279  19.142  28.676   7.196
  301THSLK    S  280  19.260  28.866   7.346
  302ETHY    C1  281  19.631  28.608   7.279
  303ETHY    C1  282  20.116  28.382   7.192
  304ETHY    C1  283  20.635  28.262   7.103
  305ETHY    C1  284  21.174  28.240   7.018
  306THSLK    S  285  18.888  28.465   7.099
  307ETHY    C1  286  19.038  28.063   6.942
  308ETHY    C1  287  19.291  27.633   6.728
  309ETHY    C1  288  19.623  27.277   6.495
  310ETHY    C1  289  20.022  26.996   6.249
  311AUSL   AUS  290  17.768  28.757   7.500
  312AUSL   AUS  291  17.838  28.902   7.083
  313AUL    AUL  292  17.554  28.676   7.196
  314THSLK    S  293  17.663  28.731   6.966
  315ETHY    C1  294  17.301  28.485   6.833
  316ETHY    C1  295  16.893  28.222   6.589
  317ETHY    C1  296  16.532  28.003   6.255
  318ETHY    C1  297  16.220  27.825   5.843
  319THSLK    S  298  17.498  28.696   7.503
  320ETHY    C1  299  17.052  28.596   7.502
  321ETHY    C1  300  16.550  28.390   7.500
  322ETHY    C1  301  16.103  28.088   7.500
  323ETHY    C1  302  15.715  27.704   7.503
  324AUSL   AUS  303  17.675  29.003   7.651
  325AUSL   AUS  304  17.932  28.656   7.764
  326AUL    AUL  305  17.554  28.676   7.803
  327THSLK    S  306  17.744  28.508   7.881
  328ETHY    C1  307  17.388  28.232   7.958
  329ETHY    C1  308  17.013  27.875   8.122
  330ETHY    C1  309  16.712  27.501   8.367
  331ETHY    C1  310  16.481  27.119   8.682
  332THSLK    S  311  17.412  28.933   7.618
  333ETHY    C1  312  16.962  28.881   7.557
  334ETHY    C1  313  16.430  28.775   7.566
  335ETHY    C1  314  15.923  28.624   7.673
  336ETHY    C1  315  15.449  28.436   7.867
  337AUSL   AUS  316  18.348  29.747   7.909
  338AUSL   AUS  317  17.932  29.677   7.764
  339AUL    AUL  318  18.045  29.961   7.991
  340THSLK    S  319  17.809  29.839   7.948
  341ETHY    C1  320  17.658  30.159   8.237
  342ETHY    C1  321  17.405  30.542   8.527
  343ETHY    C1  322  17.073  30.910   8.740
  344ETHY    C1  323  16.674  31.256   8.881
  345THSLK    S  324  18.386  29.978   8.034
  346ETHY    C1  325  18.514  30.304   8.327
  347ETHY    C1  326  18.591  30.736   8.646
  348ETHY    C1  327  18.572  31.201   8.920
  349ETHY    C1  328  18.466  31.686   9.147
  350AUSL   AUS  329  18.197  29.840   7.663
  351AUSL   AUS  330  18.500  29.840   7.336
  352AUL    AUL  331  18.348  30.148   7.500
  353THSLK    S  332  18.234  30.092   7.772
  354ETHY    C1  333  18.307  30.516   7.929
  355ETHY    C1  334  18.304  31.032   8.095
  356ETHY    C1  335  18.196  31.543   8.229
  357ETHY    C1  336  17.992  32.039   8.336
  358THSLK    S  337  18.551  30.080   7.237
  359ETHY    C1  338  18.764  30.457   7.091
  360ETHY    C1  339  18.934  30.946   6.929
  361ETHY    C1  340  19.001  31.464   6.792
  362ETHY    C1  341  18.972  31.998   6.682
  363AUSL   AUS  342  18.500  29.840   7.663
  364AUSL   AUS  343  18.613  29.583   8.011
  365AUL    AUL  344  18.652  29.961   7.991
  366THSLK    S  345  18.786  29.700   8.184
  367ETHY    C1  346  19.059  29.841   8.522
  368ETHY    C1  347  19.340  30.090   8.915
  369ETHY    C1  348  19.556  30.423   9.279
  370ETHY    C1  349  19.708  30.828   9.614
  371THSLK    S  350  18.550  30.078   7.768
  372ETHY    C1  351  18.763  30.457   7.913
  373ETHY    C1  352  18.934  30.946   8.072
  374ETHY    C1  353  19.001  31.464   8.207
  375ETHY    C1  354  18.970  31.997   8.325
  376AUSL   AUS  355  18.348  28.586   7.909
  377AUSL   AUS  356  18.765  28.656   7.764
  378AUL    AUL  357  18.652  28.372   7.991
  379THSLK    S  358  18.307  28.329   7.992
  380ETHY    C1  359  18.180  27.920   8.152
  381ETHY    C1  360  18.106  27.439   8.391
  382ETHY    C1  361  18.125  26.987   8.684
  383ETHY    C1  362  18.227  26.569   9.021
  384THSLK    S  363  18.885  28.466   7.907
  385ETHY    C1  364  19.036  28.064   8.062
  386ETHY    C1  365  19.291  27.633   8.272
  387ETHY    C1  366  19.623  27.277   8.505
  388ETHY    C1  367  20.019  26.998   8.758
  389AUSL   AUS  368  18.197  28.493   7.663
  390AUSL   AUS  369  18.084  28.750   8.011
  391AUL    AUL  370  18.045  28.372   7.991
  392THSLK    S  371  18.146  28.248   7.744
  393ETHY    C1  372  17.933  27.849   7.812
  394ETHY    C1  373  17.762  27.346   7.925
  395ETHY    C1  374  17.696  26.832   8.072
  396ETHY    C1  375  17.725  26.317   8.252
  397THSLK    S  376  17.906  28.580   8.136
  398ETHY    C1  377  17.634  28.265   8.327
  399ETHY    C1  378  17.356  27.914   8.633
  400ETHY    C1  379  17.140  27.606   9.019
  401ETHY    C1  380  16.984  27.344   9.473
  402AUSL   AUS  381  18.500  28.493   7.663
  403AUSL   AUS  382  18.197  28.493   7.336
  404AUL    AUL  383  18.348  28.185   7.500
  405THSLK    S  384  18.147  28.246   7.261
  406ETHY    C1  385  17.934  27.848   7.192
  407ETHY    C1  386  17.762  27.346   7.076
  408ETHY    C1  387  17.696  26.832   6.927
  409ETHY    C1  388  17.727  26.315   6.754
  410THSLK    S  389  18.461  28.234   7.748
  411ETHY    C1  390  18.389  27.789   7.829
  412ETHY    C1  391  18.392  27.260   7.948
  413ETHY    C1  392  18.501  26.752   8.095
  414ETHY    C1  393  18.703  26.274   8.264
  415AUSL   AUS  394  18.348  29.747   7.091
  416AUSL   AUS  395  18.765  29.677   7.236
  417AUL    AUL  396  18.652  29.961   7.009
  418THSLK    S  397  18.390  29.981   6.971
  419ETHY    C1  398  18.517  30.306   6.676
  420ETHY    C1  399  18.591  30.736   6.353
  421ETHY    C1  400  18.572  31.201   6.080
  422ETHY    C1  401  18.469  31.689   5.857
  423THSLK    S  402  18.952  29.802   7.081
  424ETHY    C1  403  19.309  29.994   6.869
  425ETHY    C1  404  19.684  30.300   6.623
  426ETHY    C1  405  19.985  30.687   6.398
  427ETHY    C1  406  20.215  31.139   6.197
  428AUSL   AUS  407  18.197  29.840   7.336
  429AUSL   AUS  408  18.084  29.583   6.990
  430AUL    AUL  409  18.045  29.961   7.009
  431THSLK    S  410  18.236  30.094   7.233
  432ETHY    C1  411  18.308  30.517   7.074
  433ETHY    C1  412  18.305  31.033   6.906
  434ETHY    C1  413  18.196  31.543   6.770
  435ETHY    C1  414  17.994  32.041   6.670
  436THSLK    S  415  17.965  29.720   6.800
  437ETHY    C1  416  17.869  29.914   6.396
  438ETHY    C1  417  17.692  30.192   5.966
  439ETHY    C1  418  17.449  30.517   5.611
  440ETHY    C1  419  17.153  30.882   5.330
  441AUSL   AUS  420  18.348  28.586   7.091
  442AUSL   AUS  421  17.932  28.656   7.236
  443AUL    AUL  422  18.045  28.372   7.009
  444THSLK    S  423  17.747  28.503   7.122
  445ETHY    C1  424  17.390  28.229   7.044
  446ETHY    C1  425  17.013  27.875   6.878
  447ETHY    C1  426  16.711  27.501   6.633
  448ETHY    C1  427  16.484  27.114   6.321
  449THSLK    S  428  18.310  28.326   7.013
  450ETHY    C1  429  18.182  27.918   6.852
  451ETHY    C1  430  18.106  27.439   6.609
  452ETHY    C1  431  18.125  26.987   6.315
  453ETHY    C1  432  18.231  26.566   5.983
  454AUSL   AUS  433  18.500  28.493   7.336
  455AUSL   AUS  434  18.613  28.750   6.990
  456AUL    AUL  435  18.652  28.372   7.009
  457THSLK    S  436  18.463  28.233   7.258
  458ETHY    C1  437  18.390  27.788   7.175
  459ETHY    C1  438  18.392  27.260   7.052
  460ETHY    C1  439  18.500  26.752   6.905
  461ETHY    C1  440  18.705  26.273   6.742
  462THSLK    S  441  18.736  28.560   6.847
  463ETHY    C1  442  18.831  28.192   6.592
  464ETHY    C1  443  19.005  27.811   6.247
  465ETHY    C1  444  19.247  27.511   5.870
  466ETHY    C1  445  19.548  27.290   5.471
  467AUC    AUC  446   6.185  18.458   7.500
  468AUC    AUC  447   6.431  18.458   7.348
  469AUC    AUC  448   6.431  18.458   7.651
  470AUC    AUC  449   5.940  18.458   7.348
  471AUC    AUC  450   5.940  18.458   7.651
  472AUC    AUC  451   6.034  18.703   7.500
  473AUC    AUC  452   6.337  18.703   7.500
  474AUC    AUC  453   6.034  18.212   7.500
  475AUC    AUC  454   6.337  18.212   7.500
  476AUC    AUC  455   6.185  18.306   7.745
  477AUC    AUC  456   6.185  18.609   7.745
  478AUC    AUC  457   6.185  18.306   7.254
  479AUC    AUC  458   6.185  18.609   7.254
  480AUC    AUC  459   6.676  18.458   7.196
  481AUC    AUC  460   6.676  18.458   7.500
  482AUC    AUC  461   6.676  18.458   7.803
  483AUC    AUC  462   5.694  18.458   7.196
  484AUC    AUC  463   5.694  18.458   7.500
  485AUC    AUC  464   5.694  18.458   7.803
  486AUC    AUC  465   5.882  18.948   7.500
  487AUC    AUC  466   6.185  18.948   7.500
  488AUC    AUC  467   6.489  18.948   7.500
  489AUC    AUC  468   5.882  17.967   7.500
  490AUC    AUC  469   6.185  17.967   7.500
  491AUC    AUC  470   6.489  17.967   7.500
  492AUC    AUC  471   6.185  18.154   7.991
  493AUC    AUC  472   6.185  18.458   7.991
  494AUC    AUC  473   6.185  18.761   7.991
  495AUC    AUC  474   6.185  18.154   7.009
  496AUC    AUC  475   6.185  18.458   7.009
  497AUC    AUC  476   6.185  18.761   7.009
  498AUC    AUC  477   6.431  18.306   7.897
  499AUC    AUC  478   6.431  18.609   7.897
  500AUC    AUC  479   6.431  18.306   7.103
  501AUC    AUC  480   6.431  18.609   7.103
  502AUC    AUC  481   5.940  18.306   7.897
  503AUC    AUC  482   5.940  18.609   7.897
  504AUC    AUC  483   5.940  18.306   7.103
  505AUC    AUC  484   5.940  18.609   7.103
  506AUC    AUC  485   6.582  18.703   7.348
  507AUC    AUC  486   6.582  18.703   7.651
  508AUC    AUC  487   5.788  18.703   7.348
  509AUC    AUC  488   5.788  18.703   7.651
  510AUC    AUC  489   6.582  18.212   7.348
  511AUC    AUC  490   6.582  18.212   7.651
  512AUC    AUC  491   5.788  18.212   7.348
  513AUC    AUC  492   5.788  18.212   7.651
  514AUC    AUC  493   6.034  18.855   7.745
  515AUC    AUC  494   6.337  18.855   7.745
  516AUC    AUC  495   6.034  18.060   7.745
  517AUC    AUC  496   6.337  18.060   7.745
  518AUC    AUC  497   6.034  18.855   7.254
  519AUC    AUC  498   6.337  18.855   7.254
  520AUC    AUC  499   6.034  18.060   7.254
  521AUC    AUC  500   6.337  18.060   7.254
  522AUSL   AUS  501   6.594  18.458   8.080
  523AUSL   AUS  502   6.450  18.041   8.011
  524AUL    AUL  503   6.676  18.154   8.294
  525THSLK    S  504   6.568  17.853   8.156
  526ETHY    C1  505   6.664  17.485   8.412
  527ETHY    C1  506   6.842  17.102   8.753
  528ETHY    C1  507   7.084  16.802   9.130
  529ETHY    C1  508   7.380  16.583   9.534
  530THSLK    S  509   6.693  18.411   8.327
  531ETHY    C1  510   6.920  18.261   8.694
  532ETHY    C1  511   7.204  18.173   9.148
  533ETHY    C1  512   7.488  18.195   9.607
  534ETHY    C1  513   7.765  18.317  10.061
  535AUSL   AUS  514   6.349  18.306   8.173
  536AUSL   AUS  515   6.022  18.609   8.173
  537AUL    AUL  516   6.185  18.458   8.482
  538THSLK    S  517   6.430  18.255   8.418
  539ETHY    C1  518   6.520  18.037   8.810
  540ETHY    C1  519   6.648  17.863   9.308
  541ETHY    C1  520   6.794  17.798   9.823
  542ETHY    C1  521   6.951  17.832  10.346
  543THSLK    S  522   5.935  18.569   8.432
  544ETHY    C1  523   5.846  18.495   8.874
  545ETHY    C1  524   5.722  18.497   9.403
  546ETHY    C1  525   5.577  18.606   9.912
  547ETHY    C1  526   5.414  18.810  10.392
  548AUSL   AUS  527   6.349  18.609   8.173
  549AUSL   AUS  528   6.695  18.722   7.916
  550AUL    AUL  529   6.676  18.761   8.294
  551THSLK    S  530   6.436  18.661   8.416
  552ETHY    C1  531   6.524  18.878   8.809
  553ETHY    C1  532   6.649  19.051   9.308
  554ETHY    C1  533   6.794  19.117   9.823
  555ETHY    C1  534   6.957  19.084  10.345
  556THSLK    S  535   6.871  18.828   8.079
  557ETHY    C1  536   7.233  18.878   8.355
  558ETHY    C1  537   7.640  19.027   8.681
  559ETHY    C1  538   8.002  19.276   8.995
  560ETHY    C1  539   8.314  19.612   9.293
  561AUSL   AUS  540   6.594  18.458   6.920
  562AUSL   AUS  541   6.450  18.874   6.990
  563AUL    AUL  542   6.676  18.761   6.706
  564THSLK    S  543   6.698  18.411   6.676
  565ETHY    C1  544   6.925  18.261   6.308
  566ETHY    C1  545   7.204  18.173   5.851
  567ETHY    C1  546   7.488  18.195   5.393
  568ETHY    C1  547   7.770  18.317   4.941
  569THSLK    S  548   6.627  18.993   6.820
  570ETHY    C1  549   6.899  19.134   6.480
  571ETHY    C1  550   7.177  19.381   6.085
  572ETHY    C1  551   7.393  19.714   5.720
  573ETHY    C1  552   7.550  20.121   5.391
  574AUSL   AUS  553   6.349  18.306   6.826
  575AUSL   AUS  554   6.695  18.193   7.083
  576AUL    AUL  555   6.676  18.154   6.706
  577THSLK    S  556   6.835  18.002   6.939
  578ETHY    C1  557   7.068  17.685   6.707
  579ETHY    C1  558   7.398  17.378   6.403
  580ETHY    C1  559   7.778  17.169   6.083
  581ETHY    C1  560   8.199  17.052   5.754
  582THSLK    S  561   6.436  18.254   6.583
  583ETHY    C1  562   6.524  18.037   6.191
  584ETHY    C1  563   6.649  17.864   5.692
  585ETHY    C1  564   6.794  17.798   5.176
  586ETHY    C1  565   6.957  17.831   4.656
  587AUSL   AUS  566   6.349  18.609   6.826
  588AUSL   AUS  567   6.022  18.306   6.826
  589AUL    AUL  568   6.185  18.458   6.518
  590THSLK    S  569   5.926  18.254   6.586
  591ETHY    C1  570   5.787  18.039   6.206
  592ETHY    C1  571   5.630  17.868   5.717
  593ETHY    C1  572   5.491  17.802   5.199
  594ETHY    C1  573   5.375  17.833   4.666
  595THSLK    S  574   6.451  18.570   6.572
  596ETHY    C1  575   6.588  18.493   6.142
  597ETHY    C1  576   6.741  18.493   5.622
  598ETHY    C1  577   6.879  18.602   5.112
  599ETHY    C1  578   7.002  18.809   4.621
  600AUSL   AUS  579   5.776  18.458   8.080
  601AUSL   AUS  580   5.921  18.874   8.011
  602AUL    AUL  581   5.694  18.761   8.294
  603THSLK    S  582   5.672  18.411   8.325
  604ETHY    C1  583   5.446  18.261   8.691
  605ETHY    C1  584   5.166  18.173   9.148
  606ETHY    C1  585   4.883  18.195   9.607
  607ETHY    C1  586   4.600  18.317  10.058
  608THSLK    S  587   5.798  19.007   8.201
  609ETHY    C1  588   5.702  19.202   8.604
  610ETHY    C1  589   5.529  19.483   9.034
  611ETHY    C1  590   5.286  19.809   9.390
  612ETHY    C1  591   4.985  20.168   9.671
  613AUSL   AUS  592   6.022  18.306   8.173
  614AUSL   AUS  593   5.675  18.193   7.916
  615AUL    AUL  594   5.694  18.154   8.294
  616THSLK    S  595   5.496  18.027   8.032
  617ETHY    C1  596   5.135  17.780   8.166
  618ETHY    C1  597   4.730  17.514   8.410
  619ETHY    C1  598   4.369  17.294   8.745
  620ETHY    C1  599   4.053  17.121   9.156
  621THSLK    S  600   5.920  18.256   8.413
  622ETHY    C1  601   5.782  18.041   8.793
  623ETHY    C1  602   5.629  17.868   9.284
  624ETHY    C1  603   5.492  17.802   9.800
  625ETHY    C1  604   5.368  17.834  10.332
  626AUSL   AUS  605   5.776  18.458   6.920
  627AUSL   AUS  606   5.921  18.041   6.990
  628AUL    AUL  607   5.694  18.154   6.706
  629THSLK    S  608   5.677  18.411   6.673
  630ETHY    C1  609   5.450  18.261   6.305
  631ETHY    C1  610   5.167  18.173   5.851
  632ETHY    C1  611   4.883  18.195   5.393
  633ETHY    C1  612   4.606  18.317   4.938
  634THSLK    S  613   5.747  17.866   6.865
  635ETHY    C1  614   5.475  17.553   6.673
  636ETHY    C1  615   5.194  17.205   6.367
  637ETHY    C1  616   4.977  16.897   5.980
  638ETHY    C1  617   4.825  16.630   5.528
  639AUSL   AUS  618   6.022  18.609   6.826
  640AUSL   AUS  619   5.675  18.722   7.083
  641AUL    AUL  620   5.694  18.761   6.706
  642THSLK    S  621   5.539  18.853   6.893
  643ETHY    C1  622   5.305  18.974   6.518
  644ETHY    C1  623   4.973  19.162   6.132
  645ETHY    C1  624   4.593  19.401   5.833
  646ETHY    C1  625   4.176  19.681   5.618
  647THSLK    S  626   5.941  18.571   6.566
  648ETHY    C1  627   5.851  18.496   6.124
  649ETHY    C1  628   5.723  18.497   5.597
  650ETHY    C1  629   5.577  18.606   5.089
  651ETHY    C1  630   5.420  18.812   4.608
  652AUSL   AUS  631   6.765  18.867   7.500
  653AUSL   AUS  632   6.695  18.722   7.083
  654AUL    AUL  633   6.979  18.948   7.196
  655THSLK    S  634   6.875  18.829   6.925
  656ETHY    C1  635   7.236  18.879   6.648
  657ETHY    C1  636   7.640  19.027   6.319
  658ETHY    C1  637   8.002  19.276   6.005
  659ETHY    C1  638   8.318  19.613   5.713
  660THSLK    S  639   7.035  18.928   7.503
  661ETHY    C1  640   7.482  19.028   7.502
  662ETHY    C1  641   7.984  19.234   7.500
  663ETHY    C1  642   8.431  19.536   7.500
  664ETHY    C1  643   8.819  19.920   7.503
  665AUSL   AUS  644   6.859  18.621   7.348
  666AUSL   AUS  645   6.859  18.294   7.651
  667AUL    AUL  646   7.167  18.458   7.500
  668THSLK    S  647   7.121  18.668   7.345
  669ETHY    C1  648   7.571  18.637   7.270
  670ETHY    C1  649   8.103  18.692   7.179
  671ETHY    C1  650   8.610  18.855   7.091
  672ETHY    C1  651   9.085  19.113   7.011
  673THSLK    S  652   7.096  18.157   7.659
  674ETHY    C1  653   7.467  17.899   7.726
  675ETHY    C1  654   7.953  17.673   7.808
  676ETHY    C1  655   8.472  17.553   7.896
  677ETHY    C1  656   9.010  17.531   7.989
  678AUSL   AUS  657   6.859  18.621   7.651
  679AUSL   AUS  658   6.602  18.968   7.764
  680AUL    AUL  659   6.979  18.948   7.803
  681THSLK    S  660   6.787  19.092   7.924
  682ETHY    C1  661   7.144  19.284   8.136
  683ETHY    C1  662   7.521  19.591   8.377
  684ETHY    C1  663   7.822  19.978   8.602
  685ETHY    C1  664   8.049  20.429   8.809
  686THSLK    S  665   7.120  18.667   7.661
  687ETHY    C1  666   7.571  18.637   7.734
  688ETHY    C1  667   8.104  18.692   7.821
  689ETHY    C1  668   8.610  18.855   7.908
  690ETHY    C1  669   9.084  19.113   7.995
  691AUSL   AUS  670   5.605  18.867   7.500
  692AUSL   AUS  671   5.675  18.722   7.916
  693AUL    AUL  672   5.391  18.948   7.803
  694THSLK    S  673   5.535  18.848   8.107
  695ETHY    C1  674   5.302  18.969   8.482
  696ETHY    C1  675   4.973  19.162   8.868
  697ETHY    C1  676   4.593  19.401   9.166
  698ETHY    C1  677   4.172  19.676   9.381
  699THSLK    S  678   5.384  19.007   7.503
  700ETHY    C1  679   5.095  19.362   7.502
  701ETHY    C1  680   4.687  19.719   7.500
  702ETHY    C1  681   4.217  19.983   7.500
  703ETHY    C1  682   3.699  20.159   7.503
  704AUSL   AUS  683   5.512  18.621   7.348
  705AUSL   AUS  684   5.769  18.968   7.236
  706AUL    AUL  685   5.391  18.948   7.196
  707THSLK    S  686   5.275  18.735   7.303
  708ETHY    C1  687   4.903  18.909   7.101
  709ETHY    C1  688   4.417  19.085   6.936
  710ETHY    C1  689   3.899  19.217   6.868
  711ETHY    C1  690   3.361  19.309   6.890
  712THSLK    S  691   5.649  19.135   7.056
  713ETHY    C1  692   5.497  19.454   6.765
  714ETHY    C1  693   5.243  19.834   6.473
  715ETHY    C1  694   4.910  20.202   6.260
  716ETHY    C1  695   4.514  20.552   6.122
  717AUSL   AUS  696   5.512  18.621   7.651
  718AUSL   AUS  697   5.512  18.294   7.348
  719AUL    AUL  698   5.204  18.458   7.500
  720THSLK    S  699   5.250  18.219   7.384
  721ETHY    C1  700   4.800  18.168   7.446
  722ETHY    C1  701   4.267  18.065   7.434
  723ETHY    C1  702   3.760  17.915   7.327
  724ETHY    C1  703   3.287  17.722   7.135
  725THSLK    S  704   5.274  18.729   7.699
  726ETHY    C1  705   4.903  18.905   7.901
  727ETHY    C1  706   4.417  19.084   8.063
  728ETHY    C1  707   3.899  19.217   8.133
  729ETHY    C1  708   3.360  19.303   8.114
  730AUSL   AUS  709   6.765  18.048   7.500
  731AUSL   AUS  710   6.695  18.193   7.916
  732AUL    AUL  711   6.979  17.967   7.803
  733THSLK    S  712   6.986  17.908   7.503
  734ETHY    C1  713   7.275  17.553   7.502
  735ETHY    C1  714   7.684  17.196   7.500
  736ETHY    C1  715   8.154  16.932   7.500
  737ETHY    C1  716   8.671  16.756   7.503
  738THSLK    S  717   6.832  18.003   8.066
  739ETHY    C1  718   7.065  17.686   8.297
  740ETHY    C1  719   7.398  17.379   8.598
  741ETHY    C1  720   7.778  17.169   8.918
  742ETHY    C1  721   8.195  17.053   9.250
  743AUSL   AUS  722   6.859  18.294   7.348
  744AUSL   AUS  723   6.602  17.947   7.236
  745AUL    AUL  724   6.979  17.967   7.196
  746THSLK    S  725   7.097  18.157   7.346
  747ETHY    C1  726   7.468  17.899   7.279
  748ETHY    C1  727   7.953  17.673   7.192
  749ETHY    C1  728   8.472  17.553   7.103
  750ETHY    C1  729   9.011  17.531   7.018
  751THSLK    S  730   6.725  17.756   7.099
  752ETHY    C1  731   6.875  17.354   6.942
  753ETHY    C1  732   7.128  16.924   6.728
  754ETHY    C1  733   7.460  16.568   6.495
  755ETHY    C1  734   7.859  16.287   6.249
  756AUSL   AUS  735   5.605  18.048   7.500
  757AUSL   AUS  736   5.675  18.193   7.083
  758AUL    AUL  737   5.391  17.967   7.196
  759THSLK    S  738   5.500  18.022   6.966
  760ETHY    C1  739   5.138  17.776   6.833
  761ETHY    C1  740   4.730  17.513   6.589
  762ETHY    C1  741   4.369  17.294   6.255
  763ETHY    C1  742   4.057  17.116   5.843
  764THSLK    S  743   5.335  17.987   7.503
  765ETHY    C1  744   4.889  17.887   7.502
  766ETHY    C1  745   4.387  17.681   7.500
  767ETHY    C1  746   3.940  17.379   7.500
  768ETHY    C1  747   3.552  16.995   7.503
  769AUSL   AUS  748   5.512  18.294   7.651
  770AUSL   AUS  749   5.769  17.947   7.764
  771AUL    AUL  750   5.391  17.967   7.803
  772THSLK    S  751   5.581  17.799   7.881
  773ETHY    C1  752   5.225  17.523   7.958
  774ETHY    C1  753   4.850  17.166   8.122
  775ETHY    C1  754   4.549  16.792   8.367
  776ETHY    C1  755   4.318  16.410   8.682
  777THSLK    S  756   5.249  18.224   7.618
  778ETHY    C1  757   4.799  18.172   7.557
  779ETHY    C1  758   4.267  18.066   7.566
  780ETHY    C1  759   3.760  17.915   7.673
  781ETHY    C1  760   3.286  17.727   7.867
  782AUSL   AUS  761   6.185  19.038   7.909
  783AUSL   AUS  762   5.769  18.968   7.764
  784AUL    AUL  763   5.882  19.252   7.991
  785THSLK    S  764   5.646  19.130   7.948
  786ETHY    C1  765   5.495  19.450   8.237
  787ETHY    C1  766   5.242  19.833   8.527
  788ETHY    C1  767   4.910  20.201   8.740
  789ETHY    C1  768   4.511  20.547   8.881
  790THSLK    S  769   6.223  19.269   8.034
  791ETHY    C1  770   6.351  19.595   8.327
  792ETHY    C1  771   6.428  20.027   8.646
  793ETHY    C1  772   6.409  20.492   8.920
  794ETHY    C1  773   6.303  20.977   9.147
  795AUSL   AUS  774   6.034  19.131   7.663
  796AUSL   AUS  775   6.337  19.131   7.336
  797AUL    AUL  776   6.185  19.439   7.500
  798THSLK    S  777   6.071  19.383   7.772
  799ETHY    C1  778   6.144  19.807   7.929
  800ETHY    C1  779   6.141  20.323   8.095
  801ETHY    C1  780   6.033  20.834   8.229
  802ETHY    C1  781   5.829  21.330   8.336
  803THSLK    S  782   6.388  19.371   7.237
  804ETHY    C1  783   6.601  19.748   7.091
  805ETHY    C1  784   6.771  20.237   6.929
  806ETHY    C1  785   6.838  20.755   6.792
  807ETHY    C1  786   6.809  21.289   6.682
  808AUSL   AUS  787   6.337  19.131   7.663
  809AUSL   AUS  788   6.450  18.874   8.011
  810AUL    AUL  789   6.489  19.252   7.991
  811THSLK    S  790   6.623  18.991   8.184
  812ETHY    C1  791   6.896  19.132   8.522
  813ETHY    C1  792   7.177  19.381   8.915
  814ETHY    C1  793   7.393  19.714   9.279
  815ETHY    C1  794   7.545  20.119   9.614
  816THSLK    S  795   6.387  19.369   7.768
  817ETHY    C1  796   6.600  19.748   7.913
  818ETHY    C1  797   6.771  20.237   8.072
  819ETHY    C1  798   6.838  20.755   8.207
  820ETHY    C1  799   6.807  21.288   8.325
  821AUSL   AUS  800   6.185  17.877   7.909
  822AUSL   AUS  801   6.602  17.947   7.764
  823AUL    AUL  802   6.489  17.663   7.991
  824THSLK    S  803   6.144  17.620   7.992
  825ETHY    C1  804   6.017  17.211   8.152
  826ETHY    C1  805   5.943  16.730   8.391
  827ETHY    C1  806   5.962  16.278   8.684
  828ETHY    C1  807   6.064  15.860   9.021
  829THSLK    S  808   6.722  17.757   7.907
  830ETHY    C1  809   6.873  17.355   8.062
  831ETHY    C1  810   7.128  16.924   8.272
  832ETHY    C1  811   7.460  16.568   8.505
  833ETHY    C1  812   7.856  16.289   8.758
  834AUSL   AUS  813   6.034  17.784   7.663
  835AUSL   AUS  814   5.921  18.041   8.011
  836AUL    AUL  815   5.882  17.663   7.991
  837THSLK    S  816   5.983  17.539   7.744
  838ETHY    C1  817   5.770  17.140   7.812
  839ETHY    C1  818   5.599  16.637   7.925
  840ETHY    C1  819   5.533  16.123   8.072
  841ETHY    C1  820   5.562  15.608   8.252
  842THSLK    S  821   5.743  17.871   8.136
  843ETHY    C1  822   5.471  17.556   8.327
  844ETHY    C1  823   5.193  17.205   8.633
  845ETHY    C1  824   4.977  16.897   9.019
  846ETHY    C1  825   4.821  16.635   9.473
  847AUSL   AUS  826   6.337  17.784   7.663
  848AUSL   AUS  827   6.034  17.784   7.336
  849AUL    AUL  828   6.185  17.476   7.500
  850THSLK    S  829   5.984  17.537   7.261
  851ETHY    C1  830   5.771  17.139   7.192
  852ETHY    C1  831   5.599  16.637   7.076
  853ETHY    C1  832   5.533  16.123   6.927
  854ETHY    C1  833   5.564  15.606   6.754
  855THSLK    S  834   6.298  17.525   7.748
  856ETHY    C1  835   6.226  17.080   7.829
  857ETHY    C1  836   6.229  16.551   7.948
  858ETHY    C1  837   6.338  16.043   8.095
  859ETHY    C1  838   6.540  15.565   8.264
  860AUSL   AUS  839   6.185  19.038   7.091
  861AUSL   AUS  840   6.602  18.968   7.236
  862AUL    AUL  841   6.489  19.252   7.009
  863THSLK    S  842   6.227  19.272   6.971
  864ETHY    C1  843   6.354  19.597   6.676
  865ETHY    C1  844   6.428  20.027   6.353
  866ETHY    C1  845   6.409  20.492   6.080
  867ETHY    C1  846   6.306  20.980   5.857
  868THSLK    S  847   6.789  19.093   7.081
  869ETHY    C1  848   7.146  19.285   6.869
  870ETHY    C1  849   7.521  19.591   6.623
  871ETHY    C1  850   7.822  19.978   6.398
  872ETHY    C1  851   8.052  20.430   6.197
  873AUSL   AUS  852   6.034  19.131   7.336
  874AUSL   AUS  853   5.921  18.874   6.990
  875AUL    AUL  854   5.882  19.252   7.009
  876THSLK    S  855   6.073  19.385   7.233
  877ETHY    C1  856   6.145  19.808   7.074
  878ETHY    C1  857   6.142  20.324   6.906
  879ETHY    C1  858   6.033  20.834   6.770
  880ETHY    C1  859   5.831  21.332   6.670
  881THSLK    S  860   5.802  19.011   6.800
  882ETHY    C1  861   5.706  19.205   6.396
  883ETHY    C1  862   5.529  19.483   5.966
  884ETHY    C1  863   5.286  19.808   5.611
  885ETHY    C1  864   4.990  20.173   5.330
  886AUSL   AUS  865   6.185  17.877   7.091
  887AUSL   AUS  866   5.769  17.947   7.236
  888AUL    AUL  867   5.882  17.663   7.009
  889THSLK    S  868   5.584  17.794   7.122
  890ETHY    C1  869   5.227  17.520   7.044
  891ETHY    C1  870   4.850  17.166   6.878
  892ETHY    C1  871   4.548  16.792   6.633
  893ETHY    C1  872   4.321  16.405   6.321
  894THSLK    S  873   6.147  17.617   7.013
  895ETHY    C1  874   6.019  17.209   6.852
  896ETHY    C1  875   5.943  16.730   6.609
  897ETHY    C1  876   5.962  16.278   6.315
  898ETHY    C1  877   6.068  15.857   5.983
  899AUSL   AUS  878   6.337  17.784   7.336
  900AUSL   AUS  879   6.450  18.041   6.990
  901AUL    AUL  880   6.489  17.663   7.009
  902THSLK    S  881   6.300  17.524   7.258
  903ETHY    C1  882   6.227  17.079   7.175
  904ETHY    C1  883   6.229  16.551   7.052
  905ETHY    C1  884   6.337  16.043   6.905
  906ETHY    C1  885   6.542  15.564   6.742
  907THSLK    S  886   6.573  17.851   6.847
  908ETHY    C1  887   6.668  17.483   6.592
  909ETHY    C1  888   6.842  17.102   6.247
  910ETHY    C1  889   7.084  16.802   5.870
  911ETHY    C1  890   7.385  16.581   5.471
  912AUC    AUC  891  10.808   0.172   7.500
  913AUC    AUC  892  11.054   0.172   7.348
  914AUC    AUC  893  11.054   0.172   7.651
  915AUC    AUC  894  10.563   0.172   7.348
  916AUC    AUC  895  10.563   0.172   7.651
  917AUC    AUC  896  10.657   0.417   7.500
  918AUC    AUC  897  10.960   0.417   7.500
  919AUC    AUC  898  10.657  -0.074   7.500
  920AUC    AUC  899  10.960  -0.074   7.500
  921AUC    AUC  900  10.808   0.020   7.745
  922AUC    AUC  901  10.808   0.323   7.745
  923AUC    AUC  902  10.808   0.020   7.254
  924AUC    AUC  903  10.808   0.323   7.254
  925AUC    AUC  904  11.299   0.172   7.196
  926AUC    AUC  905  11.299   0.172   7.500
  927AUC    AUC  906  11.299   0.172   7.803
  928AUC    AUC  907  10.317   0.172   7.196
  929AUC    AUC  908  10.317   0.172   7.500
  930AUC    AUC  909  10.317   0.172   7.803
  931AUC    AUC  910  10.505   0.662   7.500
  932AUC    AUC  911  10.808   0.662   7.500
  933AUC    AUC  912  11.112   0.662   7.500
  934AUC    AUC  913  10.505  -0.319   7.500
  935AUC    AUC  914  10.808  -0.319   7.500
  936AUC    AUC  915  11.112  -0.319   7.500
  937AUC    AUC  916  10.808  -0.132   7.991
  938AUC    AUC  917  10.808   0.172   7.991
  939AUC    AUC  918  10.808   0.475   7.991
  940AUC    AUC  919  10.808  -0.132   7.009
  941AUC    AUC  920  10.808   0.172   7.009
  942AUC    AUC  921  10.808   0.475   7.009
  943AUC    AUC  922  11.054   0.020   7.897
  944AUC    AUC  923  11.054   0.323   7.897
  945AUC    AUC  924  11.054   0.020   7.103
  946AUC    AUC  925  11.054   0.323   7.103
  947AUC    AUC  926  10.563   0.020   7.897
  948AUC    AUC  927  10.563   0.323   7.897
  949AUC    AUC  928  10.563   0.020   7.103
  950AUC    AUC  929  10.563   0.323   7.103
  951AUC    AUC  930  11.205   0.417   7.348
  952AUC    AUC  931  11.205   0.417   7.651
  953AUC    AUC  932  10.411   0.417   7.348
  954AUC    AUC  933  10.411   0.417   7.651
  955AUC    AUC  934  11.205  -0.074   7.348
  956AUC    AUC  935  11.205  -0.074   7.651
  957AUC    AUC  936  10.411  -0.074   7.348
  958AUC    AUC  937  10.411  -0.074   7.651
  959AUC    AUC  938  10.657   0.569   7.745
  960AUC    AUC  939  10.960   0.569   7.745
  961AUC    AUC  940  10.657  -0.226   7.745
  962AUC    AUC  941  10.960  -0.226   7.745
  963AUC    AUC  942  10.657   0.569   7.254
  964AUC    AUC  943  10.960   0.569   7.254
  965AUC    AUC  944  10.657  -0.226   7.254
  966AUC    AUC  945  10.960  -0.226   7.254
  967AUSL   AUS  946  11.217   0.172   8.080
  968AUSL   AUS  947  11.073  -0.245   8.011
  969AUL    AUL  948  11.299  -0.132   8.294
  970THSLK    S  949  11.191  -0.433   8.156
  971ETHY    C1  950  11.287  -0.801   8.412
  972ETHY    C1  951  11.465  -1.184   8.753
  973ETHY    C1  952  11.707  -1.484   9.130
  974ETHY    C1  953  12.003  -1.703   9.534
  975THSLK    S  954  11.316   0.125   8.327
  976ETHY    C1  955  11.543  -0.025   8.694
  977ETHY    C1  956  11.827  -0.113   9.148
  978ETHY    C1  957  12.111  -0.091   9.607
  979ETHY    C1  958  12.388   0.031  10.061
  980AUSL   AUS  959  10.972   0.020   8.173
  981AUSL   AUS  960  10.645   0.323   8.173
  982AUL    AUL  961  10.808   0.172   8.482
  983THSLK    S  962  11.053  -0.031   8.418
  984ETHY    C1  963  11.143  -0.249   8.810
  985ETHY    C1  964  11.271  -0.423   9.308
  986ETHY    C1  965  11.417  -0.488   9.823
  987ETHY    C1  966  11.574  -0.454  10.346
  988THSLK    S  967  10.558   0.283   8.432
  989ETHY    C1  968  10.469   0.209   8.874
  990ETHY    C1  969  10.345   0.211   9.403
  991ETHY    C1  970  10.200   0.320   9.912
  992ETHY    C1  971  10.037   0.524  10.392
  993AUSL   AUS  972  10.972   0.323   8.173
  994AUSL   AUS  973  11.318   0.436   7.916
  995AUL    AUL  974  11.299   0.475   8.294
  996THSLK    S  975  11.059   0.375   8.416
  997ETHY    C1  976  11.147   0.592   8.809
  998ETHY    C1  977  11.272   0.765   9.308
  999ETHY    C1  978  11.417   0.831   9.823
 1000ETHY    C1  979  11.580   0.798  10.345
 1001THSLK    S  980  11.494   0.542   8.079
 1002ETHY    C1  981  11.856   0.592   8.355
 1003ETHY    C1  982  12.263   0.741   8.681
 1004ETHY    C1  983  12.625   0.990   8.995
 1005ETHY    C1  984  12.937   1.326   9.293
 1006AUSL   AUS  985  11.217   0.172   6.920
 1007AUSL   AUS  986  11.073   0.588   6.990
 1008AUL    AUL  987  11.299   0.475   6.706
 1009THSLK    S  988  11.321   0.125   6.676
 1010ETHY    C1  989  11.548  -0.025   6.308
 1011ETHY    C1  990  11.827  -0.113   5.851
 1012ETHY    C1  991  12.111  -0.091   5.393
 1013ETHY    C1  992  12.393   0.031   4.941
 1014THSLK    S  993  11.250   0.707   6.820
 1015ETHY    C1  994  11.522   0.848   6.480
 1016ETHY    C1  995  11.800   1.095   6.085
 1017ETHY    C1  996  12.016   1.428   5.720
 1018ETHY    C1  997  12.173   1.835   5.391
 1019AUSL   AUS  998  10.972   0.020   6.826
 1020AUSL   AUS  999  11.318  -0.093   7.083
 1021AUL    AUL 1000  11.299  -0.132   6.706
 1022THSLK    S 1001  11.458  -0.284   6.939
 1023ETHY    C1 1002  11.691  -0.601   6.707
 1024ETHY    C1 1003  12.021  -0.908   6.403
 1025ETHY    C1 1004  12.401  -1.117   6.083
 1026ETHY    C1 1005  12.822  -1.234   5.754
 1027THSLK    S 1006  11.059  -0.032   6.583
 1028ETHY    C1 1007  11.147  -0.249   6.191
 1029ETHY    C1 1008  11.272  -0.422   5.692
 1030ETHY    C1 1009  11.417  -0.488   5.176
 1031ETHY    C1 1010  11.580  -0.455   4.656
 1032AUSL   AUS 1011  10.972   0.323   6.826
 1033AUSL   AUS 1012  10.645   0.020   6.826
 1034AUL    AUL 1013  10.808   0.172   6.518
 1035THSLK    S 1014  10.549  -0.032   6.586
 1036ETHY    C1 1015  10.410  -0.247   6.206
 1037ETHY    C1 1016  10.253  -0.418   5.717
 1038ETHY    C1 1017  10.114  -0.484   5.199
 1039ETHY    C1 1018   9.998  -0.453   4.666
 1040THSLK    S 1019  11.074   0.284   6.572
 1041ETHY    C1 1020  11.211   0.207   6.142
 1042ETHY    C1 1021  11.364   0.207   5.622
 1043ETHY    C1 1022  11.502   0.316   5.112
 1044ETHY    C1 1023  11.625   0.523   4.621
 1045AUSL   AUS 1024  10.399   0.172   8.080
 1046AUSL   AUS 1025  10.544   0.588   8.011
 1047AUL    AUL 1026  10.317   0.475   8.294
 1048THSLK    S 1027  10.295   0.125   8.325
 1049ETHY    C1 1028  10.069  -0.025   8.691
 1050ETHY    C1 1029   9.789  -0.113   9.148
 1051ETHY    C1 1030   9.506  -0.091   9.607
 1052ETHY    C1 1031   9.223   0.031  10.058
 1053THSLK    S 1032  10.421   0.721   8.201
 1054ETHY    C1 1033  10.325   0.916   8.604
 1055ETHY    C1 1034  10.152   1.197   9.034
 1056ETHY    C1 1035   9.909   1.523   9.390
 1057ETHY    C1 1036   9.608   1.882   9.671
 1058AUSL   AUS 1037  10.645   0.020   8.173
 1059AUSL   AUS 1038  10.298  -0.093   7.916
 1060AUL    AUL 1039  10.317  -0.132   8.294
 1061THSLK    S 1040  10.119  -0.259   8.032
 1062ETHY    C1 1041   9.758  -0.506   8.166
 1063ETHY    C1 1042   9.353  -0.772   8.410
 1064ETHY    C1 1043   8.992  -0.992   8.745
 1065ETHY    C1 1044   8.676  -1.165   9.156
 1066THSLK    S 1045  10.543  -0.030   8.413
 1067ETHY    C1 1046  10.405  -0.245   8.793
 1068ETHY    C1 1047  10.252  -0.418   9.284
 1069ETHY    C1 1048  10.115  -0.484   9.800
 1070ETHY    C1 1049   9.991  -0.452  10.332
 1071AUSL   AUS 1050  10.399   0.172   6.920
 1072AUSL   AUS 1051  10.544  -0.245   6.990
 1073AUL    AUL 1052  10.317  -0.132   6.706
 1074THSLK    S 1053  10.300   0.125   6.673
 1075ETHY    C1 1054  10.073  -0.025   6.305
 1076ETHY    C1 1055   9.790  -0.113   5.851
 1077ETHY    C1 1056   9.506  -0.091   5.393
 1078ETHY    C1 1057   9.229   0.031   4.938
 1079THSLK    S 1058  10.370  -0.420   6.865
 1080ETHY    C1 1059  10.098  -0.733   6.673
 1081ETHY    C1 1060   9.817  -1.081   6.367
 1082ETHY    C1 1061   9.600  -1.389   5.980
 1083ETHY    C1 1062   9.448  -1.656   5.528
 1084AUSL   AUS 1063  10.645   0.323   6.826
 1085AUSL   AUS 1064  10.298   0.436   7.083
 1086AUL    AUL 1065  10.317   0.475   6.706
 1087THSLK    S 1066  10.162   0.567   6.893
 1088ETHY    C1 1067   9.928   0.688   6.518
 1089ETHY    C1 1068   9.596   0.876   6.132
 1090ETHY    C1 1069   9.216   1.115   5.833
 1091ETHY    C1 1070   8.799   1.395   5.618
 1092THSLK    S 1071  10.564   0.285   6.566
 1093ETHY    C1 1072  10.474   0.210   6.124
 1094ETHY    C1 1073  10.346   0.211   5.597
 1095ETHY    C1 1074  10.200   0.320   5.089
 1096ETHY    C1 1075  10.043   0.526   4.608
 1097AUSL   AUS 1076  11.388   0.581   7.500
 1098AUSL   AUS 1077  11.318   0.436   7.083
 1099AUL    AUL 1078  11.602   0.662   7.196
 1100THSLK    S 1079  11.498   0.543   6.925
 1101ETHY    C1 1080  11.859   0.593   6.648
 1102ETHY    C1 1081  12.263   0.741   6.319
 1103ETHY    C1 1082  12.625   0.990   6.005
 1104ETHY    C1 1083  12.941   1.327   5.713
 1105THSLK    S 1084  11.658   0.642   7.503
 1106ETHY    C1 1085  12.105   0.742   7.502
 1107ETHY    C1 1086  12.607   0.948   7.500
 1108ETHY    C1 1087  13.054   1.250   7.500
 1109ETHY    C1 1088  13.442   1.634   7.503
 1110AUSL   AUS 1089  11.482   0.335   7.348
 1111AUSL   AUS 1090  11.482   0.008   7.651
 1112AUL    AUL 1091  11.790   0.172   7.500
 1113THSLK    S 1092  11.744   0.382   7.345
 1114ETHY    C1 1093  12.194   0.351   7.270
 1115ETHY    C1 1094  12.726   0.406   7.179
 1116ETHY    C1 1095  13.233   0.569   7.091
 1117ETHY    C1 1096  13.708   0.827   7.011
 1118THSLK    S 1097  11.719  -0.129   7.659
 1119ETHY    C1 1098  12.090  -0.387   7.726
 1120ETHY    C1 1099  12.576  -0.613   7.808
 1121ETHY    C1 1100  13.095  -0.733   7.896
 1122ETHY    C1 1101  13.633  -0.755   7.989
 1123AUSL   AUS 1102  11.482   0.335   7.651
 1124AUSL   AUS 1103  11.225   0.682   7.764
 1125AUL    AUL 1104  11.602   0.662   7.803
 1126THSLK    S 1105  11.410   0.806   7.924
 1127ETHY    C1 1106  11.767   0.998   8.136
 1128ETHY    C1 1107  12.144   1.305   8.377
 1129ETHY    C1 1108  12.445   1.692   8.602
 1130ETHY    C1 1109  12.672   2.143   8.809
 1131THSLK    S 1110  11.743   0.381   7.661
 1132ETHY    C1 1111  12.194   0.351   7.734
 1133ETHY    C1 1112  12.727   0.406   7.821
 1134ETHY    C1 1113  13.233   0.569   7.908
 1135ETHY    C1 1114  13.707   0.827   7.995
 1136AUSL   AUS 1115  10.228   0.581   7.500
 1137AUSL   AUS 1116  10.298   0.436   7.916
 1138AUL    AUL 1117  10.014   0.662   7.803
 1139THSLK    S 1118  10.158   0.562   8.107
 1140ETHY    C1 1119   9.925   0.683   8.482
 1141ETHY    C1 1120   9.596   0.876   8.868
 1142ETHY    C1 1121   9.216   1.115   9.166
 1143ETHY    C1 1122   8.795   1.390   9.381
 1144THSLK    S 1123  10.007   0.721   7.503
 1145ETHY    C1 1124   9.718   1.076   7.502
 1146ETHY    C1 1125   9.310   1.433   7.500
 1147ETHY    C1 1126   8.840   1.697   7.500
 1148ETHY    C1 1127   8.322   1.873   7.503
 1149AUSL   AUS 1128  10.135   0.335   7.348
 1150AUSL   AUS 1129  10.392   0.682   7.236
 1151AUL    AUL 1130  10.014   0.662   7.196
 1152THSLK    S 1131   9.898   0.449   7.303
 1153ETHY    C1 1132   9.526   0.623   7.101
 1154ETHY    C1 1133   9.040   0.799   6.936
 1155ETHY    C1 1134   8.522   0.931   6.868
 1156ETHY    C1 1135   7.984   1.023   6.890
 1157THSLK    S 1136  10.272   0.849   7.056
 1158ETHY    C1 1137  10.120   1.168   6.765
 1159ETHY    C1 1138   9.866   1.548   6.473
 1160ETHY    C1 1139   9.533   1.916   6.260
 1161ETHY    C1 1140   9.137   2.266   6.122
 1162AUSL   AUS 1141  10.135   0.335   7.651
 1163AUSL   AUS 1142  10.135   0.008   7.348
 1164AUL    AUL 1143   9.827   0.172   7.500
 1165THSLK    S 1144   9.873  -0.067   7.384
 1166ETHY    C1 1145   9.423  -0.118   7.446
 1167ETHY    C1 1146   8.890  -0.221   7.434
 1168ETHY    C1 1147   8.383  -0.371   7.327
 1169ETHY    C1 1148   7.910  -0.564   7.135
 1170THSLK    S 1149   9.897   0.443   7.699
 1171ETHY    C1 1150   9.526   0.619   7.901
 1172ETHY    C1 1151   9.040   0.798   8.063
 1173ETHY    C1 1152   8.522   0.931   8.133
 1174ETHY    C1 1153   7.983   1.017   8.114
 1175AUSL   AUS 1154  11.388  -0.238   7.500
 1176AUSL   AUS 1155  11.318  -0.093   7.916
 1177AUL    AUL 1156  11.602  -0.319   7.803
 1178THSLK    S 1157  11.609  -0.378   7.503
 1179ETHY    C1 1158  11.898  -0.733   7.502
 1180ETHY    C1 1159  12.307  -1.090   7.500
 1181ETHY    C1 1160  12.777  -1.354   7.500
 1182ETHY    C1 1161  13.294  -1.530   7.503
 1183THSLK    S 1162  11.455  -0.283   8.066
 1184ETHY    C1 1163  11.688  -0.600   8.297
 1185ETHY    C1 1164  12.021  -0.907   8.598
 1186ETHY    C1 1165  12.401  -1.117   8.918
 1187ETHY    C1 1166  12.818  -1.233   9.250
 1188AUSL   AUS 1167  11.482   0.008   7.348
 1189AUSL   AUS 1168  11.225  -0.339   7.236
 1190AUL    AUL 1169  11.602  -0.319   7.196
 1191THSLK    S 1170  11.720  -0.129   7.346
 1192ETHY    C1 1171  12.091  -0.387   7.279
 1193ETHY    C1 1172  12.576  -0.613   7.192
 1194ETHY    C1 1173  13.095  -0.733   7.103
 1195ETHY    C1 1174  13.634  -0.755   7.018
 1196THSLK    S 1175  11.348  -0.530   7.099
 1197ETHY    C1 1176  11.498  -0.932   6.942
 1198ETHY    C1 1177  11.751  -1.362   6.728
 1199ETHY    C1 1178  12.083  -1.718   6.495
 1200ETHY    C1 1179  12.482  -1.999   6.249
 1201AUSL   AUS 1180  10.228  -0.238   7.500
 1202AUSL   AUS 1181  10.298  -0.093   7.083
 1203AUL    AUL 1182  10.014  -0.319   7.196
 1204THSLK    S 1183  10.123  -0.264   6.966
 1205ETHY    C1 1184   9.761  -0.510   6.833
 1206ETHY    C1 1185   9.353  -0.773   6.589
 1207ETHY    C1 1186   8.992  -0.992   6.255
 1208ETHY    C1 1187   8.680  -1.170   5.843
 1209THSLK    S 1188   9.958  -0.299   7.503
 1210ETHY    C1 1189   9.512  -0.399   7.502
 1211ETHY    C1 1190   9.010  -0.605   7.500
 1212ETHY    C1 1191   8.563  -0.907   7.500
 1213ETHY    C1 1192   8.175  -1.291   7.503
 1214AUSL   AUS 1193  10.135   0.008   7.651
 1215AUSL   AUS 1194  10.392  -0.339   7.764
 1216AUL    AUL 1195  10.014  -0.319   7.803
 1217THSLK    S 1196  10.204  -0.487   7.881
 1218ETHY    C1 1197   9.848  -0.763   7.958
 1219ETHY    C1 1198   9.473  -1.120   8.122
 1220ETHY    C1 1199   9.172  -1.494   8.367
 1221ETHY    C1 1200   8.941  -1.876   8.682
 1222THSLK    S 1201   9.872  -0.062   7.618
 1223ETHY    C1 1202   9.422  -0.114   7.557
 1224ETHY    C1 1203   8.890  -0.220   7.566
 1225ETHY    C1 1204   8.383  -0.371   7.673
 1226ETHY    C1 1205   7.909  -0.559   7.867
 1227AUSL   AUS 1206  10.808   0.752   7.909
 1228AUSL   AUS 1207  10.392   0.682   7.764
 1229AUL    AUL 1208  10.505   0.966   7.991
 1230THSLK    S 1209  10.269   0.844   7.948
 1231ETHY    C1 1210  10.118   1.164   8.237
 1232ETHY    C1 1211   9.865   1.547   8.527
 1233ETHY    C1 1212   9.533   1.915   8.740
 1234ETHY    C1 1213   9.134   2.261   8.881
 1235THSLK    S 1214  10.846   0.983   8.034
 1236ETHY    C1 1215  10.974   1.309   8.327
 1237ETHY    C1 1216  11.051   1.741   8.646
 1238ETHY    C1 1217  11.032   2.206   8.920
 1239ETHY    C1 1218  10.926   2.691   9.147
 1240AUSL   AUS 1219  10.657   0.845   7.663
 1241AUSL   AUS 1220  10.960   0.845   7.336
 1242AUL    AUL 1221  10.808   1.153   7.500
 1243THSLK    S 1222  10.694   1.097   7.772
 1244ETHY    C1 1223  10.767   1.521   7.929
 1245ETHY    C1 1224  10.764   2.037   8.095
 1246ETHY    C1 1225  10.656   2.548   8.229
 1247ETHY    C1 1226  10.452   3.044   8.336
 1248THSLK    S 1227  11.011   1.085   7.237
 1249ETHY    C1 1228  11.224   1.462   7.091
 1250ETHY    C1 1229  11.394   1.951   6.929
 1251ETHY    C1 1230  11.461   2.469   6.792
 1252ETHY    C1 1231  11.432   3.003   6.682
 1253AUSL   AUS 1232  10.960   0.845   7.663
 1254AUSL   AUS 1233  11.073   0.588   8.011
 1255AUL    AUL 1234  11.112   0.966   7.991
 1256THSLK    S 1235  11.246   0.705   8.184
 1257ETHY    C1 1236  11.519   0.846   8.522
 1258ETHY    C1 1237  11.800   1.095   8.915
 1259ETHY    C1 1238  12.016   1.428   9.279
 1260ETHY    C1 1239  12.168   1.833   9.614
 1261THSLK    S 1240  11.010   1.083   7.768
 1262ETHY    C1 1241  11.223   1.462   7.913
 1263ETHY    C1 1242  11.394   1.951   8.072
 1264ETHY    C1 1243  11.461   2.469   8.207
 1265ETHY    C1 1244  11.430   3.002   8.325
 1266AUSL   AUS 1245  10.808  -0.409   7.909
 1267AUSL   AUS 1246  11.225  -0.339   7.764
 1268AUL    AUL 1247  11.112  -0.623   7.991
 1269THSLK    S 1248  10.767  -0.666   7.992
 1270ETHY    C1 1249  10.640  -1.075   8.152
 1271ETHY    C1 1250  10.566  -1.556   8.391
 1272ETHY    C1 1251  10.585  -2.008   8.684
 1273ETHY    C1 1252  10.687  -2.426   9.021
 1274THSLK    S 1253  11.345  -0.529   7.907
 1275ETHY    C1 1254  11.496  -0.931   8.062
 1276ETHY    C1 1255  11.751  -1.362   8.272
 1277ETHY    C1 1256  12.083  -1.718   8.505
 1278ETHY    C1 1257  12.479  -1.997   8.758
 1279AUSL   AUS 1258  10.657  -0.502   7.663
 1280AUSL   AUS 1259  10.544  -0.245   8.011
 1281AUL    AUL 1260  10.505  -0.623   7.991
 1282THSLK    S 1261  10.606  -0.747   7.744
 1283ETHY    C1 1262  10.393  -1.146   7.812
 1284ETHY    C1 1263  10.222  -1.649   7.925
 1285ETHY    C1 1264  10.156  -2.163   8.072
 1286ETHY    C1 1265  10.185  -2.678   8.252
 1287THSLK    S 1266  10.366  -0.415   8.136
 1288ETHY    C1 1267  10.094  -0.730   8.327
 1289ETHY    C1 1268   9.816  -1.081   8.633
 1290ETHY    C1 1269   9.600  -1.389   9.019
 1291ETHY    C1 1270   9.444  -1.651   9.473
 1292AUSL   AUS 1271  10.960  -0.502   7.663
 1293AUSL   AUS 1272  10.657  -0.502   7.336
 1294AUL    AUL 1273  10.808  -0.810   7.500
 1295THSLK    S 1274  10.607  -0.749   7.261
 1296ETHY    C1 1275  10.394  -1.147   7.192
 1297ETHY    C1 1276  10.222  -1.649   7.076
 1298ETHY    C1 1277  10.156  -2.163   6.927
 1299ETHY    C1 1278  10.187  -2.680   6.754
 1300THSLK    S 1279  10.921  -0.761   7.748
 1301ETHY    C1 1280  10.849  -1.206   7.829
 1302ETHY    C1 1281  10.852  -1.735   7.948
 1303ETHY    C1 1282  10.961  -2.243   8.095
 1304ETHY    C1 1283  11.163  -2.721   8.264
 1305AUSL   AUS 1284  10.808   0.752   7.091
 1306AUSL   AUS 1285  11.225   0.682   7.236
 1307AUL    AUL 1286  11.112   0.966   7.009
 1308THSLK    S 1287  10.850   0.986   6.971
 1309ETHY    C1 1288  10.977   1.311   6.676
 1310ETHY    C1 1289  11.051   1.741   6.353
 1311ETHY    C1 1290  11.032   2.206   6.080
 1312ETHY    C1 1291  10.929   2.694   5.857
 1313THSLK    S 1292  11.412   0.807   7.081
 1314ETHY    C1 1293  11.769   0.999   6.869
 1315ETHY    C1 1294  12.144   1.305   6.623
 1316ETHY    C1 1295  12.445   1.692   6.398
 1317ETHY    C1 1296  12.675   2.144   6.197
 1318AUSL   AUS 1297  10.657   0.845   7.336
 1319AUSL   AUS 1298  10.544   0.588   6.990
 1320AUL    AUL 1299  10.505   0.966   7.009
 1321THSLK    S 1300  10.696   1.099   7.233
 1322ETHY    C1 1301  10.768   1.522   7.074
 1323ETHY    C1 1302  10.765   2.038   6.906
 1324ETHY    C1 1303  10.656   2.548   6.770
 1325ETHY    C1 1304  10.454   3.046   6.670
 1326THSLK    S 1305  10.425   0.725   6.800
 1327ETHY    C1 1306  10.329   0.919   6.396
 1328ETHY    C1 1307  10.152   1.197   5.966
 1329ETHY    C1 1308   9.909   1.522   5.611
 1330ETHY    C1 1309   9.613   1.887   5.330
 1331AUSL   AUS 1310  10.808  -0.409   7.091
 1332AUSL   AUS 1311  10.392  -0.339   7.236
 1333AUL    AUL 1312  10.505  -0.623   7.009
 1334THSLK    S 1313  10.207  -0.492   7.122
 1335ETHY    C1 1314   9.850  -0.766   7.044
 1336ETHY    C1 1315   9.473  -1.120   6.878
 1337ETHY    C1 1316   9.171  -1.494   6.633
 1338ETHY    C1 1317   8.944  -1.881   6.321
 1339THSLK    S 1318  10.770  -0.669   7.013
 1340ETHY    C1 1319  10.642  -1.077   6.852
 1341ETHY    C1 1320  10.566  -1.556   6.609
 1342ETHY    C1 1321  10.585  -2.008   6.315
 1343ETHY    C1 1322  10.691  -2.429   5.983
 1344AUSL   AUS 1323  10.960  -0.502   7.336
 1345AUSL   AUS 1324  11.073  -0.245   6.990
 1346AUL    AUL 1325  11.112  -0.623   7.009
 1347THSLK    S 1326  10.923  -0.762   7.258
 1348ETHY    C1 1327  10.850  -1.207   7.175
 1349ETHY    C1 1328  10.852  -1.735   7.052
 1350ETHY    C1 1329  10.960  -2.243   6.905
 1351ETHY    C1 1330  11.165  -2.722   6.742
 1352THSLK    S 1331  11.196  -0.435   6.847
 1353ETHY    C1 1332  11.291  -0.803   6.592
 1354ETHY    C1 1333  11.465  -1.184   6.247
 1355ETHY    C1 1334  11.707  -1.484   5.870
 1356ETHY    C1 1335  12.008  -1.705   5.471
 1357AUC    AUC 1336  21.141  39.751   7.500
 1358AUC    AUC 1337  21.387  39.751   7.348
 1359AUC    AUC 1338  21.387  39.751   7.651
 1360AUC    AUC 1339  20.896  39.751   7.348
 1361AUC    AUC 1340  20.896  39.751   7.651
 1362AUC    AUC 1341  20.990  39.996   7.500
 1363AUC    AUC 1342  21.293  39.996   7.500
 1364AUC    AUC 1343  20.990  39.505   7.500
 1365AUC    AUC 1344  21.293  39.505   7.500
 1366AUC    AUC 1345  21.141  39.599   7.745
 1367AUC    AUC 1346  21.141  39.902   7.745
 1368AUC    AUC 1347  21.141  39.599   7.254
 1369AUC    AUC 1348  21.141  39.902   7.254
 1370AUC    AUC 1349  21.632  39.751   7.196
 1371AUC    AUC 1350  21.632  39.751   7.500
 1372AUC    AUC 1351  21.632  39.751   7.803
 1373AUC    AUC 1352  20.650  39.751   7.196
 1374AUC    AUC 1353  20.650  39.751   7.500
 1375AUC    AUC 1354  20.650  39.751   7.803
 1376AUC    AUC 1355  20.838  40.241   7.500
 1377AUC    AUC 1356  21.141  40.241   7.500
 1378AUC    AUC 1357  21.445  40.241   7.500
 1379AUC    AUC 1358  20.838  39.260   7.500
 1380AUC    AUC 1359  21.141  39.260   7.500
 1381AUC    AUC 1360  21.445  39.260   7.500
 1382AUC    AUC 1361  21.141  39.447   7.991
 1383AUC    AUC 1362  21.141  39.751   7.991
 1384AUC    AUC 1363  21.141  40.054   7.991
 1385AUC    AUC 1364  21.141  39.447   7.009
 1386AUC    AUC 1365  21.141  39.751   7.009
 1387AUC    AUC 1366  21.141  40.054   7.009
 1388AUC    AUC 1367  21.387  39.599   7.897
 1389AUC    AUC 1368  21.387  39.902   7.897
 1390AUC    AUC 1369  21.387  39.599   7.103
 1391AUC    AUC 1370  21.387  39.902   7.103
 1392AUC    AUC 1371  20.896  39.599   7.897
 1393AUC    AUC 1372  20.896  39.902   7.897
 1394AUC    AUC 1373  20.896  39.599   7.103
 1395AUC    AUC 1374  20.896  39.902   7.103
 1396AUC    AUC 1375  21.538  39.996   7.348
 1397AUC    AUC 1376  21.538  39.996   7.651
 1398AUC    AUC 1377  20.744  39.996   7.348
 1399AUC    AUC 1378  20.744  39.996   7.651
 1400AUC    AUC 1379  21.538  39.505   7.348
 1401AUC    AUC 1380  21.538  39.505   7.651
 1402AUC    AUC 1381  20.744  39.505   7.348
 1403AUC    AUC 1382  20.744  39.505   7.651
 1404AUC    AUC 1383  20.990  40.148   7.745
 1405AUC    AUC 1384  21.293  40.148   7.745
 1406AUC    AUC 1385  20.990  39.353   7.745
 1407AUC    AUC 1386  21.293  39.353   7.745
 1408AUC    AUC 1387  20.990  40.148   7.254
 1409AUC    AUC 1388  21.293  40.148   7.254
 1410AUC    AUC 1389  20.990  39.353   7.254
 1411AUC    AUC 1390  21.293  39.353   7.254
 1412AUSL   AUS 1391  21.550  39.751   8.080
 1413AUSL   AUS 1392  21.406  39.334   8.011
 1414AUL    AUL 1393  21.632  39.447   8.294
 1415THSLK    S 1394  21.524  39.146   8.156
 1416ETHY    C1 1395  21.620  38.778   8.412
 1417ETHY    C1 1396  21.798  38.395   8.753
 1418ETHY    C1 1397  22.040  38.095   9.130
 1419ETHY    C1 1398  22.336  37.876   9.534
 1420THSLK    S 1399  21.649  39.704   8.327
 1421ETHY    C1 1400  21.876  39.554   8.694
 1422ETHY    C1 1401  22.160  39.466   9.148
 1423ETHY    C1 1402  22.444  39.488   9.607
 1424ETHY    C1 1403  22.721  39.610  10.061
 1425AUSL   AUS 1404  21.305  39.599   8.173
 1426AUSL   AUS 1405  20.978  39.902   8.173
 1427AUL    AUL 1406  21.141  39.751   8.482
 1428THSLK    S 1407  21.386  39.548   8.418
 1429ETHY    C1 1408  21.476  39.330   8.810
 1430ETHY    C1 1409  21.604  39.156   9.308
 1431ETHY    C1 1410  21.750  39.091   9.823
 1432ETHY    C1 1411  21.907  39.125  10.346
 1433THSLK    S 1412  20.891  39.862   8.432
 1434ETHY    C1 1413  20.802  39.788   8.874
 1435ETHY    C1 1414  20.678  39.790   9.403
 1436ETHY    C1 1415  20.533  39.899   9.912
 1437ETHY    C1 1416  20.370  40.103  10.392
 1438AUSL   AUS 1417  21.305  39.902   8.173
 1439AUSL   AUS 1418  21.651  40.015   7.916
 1440AUL    AUL 1419  21.632  40.054   8.294
 1441THSLK    S 1420  21.392  39.954   8.416
 1442ETHY    C1 1421  21.480  40.171   8.809
 1443ETHY    C1 1422  21.605  40.344   9.308
 1444ETHY    C1 1423  21.750  40.410   9.823
 1445ETHY    C1 1424  21.913  40.377  10.345
 1446THSLK    S 1425  21.827  40.121   8.079
 1447ETHY    C1 1426  22.189  40.171   8.355
 1448ETHY    C1 1427  22.596  40.320   8.681
 1449ETHY    C1 1428  22.958  40.569   8.995
 1450ETHY    C1 1429  23.270  40.905   9.293
 1451AUSL   AUS 1430  21.550  39.751   6.920
 1452AUSL   AUS 1431  21.406  40.167   6.990
 1453AUL    AUL 1432  21.632  40.054   6.706
 1454THSLK    S 1433  21.654  39.704   6.676
 1455ETHY    C1 1434  21.881  39.554   6.308
 1456ETHY    C1 1435  22.160  39.466   5.851
 1457ETHY    C1 1436  22.444  39.488   5.393
 1458ETHY    C1 1437  22.726  39.610   4.941
 1459THSLK    S 1438  21.583  40.286   6.820
 1460ETHY    C1 1439  21.855  40.427   6.480
 1461ETHY    C1 1440  22.133  40.674   6.085
 1462ETHY    C1 1441  22.349  41.007   5.720
 1463ETHY    C1 1442  22.506  41.414   5.391
 1464AUSL   AUS 1443  21.305  39.599   6.826
 1465AUSL   AUS 1444  21.651  39.486   7.083
 1466AUL    AUL 1445  21.632  39.447   6.706
 1467THSLK    S 1446  21.791  39.295   6.939
 1468ETHY    C1 1447  22.024  38.978   6.707
 1469ETHY    C1 1448  22.354  38.671   6.403
 1470ETHY    C1 1449  22.734  38.462   6.083
 1471ETHY    C1 1450  23.155  38.345   5.754
 1472THSLK    S 1451  21.392  39.547   6.583
 1473ETHY    C1 1452  21.480  39.330   6.191
 1474ETHY    C1 1453  21.605  39.157   5.692
 1475ETHY    C1 1454  21.750  39.091   5.176
 1476ETHY    C1 1455  21.913  39.124   4.656
 1477AUSL   AUS 1456  21.305  39.902   6.826
 1478AUSL   AUS 1457  20.978  39.599   6.826
 1479AUL    AUL 1458  21.141  39.751   6.518
 1480THSLK    S 1459  20.882  39.547   6.586
 1481ETHY    C1 1460  20.743  39.332   6.206
 1482ETHY    C1 1461  20.586  39.161   5.717
 1483ETHY    C1 1462  20.447  39.095   5.199
 1484ETHY    C1 1463  20.331  39.126   4.666
 1485THSLK    S 1464  21.407  39.863   6.572
 1486ETHY    C1 1465  21.544  39.786   6.142
 1487ETHY    C1 1466  21.697  39.786   5.622
 1488ETHY    C1 1467  21.835  39.895   5.112
 1489ETHY    C1 1468  21.958  40.102   4.621
 1490AUSL   AUS 1469  20.732  39.751   8.080
 1491AUSL   AUS 1470  20.877  40.167   8.011
 1492AUL    AUL 1471  20.650  40.054   8.294
 1493THSLK    S 1472  20.628  39.704   8.325
 1494ETHY    C1 1473  20.402  39.554   8.691
 1495ETHY    C1 1474  20.122  39.466   9.148
 1496ETHY    C1 1475  19.839  39.488   9.607
 1497ETHY    C1 1476  19.556  39.610  10.058
 1498THSLK    S 1477  20.754  40.300   8.201
 1499ETHY    C1 1478  20.658  40.495   8.604
 1500ETHY    C1 1479  20.485  40.776   9.034
 1501ETHY    C1 1480  20.242  41.102   9.390
 1502ETHY    C1 1481  19.941  41.461   9.671
 1503AUSL   AUS 1482  20.978  39.599   8.173
 1504AUSL   AUS 1483  20.631  39.486   7.916
 1505AUL    AUL 1484  20.650  39.447   8.294
 1506THSLK    S 1485  20.452  39.320   8.032
 1507ETHY    C1 1486  20.091  39.073   8.166
 1508ETHY    C1 1487  19.686  38.807   8.410
 1509ETHY    C1 1488  19.325  38.587   8.745
 1510ETHY    C1 1489  19.009  38.414   9.156
 1511THSLK    S 1490  20.876  39.549   8.413
 1512ETHY    C1 1491  20.738  39.334   8.793
 1513ETHY    C1 1492  20.585  39.161   9.284
 1514ETHY    C1 1493  20.448  39.095   9.800
 1515ETHY    C1 1494  20.324  39.127  10.332
 1516AUSL   AUS 1495  20.732  39.751   6.920
 1517AUSL   AUS 1496  20.877  39.334   6.990
 1518AUL    AUL 1497  20.650  39.447   6.706
 1519THSLK    S 1498  20.633  39.704   6.673
 1520ETHY    C1 1499  20.406  39.554   6.305
 1521ETHY    C1 1500  20.123  39.466   5.851
 1522ETHY    C1 1501  19.839  39.488   5.393
 1523ETHY    C1 1502  19.562  39.610   4.938
 1524THSLK    S 1503  20.703  39.159   6.865
 1525ETHY    C1 1504  20.431  38.846   6.673
 1526ETHY    C1 1505  20.150  38.498   6.367
 1527ETHY    C1 1506  19.933  38.190   5.980
 1528ETHY    C1 1507  19.781  37.923   5.528
 1529AUSL   AUS 1508  20.978  39.902   6.826
 1530AUSL   AUS 1509  20.631  40.015   7.083
 1531AUL    AUL 1510  20.650  40.054   6.706
 1532THSLK    S 1511  20.495  40.146   6.893
 1533ETHY    C1 1512  20.261  40.267   6.518
 1534ETHY    C1 1513  19.929  40.455   6.132
 1535ETHY    C1 1514  19.549  40.694   5.833
 1536ETHY    C1 1515  19.132  40.974   5.618
 1537THSLK    S 1516  20.897  39.864   6.566
 1538ETHY    C1 1517  20.807  39.789   6.124
 1539ETHY    C1 1518  20.679  39.790   5.597
 1540ETHY    C1 1519  20.533  39.899   5.089
 1541ETHY    C1 1520  20.376  40.105   4.608
 1542AUSL   AUS 1521  21.721  40.160   7.500
 1543AUSL   AUS 1522  21.651  40.015   7.083
 1544AUL    AUL 1523  21.935  40.241   7.196
 1545THSLK    S 1524  21.831  40.122   6.925
 1546ETHY    C1 1525  22.192  40.172   6.648
 1547ETHY    C1 1526  22.596  40.320   6.319
 1548ETHY    C1 1527  22.958  40.569   6.005
 1549ETHY    C1 1528  23.274  40.906   5.713
 1550THSLK    S 1529  21.991  40.221   7.503
 1551ETHY    C1 1530  22.438  40.321   7.502
 1552ETHY    C1 1531  22.940  40.527   7.500
 1553ETHY    C1 1532  23.387  40.829   7.500
 1554ETHY    C1 1533  23.775  41.213   7.503
 1555AUSL   AUS 1534  21.815  39.914   7.348
 1556AUSL   AUS 1535  21.815  39.587   7.651
 1557AUL    AUL 1536  22.123  39.751   7.500
 1558THSLK    S 1537  22.077  39.961   7.345
 1559ETHY    C1 1538  22.527  39.930   7.270
 1560ETHY    C1 1539  23.059  39.985   7.179
 1561ETHY    C1 1540  23.566  40.148   7.091
 1562ETHY    C1 1541  24.041  40.406   7.011
 1563THSLK    S 1542  22.052  39.450   7.659
 1564ETHY    C1 1543  22.423  39.192   7.726
 1565ETHY    C1 1544  22.909  38.966   7.808
 1566ETHY    C1 1545  23.428  38.846   7.896
 1567ETHY    C1 1546  23.966  38.824   7.989
 1568AUSL   AUS 1547  21.815  39.914   7.651
 1569AUSL   AUS 1548  21.558  40.261   7.764
 1570AUL    AUL 1549  21.935  40.241   7.803
 1571THSLK    S 1550  21.743  40.385   7.924
 1572ETHY    C1 1551  22.100  40.577   8.136
 1573ETHY    C1 1552  22.477  40.884   8.377
 1574ETHY    C1 1553  22.778  41.271   8.602
 1575ETHY    C1 1554  23.005  41.722   8.809
 1576THSLK    S 1555  22.076  39.960   7.661
 1577ETHY    C1 1556  22.527  39.930   7.734
 1578ETHY    C1 1557  23.060  39.985   7.821
 1579ETHY    C1 1558  23.566  40.148   7.908
 1580ETHY    C1 1559  24.040  40.406   7.995
 1581AUSL   AUS 1560  20.561  40.160   7.500
 1582AUSL   AUS 1561  20.631  40.015   7.916
 1583AUL    AUL 1562  20.347  40.241   7.803
 1584THSLK    S 1563  20.491  40.141   8.107
 1585ETHY    C1 1564  20.258  40.262   8.482
 1586ETHY    C1 1565  19.929  40.455   8.868
 1587ETHY    C1 1566  19.549  40.694   9.166
 1588ETHY    C1 1567  19.128  40.969   9.381
 1589THSLK    S 1568  20.340  40.300   7.503
 1590ETHY    C1 1569  20.051  40.655   7.502
 1591ETHY    C1 1570  19.643  41.012   7.500
 1592ETHY    C1 1571  19.173  41.276   7.500
 1593ETHY    C1 1572  18.655  41.452   7.503
 1594AUSL   AUS 1573  20.468  39.914   7.348
 1595AUSL   AUS 1574  20.725  40.261   7.236
 1596AUL    AUL 1575  20.347  40.241   7.196
 1597THSLK    S 1576  20.231  40.028   7.303
 1598ETHY    C1 1577  19.859  40.202   7.101
 1599ETHY    C1 1578  19.373  40.378   6.936
 1600ETHY    C1 1579  18.855  40.510   6.868
 1601ETHY    C1 1580  18.317  40.602   6.890
 1602THSLK    S 1581  20.605  40.428   7.056
 1603ETHY    C1 1582  20.453  40.747   6.765
 1604ETHY    C1 1583  20.199  41.127   6.473
 1605ETHY    C1 1584  19.866  41.495   6.260
 1606ETHY    C1 1585  19.470  41.845   6.122
 1607AUSL   AUS 1586  20.468  39.914   7.651
 1608AUSL   AUS 1587  20.468  39.587   7.348
 1609AUL    AUL 1588  20.160  39.751   7.500
 1610THSLK    S 1589  20.206  39.512   7.384
 1611ETHY    C1 1590  19.756  39.461   7.446
 1612ETHY    C1 1591  19.223  39.358   7.434
 1613ETHY    C1 1592  18.716  39.208   7.327
 1614ETHY    C1 1593  18.243  39.015   7.135
 1615THSLK    S 1594  20.230  40.022   7.699
 1616ETHY    C1 1595  19.859  40.198   7.901
 1617ETHY    C1 1596  19.373  40.377   8.063
 1618ETHY    C1 1597  18.855  40.510   8.133
 1619ETHY    C1 1598  18.316  40.596   8.114
 1620AUSL   AUS 1599  21.721  39.341   7.500
 1621AUSL   AUS 1600  21.651  39.486   7.916
 1622AUL    AUL 1601  21.935  39.260   7.803
 1623THSLK    S 1602  21.942  39.201   7.503
 1624ETHY    C1 1603  22.231  38.846   7.502
 1625ETHY    C1 1604  22.640  38.489   7.500
 1626ETHY    C1 1605  23.110  38.225   7.500
 1627ETHY    C1 1606  23.627  38.049   7.503
 1628THSLK    S 1607  21.788  39.296   8.066
 1629ETHY    C1 1608  22.021  38.979   8.297
 1630ETHY    C1 1609  22.354  38.672   8.598
 1631ETHY    C1 1610  22.734  38.462   8.918
 1632ETHY    C1 1611  23.151  38.346   9.250
 1633AUSL   AUS 1612  21.815  39.587   7.348
 1634AUSL   AUS 1613  21.558  39.240   7.236
 1635AUL    AUL 1614  21.935  39.260   7.196
 1636THSLK    S 1615  22.053  39.450   7.346
 1637ETHY    C1 1616  22.424  39.192   7.279
 1638ETHY    C1 1617  22.909  38.966   7.192
 1639ETHY    C1 1618  23.428  38.846   7.103
 1640ETHY    C1 1619  23.967  38.824   7.018
 1641THSLK    S 1620  21.681  39.049   7.099
 1642ETHY    C1 1621  21.831  38.647   6.942
 1643ETHY    C1 1622  22.084  38.217   6.728
 1644ETHY    C1 1623  22.416  37.861   6.495
 1645ETHY    C1 1624  22.815  37.580   6.249
 1646AUSL   AUS 1625  20.561  39.341   7.500
 1647AUSL   AUS 1626  20.631  39.486   7.083
 1648AUL    AUL 1627  20.347  39.260   7.196
 1649THSLK    S 1628  20.456  39.315   6.966
 1650ETHY    C1 1629  20.094  39.069   6.833
 1651ETHY    C1 1630  19.686  38.806   6.589
 1652ETHY    C1 1631  19.325  38.587   6.255
 1653ETHY    C1 1632  19.013  38.409   5.843
 1654THSLK    S 1633  20.291  39.280   7.503
 1655ETHY    C1 1634  19.845  39.180   7.502
 1656ETHY    C1 1635  19.343  38.974   7.500
 1657ETHY    C1 1636  18.896  38.672   7.500
 1658ETHY    C1 1637  18.508  38.288   7.503
 1659AUSL   AUS 1638  20.468  39.587   7.651
 1660AUSL   AUS 1639  20.725  39.240   7.764
 1661AUL    AUL 1640  20.347  39.260   7.803
 1662THSLK    S 1641  20.537  39.092   7.881
 1663ETHY    C1 1642  20.181  38.816   7.958
 1664ETHY    C1 1643  19.806  38.459   8.122
 1665ETHY    C1 1644  19.505  38.085   8.367
 1666ETHY    C1 1645  19.274  37.703   8.682
 1667THSLK    S 1646  20.205  39.517   7.618
 1668ETHY    C1 1647  19.755  39.465   7.557
 1669ETHY    C1 1648  19.223  39.359   7.566
 1670ETHY    C1 1649  18.716  39.208   7.673
 1671ETHY    C1 1650  18.242  39.020   7.867
 1672AUSL   AUS 1651  21.141  40.331   7.909
 1673AUSL   AUS 1652  20.725  40.261   7.764
 1674AUL    AUL 1653  20.838  40.545   7.991
 1675THSLK    S 1654  20.602  40.423   7.948
 1676ETHY    C1 1655  20.451  40.743   8.237
 1677ETHY    C1 1656  20.198  41.126   8.527
 1678ETHY    C1 1657  19.866  41.494   8.740
 1679ETHY    C1 1658  19.467  41.840   8.881
 1680THSLK    S 1659  21.179  40.562   8.034
 1681ETHY    C1 1660  21.307  40.888   8.327
 1682ETHY    C1 1661  21.384  41.320   8.646
 1683ETHY    C1 1662  21.365  41.785   8.920
 1684ETHY    C1 1663  21.259  42.270   9.147
 1685AUSL   AUS 1664  20.990  40.424   7.663
 1686AUSL   AUS 1665  21.293  40.424   7.336
 1687AUL    AUL 1666  21.141  40.732   7.500
 1688THSLK    S 1667  21.027  40.676   7.772
 1689ETHY    C1 1668  21.100  41.100   7.929
 1690ETHY    C1 1669  21.097  41.616   8.095
 1691ETHY    C1 1670  20.989  42.127   8.229
 1692ETHY    C1 1671  20.785  42.623   8.336
 1693THSLK    S 1672  21.344  40.664   7.237
 1694ETHY    C1 1673  21.557  41.041   7.091
 1695ETHY    C1 1674  21.727  41.530   6.929
 1696ETHY    C1 1675  21.794  42.048   6.792
 1697ETHY    C1 1676  21.765  42.582   6.682
 1698AUSL   AUS 1677  21.293  40.424   7.663
 1699AUSL   AUS 1678  21.406  40.167   8.011
 1700AUL    AUL 1679  21.445  40.545   7.991
 1701THSLK    S 1680  21.579  40.284   8.184
 1702ETHY    C1 1681  21.852  40.425   8.522
 1703ETHY    C1 1682  22.133  40.674   8.915
 1704ETHY    C1 1683  22.349  41.007   9.279
 1705ETHY    C1 1684  22.501  41.412   9.614
 1706THSLK    S 1685  21.343  40.662   7.768
 1707ETHY    C1 1686  21.556  41.041   7.913
 1708ETHY    C1 1687  21.727  41.530   8.072
 1709ETHY    C1 1688  21.794  42.048   8.207
 1710ETHY    C1 1689  21.763  42.581   8.325
 1711AUSL   AUS 1690  21.141  39.170   7.909
 1712AUSL   AUS 1691  21.558  39.240   7.764
 1713AUL    AUL 1692  21.445  38.956   7.991
 1714THSLK    S 1693  21.100  38.913   7.992
 1715ETHY    C1 1694  20.973  38.504   8.152
 1716ETHY    C1 1695  20.899  38.023   8.391
 1717ETHY    C1 1696  20.918  37.571   8.684
 1718ETHY    C1 1697  21.020  37.153   9.021
 1719THSLK    S 1698  21.678  39.050   7.907
 1720ETHY    C1 1699  21.829  38.648   8.062
 1721ETHY    C1 1700  22.084  38.217   8.272
 1722ETHY    C1 1701  22.416  37.861   8.505
 1723ETHY    C1 1702  22.812  37.582   8.758
 1724AUSL   AUS 1703  20.990  39.077   7.663
 1725AUSL   AUS 1704  20.877  39.334   8.011
 1726AUL    AUL 1705  20.838  38.956   7.991
 1727THSLK    S 1706  20.939  38.832   7.744
 1728ETHY    C1 1707  20.726  38.433   7.812
 1729ETHY    C1 1708  20.555  37.930   7.925
 1730ETHY    C1 1709  20.489  37.416   8.072
 1731ETHY    C1 1710  20.518  36.901   8.252
 1732THSLK    S 1711  20.699  39.164   8.136
 1733ETHY    C1 1712  20.427  38.849   8.327
 1734ETHY    C1 1713  20.149  38.498   8.633
 1735ETHY    C1 1714  19.933  38.190   9.019
 1736ETHY    C1 1715  19.777  37.928   9.473
 1737AUSL   AUS 1716  21.293  39.077   7.663
 1738AUSL   AUS 1717  20.990  39.077   7.336
 1739AUL    AUL 1718  21.141  38.769   7.500
 1740THSLK    S 1719  20.940  38.830   7.261
 1741ETHY    C1 1720  20.727  38.432   7.192
 1742ETHY    C1 1721  20.555  37.930   7.076
 1743ETHY    C1 1722  20.489  37.416   6.927
 1744ETHY    C1 1723  20.520  36.899   6.754
 1745THSLK    S 1724  21.254  38.818   7.748
 1746ETHY    C1 1725  21.182  38.373   7.829
 1747ETHY    C1 1726  21.185  37.844   7.948
 1748ETHY    C1 1727  21.294  37.336   8.095
 1749ETHY    C1 1728  21.496  36.858   8.264
 1750AUSL   AUS 1729  21.141  40.331   7.091
 1751AUSL   AUS 1730  21.558  40.261   7.236
 1752AUL    AUL 1731  21.445  40.545   7.009
 1753THSLK    S 1732  21.183  40.565   6.971
 1754ETHY    C1 1733  21.310  40.890   6.676
 1755ETHY    C1 1734  21.384  41.320   6.353
 1756ETHY    C1 1735  21.365  41.785   6.080
 1757ETHY    C1 1736  21.262  42.273   5.857
 1758THSLK    S 1737  21.745  40.386   7.081
 1759ETHY    C1 1738  22.102  40.578   6.869
 1760ETHY    C1 1739  22.477  40.884   6.623
 1761ETHY    C1 1740  22.778  41.271   6.398
 1762ETHY    C1 1741  23.008  41.723   6.197
 1763AUSL   AUS 1742  20.990  40.424   7.336
 1764AUSL   AUS 1743  20.877  40.167   6.990
 1765AUL    AUL 1744  20.838  40.545   7.009
 1766THSLK    S 1745  21.029  40.678   7.233
 1767ETHY    C1 1746  21.101  41.101   7.074
 1768ETHY    C1 1747  21.098  41.617   6.906
 1769ETHY    C1 1748  20.989  42.127   6.770
 1770ETHY    C1 1749  20.787  42.625   6.670
 1771THSLK    S 1750  20.758  40.304   6.800
 1772ETHY    C1 1751  20.662  40.498   6.396
 1773ETHY    C1 1752  20.485  40.776   5.966
 1774ETHY    C1 1753  20.242  41.101   5.611
 1775ETHY    C1 1754  19.946  41.466   5.330
 1776AUSL   AUS 1755  21.141  39.170   7.091
 1777AUSL   AUS 1756  20.725  39.240   7.236
 1778AUL    AUL 1757  20.838  38.956   7.009
 1779THSLK    S 1758  20.540  39.087   7.122
 1780ETHY    C1 1759  20.183  38.813   7.044
 1781ETHY    C1 1760  19.806  38.459   6.878
 1782ETHY    C1 1761  19.504  38.085   6.633
 1783ETHY    C1 1762  19.277  37.698   6.321
 1784THSLK    S 1763  21.103  38.910   7.013
 1785ETHY    C1 1764  20.975  38.502   6.852
 1786ETHY    C1 1765  20.899  38.023   6.609
 1787ETHY    C1 1766  20.918  37.571   6.315
 1788ETHY    C1 1767  21.024  37.150   5.983
 1789AUSL   AUS 1768  21.293  39.077   7.336
 1790AUSL   AUS 1769  21.406  39.334   6.990
 1791AUL    AUL 1770  21.445  38.956   7.009
 1792THSLK    S 1771  21.256  38.817   7.258
 1793ETHY    C1 1772  21.183  38.372   7.175
 1794ETHY    C1 1773  21.185  37.844   7.052
 1795ETHY    C1 1774  21.293  37.336   6.905
 1796ETHY    C1 1775  21.498  36.857   6.742
 1797THSLK    S 1776  21.529  39.144   6.847
 1798ETHY    C1 1777  21.624  38.776   6.592
 1799ETHY    C1 1778  21.798  38.395   6.247
 1800ETHY    C1 1779  22.040  38.095   5.870
 1801ETHY    C1 1780  22.341  37.874   5.471
 1802AUC    AUC 1781  16.336  20.931   7.500
 1803AUC    AUC 1782  16.582  20.931   7.348
 1804AUC    AUC 1783  16.582  20.931   7.651
 1805AUC    AUC 1784  16.091  20.931   7.348
 1806AUC    AUC 1785  16.091  20.931   7.651
 1807AUC    AUC 1786  16.185  21.176   7.500
 1808AUC    AUC 1787  16.488  21.176   7.500
 1809AUC    AUC 1788  16.185  20.685   7.500
 1810AUC    AUC 1789  16.488  20.685   7.500
 1811AUC    AUC 1790  16.336  20.779   7.745
 1812AUC    AUC 1791  16.336  21.082   7.745
 1813AUC    AUC 1792  16.336  20.779   7.254
 1814AUC    AUC 1793  16.336  21.082   7.254
 1815AUC    AUC 1794  16.827  20.931   7.196
 1816AUC    AUC 1795  16.827  20.931   7.500
 1817AUC    AUC 1796  16.827  20.931   7.803
 1818AUC    AUC 1797  15.845  20.931   7.196
 1819AUC    AUC 1798  15.845  20.931   7.500
 1820AUC    AUC 1799  15.845  20.931   7.803
 1821AUC    AUC 1800  16.033  21.421   7.500
 1822AUC    AUC 1801  16.336  21.421   7.500
 1823AUC    AUC 1802  16.640  21.421   7.500
 1824AUC    AUC 1803  16.033  20.440   7.500
 1825AUC    AUC 1804  16.336  20.440   7.500
 1826AUC    AUC 1805  16.640  20.440   7.500
 1827AUC    AUC 1806  16.336  20.627   7.991
 1828AUC    AUC 1807  16.336  20.931   7.991
 1829AUC    AUC 1808  16.336  21.234   7.991
 1830AUC    AUC 1809  16.336  20.627   7.009
 1831AUC    AUC 1810  16.336  20.931   7.009
 1832AUC    AUC 1811  16.336  21.234   7.009
 1833AUC    AUC 1812  16.582  20.779   7.897
 1834AUC    AUC 1813  16.582  21.082   7.897
 1835AUC    AUC 1814  16.582  20.779   7.103
 1836AUC    AUC 1815  16.582  21.082   7.103
 1837AUC    AUC 1816  16.091  20.779   7.897
 1838AUC    AUC 1817  16.091  21.082   7.897
 1839AUC    AUC 1818  16.091  20.779   7.103
 1840AUC    AUC 1819  16.091  21.082   7.103
 1841AUC    AUC 1820  16.733  21.176   7.348
 1842AUC    AUC 1821  16.733  21.176   7.651
 1843AUC    AUC 1822  15.939  21.176   7.348
 1844AUC    AUC 1823  15.939  21.176   7.651
 1845AUC    AUC 1824  16.733  20.685   7.348
 1846AUC    AUC 1825  16.733  20.685   7.651
 1847AUC    AUC 1826  15.939  20.685   7.348
 1848AUC    AUC 1827  15.939  20.685   7.651
 1849AUC    AUC 1828  16.185  21.328   7.745
 1850AUC    AUC 1829  16.488  21.328   7.745
 1851AUC    AUC 1830  16.185  20.533   7.745
 1852AUC    AUC 1831  16.488  20.533   7.745
 1853AUC    AUC 1832  16.185  21.328   7.254
 1854AUC    AUC 1833  16.488  21.328   7.254
 1855AUC    AUC 1834  16.185  20.533   7.254
 1856AUC    AUC 1835  16.488  20.533   7.254
 1857AUSL   AUS 1836  16.745  20.931   8.080
 1858AUSL   AUS 1837  16.601  20.514   8.011
 1859AUL    AUL 1838  16.827  20.627   8.294
 1860THSLK    S 1839  16.719  20.326   8.156
 1861ETHY    C1 1840  16.815  19.958   8.412
 1862ETHY    C1 1841  16.993  19.575   8.753
 1863ETHY    C1 1842  17.235  19.275   9.130
 1864ETHY    C1 1843  17.531  19.056   9.534
 1865THSLK    S 1844  16.844  20.884   8.327
 1866ETHY    C1 1845  17.071  20.734   8.694
 1867ETHY    C1 1846  17.355  20.646   9.148
 1868ETHY    C1 1847  17.639  20.668   9.607
 1869ETHY    C1 1848  17.916  20.790  10.061
 1870AUSL   AUS 1849  16.500  20.779   8.173
 1871AUSL   AUS 1850  16.173  21.082   8.173
 1872AUL    AUL 1851  16.336  20.931   8.482
 1873THSLK    S 1852  16.581  20.728   8.418
 1874ETHY    C1 1853  16.671  20.510   8.810
 1875ETHY    C1 1854  16.799  20.336   9.308
 1876ETHY    C1 1855  16.945  20.271   9.823
 1877ETHY    C1 1856  17.102  20.305  10.346
 1878THSLK    S 1857  16.086  21.042   8.432
 1879ETHY    C1 1858  15.997  20.968   8.874
 1880ETHY    C1 1859  15.873  20.970   9.403
 1881ETHY    C1 1860  15.728  21.079   9.912
 1882ETHY    C1 1861  15.565  21.283  10.392
 1883AUSL   AUS 1862  16.500  21.082   8.173
 1884AUSL   AUS 1863  16.846  21.195   7.916
 1885AUL    AUL 1864  16.827  21.234   8.294
 1886THSLK    S 1865  16.587  21.134   8.416
 1887ETHY    C1 1866  16.675  21.351   8.809
 1888ETHY    C1 1867  16.800  21.524   9.308
 1889ETHY    C1 1868  16.945  21.590   9.823
 1890ETHY    C1 1869  17.108  21.557  10.345
 1891THSLK    S 1870  17.022  21.301   8.079
 1892ETHY    C1 1871  17.384  21.351   8.355
 1893ETHY    C1 1872  17.791  21.500   8.681
 1894ETHY    C1 1873  18.153  21.749   8.995
 1895ETHY    C1 1874  18.465  22.085   9.293
 1896AUSL   AUS 1875  16.745  20.931   6.920
 1897AUSL   AUS 1876  16.601  21.347   6.990
 1898AUL    AUL 1877  16.827  21.234   6.706
 1899THSLK    S 1878  16.849  20.884   6.676
 1900ETHY    C1 1879  17.076  20.734   6.308
 1901ETHY    C1 1880  17.355  20.646   5.851
 1902ETHY    C1 1881  17.639  20.668   5.393
 1903ETHY    C1 1882  17.921  20.790   4.941
 1904THSLK    S 1883  16.778  21.466   6.820
 1905ETHY    C1 1884  17.050  21.607   6.480
 1906ETHY    C1 1885  17.328  21.854   6.085
 1907ETHY    C1 1886  17.544  22.187   5.720
 1908ETHY    C1 1887  17.701  22.594   5.391
 1909AUSL   AUS 1888  16.500  20.779   6.826
 1910AUSL   AUS 1889  16.846  20.666   7.083
 1911AUL    AUL 1890  16.827  20.627   6.706
 1912THSLK    S 1891  16.986  20.475   6.939
 1913ETHY    C1 1892  17.219  20.158   6.707
 1914ETHY    C1 1893  17.549  19.851   6.403
 1915ETHY    C1 1894  17.929  19.642   6.083
 1916ETHY    C1 1895  18.350  19.525   5.754
 1917THSLK    S 1896  16.587  20.727   6.583
 1918ETHY    C1 1897  16.675  20.510   6.191
 1919ETHY    C1 1898  16.800  20.337   5.692
 1920ETHY    C1 1899  16.945  20.271   5.176
 1921ETHY    C1 1900  17.108  20.304   4.656
 1922AUSL   AUS 1901  16.500  21.082   6.826
 1923AUSL   AUS 1902  16.173  20.779   6.826
 1924AUL    AUL 1903  16.336  20.931   6.518
 1925THSLK    S 1904  16.077  20.727   6.586
 1926ETHY    C1 1905  15.938  20.512   6.206
 1927ETHY    C1 1906  15.781  20.341   5.717
 1928ETHY    C1 1907  15.642  20.275   5.199
 1929ETHY    C1 1908  15.526  20.306   4.666
 1930THSLK    S 1909  16.602  21.043   6.572
 1931ETHY    C1 1910  16.739  20.966   6.142
 1932ETHY    C1 1911  16.892  20.966   5.622
 1933ETHY    C1 1912  17.030  21.075   5.112
 1934ETHY    C1 1913  17.153  21.282   4.621
 1935AUSL   AUS 1914  15.927  20.931   8.080
 1936AUSL   AUS 1915  16.072  21.347   8.011
 1937AUL    AUL 1916  15.845  21.234   8.294
 1938THSLK    S 1917  15.823  20.884   8.325
 1939ETHY    C1 1918  15.597  20.734   8.691
 1940ETHY    C1 1919  15.317  20.646   9.148
 1941ETHY    C1 1920  15.034  20.668   9.607
 1942ETHY    C1 1921  14.751  20.790  10.058
 1943THSLK    S 1922  15.949  21.480   8.201
 1944ETHY    C1 1923  15.853  21.675   8.604
 1945ETHY    C1 1924  15.680  21.956   9.034
 1946ETHY    C1 1925  15.437  22.282   9.390
 1947ETHY    C1 1926  15.136  22.641   9.671
 1948AUSL   AUS 1927  16.173  20.779   8.173
 1949AUSL   AUS 1928  15.826  20.666   7.916
 1950AUL    AUL 1929  15.845  20.627   8.294
 1951THSLK    S 1930  15.647  20.500   8.032
 1952ETHY    C1 1931  15.286  20.253   8.166
 1953ETHY    C1 1932  14.881  19.987   8.410
 1954ETHY    C1 1933  14.520  19.767   8.745
 1955ETHY    C1 1934  14.204  19.594   9.156
 1956THSLK    S 1935  16.071  20.729   8.413
 1957ETHY    C1 1936  15.933  20.514   8.793
 1958ETHY    C1 1937  15.780  20.341   9.284
 1959ETHY    C1 1938  15.643  20.275   9.800
 1960ETHY    C1 1939  15.519  20.307  10.332
 1961AUSL   AUS 1940  15.927  20.931   6.920
 1962AUSL   AUS 1941  16.072  20.514   6.990
 1963AUL    AUL 1942  15.845  20.627   6.706
 1964THSLK    S 1943  15.828  20.884   6.673
 1965ETHY    C1 1944  15.601  20.734   6.305
 1966ETHY    C1 1945  15.318  20.646   5.851
 1967ETHY    C1 1946  15.034  20.668   5.393
 1968ETHY    C1 1947  14.757  20.790   4.938
 1969THSLK    S 1948  15.898  20.339   6.865
 1970ETHY    C1 1949  15.626  20.026   6.673
 1971ETHY    C1 1950  15.345  19.678   6.367
 1972ETHY    C1 1951  15.128  19.370   5.980
 1973ETHY    C1 1952  14.976  19.103   5.528
 1974AUSL   AUS 1953  16.173  21.082   6.826
 1975AUSL   AUS 1954  15.826  21.195   7.083
 1976AUL    AUL 1955  15.845  21.234   6.706
 1977THSLK    S 1956  15.690  21.326   6.893
 1978ETHY    C1 1957  15.456  21.447   6.518
 1979ETHY    C1 1958  15.124  21.635   6.132
 1980ETHY    C1 1959  14.744  21.874   5.833
 1981ETHY    C1 1960  14.327  22.154   5.618
 1982THSLK    S 1961  16.092  21.044   6.566
 1983ETHY    C1 1962  16.002  20.969   6.124
 1984ETHY    C1 1963  15.874  20.970   5.597
 1985ETHY    C1 1964  15.728  21.079   5.089
 1986ETHY    C1 1965  15.571  21.285   4.608
 1987AUSL   AUS 1966  16.916  21.340   7.500
 1988AUSL   AUS 1967  16.846  21.195   7.083
 1989AUL    AUL 1968  17.130  21.421   7.196
 1990THSLK    S 1969  17.026  21.302   6.925
 1991ETHY    C1 1970  17.387  21.352   6.648
 1992ETHY    C1 1971  17.791  21.500   6.319
 1993ETHY    C1 1972  18.153  21.749   6.005
 1994ETHY    C1 1973  18.469  22.086   5.713
 1995THSLK    S 1974  17.186  21.401   7.503
 1996ETHY    C1 1975  17.633  21.501   7.502
 1997ETHY    C1 1976  18.135  21.707   7.500
 1998ETHY    C1 1977  18.582  22.009   7.500
 1999ETHY    C1 1978  18.970  22.393   7.503
 2000AUSL   AUS 1979  17.010  21.094   7.348
 2001AUSL   AUS 1980  17.010  20.767   7.651
 2002AUL    AUL 1981  17.318  20.931   7.500
 2003THSLK    S 1982  17.272  21.141   7.345
 2004ETHY    C1 1983  17.722  21.110   7.270
 2005ETHY    C1 1984  18.254  21.165   7.179
 2006ETHY    C1 1985  18.761  21.328   7.091
 2007ETHY    C1 1986  19.236  21.586   7.011
 2008THSLK    S 1987  17.247  20.630   7.659
 2009ETHY    C1 1988  17.618  20.372   7.726
 2010ETHY    C1 1989  18.104  20.146   7.808
 2011ETHY    C1 1990  18.623  20.026   7.896
 2012ETHY    C1 1991  19.161  20.004   7.989
 2013AUSL   AUS 1992  17.010  21.094   7.651
 2014AUSL   AUS 1993  16.753  21.441   7.764
 2015AUL    AUL 1994  17.130  21.421   7.803
 2016THSLK    S 1995  16.938  21.565   7.924
 2017ETHY    C1 1996  17.295  21.757   8.136
 2018ETHY    C1 1997  17.672  22.064   8.377
 2019ETHY    C1 1998  17.973  22.451   8.602
 2020ETHY    C1 1999  18.200  22.902   8.809
 2021THSLK    S 2000  17.271  21.140   7.661
 2022ETHY    C1 2001  17.722  21.110   7.734
 2023ETHY    C1 2002  18.255  21.165   7.821
 2024ETHY    C1 2003  18.761  21.328   7.908
 2025ETHY    C1 2004  19.235  21.586   7.995
 2026AUSL   AUS 2005  15.756  21.340   7.500
 2027AUSL   AUS 2006  15.826  21.195   7.916
 2028AUL    AUL 2007  15.542  21.421   7.803
 2029THSLK    S 2008  15.686  21.321   8.107
 2030ETHY    C1 2009  15.453  21.442   8.482
 2031ETHY    C1 2010  15.124  21.635   8.868
 2032ETHY    C1 2011  14.744  21.874   9.166
 2033ETHY    C1 2012  14.323  22.149   9.381
 2034THSLK    S 2013  15.535  21.480   7.503
 2035ETHY    C1 2014  15.246  21.835   7.502
 2036ETHY    C1 2015  14.838  22.192   7.500
 2037ETHY    C1 2016  14.368  22.456   7.500
 2038ETHY    C1 2017  13.850  22.632   7.503
 2039AUSL   AUS 2018  15.663  21.094   7.348
 2040AUSL   AUS 2019  15.920  21.441   7.236
 2041AUL    AUL 2020  15.542  21.421   7.196
 2042THSLK    S 2021  15.426  21.208   7.303
 2043ETHY    C1 2022  15.054  21.382   7.101
 2044ETHY    C1 2023  14.568  21.558   6.936
 2045ETHY    C1 2024  14.050  21.690   6.868
 2046ETHY    C1 2025  13.512  21.782   6.890
 2047THSLK    S 2026  15.800  21.608   7.056
 2048ETHY    C1 2027  15.648  21.927   6.765
 2049ETHY    C1 2028  15.394  22.307   6.473
 2050ETHY    C1 2029  15.061  22.675   6.260
 2051ETHY    C1 2030  14.665  23.025   6.122
 2052AUSL   AUS 2031  15.663  21.094   7.651
 2053AUSL   AUS 2032  15.663  20.767   7.348
 2054AUL    AUL 2033  15.355  20.931   7.500
 2055THSLK    S 2034  15.401  20.692   7.384
 2056ETHY    C1 2035  14.951  20.641   7.446
 2057ETHY    C1 2036  14.418  20.538   7.434
 2058ETHY    C1 2037  13.911  20.388   7.327
 2059ETHY    C1 2038  13.438  20.195   7.135
 2060THSLK    S 2039  15.425  21.202   7.699
 2061ETHY    C1 2040  15.054  21.378   7.901
 2062ETHY    C1 2041  14.568  21.557   8.063
 2063ETHY    C1 2042  14.050  21.690   8.133
 2064ETHY    C1 2043  13.511  21.776   8.114
 2065AUSL   AUS 2044  16.916  20.521   7.500
 2066AUSL   AUS 2045  16.846  20.666   7.916
 2067AUL    AUL 2046  17.130  20.440   7.803
 2068THSLK    S 2047  17.137  20.381   7.503
 2069ETHY    C1 2048  17.426  20.026   7.502
 2070ETHY    C1 2049  17.835  19.669   7.500
 2071ETHY    C1 2050  18.305  19.405   7.500
 2072ETHY    C1 2051  18.822  19.229   7.503
 2073THSLK    S 2052  16.983  20.476   8.066
 2074ETHY    C1 2053  17.216  20.159   8.297
 2075ETHY    C1 2054  17.549  19.852   8.598
 2076ETHY    C1 2055  17.929  19.642   8.918
 2077ETHY    C1 2056  18.346  19.526   9.250
 2078AUSL   AUS 2057  17.010  20.767   7.348
 2079AUSL   AUS 2058  16.753  20.420   7.236
 2080AUL    AUL 2059  17.130  20.440   7.196
 2081THSLK    S 2060  17.248  20.630   7.346
 2082ETHY    C1 2061  17.619  20.372   7.279
 2083ETHY    C1 2062  18.104  20.146   7.192
 2084ETHY    C1 2063  18.623  20.026   7.103
 2085ETHY    C1 2064  19.162  20.004   7.018
 2086THSLK    S 2065  16.876  20.229   7.099
 2087ETHY    C1 2066  17.026  19.827   6.942
 2088ETHY    C1 2067  17.279  19.397   6.728
 2089ETHY    C1 2068  17.611  19.041   6.495
 2090ETHY    C1 2069  18.010  18.760   6.249
 2091AUSL   AUS 2070  15.756  20.521   7.500
 2092AUSL   AUS 2071  15.826  20.666   7.083
 2093AUL    AUL 2072  15.542  20.440   7.196
 2094THSLK    S 2073  15.651  20.495   6.966
 2095ETHY    C1 2074  15.289  20.249   6.833
 2096ETHY    C1 2075  14.881  19.986   6.589
 2097ETHY    C1 2076  14.520  19.767   6.255
 2098ETHY    C1 2077  14.208  19.589   5.843
 2099THSLK    S 2078  15.486  20.460   7.503
 2100ETHY    C1 2079  15.040  20.360   7.502
 2101ETHY    C1 2080  14.538  20.154   7.500
 2102ETHY    C1 2081  14.091  19.852   7.500
 2103ETHY    C1 2082  13.703  19.468   7.503
 2104AUSL   AUS 2083  15.663  20.767   7.651
 2105AUSL   AUS 2084  15.920  20.420   7.764
 2106AUL    AUL 2085  15.542  20.440   7.803
 2107THSLK    S 2086  15.732  20.272   7.881
 2108ETHY    C1 2087  15.376  19.996   7.958
 2109ETHY    C1 2088  15.001  19.639   8.122
 2110ETHY    C1 2089  14.700  19.265   8.367
 2111ETHY    C1 2090  14.469  18.883   8.682
 2112THSLK    S 2091  15.400  20.697   7.618
 2113ETHY    C1 2092  14.950  20.645   7.557
 2114ETHY    C1 2093  14.418  20.539   7.566
 2115ETHY    C1 2094  13.911  20.388   7.673
 2116ETHY    C1 2095  13.437  20.200   7.867
 2117AUSL   AUS 2096  16.336  21.511   7.909
 2118AUSL   AUS 2097  15.920  21.441   7.764
 2119AUL    AUL 2098  16.033  21.725   7.991
 2120THSLK    S 2099  15.797  21.603   7.948
 2121ETHY    C1 2100  15.646  21.923   8.237
 2122ETHY    C1 2101  15.393  22.306   8.527
 2123ETHY    C1 2102  15.061  22.674   8.740
 2124ETHY    C1 2103  14.662  23.020   8.881
 2125THSLK    S 2104  16.374  21.742   8.034
 2126ETHY    C1 2105  16.502  22.068   8.327
 2127ETHY    C1 2106  16.579  22.500   8.646
 2128ETHY    C1 2107  16.560  22.965   8.920
 2129ETHY    C1 2108  16.454  23.450   9.147
 2130AUSL   AUS 2109  16.185  21.604   7.663
 2131AUSL   AUS 2110  16.488  21.604   7.336
 2132AUL    AUL 2111  16.336  21.912   7.500
 2133THSLK    S 2112  16.222  21.856   7.772
 2134ETHY    C1 2113  16.295  22.280   7.929
 2135ETHY    C1 2114  16.292  22.796   8.095
 2136ETHY    C1 2115  16.184  23.307   8.229
 2137ETHY    C1 2116  15.980  23.803   8.336
 2138THSLK    S 2117  16.539  21.844   7.237
 2139ETHY    C1 2118  16.752  22.221   7.091
 2140ETHY    C1 2119  16.922  22.710   6.929
 2141ETHY    C1 2120  16.989  23.228   6.792
 2142ETHY    C1 2121  16.960  23.762   6.682
 2143AUSL   AUS 2122  16.488  21.604   7.663
 2144AUSL   AUS 2123  16.601  21.347   8.011
 2145AUL    AUL 2124  16.640  21.725   7.991
 2146THSLK    S 2125  16.774  21.464   8.184
 2147ETHY    C1 2126  17.047  21.605   8.522
 2148ETHY    C1 2127  17.328  21.854   8.915
 2149ETHY    C1 2128  17.544  22.187   9.279
 2150ETHY    C1 2129  17.696  22.592   9.614
 2151THSLK    S 2130  16.538  21.842   7.768
 2152ETHY    C1 2131  16.751  22.221   7.913
 2153ETHY    C1 2132  16.922  22.710   8.072
 2154ETHY    C1 2133  16.989  23.228   8.207
 2155ETHY    C1 2134  16.958  23.761   8.325
 2156AUSL   AUS 2135  16.336  20.350   7.909
 2157AUSL   AUS 2136  16.753  20.420   7.764
 2158AUL    AUL 2137  16.640  20.136   7.991
 2159THSLK    S 2138  16.295  20.093   7.992
 2160ETHY    C1 2139  16.168  19.684   8.152
 2161ETHY    C1 2140  16.094  19.203   8.391
 2162ETHY    C1 2141  16.113  18.751   8.684
 2163ETHY    C1 2142  16.215  18.333   9.021
 2164THSLK    S 2143  16.873  20.230   7.907
 2165ETHY    C1 2144  17.024  19.828   8.062
 2166ETHY    C1 2145  17.279  19.397   8.272
 2167ETHY    C1 2146  17.611  19.041   8.505
 2168ETHY    C1 2147  18.007  18.762   8.758
 2169AUSL   AUS 2148  16.185  20.257   7.663
 2170AUSL   AUS 2149  16.072  20.514   8.011
 2171AUL    AUL 2150  16.033  20.136   7.991
 2172THSLK    S 2151  16.134  20.012   7.744
 2173ETHY    C1 2152  15.921  19.613   7.812
 2174ETHY    C1 2153  15.750  19.110   7.925
 2175ETHY    C1 2154  15.684  18.596   8.072
 2176ETHY    C1 2155  15.713  18.081   8.252
 2177THSLK    S 2156  15.894  20.344   8.136
 2178ETHY    C1 2157  15.622  20.029   8.327
 2179ETHY    C1 2158  15.344  19.678   8.633
 2180ETHY    C1 2159  15.128  19.370   9.019
 2181ETHY    C1 2160  14.972  19.108   9.473
 2182AUSL   AUS 2161  16.488  20.257   7.663
 2183AUSL   AUS 2162  16.185  20.257   7.336
 2184AUL    AUL 2163  16.336  19.949   7.500
 2185THSLK    S 2164  16.135  20.010   7.261
 2186ETHY    C1 2165  15.922  19.612   7.192
 2187ETHY    C1 2166  15.750  19.110   7.076
 2188ETHY    C1 2167  15.684  18.596   6.927
 2189ETHY    C1 2168  15.715  18.079   6.754
 2190THSLK    S 2169  16.449  19.998   7.748
 2191ETHY    C1 2170  16.377  19.553   7.829
 2192ETHY    C1 2171  16.380  19.024   7.948
 2193ETHY    C1 2172  16.489  18.516   8.095
 2194ETHY    C1 2173  16.691  18.038   8.264
 2195AUSL   AUS 2174  16.336  21.511   7.091
 2196AUSL   AUS 2175  16.753  21.441   7.236
 2197AUL    AUL 2176  16.640  21.725   7.009
 2198THSLK    S 2177  16.378  21.745   6.971
 2199ETHY    C1 2178  16.505  22.070   6.676
 2200ETHY    C1 2179  16.579  22.500   6.353
 2201ETHY    C1 2180  16.560  22.965   6.080
 2202ETHY    C1 2181  16.457  23.453   5.857
 2203THSLK    S 2182  16.940  21.566   7.081
 2204ETHY    C1 2183  17.297  21.758   6.869
 2205ETHY    C1 2184  17.672  22.064   6.623
 2206ETHY    C1 2185  17.973  22.451   6.398
 2207ETHY    C1 2186  18.203  22.903   6.197
 2208AUSL   AUS 2187  16.185  21.604   7.336
 2209AUSL   AUS 2188  16.072  21.347   6.990
 2210AUL    AUL 2189  16.033  21.725   7.009
 2211THSLK    S 2190  16.224  21.858   7.233
 2212ETHY    C1 2191  16.296  22.281   7.074
 2213ETHY    C1 2192  16.293  22.797   6.906
 2214ETHY    C1 2193  16.184  23.307   6.770
 2215ETHY    C1 2194  15.982  23.805   6.670
 2216THSLK    S 2195  15.953  21.484   6.800
 2217ETHY    C1 2196  15.857  21.678   6.396
 2218ETHY    C1 2197  15.680  21.956   5.966
 2219ETHY    C1 2198  15.437  22.281   5.611
 2220ETHY    C1 2199  15.141  22.646   5.330
 2221AUSL   AUS 2200  16.336  20.350   7.091
 2222AUSL   AUS 2201  15.920  20.420   7.236
 2223AUL    AUL 2202  16.033  20.136   7.009
 2224THSLK    S 2203  15.735  20.267   7.122
 2225ETHY    C1 2204  15.378  19.993   7.044
 2226ETHY    C1 2205  15.001  19.639   6.878
 2227ETHY    C1 2206  14.699  19.265   6.633
 2228ETHY    C1 2207  14.472  18.878   6.321
 2229THSLK    S 2208  16.298  20.090   7.013
 2230ETHY    C1 2209  16.170  19.682   6.852
 2231ETHY    C1 2210  16.094  19.203   6.609
 2232ETHY    C1 2211  16.113  18.751   6.315
 2233ETHY    C1 2212  16.219  18.330   5.983
 2234AUSL   AUS 2213  16.488  20.257   7.336
 2235AUSL   AUS 2214  16.601  20.514   6.990
 2236AUL    AUL 2215  16.640  20.136   7.009
 2237THSLK    S 2216  16.451  19.997   7.258
 2238ETHY    C1 2217  16.378  19.552   7.175
 2239ETHY    C1 2218  16.380  19.024   7.052
 2240ETHY    C1 2219  16.488  18.516   6.905
 2241ETHY    C1 2220  16.693  18.037   6.742
 2242THSLK    S 2221  16.724  20.324   6.847
 2243ETHY    C1 2222  16.819  19.956   6.592
 2244ETHY    C1 2223  16.993  19.575   6.247
 2245ETHY    C1 2224  17.235  19.275   5.870
 2246ETHY    C1 2225  17.536  19.054   5.471
 2247AUC    AUC 2226  28.827  33.783   7.500
 2248AUC    AUC 2227  29.073  33.783   7.348
 2249AUC    AUC 2228  29.073  33.783   7.651
 2250AUC    AUC 2229  28.582  33.783   7.348
 2251AUC    AUC 2230  28.582  33.783   7.651
 2252AUC    AUC 2231  28.676  34.028   7.500
 2253AUC    AUC 2232  28.979  34.028   7.500
 2254AUC    AUC 2233  28.676  33.537   7.500
 2255AUC    AUC 2234  28.979  33.537   7.500
 2256AUC    AUC 2235  28.827  33.631   7.745
 2257AUC    AUC 2236  28.827  33.934   7.745
 2258AUC    AUC 2237  28.827  33.631   7.254
 2259AUC    AUC 2238  28.827  33.934   7.254
 2260AUC    AUC 2239  29.318  33.783   7.196
 2261AUC    AUC 2240  29.318  33.783   7.500
 2262AUC    AUC 2241  29.318  33.783   7.803
 2263AUC    AUC 2242  28.336  33.783   7.196
 2264AUC    AUC 2243  28.336  33.783   7.500
 2265AUC    AUC 2244  28.336  33.783   7.803
 2266AUC    AUC 2245  28.524  34.273   7.500
 2267AUC    AUC 2246  28.827  34.273   7.500
 2268AUC    AUC 2247  29.131  34.273   7.500
 2269AUC    AUC 2248  28.524  33.292   7.500
 2270AUC    AUC 2249  28.827  33.292   7.500
 2271AUC    AUC 2250  29.131  33.292   7.500
 2272AUC    AUC 2251  28.827  33.479   7.991
 2273AUC    AUC 2252  28.827  33.783   7.991
 2274AUC    AUC 2253  28.827  34.086   7.991
 2275AUC    AUC 2254  28.827  33.479   7.009
 2276AUC    AUC 2255  28.827  33.783   7.009
 2277AUC    AUC 2256  28.827  34.086   7.009
 2278AUC    AUC 2257  29.073  33.631   7.897
 2279AUC    AUC 2258  29.073  33.934   7.897
 2280AUC    AUC 2259  29.073  33.631   7.103
 2281AUC    AUC 2260  29.073  33.934   7.103
 2282AUC    AUC 2261  28.582  33.631   7.897
 2283AUC    AUC 2262  28.582  33.934   7.897
 2284AUC    AUC 2263  28.582  33.631   7.103
 2285AUC    AUC 2264  28.582  33.934   7.103
 2286AUC    AUC 2265  29.224  34.028   7.348
 2287AUC    AUC 2266  29.224  34.028   7.651
 2288AUC    AUC 2267  28.430  34.028   7.348
 2289AUC    AUC 2268  28.430  34.028   7.651
 2290AUC    AUC 2269  29.224  33.537   7.348
 2291AUC    AUC 2270  29.224  33.537   7.651
 2292AUC    AUC 2271  28.430  33.537   7.348
 2293AUC    AUC 2272  28.430  33.537   7.651
 2294AUC    AUC 2273  28.676  34.180   7.745
 2295AUC    AUC 2274  28.979  34.180   7.745
 2296AUC    AUC 2275  28.676  33.385   7.745
 2297AUC    AUC 2276  28.979  33.385   7.745
 2298AUC    AUC 2277  28.676  34.180   7.254
 2299AUC    AUC 2278  28.979  34.180   7.254
 2300AUC    AUC 2279  28.676  33.385   7.254
 2301AUC    AUC 2280  28.979  33.385   7.254
 2302AUSL   AUS 2281  29.236  33.783   8.080
 2303AUSL   AUS 2282  29.092  33.366   8.011
 2304AUL    AUL 2283  29.318  33.479   8.294
 2305THSLK    S 2284  29.210  33.178   8.156
 2306ETHY    C1 2285  29.306  32.810   8.412
 2307ETHY    C1 2286  29.484  32.427   8.753
 2308ETHY    C1 2287  29.726  32.127   9.130
 2309ETHY    C1 2288  30.022  31.908   9.534
 2310THSLK    S 2289  29.335  33.736   8.327
 2311ETHY    C1 2290  29.562  33.586   8.694
 2312ETHY    C1 2291  29.846  33.498   9.148
 2313ETHY    C1 2292  30.130  33.520   9.607
 2314ETHY    C1 2293  30.407  33.642  10.061
 2315AUSL   AUS 2294  28.991  33.631   8.173
 2316AUSL   AUS 2295  28.664  33.934   8.173
 2317AUL    AUL 2296  28.827  33.783   8.482
 2318THSLK    S 2297  29.072  33.580   8.418
 2319ETHY    C1 2298  29.162  33.362   8.810
 2320ETHY    C1 2299  29.290  33.188   9.308
 2321ETHY    C1 2300  29.436  33.123   9.823
 2322ETHY    C1 2301  29.593  33.157  10.346
 2323THSLK    S 2302  28.577  33.894   8.432
 2324ETHY    C1 2303  28.488  33.820   8.874
 2325ETHY    C1 2304  28.364  33.822   9.403
 2326ETHY    C1 2305  28.219  33.931   9.912
 2327ETHY    C1 2306  28.056  34.135  10.392
 2328AUSL   AUS 2307  28.991  33.934   8.173
 2329AUSL   AUS 2308  29.337  34.047   7.916
 2330AUL    AUL 2309  29.318  34.086   8.294
 2331THSLK    S 2310  29.078  33.986   8.416
 2332ETHY    C1 2311  29.166  34.203   8.809
 2333ETHY    C1 2312  29.291  34.376   9.308
 2334ETHY    C1 2313  29.436  34.442   9.823
 2335ETHY    C1 2314  29.599  34.409  10.345
 2336THSLK    S 2315  29.513  34.153   8.079
 2337ETHY    C1 2316  29.875  34.203   8.355
 2338ETHY    C1 2317  30.282  34.352   8.681
 2339ETHY    C1 2318  30.644  34.601   8.995
 2340ETHY    C1 2319  30.956  34.937   9.293
 2341AUSL   AUS 2320  29.236  33.783   6.920
 2342AUSL   AUS 2321  29.092  34.199   6.990
 2343AUL    AUL 2322  29.318  34.086   6.706
 2344THSLK    S 2323  29.340  33.736   6.676
 2345ETHY    C1 2324  29.567  33.586   6.308
 2346ETHY    C1 2325  29.846  33.498   5.851
 2347ETHY    C1 2326  30.130  33.520   5.393
 2348ETHY    C1 2327  30.412  33.642   4.941
 2349THSLK    S 2328  29.269  34.318   6.820
 2350ETHY    C1 2329  29.541  34.459   6.480
 2351ETHY    C1 2330  29.819  34.706   6.085
 2352ETHY    C1 2331  30.035  35.039   5.720
 2353ETHY    C1 2332  30.192  35.446   5.391
 2354AUSL   AUS 2333  28.991  33.631   6.826
 2355AUSL   AUS 2334  29.337  33.518   7.083
 2356AUL    AUL 2335  29.318  33.479   6.706
 2357THSLK    S 2336  29.477  33.327   6.939
 2358ETHY    C1 2337  29.710  33.010   6.707
 2359ETHY    C1 2338  30.040  32.703   6.403
 2360ETHY    C1 2339  30.420  32.494   6.083
 2361ETHY    C1 2340  30.841  32.377   5.754
 2362THSLK    S 2341  29.078  33.579   6.583
 2363ETHY    C1 2342  29.166  33.362   6.191
 2364ETHY    C1 2343  29.291  33.189   5.692
 2365ETHY    C1 2344  29.436  33.123   5.176
 2366ETHY    C1 2345  29.599  33.156   4.656
 2367AUSL   AUS 2346  28.991  33.934   6.826
 2368AUSL   AUS 2347  28.664  33.631   6.826
 2369AUL    AUL 2348  28.827  33.783   6.518
 2370THSLK    S 2349  28.568  33.579   6.586
 2371ETHY    C1 2350  28.429  33.364   6.206
 2372ETHY    C1 2351  28.272  33.193   5.717
 2373ETHY    C1 2352  28.133  33.127   5.199
 2374ETHY    C1 2353  28.017  33.158   4.666
 2375THSLK    S 2354  29.093  33.895   6.572
 2376ETHY    C1 2355  29.230  33.818   6.142
 2377ETHY    C1 2356  29.383  33.818   5.622
 2378ETHY    C1 2357  29.521  33.927   5.112
 2379ETHY    C1 2358  29.644  34.134   4.621
 2380AUSL   AUS 2359  28.418  33.783   8.080
 2381AUSL   AUS 2360  28.563  34.199   8.011
 2382AUL    AUL 2361  28.336  34.086   8.294
 2383THSLK    S 2362  28.314  33.736   8.325
 2384ETHY    C1 2363  28.088  33.586   8.691
 2385ETHY    C1 2364  27.808  33.498   9.148
 2386ETHY    C1 2365  27.525  33.520   9.607
 2387ETHY    C1 2366  27.242  33.642  10.058
 2388THSLK    S 2367  28.440  34.332   8.201
 2389ETHY    C1 2368  28.344  34.527   8.604
 2390ETHY    C1 2369  28.171  34.808   9.034
 2391ETHY    C1 2370  27.928  35.134   9.390
 2392ETHY    C1 2371  27.627  35.493   9.671
 2393AUSL   AUS 2372  28.664  33.631   8.173
 2394AUSL   AUS 2373  28.317  33.518   7.916
 2395AUL    AUL 2374  28.336  33.479   8.294
 2396THSLK    S 2375  28.138  33.352   8.032
 2397ETHY    C1 2376  27.777  33.105   8.166
 2398ETHY    C1 2377  27.372  32.839   8.410
 2399ETHY    C1 2378  27.011  32.619   8.745
 2400ETHY    C1 2379  26.695  32.446   9.156
 2401THSLK    S 2380  28.562  33.581   8.413
 2402ETHY    C1 2381  28.424  33.366   8.793
 2403ETHY    C1 2382  28.271  33.193   9.284
 2404ETHY    C1 2383  28.134  33.127   9.800
 2405ETHY    C1 2384  28.010  33.159  10.332
 2406AUSL   AUS 2385  28.418  33.783   6.920
 2407AUSL   AUS 2386  28.563  33.366   6.990
 2408AUL    AUL 2387  28.336  33.479   6.706
 2409THSLK    S 2388  28.319  33.736   6.673
 2410ETHY    C1 2389  28.092  33.586   6.305
 2411ETHY    C1 2390  27.809  33.498   5.851
 2412ETHY    C1 2391  27.525  33.520   5.393
 2413ETHY    C1 2392  27.248  33.642   4.938
 2414THSLK    S 2393  28.389  33.191   6.865
 2415ETHY    C1 2394  28.117  32.878   6.673
 2416ETHY    C1 2395  27.836  32.530   6.367
 2417ETHY    C1 2396  27.619  32.222   5.980
 2418ETHY    C1 2397  27.467  31.955   5.528
 2419AUSL   AUS 2398  28.664  33.934   6.826
 2420AUSL   AUS 2399  28.317  34.047   7.083
 2421AUL    AUL 2400  28.336  34.086   6.706
 2422THSLK    S 2401  28.181  34.178   6.893
 2423ETHY    C1 2402  27.947  34.299   6.518
 2424ETHY    C1 2403  27.615  34.487   6.132
 2425ETHY    C1 2404  27.235  34.726   5.833
 2426ETHY    C1 2405  26.818  35.006   5.618
 2427THSLK    S 2406  28.583  33.896   6.566
 2428ETHY    C1 2407  28.493  33.821   6.124
 2429ETHY    C1 2408  28.365  33.822   5.597
 2430ETHY    C1 2409  28.219  33.931   5.089
 2431ETHY    C1 2410  28.062  34.137   4.608
 2432AUSL   AUS 2411  29.407  34.192   7.500
 2433AUSL   AUS 2412  29.337  34.047   7.083
 2434AUL    AUL 2413  29.621  34.273   7.196
 2435THSLK    S 2414  29.517  34.154   6.925
 2436ETHY    C1 2415  29.878  34.204   6.648
 2437ETHY    C1 2416  30.282  34.352   6.319
 2438ETHY    C1 2417  30.644  34.601   6.005
 2439ETHY    C1 2418  30.960  34.938   5.713
 2440THSLK    S 2419  29.677  34.253   7.503
 2441ETHY    C1 2420  30.124  34.353   7.502
 2442ETHY    C1 2421  30.626  34.559   7.500
 2443ETHY    C1 2422  31.073  34.861   7.500
 2444ETHY    C1 2423  31.461  35.245   7.503
 2445AUSL   AUS 2424  29.501  33.946   7.348
 2446AUSL   AUS 2425  29.501  33.619   7.651
 2447AUL    AUL 2426  29.809  33.783   7.500
 2448THSLK    S 2427  29.763  33.993   7.345
 2449ETHY    C1 2428  30.213  33.962   7.270
 2450ETHY    C1 2429  30.745  34.017   7.179
 2451ETHY    C1 2430  31.252  34.180   7.091
 2452ETHY    C1 2431  31.727  34.438   7.011
 2453THSLK    S 2432  29.738  33.482   7.659
 2454ETHY    C1 2433  30.109  33.224   7.726
 2455ETHY    C1 2434  30.595  32.998   7.808
 2456ETHY    C1 2435  31.114  32.878   7.896
 2457ETHY    C1 2436  31.652  32.856   7.989
 2458AUSL   AUS 2437  29.501  33.946   7.651
 2459AUSL   AUS 2438  29.244  34.293   7.764
 2460AUL    AUL 2439  29.621  34.273   7.803
 2461THSLK    S 2440  29.429  34.417   7.924
 2462ETHY    C1 2441  29.786  34.609   8.136
 2463ETHY    C1 2442  30.163  34.916   8.377
 2464ETHY    C1 2443  30.464  35.303   8.602
 2465ETHY    C1 2444  30.691  35.754   8.809
 2466THSLK    S 2445  29.762  33.992   7.661
 2467ETHY    C1 2446  30.213  33.962   7.734
 2468ETHY    C1 2447  30.746  34.017   7.821
 2469ETHY    C1 2448  31.252  34.180   7.908
 2470ETHY    C1 2449  31.726  34.438   7.995
 2471AUSL   AUS 2450  28.247  34.192   7.500
 2472AUSL   AUS 2451  28.317  34.047   7.916
 2473AUL    AUL 2452  28.033  34.273   7.803
 2474THSLK    S 2453  28.177  34.173   8.107
 2475ETHY    C1 2454  27.944  34.294   8.482
 2476ETHY    C1 2455  27.615  34.487   8.868
 2477ETHY    C1 2456  27.235  34.726   9.166
 2478ETHY    C1 2457  26.814  35.001   9.381
 2479THSLK    S 2458  28.026  34.332   7.503
 2480ETHY    C1 2459  27.737  34.687   7.502
 2481ETHY    C1 2460  27.329  35.044   7.500
 2482ETHY    C1 2461  26.859  35.308   7.500
 2483ETHY    C1 2462  26.341  35.484   7.503
 2484AUSL   AUS 2463  28.154  33.946   7.348
 2485AUSL   AUS 2464  28.411  34.293   7.236
 2486AUL    AUL 2465  28.033  34.273   7.196
 2487THSLK    S 2466  27.917  34.060   7.303
 2488ETHY    C1 2467  27.545  34.234   7.101
 2489ETHY    C1 2468  27.059  34.410   6.936
 2490ETHY    C1 2469  26.541  34.542   6.868
 2491ETHY    C1 2470  26.003  34.634   6.890
 2492THSLK    S 2471  28.291  34.460   7.056
 2493ETHY    C1 2472  28.139  34.779   6.765
 2494ETHY    C1 2473  27.885  35.159   6.473
 2495ETHY    C1 2474  27.552  35.527   6.260
 2496ETHY    C1 2475  27.156  35.877   6.122
 2497AUSL   AUS 2476  28.154  33.946   7.651
 2498AUSL   AUS 2477  28.154  33.619   7.348
 2499AUL    AUL 2478  27.846  33.783   7.500
 2500THSLK    S 2479  27.892  33.544   7.384
 2501ETHY    C1 2480  27.442  33.493   7.446
 2502ETHY    C1 2481  26.909  33.390   7.434
 2503ETHY    C1 2482  26.402  33.240   7.327
 2504ETHY    C1 2483  25.929  33.047   7.135
 2505THSLK    S 2484  27.916  34.054   7.699
 2506ETHY    C1 2485  27.545  34.230   7.901
 2507ETHY    C1 2486  27.059  34.409   8.063
 2508ETHY    C1 2487  26.541  34.542   8.133
 2509ETHY    C1 2488  26.002  34.628   8.114
 2510AUSL   AUS 2489  29.407  33.373   7.500
 2511AUSL   AUS 2490  29.337  33.518   7.916
 2512AUL    AUL 2491  29.621  33.292   7.803
 2513THSLK    S 2492  29.628  33.233   7.503
 2514ETHY    C1 2493  29.917  32.878   7.502
 2515ETHY    C1 2494  30.326  32.521   7.500
 2516ETHY    C1 2495  30.796  32.257   7.500
 2517ETHY    C1 2496  31.313  32.081   7.503
 2518THSLK    S 2497  29.474  33.328   8.066
 2519ETHY    C1 2498  29.707  33.011   8.297
 2520ETHY    C1 2499  30.040  32.704   8.598
 2521ETHY    C1 2500  30.420  32.494   8.918
 2522ETHY    C1 2501  30.837  32.378   9.250
 2523AUSL   AUS 2502  29.501  33.619   7.348
 2524AUSL   AUS 2503  29.244  33.272   7.236
 2525AUL    AUL 2504  29.621  33.292   7.196
 2526THSLK    S 2505  29.739  33.482   7.346
 2527ETHY    C1 2506  30.110  33.224   7.279
 2528ETHY    C1 2507  30.595  32.998   7.192
 2529ETHY    C1 2508  31.114  32.878   7.103
 2530ETHY    C1 2509  31.653  32.856   7.018
 2531THSLK    S 2510  29.367  33.081   7.099
 2532ETHY    C1 2511  29.517  32.679   6.942
 2533ETHY    C1 2512  29.770  32.249   6.728
 2534ETHY    C1 2513  30.102  31.893   6.495
 2535ETHY    C1 2514  30.501  31.612   6.249
 2536AUSL   AUS 2515  28.247  33.373   7.500
 2537AUSL   AUS 2516  28.317  33.518   7.083
 2538AUL    AUL 2517  28.033  33.292   7.196
 2539THSLK    S 2518  28.142  33.347   6.966
 2540ETHY    C1 2519  27.780  33.101   6.833
 2541ETHY    C1 2520  27.372  32.838   6.589
 2542ETHY    C1 2521  27.011  32.619   6.255
 2543ETHY    C1 2522  26.699  32.441   5.843
 2544THSLK    S 2523  27.977  33.312   7.503
 2545ETHY    C1 2524  27.531  33.212   7.502
 2546ETHY    C1 2525  27.029  33.006   7.500
 2547ETHY    C1 2526  26.582  32.704   7.500
 2548ETHY    C1 2527  26.194  32.320   7.503
 2549AUSL   AUS 2528  28.154  33.619   7.651
 2550AUSL   AUS 2529  28.411  33.272   7.764
 2551AUL    AUL 2530  28.033  33.292   7.803
 2552THSLK    S 2531  28.223  33.124   7.881
 2553ETHY    C1 2532  27.867  32.848   7.958
 2554ETHY    C1 2533  27.492  32.491   8.122
 2555ETHY    C1 2534  27.191  32.117   8.367
 2556ETHY    C1 2535  26.960  31.735   8.682
 2557THSLK    S 2536  27.891  33.549   7.618
 2558ETHY    C1 2537  27.441  33.497   7.557
 2559ETHY    C1 2538  26.909  33.391   7.566
 2560ETHY    C1 2539  26.402  33.240   7.673
 2561ETHY    C1 2540  25.928  33.052   7.867
 2562AUSL   AUS 2541  28.827  34.363   7.909
 2563AUSL   AUS 2542  28.411  34.293   7.764
 2564AUL    AUL 2543  28.524  34.577   7.991
 2565THSLK    S 2544  28.288  34.455   7.948
 2566ETHY    C1 2545  28.137  34.775   8.237
 2567ETHY    C1 2546  27.884  35.158   8.527
 2568ETHY    C1 2547  27.552  35.526   8.740
 2569ETHY    C1 2548  27.153  35.872   8.881
 2570THSLK    S 2549  28.865  34.594   8.034
 2571ETHY    C1 2550  28.993  34.920   8.327
 2572ETHY    C1 2551  29.070  35.352   8.646
 2573ETHY    C1 2552  29.051  35.817   8.920
 2574ETHY    C1 2553  28.945  36.302   9.147
 2575AUSL   AUS 2554  28.676  34.456   7.663
 2576AUSL   AUS 2555  28.979  34.456   7.336
 2577AUL    AUL 2556  28.827  34.764   7.500
 2578THSLK    S 2557  28.713  34.708   7.772
 2579ETHY    C1 2558  28.786  35.132   7.929
 2580ETHY    C1 2559  28.783  35.648   8.095
 2581ETHY    C1 2560  28.675  36.159   8.229
 2582ETHY    C1 2561  28.471  36.655   8.336
 2583THSLK    S 2562  29.030  34.696   7.237
 2584ETHY    C1 2563  29.243  35.073   7.091
 2585ETHY    C1 2564  29.413  35.562   6.929
 2586ETHY    C1 2565  29.480  36.080   6.792
 2587ETHY    C1 2566  29.451  36.614   6.682
 2588AUSL   AUS 2567  28.979  34.456   7.663
 2589AUSL   AUS 2568  29.092  34.199   8.011
 2590AUL    AUL 2569  29.131  34.577   7.991
 2591THSLK    S 2570  29.265  34.316   8.184
 2592ETHY    C1 2571  29.538  34.457   8.522
 2593ETHY    C1 2572  29.819  34.706   8.915
 2594ETHY    C1 2573  30.035  35.039   9.279
 2595ETHY    C1 2574  30.187  35.444   9.614
 2596THSLK    S 2575  29.029  34.694   7.768
 2597ETHY    C1 2576  29.242  35.073   7.913
 2598ETHY    C1 2577  29.413  35.562   8.072
 2599ETHY    C1 2578  29.480  36.080   8.207
 2600ETHY    C1 2579  29.449  36.613   8.325
 2601AUSL   AUS 2580  28.827  33.202   7.909
 2602AUSL   AUS 2581  29.244  33.272   7.764
 2603AUL    AUL 2582  29.131  32.988   7.991
 2604THSLK    S 2583  28.786  32.945   7.992
 2605ETHY    C1 2584  28.659  32.536   8.152
 2606ETHY    C1 2585  28.585  32.055   8.391
 2607ETHY    C1 2586  28.604  31.603   8.684
 2608ETHY    C1 2587  28.706  31.185   9.021
 2609THSLK    S 2588  29.364  33.082   7.907
 2610ETHY    C1 2589  29.515  32.680   8.062
 2611ETHY    C1 2590  29.770  32.249   8.272
 2612ETHY    C1 2591  30.102  31.893   8.505
 2613ETHY    C1 2592  30.498  31.614   8.758
 2614AUSL   AUS 2593  28.676  33.109   7.663
 2615AUSL   AUS 2594  28.563  33.366   8.011
 2616AUL    AUL 2595  28.524  32.988   7.991
 2617THSLK    S 2596  28.625  32.864   7.744
 2618ETHY    C1 2597  28.412  32.465   7.812
 2619ETHY    C1 2598  28.241  31.962   7.925
 2620ETHY    C1 2599  28.175  31.448   8.072
 2621ETHY    C1 2600  28.204  30.933   8.252
 2622THSLK    S 2601  28.385  33.196   8.136
 2623ETHY    C1 2602  28.113  32.881   8.327
 2624ETHY    C1 2603  27.835  32.530   8.633
 2625ETHY    C1 2604  27.619  32.222   9.019
 2626ETHY    C1 2605  27.463  31.960   9.473
 2627AUSL   AUS 2606  28.979  33.109   7.663
 2628AUSL   AUS 2607  28.676  33.109   7.336
 2629AUL    AUL 2608  28.827  32.801   7.500
 2630THSLK    S 2609  28.626  32.862   7.261
 2631ETHY    C1 2610  28.413  32.464   7.192
 2632ETHY    C1 2611  28.241  31.962   7.076
 2633ETHY    C1 2612  28.175  31.448   6.927
 2634ETHY    C1 2613  28.206  30.931   6.754
 2635THSLK    S 2614  28.940  32.850   7.748
 2636ETHY    C1 2615  28.868  32.405   7.829
 2637ETHY    C1 2616  28.871  31.876   7.948
 2638ETHY    C1 2617  28.980  31.368   8.095
 2639ETHY    C1 2618  29.182  30.890   8.264
 2640AUSL   AUS 2619  28.827  34.363   7.091
 2641AUSL   AUS 2620  29.244  34.293   7.236
 2642AUL    AUL 2621  29.131  34.577   7.009
 2643THSLK    S 2622  28.869  34.597   6.971
 2644ETHY    C1 2623  28.996  34.922   6.676
 2645ETHY    C1 2624  29.070  35.352   6.353
 2646ETHY    C1 2625  29.051  35.817   6.080
 2647ETHY    C1 2626  28.948  36.305   5.857
 2648THSLK    S 2627  29.431  34.418   7.081
 2649ETHY    C1 2628  29.788  34.610   6.869
 2650ETHY    C1 2629  30.163  34.916   6.623
 2651ETHY    C1 2630  30.464  35.303   6.398
 2652ETHY    C1 2631  30.694  35.755   6.197
 2653AUSL   AUS 2632  28.676  34.456   7.336
 2654AUSL   AUS 2633  28.563  34.199   6.990
 2655AUL    AUL 2634  28.524  34.577   7.009
 2656THSLK    S 2635  28.715  34.710   7.233
 2657ETHY    C1 2636  28.787  35.133   7.074
 2658ETHY    C1 2637  28.784  35.649   6.906
 2659ETHY    C1 2638  28.675  36.159   6.770
 2660ETHY    C1 2639  28.473  36.657   6.670
 2661THSLK    S 2640  28.444  34.336   6.800
 2662ETHY    C1 2641  28.348  34.530   6.396
 2663ETHY    C1 2642  28.171  34.808   5.966
 2664ETHY    C1 2643  27.928  35.133   5.611
 2665ETHY    C1 2644  27.632  35.498   5.330
 2666AUSL   AUS 2645  28.827  33.202   7.091
 2667AUSL   AUS 2646  28.411  33.272   7.236
 2668AUL    AUL 2647  28.524  32.988   7.009
 2669THSLK    S 2648  28.226  33.119   7.122
 2670ETHY    C1 2649  27.869  32.845   7.044
 2671ETHY    C1 2650  27.492  32.491   6.878
 2672ETHY    C1 2651  27.190  32.117   6.633
 2673ETHY    C1 2652  26.963  31.730   6.321
 2674THSLK    S 2653  28.789  32.942   7.013
 2675ETHY    C1 2654  28.661  32.534   6.852
 2676ETHY    C1 2655  28.585  32.055   6.609
 2677ETHY    C1 2656  28.604  31.603   6.315
 2678ETHY    C1 2657  28.710  31.182   5.983
 2679AUSL   AUS 2658  28.979  33.109   7.336
 2680AUSL   AUS 2659  29.092  33.366   6.990
 2681AUL    AUL 2660  29.131  32.988   7.009
 2682THSLK    S 2661  28.942  32.849   7.258
 2683ETHY    C1 2662  28.869  32.404   7.175
 2684ETHY    C1 2663  28.871  31.876   7.052
 2685ETHY    C1 2664  28.979  31.368   6.905
 2686ETHY    C1 2665  29.184  30.889   6.742
 2687THSLK    S 2666  29.215  33.176   6.847
 2688ETHY    C1 2667  29.310  32.808   6.592
 2689ETHY    C1 2668  29.484  32.427   6.247
 2690ETHY    C1 2669  29.726  32.127   5.870
 2691ETHY    C1 2670  30.027  31.906   5.471
 2692AUC    AUC 2671  45.992  33.977   7.500
 2693AUC    AUC 2672  46.238  33.977   7.348
 2694AUC    AUC 2673  46.238  33.977   7.651
 2695AUC    AUC 2674  45.747  33.977   7.348
 2696AUC    AUC 2675  45.747  33.977   7.651
 2697AUC    AUC 2676  45.841  34.222   7.500
 2698AUC    AUC 2677  46.144  34.222   7.500
 2699AUC    AUC 2678  45.841  33.731   7.500
 2700AUC    AUC 2679  46.144  33.731   7.500
 2701AUC    AUC 2680  45.992  33.825   7.745
 2702AUC    AUC 2681  45.992  34.128   7.745
 2703AUC    AUC 2682  45.992  33.825   7.254
 2704AUC    AUC 2683  45.992  34.128   7.254
 2705AUC    AUC 2684  46.483  33.977   7.196
 2706AUC    AUC 2685  46.483  33.977   7.500
 2707AUC    AUC 2686  46.483  33.977   7.803
 2708AUC    AUC 2687  45.501  33.977   7.196
 2709AUC    AUC 2688  45.501  33.977   7.500
 2710AUC    AUC 2689  45.501  33.977   7.803
 2711AUC    AUC 2690  45.689  34.467   7.500
 2712AUC    AUC 2691  45.992  34.467   7.500
 2713AUC    AUC 2692  46.296  34.467   7.500
 2714AUC    AUC 2693  45.689  33.486   7.500
 2715AUC    AUC 2694  45.992  33.486   7.500
 2716AUC    AUC 2695  46.296  33.486   7.500
 2717AUC    AUC 2696  45.992  33.673   7.991
 2718AUC    AUC 2697  45.992  33.977   7.991
 2719AUC    AUC 2698  45.992  34.280   7.991
 2720AUC    AUC 2699  45.992  33.673   7.009
 2721AUC    AUC 2700  45.992  33.977   7.009
 2722AUC    AUC 2701  45.992  34.280   7.009
 2723AUC    AUC 2702  46.238  33.825   7.897
 2724AUC    AUC 2703  46.238  34.128   7.897
 2725AUC    AUC 2704  46.238  33.825   7.103
 2726AUC    AUC 2705  46.238  34.128   7.103
 2727AUC    AUC 2706  45.747  33.825   7.897
 2728AUC    AUC 2707  45.747  34.128   7.897
 2729AUC    AUC 2708  45.747  33.825   7.103
 2730AUC    AUC 2709  45.747  34.128   7.103
 2731AUC    AUC 2710  46.389  34.222   7.348
 2732AUC    AUC 2711  46.389  34.222   7.651
 2733AUC    AUC 2712  45.595  34.222   7.348
 2734AUC    AUC 2713  45.595  34.222   7.651
 2735AUC    AUC 2714  46.389  33.731   7.348
 2736AUC    AUC 2715  46.389  33.731   7.651
 2737AUC    AUC 2716  45.595  33.731   7.348
 2738AUC    AUC 2717  45.595  33.731   7.651
 2739AUC    AUC 2718  45.841  34.374   7.745
 2740AUC    AUC 2719  46.144  34.374   7.745
 2741AUC    AUC 2720  45.841  33.579   7.745
 2742AUC    AUC 2721  46.144  33.579   7.745
 2743AUC    AUC 2722  45.841  34.374   7.254
 2744AUC    AUC 2723  46.144  34.374   7.254
 2745AUC    AUC 2724  45.841  33.579   7.254
 2746AUC    AUC 2725  46.144  33.579   7.254
 2747AUSL   AUS 2726  46.401  33.977   8.080
 2748AUSL   AUS 2727  46.257  33.560   8.011
 2749AUL    AUL 2728  46.483  33.673   8.294
 2750THSLK    S 2729  46.375  33.372   8.156
 2751ETHY    C1 2730  46.471  33.004   8.412
 2752ETHY    C1 2731  46.649  32.621   8.753
 2753ETHY    C1 2732  46.891  32.321   9.130
 2754ETHY    C1 2733  47.187  32.102   9.534
 2755THSLK    S 2734  46.500  33.930   8.327
 2756ETHY    C1 2735  46.727  33.780   8.694
 2757ETHY    C1 2736  47.011  33.692   9.148
 2758ETHY    C1 2737  47.295  33.714   9.607
 2759ETHY    C1 2738  47.572  33.836  10.061
 2760AUSL   AUS 2739  46.156  33.825   8.173
 2761AUSL   AUS 2740  45.829  34.128   8.173
 2762AUL    AUL 2741  45.992  33.977   8.482
 2763THSLK    S 2742  46.237  33.774   8.418
 2764ETHY    C1 2743  46.327  33.556   8.810
 2765ETHY    C1 2744  46.455  33.382   9.308
 2766ETHY    C1 2745  46.601  33.317   9.823
 2767ETHY    C1 2746  46.758  33.351  10.346
 2768THSLK    S 2747  45.742  34.088   8.432
 2769ETHY    C1 2748  45.653  34.014   8.874
 2770ETHY    C1 2749  45.529  34.016   9.403
 2771ETHY    C1 2750  45.384  34.125   9.912
 2772ETHY    C1 2751  45.221  34.329  10.392
 2773AUSL   AUS 2752  46.156  34.128   8.173
 2774AUSL   AUS 2753  46.502  34.241   7.916
 2775AUL    AUL 2754  46.483  34.280   8.294
 2776THSLK    S 2755  46.243  34.180   8.416
 2777ETHY    C1 2756  46.331  34.397   8.809
 2778ETHY    C1 2757  46.456  34.570   9.308
 2779ETHY    C1 2758  46.601  34.636   9.823
 2780ETHY    C1 2759  46.764  34.603  10.345
 2781THSLK    S 2760  46.678  34.347   8.079
 2782ETHY    C1 2761  47.040  34.397   8.355
 2783ETHY    C1 2762  47.447  34.546   8.681
 2784ETHY    C1 2763  47.809  34.795   8.995
 2785ETHY    C1 2764  48.121  35.131   9.293
 2786AUSL   AUS 2765  46.401  33.977   6.920
 2787AUSL   AUS 2766  46.257  34.393   6.990
 2788AUL    AUL 2767  46.483  34.280   6.706
 2789THSLK    S 2768  46.505  33.930   6.676
 2790ETHY    C1 2769  46.732  33.780   6.308
 2791ETHY    C1 2770  47.011  33.692   5.851
 2792ETHY    C1 2771  47.295  33.714   5.393
 2793ETHY    C1 2772  47.577  33.836   4.941
 2794THSLK    S 2773  46.434  34.512   6.820
 2795ETHY    C1 2774  46.706  34.653   6.480
 2796ETHY    C1 2775  46.984  34.900   6.085
 2797ETHY    C1 2776  47.200  35.233   5.720
 2798ETHY    C1 2777  47.357  35.640   5.391
 2799AUSL   AUS 2778  46.156  33.825   6.826
 2800AUSL   AUS 2779  46.502  33.712   7.083
 2801AUL    AUL 2780  46.483  33.673   6.706
 2802THSLK    S 2781  46.642  33.521   6.939
 2803ETHY    C1 2782  46.875  33.204   6.707
 2804ETHY    C1 2783  47.205  32.897   6.403
 2805ETHY    C1 2784  47.585  32.688   6.083
 2806ETHY    C1 2785  48.006  32.571   5.754
 2807THSLK    S 2786  46.243  33.773   6.583
 2808ETHY    C1 2787  46.331  33.556   6.191
 2809ETHY    C1 2788  46.456  33.383   5.692
 2810ETHY    C1 2789  46.601  33.317   5.176
 2811ETHY    C1 2790  46.764  33.350   4.656
 2812AUSL   AUS 2791  46.156  34.128   6.826
 2813AUSL   AUS 2792  45.829  33.825   6.826
 2814AUL    AUL 2793  45.992  33.977   6.518
 2815THSLK    S 2794  45.733  33.773   6.586
 2816ETHY    C1 2795  45.594  33.558   6.206
 2817ETHY    C1 2796  45.437  33.387   5.717
 2818ETHY    C1 2797  45.298  33.321   5.199
 2819ETHY    C1 2798  45.182  33.352   4.666
 2820THSLK    S 2799  46.258  34.089   6.572
 2821ETHY    C1 2800  46.395  34.012   6.142
 2822ETHY    C1 2801  46.548  34.012   5.622
 2823ETHY    C1 2802  46.686  34.121   5.112
 2824ETHY    C1 2803  46.809  34.328   4.621
 2825AUSL   AUS 2804  45.583  33.977   8.080
 2826AUSL   AUS 2805  45.728  34.393   8.011
 2827AUL    AUL 2806  45.501  34.280   8.294
 2828THSLK    S 2807  45.479  33.930   8.325
 2829ETHY    C1 2808  45.253  33.780   8.691
 2830ETHY    C1 2809  44.973  33.692   9.148
 2831ETHY    C1 2810  44.690  33.714   9.607
 2832ETHY    C1 2811  44.407  33.836  10.058
 2833THSLK    S 2812  45.605  34.526   8.201
 2834ETHY    C1 2813  45.509  34.721   8.604
 2835ETHY    C1 2814  45.336  35.002   9.034
 2836ETHY    C1 2815  45.093  35.328   9.390
 2837ETHY    C1 2816  44.792  35.687   9.671
 2838AUSL   AUS 2817  45.829  33.825   8.173
 2839AUSL   AUS 2818  45.482  33.712   7.916
 2840AUL    AUL 2819  45.501  33.673   8.294
 2841THSLK    S 2820  45.303  33.546   8.032
 2842ETHY    C1 2821  44.942  33.299   8.166
 2843ETHY    C1 2822  44.537  33.033   8.410
 2844ETHY    C1 2823  44.176  32.813   8.745
 2845ETHY    C1 2824  43.860  32.640   9.156
 2846THSLK    S 2825  45.727  33.775   8.413
 2847ETHY    C1 2826  45.589  33.560   8.793
 2848ETHY    C1 2827  45.436  33.387   9.284
 2849ETHY    C1 2828  45.299  33.321   9.800
 2850ETHY    C1 2829  45.175  33.353  10.332
 2851AUSL   AUS 2830  45.583  33.977   6.920
 2852AUSL   AUS 2831  45.728  33.560   6.990
 2853AUL    AUL 2832  45.501  33.673   6.706
 2854THSLK    S 2833  45.484  33.930   6.673
 2855ETHY    C1 2834  45.257  33.780   6.305
 2856ETHY    C1 2835  44.974  33.692   5.851
 2857ETHY    C1 2836  44.690  33.714   5.393
 2858ETHY    C1 2837  44.413  33.836   4.938
 2859THSLK    S 2838  45.554  33.385   6.865
 2860ETHY    C1 2839  45.282  33.072   6.673
 2861ETHY    C1 2840  45.001  32.724   6.367
 2862ETHY    C1 2841  44.784  32.416   5.980
 2863ETHY    C1 2842  44.632  32.149   5.528
 2864AUSL   AUS 2843  45.829  34.128   6.826
 2865AUSL   AUS 2844  45.482  34.241   7.083
 2866AUL    AUL 2845  45.501  34.280   6.706
 2867THSLK    S 2846  45.346  34.372   6.893
 2868ETHY    C1 2847  45.112  34.493   6.518
 2869ETHY    C1 2848  44.780  34.681   6.132
 2870ETHY    C1 2849  44.400  34.920   5.833
 2871ETHY    C1 2850  43.983  35.200   5.618
 2872THSLK    S 2851  45.748  34.090   6.566
 2873ETHY    C1 2852  45.658  34.015   6.124
 2874ETHY    C1 2853  45.530  34.016   5.597
 2875ETHY    C1 2854  45.384  34.125   5.089
 2876ETHY    C1 2855  45.227  34.331   4.608
 2877AUSL   AUS 2856  46.572  34.386   7.500
 2878AUSL   AUS 2857  46.502  34.241   7.083
 2879AUL    AUL 2858  46.786  34.467   7.196
 2880THSLK    S 2859  46.682  34.348   6.925
 2881ETHY    C1 2860  47.043  34.398   6.648
 2882ETHY    C1 2861  47.447  34.546   6.319
 2883ETHY    C1 2862  47.809  34.795   6.005
 2884ETHY    C1 2863  48.125  35.132   5.713
 2885THSLK    S 2864  46.842  34.447   7.503
 2886ETHY    C1 2865  47.289  34.547   7.502
 2887ETHY    C1 2866  47.791  34.753   7.500
 2888ETHY    C1 2867  48.238  35.055   7.500
 2889ETHY    C1 2868  48.626  35.439   7.503
 2890AUSL   AUS 2869  46.666  34.140   7.348
 2891AUSL   AUS 2870  46.666  33.813   7.651
 2892AUL    AUL 2871  46.974  33.977   7.500
 2893THSLK    S 2872  46.928  34.187   7.345
 2894ETHY    C1 2873  47.378  34.156   7.270
 2895ETHY    C1 2874  47.910  34.211   7.179
 2896ETHY    C1 2875  48.417  34.374   7.091
 2897ETHY    C1 2876  48.892  34.632   7.011
 2898THSLK    S 2877  46.903  33.676   7.659
 2899ETHY    C1 2878  47.274  33.418   7.726
 2900ETHY    C1 2879  47.760  33.192   7.808
 2901ETHY    C1 2880  48.279  33.072   7.896
 2902ETHY    C1 2881  48.817  33.050   7.989
 2903AUSL   AUS 2882  46.666  34.140   7.651
 2904AUSL   AUS 2883  46.409  34.487   7.764
 2905AUL    AUL 2884  46.786  34.467   7.803
 2906THSLK    S 2885  46.594  34.611   7.924
 2907ETHY    C1 2886  46.951  34.803   8.136
 2908ETHY    C1 2887  47.328  35.110   8.377
 2909ETHY    C1 2888  47.629  35.497   8.602
 2910ETHY    C1 2889  47.856  35.948   8.809
 2911THSLK    S 2890  46.927  34.186   7.661
 2912ETHY    C1 2891  47.378  34.156   7.734
 2913ETHY    C1 2892  47.911  34.211   7.821
 2914ETHY    C1 2893  48.417  34.374   7.908
 2915ETHY    C1 2894  48.891  34.632   7.995
 2916AUSL   AUS 2895  45.412  34.386   7.500
 2917AUSL   AUS 2896  45.482  34.241   7.916
 2918AUL    AUL 2897  45.198  34.467   7.803
 2919THSLK    S 2898  45.342  34.367   8.107
 2920ETHY    C1 2899  45.109  34.488   8.482
 2921ETHY    C1 2900  44.780  34.681   8.868
 2922ETHY    C1 2901  44.400  34.920   9.166
 2923ETHY    C1 2902  43.979  35.195   9.381
 2924THSLK    S 2903  45.191  34.526   7.503
 2925ETHY    C1 2904  44.902  34.881   7.502
 2926ETHY    C1 2905  44.494  35.238   7.500
 2927ETHY    C1 2906  44.024  35.502   7.500
 2928ETHY    C1 2907  43.506  35.678   7.503
 2929AUSL   AUS 2908  45.319  34.140   7.348
 2930AUSL   AUS 2909  45.576  34.487   7.236
 2931AUL    AUL 2910  45.198  34.467   7.196
 2932THSLK    S 2911  45.082  34.254   7.303
 2933ETHY    C1 2912  44.710  34.428   7.101
 2934ETHY    C1 2913  44.224  34.604   6.936
 2935ETHY    C1 2914  43.706  34.736   6.868
 2936ETHY    C1 2915  43.168  34.828   6.890
 2937THSLK    S 2916  45.456  34.654   7.056
 2938ETHY    C1 2917  45.304  34.973   6.765
 2939ETHY    C1 2918  45.050  35.353   6.473
 2940ETHY    C1 2919  44.717  35.721   6.260
 2941ETHY    C1 2920  44.321  36.071   6.122
 2942AUSL   AUS 2921  45.319  34.140   7.651
 2943AUSL   AUS 2922  45.319  33.813   7.348
 2944AUL    AUL 2923  45.011  33.977   7.500
 2945THSLK    S 2924  45.057  33.738   7.384
 2946ETHY    C1 2925  44.607  33.687   7.446
 2947ETHY    C1 2926  44.074  33.584   7.434
 2948ETHY    C1 2927  43.567  33.434   7.327
 2949ETHY    C1 2928  43.094  33.241   7.135
 2950THSLK    S 2929  45.081  34.248   7.699
 2951ETHY    C1 2930  44.710  34.424   7.901
 2952ETHY    C1 2931  44.224  34.603   8.063
 2953ETHY    C1 2932  43.706  34.736   8.133
 2954ETHY    C1 2933  43.167  34.822   8.114
 2955AUSL   AUS 2934  46.572  33.567   7.500
 2956AUSL   AUS 2935  46.502  33.712   7.916
 2957AUL    AUL 2936  46.786  33.486   7.803
 2958THSLK    S 2937  46.793  33.427   7.503
 2959ETHY    C1 2938  47.082  33.072   7.502
 2960ETHY    C1 2939  47.491  32.715   7.500
 2961ETHY    C1 2940  47.961  32.451   7.500
 2962ETHY    C1 2941  48.478  32.275   7.503
 2963THSLK    S 2942  46.639  33.522   8.066
 2964ETHY    C1 2943  46.872  33.205   8.297
 2965ETHY    C1 2944  47.205  32.898   8.598
 2966ETHY    C1 2945  47.585  32.688   8.918
 2967ETHY    C1 2946  48.002  32.572   9.250
 2968AUSL   AUS 2947  46.666  33.813   7.348
 2969AUSL   AUS 2948  46.409  33.466   7.236
 2970AUL    AUL 2949  46.786  33.486   7.196
 2971THSLK    S 2950  46.904  33.676   7.346
 2972ETHY    C1 2951  47.275  33.418   7.279
 2973ETHY    C1 2952  47.760  33.192   7.192
 2974ETHY    C1 2953  48.279  33.072   7.103
 2975ETHY    C1 2954  48.818  33.050   7.018
 2976THSLK    S 2955  46.532  33.275   7.099
 2977ETHY    C1 2956  46.682  32.873   6.942
 2978ETHY    C1 2957  46.935  32.443   6.728
 2979ETHY    C1 2958  47.267  32.087   6.495
 2980ETHY    C1 2959  47.666  31.806   6.249
 2981AUSL   AUS 2960  45.412  33.567   7.500
 2982AUSL   AUS 2961  45.482  33.712   7.083
 2983AUL    AUL 2962  45.198  33.486   7.196
 2984THSLK    S 2963  45.307  33.541   6.966
 2985ETHY    C1 2964  44.945  33.295   6.833
 2986ETHY    C1 2965  44.537  33.032   6.589
 2987ETHY    C1 2966  44.176  32.813   6.255
 2988ETHY    C1 2967  43.864  32.635   5.843
 2989THSLK    S 2968  45.142  33.506   7.503
 2990ETHY    C1 2969  44.696  33.406   7.502
 2991ETHY    C1 2970  44.194  33.200   7.500
 2992ETHY    C1 2971  43.747  32.898   7.500
 2993ETHY    C1 2972  43.359  32.514   7.503
 2994AUSL   AUS 2973  45.319  33.813   7.651
 2995AUSL   AUS 2974  45.576  33.466   7.764
 2996AUL    AUL 2975  45.198  33.486   7.803
 2997THSLK    S 2976  45.388  33.318   7.881
 2998ETHY    C1 2977  45.032  33.042   7.958
 2999ETHY    C1 2978  44.657  32.685   8.122
 3000ETHY    C1 2979  44.356  32.311   8.367
 3001ETHY    C1 2980  44.125  31.929   8.682
 3002THSLK    S 2981  45.056  33.743   7.618
 3003ETHY    C1 2982  44.606  33.691   7.557
 3004ETHY    C1 2983  44.074  33.585   7.566
 3005ETHY    C1 2984  43.567  33.434   7.673
 3006ETHY    C1 2985  43.093  33.246   7.867
 3007AUSL   AUS 2986  45.992  34.557   7.909
 3008AUSL   AUS 2987  45.576  34.487   7.764
 3009AUL    AUL 2988  45.689  34.771   7.991
 3010THSLK    S 2989  45.453  34.649   7.948
 3011ETHY    C1 2990  45.302  34.969   8.237
 3012ETHY    C1 2991  45.049  35.352   8.527
 3013ETHY    C1 2992  44.717  35.720   8.740
 3014ETHY    C1 2993  44.318  36.066   8.881
 3015THSLK    S 2994  46.030  34.788   8.034
 3016ETHY    C1 2995  46.158  35.114   8.327
 3017ETHY    C1 2996  46.235  35.546   8.646
 3018ETHY    C1 2997  46.216  36.011   8.920
 3019ETHY    C1 2998  46.110  36.496   9.147
 3020AUSL   AUS 2999  45.841  34.650   7.663
 3021AUSL   AUS 3000  46.144  34.650   7.336
 3022AUL    AUL 3001  45.992  34.958   7.500
 3023THSLK    S 3002  45.878  34.902   7.772
 3024ETHY    C1 3003  45.951  35.326   7.929
 3025ETHY    C1 3004  45.948  35.842   8.095
 3026ETHY    C1 3005  45.840  36.353   8.229
 3027ETHY    C1 3006  45.636  36.849   8.336
 3028THSLK    S 3007  46.195  34.890   7.237
 3029ETHY    C1 3008  46.408  35.267   7.091
 3030ETHY    C1 3009  46.578  35.756   6.929
 3031ETHY    C1 3010  46.645  36.274   6.792
 3032ETHY    C1 3011  46.616  36.808   6.682
 3033AUSL   AUS 3012  46.144  34.650   7.663
 3034AUSL   AUS 3013  46.257  34.393   8.011
 3035AUL    AUL 3014  46.296  34.771   7.991
 3036THSLK    S 3015  46.430  34.510   8.184
 3037ETHY    C1 3016  46.703  34.651   8.522
 3038ETHY    C1 3017  46.984  34.900   8.915
 3039ETHY    C1 3018  47.200  35.233   9.279
 3040ETHY    C1 3019  47.352  35.638   9.614
 3041THSLK    S 3020  46.194  34.888   7.768
 3042ETHY    C1 3021  46.407  35.267   7.913
 3043ETHY    C1 3022  46.578  35.756   8.072
 3044ETHY    C1 3023  46.645  36.274   8.207
 3045ETHY    C1 3024  46.614  36.807   8.325
 3046AUSL   AUS 3025  45.992  33.396   7.909
 3047AUSL   AUS 3026  46.409  33.466   7.764
 3048AUL    AUL 3027  46.296  33.182   7.991
 3049THSLK    S 3028  45.951  33.139   7.992
 3050ETHY    C1 3029  45.824  32.730   8.152
 3051ETHY    C1 3030  45.750  32.249   8.391
 3052ETHY    C1 3031  45.769  31.797   8.684
 3053ETHY    C1 3032  45.871  31.379   9.021
 3054THSLK    S 3033  46.529  33.276   7.907
 3055ETHY    C1 3034  46.680  32.874   8.062
 3056ETHY    C1 3035  46.935  32.443   8.272
 3057ETHY    C1 3036  47.267  32.087   8.505
 3058ETHY    C1 3037  47.663  31.808   8.758
 3059AUSL   AUS 3038  45.841  33.303   7.663
 3060AUSL   AUS 3039  45.728  33.560   8.011
 3061AUL    AUL 3040  45.689  33.182   7.991
 3062THSLK    S 3041  45.790  33.058   7.744
 3063ETHY    C1 3042  45.577  32.659   7.812
 3064ETHY    C1 3043  45.406  32.156   7.925
 3065ETHY    C1 3044  45.340  31.642   8.072
 3066ETHY    C1 3045  45.369  31.127   8.252
 3067THSLK    S 3046  45.550  33.390   8.136
 3068ETHY    C1 3047  45.278  33.075   8.327
 3069ETHY    C1 3048  45.000  32.724   8.633
 3070ETHY    C1 3049  44.784  32.416   9.019
 3071ETHY    C1 3050  44.628  32.154   9.473
 3072AUSL   AUS 3051  46.144  33.303   7.663
 3073AUSL   AUS 3052  45.841  33.303   7.336
 3074AUL    AUL 3053  45.992  32.995   7.500
 3075THSLK    S 3054  45.791  33.056   7.261
 3076ETHY    C1 3055  45.578  32.658   7.192
 3077ETHY    C1 3056  45.406  32.156   7.076
 3078ETHY    C1 3057  45.340  31.642   6.927
 3079ETHY    C1 3058  45.371  31.125   6.754
 3080THSLK    S 3059  46.105  33.044   7.748
 3081ETHY    C1 3060  46.033  32.599   7.829
 3082ETHY    C1 3061  46.036  32.070   7.948
 3083ETHY    C1 3062  46.145  31.562   8.095
 3084ETHY    C1 3063  46.347  31.084   8.264
 3085AUSL   AUS 3064  45.992  34.557   7.091
 3086AUSL   AUS 3065  46.409  34.487   7.236
 3087AUL    AUL 3066  46.296  34.771   7.009
 3088THSLK    S 3067  46.034  34.791   6.971
 3089ETHY    C1 3068  46.161  35.116   6.676
 3090ETHY    C1 3069  46.235  35.546   6.353
 3091ETHY    C1 3070  46.216  36.011   6.080
 3092ETHY    C1 3071  46.113  36.499   5.857
 3093THSLK    S 3072  46.596  34.612   7.081
 3094ETHY    C1 3073  46.953  34.804   6.869
 3095ETHY    C1 3074  47.328  35.110   6.623
 3096ETHY    C1 3075  47.629  35.497   6.398
 3097ETHY    C1 3076  47.859  35.949   6.197
 3098AUSL   AUS 3077  45.841  34.650   7.336
 3099AUSL   AUS 3078  45.728  34.393   6.990
 3100AUL    AUL 3079  45.689  34.771   7.009
 3101THSLK    S 3080  45.880  34.904   7.233
 3102ETHY    C1 3081  45.952  35.327   7.074
 3103ETHY    C1 3082  45.949  35.843   6.906
 3104ETHY    C1 3083  45.840  36.353   6.770
 3105ETHY    C1 3084  45.638  36.851   6.670
 3106THSLK    S 3085  45.609  34.530   6.800
 3107ETHY    C1 3086  45.513  34.724   6.396
 3108ETHY    C1 3087  45.336  35.002   5.966
 3109ETHY    C1 3088  45.093  35.327   5.611
 3110ETHY    C1 3089  44.797  35.692   5.330
 3111AUSL   AUS 3090  45.992  33.396   7.091
 3112AUSL   AUS 3091  45.576  33.466   7.236
 3113AUL    AUL 3092  45.689  33.182   7.009
 3114THSLK    S 3093  45.391  33.313   7.122
 3115ETHY    C1 3094  45.034  33.039   7.044
 3116ETHY    C1 3095  44.657  32.685   6.878
 3117ETHY    C1 3096  44.355  32.311   6.633
 3118ETHY    C1 3097  44.128  31.924   6.321
 3119THSLK    S 3098  45.954  33.136   7.013
 3120ETHY    C1 3099  45.826  32.728   6.852
 3121ETHY    C1 3100  45.750  32.249   6.609
 3122ETHY    C1 3101  45.769  31.797   6.315
 3123ETHY    C1 3102  45.875  31.376   5.983
 3124AUSL   AUS 3103  46.144  33.303   7.336
 3125AUSL   AUS 3104  46.257  33.560   6.990
 3126AUL    AUL 3105  46.296  33.182   7.009
 3127THSLK    S 3106  46.107  33.043   7.258
 3128ETHY    C1 3107  46.034  32.598   7.175
 3129ETHY    C1 3108  46.036  32.070   7.052
 3130ETHY    C1 3109  46.144  31.562   6.905
 3131ETHY    C1 3110  46.349  31.083   6.742
 3132THSLK    S 3111  46.380  33.370   6.847
 3133ETHY    C1 3112  46.475  33.002   6.592
 3134ETHY    C1 3113  46.649  32.621   6.247
 3135ETHY    C1 3114  46.891  32.321   5.870
 3136ETHY    C1 3115  47.192  32.100   5.471
 3137AUC    AUC 3116  15.487   9.128   7.500
 3138AUC    AUC 3117  15.733   9.128   7.348
 3139AUC    AUC 3118  15.733   9.128   7.651
 3140AUC    AUC 3119  15.242   9.128   7.348
 3141AUC    AUC 3120  15.242   9.128   7.651
 3142AUC    AUC 3121  15.336   9.373   7.500
 3143AUC    AUC 3122  15.639   9.373   7.500
 3144AUC    AUC 3123  15.336   8.882   7.500
 3145AUC    AUC 3124  15.639   8.882   7.500
 3146AUC    AUC 3125  15.487   8.976   7.745
 3147AUC    AUC 3126  15.487   9.279   7.745
 3148AUC    AUC 3127  15.487   8.976   7.254
 3149AUC    AUC 3128  15.487   9.279   7.254
 3150AUC    AUC 3129  15.978   9.128   7.196
 3151AUC    AUC 3130  15.978   9.128   7.500
 3152AUC    AUC 3131  15.978   9.128   7.803
 3153AUC    AUC 3132  14.996   9.128   7.196
 3154AUC    AUC 3133  14.996   9.128   7.500
 3155AUC    AUC 3134  14.996   9.128   7.803
 3156AUC    AUC 3135  15.184   9.618   7.500
 3157AUC    AUC 3136  15.487   9.618   7.500
 3158AUC    AUC 3137  15.791   9.618   7.500
 3159AUC    AUC 3138  15.184   8.637   7.500
 3160AUC    AUC 3139  15.487   8.637   7.500
 3161AUC    AUC 3140  15.791   8.637   7.500
 3162AUC    AUC 3141  15.487   8.824   7.991
 3163AUC    AUC 3142  15.487   9.128   7.991
 3164AUC    AUC 3143  15.487   9.431   7.991
 3165AUC    AUC 3144  15.487   8.824   7.009
 3166AUC    AUC 3145  15.487   9.128   7.009
 3167AUC    AUC 3146  15.487   9.431   7.009
 3168AUC    AUC 3147  15.733   8.976   7.897
 3169AUC    AUC 3148  15.733   9.279   7.897
 3170AUC    AUC 3149  15.733   8.976   7.103
 3171AUC    AUC 3150  15.733   9.279   7.103
 3172AUC    AUC 3151  15.242   8.976   7.897
 3173AUC    AUC 3152  15.242   9.279   7.897
 3174AUC    AUC 3153  15.242   8.976   7.103
 3175AUC    AUC 3154  15.242   9.279   7.103
 3176AUC    AUC 3155  15.884   9.373   7.348
 3177AUC    AUC 3156  15.884   9.373   7.651
 3178AUC    AUC 3157  15.090   9.373   7.348
 3179AUC    AUC 3158  15.090   9.373   7.651
 3180AUC    AUC 3159  15.884   8.882   7.348
 3181AUC    AUC 3160  15.884   8.882   7.651
 3182AUC    AUC 3161  15.090   8.882   7.348
 3183AUC    AUC 3162  15.090   8.882   7.651
 3184AUC    AUC 3163  15.336   9.525   7.745
 3185AUC    AUC 3164  15.639   9.525   7.745
 3186AUC    AUC 3165  15.336   8.730   7.745
 3187AUC    AUC 3166  15.639   8.730   7.745
 3188AUC    AUC 3167  15.336   9.525   7.254
 3189AUC    AUC 3168  15.639   9.525   7.254
 3190AUC    AUC 3169  15.336   8.730   7.254
 3191AUC    AUC 3170  15.639   8.730   7.254
 3192AUSL   AUS 3171  15.896   9.128   8.080
 3193AUSL   AUS 3172  15.752   8.711   8.011
 3194AUL    AUL 3173  15.978   8.824   8.294
 3195THSLK    S 3174  15.870   8.523   8.156
 3196ETHY    C1 3175  15.966   8.155   8.412
 3197ETHY    C1 3176  16.144   7.772   8.753
 3198ETHY    C1 3177  16.386   7.472   9.130
 3199ETHY    C1 3178  16.682   7.253   9.534
 3200THSLK    S 3179  15.995   9.081   8.327
 3201ETHY    C1 3180  16.222   8.931   8.694
 3202ETHY    C1 3181  16.506   8.843   9.148
 3203ETHY    C1 3182  16.790   8.865   9.607
 3204ETHY    C1 3183  17.067   8.987  10.061
 3205AUSL   AUS 3184  15.651   8.976   8.173
 3206AUSL   AUS 3185  15.324   9.279   8.173
 3207AUL    AUL 3186  15.487   9.128   8.482
 3208THSLK    S 3187  15.732   8.925   8.418
 3209ETHY    C1 3188  15.822   8.707   8.810
 3210ETHY    C1 3189  15.950   8.533   9.308
 3211ETHY    C1 3190  16.096   8.468   9.823
 3212ETHY    C1 3191  16.253   8.502  10.346
 3213THSLK    S 3192  15.237   9.239   8.432
 3214ETHY    C1 3193  15.148   9.165   8.874
 3215ETHY    C1 3194  15.024   9.167   9.403
 3216ETHY    C1 3195  14.879   9.276   9.912
 3217ETHY    C1 3196  14.716   9.480  10.392
 3218AUSL   AUS 3197  15.651   9.279   8.173
 3219AUSL   AUS 3198  15.997   9.392   7.916
 3220AUL    AUL 3199  15.978   9.431   8.294
 3221THSLK    S 3200  15.738   9.331   8.416
 3222ETHY    C1 3201  15.826   9.548   8.809
 3223ETHY    C1 3202  15.951   9.721   9.308
 3224ETHY    C1 3203  16.096   9.787   9.823
 3225ETHY    C1 3204  16.259   9.754  10.345
 3226THSLK    S 3205  16.173   9.498   8.079
 3227ETHY    C1 3206  16.535   9.548   8.355
 3228ETHY    C1 3207  16.942   9.697   8.681
 3229ETHY    C1 3208  17.304   9.946   8.995
 3230ETHY    C1 3209  17.616  10.282   9.293
 3231AUSL   AUS 3210  15.896   9.128   6.920
 3232AUSL   AUS 3211  15.752   9.544   6.990
 3233AUL    AUL 3212  15.978   9.431   6.706
 3234THSLK    S 3213  16.000   9.081   6.676
 3235ETHY    C1 3214  16.227   8.931   6.308
 3236ETHY    C1 3215  16.506   8.843   5.851
 3237ETHY    C1 3216  16.790   8.865   5.393
 3238ETHY    C1 3217  17.072   8.987   4.941
 3239THSLK    S 3218  15.929   9.663   6.820
 3240ETHY    C1 3219  16.201   9.804   6.480
 3241ETHY    C1 3220  16.479  10.051   6.085
 3242ETHY    C1 3221  16.695  10.384   5.720
 3243ETHY    C1 3222  16.852  10.791   5.391
 3244AUSL   AUS 3223  15.651   8.976   6.826
 3245AUSL   AUS 3224  15.997   8.863   7.083
 3246AUL    AUL 3225  15.978   8.824   6.706
 3247THSLK    S 3226  16.137   8.672   6.939
 3248ETHY    C1 3227  16.370   8.355   6.707
 3249ETHY    C1 3228  16.700   8.048   6.403
 3250ETHY    C1 3229  17.080   7.839   6.083
 3251ETHY    C1 3230  17.501   7.722   5.754
 3252THSLK    S 3231  15.738   8.924   6.583
 3253ETHY    C1 3232  15.826   8.707   6.191
 3254ETHY    C1 3233  15.951   8.534   5.692
 3255ETHY    C1 3234  16.096   8.468   5.176
 3256ETHY    C1 3235  16.259   8.501   4.656
 3257AUSL   AUS 3236  15.651   9.279   6.826
 3258AUSL   AUS 3237  15.324   8.976   6.826
 3259AUL    AUL 3238  15.487   9.128   6.518
 3260THSLK    S 3239  15.228   8.924   6.586
 3261ETHY    C1 3240  15.089   8.709   6.206
 3262ETHY    C1 3241  14.932   8.538   5.717
 3263ETHY    C1 3242  14.793   8.472   5.199
 3264ETHY    C1 3243  14.677   8.503   4.666
 3265THSLK    S 3244  15.753   9.240   6.572
 3266ETHY    C1 3245  15.890   9.163   6.142
 3267ETHY    C1 3246  16.043   9.163   5.622
 3268ETHY    C1 3247  16.181   9.272   5.112
 3269ETHY    C1 3248  16.304   9.479   4.621
 3270AUSL   AUS 3249  15.078   9.128   8.080
 3271AUSL   AUS 3250  15.223   9.544   8.011
 3272AUL    AUL 3251  14.996   9.431   8.294
 3273THSLK    S 3252  14.974   9.081   8.325
 3274ETHY    C1 3253  14.748   8.931   8.691
 3275ETHY    C1 3254  14.468   8.843   9.148
 3276ETHY    C1 3255  14.185   8.865   9.607
 3277ETHY    C1 3256  13.902   8.987  10.058
 3278THSLK    S 3257  15.100   9.677   8.201
 3279ETHY    C1 3258  15.004   9.872   8.604
 3280ETHY    C1 3259  14.831  10.153   9.034
 3281ETHY    C1 3260  14.588  10.479   9.390
 3282ETHY    C1 3261  14.287  10.838   9.671
 3283AUSL   AUS 3262  15.324   8.976   8.173
 3284AUSL   AUS 3263  14.977   8.863   7.916
 3285AUL    AUL 3264  14.996   8.824   8.294
 3286THSLK    S 3265  14.798   8.697   8.032
 3287ETHY    C1 3266  14.437   8.450   8.166
 3288ETHY    C1 3267  14.032   8.184   8.410
 3289ETHY    C1 3268  13.671   7.964   8.745
 3290ETHY    C1 3269  13.355   7.791   9.156
 3291THSLK    S 3270  15.222   8.926   8.413
 3292ETHY    C1 3271  15.084   8.711   8.793
 3293ETHY    C1 3272  14.931   8.538   9.284
 3294ETHY    C1 3273  14.794   8.472   9.800
 3295ETHY    C1 3274  14.670   8.504  10.332
 3296AUSL   AUS 3275  15.078   9.128   6.920
 3297AUSL   AUS 3276  15.223   8.711   6.990
 3298AUL    AUL 3277  14.996   8.824   6.706
 3299THSLK    S 3278  14.979   9.081   6.673
 3300ETHY    C1 3279  14.752   8.931   6.305
 3301ETHY    C1 3280  14.469   8.843   5.851
 3302ETHY    C1 3281  14.185   8.865   5.393
 3303ETHY    C1 3282  13.908   8.987   4.938
 3304THSLK    S 3283  15.049   8.536   6.865
 3305ETHY    C1 3284  14.777   8.223   6.673
 3306ETHY    C1 3285  14.496   7.875   6.367
 3307ETHY    C1 3286  14.279   7.567   5.980
 3308ETHY    C1 3287  14.127   7.300   5.528
 3309AUSL   AUS 3288  15.324   9.279   6.826
 3310AUSL   AUS 3289  14.977   9.392   7.083
 3311AUL    AUL 3290  14.996   9.431   6.706
 3312THSLK    S 3291  14.841   9.523   6.893
 3313ETHY    C1 3292  14.607   9.644   6.518
 3314ETHY    C1 3293  14.275   9.832   6.132
 3315ETHY    C1 3294  13.895  10.071   5.833
 3316ETHY    C1 3295  13.478  10.351   5.618
 3317THSLK    S 3296  15.243   9.241   6.566
 3318ETHY    C1 3297  15.153   9.166   6.124
 3319ETHY    C1 3298  15.025   9.167   5.597
 3320ETHY    C1 3299  14.879   9.276   5.089
 3321ETHY    C1 3300  14.722   9.482   4.608
 3322AUSL   AUS 3301  16.067   9.537   7.500
 3323AUSL   AUS 3302  15.997   9.392   7.083
 3324AUL    AUL 3303  16.281   9.618   7.196
 3325THSLK    S 3304  16.177   9.499   6.925
 3326ETHY    C1 3305  16.538   9.549   6.648
 3327ETHY    C1 3306  16.942   9.697   6.319
 3328ETHY    C1 3307  17.304   9.946   6.005
 3329ETHY    C1 3308  17.620  10.283   5.713
 3330THSLK    S 3309  16.337   9.598   7.503
 3331ETHY    C1 3310  16.784   9.698   7.502
 3332ETHY    C1 3311  17.286   9.904   7.500
 3333ETHY    C1 3312  17.733  10.206   7.500
 3334ETHY    C1 3313  18.121  10.590   7.503
 3335AUSL   AUS 3314  16.161   9.291   7.348
 3336AUSL   AUS 3315  16.161   8.964   7.651
 3337AUL    AUL 3316  16.469   9.128   7.500
 3338THSLK    S 3317  16.423   9.338   7.345
 3339ETHY    C1 3318  16.873   9.307   7.270
 3340ETHY    C1 3319  17.405   9.362   7.179
 3341ETHY    C1 3320  17.912   9.525   7.091
 3342ETHY    C1 3321  18.387   9.783   7.011
 3343THSLK    S 3322  16.398   8.827   7.659
 3344ETHY    C1 3323  16.769   8.569   7.726
 3345ETHY    C1 3324  17.255   8.343   7.808
 3346ETHY    C1 3325  17.774   8.223   7.896
 3347ETHY    C1 3326  18.312   8.201   7.989
 3348AUSL   AUS 3327  16.161   9.291   7.651
 3349AUSL   AUS 3328  15.904   9.638   7.764
 3350AUL    AUL 3329  16.281   9.618   7.803
 3351THSLK    S 3330  16.089   9.762   7.924
 3352ETHY    C1 3331  16.446   9.954   8.136
 3353ETHY    C1 3332  16.823  10.261   8.377
 3354ETHY    C1 3333  17.124  10.648   8.602
 3355ETHY    C1 3334  17.351  11.099   8.809
 3356THSLK    S 3335  16.422   9.337   7.661
 3357ETHY    C1 3336  16.873   9.307   7.734
 3358ETHY    C1 3337  17.406   9.362   7.821
 3359ETHY    C1 3338  17.912   9.525   7.908
 3360ETHY    C1 3339  18.386   9.783   7.995
 3361AUSL   AUS 3340  14.907   9.537   7.500
 3362AUSL   AUS 3341  14.977   9.392   7.916
 3363AUL    AUL 3342  14.693   9.618   7.803
 3364THSLK    S 3343  14.837   9.518   8.107
 3365ETHY    C1 3344  14.604   9.639   8.482
 3366ETHY    C1 3345  14.275   9.832   8.868
 3367ETHY    C1 3346  13.895  10.071   9.166
 3368ETHY    C1 3347  13.474  10.346   9.381
 3369THSLK    S 3348  14.686   9.677   7.503
 3370ETHY    C1 3349  14.397  10.032   7.502
 3371ETHY    C1 3350  13.989  10.389   7.500
 3372ETHY    C1 3351  13.519  10.653   7.500
 3373ETHY    C1 3352  13.001  10.829   7.503
 3374AUSL   AUS 3353  14.814   9.291   7.348
 3375AUSL   AUS 3354  15.071   9.638   7.236
 3376AUL    AUL 3355  14.693   9.618   7.196
 3377THSLK    S 3356  14.577   9.405   7.303
 3378ETHY    C1 3357  14.205   9.579   7.101
 3379ETHY    C1 3358  13.719   9.755   6.936
 3380ETHY    C1 3359  13.201   9.887   6.868
 3381ETHY    C1 3360  12.663   9.979   6.890
 3382THSLK    S 3361  14.951   9.805   7.056
 3383ETHY    C1 3362  14.799  10.124   6.765
 3384ETHY    C1 3363  14.545  10.504   6.473
 3385ETHY    C1 3364  14.212  10.872   6.260
 3386ETHY    C1 3365  13.816  11.222   6.122
 3387AUSL   AUS 3366  14.814   9.291   7.651
 3388AUSL   AUS 3367  14.814   8.964   7.348
 3389AUL    AUL 3368  14.506   9.128   7.500
 3390THSLK    S 3369  14.552   8.889   7.384
 3391ETHY    C1 3370  14.102   8.838   7.446
 3392ETHY    C1 3371  13.569   8.735   7.434
 3393ETHY    C1 3372  13.062   8.585   7.327
 3394ETHY    C1 3373  12.589   8.392   7.135
 3395THSLK    S 3374  14.576   9.399   7.699
 3396ETHY    C1 3375  14.205   9.575   7.901
 3397ETHY    C1 3376  13.719   9.754   8.063
 3398ETHY    C1 3377  13.201   9.887   8.133
 3399ETHY    C1 3378  12.662   9.973   8.114
 3400AUSL   AUS 3379  16.067   8.718   7.500
 3401AUSL   AUS 3380  15.997   8.863   7.916
 3402AUL    AUL 3381  16.281   8.637   7.803
 3403THSLK    S 3382  16.288   8.578   7.503
 3404ETHY    C1 3383  16.577   8.223   7.502
 3405ETHY    C1 3384  16.986   7.866   7.500
 3406ETHY    C1 3385  17.456   7.602   7.500
 3407ETHY    C1 3386  17.973   7.426   7.503
 3408THSLK    S 3387  16.134   8.673   8.066
 3409ETHY    C1 3388  16.367   8.356   8.297
 3410ETHY    C1 3389  16.700   8.049   8.598
 3411ETHY    C1 3390  17.080   7.839   8.918
 3412ETHY    C1 3391  17.497   7.723   9.250
 3413AUSL   AUS 3392  16.161   8.964   7.348
 3414AUSL   AUS 3393  15.904   8.617   7.236
 3415AUL    AUL 3394  16.281   8.637   7.196
 3416THSLK    S 3395  16.399   8.827   7.346
 3417ETHY    C1 3396  16.770   8.569   7.279
 3418ETHY    C1 3397  17.255   8.343   7.192
 3419ETHY    C1 3398  17.774   8.223   7.103
 3420ETHY    C1 3399  18.313   8.201   7.018
 3421THSLK    S 3400  16.027   8.426   7.099
 3422ETHY    C1 3401  16.177   8.024   6.942
 3423ETHY    C1 3402  16.430   7.594   6.728
 3424ETHY    C1 3403  16.762   7.238   6.495
 3425ETHY    C1 3404  17.161   6.957   6.249
 3426AUSL   AUS 3405  14.907   8.718   7.500
 3427AUSL   AUS 3406  14.977   8.863   7.083
 3428AUL    AUL 3407  14.693   8.637   7.196
 3429THSLK    S 3408  14.802   8.692   6.966
 3430ETHY    C1 3409  14.440   8.446   6.833
 3431ETHY    C1 3410  14.032   8.183   6.589
 3432ETHY    C1 3411  13.671   7.964   6.255
 3433ETHY    C1 3412  13.359   7.786   5.843
 3434THSLK    S 3413  14.637   8.657   7.503
 3435ETHY    C1 3414  14.191   8.557   7.502
 3436ETHY    C1 3415  13.689   8.351   7.500
 3437ETHY    C1 3416  13.242   8.049   7.500
 3438ETHY    C1 3417  12.854   7.665   7.503
 3439AUSL   AUS 3418  14.814   8.964   7.651
 3440AUSL   AUS 3419  15.071   8.617   7.764
 3441AUL    AUL 3420  14.693   8.637   7.803
 3442THSLK    S 3421  14.883   8.469   7.881
 3443ETHY    C1 3422  14.527   8.193   7.958
 3444ETHY    C1 3423  14.152   7.836   8.122
 3445ETHY    C1 3424  13.851   7.462   8.367
 3446ETHY    C1 3425  13.620   7.080   8.682
 3447THSLK    S 3426  14.551   8.894   7.618
 3448ETHY    C1 3427  14.101   8.842   7.557
 3449ETHY    C1 3428  13.569   8.736   7.566
 3450ETHY    C1 3429  13.062   8.585   7.673
 3451ETHY    C1 3430  12.588   8.397   7.867
 3452AUSL   AUS 3431  15.487   9.708   7.909
 3453AUSL   AUS 3432  15.071   9.638   7.764
 3454AUL    AUL 3433  15.184   9.922   7.991
 3455THSLK    S 3434  14.948   9.800   7.948
 3456ETHY    C1 3435  14.797  10.120   8.237
 3457ETHY    C1 3436  14.544  10.503   8.527
 3458ETHY    C1 3437  14.212  10.871   8.740
 3459ETHY    C1 3438  13.813  11.217   8.881
 3460THSLK    S 3439  15.525   9.939   8.034
 3461ETHY    C1 3440  15.653  10.265   8.327
 3462ETHY    C1 3441  15.730  10.697   8.646
 3463ETHY    C1 3442  15.711  11.162   8.920
 3464ETHY    C1 3443  15.605  11.647   9.147
 3465AUSL   AUS 3444  15.336   9.801   7.663
 3466AUSL   AUS 3445  15.639   9.801   7.336
 3467AUL    AUL 3446  15.487  10.109   7.500
 3468THSLK    S 3447  15.373  10.053   7.772
 3469ETHY    C1 3448  15.446  10.477   7.929
 3470ETHY    C1 3449  15.443  10.993   8.095
 3471ETHY    C1 3450  15.335  11.504   8.229
 3472ETHY    C1 3451  15.131  12.000   8.336
 3473THSLK    S 3452  15.690  10.041   7.237
 3474ETHY    C1 3453  15.903  10.418   7.091
 3475ETHY    C1 3454  16.073  10.907   6.929
 3476ETHY    C1 3455  16.140  11.425   6.792
 3477ETHY    C1 3456  16.111  11.959   6.682
 3478AUSL   AUS 3457  15.639   9.801   7.663
 3479AUSL   AUS 3458  15.752   9.544   8.011
 3480AUL    AUL 3459  15.791   9.922   7.991
 3481THSLK    S 3460  15.925   9.661   8.184
 3482ETHY    C1 3461  16.198   9.802   8.522
 3483ETHY    C1 3462  16.479  10.051   8.915
 3484ETHY    C1 3463  16.695  10.384   9.279
 3485ETHY    C1 3464  16.847  10.789   9.614
 3486THSLK    S 3465  15.689  10.039   7.768
 3487ETHY    C1 3466  15.902  10.418   7.913
 3488ETHY    C1 3467  16.073  10.907   8.072
 3489ETHY    C1 3468  16.140  11.425   8.207
 3490ETHY    C1 3469  16.109  11.958   8.325
 3491AUSL   AUS 3470  15.487   8.547   7.909
 3492AUSL   AUS 3471  15.904   8.617   7.764
 3493AUL    AUL 3472  15.791   8.333   7.991
 3494THSLK    S 3473  15.446   8.290   7.992
 3495ETHY    C1 3474  15.319   7.881   8.152
 3496ETHY    C1 3475  15.245   7.400   8.391
 3497ETHY    C1 3476  15.264   6.948   8.684
 3498ETHY    C1 3477  15.366   6.530   9.021
 3499THSLK    S 3478  16.024   8.427   7.907
 3500ETHY    C1 3479  16.175   8.025   8.062
 3501ETHY    C1 3480  16.430   7.594   8.272
 3502ETHY    C1 3481  16.762   7.238   8.505
 3503ETHY    C1 3482  17.158   6.959   8.758
 3504AUSL   AUS 3483  15.336   8.454   7.663
 3505AUSL   AUS 3484  15.223   8.711   8.011
 3506AUL    AUL 3485  15.184   8.333   7.991
 3507THSLK    S 3486  15.285   8.209   7.744
 3508ETHY    C1 3487  15.072   7.810   7.812
 3509ETHY    C1 3488  14.901   7.307   7.925
 3510ETHY    C1 3489  14.835   6.793   8.072
 3511ETHY    C1 3490  14.864   6.278   8.252
 3512THSLK    S 3491  15.045   8.541   8.136
 3513ETHY    C1 3492  14.773   8.226   8.327
 3514ETHY    C1 3493  14.495   7.875   8.633
 3515ETHY    C1 3494  14.279   7.567   9.019
 3516ETHY    C1 3495  14.123   7.305   9.473
 3517AUSL   AUS 3496  15.639   8.454   7.663
 3518AUSL   AUS 3497  15.336   8.454   7.336
 3519AUL    AUL 3498  15.487   8.146   7.500
 3520THSLK    S 3499  15.286   8.207   7.261
 3521ETHY    C1 3500  15.073   7.809   7.192
 3522ETHY    C1 3501  14.901   7.307   7.076
 3523ETHY    C1 3502  14.835   6.793   6.927
 3524ETHY    C1 3503  14.866   6.276   6.754
 3525THSLK    S 3504  15.600   8.195   7.748
 3526ETHY    C1 3505  15.528   7.750   7.829
 3527ETHY    C1 3506  15.531   7.221   7.948
 3528ETHY    C1 3507  15.640   6.713   8.095
 3529ETHY    C1 3508  15.842   6.235   8.264
 3530AUSL   AUS 3509  15.487   9.708   7.091
 3531AUSL   AUS 3510  15.904   9.638   7.236
 3532AUL    AUL 3511  15.791   9.922   7.009
 3533THSLK    S 3512  15.529   9.942   6.971
 3534ETHY    C1 3513  15.656  10.267   6.676
 3535ETHY    C1 3514  15.730  10.697   6.353
 3536ETHY    C1 3515  15.711  11.162   6.080
 3537ETHY    C1 3516  15.608  11.650   5.857
 3538THSLK    S 3517  16.091   9.763   7.081
 3539ETHY    C1 3518  16.448   9.955   6.869
 3540ETHY    C1 3519  16.823  10.261   6.623
 3541ETHY    C1 3520  17.124  10.648   6.398
 3542ETHY    C1 3521  17.354  11.100   6.197
 3543AUSL   AUS 3522  15.336   9.801   7.336
 3544AUSL   AUS 3523  15.223   9.544   6.990
 3545AUL    AUL 3524  15.184   9.922   7.009
 3546THSLK    S 3525  15.375  10.055   7.233
 3547ETHY    C1 3526  15.447  10.478   7.074
 3548ETHY    C1 3527  15.444  10.994   6.906
 3549ETHY    C1 3528  15.335  11.504   6.770
 3550ETHY    C1 3529  15.133  12.002   6.670
 3551THSLK    S 3530  15.104   9.681   6.800
 3552ETHY    C1 3531  15.008   9.875   6.396
 3553ETHY    C1 3532  14.831  10.153   5.966
 3554ETHY    C1 3533  14.588  10.478   5.611
 3555ETHY    C1 3534  14.292  10.843   5.330
 3556AUSL   AUS 3535  15.487   8.547   7.091
 3557AUSL   AUS 3536  15.071   8.617   7.236
 3558AUL    AUL 3537  15.184   8.333   7.009
 3559THSLK    S 3538  14.886   8.464   7.122
 3560ETHY    C1 3539  14.529   8.190   7.044
 3561ETHY    C1 3540  14.152   7.836   6.878
 3562ETHY    C1 3541  13.850   7.462   6.633
 3563ETHY    C1 3542  13.623   7.075   6.321
 3564THSLK    S 3543  15.449   8.287   7.013
 3565ETHY    C1 3544  15.321   7.879   6.852
 3566ETHY    C1 3545  15.245   7.400   6.609
 3567ETHY    C1 3546  15.264   6.948   6.315
 3568ETHY    C1 3547  15.370   6.527   5.983
 3569AUSL   AUS 3548  15.639   8.454   7.336
 3570AUSL   AUS 3549  15.752   8.711   6.990
 3571AUL    AUL 3550  15.791   8.333   7.009
 3572THSLK    S 3551  15.602   8.194   7.258
 3573ETHY    C1 3552  15.529   7.749   7.175
 3574ETHY    C1 3553  15.531   7.221   7.052
 3575ETHY    C1 3554  15.639   6.713   6.905
 3576ETHY    C1 3555  15.844   6.234   6.742
 3577THSLK    S 3556  15.875   8.521   6.847
 3578ETHY    C1 3557  15.970   8.153   6.592
 3579ETHY    C1 3558  16.144   7.772   6.247
 3580ETHY    C1 3559  16.386   7.472   5.870
 3581ETHY    C1 3560  16.687   7.251   5.471
 3582AUC    AUC 3561  31.728  25.652   7.500
 3583AUC    AUC 3562  31.974  25.652   7.348
 3584AUC    AUC 3563  31.974  25.652   7.651
 3585AUC    AUC 3564  31.483  25.652   7.348
 3586AUC    AUC 3565  31.483  25.652   7.651
 3587AUC    AUC 3566  31.577  25.897   7.500
 3588AUC    AUC 3567  31.880  25.897   7.500
 3589AUC    AUC 3568  31.577  25.406   7.500
 3590AUC    AUC 3569  31.880  25.406   7.500
 3591AUC    AUC 3570  31.728  25.500   7.745
 3592AUC    AUC 3571  31.728  25.803   7.745
 3593AUC    AUC 3572  31.728  25.500   7.254
 3594AUC    AUC 3573  31.728  25.803   7.254
 3595AUC    AUC 3574  32.219  25.652   7.196
 3596AUC    AUC 3575  32.219  25.652   7.500
 3597AUC    AUC 3576  32.219  25.652   7.803
 3598AUC    AUC 3577  31.237  25.652   7.196
 3599AUC    AUC 3578  31.237  25.652   7.500
 3600AUC    AUC 3579  31.237  25.652   7.803
 3601AUC    AUC 3580  31.425  26.142   7.500
 3602AUC    AUC 3581  31.728  26.142   7.500
 3603AUC    AUC 3582  32.032  26.142   7.500
 3604AUC    AUC 3583  31.425  25.161   7.500
 3605AUC    AUC 3584  31.728  25.161   7.500
 3606AUC    AUC 3585  32.032  25.161   7.500
 3607AUC    AUC 3586  31.728  25.348   7.991
 3608AUC    AUC 3587  31.728  25.652   7.991
 3609AUC    AUC 3588  31.728  25.955   7.991
 3610AUC    AUC 3589  31.728  25.348   7.009
 3611AUC    AUC 3590  31.728  25.652   7.009
 3612AUC    AUC 3591  31.728  25.955   7.009
 3613AUC    AUC 3592  31.974  25.500   7.897
 3614AUC    AUC 3593  31.974  25.803   7.897
 3615AUC    AUC 3594  31.974  25.500   7.103
 3616AUC    AUC 3595  31.974  25.803   7.103
 3617AUC    AUC 3596  31.483  25.500   7.897
 3618AUC    AUC 3597  31.483  25.803   7.897
 3619AUC    AUC 3598  31.483  25.500   7.103
 3620AUC    AUC 3599  31.483  25.803   7.103
 3621AUC    AUC 3600  32.125  25.897   7.348
 3622AUC    AUC 3601  32.125  25.897   7.651
 3623AUC    AUC 3602  31.331  25.897   7.348
 3624AUC    AUC 3603  31.331  25.897   7.651
 3625AUC    AUC 3604  32.125  25.406   7.348
 3626AUC    AUC 3605  32.125  25.406   7.651
 3627AUC    AUC 3606  31.331  25.406   7.348
 3628AUC    AUC 3607  31.331  25.406   7.651
 3629AUC    AUC 3608  31.577  26.049   7.745
 3630AUC    AUC 3609  31.880  26.049   7.745
 3631AUC    AUC 3610  31.577  25.254   7.745
 3632AUC    AUC 3611  31.880  25.254   7.745
 3633AUC    AUC 3612  31.577  26.049   7.254
 3634AUC    AUC 3613  31.880  26.049   7.254
 3635AUC    AUC 3614  31.577  25.254   7.254
 3636AUC    AUC 3615  31.880  25.254   7.254
 3637AUSL   AUS 3616  32.137  25.652   8.080
 3638AUSL   AUS 3617  31.993  25.235   8.011
 3639AUL    AUL 3618  32.219  25.348   8.294
 3640THSLK    S 3619  32.111  25.047   8.156
 3641ETHY    C1 3620  32.207  24.679   8.412
 3642ETHY    C1 3621  32.385  24.296   8.753
 3643ETHY    C1 3622  32.627  23.996   9.130
 3644ETHY    C1 3623  32.923  23.777   9.534
 3645THSLK    S 3624  32.236  25.605   8.327
 3646ETHY    C1 3625  32.463  25.455   8.694
 3647ETHY    C1 3626  32.747  25.367   9.148
 3648ETHY    C1 3627  33.031  25.389   9.607
 3649ETHY    C1 3628  33.308  25.511  10.061
 3650AUSL   AUS 3629  31.892  25.500   8.173
 3651AUSL   AUS 3630  31.565  25.803   8.173
 3652AUL    AUL 3631  31.728  25.652   8.482
 3653THSLK    S 3632  31.973  25.449   8.418
 3654ETHY    C1 3633  32.063  25.231   8.810
 3655ETHY    C1 3634  32.191  25.057   9.308
 3656ETHY    C1 3635  32.337  24.992   9.823
 3657ETHY    C1 3636  32.494  25.026  10.346
 3658THSLK    S 3637  31.478  25.763   8.432
 3659ETHY    C1 3638  31.389  25.689   8.874
 3660ETHY    C1 3639  31.265  25.691   9.403
 3661ETHY    C1 3640  31.120  25.800   9.912
 3662ETHY    C1 3641  30.957  26.004  10.392
 3663AUSL   AUS 3642  31.892  25.803   8.173
 3664AUSL   AUS 3643  32.238  25.916   7.916
 3665AUL    AUL 3644  32.219  25.955   8.294
 3666THSLK    S 3645  31.979  25.855   8.416
 3667ETHY    C1 3646  32.067  26.072   8.809
 3668ETHY    C1 3647  32.192  26.245   9.308
 3669ETHY    C1 3648  32.337  26.311   9.823
 3670ETHY    C1 3649  32.500  26.278  10.345
 3671THSLK    S 3650  32.414  26.022   8.079
 3672ETHY    C1 3651  32.776  26.072   8.355
 3673ETHY    C1 3652  33.183  26.221   8.681
 3674ETHY    C1 3653  33.545  26.470   8.995
 3675ETHY    C1 3654  33.857  26.806   9.293
 3676AUSL   AUS 3655  32.137  25.652   6.920
 3677AUSL   AUS 3656  31.993  26.068   6.990
 3678AUL    AUL 3657  32.219  25.955   6.706
 3679THSLK    S 3658  32.241  25.605   6.676
 3680ETHY    C1 3659  32.468  25.455   6.308
 3681ETHY    C1 3660  32.747  25.367   5.851
 3682ETHY    C1 3661  33.031  25.389   5.393
 3683ETHY    C1 3662  33.313  25.511   4.941
 3684THSLK    S 3663  32.170  26.187   6.820
 3685ETHY    C1 3664  32.442  26.328   6.480
 3686ETHY    C1 3665  32.720  26.575   6.085
 3687ETHY    C1 3666  32.936  26.908   5.720
 3688ETHY    C1 3667  33.093  27.315   5.391
 3689AUSL   AUS 3668  31.892  25.500   6.826
 3690AUSL   AUS 3669  32.238  25.387   7.083
 3691AUL    AUL 3670  32.219  25.348   6.706
 3692THSLK    S 3671  32.378  25.196   6.939
 3693ETHY    C1 3672  32.611  24.879   6.707
 3694ETHY    C1 3673  32.941  24.572   6.403
 3695ETHY    C1 3674  33.321  24.363   6.083
 3696ETHY    C1 3675  33.742  24.246   5.754
 3697THSLK    S 3676  31.979  25.448   6.583
 3698ETHY    C1 3677  32.067  25.231   6.191
 3699ETHY    C1 3678  32.192  25.058   5.692
 3700ETHY    C1 3679  32.337  24.992   5.176
 3701ETHY    C1 3680  32.500  25.025   4.656
 3702AUSL   AUS 3681  31.892  25.803   6.826
 3703AUSL   AUS 3682  31.565  25.500   6.826
 3704AUL    AUL 3683  31.728  25.652   6.518
 3705THSLK    S 3684  31.469  25.448   6.586
 3706ETHY    C1 3685  31.330  25.233   6.206
 3707ETHY    C1 3686  31.173  25.062   5.717
 3708ETHY    C1 3687  31.034  24.996   5.199
 3709ETHY    C1 3688  30.918  25.027   4.666
 3710THSLK    S 3689  31.994  25.764   6.572
 3711ETHY    C1 3690  32.131  25.687   6.142
 3712ETHY    C1 3691  32.284  25.687   5.622
 3713ETHY    C1 3692  32.422  25.796   5.112
 3714ETHY    C1 3693  32.545  26.003   4.621
 3715AUSL   AUS 3694  31.319  25.652   8.080
 3716AUSL   AUS 3695  31.464  26.068   8.011
 3717AUL    AUL 3696  31.237  25.955   8.294
 3718THSLK    S 3697  31.215  25.605   8.325
 3719ETHY    C1 3698  30.989  25.455   8.691
 3720ETHY    C1 3699  30.709  25.367   9.148
 3721ETHY    C1 3700  30.426  25.389   9.607
 3722ETHY    C1 3701  30.143  25.511  10.058
 3723THSLK    S 3702  31.341  26.201   8.201
 3724ETHY    C1 3703  31.245  26.396   8.604
 3725ETHY    C1 3704  31.072  26.677   9.034
 3726ETHY    C1 3705  30.829  27.003   9.390
 3727ETHY    C1 3706  30.528  27.362   9.671
 3728AUSL   AUS 3707  31.565  25.500   8.173
 3729AUSL   AUS 3708  31.218  25.387   7.916
 3730AUL    AUL 3709  31.237  25.348   8.294
 3731THSLK    S 3710  31.039  25.221   8.032
 3732ETHY    C1 3711  30.678  24.974   8.166
 3733ETHY    C1 3712  30.273  24.708   8.410
 3734ETHY    C1 3713  29.912  24.488   8.745
 3735ETHY    C1 3714  29.596  24.315   9.156
 3736THSLK    S 3715  31.463  25.450   8.413
 3737ETHY    C1 3716  31.325  25.235   8.793
 3738ETHY    C1 3717  31.172  25.062   9.284
 3739ETHY    C1 3718  31.035  24.996   9.800
 3740ETHY    C1 3719  30.911  25.028  10.332
 3741AUSL   AUS 3720  31.319  25.652   6.920
 3742AUSL   AUS 3721  31.464  25.235   6.990
 3743AUL    AUL 3722  31.237  25.348   6.706
 3744THSLK    S 3723  31.220  25.605   6.673
 3745ETHY    C1 3724  30.993  25.455   6.305
 3746ETHY    C1 3725  30.710  25.367   5.851
 3747ETHY    C1 3726  30.426  25.389   5.393
 3748ETHY    C1 3727  30.149  25.511   4.938
 3749THSLK    S 3728  31.290  25.060   6.865
 3750ETHY    C1 3729  31.018  24.747   6.673
 3751ETHY    C1 3730  30.737  24.399   6.367
 3752ETHY    C1 3731  30.520  24.091   5.980
 3753ETHY    C1 3732  30.368  23.824   5.528
 3754AUSL   AUS 3733  31.565  25.803   6.826
 3755AUSL   AUS 3734  31.218  25.916   7.083
 3756AUL    AUL 3735  31.237  25.955   6.706
 3757THSLK    S 3736  31.082  26.047   6.893
 3758ETHY    C1 3737  30.848  26.168   6.518
 3759ETHY    C1 3738  30.516  26.356   6.132
 3760ETHY    C1 3739  30.136  26.595   5.833
 3761ETHY    C1 3740  29.719  26.875   5.618
 3762THSLK    S 3741  31.484  25.765   6.566
 3763ETHY    C1 3742  31.394  25.690   6.124
 3764ETHY    C1 3743  31.266  25.691   5.597
 3765ETHY    C1 3744  31.120  25.800   5.089
 3766ETHY    C1 3745  30.963  26.006   4.608
 3767AUSL   AUS 3746  32.308  26.061   7.500
 3768AUSL   AUS 3747  32.238  25.916   7.083
 3769AUL    AUL 3748  32.522  26.142   7.196
 3770THSLK    S 3749  32.418  26.023   6.925
 3771ETHY    C1 3750  32.779  26.073   6.648
 3772ETHY    C1 3751  33.183  26.221   6.319
 3773ETHY    C1 3752  33.545  26.470   6.005
 3774ETHY    C1 3753  33.861  26.807   5.713
 3775THSLK    S 3754  32.578  26.122   7.503
 3776ETHY    C1 3755  33.025  26.222   7.502
 3777ETHY    C1 3756  33.527  26.428   7.500
 3778ETHY    C1 3757  33.974  26.730   7.500
 3779ETHY    C1 3758  34.362  27.114   7.503
 3780AUSL   AUS 3759  32.402  25.815   7.348
 3781AUSL   AUS 3760  32.402  25.488   7.651
 3782AUL    AUL 3761  32.710  25.652   7.500
 3783THSLK    S 3762  32.664  25.862   7.345
 3784ETHY    C1 3763  33.114  25.831   7.270
 3785ETHY    C1 3764  33.646  25.886   7.179
 3786ETHY    C1 3765  34.153  26.049   7.091
 3787ETHY    C1 3766  34.628  26.307   7.011
 3788THSLK    S 3767  32.639  25.351   7.659
 3789ETHY    C1 3768  33.010  25.093   7.726
 3790ETHY    C1 3769  33.496  24.867   7.808
 3791ETHY    C1 3770  34.015  24.747   7.896
 3792ETHY    C1 3771  34.553  24.725   7.989
 3793AUSL   AUS 3772  32.402  25.815   7.651
 3794AUSL   AUS 3773  32.145  26.162   7.764
 3795AUL    AUL 3774  32.522  26.142   7.803
 3796THSLK    S 3775  32.330  26.286   7.924
 3797ETHY    C1 3776  32.687  26.478   8.136
 3798ETHY    C1 3777  33.064  26.785   8.377
 3799ETHY    C1 3778  33.365  27.172   8.602
 3800ETHY    C1 3779  33.592  27.623   8.809
 3801THSLK    S 3780  32.663  25.861   7.661
 3802ETHY    C1 3781  33.114  25.831   7.734
 3803ETHY    C1 3782  33.647  25.886   7.821
 3804ETHY    C1 3783  34.153  26.049   7.908
 3805ETHY    C1 3784  34.627  26.307   7.995
 3806AUSL   AUS 3785  31.148  26.061   7.500
 3807AUSL   AUS 3786  31.218  25.916   7.916
 3808AUL    AUL 3787  30.934  26.142   7.803
 3809THSLK    S 3788  31.078  26.042   8.107
 3810ETHY    C1 3789  30.845  26.163   8.482
 3811ETHY    C1 3790  30.516  26.356   8.868
 3812ETHY    C1 3791  30.136  26.595   9.166
 3813ETHY    C1 3792  29.715  26.870   9.381
 3814THSLK    S 3793  30.927  26.201   7.503
 3815ETHY    C1 3794  30.638  26.556   7.502
 3816ETHY    C1 3795  30.230  26.913   7.500
 3817ETHY    C1 3796  29.760  27.177   7.500
 3818ETHY    C1 3797  29.242  27.353   7.503
 3819AUSL   AUS 3798  31.055  25.815   7.348
 3820AUSL   AUS 3799  31.312  26.162   7.236
 3821AUL    AUL 3800  30.934  26.142   7.196
 3822THSLK    S 3801  30.818  25.929   7.303
 3823ETHY    C1 3802  30.446  26.103   7.101
 3824ETHY    C1 3803  29.960  26.279   6.936
 3825ETHY    C1 3804  29.442  26.411   6.868
 3826ETHY    C1 3805  28.904  26.503   6.890
 3827THSLK    S 3806  31.192  26.329   7.056
 3828ETHY    C1 3807  31.040  26.648   6.765
 3829ETHY    C1 3808  30.786  27.028   6.473
 3830ETHY    C1 3809  30.453  27.396   6.260
 3831ETHY    C1 3810  30.057  27.746   6.122
 3832AUSL   AUS 3811  31.055  25.815   7.651
 3833AUSL   AUS 3812  31.055  25.488   7.348
 3834AUL    AUL 3813  30.747  25.652   7.500
 3835THSLK    S 3814  30.793  25.413   7.384
 3836ETHY    C1 3815  30.343  25.362   7.446
 3837ETHY    C1 3816  29.810  25.259   7.434
 3838ETHY    C1 3817  29.303  25.109   7.327
 3839ETHY    C1 3818  28.830  24.916   7.135
 3840THSLK    S 3819  30.817  25.923   7.699
 3841ETHY    C1 3820  30.446  26.099   7.901
 3842ETHY    C1 3821  29.960  26.278   8.063
 3843ETHY    C1 3822  29.442  26.411   8.133
 3844ETHY    C1 3823  28.903  26.497   8.114
 3845AUSL   AUS 3824  32.308  25.242   7.500
 3846AUSL   AUS 3825  32.238  25.387   7.916
 3847AUL    AUL 3826  32.522  25.161   7.803
 3848THSLK    S 3827  32.529  25.102   7.503
 3849ETHY    C1 3828  32.818  24.747   7.502
 3850ETHY    C1 3829  33.227  24.390   7.500
 3851ETHY    C1 3830  33.697  24.126   7.500
 3852ETHY    C1 3831  34.214  23.950   7.503
 3853THSLK    S 3832  32.375  25.197   8.066
 3854ETHY    C1 3833  32.608  24.880   8.297
 3855ETHY    C1 3834  32.941  24.573   8.598
 3856ETHY    C1 3835  33.321  24.363   8.918
 3857ETHY    C1 3836  33.738  24.247   9.250
 3858AUSL   AUS 3837  32.402  25.488   7.348
 3859AUSL   AUS 3838  32.145  25.141   7.236
 3860AUL    AUL 3839  32.522  25.161   7.196
 3861THSLK    S 3840  32.640  25.351   7.346
 3862ETHY    C1 3841  33.011  25.093   7.279
 3863ETHY    C1 3842  33.496  24.867   7.192
 3864ETHY    C1 3843  34.015  24.747   7.103
 3865ETHY    C1 3844  34.554  24.725   7.018
 3866THSLK    S 3845  32.268  24.950   7.099
 3867ETHY    C1 3846  32.418  24.548   6.942
 3868ETHY    C1 3847  32.671  24.118   6.728
 3869ETHY    C1 3848  33.003  23.762   6.495
 3870ETHY    C1 3849  33.402  23.481   6.249
 3871AUSL   AUS 3850  31.148  25.242   7.500
 3872AUSL   AUS 3851  31.218  25.387   7.083
 3873AUL    AUL 3852  30.934  25.161   7.196
 3874THSLK    S 3853  31.043  25.216   6.966
 3875ETHY    C1 3854  30.681  24.970   6.833
 3876ETHY    C1 3855  30.273  24.707   6.589
 3877ETHY    C1 3856  29.912  24.488   6.255
 3878ETHY    C1 3857  29.600  24.310   5.843
 3879THSLK    S 3858  30.878  25.181   7.503
 3880ETHY    C1 3859  30.432  25.081   7.502
 3881ETHY    C1 3860  29.930  24.875   7.500
 3882ETHY    C1 3861  29.483  24.573   7.500
 3883ETHY    C1 3862  29.095  24.189   7.503
 3884AUSL   AUS 3863  31.055  25.488   7.651
 3885AUSL   AUS 3864  31.312  25.141   7.764
 3886AUL    AUL 3865  30.934  25.161   7.803
 3887THSLK    S 3866  31.124  24.993   7.881
 3888ETHY    C1 3867  30.768  24.717   7.958
 3889ETHY    C1 3868  30.393  24.360   8.122
 3890ETHY    C1 3869  30.092  23.986   8.367
 3891ETHY    C1 3870  29.861  23.604   8.682
 3892THSLK    S 3871  30.792  25.418   7.618
 3893ETHY    C1 3872  30.342  25.366   7.557
 3894ETHY    C1 3873  29.810  25.260   7.566
 3895ETHY    C1 3874  29.303  25.109   7.673
 3896ETHY    C1 3875  28.829  24.921   7.867
 3897AUSL   AUS 3876  31.728  26.232   7.909
 3898AUSL   AUS 3877  31.312  26.162   7.764
 3899AUL    AUL 3878  31.425  26.446   7.991
 3900THSLK    S 3879  31.189  26.324   7.948
 3901ETHY    C1 3880  31.038  26.644   8.237
 3902ETHY    C1 3881  30.785  27.027   8.527
 3903ETHY    C1 3882  30.453  27.395   8.740
 3904ETHY    C1 3883  30.054  27.741   8.881
 3905THSLK    S 3884  31.766  26.463   8.034
 3906ETHY    C1 3885  31.894  26.789   8.327
 3907ETHY    C1 3886  31.971  27.221   8.646
 3908ETHY    C1 3887  31.952  27.686   8.920
 3909ETHY    C1 3888  31.846  28.171   9.147
 3910AUSL   AUS 3889  31.577  26.325   7.663
 3911AUSL   AUS 3890  31.880  26.325   7.336
 3912AUL    AUL 3891  31.728  26.633   7.500
 3913THSLK    S 3892  31.614  26.577   7.772
 3914ETHY    C1 3893  31.687  27.001   7.929
 3915ETHY    C1 3894  31.684  27.517   8.095
 3916ETHY    C1 3895  31.576  28.028   8.229
 3917ETHY    C1 3896  31.372  28.524   8.336
 3918THSLK    S 3897  31.931  26.565   7.237
 3919ETHY    C1 3898  32.144  26.942   7.091
 3920ETHY    C1 3899  32.314  27.431   6.929
 3921ETHY    C1 3900  32.381  27.949   6.792
 3922ETHY    C1 3901  32.352  28.483   6.682
 3923AUSL   AUS 3902  31.880  26.325   7.663
 3924AUSL   AUS 3903  31.993  26.068   8.011
 3925AUL    AUL 3904  32.032  26.446   7.991
 3926THSLK    S 3905  32.166  26.185   8.184
 3927ETHY    C1 3906  32.439  26.326   8.522
 3928ETHY    C1 3907  32.720  26.575   8.915
 3929ETHY    C1 3908  32.936  26.908   9.279
 3930ETHY    C1 3909  33.088  27.313   9.614
 3931THSLK    S 3910  31.930  26.563   7.768
 3932ETHY    C1 3911  32.143  26.942   7.913
 3933ETHY    C1 3912  32.314  27.431   8.072
 3934ETHY    C1 3913  32.381  27.949   8.207
 3935ETHY    C1 3914  32.350  28.482   8.325
 3936AUSL   AUS 3915  31.728  25.071   7.909
 3937AUSL   AUS 3916  32.145  25.141   7.764
 3938AUL    AUL 3917  32.032  24.857   7.991
 3939THSLK    S 3918  31.687  24.814   7.992
 3940ETHY    C1 3919  31.560  24.405   8.152
 3941ETHY    C1 3920  31.486  23.924   8.391
 3942ETHY    C1 3921  31.505  23.472   8.684
 3943ETHY    C1 3922  31.607  23.054   9.021
 3944THSLK    S 3923  32.265  24.951   7.907
 3945ETHY    C1 3924  32.416  24.549   8.062
 3946ETHY    C1 3925  32.671  24.118   8.272
 3947ETHY    C1 3926  33.003  23.762   8.505
 3948ETHY    C1 3927  33.399  23.483   8.758
 3949AUSL   AUS 3928  31.577  24.978   7.663
 3950AUSL   AUS 3929  31.464  25.235   8.011
 3951AUL    AUL 3930  31.425  24.857   7.991
 3952THSLK    S 3931  31.526  24.733   7.744
 3953ETHY    C1 3932  31.313  24.334   7.812
 3954ETHY    C1 3933  31.142  23.831   7.925
 3955ETHY    C1 3934  31.076  23.317   8.072
 3956ETHY    C1 3935  31.105  22.802   8.252
 3957THSLK    S 3936  31.286  25.065   8.136
 3958ETHY    C1 3937  31.014  24.750   8.327
 3959ETHY    C1 3938  30.736  24.399   8.633
 3960ETHY    C1 3939  30.520  24.091   9.019
 3961ETHY    C1 3940  30.364  23.829   9.473
 3962AUSL   AUS 3941  31.880  24.978   7.663
 3963AUSL   AUS 3942  31.577  24.978   7.336
 3964AUL    AUL 3943  31.728  24.670   7.500
 3965THSLK    S 3944  31.527  24.731   7.261
 3966ETHY    C1 3945  31.314  24.333   7.192
 3967ETHY    C1 3946  31.142  23.831   7.076
 3968ETHY    C1 3947  31.076  23.317   6.927
 3969ETHY    C1 3948  31.107  22.800   6.754
 3970THSLK    S 3949  31.841  24.719   7.748
 3971ETHY    C1 3950  31.769  24.274   7.829
 3972ETHY    C1 3951  31.772  23.745   7.948
 3973ETHY    C1 3952  31.881  23.237   8.095
 3974ETHY    C1 3953  32.083  22.759   8.264
 3975AUSL   AUS 3954  31.728  26.232   7.091
 3976AUSL   AUS 3955  32.145  26.162   7.236
 3977AUL    AUL 3956  32.032  26.446   7.009
 3978THSLK    S 3957  31.770  26.466   6.971
 3979ETHY    C1 3958  31.897  26.791   6.676
 3980ETHY    C1 3959  31.971  27.221   6.353
 3981ETHY    C1 3960  31.952  27.686   6.080
 3982ETHY    C1 3961  31.849  28.174   5.857
 3983THSLK    S 3962  32.332  26.287   7.081
 3984ETHY    C1 3963  32.689  26.479   6.869
 3985ETHY    C1 3964  33.064  26.785   6.623
 3986ETHY    C1 3965  33.365  27.172   6.398
 3987ETHY    C1 3966  33.595  27.624   6.197
 3988AUSL   AUS 3967  31.577  26.325   7.336
 3989AUSL   AUS 3968  31.464  26.068   6.990
 3990AUL    AUL 3969  31.425  26.446   7.009
 3991THSLK    S 3970  31.616  26.579   7.233
 3992ETHY    C1 3971  31.688  27.002   7.074
 3993ETHY    C1 3972  31.685  27.518   6.906
 3994ETHY    C1 3973  31.576  28.028   6.770
 3995ETHY    C1 3974  31.374  28.526   6.670
 3996THSLK    S 3975  31.345  26.205   6.800
 3997ETHY    C1 3976  31.249  26.399   6.396
 3998ETHY    C1 3977  31.072  26.677   5.966
 3999ETHY    C1 3978  30.829  27.002   5.611
 4000ETHY    C1 3979  30.533  27.367   5.330
 4001AUSL   AUS 3980  31.728  25.071   7.091
 4002AUSL   AUS 3981  31.312  25.141   7.236
 4003AUL    AUL 3982  31.425  24.857   7.009
 4004THSLK    S 3983  31.127  24.988   7.122
 4005ETHY    C1 3984  30.770  24.714   7.044
 4006ETHY    C1 3985  30.393  24.360   6.878
 4007ETHY    C1 3986  30.091  23.986   6.633
 4008ETHY    C1 3987  29.864  23.599   6.321
 4009THSLK    S 3988  31.690  24.811   7.013
 4010ETHY    C1 3989  31.562  24.403   6.852
 4011ETHY    C1 3990  31.486  23.924   6.609
 4012ETHY    C1 3991  31.505  23.472   6.315
 4013ETHY    C1 3992  31.611  23.051   5.983
 4014AUSL   AUS 3993  31.880  24.978   7.336
 4015AUSL   AUS 3994  31.993  25.235   6.990
 4016AUL    AUL 3995  32.032  24.857   7.009
 4017THSLK    S 3996  31.843  24.718   7.258
 4018ETHY    C1 3997  31.770  24.273   7.175
 4019ETHY    C1 3998  31.772  23.745   7.052
 4020ETHY    C1 3999  31.880  23.237   6.905
 4021ETHY    C1 4000  32.085  22.758   6.742
 4022THSLK    S 4001  32.116  25.045   6.847
 4023ETHY    C1 4002  32.211  24.677   6.592
 4024ETHY    C1 4003  32.385  24.296   6.247
 4025ETHY    C1 4004  32.627  23.996   5.870
 4026ETHY    C1 4005  32.928  23.775   5.471
 4027AUC    AUC 4006  30.151  14.524   7.500
 4028AUC    AUC 4007  30.397  14.524   7.348
 4029AUC    AUC 4008  30.397  14.524   7.651
 4030AUC    AUC 4009  29.906  14.524   7.348
 4031AUC    AUC 4010  29.906  14.524   7.651
 4032AUC    AUC 4011  30.000  14.769   7.500
 4033AUC    AUC 4012  30.303  14.769   7.500
 4034AUC    AUC 4013  30.000  14.278   7.500
 4035AUC    AUC 4014  30.303  14.278   7.500
 4036AUC    AUC 4015  30.151  14.372   7.745
 4037AUC    AUC 4016  30.151  14.675   7.745
 4038AUC    AUC 4017  30.151  14.372   7.254
 4039AUC    AUC 4018  30.151  14.675   7.254
 4040AUC    AUC 4019  30.642  14.524   7.196
 4041AUC    AUC 4020  30.642  14.524   7.500
 4042AUC    AUC 4021  30.642  14.524   7.803
 4043AUC    AUC 4022  29.660  14.524   7.196
 4044AUC    AUC 4023  29.660  14.524   7.500
 4045AUC    AUC 4024  29.660  14.524   7.803
 4046AUC    AUC 4025  29.848  15.014   7.500
 4047AUC    AUC 4026  30.151  15.014   7.500
 4048AUC    AUC 4027  30.455  15.014   7.500
 4049AUC    AUC 4028  29.848  14.033   7.500
 4050AUC    AUC 4029  30.151  14.033   7.500
 4051AUC    AUC 4030  30.455  14.033   7.500
 4052AUC    AUC 4031  30.151  14.220   7.991
 4053AUC    AUC 4032  30.151  14.524   7.991
 4054AUC    AUC 4033  30.151  14.827   7.991
 4055AUC    AUC 4034  30.151  14.220   7.009
 4056AUC    AUC 4035  30.151  14.524   7.009
 4057AUC    AUC 4036  30.151  14.827   7.009
 4058AUC    AUC 4037  30.397  14.372   7.897
 4059AUC    AUC 4038  30.397  14.675   7.897
 4060AUC    AUC 4039  30.397  14.372   7.103
 4061AUC    AUC 4040  30.397  14.675   7.103
 4062AUC    AUC 4041  29.906  14.372   7.897
 4063AUC    AUC 4042  29.906  14.675   7.897
 4064AUC    AUC 4043  29.906  14.372   7.103
 4065AUC    AUC 4044  29.906  14.675   7.103
 4066AUC    AUC 4045  30.548  14.769   7.348
 4067AUC    AUC 4046  30.548  14.769   7.651
 4068AUC    AUC 4047  29.754  14.769   7.348
 4069AUC    AUC 4048  29.754  14.769   7.651
 4070AUC    AUC 4049  30.548  14.278   7.348
 4071AUC    AUC 4050  30.548  14.278   7.651
 4072AUC    AUC 4051  29.754  14.278   7.348
 4073AUC    AUC 4052  29.754  14.278   7.651
 4074AUC    AUC 4053  30.000  14.921   7.745
 4075AUC    AUC 4054  30.303  14.921   7.745
 4076AUC    AUC 4055  30.000  14.126   7.745
 4077AUC    AUC 4056  30.303  14.126   7.745
 4078AUC    AUC 4057  30.000  14.921   7.254
 4079AUC    AUC 4058  30.303  14.921   7.254
 4080AUC    AUC 4059  30.000  14.126   7.254
 4081AUC    AUC 4060  30.303  14.126   7.254
 4082AUSL   AUS 4061  30.560  14.524   8.080
 4083AUSL   AUS 4062  30.416  14.107   8.011
 4084AUL    AUL 4063  30.642  14.220   8.294
 4085THSLK    S 4064  30.534  13.919   8.156
 4086ETHY    C1 4065  30.630  13.551   8.412
 4087ETHY    C1 4066  30.808  13.168   8.753
 4088ETHY    C1 4067  31.050  12.868   9.130
 4089ETHY    C1 4068  31.346  12.649   9.534
 4090THSLK    S 4069  30.659  14.477   8.327
 4091ETHY    C1 4070  30.886  14.327   8.694
 4092ETHY    C1 4071  31.170  14.239   9.148
 4093ETHY    C1 4072  31.454  14.261   9.607
 4094ETHY    C1 4073  31.731  14.383  10.061
 4095AUSL   AUS 4074  30.315  14.372   8.173
 4096AUSL   AUS 4075  29.988  14.675   8.173
 4097AUL    AUL 4076  30.151  14.524   8.482
 4098THSLK    S 4077  30.396  14.321   8.418
 4099ETHY    C1 4078  30.486  14.103   8.810
 4100ETHY    C1 4079  30.614  13.929   9.308
 4101ETHY    C1 4080  30.760  13.864   9.823
 4102ETHY    C1 4081  30.917  13.898  10.346
 4103THSLK    S 4082  29.901  14.635   8.432
 4104ETHY    C1 4083  29.812  14.561   8.874
 4105ETHY    C1 4084  29.688  14.563   9.403
 4106ETHY    C1 4085  29.543  14.672   9.912
 4107ETHY    C1 4086  29.380  14.876  10.392
 4108AUSL   AUS 4087  30.315  14.675   8.173
 4109AUSL   AUS 4088  30.661  14.788   7.916
 4110AUL    AUL 4089  30.642  14.827   8.294
 4111THSLK    S 4090  30.402  14.727   8.416
 4112ETHY    C1 4091  30.490  14.944   8.809
 4113ETHY    C1 4092  30.615  15.117   9.308
 4114ETHY    C1 4093  30.760  15.183   9.823
 4115ETHY    C1 4094  30.923  15.150  10.345
 4116THSLK    S 4095  30.837  14.894   8.079
 4117ETHY    C1 4096  31.199  14.944   8.355
 4118ETHY    C1 4097  31.606  15.093   8.681
 4119ETHY    C1 4098  31.968  15.342   8.995
 4120ETHY    C1 4099  32.280  15.678   9.293
 4121AUSL   AUS 4100  30.560  14.524   6.920
 4122AUSL   AUS 4101  30.416  14.940   6.990
 4123AUL    AUL 4102  30.642  14.827   6.706
 4124THSLK    S 4103  30.664  14.477   6.676
 4125ETHY    C1 4104  30.891  14.327   6.308
 4126ETHY    C1 4105  31.170  14.239   5.851
 4127ETHY    C1 4106  31.454  14.261   5.393
 4128ETHY    C1 4107  31.736  14.383   4.941
 4129THSLK    S 4108  30.593  15.059   6.820
 4130ETHY    C1 4109  30.865  15.200   6.480
 4131ETHY    C1 4110  31.143  15.447   6.085
 4132ETHY    C1 4111  31.359  15.780   5.720
 4133ETHY    C1 4112  31.516  16.187   5.391
 4134AUSL   AUS 4113  30.315  14.372   6.826
 4135AUSL   AUS 4114  30.661  14.259   7.083
 4136AUL    AUL 4115  30.642  14.220   6.706
 4137THSLK    S 4116  30.801  14.068   6.939
 4138ETHY    C1 4117  31.034  13.751   6.707
 4139ETHY    C1 4118  31.364  13.444   6.403
 4140ETHY    C1 4119  31.744  13.235   6.083
 4141ETHY    C1 4120  32.165  13.118   5.754
 4142THSLK    S 4121  30.402  14.320   6.583
 4143ETHY    C1 4122  30.490  14.103   6.191
 4144ETHY    C1 4123  30.615  13.930   5.692
 4145ETHY    C1 4124  30.760  13.864   5.176
 4146ETHY    C1 4125  30.923  13.897   4.656
 4147AUSL   AUS 4126  30.315  14.675   6.826
 4148AUSL   AUS 4127  29.988  14.372   6.826
 4149AUL    AUL 4128  30.151  14.524   6.518
 4150THSLK    S 4129  29.892  14.320   6.586
 4151ETHY    C1 4130  29.753  14.105   6.206
 4152ETHY    C1 4131  29.596  13.934   5.717
 4153ETHY    C1 4132  29.457  13.868   5.199
 4154ETHY    C1 4133  29.341  13.899   4.666
 4155THSLK    S 4134  30.417  14.636   6.572
 4156ETHY    C1 4135  30.554  14.559   6.142
 4157ETHY    C1 4136  30.707  14.559   5.622
 4158ETHY    C1 4137  30.845  14.668   5.112
 4159ETHY    C1 4138  30.968  14.875   4.621
 4160AUSL   AUS 4139  29.742  14.524   8.080
 4161AUSL   AUS 4140  29.887  14.940   8.011
 4162AUL    AUL 4141  29.660  14.827   8.294
 4163THSLK    S 4142  29.638  14.477   8.325
 4164ETHY    C1 4143  29.412  14.327   8.691
 4165ETHY    C1 4144  29.132  14.239   9.148
 4166ETHY    C1 4145  28.849  14.261   9.607
 4167ETHY    C1 4146  28.566  14.383  10.058
 4168THSLK    S 4147  29.764  15.073   8.201
 4169ETHY    C1 4148  29.668  15.268   8.604
 4170ETHY    C1 4149  29.495  15.549   9.034
 4171ETHY    C1 4150  29.252  15.875   9.390
 4172ETHY    C1 4151  28.951  16.234   9.671
 4173AUSL   AUS 4152  29.988  14.372   8.173
 4174AUSL   AUS 4153  29.641  14.259   7.916
 4175AUL    AUL 4154  29.660  14.220   8.294
 4176THSLK    S 4155  29.462  14.093   8.032
 4177ETHY    C1 4156  29.101  13.846   8.166
 4178ETHY    C1 4157  28.696  13.580   8.410
 4179ETHY    C1 4158  28.335  13.360   8.745
 4180ETHY    C1 4159  28.019  13.187   9.156
 4181THSLK    S 4160  29.886  14.322   8.413
 4182ETHY    C1 4161  29.748  14.107   8.793
 4183ETHY    C1 4162  29.595  13.934   9.284
 4184ETHY    C1 4163  29.458  13.868   9.800
 4185ETHY    C1 4164  29.334  13.900  10.332
 4186AUSL   AUS 4165  29.742  14.524   6.920
 4187AUSL   AUS 4166  29.887  14.107   6.990
 4188AUL    AUL 4167  29.660  14.220   6.706
 4189THSLK    S 4168  29.643  14.477   6.673
 4190ETHY    C1 4169  29.416  14.327   6.305
 4191ETHY    C1 4170  29.133  14.239   5.851
 4192ETHY    C1 4171  28.849  14.261   5.393
 4193ETHY    C1 4172  28.572  14.383   4.938
 4194THSLK    S 4173  29.713  13.932   6.865
 4195ETHY    C1 4174  29.441  13.619   6.673
 4196ETHY    C1 4175  29.160  13.271   6.367
 4197ETHY    C1 4176  28.943  12.963   5.980
 4198ETHY    C1 4177  28.791  12.696   5.528
 4199AUSL   AUS 4178  29.988  14.675   6.826
 4200AUSL   AUS 4179  29.641  14.788   7.083
 4201AUL    AUL 4180  29.660  14.827   6.706
 4202THSLK    S 4181  29.505  14.919   6.893
 4203ETHY    C1 4182  29.271  15.040   6.518
 4204ETHY    C1 4183  28.939  15.228   6.132
 4205ETHY    C1 4184  28.559  15.467   5.833
 4206ETHY    C1 4185  28.142  15.747   5.618
 4207THSLK    S 4186  29.907  14.637   6.566
 4208ETHY    C1 4187  29.817  14.562   6.124
 4209ETHY    C1 4188  29.689  14.563   5.597
 4210ETHY    C1 4189  29.543  14.672   5.089
 4211ETHY    C1 4190  29.386  14.878   4.608
 4212AUSL   AUS 4191  30.731  14.933   7.500
 4213AUSL   AUS 4192  30.661  14.788   7.083
 4214AUL    AUL 4193  30.945  15.014   7.196
 4215THSLK    S 4194  30.841  14.895   6.925
 4216ETHY    C1 4195  31.202  14.945   6.648
 4217ETHY    C1 4196  31.606  15.093   6.319
 4218ETHY    C1 4197  31.968  15.342   6.005
 4219ETHY    C1 4198  32.284  15.679   5.713
 4220THSLK    S 4199  31.001  14.994   7.503
 4221ETHY    C1 4200  31.448  15.094   7.502
 4222ETHY    C1 4201  31.950  15.300   7.500
 4223ETHY    C1 4202  32.397  15.602   7.500
 4224ETHY    C1 4203  32.785  15.986   7.503
 4225AUSL   AUS 4204  30.825  14.687   7.348
 4226AUSL   AUS 4205  30.825  14.360   7.651
 4227AUL    AUL 4206  31.133  14.524   7.500
 4228THSLK    S 4207  31.087  14.734   7.345
 4229ETHY    C1 4208  31.537  14.703   7.270
 4230ETHY    C1 4209  32.069  14.758   7.179
 4231ETHY    C1 4210  32.576  14.921   7.091
 4232ETHY    C1 4211  33.051  15.179   7.011
 4233THSLK    S 4212  31.062  14.223   7.659
 4234ETHY    C1 4213  31.433  13.965   7.726
 4235ETHY    C1 4214  31.919  13.739   7.808
 4236ETHY    C1 4215  32.438  13.619   7.896
 4237ETHY    C1 4216  32.976  13.597   7.989
 4238AUSL   AUS 4217  30.825  14.687   7.651
 4239AUSL   AUS 4218  30.568  15.034   7.764
 4240AUL    AUL 4219  30.945  15.014   7.803
 4241THSLK    S 4220  30.753  15.158   7.924
 4242ETHY    C1 4221  31.110  15.350   8.136
 4243ETHY    C1 4222  31.487  15.657   8.377
 4244ETHY    C1 4223  31.788  16.044   8.602
 4245ETHY    C1 4224  32.015  16.495   8.809
 4246THSLK    S 4225  31.086  14.733   7.661
 4247ETHY    C1 4226  31.537  14.703   7.734
 4248ETHY    C1 4227  32.070  14.758   7.821
 4249ETHY    C1 4228  32.576  14.921   7.908
 4250ETHY    C1 4229  33.050  15.179   7.995
 4251AUSL   AUS 4230  29.571  14.933   7.500
 4252AUSL   AUS 4231  29.641  14.788   7.916
 4253AUL    AUL 4232  29.357  15.014   7.803
 4254THSLK    S 4233  29.501  14.914   8.107
 4255ETHY    C1 4234  29.268  15.035   8.482
 4256ETHY    C1 4235  28.939  15.228   8.868
 4257ETHY    C1 4236  28.559  15.467   9.166
 4258ETHY    C1 4237  28.138  15.742   9.381
 4259THSLK    S 4238  29.350  15.073   7.503
 4260ETHY    C1 4239  29.061  15.428   7.502
 4261ETHY    C1 4240  28.653  15.785   7.500
 4262ETHY    C1 4241  28.183  16.049   7.500
 4263ETHY    C1 4242  27.665  16.225   7.503
 4264AUSL   AUS 4243  29.478  14.687   7.348
 4265AUSL   AUS 4244  29.735  15.034   7.236
 4266AUL    AUL 4245  29.357  15.014   7.196
 4267THSLK    S 4246  29.241  14.801   7.303
 4268ETHY    C1 4247  28.869  14.975   7.101
 4269ETHY    C1 4248  28.383  15.151   6.936
 4270ETHY    C1 4249  27.865  15.283   6.868
 4271ETHY    C1 4250  27.327  15.375   6.890
 4272THSLK    S 4251  29.615  15.201   7.056
 4273ETHY    C1 4252  29.463  15.520   6.765
 4274ETHY    C1 4253  29.209  15.900   6.473
 4275ETHY    C1 4254  28.876  16.268   6.260
 4276ETHY    C1 4255  28.480  16.618   6.122
 4277AUSL   AUS 4256  29.478  14.687   7.651
 4278AUSL   AUS 4257  29.478  14.360   7.348
 4279AUL    AUL 4258  29.170  14.524   7.500
 4280THSLK    S 4259  29.216  14.285   7.384
 4281ETHY    C1 4260  28.766  14.234   7.446
 4282ETHY    C1 4261  28.233  14.131   7.434
 4283ETHY    C1 4262  27.726  13.981   7.327
 4284ETHY    C1 4263  27.253  13.788   7.135
 4285THSLK    S 4264  29.240  14.795   7.699
 4286ETHY    C1 4265  28.869  14.971   7.901
 4287ETHY    C1 4266  28.383  15.150   8.063
 4288ETHY    C1 4267  27.865  15.283   8.133
 4289ETHY    C1 4268  27.326  15.369   8.114
 4290AUSL   AUS 4269  30.731  14.114   7.500
 4291AUSL   AUS 4270  30.661  14.259   7.916
 4292AUL    AUL 4271  30.945  14.033   7.803
 4293THSLK    S 4272  30.952  13.974   7.503
 4294ETHY    C1 4273  31.241  13.619   7.502
 4295ETHY    C1 4274  31.650  13.262   7.500
 4296ETHY    C1 4275  32.120  12.998   7.500
 4297ETHY    C1 4276  32.637  12.822   7.503
 4298THSLK    S 4277  30.798  14.069   8.066
 4299ETHY    C1 4278  31.031  13.752   8.297
 4300ETHY    C1 4279  31.364  13.445   8.598
 4301ETHY    C1 4280  31.744  13.235   8.918
 4302ETHY    C1 4281  32.161  13.119   9.250
 4303AUSL   AUS 4282  30.825  14.360   7.348
 4304AUSL   AUS 4283  30.568  14.013   7.236
 4305AUL    AUL 4284  30.945  14.033   7.196
 4306THSLK    S 4285  31.063  14.223   7.346
 4307ETHY    C1 4286  31.434  13.965   7.279
 4308ETHY    C1 4287  31.919  13.739   7.192
 4309ETHY    C1 4288  32.438  13.619   7.103
 4310ETHY    C1 4289  32.977  13.597   7.018
 4311THSLK    S 4290  30.691  13.822   7.099
 4312ETHY    C1 4291  30.841  13.420   6.942
 4313ETHY    C1 4292  31.094  12.990   6.728
 4314ETHY    C1 4293  31.426  12.634   6.495
 4315ETHY    C1 4294  31.825  12.353   6.249
 4316AUSL   AUS 4295  29.571  14.114   7.500
 4317AUSL   AUS 4296  29.641  14.259   7.083
 4318AUL    AUL 4297  29.357  14.033   7.196
 4319THSLK    S 4298  29.466  14.088   6.966
 4320ETHY    C1 4299  29.104  13.842   6.833
 4321ETHY    C1 4300  28.696  13.579   6.589
 4322ETHY    C1 4301  28.335  13.360   6.255
 4323ETHY    C1 4302  28.023  13.182   5.843
 4324THSLK    S 4303  29.301  14.053   7.503
 4325ETHY    C1 4304  28.855  13.953   7.502
 4326ETHY    C1 4305  28.353  13.747   7.500
 4327ETHY    C1 4306  27.906  13.445   7.500
 4328ETHY    C1 4307  27.518  13.061   7.503
 4329AUSL   AUS 4308  29.478  14.360   7.651
 4330AUSL   AUS 4309  29.735  14.013   7.764
 4331AUL    AUL 4310  29.357  14.033   7.803
 4332THSLK    S 4311  29.547  13.865   7.881
 4333ETHY    C1 4312  29.191  13.589   7.958
 4334ETHY    C1 4313  28.816  13.232   8.122
 4335ETHY    C1 4314  28.515  12.858   8.367
 4336ETHY    C1 4315  28.284  12.476   8.682
 4337THSLK    S 4316  29.215  14.290   7.618
 4338ETHY    C1 4317  28.765  14.238   7.557
 4339ETHY    C1 4318  28.233  14.132   7.566
 4340ETHY    C1 4319  27.726  13.981   7.673
 4341ETHY    C1 4320  27.252  13.793   7.867
 4342AUSL   AUS 4321  30.151  15.104   7.909
 4343AUSL   AUS 4322  29.735  15.034   7.764
 4344AUL    AUL 4323  29.848  15.318   7.991
 4345THSLK    S 4324  29.612  15.196   7.948
 4346ETHY    C1 4325  29.461  15.516   8.237
 4347ETHY    C1 4326  29.208  15.899   8.527
 4348ETHY    C1 4327  28.876  16.267   8.740
 4349ETHY    C1 4328  28.477  16.613   8.881
 4350THSLK    S 4329  30.189  15.335   8.034
 4351ETHY    C1 4330  30.317  15.661   8.327
 4352ETHY    C1 4331  30.394  16.093   8.646
 4353ETHY    C1 4332  30.375  16.558   8.920
 4354ETHY    C1 4333  30.269  17.043   9.147
 4355AUSL   AUS 4334  30.000  15.197   7.663
 4356AUSL   AUS 4335  30.303  15.197   7.336
 4357AUL    AUL 4336  30.151  15.505   7.500
 4358THSLK    S 4337  30.037  15.449   7.772
 4359ETHY    C1 4338  30.110  15.873   7.929
 4360ETHY    C1 4339  30.107  16.389   8.095
 4361ETHY    C1 4340  29.999  16.900   8.229
 4362ETHY    C1 4341  29.795  17.396   8.336
 4363THSLK    S 4342  30.354  15.437   7.237
 4364ETHY    C1 4343  30.567  15.814   7.091
 4365ETHY    C1 4344  30.737  16.303   6.929
 4366ETHY    C1 4345  30.804  16.821   6.792
 4367ETHY    C1 4346  30.775  17.355   6.682
 4368AUSL   AUS 4347  30.303  15.197   7.663
 4369AUSL   AUS 4348  30.416  14.940   8.011
 4370AUL    AUL 4349  30.455  15.318   7.991
 4371THSLK    S 4350  30.589  15.057   8.184
 4372ETHY    C1 4351  30.862  15.198   8.522
 4373ETHY    C1 4352  31.143  15.447   8.915
 4374ETHY    C1 4353  31.359  15.780   9.279
 4375ETHY    C1 4354  31.511  16.185   9.614
 4376THSLK    S 4355  30.353  15.435   7.768
 4377ETHY    C1 4356  30.566  15.814   7.913
 4378ETHY    C1 4357  30.737  16.303   8.072
 4379ETHY    C1 4358  30.804  16.821   8.207
 4380ETHY    C1 4359  30.773  17.354   8.325
 4381AUSL   AUS 4360  30.151  13.943   7.909
 4382AUSL   AUS 4361  30.568  14.013   7.764
 4383AUL    AUL 4362  30.455  13.729   7.991
 4384THSLK    S 4363  30.110  13.686   7.992
 4385ETHY    C1 4364  29.983  13.277   8.152
 4386ETHY    C1 4365  29.909  12.796   8.391
 4387ETHY    C1 4366  29.928  12.344   8.684
 4388ETHY    C1 4367  30.030  11.926   9.021
 4389THSLK    S 4368  30.688  13.823   7.907
 4390ETHY    C1 4369  30.839  13.421   8.062
 4391ETHY    C1 4370  31.094  12.990   8.272
 4392ETHY    C1 4371  31.426  12.634   8.505
 4393ETHY    C1 4372  31.822  12.355   8.758
 4394AUSL   AUS 4373  30.000  13.850   7.663
 4395AUSL   AUS 4374  29.887  14.107   8.011
 4396AUL    AUL 4375  29.848  13.729   7.991
 4397THSLK    S 4376  29.949  13.605   7.744
 4398ETHY    C1 4377  29.736  13.206   7.812
 4399ETHY    C1 4378  29.565  12.703   7.925
 4400ETHY    C1 4379  29.499  12.189   8.072
 4401ETHY    C1 4380  29.528  11.674   8.252
 4402THSLK    S 4381  29.709  13.937   8.136
 4403ETHY    C1 4382  29.437  13.622   8.327
 4404ETHY    C1 4383  29.159  13.271   8.633
 4405ETHY    C1 4384  28.943  12.963   9.019
 4406ETHY    C1 4385  28.787  12.701   9.473
 4407AUSL   AUS 4386  30.303  13.850   7.663
 4408AUSL   AUS 4387  30.000  13.850   7.336
 4409AUL    AUL 4388  30.151  13.542   7.500
 4410THSLK    S 4389  29.950  13.603   7.261
 4411ETHY    C1 4390  29.737  13.205   7.192
 4412ETHY    C1 4391  29.565  12.703   7.076
 4413ETHY    C1 4392  29.499  12.189   6.927
 4414ETHY    C1 4393  29.530  11.672   6.754
 4415THSLK    S 4394  30.264  13.591   7.748
 4416ETHY    C1 4395  30.192  13.146   7.829
 4417ETHY    C1 4396  30.195  12.617   7.948
 4418ETHY    C1 4397  30.304  12.109   8.095
 4419ETHY    C1 4398  30.506  11.631   8.264
 4420AUSL   AUS 4399  30.151  15.104   7.091
 4421AUSL   AUS 4400  30.568  15.034   7.236
 4422AUL    AUL 4401  30.455  15.318   7.009
 4423THSLK    S 4402  30.193  15.338   6.971
 4424ETHY    C1 4403  30.320  15.663   6.676
 4425ETHY    C1 4404  30.394  16.093   6.353
 4426ETHY    C1 4405  30.375  16.558   6.080
 4427ETHY    C1 4406  30.272  17.046   5.857
 4428THSLK    S 4407  30.755  15.159   7.081
 4429ETHY    C1 4408  31.112  15.351   6.869
 4430ETHY    C1 4409  31.487  15.657   6.623
 4431ETHY    C1 4410  31.788  16.044   6.398
 4432ETHY    C1 4411  32.018  16.496   6.197
 4433AUSL   AUS 4412  30.000  15.197   7.336
 4434AUSL   AUS 4413  29.887  14.940   6.990
 4435AUL    AUL 4414  29.848  15.318   7.009
 4436THSLK    S 4415  30.039  15.451   7.233
 4437ETHY    C1 4416  30.111  15.874   7.074
 4438ETHY    C1 4417  30.108  16.390   6.906
 4439ETHY    C1 4418  29.999  16.900   6.770
 4440ETHY    C1 4419  29.797  17.398   6.670
 4441THSLK    S 4420  29.768  15.077   6.800
 4442ETHY    C1 4421  29.672  15.271   6.396
 4443ETHY    C1 4422  29.495  15.549   5.966
 4444ETHY    C1 4423  29.252  15.874   5.611
 4445ETHY    C1 4424  28.956  16.239   5.330
 4446AUSL   AUS 4425  30.151  13.943   7.091
 4447AUSL   AUS 4426  29.735  14.013   7.236
 4448AUL    AUL 4427  29.848  13.729   7.009
 4449THSLK    S 4428  29.550  13.860   7.122
 4450ETHY    C1 4429  29.193  13.586   7.044
 4451ETHY    C1 4430  28.816  13.232   6.878
 4452ETHY    C1 4431  28.514  12.858   6.633
 4453ETHY    C1 4432  28.287  12.471   6.321
 4454THSLK    S 4433  30.113  13.683   7.013
 4455ETHY    C1 4434  29.985  13.275   6.852
 4456ETHY    C1 4435  29.909  12.796   6.609
 4457ETHY    C1 4436  29.928  12.344   6.315
 4458ETHY    C1 4437  30.034  11.923   5.983
 4459AUSL   AUS 4438  30.303  13.850   7.336
 4460AUSL   AUS 4439  30.416  14.107   6.990
 4461AUL    AUL 4440  30.455  13.729   7.009
 4462THSLK    S 4441  30.266  13.590   7.258
 4463ETHY    C1 4442  30.193  13.145   7.175
 4464ETHY    C1 4443  30.195  12.617   7.052
 4465ETHY    C1 4444  30.303  12.109   6.905
 4466ETHY    C1 4445  30.508  11.630   6.742
 4467THSLK    S 4446  30.539  13.917   6.847
 4468ETHY    C1 4447  30.634  13.549   6.592
 4469ETHY    C1 4448  30.808  13.168   6.247
 4470ETHY    C1 4449  31.050  12.868   5.870
 4471ETHY    C1 4450  31.351  12.647   5.471
 4472POPC   NC3 4451  11.289  10.537   9.450
 4472POPC   PO4 4452  11.277  10.569   9.150
 4472POPC   GL1 4453  11.294  10.509   8.850
 4472POPC   GL2 4454  11.323  10.680   8.850
 4472POPC   C1A 4455  11.337  10.529   8.550
 4472POPC   D2A 4456  11.252  10.549   8.250
 4472POPC   C3A 4457  11.284  10.499   7.950
 4472POPC   C4A 4458  11.342  10.572   7.650
 4472POPC   C1B 4459  11.323  10.806   8.550
 4472POPC   C2B 4460  11.279  10.745   8.250
 4472POPC   C3B 4461  11.342  10.743   7.950
 4472POPC   C4B 4462  11.306  10.726   7.650
 4473POPC   NC3 4463  12.026   9.752   9.450
 4473POPC   PO4 4464  12.066   9.762   9.150
 4473POPC   GL1 4465  12.125   9.771   8.850
 4473POPC   GL2 4466  12.000   9.788   8.850
 4473POPC   C1A 4467  12.065   9.740   8.550
 4473POPC   D2A 4468  12.049   9.717   8.250
 4473POPC   C3A 4469  12.047   9.720   7.950
 4473POPC   C4A 4470  12.056   9.699   7.650
 4473POPC   C1B 4471  11.793   9.768   8.550
 4473POPC   C2B 4472  11.849   9.788   8.250
 4473POPC   C3B 4473  11.801   9.777   7.950
 4473POPC   C4B 4474  11.786   9.740   7.650
 4474POPC   NC3 4475  32.269  35.339   9.450
 4474POPC   PO4 4476  32.218  35.385   9.150
 4474POPC   GL1 4477  32.281  35.364   8.850
 4474POPC   GL2 4478  32.347  35.344   8.850
 4474POPC   C1A 4479  32.298  35.314   8.550
 4474POPC   D2A 4480  32.233  35.376   8.250
 4474POPC   C3A 4481  32.209  35.397   7.950
 4474POPC   C4A 4482  32.232  35.304   7.650
 4474POPC   C1B 4483  32.473  35.469   8.550
 4474POPC   C2B 4484  32.534  35.380   8.250
 4474POPC   C3B 4485  32.486  35.426   7.950
 4474POPC   C4B 4486  32.444  35.419   7.650
 4475POPC   NC3 4487  24.506  28.336   9.450
 4475POPC   PO4 4488  24.463  28.396   9.150
 4475POPC   GL1 4489  24.526  28.354   8.850
 4475POPC   GL2 4490  24.605  28.410   8.850
 4475POPC   C1A 4491  24.480  28.417   8.550
 4475POPC   D2A 4492  24.472  28.401   8.250
 4475POPC   C3A 4493  24.500  28.329   7.950
 4475POPC   C4A 4494  24.482  28.344   7.650
 4475POPC   C1B 4495  24.761  28.485   8.550
 4475POPC   C2B 4496  24.744  28.516   8.250
 4475POPC   C3B 4497  24.724  28.466   7.950
 4475POPC   C4B 4498  24.755  28.506   7.650
 4476POPC   NC3 4499   2.723  31.425   9.450
 4476POPC   PO4 4500   2.753  31.461   9.150
 4476POPC   GL1 4501   2.778  31.441   8.850
 4476POPC   GL2 4502   2.785  31.626   8.850
 4476POPC   C1A 4503   2.781  31.437   8.550
 4476POPC   D2A 4504   2.717  31.482   8.250
 4476POPC   C3A 4505   2.780  31.521   7.950
 4476POPC   C4A 4506   2.725  31.425   7.650
 4476POPC   C1B 4507   2.842  31.710   8.550
 4476POPC   C2B 4508   2.810  31.737   8.250
 4476POPC   C3B 4509   2.859  31.722   7.950
 4476POPC   C4B 4510   2.891  31.714   7.650
 4477POPC   NC3 4511   5.140  31.517   9.450
 4477POPC   PO4 4512   5.105  31.512   9.150
 4477POPC   GL1 4513   5.098  31.438   8.850
 4477POPC   GL2 4514   4.990  31.385   8.850
 4477POPC   C1A 4515   5.057  31.501   8.550
 4477POPC   D2A 4516   5.142  31.493   8.250
 4477POPC   C3A 4517   5.102  31.477   7.950
 4477POPC   C4A 4518   5.071  31.442   7.650
 4477POPC   C1B 4519   4.848  31.376   8.550
 4477POPC   C2B 4520   4.854  31.398   8.250
 4477POPC   C3B 4521   4.871  31.411   7.950
 4477POPC   C4B 4522   4.835  31.314   7.650
 4478POPC   NC3 4523  38.499  37.639   9.450
 4478POPC   PO4 4524  38.413  37.726   9.150
 4478POPC   GL1 4525  38.435  37.680   8.850
 4478POPC   GL2 4526  38.310  37.641   8.850
 4478POPC   C1A 4527  38.487  37.726   8.550
 4478POPC   D2A 4528  38.505  37.695   8.250
 4478POPC   C3A 4529  38.468  37.652   7.950
 4478POPC   C4A 4530  38.501  37.710   7.650
 4478POPC   C1B 4531  38.228  37.678   8.550
 4478POPC   C2B 4532  38.242  37.625   8.250
 4478POPC   C3B 4533  38.251  37.647   7.950
 4478POPC   C4B 4534  38.254  37.667   7.650
 4479POPC   NC3 4535   8.238   7.439   9.450
 4479POPC   PO4 4536   8.239   7.393   9.150
 4479POPC   GL1 4537   8.211   7.375   8.850
 4479POPC   GL2 4538   8.360   7.453   8.850
 4479POPC   C1A 4539   8.239   7.440   8.550
 4479POPC   D2A 4540   8.191   7.389   8.250
 4479POPC   C3A 4541   8.216   7.374   7.950
 4479POPC   C4A 4542   8.222   7.394   7.650
 4479POPC   C1B 4543   8.437   7.425   8.550
 4479POPC   C2B 4544   8.481   7.409   8.250
 4479POPC   C3B 4545   8.464   7.462   7.950
 4479POPC   C4B 4546   8.448   7.461   7.650
 4480POPC   NC3 4547  32.265  29.098   9.450
 4480POPC   PO4 4548  32.202  29.097   9.150
 4480POPC   GL1 4549  32.282  29.114   8.850
 4480POPC   GL2 4550  32.378  29.106   8.850
 4480POPC   C1A 4551  32.256  29.176   8.550
 4480POPC   D2A 4552  32.260  29.148   8.250
 4480POPC   C3A 4553  32.285  29.106   7.950
 4480POPC   C4A 4554  32.261  29.187   7.650
 4480POPC   C1B 4555  32.508  29.054   8.550
 4480POPC   C2B 4556  32.497  29.068   8.250
 4480POPC   C3B 4557  32.504  29.107   7.950
 4480POPC   C4B 4558  32.465  29.046   7.650
 4481POPC   NC3 4559  20.583  25.303   9.450
 4481POPC   PO4 4560  20.605  25.224   9.150
 4481POPC   GL1 4561  20.581  25.264   8.850
 4481POPC   GL2 4562  20.637  25.374   8.850
 4481POPC   C1A 4563  20.635  25.311   8.550
 4481POPC   D2A 4564  20.610  25.230   8.250
 4481POPC   C3A 4565  20.639  25.291   7.950
 4481POPC   C4A 4566  20.621  25.230   7.650
 4481POPC   C1B 4567  20.629  25.525   8.550
 4481POPC   C2B 4568  20.566  25.503   8.250
 4481POPC   C3B 4569  20.588  25.564   7.950
 4481POPC   C4B 4570  20.604  25.492   7.650
 4482POPC   NC3 4571  42.349  23.694   9.450
 4482POPC   PO4 4572  42.286  23.756   9.150
 4482POPC   GL1 4573  42.301  23.686   8.850
 4482POPC   GL2 4574  42.279  23.564   8.850
 4482POPC   C1A 4575  42.340  23.742   8.550
 4482POPC   D2A 4576  42.375  23.683   8.250
 4482POPC   C3A 4577  42.305  23.714   7.950
 4482POPC   C4A 4578  42.358  23.703   7.650
 4482POPC   C1B 4579  42.291  23.475   8.550
 4482POPC   C2B 4580  42.274  23.479   8.250
 4482POPC   C3B 4581  42.351  23.422   7.950
 4482POPC   C4B 4582  42.335  23.444   7.650
 4483POPC   NC3 4583  22.968  29.106   9.450
 4483POPC   PO4 4584  22.938  29.166   9.150
 4483POPC   GL1 4585  22.964  29.182   8.850
 4483POPC   GL2 4586  22.807  29.041   8.850
 4483POPC   C1A 4587  22.928  29.117   8.550
 4483POPC   D2A 4588  22.915  29.154   8.250
 4483POPC   C3A 4589  22.942  29.146   7.950
 4483POPC   C4A 4590  22.958  29.164   7.650
 4483POPC   C1B 4591  22.763  29.051   8.550
 4483POPC   C2B 4592  22.729  28.993   8.250
 4483POPC   C3B 4593  22.707  28.999   7.950
 4483POPC   C4B 4594  22.756  28.995   7.650
 4484POPC   NC3 4595   2.735  30.719   9.450
 4484POPC   PO4 4596   2.761  30.723   9.150
 4484POPC   GL1 4597   2.779  30.661   8.850
 4484POPC   GL2 4598   2.752  30.622   8.850
 4484POPC   C1A 4599   2.716  30.745   8.550
 4484POPC   D2A 4600   2.812  30.679   8.250
 4484POPC   C3A 4601   2.720  30.721   7.950
 4484POPC   C4A 4602   2.773  30.693   7.650
 4484POPC   C1B 4603   2.789  30.446   8.550
 4484POPC   C2B 4604   2.796  30.499   8.250
 4484POPC   C3B 4605   2.834  30.424   7.950
 4484POPC   C4B 4606   2.793  30.492   7.650
 4485POPC   NC3 4607  38.501  23.682   9.450
 4485POPC   PO4 4608  38.450  23.684   9.150
 4485POPC   GL1 4609  38.498  23.747   8.850
 4485POPC   GL2 4610  38.373  23.785   8.850
 4485POPC   C1A 4611  38.498  23.742   8.550
 4485POPC   D2A 4612  38.480  23.679   8.250
 4485POPC   C3A 4613  38.465  23.713   7.950
 4485POPC   C4A 4614  38.494  23.736   7.650
 4485POPC   C1B 4615  38.247  23.923   8.550
 4485POPC   C2B 4616  38.280  23.853   8.250
 4485POPC   C3B 4617  38.225  23.839   7.950
 4485POPC   C4B 4618  38.226  23.837   7.650
 4486POPC   NC3 4619  43.910  13.661   9.450
 4486POPC   PO4 4620  43.867  13.599   9.150
 4486POPC   GL1 4621  43.875  13.640   8.850
 4486POPC   GL2 4622  43.756  13.696   8.850
 4486POPC   C1A 4623  43.861  13.644   8.550
 4486POPC   D2A 4624  43.871  13.578   8.250
 4486POPC   C3A 4625  43.894  13.581   7.950
 4486POPC   C4A 4626  43.858  13.606   7.650
 4486POPC   C1B 4627  43.729  13.791   8.550
 4486POPC   C2B 4628  43.671  13.742   8.250
 4486POPC   C3B 4629  43.643  13.744   7.950
 4486POPC   C4B 4630  43.738  13.744   7.650
 4487POPC   NC3 4631  23.679  27.552   9.450
 4487POPC   PO4 4632  23.665  27.591   9.150
 4487POPC   GL1 4633  23.741  27.609   8.850
 4487POPC   GL2 4634  23.706  27.696   8.850
 4487POPC   C1A 4635  23.751  27.611   8.550
 4487POPC   D2A 4636  23.685  27.610   8.250
 4487POPC   C3A 4637  23.729  27.602   7.950
 4487POPC   C4A 4638  23.673  27.632   7.650
 4487POPC   C1B 4639  23.796  27.826   8.550
 4487POPC   C2B 4640  23.778  27.861   8.250
 4487POPC   C3B 4641  23.742  27.868   7.950
 4487POPC   C4B 4642  23.798  27.825   7.650
 4488POPC   NC3 4643  15.185  36.135   9.450
 4488POPC   PO4 4644  15.195  36.176   9.150
 4488POPC   GL1 4645  15.226  36.158   8.850
 4488POPC   GL2 4646  15.015  36.052   8.850
 4488POPC   C1A 4647  15.197  36.087   8.550
 4488POPC   D2A 4648  15.168  36.105   8.250
 4488POPC   C3A 4649  15.202  36.084   7.950
 4488POPC   C4A 4650  15.182  36.119   7.650
 4488POPC   C1B 4651  14.957  36.101   8.550
 4488POPC   C2B 4652  14.964  36.049   8.250
 4488POPC   C3B 4653  14.916  36.058   7.950
 4488POPC   C4B 4654  14.950  36.118   7.650
 4489POPC   NC3 4655   4.270  27.567   9.450
 4489POPC   PO4 4656   4.360  27.573   9.150
 4489POPC   GL1 4657   4.282  27.620   8.850
 4489POPC   GL2 4658   4.401  27.479   8.850
 4489POPC   C1A 4659   4.326  27.567   8.550
 4489POPC   D2A 4660   4.285  27.546   8.250
 4489POPC   C3A 4661   4.356  27.570   7.950
 4489POPC   C4A 4662   4.333  27.564   7.650
 4489POPC   C1B 4663   4.510  27.369   8.550
 4489POPC   C2B 4664   4.437  27.415   8.250
 4489POPC   C3B 4665   4.472  27.439   7.950
 4489POPC   C4B 4666   4.483  27.436   7.650
 4490POPC   NC3 4667  41.588  27.609   9.450
 4490POPC   PO4 4668  41.510  27.557   9.150
 4490POPC   GL1 4669  41.530  27.643   8.850
 4490POPC   GL2 4670  41.591  27.464   8.850
 4490POPC   C1A 4671  41.587  27.562   8.550
 4490POPC   D2A 4672  41.593  27.607   8.250
 4490POPC   C3A 4673  41.556  27.603   7.950
 4490POPC   C4A 4674  41.541  27.575   7.650
 4490POPC   C1B 4675  41.556  27.313   8.550
 4490POPC   C2B 4676  41.568  27.349   8.250
 4490POPC   C3B 4677  41.522  27.338   7.950
 4490POPC   C4B 4678  41.529  27.390   7.650
 4491POPC   NC3 4679  25.244   7.438   9.450
 4491POPC   PO4 4680  25.217   7.416   9.150
 4491POPC   GL1 4681  25.218   7.389   8.850
 4491POPC   GL2 4682  25.265   7.537   8.850
 4491POPC   C1A 4683  25.275   7.398   8.550
 4491POPC   D2A 4684  25.291   7.404   8.250
 4491POPC   C3A 4685  25.268   7.403   7.950
 4491POPC   C4A 4686  25.267   7.453   7.650
 4491POPC   C1B 4687  25.327   7.635   8.550
 4491POPC   C2B 4688  25.294   7.610   8.250
 4491POPC   C3B 4689  25.331   7.707   7.950
 4491POPC   C4B 4690  25.360   7.676   7.650
 4492POPC   NC3 4691   4.318  13.583   9.450
 4492POPC   PO4 4692   4.338  13.648   9.150
 4492POPC   GL1 4693   4.314  13.673   8.850
 4492POPC   GL2 4694   4.421  13.739   8.850
 4492POPC   C1A 4695   4.283  13.584   8.550
 4492POPC   D2A 4696   4.320  13.673   8.250
 4492POPC   C3A 4697   4.292  13.663   7.950
 4492POPC   C4A 4698   4.290  13.645   7.650
 4492POPC   C1B 4699   4.508  13.828   8.550
 4492POPC   C2B 4700   4.497  13.834   8.250
 4492POPC   C3B 4701   4.439  13.860   7.950
 4492POPC   C4B 4702   4.529  13.794   7.650
 4493POPC   NC3 4703  13.662  22.203   9.450
 4493POPC   PO4 4704  13.642  22.137   9.150
 4493POPC   GL1 4705  13.638  22.125   8.850
 4493POPC   GL2 4706  13.515  22.131   8.850
 4493POPC   C1A 4707  13.644  22.202   8.550
 4493POPC   D2A 4708  13.581  22.167   8.250
 4493POPC   C3A 4709  13.587  22.175   7.950
 4493POPC   C4A 4710  13.677  22.121   7.650
 4493POPC   C1B 4711  13.398  22.095   8.550
 4493POPC   C2B 4712  13.384  22.113   8.250
 4493POPC   C3B 4713  13.406  22.078   7.950
 4493POPC   C4B 4714  13.367  22.107   7.650
 4494POPC   NC3 4715   9.740  43.847   9.450
 4494POPC   PO4 4716   9.768  43.935   9.150
 4494POPC   GL1 4717   9.753  43.886   8.850
 4494POPC   GL2 4718   9.811  43.841   8.850
 4494POPC   C1A 4719   9.744  43.868   8.550
 4494POPC   D2A 4720   9.715  43.930   8.250
 4494POPC   C3A 4721   9.750  43.922   7.950
 4494POPC   C4A 4722   9.733  43.880   7.650
 4494POPC   C1B 4723   9.970  43.720   8.550
 4494POPC   C2B 4724   9.934  43.730   8.250
 4494POPC   C3B 4725  10.016  43.750   7.950
 4494POPC   C4B 4726   9.984  43.804   7.650
 4495POPC   NC3 4727  33.799   1.235   9.450
 4495POPC   PO4 4728  33.829   1.240   9.150
 4495POPC   GL1 4729  33.811   1.241   8.850
 4495POPC   GL2 4730  33.829   1.051   8.850
 4495POPC   C1A 4731  33.810   1.165   8.550
 4495POPC   D2A 4732  33.786   1.260   8.250
 4495POPC   C3A 4733  33.832   1.262   7.950
 4495POPC   C4A 4734  33.825   1.219   7.650
 4495POPC   C1B 4735  33.790   0.918   8.550
 4495POPC   C2B 4736  33.757   0.938   8.250
 4495POPC   C3B 4737  33.800   0.996   7.950
 4495POPC   C4B 4738  33.767   1.005   7.650
 4496POPC   NC3 4739  12.050   7.376   9.450
 4496POPC   PO4 4740  12.111   7.468   9.150
 4496POPC   GL1 4741  12.095   7.467   8.850
 4496POPC   GL2 4742  12.170   7.421   8.850
 4496POPC   C1A 4743  12.072   7.430   8.550
 4496POPC   D2A 4744  12.080   7.398   8.250
 4496POPC   C3A 4745  12.066   7.416   7.950
 4496POPC   C4A 4746  12.084   7.451   7.650
 4496POPC   C1B 4747  12.356   7.327   8.550
 4496POPC   C2B 4748  12.283   7.404   8.250
 4496POPC   C3B 4749  12.362   7.394   7.950
 4496POPC   C4B 4750  12.345   7.322   7.650
 4497POPC   NC3 4751   7.408  15.218   9.450
 4497POPC   PO4 4752   7.459  15.199   9.150
 4497POPC   GL1 4753   7.464  15.190   8.850
 4497POPC   GL2 4754   7.351  15.105   8.850
 4497POPC   C1A 4755   7.424  15.187   8.550
 4497POPC   D2A 4756   7.466  15.155   8.250
 4497POPC   C3A 4757   7.433  15.177   7.950
 4497POPC   C4A 4758   7.467  15.159   7.650
 4497POPC   C1B 4759   7.333  14.954   8.550
 4497POPC   C2B 4760   7.336  14.929   8.250
 4497POPC   C3B 4761   7.373  14.900   7.950
 4497POPC   C4B 4762   7.339  14.952   7.650
 4498POPC   NC3 4763  39.235  24.527   9.450
 4498POPC   PO4 4764  39.197  24.492   9.150
 4498POPC   GL1 4765  39.247  24.482   8.850
 4498POPC   GL2 4766  39.202  24.350   8.850
 4498POPC   C1A 4767  39.266  24.538   8.550
 4498POPC   D2A 4768  39.210  24.467   8.250
 4498POPC   C3A 4769  39.182  24.532   7.950
 4498POPC   C4A 4770  39.256  24.508   7.650
 4498POPC   C1B 4771  39.070  24.284   8.550
 4498POPC   C2B 4772  39.115  24.235   8.250
 4498POPC   C3B 4773  39.110  24.300   7.950
 4498POPC   C4B 4774  39.160  24.221   7.650
 4499POPC   NC3 4775  40.734   0.401   9.450
 4499POPC   PO4 4776  40.775   0.390   9.150
 4499POPC   GL1 4777  40.799   0.480   8.850
 4499POPC   GL2 4778  40.743   0.598   8.850
 4499POPC   C1A 4779  40.816   0.486   8.550
 4499POPC   D2A 4780  40.792   0.449   8.250
 4499POPC   C3A 4781  40.798   0.446   7.950
 4499POPC   C4A 4782  40.825   0.410   7.650
 4499POPC   C1B 4783  40.726   0.662   8.550
 4499POPC   C2B 4784  40.742   0.703   8.250
 4499POPC   C3B 4785  40.777   0.700   7.950
 4499POPC   C4B 4786  40.746   0.680   7.650
 4500POPC   NC3 4787   4.339  23.762   9.450
 4500POPC   PO4 4788   4.359  23.700   9.150
 4500POPC   GL1 4789   4.305  23.698   8.850
 4500POPC   GL2 4790   4.236  23.747   8.850
 4500POPC   C1A 4791   4.271  23.673   8.550
 4500POPC   D2A 4792   4.327  23.684   8.250
 4500POPC   C3A 4793   4.275  23.703   7.950
 4500POPC   C4A 4794   4.273  23.755   7.650
 4500POPC   C1B 4795   4.035  23.829   8.550
 4500POPC   C2B 4796   4.078  23.754   8.250
 4500POPC   C3B 4797   4.087  23.760   7.950
 4500POPC   C4B 4798   4.058  23.786   7.650
 4501POPC   NC3 4799  10.490  29.937   9.450
 4501POPC   PO4 4800  10.559  29.878   9.150
 4501POPC   GL1 4801  10.537  29.897   8.850
 4501POPC   GL2 4802  10.667  29.870   8.850
 4501POPC   C1A 4803  10.527  29.882   8.550
 4501POPC   D2A 4804  10.533  29.930   8.250
 4501POPC   C3A 4805  10.562  29.879   7.950
 4501POPC   C4A 4806  10.554  29.924   7.650
 4501POPC   C1B 4807  10.738  29.774   8.550
 4501POPC   C2B 4808  10.766  29.770   8.250
 4501POPC   C3B 4809  10.735  29.786   7.950
 4501POPC   C4B 4810  10.774  29.780   7.650
 4502POPC   NC3 4811   9.765  19.875   9.450
 4502POPC   PO4 4812   9.760  19.875   9.150
 4502POPC   GL1 4813   9.724  19.798   8.850
 4502POPC   GL2 4814   9.814  19.924   8.850
 4502POPC   C1A 4815   9.729  19.788   8.550
 4502POPC   D2A 4816   9.797  19.875   8.250
 4502POPC   C3A 4817   9.741  19.844   7.950
 4502POPC   C4A 4818   9.788  19.822   7.650
 4502POPC   C1B 4819   9.787  20.028   8.550
 4502POPC   C2B 4820   9.809  20.109   8.250
 4502POPC   C3B 4821   9.808  20.042   7.950
 4502POPC   C4B 4822   9.782  20.103   7.650
 4503POPC   NC3 4823  14.426  22.908   9.450
 4503POPC   PO4 4824  14.362  22.893   9.150
 4503POPC   GL1 4825  14.451  22.889   8.850
 4503POPC   GL2 4826  14.302  22.887   8.850
 4503POPC   C1A 4827  14.369  22.981   8.550
 4503POPC   D2A 4828  14.355  22.915   8.250
 4503POPC   C3A 4829  14.416  22.898   7.950
 4503POPC   C4A 4830  14.406  22.906   7.650
 4503POPC   C1B 4831  14.234  22.820   8.550
 4503POPC   C2B 4832  14.222  22.800   8.250
 4503POPC   C3B 4833  14.248  22.801   7.950
 4503POPC   C4B 4834  14.202  22.822   7.650
 4504POPC   NC3 4835  44.641  16.690   9.450
 4504POPC   PO4 4836  44.631  16.748   9.150
 4504POPC   GL1 4837  44.638  16.704   8.850
 4504POPC   GL2 4838  44.760  16.746   8.850
 4504POPC   C1A 4839  44.687  16.746   8.550
 4504POPC   D2A 4840  44.668  16.711   8.250
 4504POPC   C3A 4841  44.684  16.751   7.950
 4504POPC   C4A 4842  44.712  16.734   7.650
 4504POPC   C1B 4843  44.949  16.766   8.550
 4504POPC   C2B 4844  44.932  16.748   8.250
 4504POPC   C3B 4845  44.865  16.822   7.950
 4504POPC   C4B 4846  44.906  16.816   7.650
 4505POPC   NC3 4847  39.223  40.807   9.450
 4505POPC   PO4 4848  39.275  40.830   9.150
 4505POPC   GL1 4849  39.246  40.772   8.850
 4505POPC   GL2 4850  39.242  40.875   8.850
 4505POPC   C1A 4851  39.249  40.830   8.550
 4505POPC   D2A 4852  39.183  40.788   8.250
 4505POPC   C3A 4853  39.248  40.817   7.950
 4505POPC   C4A 4854  39.182  40.792   7.650
 4505POPC   C1B 4855  39.354  41.023   8.550
 4505POPC   C2B 4856  39.262  41.066   8.250
 4505POPC   C3B 4857  39.344  41.048   7.950
 4505POPC   C4B 4858  39.339  41.047   7.650
 4506POPC   NC3 4859  28.401  38.455   9.450
 4506POPC   PO4 4860  28.373  38.436   9.150
 4506POPC   GL1 4861  28.393  38.458   8.850
 4506POPC   GL2 4862  28.247  38.374   8.850
 4506POPC   C1A 4863  28.351  38.493   8.550
 4506POPC   D2A 4864  28.321  38.490   8.250
 4506POPC   C3A 4865  28.325  38.485   7.950
 4506POPC   C4A 4866  28.412  38.424   7.650
 4506POPC   C1B 4867  28.142  38.308   8.550
 4506POPC   C2B 4868  28.204  38.323   8.250
 4506POPC   C3B 4869  28.175  38.317   7.950
 4506POPC   C4B 4870  28.192  38.347   7.650
 4507POPC   NC3 4871   4.304  29.880   9.450
 4507POPC   PO4 4872   4.361  29.962   9.150
 4507POPC   GL1 4873   4.347  29.910   8.850
 4507POPC   GL2 4874   4.416  29.975   8.850
 4507POPC   C1A 4875   4.342  29.888   8.550
 4507POPC   D2A 4876   4.322  29.888   8.250
 4507POPC   C3A 4877   4.335  29.952   7.950
 4507POPC   C4A 4878   4.284  29.904   7.650
 4507POPC   C1B 4879   4.530  30.124   8.550
 4507POPC   C2B 4880   4.554  30.123   8.250
 4507POPC   C3B 4881   4.464  30.042   7.950
 4507POPC   C4B 4882   4.478  30.117   7.650
 4508POPC   NC3 4883  13.641  26.777   9.450
 4508POPC   PO4 4884  13.653  26.832   9.150
 4508POPC   GL1 4885  13.635  26.862   8.850
 4508POPC   GL2 4886  13.712  26.688   8.850
 4508POPC   C1A 4887  13.578  26.803   8.550
 4508POPC   D2A 4888  13.673  26.862   8.250
 4508POPC   C3A 4889  13.676  26.805   7.950
 4508POPC   C4A 4890  13.608  26.812   7.650
 4508POPC   C1B 4891  13.697  26.619   8.550
 4508POPC   C2B 4892  13.659  26.567   8.250
 4508POPC   C3B 4893  13.656  26.542   7.950
 4508POPC   C4B 4894  13.692  26.586   7.650
 4509POPC   NC3 4895  37.705  41.525   9.450
 4509POPC   PO4 4896  37.710  41.509   9.150
 4509POPC   GL1 4897  37.705  41.526   8.850
 4509POPC   GL2 4898  37.617  41.678   8.850
 4509POPC   C1A 4899  37.717  41.540   8.550
 4509POPC   D2A 4900  37.665  41.558   8.250
 4509POPC   C3A 4901  37.729  41.554   7.950
 4509POPC   C4A 4902  37.652  41.528   7.650
 4509POPC   C1B 4903  37.532  41.728   8.550
 4509POPC   C2B 4904  37.526  41.716   8.250
 4509POPC   C3B 4905  37.571  41.815   7.950
 4509POPC   C4B 4906  37.568  41.720   7.650
 4510POPC   NC3 4907   9.710   3.493   9.450
 4510POPC   PO4 4908   9.702   3.523   9.150
 4510POPC   GL1 4909   9.733   3.503   8.850
 4510POPC   GL2 4910   9.758   3.678   8.850
 4510POPC   C1A 4911   9.795   3.505   8.550
 4510POPC   D2A 4912   9.783   3.591   8.250
 4510POPC   C3A 4913   9.701   3.578   7.950
 4510POPC   C4A 4914   9.707   3.552   7.650
 4510POPC   C1B 4915   9.729   3.779   8.550
 4510POPC   C2B 4916   9.710   3.748   8.250
 4510POPC   C3B 4917   9.786   3.743   7.950
 4510POPC   C4B 4918   9.728   3.744   7.650
 4511POPC   NC3 4919  25.228  14.354   9.450
 4511POPC   PO4 4920  25.225  14.441   9.150
 4511POPC   GL1 4921  25.278  14.413   8.850
 4511POPC   GL2 4922  25.102  14.383   8.850
 4511POPC   C1A 4923  25.312  14.429   8.550
 4511POPC   D2A 4924  25.237  14.428   8.250
 4511POPC   C3A 4925  25.312  14.359   7.950
 4511POPC   C4A 4926  25.265  14.440   7.650
 4511POPC   C1B 4927  25.062  14.386   8.550
 4511POPC   C2B 4928  25.010  14.371   8.250
 4511POPC   C3B 4929  25.046  14.374   7.950
 4511POPC   C4B 4930  25.030  14.386   7.650
 4512POPC   NC3 4931  15.946  33.833   9.450
 4512POPC   PO4 4932  15.993  33.821   9.150
 4512POPC   GL1 4933  15.952  33.767   8.850
 4512POPC   GL2 4934  15.981  33.690   8.850
 4512POPC   C1A 4935  15.917  33.775   8.550
 4512POPC   D2A 4936  16.004  33.759   8.250
 4512POPC   C3A 4937  15.985  33.848   7.950
 4512POPC   C4A 4938  15.983  33.825   7.650
 4512POPC   C1B 4939  16.026  33.530   8.550
 4512POPC   C2B 4940  16.028  33.533   8.250
 4512POPC   C3B 4941  16.073  33.615   7.950
 4512POPC   C4B 4942  16.022  33.620   7.650
 4513POPC   NC3 4943  17.543  36.115   9.450
 4513POPC   PO4 4944  17.541  36.109   9.150
 4513POPC   GL1 4945  17.509  36.117   8.850
 4513POPC   GL2 4946  17.598  36.176   8.850
 4513POPC   C1A 4947  17.538  36.157   8.550
 4513POPC   D2A 4948  17.490  36.109   8.250
 4513POPC   C3A 4949  17.464  36.078   7.950
 4513POPC   C4A 4950  17.477  36.116   7.650
 4513POPC   C1B 4951  17.686  36.276   8.550
 4513POPC   C2B 4952  17.761  36.277   8.250
 4513POPC   C3B 4953  17.714  36.248   7.950
 4513POPC   C4B 4954  17.723  36.220   7.650
 4514POPC   NC3 4955  26.784   9.750   9.450
 4514POPC   PO4 4956  26.793   9.786   9.150
 4514POPC   GL1 4957  26.858   9.741   8.850
 4514POPC   GL2 4958  26.787   9.668   8.850
 4514POPC   C1A 4959  26.865   9.707   8.550
 4514POPC   D2A 4960  26.854   9.730   8.250
 4514POPC   C3A 4961  26.863   9.760   7.950
 4514POPC   C4A 4962  26.840   9.758   7.650
 4514POPC   C1B 4963  26.742   9.512   8.550
 4514POPC   C2B 4964  26.766   9.545   8.250
 4514POPC   C3B 4965  26.748   9.484   7.950
 4514POPC   C4B 4966  26.817   9.479   7.650
 4515POPC   NC3 4967   6.680  15.180   9.450
 4515POPC   PO4 4968   6.634  15.199   9.150
 4515POPC   GL1 4969   6.661  15.149   8.850
 4515POPC   GL2 4970   6.782  15.113   8.850
 4515POPC   C1A 4971   6.683  15.141   8.550
 4515POPC   D2A 4972   6.670  15.203   8.250
 4515POPC   C3A 4973   6.630  15.228   7.950
 4515POPC   C4A 4974   6.692  15.148   7.650
 4515POPC   C1B 4975   6.853  15.023   8.550
 4515POPC   C2B 4976   6.780  15.043   8.250
 4515POPC   C3B 4977   6.811  15.027   7.950
 4515POPC   C4B 4978   6.808  15.056   7.650
 4516POPC   NC3 4979  29.131  27.578   9.450
 4516POPC   PO4 4980  29.138  27.607   9.150
 4516POPC   GL1 4981  29.173  27.551   8.850
 4516POPC   GL2 4982  29.022  27.544   8.850
 4516POPC   C1A 4983  29.183  27.627   8.550
 4516POPC   D2A 4984  29.188  27.637   8.250
 4516POPC   C3A 4985  29.123  27.554   7.950
 4516POPC   C4A 4986  29.189  27.591   7.650
 4516POPC   C1B 4987  28.955  27.450   8.550
 4516POPC   C2B 4988  28.983  27.449   8.250
 4516POPC   C3B 4989  28.965  27.428   7.950
 4516POPC   C4B 4990  28.971  27.400   7.650
 4517POPC   NC3 4991  20.584  26.809   9.450
 4517POPC   PO4 4992  20.659  26.820   9.150
 4517POPC   GL1 4993  20.627  26.831   8.850
 4517POPC   GL2 4994  20.528  26.685   8.850
 4517POPC   C1A 4995  20.586  26.837   8.550
 4517POPC   D2A 4996  20.566  26.794   8.250
 4517POPC   C3A 4997  20.623  26.820   7.950
 4517POPC   C4A 4998  20.655  26.812   7.650
 4517POPC   C1B 4999  20.461  26.566   8.550
 4517POPC   C2B 5000  20.480  26.570   8.250
 4517POPC   C3B 5001  20.543  26.634   7.950
 4517POPC   C4B 5002  20.523  26.584   7.650
 4518POPC   NC3 5003  15.919   2.773   9.450
 4518POPC   PO4 5004  15.943   2.787   9.150
 4518POPC   GL1 5005  15.920   2.761   8.850
 4518POPC   GL2 5006  15.859   2.852   8.850
 4518POPC   C1A 5007  15.955   2.767   8.550
 4518POPC   D2A 5008  15.919   2.753   8.250
 4518POPC   C3A 5009  15.916   2.796   7.950
 4518POPC   C4A 5010  15.958   2.794   7.650
 4518POPC   C1B 5011  15.756   2.919   8.550
 4518POPC   C2B 5012  15.835   2.973   8.250
 4518POPC   C3B 5013  15.808   2.986   7.950
 4518POPC   C4B 5014  15.761   2.966   7.650
 4519POPC   NC3 5015  33.830   4.272   9.450
 4519POPC   PO4 5016  33.781   4.301   9.150
 4519POPC   GL1 5017  33.759   4.354   8.850
 4519POPC   GL2 5018  33.915   4.393   8.850
 4519POPC   C1A 5019  33.819   4.345   8.550
 4519POPC   D2A 5020  33.847   4.321   8.250
 4519POPC   C3A 5021  33.767   4.283   7.950
 4519POPC   C4A 5022  33.775   4.316   7.650
 4519POPC   C1B 5023  34.003   4.406   8.550
 4519POPC   C2B 5024  34.054   4.359   8.250
 4519POPC   C3B 5025  34.085   4.357   7.950
 4519POPC   C4B 5026  34.069   4.374   7.650
 4520POPC   NC3 5027  15.194  26.076   9.450
 4520POPC   PO4 5028  15.217  25.996   9.150
 4520POPC   GL1 5029  15.226  26.045   8.850
 4520POPC   GL2 5030  15.203  26.148   8.850
 4520POPC   C1A 5031  15.137  26.051   8.550
 4520POPC   D2A 5032  15.197  26.025   8.250
 4520POPC   C3A 5033  15.208  26.046   7.950
 4520POPC   C4A 5034  15.214  26.000   7.650
 4520POPC   C1B 5035  15.267  26.251   8.550
 4520POPC   C2B 5036  15.315  26.293   8.250
 4520POPC   C3B 5037  15.335  26.223   7.950
 4520POPC   C4B 5038  15.266  26.213   7.650
 4521POPC   NC3 5039  24.513  38.417   9.450
 4521POPC   PO4 5040  24.481  38.415   9.150
 4521POPC   GL1 5041  24.509  38.446   8.850
 4521POPC   GL2 5042  24.534  38.393   8.850
 4521POPC   C1A 5043  24.495  38.430   8.550
 4521POPC   D2A 5044  24.448  38.442   8.250
 4521POPC   C3A 5045  24.514  38.461   7.950
 4521POPC   C4A 5046  24.522  38.461   7.650
 4521POPC   C1B 5047  24.674  38.250   8.550
 4521POPC   C2B 5048  24.662  38.277   8.250
 4521POPC   C3B 5049  24.685  38.223   7.950
 4521POPC   C4B 5050  24.609  38.296   7.650
 4522POPC   NC3 5051  28.374   7.421   9.450
 4522POPC   PO4 5052  28.376   7.427   9.150
 4522POPC   GL1 5053  28.362   7.464   8.850
 4522POPC   GL2 5054  28.263   7.507   8.850
 4522POPC   C1A 5055  28.373   7.422   8.550
 4522POPC   D2A 5056  28.346   7.426   8.250
 4522POPC   C3A 5057  28.381   7.383   7.950
 4522POPC   C4A 5058  28.362   7.437   7.650
 4522POPC   C1B 5059  28.230   7.609   8.550
 4522POPC   C2B 5060  28.192   7.560   8.250
 4522POPC   C3B 5061  28.226   7.566   7.950
 4522POPC   C4B 5062  28.188   7.608   7.650
 4523POPC   NC3 5063  30.709   1.984   9.450
 4523POPC   PO4 5064  30.731   2.022   9.150
 4523POPC   GL1 5065  30.743   1.974   8.850
 4523POPC   GL2 5066  30.678   1.883   8.850
 4523POPC   C1A 5067  30.688   2.015   8.550
 4523POPC   D2A 5068  30.648   2.008   8.250
 4523POPC   C3A 5069  30.672   2.005   7.950
 4523POPC   C4A 5070  30.735   1.996   7.650
 4523POPC   C1B 5071  30.650   1.715   8.550
 4523POPC   C2B 5072  30.664   1.703   8.250
 4523POPC   C3B 5073  30.601   1.720   7.950
 4523POPC   C4B 5074  30.635   1.758   7.650
 4524POPC   NC3 5075  38.448  30.705   9.450
 4524POPC   PO4 5076  38.410  30.686   9.150
 4524POPC   GL1 5077  38.425  30.676   8.850
 4524POPC   GL2 5078  38.495  30.581   8.850
 4524POPC   C1A 5079  38.503  30.730   8.550
 4524POPC   D2A 5080  38.419  30.745   8.250
 4524POPC   C3A 5081  38.419  30.664   7.950
 4524POPC   C4A 5082  38.420  30.671   7.650
 4524POPC   C1B 5083  38.561  30.439   8.550
 4524POPC   C2B 5084  38.555  30.446   8.250
 4524POPC   C3B 5085  38.551  30.413   7.950
 4524POPC   C4B 5086  38.550  30.506   7.650
 4525POPC   NC3 5087   9.733  32.995   9.450
 4525POPC   PO4 5088   9.748  33.001   9.150
 4525POPC   GL1 5089   9.733  33.054   8.850
 4525POPC   GL2 5090   9.676  32.941   8.850
 4525POPC   C1A 5091   9.758  32.983   8.550
 4525POPC   D2A 5092   9.704  33.062   8.250
 4525POPC   C3A 5093   9.701  33.059   7.950
 4525POPC   C4A 5094   9.783  33.054   7.650
 4525POPC   C1B 5095   9.470  32.941   8.550
 4525POPC   C2B 5096   9.496  32.907   8.250
 4525POPC   C3B 5097   9.472  32.934   7.950
 4525POPC   C4B 5098   9.512  33.000   7.650
 4526POPC   NC3 5099   8.235   4.319   9.450
 4526POPC   PO4 5100   8.201   4.271   9.150
 4526POPC   GL1 5101   8.147   4.333   8.850
 4526POPC   GL2 5102   8.287   4.303   8.850
 4526POPC   C1A 5103   8.172   4.290   8.550
 4526POPC   D2A 5104   8.204   4.357   8.250
 4526POPC   C3A 5105   8.188   4.321   7.950
 4526POPC   C4A 5106   8.215   4.269   7.650
 4526POPC   C1B 5107   8.473   4.382   8.550
 4526POPC   C2B 5108   8.487   4.413   8.250
 4526POPC   C3B 5109   8.439   4.427   7.950
 4526POPC   C4B 5110   8.413   4.381   7.650
 4527POPC   NC3 5111   9.733   8.999   9.450
 4527POPC   PO4 5112   9.774   8.971   9.150
 4527POPC   GL1 5113   9.725   8.935   8.850
 4527POPC   GL2 5114   9.723   9.052   8.850
 4527POPC   C1A 5115   9.769   8.938   8.550
 4527POPC   D2A 5116   9.747   8.966   8.250
 4527POPC   C3A 5117   9.789   8.964   7.950
 4527POPC   C4A 5118   9.764   8.948   7.650
 4527POPC   C1B 5119   9.768   9.229   8.550
 4527POPC   C2B 5120   9.727   9.250   8.250
 4527POPC   C3B 5121   9.688   9.194   7.950
 4527POPC   C4B 5122   9.745   9.255   7.650
 4528POPC   NC3 5123  32.258  17.467   9.450
 4528POPC   PO4 5124  32.222  17.468   9.150
 4528POPC   GL1 5125  32.276  17.532   8.850
 4528POPC   GL2 5126  32.090  17.530   8.850
 4528POPC   C1A 5127  32.293  17.513   8.550
 4528POPC   D2A 5128  32.228  17.536   8.250
 4528POPC   C3A 5129  32.224  17.491   7.950
 4528POPC   C4A 5130  32.221  17.495   7.650
 4528POPC   C1B 5131  32.011  17.653   8.550
 4528POPC   C2B 5132  32.001  17.607   8.250
 4528POPC   C3B 5133  32.031  17.582   7.950
 4528POPC   C4B 5134  31.990  17.650   7.650
 4529POPC   NC3 5135  12.901  25.253   9.450
 4529POPC   PO4 5136  12.808  25.283   9.150
 4529POPC   GL1 5137  12.887  25.303   8.850
 4529POPC   GL2 5138  12.927  25.193   8.850
 4529POPC   C1A 5139  12.818  25.265   8.550
 4529POPC   D2A 5140  12.809  25.269   8.250
 4529POPC   C3A 5141  12.879  25.264   7.950
 4529POPC   C4A 5142  12.860  25.221   7.650
 4529POPC   C1B 5143  12.972  25.016   8.550
 4529POPC   C2B 5144  12.937  25.031   8.250
 4529POPC   C3B 5145  12.882  25.023   7.950
 4529POPC   C4B 5146  12.950  25.008   7.650
 4530POPC   NC3 5147  22.955   6.662   9.450
 4530POPC   PO4 5148  22.929   6.676   9.150
 4530POPC   GL1 5149  22.943   6.639   8.850
 4530POPC   GL2 5150  23.093   6.638   8.850
 4530POPC   C1A 5151  22.901   6.625   8.550
 4530POPC   D2A 5152  22.976   6.627   8.250
 4530POPC   C3A 5153  22.923   6.623   7.950
 4530POPC   C4A 5154  22.955   6.687   7.650
 4530POPC   C1B 5155  23.224   6.731   8.550
 4530POPC   C2B 5156  23.162   6.718   8.250
 4530POPC   C3B 5157  23.208   6.703   7.950
 4530POPC   C4B 5158  23.230   6.733   7.650
 4531POPC   NC3 5159   1.250   6.612   9.450
 4531POPC   PO4 5160   1.254   6.677   9.150
 4531POPC   GL1 5161   1.180   6.668   8.850
 4531POPC   GL2 5162   1.168   6.527   8.850
 4531POPC   C1A 5163   1.260   6.633   8.550
 4531POPC   D2A 5164   1.174   6.638   8.250
 4531POPC   C3A 5165   1.256   6.619   7.950
 4531POPC   C4A 5166   1.221   6.656   7.650
 4531POPC   C1B 5167   1.077   6.430   8.550
 4531POPC   C2B 5168   1.085   6.466   8.250
 4531POPC   C3B 5169   1.017   6.490   7.950
 4531POPC   C4B 5170   1.042   6.506   7.650
 4532POPC   NC3 5171  16.779  16.713   9.450
 4532POPC   PO4 5172  16.688  16.684   9.150
 4532POPC   GL1 5173  16.698  16.708   8.850
 4532POPC   GL2 5174  16.710  16.661   8.850
 4532POPC   C1A 5175  16.711  16.764   8.550
 4532POPC   D2A 5176  16.775  16.686   8.250
 4532POPC   C3A 5177  16.696  16.745   7.950
 4532POPC   C4A 5178  16.765  16.777   7.650
 4532POPC   C1B 5179  16.661  16.458   8.550
 4532POPC   C2B 5180  16.606  16.548   8.250
 4532POPC   C3B 5181  16.661  16.496   7.950
 4532POPC   C4B 5182  16.637  16.488   7.650
 4533POPC   NC3 5183  25.294  35.326   9.450
 4533POPC   PO4 5184  25.293  35.310   9.150
 4533POPC   GL1 5185  25.223  35.374   8.850
 4533POPC   GL2 5186  25.187  35.273   8.850
 4533POPC   C1A 5187  25.307  35.397   8.550
 4533POPC   D2A 5188  25.301  35.338   8.250
 4533POPC   C3A 5189  25.296  35.388   7.950
 4533POPC   C4A 5190  25.274  35.313   7.650
 4533POPC   C1B 5191  25.110  35.105   8.550
 4533POPC   C2B 5192  25.185  35.161   8.250
 4533POPC   C3B 5193  25.109  35.159   7.950
 4533POPC   C4B 5194  25.149  35.152   7.650
 4534POPC   NC3 5195  13.649   8.958   9.450
 4534POPC   PO4 5196  13.585   8.990   9.150
 4534POPC   GL1 5197  13.640   8.941   8.850
 4534POPC   GL2 5198  13.655   9.121   8.850
 4534POPC   C1A 5199  13.618   8.989   8.550
 4534POPC   D2A 5200  13.621   8.957   8.250
 4534POPC   C3A 5201  13.603   8.949   7.950
 4534POPC   C4A 5202  13.634   8.979   7.650
 4534POPC   C1B 5203  13.736   9.200   8.550
 4534POPC   C2B 5204  13.677   9.215   8.250
 4534POPC   C3B 5205  13.667   9.185   7.950
 4534POPC   C4B 5206  13.705   9.246   7.650
 4535POPC   NC3 5207  13.610  36.899   9.450
 4535POPC   PO4 5208  13.596  36.912   9.150
 4535POPC   GL1 5209  13.587  36.932   8.850
 4535POPC   GL2 5210  13.783  36.924   8.850
 4535POPC   C1A 5211  13.637  36.892   8.550
 4535POPC   D2A 5212  13.640  36.909   8.250
 4535POPC   C3A 5213  13.601  36.896   7.950
 4535POPC   C4A 5214  13.666  36.920   7.650
 4535POPC   C1B 5215  13.850  36.933   8.550
 4535POPC   C2B 5216  13.899  36.941   8.250
 4535POPC   C3B 5217  13.899  36.958   7.950
 4535POPC   C4B 5218  13.909  36.962   7.650
 4536POPC   NC3 5219  39.189  21.428   9.450
 4536POPC   PO4 5220  39.209  21.348   9.150
 4536POPC   GL1 5221  39.243  21.381   8.850
 4536POPC   GL2 5222  39.175  21.281   8.850
 4536POPC   C1A 5223  39.222  21.400   8.550
 4536POPC   D2A 5224  39.231  21.404   8.250
 4536POPC   C3A 5225  39.229  21.355   7.950
 4536POPC   C4A 5226  39.203  21.415   7.650
 4536POPC   C1B 5227  39.070  21.182   8.550
 4536POPC   C2B 5228  39.072  21.166   8.250
 4536POPC   C3B 5229  39.081  21.136   7.950
 4536POPC   C4B 5230  39.129  21.212   7.650
 4537POPC   NC3 5231   5.843   5.842   9.450
 4537POPC   PO4 5232   5.871   5.859   9.150
 4537POPC   GL1 5233   5.890   5.871   8.850
 4537POPC   GL2 5234   5.830   5.735   8.850
 4537POPC   C1A 5235   5.862   5.847   8.550
 4537POPC   D2A 5236   5.863   5.826   8.250
 4537POPC   C3A 5237   5.862   5.890   7.950
 4537POPC   C4A 5238   5.838   5.885   7.650
 4537POPC   C1B 5239   5.904   5.571   8.550
 4537POPC   C2B 5240   5.854   5.613   8.250
 4537POPC   C3B 5241   5.876   5.652   7.950
 4537POPC   C4B 5242   5.849   5.594   7.650
 4538POPC   NC3 5243   5.880  22.124   9.450
 4538POPC   PO4 5244   5.860  22.166   9.150
 4538POPC   GL1 5245   5.836  22.156   8.850
 4538POPC   GL2 5246   5.744  22.041   8.850
 4538POPC   C1A 5247   5.821  22.163   8.550
 4538POPC   D2A 5248   5.909  22.157   8.250
 4538POPC   C3A 5249   5.822  22.141   7.950
 4538POPC   C4A 5250   5.919  22.209   7.650
 4538POPC   C1B 5251   5.715  21.952   8.550
 4538POPC   C2B 5252   5.683  21.953   8.250
 4538POPC   C3B 5253   5.661  21.973   7.950
 4538POPC   C4B 5254   5.691  22.018   7.650
 4539POPC   NC3 5255   9.005  20.594   9.450
 4539POPC   PO4 5256   9.009  20.657   9.150
 4539POPC   GL1 5257   8.982  20.634   8.850
 4539POPC   GL2 5258   8.904  20.675   8.850
 4539POPC   C1A 5259   9.003  20.655   8.550
 4539POPC   D2A 5260   8.936  20.627   8.250
 4539POPC   C3A 5261   8.948  20.642   7.950
 4539POPC   C4A 5262   8.965  20.589   7.650
 4539POPC   C1B 5263   8.776  20.744   8.550
 4539POPC   C2B 5264   8.727  20.796   8.250
 4539POPC   C3B 5265   8.732  20.762   7.950
 4539POPC   C4B 5266   8.724  20.769   7.650
 4540POPC   NC3 5267  27.572  42.296   9.450
 4540POPC   PO4 5268  27.551  42.350   9.150
 4540POPC   GL1 5269  27.613  42.346   8.850
 4540POPC   GL2 5270  27.582  42.507   8.850
 4540POPC   C1A 5271  27.633  42.364   8.550
 4540POPC   D2A 5272  27.580  42.363   8.250
 4540POPC   C3A 5273  27.631  42.310   7.950
 4540POPC   C4A 5274  27.608  42.331   7.650
 4540POPC   C1B 5275  27.636  42.614   8.550
 4540POPC   C2B 5276  27.591  42.538   8.250
 4540POPC   C3B 5277  27.667  42.545   7.950
 4540POPC   C4B 5278  27.636  42.560   7.650
 4541POPC   NC3 5279  43.894  15.155   9.450
 4541POPC   PO4 5280  43.920  15.177   9.150
 4541POPC   GL1 5281  43.845  15.210   8.850
 4541POPC   GL2 5282  43.910  15.119   8.850
 4541POPC   C1A 5283  43.898  15.222   8.550
 4541POPC   D2A 5284  43.842  15.156   8.250
 4541POPC   C3A 5285  43.837  15.228   7.950
 4541POPC   C4A 5286  43.851  15.188   7.650
 4541POPC   C1B 5287  43.967  14.943   8.550
 4541POPC   C2B 5288  44.045  14.999   8.250
 4541POPC   C3B 5289  44.029  14.988   7.950
 4541POPC   C4B 5290  43.984  14.926   7.650
 4542POPC   NC3 5291   3.519   4.316   9.450
 4542POPC   PO4 5292   3.586   4.301   9.150
 4542POPC   GL1 5293   3.515   4.365   8.850
 4542POPC   GL2 5294   3.590   4.180   8.850
 4542POPC   C1A 5295   3.512   4.323   8.550
 4542POPC   D2A 5296   3.554   4.276   8.250
 4542POPC   C3A 5297   3.520   4.342   7.950
 4542POPC   C4A 5298   3.563   4.357   7.650
 4542POPC   C1B 5299   3.690   4.111   8.550
 4542POPC   C2B 5300   3.668   4.095   8.250
 4542POPC   C3B 5301   3.732   4.124   7.950
 4542POPC   C4B 5302   3.739   4.098   7.650
 4543POPC   NC3 5303  11.329   7.371   9.450
 4543POPC   PO4 5304  11.285   7.412   9.150
 4543POPC   GL1 5305  11.348   7.447   8.850
 4543POPC   GL2 5306  11.210   7.485   8.850
 4543POPC   C1A 5307  11.264   7.433   8.550
 4543POPC   D2A 5308  11.280   7.390   8.250
 4543POPC   C3A 5309  11.301   7.464   7.950
 4543POPC   C4A 5310  11.332   7.444   7.650
 4543POPC   C1B 5311  11.092   7.581   8.550
 4543POPC   C2B 5312  11.125   7.649   8.250
 4543POPC   C3B 5313  11.169   7.575   7.950
 4543POPC   C4B 5314  11.103   7.602   7.650
 4544POPC   NC3 5315  15.960  34.588   9.450
 4544POPC   PO4 5316  15.937  34.609   9.150
 4544POPC   GL1 5317  15.930  34.581   8.850
 4544POPC   GL2 5318  15.909  34.664   8.850
 4544POPC   C1A 5319  15.980  34.527   8.550
 4544POPC   D2A 5320  15.952  34.527   8.250
 4544POPC   C3A 5321  15.932  34.608   7.950
 4544POPC   C4A 5322  15.954  34.625   7.650
 4544POPC   C1B 5323  15.779  34.753   8.550
 4544POPC   C2B 5324  15.850  34.729   8.250
 4544POPC   C3B 5325  15.776  34.823   7.950
 4544POPC   C4B 5326  15.838  34.820   7.650
 4545POPC   NC3 5327  26.842  21.351   9.450
 4545POPC   PO4 5328  26.809  21.412   9.150
 4545POPC   GL1 5329  26.825  21.360   8.850
 4545POPC   GL2 5330  26.815  21.498   8.850
 4545POPC   C1A 5331  26.842  21.360   8.550
 4545POPC   D2A 5332  26.795  21.370   8.250
 4545POPC   C3A 5333  26.781  21.397   7.950
 4545POPC   C4A 5334  26.781  21.391   7.650
 4545POPC   C1B 5335  26.861  21.652   8.550
 4545POPC   C2B 5336  26.900  21.623   8.250
 4545POPC   C3B 5337  26.867  21.617   7.950
 4545POPC   C4B 5338  26.842  21.676   7.650
 4546POPC   NC3 5339  41.560   8.959   9.450
 4546POPC   PO4 5340  41.536   8.940   9.150
 4546POPC   GL1 5341  41.525   9.017   8.850
 4546POPC   GL2 5342  41.418   8.954   8.850
 4546POPC   C1A 5343  41.560   8.994   8.550
 4546POPC   D2A 5344  41.573   8.964   8.250
 4546POPC   C3A 5345  41.573   8.985   7.950
 4546POPC   C4A 5346  41.560   8.979   7.650
 4546POPC   C1B 5347  41.329   8.866   8.550
 4546POPC   C2B 5348  41.336   8.836   8.250
 4546POPC   C3B 5349  41.368   8.898   7.950
 4546POPC   C4B 5350  41.358   8.822   7.650
 4547POPC   NC3 5351  41.520  25.238   9.450
 4547POPC   PO4 5352  41.577  25.275   9.150
 4547POPC   GL1 5353  41.519  25.307   8.850
 4547POPC   GL2 5354  41.675  25.300   8.850
 4547POPC   C1A 5355  41.595  25.222   8.550
 4547POPC   D2A 5356  41.600  25.249   8.250
 4547POPC   C3A 5357  41.597  25.259   7.950
 4547POPC   C4A 5358  41.601  25.268   7.650
 4547POPC   C1B 5359  41.775  25.398   8.550
 4547POPC   C2B 5360  41.820  25.332   8.250
 4547POPC   C3B 5361  41.783  25.328   7.950
 4547POPC   C4B 5362  41.780  25.371   7.650
 4548POPC   NC3 5363  36.901  22.211   9.450
 4548POPC   PO4 5364  36.932  22.210   9.150
 4548POPC   GL1 5365  36.870  22.165   8.850
 4548POPC   GL2 5366  36.806  22.088   8.850
 4548POPC   C1A 5367  36.867  22.148   8.550
 4548POPC   D2A 5368  36.857  22.178   8.250
 4548POPC   C3A 5369  36.888  22.142   7.950
 4548POPC   C4A 5370  36.882  22.123   7.650
 4548POPC   C1B 5371  36.714  22.033   8.550
 4548POPC   C2B 5372  36.663  22.033   8.250
 4548POPC   C3B 5373  36.719  22.015   7.950
 4548POPC   C4B 5374  36.732  22.014   7.650
 4549POPC   NC3 5375  22.909  30.722   9.450
 4549POPC   PO4 5376  22.984  30.724   9.150
 4549POPC   GL1 5377  22.897  30.696   8.850
 4549POPC   GL2 5378  22.809  30.771   8.850
 4549POPC   C1A 5379  22.948  30.685   8.550
 4549POPC   D2A 5380  22.906  30.686   8.250
 4549POPC   C3A 5381  22.962  30.680   7.950
 4549POPC   C4A 5382  22.926  30.685   7.650
 4549POPC   C1B 5383  22.730  30.856   8.550
 4549POPC   C2B 5384  22.731  30.874   8.250
 4549POPC   C3B 5385  22.708  30.834   7.950
 4549POPC   C4B 5386  22.773  30.861   7.650
 4550POPC   NC3 5387   5.820  26.028   9.450
 4550POPC   PO4 5388   5.820  26.087   9.150
 4550POPC   GL1 5389   5.907  26.026   8.850
 4550POPC   GL2 5390   5.931  26.153   8.850
 4550POPC   C1A 5391   5.896  26.012   8.550
 4550POPC   D2A 5392   5.844  26.026   8.250
 4550POPC   C3A 5393   5.839  26.081   7.950
 4550POPC   C4A 5394   5.913  26.043   7.650
 4550POPC   C1B 5395   5.985  26.299   8.550
 4550POPC   C2B 5396   6.028  26.248   8.250
 4550POPC   C3B 5397   5.939  26.276   7.950
 4550POPC   C4B 5398   5.962  26.261   7.650
 4551POPC   NC3 5399  35.342   3.504   9.450
 4551POPC   PO4 5400  35.379   3.550   9.150
 4551POPC   GL1 5401  35.362   3.586   8.850
 4551POPC   GL2 5402  35.505   3.596   8.850
 4551POPC   C1A 5403  35.318   3.492   8.550
 4551POPC   D2A 5404  35.360   3.542   8.250
 4551POPC   C3A 5405  35.351   3.539   7.950
 4551POPC   C4A 5406  35.322   3.560   7.650
 4551POPC   C1B 5407  35.585   3.570   8.550
 4551POPC   C2B 5408  35.632   3.572   8.250
 4551POPC   C3B 5409  35.564   3.507   7.950
 4551POPC   C4B 5410  35.554   3.574   7.650
 4552POPC   NC3 5411   4.317  10.535   9.450
 4552POPC   PO4 5412   4.270  10.540   9.150
 4552POPC   GL1 5413   4.327  10.513   8.850
 4552POPC   GL2 5414   4.177  10.609   8.850
 4552POPC   C1A 5415   4.301  10.508   8.550
 4552POPC   D2A 5416   4.344  10.572   8.250
 4552POPC   C3A 5417   4.318  10.509   7.950
 4552POPC   C4A 5418   4.332  10.493   7.650
 4552POPC   C1B 5419   4.141  10.726   8.550
 4552POPC   C2B 5420   4.166  10.678   8.250
 4552POPC   C3B 5421   4.158  10.727   7.950
 4552POPC   C4B 5422   4.081  10.649   7.650
 4553POPC   NC3 5423   9.728  24.464   9.450
 4553POPC   PO4 5424   9.725  24.512   9.150
 4553POPC   GL1 5425   9.778  24.530   8.850
 4553POPC   GL2 5426   9.678  24.620   8.850
 4553POPC   C1A 5427   9.711  24.503   8.550
 4553POPC   D2A 5428   9.721  24.536   8.250
 4553POPC   C3A 5429   9.752  24.490   7.950
 4553POPC   C4A 5430   9.709  24.452   7.650
 4553POPC   C1B 5431   9.668  24.742   8.550
 4553POPC   C2B 5432   9.595  24.701   8.250
 4553POPC   C3B 5433   9.577  24.732   7.950
 4553POPC   C4B 5434   9.663  24.661   7.650
 4554POPC   NC3 5435  40.799  35.336   9.450
 4554POPC   PO4 5436  40.805  35.350   9.150
 4554POPC   GL1 5437  40.779  35.302   8.850
 4554POPC   GL2 5438  40.618  35.333   8.850
 4554POPC   C1A 5439  40.823  35.365   8.550
 4554POPC   D2A 5440  40.772  35.337   8.250
 4554POPC   C3A 5441  40.790  35.331   7.950
 4554POPC   C4A 5442  40.744  35.366   7.650
 4554POPC   C1B 5443  40.500  35.378   8.550
 4554POPC   C2B 5444  40.505  35.360   8.250
 4554POPC   C3B 5445  40.565  35.392   7.950
 4554POPC   C4B 5446  40.564  35.348   7.650
 4555POPC   NC3 5447  22.133  11.318   9.450
 4555POPC   PO4 5448  22.144  11.264   9.150
 4555POPC   GL1 5449  22.114  11.326   8.850
 4555POPC   GL2 5450  22.282  11.435   8.850
 4555POPC   C1A 5451  22.137  11.346   8.550
 4555POPC   D2A 5452  22.182  11.328   8.250
 4555POPC   C3A 5453  22.180  11.254   7.950
 4555POPC   C4A 5454  22.117  11.309   7.650
 4555POPC   C1B 5455  22.293  11.521   8.550
 4555POPC   C2B 5456  22.326  11.444   8.250
 4555POPC   C3B 5457  22.349  11.510   7.950
 4555POPC   C4B 5458  22.365  11.444   7.650
 4556POPC   NC3 5459   5.914  14.381   9.450
 4556POPC   PO4 5460   5.919  14.450   9.150
 4556POPC   GL1 5461   5.840  14.382   8.850
 4556POPC   GL2 5462   6.002  14.455   8.850
 4556POPC   C1A 5463   5.907  14.374   8.550
 4556POPC   D2A 5464   5.871  14.390   8.250
 4556POPC   C3A 5465   5.878  14.371   7.950
 4556POPC   C4A 5466   5.848  14.358   7.650
 4556POPC   C1B 5467   6.142  14.551   8.550
 4556POPC   C2B 5468   6.101  14.546   8.250
 4556POPC   C3B 5469   6.051  14.516   7.950
 4556POPC   C4B 5470   6.114  14.471   7.650
 4557POPC   NC3 5471  12.120  30.659   9.450
 4557POPC   PO4 5472  12.123  30.679   9.150
 4557POPC   GL1 5473  12.028  30.650   8.850
 4557POPC   GL2 5474  11.999  30.610   8.850
 4557POPC   C1A 5475  12.097  30.728   8.550
 4557POPC   D2A 5476  12.046  30.673   8.250
 4557POPC   C3A 5477  12.079  30.732   7.950
 4557POPC   C4A 5478  12.117  30.676   7.650
 4557POPC   C1B 5479  12.029  30.449   8.550
 4557POPC   C2B 5480  12.029  30.498   8.250
 4557POPC   C3B 5481  12.033  30.438   7.950
 4557POPC   C4B 5482  12.052  30.446   7.650
 4558POPC   NC3 5483   9.701  18.325   9.450
 4558POPC   PO4 5484   9.713  18.240   9.150
 4558POPC   GL1 5485   9.782  18.333   8.850
 4558POPC   GL2 5486   9.794  18.349   8.850
 4558POPC   C1A 5487   9.735  18.267   8.550
 4558POPC   D2A 5488   9.718  18.313   8.250
 4558POPC   C3A 5489   9.723  18.270   7.950
 4558POPC   C4A 5490   9.751  18.244   7.650
 4558POPC   C1B 5491   9.930  18.467   8.550
 4558POPC   C2B 5492   9.981  18.441   8.250
 4558POPC   C3B 5493   9.922  18.495   7.950
 4558POPC   C4B 5494   9.971  18.489   7.650
 4559POPC   NC3 5495  30.746  40.040   9.450
 4559POPC   PO4 5496  30.744  39.993   9.150
 4559POPC   GL1 5497  30.689  40.011   8.850
 4559POPC   GL2 5498  30.622  39.927   8.850
 4559POPC   C1A 5499  30.651  40.008   8.550
 4559POPC   D2A 5500  30.696  40.022   8.250
 4559POPC   C3A 5501  30.647  39.988   7.950
 4559POPC   C4A 5502  30.676  39.993   7.650
 4559POPC   C1B 5503  30.590  39.813   8.550
 4559POPC   C2B 5504  30.624  39.811   8.250
 4559POPC   C3B 5505  30.558  39.757   7.950
 4559POPC   C4B 5506  30.649  39.769   7.650
 4560POPC   NC3 5507   5.049  10.559   9.450
 4560POPC   PO4 5508   5.073  10.477   9.150
 4560POPC   GL1 5509   5.045  10.563   8.850
 4560POPC   GL2 5510   5.011  10.473   8.850
 4560POPC   C1A 5511   5.072  10.493   8.550
 4560POPC   D2A 5512   5.143  10.574   8.250
 4560POPC   C3A 5513   5.071  10.520   7.950
 4560POPC   C4A 5514   5.139  10.511   7.650
 4560POPC   C1B 5515   4.892  10.483   8.550
 4560POPC   C2B 5516   4.888  10.485   8.250
 4560POPC   C3B 5517   4.845  10.401   7.950
 4560POPC   C4B 5518   4.819  10.424   7.650
 4561POPC   NC3 5519  17.461   1.978   9.450
 4561POPC   PO4 5520  17.482   1.963   9.150
 4561POPC   GL1 5521  17.515   1.983   8.850
 4561POPC   GL2 5522  17.446   1.929   8.850
 4561POPC   C1A 5523  17.548   1.992   8.550
 4561POPC   D2A 5524  17.536   2.037   8.250
 4561POPC   C3A 5525  17.493   1.978   7.950
 4561POPC   C4A 5526  17.515   1.973   7.650
 4561POPC   C1B 5527  17.288   1.855   8.550
 4561POPC   C2B 5528  17.300   1.794   8.250
 4561POPC   C3B 5529  17.280   1.799   7.950
 4561POPC   C4B 5530  17.300   1.867   7.650
 4562POPC   NC3 5531  36.110  17.539   9.450
 4562POPC   PO4 5532  36.154  17.534   9.150
 4562POPC   GL1 5533  36.117  17.459   8.850
 4562POPC   GL2 5534  36.111  17.593   8.850
 4562POPC   C1A 5535  36.092  17.542   8.550
 4562POPC   D2A 5536  36.161  17.524   8.250
 4562POPC   C3A 5537  36.122  17.461   7.950
 4562POPC   C4A 5538  36.174  17.487   7.650
 4562POPC   C1B 5539  36.086  17.776   8.550
 4562POPC   C2B 5540  36.085  17.737   8.250
 4562POPC   C3B 5541  36.105  17.776   7.950
 4562POPC   C4B 5542  36.143  17.749   7.650
 4563POPC   NC3 5543  15.194  33.065   9.450
 4563POPC   PO4 5544  15.163  33.008   9.150
 4563POPC   GL1 5545  15.180  33.040   8.850
 4563POPC   GL2 5546  15.095  33.074   8.850
 4563POPC   C1A 5547  15.221  33.062   8.550
 4563POPC   D2A 5548  15.221  33.035   8.250
 4563POPC   C3A 5549  15.168  32.985   7.950
 4563POPC   C4A 5550  15.152  33.054   7.650
 4563POPC   C1B 5551  14.980  33.115   8.550
 4563POPC   C2B 5552  14.980  33.062   8.250
 4563POPC   C3B 5553  14.901  33.078   7.950
 4563POPC   C4B 5554  14.893  33.114   7.650
 4564POPC   NC3 5555  43.854  18.257   9.450
 4564POPC   PO4 5556  43.895  18.245   9.150
 4564POPC   GL1 5557  43.894  18.257   8.850
 4564POPC   GL2 5558  43.775  18.314   8.850
 4564POPC   C1A 5559  43.892  18.255   8.550
 4564POPC   D2A 5560  43.888  18.289   8.250
 4564POPC   C3A 5561  43.898  18.238   7.950
 4564POPC   C4A 5562  43.860  18.262   7.650
 4564POPC   C1B 5563  43.677  18.306   8.550
 4564POPC   C2B 5564  43.633  18.304   8.250
 4564POPC   C3B 5565  43.632  18.326   7.950
 4564POPC   C4B 5566  43.657  18.301   7.650
 4565POPC   NC3 5567  23.736   8.229   9.450
 4565POPC   PO4 5568  23.699   8.211   9.150
 4565POPC   GL1 5569  23.670   8.177   8.850
 4565POPC   GL2 5570  23.568   8.087   8.850
 4565POPC   C1A 5571  23.751   8.229   8.550
 4565POPC   D2A 5572  23.754   8.195   8.250
 4565POPC   C3A 5573  23.743   8.164   7.950
 4565POPC   C4A 5574  23.667   8.232   7.650
 4565POPC   C1B 5575  23.528   8.078   8.550
 4565POPC   C2B 5576  23.460   8.098   8.250
 4565POPC   C3B 5577  23.502   8.027   7.950
 4565POPC   C4B 5578  23.456   8.054   7.650
 4566POPC   NC3 5579  16.774   5.135   9.450
 4566POPC   PO4 5580  16.724   5.113   9.150
 4566POPC   GL1 5581  16.684   5.061   8.850
 4566POPC   GL2 5582  16.875   5.179   8.850
 4566POPC   C1A 5583  16.762   5.081   8.550
 4566POPC   D2A 5584  16.697   5.059   8.250
 4566POPC   C3A 5585  16.780   5.082   7.950
 4566POPC   C4A 5586  16.759   5.092   7.650
 4566POPC   C1B 5587  16.984   5.226   8.550
 4566POPC   C2B 5588  16.949   5.235   8.250
 4566POPC   C3B 5589  16.895   5.242   7.950
 4566POPC   C4B 5590  16.946   5.232   7.650
 4567POPC   NC3 5591  41.554  34.585   9.450
 4567POPC   PO4 5592  41.594  34.624   9.150
 4567POPC   GL1 5593  41.576  34.616   8.850
 4567POPC   GL2 5594  41.687  34.471   8.850
 4567POPC   C1A 5595  41.564  34.527   8.550
 4567POPC   D2A 5596  41.598  34.590   8.250
 4567POPC   C3A 5597  41.529  34.570   7.950
 4567POPC   C4A 5598  41.553  34.584   7.650
 4567POPC   C1B 5599  41.750  34.428   8.550
 4567POPC   C2B 5600  41.776  34.476   8.250
 4567POPC   C3B 5601  41.757  34.448   7.950
 4567POPC   C4B 5602  41.743  34.414   7.650
 4568POPC   NC3 5603  43.121   9.751   9.450
 4568POPC   PO4 5604  43.099   9.744   9.150
 4568POPC   GL1 5605  43.137   9.736   8.850
 4568POPC   GL2 5606  43.210   9.808   8.850
 4568POPC   C1A 5607  43.070   9.725   8.550
 4568POPC   D2A 5608  43.107   9.777   8.250
 4568POPC   C3A 5609  43.107   9.700   7.950
 4568POPC   C4A 5610  43.127   9.792   7.650
 4568POPC   C1B 5611  43.384   9.811   8.550
 4568POPC   C2B 5612  43.324   9.735   8.250
 4568POPC   C3B 5613  43.406   9.760   7.950
 4568POPC   C4B 5614  43.357   9.769   7.650
 4569POPC   NC3 5615  39.197   7.378   9.450
 4569POPC   PO4 5616  39.271   7.416   9.150
 4569POPC   GL1 5617  39.230   7.383   8.850
 4569POPC   GL2 5618  39.146   7.461   8.850
 4569POPC   C1A 5619  39.216   7.373   8.550
 4569POPC   D2A 5620  39.253   7.461   8.250
 4569POPC   C3A 5621  39.185   7.448   7.950
 4569POPC   C4A 5622  39.253   7.390   7.650
 4569POPC   C1B 5623  38.990   7.362   8.550
 4569POPC   C2B 5624  38.951   7.456   8.250
 4569POPC   C3B 5625  38.959   7.358   7.950
 4569POPC   C4B 5626  38.955   7.368   7.650
 4570POPC   NC3 5627  26.786  32.262   9.450
 4570POPC   PO4 5628  26.785  32.285   9.150
 4570POPC   GL1 5629  26.818  32.265   8.850
 4570POPC   GL2 5630  26.925  32.173   8.850
 4570POPC   C1A 5631  26.828  32.205   8.550
 4570POPC   D2A 5632  26.829  32.260   8.250
 4570POPC   C3A 5633  26.822  32.204   7.950
 4570POPC   C4A 5634  26.794  32.244   7.650
 4570POPC   C1B 5635  27.017  32.179   8.550
 4570POPC   C2B 5636  27.088  32.209   8.250
 4570POPC   C3B 5637  27.061  32.139   7.950
 4570POPC   C4B 5638  27.009  32.212   7.650
 4571POPC   NC3 5639  24.509  20.642   9.450
 4571POPC   PO4 5640  24.449  20.618   9.150
 4571POPC   GL1 5641  24.441  20.615   8.850
 4571POPC   GL2 5642  24.512  20.752   8.850
 4571POPC   C1A 5643  24.520  20.579   8.550
 4571POPC   D2A 5644  24.538  20.579   8.250
 4571POPC   C3A 5645  24.511  20.620   7.950
 4571POPC   C4A 5646  24.480  20.609   7.650
 4571POPC   C1B 5647  24.594  20.875   8.550
 4571POPC   C2B 5648  24.589  20.868   8.250
 4571POPC   C3B 5649  24.522  20.866   7.950
 4571POPC   C4B 5650  24.501  20.824   7.650
 4572POPC   NC3 5651  41.533   1.225   9.450
 4572POPC   PO4 5652  41.532   1.264   9.150
 4572POPC   GL1 5653  41.554   1.166   8.850
 4572POPC   GL2 5654  41.684   1.149   8.850
 4572POPC   C1A 5655  41.518   1.259   8.550
 4572POPC   D2A 5656  41.580   1.226   8.250
 4572POPC   C3A 5657  41.563   1.178   7.950
 4572POPC   C4A 5658  41.571   1.245   7.650
 4572POPC   C1B 5659  41.841   1.134   8.550
 4572POPC   C2B 5660  41.755   1.158   8.250
 4572POPC   C3B 5661  41.796   1.166   7.950
 4572POPC   C4B 5662  41.758   1.125   7.650
 4573POPC   NC3 5663  18.292  18.311   9.450
 4573POPC   PO4 5664  18.286  18.276   9.150
 4573POPC   GL1 5665  18.264  18.331   8.850
 4573POPC   GL2 5666  18.285  18.181   8.850
 4573POPC   C1A 5667  18.311  18.291   8.550
 4573POPC   D2A 5668  18.320  18.251   8.250
 4573POPC   C3A 5669  18.319  18.235   7.950
 4573POPC   C4A 5670  18.266  18.283   7.650
 4573POPC   C1B 5671  18.205  18.049   8.550
 4573POPC   C2B 5672  18.197  18.006   8.250
 4573POPC   C3B 5673  18.206  18.059   7.950
 4573POPC   C4B 5674  18.206  18.032   7.650
 4574POPC   NC3 5675  14.392  12.892   9.450
 4574POPC   PO4 5676  14.411  12.852   9.150
 4574POPC   GL1 5677  14.452  12.850   8.850
 4574POPC   GL2 5678  14.479  12.744   8.850
 4574POPC   C1A 5679  14.432  12.855   8.550
 4574POPC   D2A 5680  14.387  12.834   8.250
 4574POPC   C3A 5681  14.418  12.880   7.950
 4574POPC   C4A 5682  14.410  12.818   7.650
 4574POPC   C1B 5683  14.615  12.716   8.550
 4574POPC   C2B 5684  14.613  12.706   8.250
 4574POPC   C3B 5685  14.578  12.739   7.950
 4574POPC   C4B 5686  14.626  12.693   7.650
 4575POPC   NC3 5687  19.800  17.468   9.450
 4575POPC   PO4 5688  19.819  17.500   9.150
 4575POPC   GL1 5689  19.845  17.540   8.850
 4575POPC   GL2 5690  19.771  17.631   8.850
 4575POPC   C1A 5691  19.834  17.490   8.550
 4575POPC   D2A 5692  19.789  17.549   8.250
 4575POPC   C3A 5693  19.819  17.471   7.950
 4575POPC   C4A 5694  19.884  17.508   7.650
 4575POPC   C1B 5695  19.683  17.728   8.550
 4575POPC   C2B 5696  19.683  17.686   8.250
 4575POPC   C3B 5697  19.609  17.686   7.950
 4575POPC   C4B 5698  19.676  17.640   7.650
 4576POPC   NC3 5699  19.079  15.224   9.450
 4576POPC   PO4 5700  19.070  15.224   9.150
 4576POPC   GL1 5701  19.074  15.218   8.850
 4576POPC   GL2 5702  19.195  15.118   8.850
 4576POPC   C1A 5703  19.044  15.225   8.550
 4576POPC   D2A 5704  19.051  15.198   8.250
 4576POPC   C3A 5705  19.059  15.141   7.950
 4576POPC   C4A 5706  19.022  15.172   7.650
 4576POPC   C1B 5707  19.265  15.147   8.550
 4576POPC   C2B 5708  19.302  15.148   8.250
 4576POPC   C3B 5709  19.254  15.152   7.950
 4576POPC   C4B 5710  19.271  15.126   7.650
 4577POPC   NC3 5711   5.871  44.660   9.450
 4577POPC   PO4 5712   5.837  44.617   9.150
 4577POPC   GL1 5713   5.882  44.695   8.850
 4577POPC   GL2 5714   5.793  44.565   8.850
 4577POPC   C1A 5715   5.897  44.653   8.550
 4577POPC   D2A 5716   5.915  44.695   8.250
 4577POPC   C3A 5717   5.864  44.655   7.950
 4577POPC   C4A 5718   5.875  44.677   7.650
 4577POPC   C1B 5719   5.625  44.500   8.550
 4577POPC   C2B 5720   5.681  44.553   8.250
 4577POPC   C3B 5721   5.653  44.543   7.950
 4577POPC   C4B 5722   5.704  44.528   7.650
 4578POPC   NC3 5723   2.024  15.208   9.450
 4578POPC   PO4 5724   1.984  15.216   9.150
 4578POPC   GL1 5725   1.993  15.199   8.850
 4578POPC   GL2 5726   2.052  15.020   8.850
 4578POPC   C1A 5727   1.979  15.140   8.550
 4578POPC   D2A 5728   1.978  15.212   8.250
 4578POPC   C3A 5729   1.982  15.225   7.950
 4578POPC   C4A 5730   1.976  15.213   7.650
 4578POPC   C1B 5731   2.069  14.891   8.550
 4578POPC   C2B 5732   2.093  14.951   8.250
 4578POPC   C3B 5733   2.058  14.982   7.950
 4578POPC   C4B 5734   2.011  14.932   7.650
 4579POPC   NC3 5735   9.015  22.929   9.450
 4579POPC   PO4 5736   8.926  22.931   9.150
 4579POPC   GL1 5737   8.996  22.964   8.850
 4579POPC   GL2 5738   8.955  22.860   8.850
 4579POPC   C1A 5739   9.006  22.895   8.550
 4579POPC   D2A 5740   8.925  22.970   8.250
 4579POPC   C3A 5741   8.974  22.901   7.950
 4579POPC   C4A 5742   8.960  22.945   7.650
 4579POPC   C1B 5743   8.897  22.723   8.550
 4579POPC   C2B 5744   8.850  22.753   8.250
 4579POPC   C3B 5745   8.832  22.699   7.950
 4579POPC   C4B 5746   8.917  22.735   7.650
 4580POPC   NC3 5747  36.865  36.902   9.450
 4580POPC   PO4 5748  36.884  36.917   9.150
 4580POPC   GL1 5749  36.873  36.895   8.850
 4580POPC   GL2 5750  36.929  36.980   8.850
 4580POPC   C1A 5751  36.857  36.858   8.550
 4580POPC   D2A 5752  36.869  36.897   8.250
 4580POPC   C3A 5753  36.927  36.912   7.950
 4580POPC   C4A 5754  36.898  36.933   7.650
 4580POPC   C1B 5755  37.000  37.133   8.550
 4580POPC   C2B 5756  36.958  37.109   8.250
 4580POPC   C3B 5757  37.019  37.111   7.950
 4580POPC   C4B 5758  36.984  37.152   7.650
 4581POPC   NC3 5759  37.687  21.399   9.450
 4581POPC   PO4 5760  37.715  21.342   9.150
 4581POPC   GL1 5761  37.671  21.340   8.850
 4581POPC   GL2 5762  37.657  21.526   8.850
 4581POPC   C1A 5763  37.665  21.371   8.550
 4581POPC   D2A 5764  37.707  21.368   8.250
 4581POPC   C3A 5765  37.702  21.364   7.950
 4581POPC   C4A 5766  37.692  21.396   7.650
 4581POPC   C1B 5767  37.575  21.588   8.550
 4581POPC   C2B 5768  37.534  21.642   8.250
 4581POPC   C3B 5769  37.540  21.647   7.950
 4581POPC   C4B 5770  37.522  21.623   7.650
 4582POPC   NC3 5771  22.140   0.453   9.450
 4582POPC   PO4 5772  22.191   0.396   9.150
 4582POPC   GL1 5773  22.121   0.448   8.850
 4582POPC   GL2 5774  22.234   0.548   8.850
 4582POPC   C1A 5775  22.210   0.406   8.550
 4582POPC   D2A 5776  22.158   0.458   8.250
 4582POPC   C3A 5777  22.192   0.472   7.950
 4582POPC   C4A 5778  22.200   0.432   7.650
 4582POPC   C1B 5779  22.293   0.681   8.550
 4582POPC   C2B 5780  22.223   0.641   8.250
 4582POPC   C3B 5781  22.256   0.671   7.950
 4582POPC   C4B 5782  22.234   0.676   7.650
 4583POPC   NC3 5783   2.789  23.754   9.450
 4583POPC   PO4 5784   2.798  23.702   9.150
 4583POPC   GL1 5785   2.719  23.758   8.850
 4583POPC   GL2 5786   2.776  23.599   8.850
 4583POPC   C1A 5787   2.786  23.731   8.550
 4583POPC   D2A 5788   2.796  23.698   8.250
 4583POPC   C3A 5789   2.751  23.686   7.950
 4583POPC   C4A 5790   2.720  23.708   7.650
 4583POPC   C1B 5791   2.668  23.473   8.550
 4583POPC   C2B 5792   2.710  23.437   8.250
 4583POPC   C3B 5793   2.756  23.507   7.950
 4583POPC   C4B 5794   2.685  23.464   7.650
 4584POPC   NC3 5795  27.593   6.680   9.450
 4584POPC   PO4 5796  27.640   6.609   9.150
 4584POPC   GL1 5797  27.578   6.623   8.850
 4584POPC   GL2 5798  27.584   6.789   8.850
 4584POPC   C1A 5799  27.631   6.651   8.550
 4584POPC   D2A 5800  27.626   6.616   8.250
 4584POPC   C3A 5801  27.548   6.596   7.950
 4584POPC   C4A 5802  27.637   6.678   7.650
 4584POPC   C1B 5803  27.532   6.895   8.550
 4584POPC   C2B 5804  27.528   6.889   8.250
 4584POPC   C3B 5805  27.597   6.855   7.950
 4584POPC   C4B 5806  27.524   6.876   7.650
 4585POPC   NC3 5807   9.701  29.934   9.450
 4585POPC   PO4 5808   9.750  29.946   9.150
 4585POPC   GL1 5809   9.768  29.970   8.850
 4585POPC   GL2 5810   9.863  30.056   8.850
 4585POPC   C1A 5811   9.785  29.916   8.550
 4585POPC   D2A 5812   9.719  29.903   8.250
 4585POPC   C3A 5813   9.759  29.936   7.950
 4585POPC   C4A 5814   9.769  29.877   7.650
 4585POPC   C1B 5815   9.884  30.145   8.550
 4585POPC   C2B 5816   9.897  30.134   8.250
 4585POPC   C3B 5817   9.866  30.135   7.950
 4585POPC   C4B 5818   9.892  30.140   7.650
 4586POPC   NC3 5819  32.977  43.145   9.450
 4586POPC   PO4 5820  33.049  43.082   9.150
 4586POPC   GL1 5821  32.984  43.144   8.850
 4586POPC   GL2 5822  32.984  43.255   8.850
 4586POPC   C1A 5823  33.072  43.114   8.550
 4586POPC   D2A 5824  33.042  43.157   8.250
 4586POPC   C3A 5825  32.974  43.084   7.950
 4586POPC   C4A 5826  33.060  43.111   7.650
 4586POPC   C1B 5827  32.963  43.327   8.550
 4586POPC   C2B 5828  32.936  43.344   8.250
 4586POPC   C3B 5829  32.949  43.382   7.950
 4586POPC   C4B 5830  32.947  43.327   7.650
 4587POPC   NC3 5831  43.084  14.436   9.450
 4587POPC   PO4 5832  43.150  14.387   9.150
 4587POPC   GL1 5833  43.074  14.421   8.850
 4587POPC   GL2 5834  43.016  14.429   8.850
 4587POPC   C1A 5835  43.126  14.439   8.550
 4587POPC   D2A 5836  43.125  14.431   8.250
 4587POPC   C3A 5837  43.087  14.379   7.950
 4587POPC   C4A 5838  43.106  14.425   7.650
 4587POPC   C1B 5839  42.830  14.408   8.550
 4587POPC   C2B 5840  42.899  14.422   8.250
 4587POPC   C3B 5841  42.871  14.382   7.950
 4587POPC   C4B 5842  42.889  14.402   7.650
 4588POPC   NC3 5843  32.980  35.385   9.450
 4588POPC   PO4 5844  33.041  35.391   9.150
 4588POPC   GL1 5845  33.060  35.329   8.850
 4588POPC   GL2 5846  32.963  35.383   8.850
 4588POPC   C1A 5847  33.037  35.349   8.550
 4588POPC   D2A 5848  33.013  35.314   8.250
 4588POPC   C3A 5849  32.988  35.387   7.950
 4588POPC   C4A 5850  32.978  35.364   7.650
 4588POPC   C1B 5851  32.825  35.554   8.550
 4588POPC   C2B 5852  32.781  35.548   8.250
 4588POPC   C3B 5853  32.826  35.466   7.950
 4588POPC   C4B 5854  32.821  35.469   7.650
 4589POPC   NC3 5855  11.254  20.576   9.450
 4589POPC   PO4 5856  11.309  20.574   9.150
 4589POPC   GL1 5857  11.319  20.614   8.850
 4589POPC   GL2 5858  11.381  20.475   8.850
 4589POPC   C1A 5859  11.301  20.585   8.550
 4589POPC   D2A 5860  11.258  20.618   8.250
 4589POPC   C3A 5861  11.261  20.636   7.950
 4589POPC   C4A 5862  11.315  20.585   7.650
 4589POPC   C1B 5863  11.399  20.377   8.550
 4589POPC   C2B 5864  11.350  20.391   8.250
 4589POPC   C3B 5865  11.414  20.356   7.950
 4589POPC   C4B 5866  11.390  20.415   7.650
 4590POPC   NC3 5867  43.916  26.022   9.450
 4590POPC   PO4 5868  43.860  26.059   9.150
 4590POPC   GL1 5869  43.925  26.060   8.850
 4590POPC   GL2 5870  43.890  26.178   8.850
 4590POPC   C1A 5871  43.886  26.042   8.550
 4590POPC   D2A 5872  43.891  26.022   8.250
 4590POPC   C3A 5873  43.919  26.088   7.950
 4590POPC   C4A 5874  43.840  26.036   7.650
 4590POPC   C1B 5875  43.896  26.254   8.550
 4590POPC   C2B 5876  43.851  26.281   8.250
 4590POPC   C3B 5877  43.867  26.282   7.950
 4590POPC   C4B 5878  43.842  26.326   7.650
 4591POPC   NC3 5879  21.415  23.666   9.450
 4591POPC   PO4 5880  21.369  23.730   9.150
 4591POPC   GL1 5881  21.351  23.692   8.850
 4591POPC   GL2 5882  21.480  23.798   8.850
 4591POPC   C1A 5883  21.432  23.726   8.550
 4591POPC   D2A 5884  21.428  23.733   8.250
 4591POPC   C3A 5885  21.434  23.692   7.950
 4591POPC   C4A 5886  21.354  23.701   7.650
 4591POPC   C1B 5887  21.579  23.942   8.550
 4591POPC   C2B 5888  21.576  23.857   8.250
 4591POPC   C3B 5889  21.582  23.895   7.950
 4591POPC   C4B 5890  21.583  23.950   7.650
 4592POPC   NC3 5891   4.316  21.378   9.450
 4592POPC   PO4 5892   4.343  21.405   9.150
 4592POPC   GL1 5893   4.315  21.352   8.850
 4592POPC   GL2 5894   4.425  21.376   8.850
 4592POPC   C1A 5895   4.352  21.338   8.550
 4592POPC   D2A 5896   4.268  21.407   8.250
 4592POPC   C3A 5897   4.363  21.368   7.950
 4592POPC   C4A 5898   4.294  21.357   7.650
 4592POPC   C1B 5899   4.576  21.353   8.550
 4592POPC   C2B 5900   4.541  21.325   8.250
 4592POPC   C3B 5901   4.580  21.327   7.950
 4592POPC   C4B 5902   4.615  21.409   7.650
 4593POPC   NC3 5903  14.414  35.367   9.450
 4593POPC   PO4 5904  14.356  35.397   9.150
 4593POPC   GL1 5905  14.397  35.336   8.850
 4593POPC   GL2 5906  14.428  35.489   8.850
 4593POPC   C1A 5907  14.380  35.344   8.550
 4593POPC   D2A 5908  14.407  35.344   8.250
 4593POPC   C3A 5909  14.418  35.307   7.950
 4593POPC   C4A 5910  14.423  35.340   7.650
 4593POPC   C1B 5911  14.396  35.598   8.550
 4593POPC   C2B 5912  14.423  35.611   8.250
 4593POPC   C3B 5913  14.425  35.629   7.950
 4593POPC   C4B 5914  14.449  35.557   7.650
 4594POPC   NC3 5915  23.680  41.528   9.450
 4594POPC   PO4 5916  23.754  41.523   9.150
 4594POPC   GL1 5917  23.754  41.572   8.850
 4594POPC   GL2 5918  23.859  41.663   8.850
 4594POPC   C1A 5919  23.674  41.563   8.550
 4594POPC   D2A 5920  23.728  41.534   8.250
 4594POPC   C3A 5921  23.729  41.515   7.950
 4594POPC   C4A 5922  23.728  41.557   7.650
 4594POPC   C1B 5923  23.894  41.701   8.550
 4594POPC   C2B 5924  23.951  41.647   8.250
 4594POPC   C3B 5925  23.941  41.649   7.950
 4594POPC   C4B 5926  23.970  41.684   7.650
 4595POPC   NC3 5927   3.505  29.105   9.450
 4595POPC   PO4 5928   3.570  29.185   9.150
 4595POPC   GL1 5929   3.494  29.184   8.850
 4595POPC   GL2 5930   3.487  29.193   8.850
 4595POPC   C1A 5931   3.497  29.183   8.550
 4595POPC   D2A 5932   3.493  29.162   8.250
 4595POPC   C3A 5933   3.575  29.156   7.950
 4595POPC   C4A 5934   3.519  29.139   7.650
 4595POPC   C1B 5935   3.337  29.345   8.550
 4595POPC   C2B 5936   3.344  29.323   8.250
 4595POPC   C3B 5937   3.375  29.303   7.950
 4595POPC   C4B 5938   3.368  29.335   7.650
 4596POPC   NC3 5939  32.221  36.927   9.450
 4596POPC   PO4 5940  32.242  36.895   9.150
 4596POPC   GL1 5941  32.227  36.859   8.850
 4596POPC   GL2 5942  32.321  36.904   8.850
 4596POPC   C1A 5943  32.281  36.867   8.550
 4596POPC   D2A 5944  32.290  36.947   8.250
 4596POPC   C3A 5945  32.266  36.919   7.950
 4596POPC   C4A 5946  32.205  36.858   7.650
 4596POPC   C1B 5947  32.501  36.859   8.550
 4596POPC   C2B 5948  32.492  36.863   8.250
 4596POPC   C3B 5949  32.501  36.778   7.950
 4596POPC   C4B 5950  32.494  36.862   7.650
 4597POPC   NC3 5951  41.598  17.554   9.450
 4597POPC   PO4 5952  41.545  17.463   9.150
 4597POPC   GL1 5953  41.589  17.469   8.850
 4597POPC   GL2 5954  41.660  17.514   8.850
 4597POPC   C1A 5955  41.568  17.542   8.550
 4597POPC   D2A 5956  41.523  17.476   8.250
 4597POPC   C3A 5957  41.550  17.513   7.950
 4597POPC   C4A 5958  41.554  17.459   7.650
 4597POPC   C1B 5959  41.792  17.467   8.550
 4597POPC   C2B 5960  41.825  17.520   8.250
 4597POPC   C3B 5961  41.783  17.509   7.950
 4597POPC   C4B 5962  41.763  17.496   7.650
 4598POPC   NC3 5963  31.475   9.728   9.450
 4598POPC   PO4 5964  31.481   9.725   9.150
 4598POPC   GL1 5965  31.460   9.758   8.850
 4598POPC   GL2 5966  31.441   9.598   8.850
 4598POPC   C1A 5967  31.518   9.753   8.550
 4598POPC   D2A 5968  31.474   9.737   8.250
 4598POPC   C3A 5969  31.461   9.734   7.950
 4598POPC   C4A 5970  31.466   9.708   7.650
 4598POPC   C1B 5971  31.412   9.481   8.550
 4598POPC   C2B 5972  31.395   9.525   8.250
 4598POPC   C3B 5973  31.410   9.512   7.950
 4598POPC   C4B 5974  31.394   9.562   7.650
 4599POPC   NC3 5975  37.712  22.211   9.450
 4599POPC   PO4 5976  37.692  22.122   9.150
 4599POPC   GL1 5977  37.710  22.187   8.850
 4599POPC   GL2 5978  37.602  22.268   8.850
 4599POPC   C1A 5979  37.663  22.117   8.550
 4599POPC   D2A 5980  37.657  22.148   8.250
 4599POPC   C3A 5981  37.679  22.169   7.950
 4599POPC   C4A 5982  37.664  22.211   7.650
 4599POPC   C1B 5983  37.663  22.446   8.550
 4599POPC   C2B 5984  37.622  22.382   8.250
 4599POPC   C3B 5985  37.576  22.441   7.950
 4599POPC   C4B 5986  37.610  22.410   7.650
 4600POPC   NC3 5987  10.567   5.131   9.450
 4600POPC   PO4 5988  10.507   5.125   9.150
 4600POPC   GL1 5989  10.500   5.091   8.850
 4600POPC   GL2 5990  10.509   4.959   8.850
 4600POPC   C1A 5991  10.567   5.074   8.550
 4600POPC   D2A 5992  10.529   5.092   8.250
 4600POPC   C3A 5993  10.518   5.118   7.950
 4600POPC   C4A 5994  10.517   5.111   7.650
 4600POPC   C1B 5995  10.470   4.854   8.550
 4600POPC   C2B 5996  10.516   4.854   8.250
 4600POPC   C3B 5997  10.485   4.817   7.950
 4600POPC   C4B 5998  10.448   4.829   7.650
 4601POPC   NC3 5999   2.036  38.498   9.450
 4601POPC   PO4 6000   2.013  38.416   9.150
 4601POPC   GL1 6001   1.989  38.415   8.850
 4601POPC   GL2 6002   2.088  38.310   8.850
 4601POPC   C1A 6003   1.962  38.442   8.550
 4601POPC   D2A 6004   2.030  38.438   8.250
 4601POPC   C3A 6005   2.030  38.432   7.950
 4601POPC   C4A 6006   2.019  38.450   7.650
 4601POPC   C1B 6007   2.109  38.214   8.550
 4601POPC   C2B 6008   2.079  38.219   8.250
 4601POPC   C3B 6009   2.075  38.222   7.950
 4601POPC   C4B 6010   2.151  38.284   7.650
 4602POPC   NC3 6011  15.970  38.410   9.450
 4602POPC   PO4 6012  15.912  38.471   9.150
 4602POPC   GL1 6013  15.952  38.498   8.850
 4602POPC   GL2 6014  15.899  38.372   8.850
 4602POPC   C1A 6015  16.004  38.502   8.550
 4602POPC   D2A 6016  15.909  38.436   8.250
 4602POPC   C3A 6017  15.990  38.469   7.950
 4602POPC   C4A 6018  15.955  38.492   7.650
 4602POPC   C1B 6019  15.782  38.292   8.550
 4602POPC   C2B 6020  15.762  38.208   8.250
 4602POPC   C3B 6021  15.780  38.240   7.950
 4602POPC   C4B 6022  15.773  38.279   7.650
 4603POPC   NC3 6023   8.955  25.273   9.450
 4603POPC   PO4 6024   8.939  25.219   9.150
 4603POPC   GL1 6025   8.974  25.295   8.850
 4603POPC   GL2 6026   8.881  25.358   8.850
 4603POPC   C1A 6027   8.990  25.299   8.550
 4603POPC   D2A 6028   9.020  25.257   8.250
 4603POPC   C3A 6029   9.014  25.221   7.950
 4603POPC   C4A 6030   8.996  25.298   7.650
 4603POPC   C1B 6031   8.713  25.376   8.550
 4603POPC   C2B 6032   8.753  25.380   8.250
 4603POPC   C3B 6033   8.758  25.336   7.950
 4603POPC   C4B 6034   8.781  25.396   7.650
 4604POPC   NC3 6035  30.728   8.947   9.450
 4604POPC   PO4 6036  30.682   9.004   9.150
 4604POPC   GL1 6037  30.743   9.017   8.850
 4604POPC   GL2 6038  30.570   8.914   8.850
 4604POPC   C1A 6039  30.667   8.979   8.550
 4604POPC   D2A 6040  30.671   8.933   8.250
 4604POPC   C3A 6041  30.651   8.933   7.950
 4604POPC   C4A 6042  30.665   8.930   7.650
 4604POPC   C1B 6043  30.434   8.841   8.550
 4604POPC   C2B 6044  30.477   8.820   8.250
 4604POPC   C3B 6045  30.518   8.883   7.950
 4604POPC   C4B 6046  30.521   8.906   7.650
 4605POPC   NC3 6047  29.123  11.260   9.450
 4605POPC   PO4 6048  29.170  11.275   9.150
 4605POPC   GL1 6049  29.165  11.256   8.850
 4605POPC   GL2 6050  29.197  11.176   8.850
 4605POPC   C1A 6051  29.126  11.251   8.550
 4605POPC   D2A 6052  29.109  11.312   8.250
 4605POPC   C3A 6053  29.144  11.261   7.950
 4605POPC   C4A 6054  29.142  11.316   7.650
 4605POPC   C1B 6055  29.310  11.085   8.550
 4605POPC   C2B 6056  29.356  11.110   8.250
 4605POPC   C3B 6057  29.354  11.095   7.950
 4605POPC   C4B 6058  29.324  11.083   7.650
 4606POPC   NC3 6059  33.802  28.408   9.450
 4606POPC   PO4 6060  33.829  28.352   9.150
 4606POPC   GL1 6061  33.763  28.396   8.850
 4606POPC   GL2 6062  33.886  28.425   8.850
 4606POPC   C1A 6063  33.815  28.353   8.550
 4606POPC   D2A 6064  33.780  28.399   8.250
 4606POPC   C3A 6065  33.786  28.350   7.950
 4606POPC   C4A 6066  33.807  28.390   7.650
 4606POPC   C1B 6067  34.043  28.516   8.550
 4606POPC   C2B 6068  34.037  28.492   8.250
 4606POPC   C3B 6069  34.051  28.520   7.950
 4606POPC   C4B 6070  34.060  28.525   7.650
 4607POPC   NC3 6071  19.832   8.936   9.450
 4607POPC   PO4 6072  19.865   8.986   9.150
 4607POPC   GL1 6073  19.814   8.932   8.850
 4607POPC   GL2 6074  19.919   8.921   8.850
 4607POPC   C1A 6075  19.818   8.931   8.550
 4607POPC   D2A 6076  19.847   9.006   8.250
 4607POPC   C3A 6077  19.804   8.951   7.950
 4607POPC   C4A 6078  19.832   9.008   7.650
 4607POPC   C1B 6079  20.078   8.916   8.550
 4607POPC   C2B 6080  20.052   8.924   8.250
 4607POPC   C3B 6081  20.107   8.955   7.950
 4607POPC   C4B 6082  20.111   8.926   7.650
 4608POPC   NC3 6083   7.383  40.772   9.450
 4608POPC   PO4 6084   7.427  40.760   9.150
 4608POPC   GL1 6085   7.447  40.827   8.850
 4608POPC   GL2 6086   7.433  40.682   8.850
 4608POPC   C1A 6087   7.455  40.774   8.550
 4608POPC   D2A 6088   7.432  40.822   8.250
 4608POPC   C3A 6089   7.392  40.765   7.950
 4608POPC   C4A 6090   7.383  40.744   7.650
 4608POPC   C1B 6091   7.538  40.540   8.550
 4608POPC   C2B 6092   7.477  40.587   8.250
 4608POPC   C3B 6093   7.544  40.544   7.950
 4608POPC   C4B 6094   7.550  40.546   7.650
 4609POPC   NC3 6095  10.571  23.728   9.450
 4609POPC   PO4 6096  10.539  23.732   9.150
 4609POPC   GL1 6097  10.554  23.730   8.850
 4609POPC   GL2 6098  10.674  23.711   8.850
 4609POPC   C1A 6099  10.502  23.681   8.550
 4609POPC   D2A 6100  10.508  23.690   8.250
 4609POPC   C3A 6101  10.545  23.681   7.950
 4609POPC   C4A 6102  10.508  23.675   7.650
 4609POPC   C1B 6103  10.765  23.666   8.550
 4609POPC   C2B 6104  10.714  23.630   8.250
 4609POPC   C3B 6105  10.767  23.655   7.950
 4609POPC   C4B 6106  10.780  23.640   7.650
 4610POPC   NC3 6107  34.545   8.239   9.450
 4610POPC   PO4 6108  34.587   8.238   9.150
 4610POPC   GL1 6109  34.562   8.208   8.850
 4610POPC   GL2 6110  34.641   8.041   8.850
 4610POPC   C1A 6111  34.571   8.246   8.550
 4610POPC   D2A 6112  34.607   8.197   8.250
 4610POPC   C3A 6113  34.565   8.173   7.950
 4610POPC   C4A 6114  34.573   8.234   7.650
 4610POPC   C1B 6115  34.589   7.961   8.550
 4610POPC   C2B 6116  34.682   7.965   8.250
 4610POPC   C3B 6117  34.587   7.959   7.950
 4610POPC   C4B 6118  34.591   7.952   7.650
 4611POPC   NC3 6119  20.620  17.553   9.450
 4611POPC   PO4 6120  20.603  17.468   9.150
 4611POPC   GL1 6121  20.646  17.548   8.850
 4611POPC   GL2 6122  20.536  17.623   8.850
 4611POPC   C1A 6123  20.639  17.504   8.550
 4611POPC   D2A 6124  20.631  17.482   8.250
 4611POPC   C3A 6125  20.562  17.505   7.950
 4611POPC   C4A 6126  20.564  17.475   7.650
 4611POPC   C1B 6127  20.426  17.694   8.550
 4611POPC   C2B 6128  20.371  17.623   8.250
 4611POPC   C3B 6129  20.433  17.637   7.950
 4611POPC   C4B 6130  20.422  17.690   7.650
 4612POPC   NC3 6131  26.831  11.315   9.450
 4612POPC   PO4 6132  26.847  11.265   9.150
 4612POPC   GL1 6133  26.775  11.265   8.850
 4612POPC   GL2 6134  26.856  11.189   8.850
 4612POPC   C1A 6135  26.837  11.302   8.550
 4612POPC   D2A 6136  26.867  11.334   8.250
 4612POPC   C3A 6137  26.808  11.341   7.950
 4612POPC   C4A 6138  26.788  11.268   7.650
 4612POPC   C1B 6139  26.825  11.073   8.550
 4612POPC   C2B 6140  26.866  11.028   8.250
 4612POPC   C3B 6141  26.809  11.082   7.950
 4612POPC   C4B 6142  26.864  11.006   7.650
 4613POPC   NC3 6143  20.610  14.360   9.450
 4613POPC   PO4 6144  20.561  14.390   9.150
 4613POPC   GL1 6145  20.575  14.439   8.850
 4613POPC   GL2 6146  20.707  14.342   8.850
 4613POPC   C1A 6147  20.646  14.417   8.550
 4613POPC   D2A 6148  20.601  14.391   8.250
 4613POPC   C3A 6149  20.574  14.362   7.950
 4613POPC   C4A 6150  20.595  14.382   7.650
 4613POPC   C1B 6151  20.788  14.230   8.550
 4613POPC   C2B 6152  20.828  14.280   8.250
 4613POPC   C3B 6153  20.824  14.278   7.950
 4613POPC   C4B 6154  20.779  14.248   7.650
 4614POPC   NC3 6155   1.969  27.563   9.450
 4614POPC   PO4 6156   2.000  27.587   9.150
 4614POPC   GL1 6157   1.944  27.566   8.850
 4614POPC   GL2 6158   1.921  27.554   8.850
 4614POPC   C1A 6159   1.950  27.586   8.550
 4614POPC   D2A 6160   2.014  27.570   8.250
 4614POPC   C3A 6161   1.990  27.628   7.950
 4614POPC   C4A 6162   2.003  27.571   7.650
 4614POPC   C1B 6163   1.790  27.552   8.550
 4614POPC   C2B 6164   1.717  27.474   8.250
 4614POPC   C3B 6165   1.739  27.540   7.950
 4614POPC   C4B 6166   1.797  27.530   7.650
 4615POPC   NC3 6167  32.282  42.303   9.450
 4615POPC   PO4 6168  32.247  42.376   9.150
 4615POPC   GL1 6169  32.233  42.340   8.850
 4615POPC   GL2 6170  32.211  42.474   8.850
 4615POPC   C1A 6171  32.216  42.326   8.550
 4615POPC   D2A 6172  32.205  42.356   8.250
 4615POPC   C3A 6173  32.235  42.366   7.950
 4615POPC   C4A 6174  32.252  42.307   7.650
 4615POPC   C1B 6175  32.051  42.544   8.550
 4615POPC   C2B 6176  32.111  42.538   8.250
 4615POPC   C3B 6177  32.104  42.514   7.950
 4615POPC   C4B 6178  32.104  42.525   7.650
 4616POPC   NC3 6179  21.434  12.082   9.450
 4616POPC   PO4 6180  21.394  12.048   9.150
 4616POPC   GL1 6181  21.416  12.102   8.850
 4616POPC   GL2 6182  21.268  12.018   8.850
 4616POPC   C1A 6183  21.423  12.063   8.550
 4616POPC   D2A 6184  21.408  12.092   8.250
 4616POPC   C3A 6185  21.358  12.034   7.950
 4616POPC   C4A 6186  21.429  12.105   7.650
 4616POPC   C1B 6187  21.146  11.954   8.550
 4616POPC   C2B 6188  21.179  11.912   8.250
 4616POPC   C3B 6189  21.176  11.919   7.950
 4616POPC   C4B 6190  21.177  11.918   7.650
 4617POPC   NC3 6191  15.144  38.472   9.450
 4617POPC   PO4 6192  15.184  38.503   9.150
 4617POPC   GL1 6193  15.178  38.421   8.850
 4617POPC   GL2 6194  15.085  38.582   8.850
 4617POPC   C1A 6195  15.206  38.442   8.550
 4617POPC   D2A 6196  15.170  38.415   8.250
 4617POPC   C3A 6197  15.194  38.456   7.950
 4617POPC   C4A 6198  15.216  38.498   7.650
 4617POPC   C1B 6199  14.996  38.648   8.550
 4617POPC   C2B 6200  14.960  38.622   8.250
 4617POPC   C3B 6201  15.009  38.652   7.950
 4617POPC   C4B 6202  14.975  38.565   7.650
 4618POPC   NC3 6203  14.373   1.227   9.450
 4618POPC   PO4 6204  14.448   1.257   9.150
 4618POPC   GL1 6205  14.447   1.194   8.850
 4618POPC   GL2 6206  14.477   1.234   8.850
 4618POPC   C1A 6207  14.372   1.244   8.550
 4618POPC   D2A 6208  14.398   1.246   8.250
 4618POPC   C3A 6209  14.399   1.179   7.950
 4618POPC   C4A 6210  14.430   1.188   7.650
 4618POPC   C1B 6211  14.651   1.278   8.550
 4618POPC   C2B 6212  14.603   1.224   8.250
 4618POPC   C3B 6213  14.687   1.245   7.950
 4618POPC   C4B 6214  14.612   1.250   7.650
 4619POPC   NC3 6215  36.894  22.965   9.450
 4619POPC   PO4 6216  36.918  22.974   9.150
 4619POPC   GL1 6217  36.878  22.908   8.850
 4619POPC   GL2 6218  36.747  22.932   8.850
 4619POPC   C1A 6219  36.908  22.895   8.550
 4619POPC   D2A 6220  36.938  22.951   8.250
 4619POPC   C3A 6221  36.891  22.987   7.950
 4619POPC   C4A 6222  36.889  22.919   7.650
 4619POPC   C1B 6223  36.684  22.906   8.550
 4619POPC   C2B 6224  36.608  22.872   8.250
 4619POPC   C3B 6225  36.677  22.947   7.950
 4619POPC   C4B 6226  36.652  22.900   7.650
 4620POPC   NC3 6227  19.818  19.805   9.450
 4620POPC   PO4 6228  19.871  19.825   9.150
 4620POPC   GL1 6229  19.789  19.837   8.850
 4620POPC   GL2 6230  19.947  19.934   8.850
 4620POPC   C1A 6231  19.808  19.825   8.550
 4620POPC   D2A 6232  19.867  19.863   8.250
 4620POPC   C3A 6233  19.814  19.877   7.950
 4620POPC   C4A 6234  19.818  19.804   7.650
 4620POPC   C1B 6235  19.991  19.982   8.550
 4620POPC   C2B 6236  20.056  20.029   8.250
 4620POPC   C3B 6237  20.054  19.990   7.950
 4620POPC   C4B 6238  19.990  19.995   7.650
 4621POPC   NC3 6239  39.274  32.226   9.450
 4621POPC   PO4 6240  39.270  32.204   9.150
 4621POPC   GL1 6241  39.187  32.242   8.850
 4621POPC   GL2 6242  39.338  32.324   8.850
 4621POPC   C1A 6243  39.182  32.284   8.550
 4621POPC   D2A 6244  39.198  32.276   8.250
 4621POPC   C3A 6245  39.258  32.282   7.950
 4621POPC   C4A 6246  39.231  32.269   7.650
 4621POPC   C1B 6247  39.371  32.463   8.550
 4621POPC   C2B 6248  39.365  32.488   8.250
 4621POPC   C3B 6249  39.365  32.480   7.950
 4621POPC   C4B 6250  39.419  32.432   7.650
 4622POPC   NC3 6251  40.822   3.584   9.450
 4622POPC   PO4 6252  40.808   3.492   9.150
 4622POPC   GL1 6253  40.759   3.573   8.850
 4622POPC   GL2 6254  40.708   3.425   8.850
 4622POPC   C1A 6255  40.778   3.511   8.550
 4622POPC   D2A 6256  40.827   3.526   8.250
 4622POPC   C3A 6257  40.832   3.545   7.950
 4622POPC   C4A 6258  40.831   3.579   7.650
 4622POPC   C1B 6259  40.607   3.299   8.550
 4622POPC   C2B 6260  40.660   3.334   8.250
 4622POPC   C3B 6261  40.639   3.343   7.950
 4622POPC   C4B 6262  40.616   3.325   7.650
 4623POPC   NC3 6263  25.272  25.309   9.450
 4623POPC   PO4 6264  25.242  25.314   9.150
 4623POPC   GL1 6265  25.218  25.220   8.850
 4623POPC   GL2 6266  25.171  25.352   8.850
 4623POPC   C1A 6267  25.313  25.273   8.550
 4623POPC   D2A 6268  25.256  25.233   8.250
 4623POPC   C3A 6269  25.300  25.286   7.950
 4623POPC   C4A 6270  25.255  25.298   7.650
 4623POPC   C1B 6271  25.102  25.446   8.550
 4623POPC   C2B 6272  25.033  25.387   8.250
 4623POPC   C3B 6273  25.092  25.414   7.950
 4623POPC   C4B 6274  25.034  25.394   7.650
 4624POPC   NC3 6275   7.388  26.077   9.450
 4624POPC   PO4 6276   7.449  26.044   9.150
 4624POPC   GL1 6277   7.435  26.084   8.850
 4624POPC   GL2 6278   7.401  26.162   8.850
 4624POPC   C1A 6279   7.408  26.060   8.550
 4624POPC   D2A 6280   7.374  26.005   8.250
 4624POPC   C3A 6281   7.459  26.011   7.950
 4624POPC   C4A 6282   7.462  26.069   7.650
 4624POPC   C1B 6283   7.419  26.332   8.550
 4624POPC   C2B 6284   7.373  26.291   8.250
 4624POPC   C3B 6285   7.352  26.263   7.950
 4624POPC   C4B 6286   7.373  26.286   7.650
 4625POPC   NC3 6287  39.253  11.256   9.450
 4625POPC   PO4 6288  39.267  11.278   9.150
 4625POPC   GL1 6289  39.247  11.286   8.850
 4625POPC   GL2 6290  39.149  11.262   8.850
 4625POPC   C1A 6291  39.217  11.342   8.550
 4625POPC   D2A 6292  39.274  11.264   8.250
 4625POPC   C3A 6293  39.243  11.304   7.950
 4625POPC   C4A 6294  39.240  11.262   7.650
 4625POPC   C1B 6295  39.002  11.200   8.550
 4625POPC   C2B 6296  38.945  11.270   8.250
 4625POPC   C3B 6297  38.942  11.295   7.950
 4625POPC   C4B 6298  39.008  11.280   7.650
 4626POPC   NC3 6299   0.467  24.523   9.450
 4626POPC   PO4 6300   0.429  24.490   9.150
 4626POPC   GL1 6301   0.456  24.462   8.850
 4626POPC   GL2 6302   0.553  24.403   8.850
 4626POPC   C1A 6303   0.404  24.505   8.550
 4626POPC   D2A 6304   0.403  24.462   8.250
 4626POPC   C3A 6305   0.392  24.450   7.950
 4626POPC   C4A 6306   0.488  24.507   7.650
 4626POPC   C1B 6307   0.609  24.361   8.550
 4626POPC   C2B 6308   0.609  24.365   8.250
 4626POPC   C3B 6309   0.632  24.389   7.950
 4626POPC   C4B 6310   0.682  24.323   7.650
 4627POPC   NC3 6311  32.236  41.567   9.450
 4627POPC   PO4 6312  32.199  41.565   9.150
 4627POPC   GL1 6313  32.279  41.594   8.850
 4627POPC   GL2 6314  32.416  41.570   8.850
 4627POPC   C1A 6315  32.256  41.527   8.550
 4627POPC   D2A 6316  32.282  41.585   8.250
 4627POPC   C3A 6317  32.295  41.559   7.950
 4627POPC   C4A 6318  32.289  41.526   7.650
 4627POPC   C1B 6319  32.535  41.568   8.550
 4627POPC   C2B 6320  32.468  41.575   8.250
 4627POPC   C3B 6321  32.528  41.651   7.950
 4627POPC   C4B 6322  32.483  41.649   7.650
 4628POPC   NC3 6323   8.975  40.029   9.450
 4628POPC   PO4 6324   8.991  39.959   9.150
 4628POPC   GL1 6325   8.929  39.981   8.850
 4628POPC   GL2 6326   8.913  39.848   8.850
 4628POPC   C1A 6327   8.994  40.052   8.550
 4628POPC   D2A 6328   8.991  39.993   8.250
 4628POPC   C3A 6329   8.934  40.027   7.950
 4628POPC   C4A 6330   8.992  40.011   7.650
 4628POPC   C1B 6331   8.859  39.759   8.550
 4628POPC   C2B 6332   8.889  39.790   8.250
 4628POPC   C3B 6333   8.855  39.761   7.950
 4628POPC   C4B 6334   8.885  39.761   7.650
 4629POPC   NC3 6335  37.664  31.513   9.450
 4629POPC   PO4 6336  37.634  31.521   9.150
 4629POPC   GL1 6337  37.655  31.520   8.850
 4629POPC   GL2 6338  37.724  31.378   8.850
 4629POPC   C1A 6339  37.727  31.511   8.550
 4629POPC   D2A 6340  37.691  31.482   8.250
 4629POPC   C3A 6341  37.653  31.436   7.950
 4629POPC   C4A 6342  37.635  31.447   7.650
 4629POPC   C1B 6343  37.777  31.285   8.550
 4629POPC   C2B 6344  37.836  31.205   8.250
 4629POPC   C3B 6345  37.777  31.253   7.950
 4629POPC   C4B 6346  37.780  31.207   7.650
 4630POPC   NC3 6347  16.739  13.612   9.450
 4630POPC   PO4 6348  16.713  13.627   9.150
 4630POPC   GL1 6349  16.763  13.671   8.850
 4630POPC   GL2 6350  16.804  13.704   8.850
 4630POPC   C1A 6351  16.781  13.634   8.550
 4630POPC   D2A 6352  16.731  13.598   8.250
 4630POPC   C3A 6353  16.690  13.599   7.950
 4630POPC   C4A 6354  16.709  13.649   7.650
 4630POPC   C1B 6355  17.013  13.684   8.550
 4630POPC   C2B 6356  16.932  13.704   8.250
 4630POPC   C3B 6357  17.008  13.744   7.950
 4630POPC   C4B 6358  16.983  13.737   7.650
 4631POPC   NC3 6359  26.851  29.119   9.450
 4631POPC   PO4 6360  26.788  29.162   9.150
 4631POPC   GL1 6361  26.794  29.178   8.850
 4631POPC   GL2 6362  26.837  29.253   8.850
 4631POPC   C1A 6363  26.796  29.137   8.550
 4631POPC   D2A 6364  26.836  29.135   8.250
 4631POPC   C3A 6365  26.792  29.189   7.950
 4631POPC   C4A 6366  26.822  29.176   7.650
 4631POPC   C1B 6367  26.890  29.436   8.550
 4631POPC   C2B 6368  26.905  29.413   8.250
 4631POPC   C3B 6369  26.889  29.352   7.950
 4631POPC   C4B 6370  26.828  29.379   7.650
 4632POPC   NC3 6371  14.362   3.569   9.450
 4632POPC   PO4 6372  14.376   3.572   9.150
 4632POPC   GL1 6373  14.396   3.590   8.850
 4632POPC   GL2 6374  14.431   3.654   8.850
 4632POPC   C1A 6375  14.395   3.586   8.550
 4632POPC   D2A 6376  14.356   3.549   8.250
 4632POPC   C3A 6377  14.359   3.545   7.950
 4632POPC   C4A 6378  14.428   3.542   7.650
 4632POPC   C1B 6379  14.512   3.810   8.550
 4632POPC   C2B 6380  14.470   3.794   8.250
 4632POPC   C3B 6381  14.464   3.799   7.950
 4632POPC   C4B 6382  14.551   3.724   7.650
 4633POPC   NC3 6383  15.165  35.376   9.450
 4633POPC   PO4 6384  15.160  35.316   9.150
 4633POPC   GL1 6385  15.154  35.395   8.850
 4633POPC   GL2 6386  15.070  35.352   8.850
 4633POPC   C1A 6387  15.229  35.351   8.550
 4633POPC   D2A 6388  15.191  35.308   8.250
 4633POPC   C3A 6389  15.175  35.329   7.950
 4633POPC   C4A 6390  15.212  35.360   7.650
 4633POPC   C1B 6391  14.975  35.352   8.550
 4633POPC   C2B 6392  14.970  35.305   8.250
 4633POPC   C3B 6393  14.965  35.339   7.950
 4633POPC   C4B 6394  14.891  35.383   7.650
 4634POPC   NC3 6395  28.328   5.072   9.450
 4634POPC   PO4 6396  28.376   5.121   9.150
 4634POPC   GL1 6397  28.363   5.119   8.850
 4634POPC   GL2 6398  28.414   5.168   8.850
 4634POPC   C1A 6399  28.360   5.142   8.550
 4634POPC   D2A 6400  28.368   5.128   8.250
 4634POPC   C3A 6401  28.334   5.125   7.950
 4634POPC   C4A 6402  28.381   5.107   7.650
 4634POPC   C1B 6403  28.391   5.340   8.550
 4634POPC   C2B 6404  28.408   5.372   8.250
 4634POPC   C3B 6405  28.414   5.320   7.950
 4634POPC   C4B 6406  28.397   5.344   7.650
 4635POPC   NC3 6407  27.581  39.981   9.450
 4635POPC   PO4 6408  27.606  40.039   9.150
 4635POPC   GL1 6409  27.583  40.042   8.850
 4635POPC   GL2 6410  27.448  39.980   8.850
 4635POPC   C1A 6411  27.566  39.967   8.550
 4635POPC   D2A 6412  27.554  40.027   8.250
 4635POPC   C3A 6413  27.604  40.033   7.950
 4635POPC   C4A 6414  27.595  39.996   7.650
 4635POPC   C1B 6415  27.389  39.920   8.550
 4635POPC   C2B 6416  27.399  39.967   8.250
 4635POPC   C3B 6417  27.360  39.927   7.950
 4635POPC   C4B 6418  27.378  39.941   7.650
 4636POPC   NC3 6419  43.883  29.967   9.450
 4636POPC   PO4 6420  43.898  29.892   9.150
 4636POPC   GL1 6421  43.921  29.961   8.850
 4636POPC   GL2 6422  43.761  29.829   8.850
 4636POPC   C1A 6423  43.917  29.943   8.550
 4636POPC   D2A 6424  43.925  29.951   8.250
 4636POPC   C3A 6425  43.862  29.942   7.950
 4636POPC   C4A 6426  43.845  29.924   7.650
 4636POPC   C1B 6427  43.666  29.725   8.550
 4636POPC   C2B 6428  43.656  29.776   8.250
 4636POPC   C3B 6429  43.691  29.743   7.950
 4636POPC   C4B 6430  43.640  29.773   7.650
 4637POPC   NC3 6431  10.553  36.938   9.450
 4637POPC   PO4 6432  10.560  36.861   9.150
 4637POPC   GL1 6433  10.550  36.879   8.850
 4637POPC   GL2 6434  10.465  36.802   8.850
 4637POPC   C1A 6435  10.512  36.918   8.550
 4637POPC   D2A 6436  10.524  36.897   8.250
 4637POPC   C3A 6437  10.491  36.901   7.950
 4637POPC   C4A 6438  10.508  36.883   7.650
 4637POPC   C1B 6439  10.351  36.736   8.550
 4637POPC   C2B 6440  10.343  36.720   8.250
 4637POPC   C3B 6441  10.378  36.684   7.950
 4637POPC   C4B 6442  10.375  36.686   7.650
 4638POPC   NC3 6443   8.927  36.878   9.450
 4638POPC   PO4 6444   8.934  36.933   9.150
 4638POPC   GL1 6445   9.022  36.940   8.850
 4638POPC   GL2 6446   8.836  36.774   8.850
 4638POPC   C1A 6447   8.985  36.904   8.550
 4638POPC   D2A 6448   9.015  36.906   8.250
 4638POPC   C3A 6449   8.990  36.879   7.950
 4638POPC   C4A 6450   8.960  36.924   7.650
 4638POPC   C1B 6451   8.820  36.686   8.550
 4638POPC   C2B 6452   8.777  36.725   8.250
 4638POPC   C3B 6453   8.785  36.767   7.950
 4638POPC   C4B 6454   8.818  36.739   7.650
 4639POPC   NC3 6455   2.718  21.423   9.450
 4639POPC   PO4 6456   2.756  21.421   9.150
 4639POPC   GL1 6457   2.745  21.415   8.850
 4639POPC   GL2 6458   2.859  21.514   8.850
 4639POPC   C1A 6459   2.736  21.393   8.550
 4639POPC   D2A 6460   2.773  21.382   8.250
 4639POPC   C3A 6461   2.766  21.421   7.950
 4639POPC   C4A 6462   2.752  21.391   7.650
 4639POPC   C1B 6463   2.940  21.514   8.550
 4639POPC   C2B 6464   2.927  21.517   8.250
 4639POPC   C3B 6465   2.991  21.598   7.950
 4639POPC   C4B 6466   2.947  21.516   7.650
 4640POPC   NC3 6467   9.736   6.651   9.450
 4640POPC   PO4 6468   9.769   6.621   9.150
 4640POPC   GL1 6469   9.786   6.685   8.850
 4640POPC   GL2 6470   9.874   6.687   8.850
 4640POPC   C1A 6471   9.758   6.661   8.550
 4640POPC   D2A 6472   9.749   6.649   8.250
 4640POPC   C3A 6473   9.733   6.644   7.950
 4640POPC   C4A 6474   9.793   6.672   7.650
 4640POPC   C1B 6475   9.931   6.707   8.550
 4640POPC   C2B 6476  10.014   6.716   8.250
 4640POPC   C3B 6477   9.959   6.703   7.950
 4640POPC   C4B 6478   9.971   6.726   7.650
 4641POPC   NC3 6479   7.453  33.782   9.450
 4641POPC   PO4 6480   7.430  33.832   9.150
 4641POPC   GL1 6481   7.441  33.797   8.850
 4641POPC   GL2 6482   7.290  33.815   8.850
 4641POPC   C1A 6483   7.440  33.819   8.550
 4641POPC   D2A 6484   7.457  33.798   8.250
 4641POPC   C3A 6485   7.457  33.831   7.950
 4641POPC   C4A 6486   7.440  33.826   7.650
 4641POPC   C1B 6487   7.196  33.887   8.550
 4641POPC   C2B 6488   7.186  33.903   8.250
 4641POPC   C3B 6489   7.190  33.881   7.950
 4641POPC   C4B 6490   7.140  33.853   7.650
 4642POPC   NC3 6491   2.740  33.809   9.450
 4642POPC   PO4 6492   2.777  33.834   9.150
 4642POPC   GL1 6493   2.774  33.846   8.850
 4642POPC   GL2 6494   2.810  33.924   8.850
 4642POPC   C1A 6495   2.731  33.795   8.550
 4642POPC   D2A 6496   2.742  33.832   8.250
 4642POPC   C3A 6497   2.774  33.811   7.950
 4642POPC   C4A 6498   2.736  33.828   7.650
 4642POPC   C1B 6499   2.990  34.003   8.550
 4642POPC   C2B 6500   2.960  34.008   8.250
 4642POPC   C3B 6501   2.967  33.961   7.950
 4642POPC   C4B 6502   2.979  33.977   7.650
 4643POPC   NC3 6503  19.019  43.929   9.450
 4643POPC   PO4 6504  19.085  43.886   9.150
 4643POPC   GL1 6505  19.077  43.923   8.850
 4643POPC   GL2 6506  19.101  43.782   8.850
 4643POPC   C1A 6507  19.067  43.839   8.550
 4643POPC   D2A 6508  19.098  43.863   8.250
 4643POPC   C3A 6509  19.076  43.913   7.950
 4643POPC   C4A 6510  19.019  43.873   7.650
 4643POPC   C1B 6511  19.090  43.691   8.550
 4643POPC   C2B 6512  19.120  43.647   8.250
 4643POPC   C3B 6513  19.126  43.603   7.950
 4643POPC   C4B 6514  19.097  43.667   7.650
 4644POPC   NC3 6515  13.675  22.892   9.450
 4644POPC   PO4 6516  13.598  22.946   9.150
 4644POPC   GL1 6517  13.673  22.938   8.850
 4644POPC   GL2 6518  13.552  22.931   8.850
 4644POPC   C1A 6519  13.613  22.980   8.550
 4644POPC   D2A 6520  13.608  22.898   8.250
 4644POPC   C3A 6521  13.581  22.940   7.950
 4644POPC   C4A 6522  13.667  22.977   7.650
 4644POPC   C1B 6523  13.389  22.944   8.550
 4644POPC   C2B 6524  13.363  22.924   8.250
 4644POPC   C3B 6525  13.403  22.930   7.950
 4644POPC   C4B 6526  13.332  22.910   7.650
 4645POPC   NC3 6527  22.192  43.865   9.450
 4645POPC   PO4 6528  22.149  43.855   9.150
 4645POPC   GL1 6529  22.179  43.925   8.850
 4645POPC   GL2 6530  22.165  43.765   8.850
 4645POPC   C1A 6531  22.124  43.838   8.550
 4645POPC   D2A 6532  22.155  43.859   8.250
 4645POPC   C3A 6533  22.211  43.889   7.950
 4645POPC   C4A 6534  22.118  43.841   7.650
 4645POPC   C1B 6535  22.051  43.680   8.550
 4645POPC   C2B 6536  22.070  43.686   8.250
 4645POPC   C3B 6537  22.143  43.673   7.950
 4645POPC   C4B 6538  22.069  43.617   7.650
 4646POPC   NC3 6539   5.094  33.754   9.450
 4646POPC   PO4 6540   5.096  33.793   9.150
 4646POPC   GL1 6541   5.135  33.796   8.850
 4646POPC   GL2 6542   4.982  33.909   8.850
 4646POPC   C1A 6543   5.113  33.763   8.550
 4646POPC   D2A 6544   5.050  33.820   8.250
 4646POPC   C3A 6545   5.066  33.824   7.950
 4646POPC   C4A 6546   5.116  33.819   7.650
 4646POPC   C1B 6547   4.872  33.958   8.550
 4646POPC   C2B 6548   4.916  33.949   8.250
 4646POPC   C3B 6549   4.853  34.003   7.950
 4646POPC   C4B 6550   4.927  33.921   7.650
 4647POPC   NC3 6551  22.160   5.087   9.450
 4647POPC   PO4 6552  22.161   5.047   9.150
 4647POPC   GL1 6553  22.199   5.068   8.850
 4647POPC   GL2 6554  22.116   5.168   8.850
 4647POPC   C1A 6555  22.125   5.045   8.550
 4647POPC   D2A 6556  22.129   5.125   8.250
 4647POPC   C3A 6557  22.128   5.136   7.950
 4647POPC   C4A 6558  22.119   5.074   7.650
 4647POPC   C1B 6559  22.131   5.363   8.550
 4647POPC   C2B 6560  22.198   5.393   8.250
 4647POPC   C3B 6561  22.140   5.342   7.950
 4647POPC   C4B 6562  22.173   5.372   7.650
 4648POPC   NC3 6563  30.684   5.059   9.450
 4648POPC   PO4 6564  30.738   5.105   9.150
 4648POPC   GL1 6565  30.709   5.086   8.850
 4648POPC   GL2 6566  30.774   5.235   8.850
 4648POPC   C1A 6567  30.726   5.048   8.550
 4648POPC   D2A 6568  30.683   5.066   8.250
 4648POPC   C3A 6569  30.740   5.121   7.950
 4648POPC   C4A 6570  30.736   5.110   7.650
 4648POPC   C1B 6571  30.769   5.379   8.550
 4648POPC   C2B 6572  30.720   5.354   8.250
 4648POPC   C3B 6573  30.765   5.342   7.950
 4648POPC   C4B 6574  30.769   5.371   7.650
 4649POPC   NC3 6575  22.893  33.825   9.450
 4649POPC   PO4 6576  22.976  33.799   9.150
 4649POPC   GL1 6577  22.942  33.795   8.850
 4649POPC   GL2 6578  22.919  33.721   8.850
 4649POPC   C1A 6579  22.919  33.766   8.550
 4649POPC   D2A 6580  22.983  33.765   8.250
 4649POPC   C3A 6581  22.985  33.810   7.950
 4649POPC   C4A 6582  22.949  33.812   7.650
 4649POPC   C1B 6583  22.829  33.603   8.550
 4649POPC   C2B 6584  22.842  33.593   8.250
 4649POPC   C3B 6585  22.810  33.569   7.950
 4649POPC   C4B 6586  22.810  33.586   7.650
 4650POPC   NC3 6587  18.248  44.707   9.450
 4650POPC   PO4 6588  18.234  44.647   9.150
 4650POPC   GL1 6589  18.277  44.687   8.850
 4650POPC   GL2 6590  18.194  44.721   8.850
 4650POPC   C1A 6591  18.279  44.682   8.550
 4650POPC   D2A 6592  18.313  44.698   8.250
 4650POPC   C3A 6593  18.293  44.659   7.950
 4650POPC   C4A 6594  18.248  44.637   7.650
 4650POPC   C1B 6595  18.017  44.685   8.550
 4650POPC   C2B 6596  18.026  44.748   8.250
 4650POPC   C3B 6597  18.089  44.733   7.950
 4650POPC   C4B 6598  18.046  44.731   7.650
 4651POPC   NC3 6599  29.099  22.892   9.450
 4651POPC   PO4 6600  29.165  22.911   9.150
 4651POPC   GL1 6601  29.193  22.915   8.850
 4651POPC   GL2 6602  29.040  22.805   8.850
 4651POPC   C1A 6603  29.188  22.977   8.550
 4651POPC   D2A 6604  29.128  22.982   8.250
 4651POPC   C3A 6605  29.145  22.912   7.950
 4651POPC   C4A 6606  29.104  22.971   7.650
 4651POPC   C1B 6607  29.032  22.666   8.550
 4651POPC   C2B 6608  29.030  22.714   8.250
 4651POPC   C3B 6609  29.055  22.752   7.950
 4651POPC   C4B 6610  29.079  22.746   7.650
 4652POPC   NC3 6611  24.453   4.361   9.450
 4652POPC   PO4 6612  24.481   4.317   9.150
 4652POPC   GL1 6613  24.538   4.324   8.850
 4652POPC   GL2 6614  24.561   4.411   8.850
 4652POPC   C1A 6615  24.481   4.335   8.550
 4652POPC   D2A 6616  24.534   4.342   8.250
 4652POPC   C3A 6617  24.491   4.329   7.950
 4652POPC   C4A 6618  24.483   4.277   7.650
 4652POPC   C1B 6619  24.657   4.470   8.550
 4652POPC   C2B 6620  24.726   4.481   8.250
 4652POPC   C3B 6621  24.657   4.498   7.950
 4652POPC   C4B 6622  24.736   4.489   7.650
 4653POPC   NC3 6623   5.140  21.362   9.450
 4653POPC   PO4 6624   5.061  21.423   9.150
 4653POPC   GL1 6625   5.097  21.387   8.850
 4653POPC   GL2 6626   5.150  21.469   8.850
 4653POPC   C1A 6627   5.086  21.346   8.550
 4653POPC   D2A 6628   5.090  21.390   8.250
 4653POPC   C3A 6629   5.115  21.436   7.950
 4653POPC   C4A 6630   5.132  21.354   7.650
 4653POPC   C1B 6631   5.220  21.572   8.550
 4653POPC   C2B 6632   5.223  21.617   8.250
 4653POPC   C3B 6633   5.218  21.581   7.950
 4653POPC   C4B 6634   5.227  21.619   7.650
 4654POPC   NC3 6635  29.937  22.126   9.450
 4654POPC   PO4 6636  29.877  22.157   9.150
 4654POPC   GL1 6637  29.935  22.131   8.850
 4654POPC   GL2 6638  29.828  22.229   8.850
 4654POPC   C1A 6639  29.955  22.204   8.550
 4654POPC   D2A 6640  29.909  22.141   8.250
 4654POPC   C3A 6641  29.919  22.196   7.950
 4654POPC   C4A 6642  29.941  22.189   7.650
 4654POPC   C1B 6643  29.740  22.345   8.550
 4654POPC   C2B 6644  29.752  22.304   8.250
 4654POPC   C3B 6645  29.745  22.388   7.950
 4654POPC   C4B 6646  29.712  22.313   7.650
 4655POPC   NC3 6647  13.647   2.032   9.450
 4655POPC   PO4 6648  13.604   1.979   9.150
 4655POPC   GL1 6649  13.637   2.027   8.850
 4655POPC   GL2 6650  13.787   2.009   8.850
 4655POPC   C1A 6651  13.623   1.954   8.550
 4655POPC   D2A 6652  13.634   1.952   8.250
 4655POPC   C3A 6653  13.580   1.985   7.950
 4655POPC   C4A 6654  13.618   1.993   7.650
 4655POPC   C1B 6655  13.892   1.949   8.550
 4655POPC   C2B 6656  13.887   1.937   8.250
 4655POPC   C3B 6657  13.875   1.965   7.950
 4655POPC   C4B 6658  13.886   1.963   7.650
 4656POPC   NC3 6659  29.913  36.168   9.450
 4656POPC   PO4 6660  29.959  36.127   9.150
 4656POPC   GL1 6661  29.916  36.090   8.850
 4656POPC   GL2 6662  30.001  36.230   8.850
 4656POPC   C1A 6663  29.871  36.133   8.550
 4656POPC   D2A 6664  29.896  36.117   8.250
 4656POPC   C3A 6665  29.876  36.100   7.950
 4656POPC   C4A 6666  29.898  36.118   7.650
 4656POPC   C1B 6667  30.129  36.254   8.550
 4656POPC   C2B 6668  30.099  36.245   8.250
 4656POPC   C3B 6669  30.095  36.228   7.950
 4656POPC   C4B 6670  30.119  36.220   7.650
 4657POPC   NC3 6671  43.845   0.415   9.450
 4657POPC   PO4 6672  43.931   0.454   9.150
 4657POPC   GL1 6673  43.905   0.416   8.850
 4657POPC   GL2 6674  43.788   0.324   8.850
 4657POPC   C1A 6675  43.907   0.423   8.550
 4657POPC   D2A 6676  43.860   0.453   8.250
 4657POPC   C3A 6677  43.887   0.440   7.950
 4657POPC   C4A 6678  43.862   0.450   7.650
 4657POPC   C1B 6679  43.687   0.292   8.550
 4657POPC   C2B 6680  43.735   0.224   8.250
 4657POPC   C3B 6681  43.664   0.241   7.950
 4657POPC   C4B 6682  43.668   0.281   7.650
 4658POPC   NC3 6683   9.772  26.035   9.450
 4658POPC   PO4 6684   9.740  26.032   9.150
 4658POPC   GL1 6685   9.772  26.025   8.850
 4658POPC   GL2 6686   9.641  25.981   8.850
 4658POPC   C1A 6687   9.755  26.072   8.550
 4658POPC   D2A 6688   9.708  26.062   8.250
 4658POPC   C3A 6689   9.777  26.073   7.950
 4658POPC   C4A 6690   9.791  26.051   7.650
 4658POPC   C1B 6691   9.649  25.840   8.550
 4658POPC   C2B 6692   9.650  25.787   8.250
 4658POPC   C3B 6693   9.630  25.852   7.950
 4658POPC   C4B 6694   9.651  25.852   7.650
 4659POPC   NC3 6695   6.691  41.531   9.450
 4659POPC   PO4 6696   6.679  41.562   9.150
 4659POPC   GL1 6697   6.635  41.572   8.850
 4659POPC   GL2 6698   6.538  41.468   8.850
 4659POPC   C1A 6699   6.612  41.509   8.550
 4659POPC   D2A 6700   6.607  41.566   8.250
 4659POPC   C3A 6701   6.651  41.522   7.950
 4659POPC   C4A 6702   6.634  41.510   7.650
 4659POPC   C1B 6703   6.484  41.365   8.550
 4659POPC   C2B 6704   6.480  41.338   8.250
 4659POPC   C3B 6705   6.526  41.361   7.950
 4659POPC   C4B 6706   6.485  41.391   7.650
 4660POPC   NC3 6707  37.690  30.676   9.450
 4660POPC   PO4 6708  37.687  30.658   9.150
 4660POPC   GL1 6709  37.703  30.708   8.850
 4660POPC   GL2 6710  37.779  30.586   8.850
 4660POPC   C1A 6711  37.696  30.656   8.550
 4660POPC   D2A 6712  37.630  30.700   8.250
 4660POPC   C3A 6713  37.665  30.660   7.950
 4660POPC   C4A 6714  37.667  30.720   7.650
 4660POPC   C1B 6715  37.831  30.517   8.550
 4660POPC   C2B 6716  37.855  30.530   8.250
 4660POPC   C3B 6717  37.890  30.541   7.950
 4660POPC   C4B 6718  37.857  30.501   7.650
 4661POPC   NC3 6719  36.177  12.120   9.450
 4661POPC   PO4 6720  36.117  12.093   9.150
 4661POPC   GL1 6721  36.138  12.079   8.850
 4661POPC   GL2 6722  36.015  12.047   8.850
 4661POPC   C1A 6723  36.155  12.100   8.550
 4661POPC   D2A 6724  36.086  12.041   8.250
 4661POPC   C3A 6725  36.134  12.125   7.950
 4661POPC   C4A 6726  36.170  12.119   7.650
 4661POPC   C1B 6727  35.918  11.954   8.550
 4661POPC   C2B 6728  35.923  11.993   8.250
 4661POPC   C3B 6729  35.900  12.005   7.950
 4661POPC   C4B 6730  35.904  11.960   7.650
 4662POPC   NC3 6731   1.182  29.969   9.450
 4662POPC   PO4 6732   1.255  29.947   9.150
 4662POPC   GL1 6733   1.197  29.954   8.850
 4662POPC   GL2 6734   1.182  30.040   8.850
 4662POPC   C1A 6735   1.216  29.936   8.550
 4662POPC   D2A 6736   1.211  29.957   8.250
 4662POPC   C3A 6737   1.198  29.871   7.950
 4662POPC   C4A 6738   1.211  29.893   7.650
 4662POPC   C1B 6739   1.051  30.066   8.550
 4662POPC   C2B 6740   1.085  30.104   8.250
 4662POPC   C3B 6741   1.089  30.091   7.950
 4662POPC   C4B 6742   1.016  30.148   7.650
 4663POPC   NC3 6743  43.084  15.918   9.450
 4663POPC   PO4 6744  43.082  15.920   9.150
 4663POPC   GL1 6745  43.152  15.927   8.850
 4663POPC   GL2 6746  43.198  16.023   8.850
 4663POPC   C1A 6747  43.141  15.915   8.550
 4663POPC   D2A 6748  43.109  16.001   8.250
 4663POPC   C3A 6749  43.115  15.997   7.950
 4663POPC   C4A 6750  43.123  15.962   7.650
 4663POPC   C1B 6751  43.336  16.007   8.550
 4663POPC   C2B 6752  43.345  16.017   8.250
 4663POPC   C3B 6753  43.378  16.041   7.950
 4663POPC   C4B 6754  43.368  16.015   7.650
 4664POPC   NC3 6755  25.238  19.787   9.450
 4664POPC   PO4 6756  25.286  19.803   9.150
 4664POPC   GL1 6757  25.303  19.794   8.850
 4664POPC   GL2 6758  25.357  19.973   8.850
 4664POPC   C1A 6759  25.307  19.808   8.550
 4664POPC   D2A 6760  25.243  19.878   8.250
 4664POPC   C3A 6761  25.248  19.858   7.950
 4664POPC   C4A 6762  25.230  19.808   7.650
 4664POPC   C1B 6763  25.388  20.019   8.550
 4664POPC   C2B 6764  25.413  20.011   8.250
 4664POPC   C3B 6765  25.412  20.049   7.950
 4664POPC   C4B 6766  25.395  20.019   7.650
 4665POPC   NC3 6767   3.492  13.601   9.450
 4665POPC   PO4 6768   3.524  13.581   9.150
 4665POPC   GL1 6769   3.562  13.616   8.850
 4665POPC   GL2 6770   3.397  13.648   8.850
 4665POPC   C1A 6771   3.557  13.585   8.550
 4665POPC   D2A 6772   3.558  13.661   8.250
 4665POPC   C3A 6773   3.510  13.589   7.950
 4665POPC   C4A 6774   3.558  13.610   7.650
 4665POPC   C1B 6775   3.300  13.632   8.550
 4665POPC   C2B 6776   3.247  13.613   8.250
 4665POPC   C3B 6777   3.316  13.639   7.950
 4665POPC   C4B 6778   3.289  13.607   7.650
 4666POPC   NC3 6779  36.922  41.603   9.450
 4666POPC   PO4 6780  36.952  41.560   9.150
 4666POPC   GL1 6781  36.944  41.600   8.850
 4666POPC   GL2 6782  36.992  41.554   8.850
 4666POPC   C1A 6783  36.902  41.593   8.550
 4666POPC   D2A 6784  36.859  41.524   8.250
 4666POPC   C3A 6785  36.861  41.534   7.950
 4666POPC   C4A 6786  36.934  41.531   7.650
 4666POPC   C1B 6787  37.128  41.691   8.550
 4666POPC   C2B 6788  37.102  41.689   8.250
 4666POPC   C3B 6789  37.089  41.604   7.950
 4666POPC   C4B 6790  37.183  41.663   7.650
 4667POPC   NC3 6791  30.745  12.864   9.450
 4667POPC   PO4 6792  30.664  12.840   9.150
 4667POPC   GL1 6793  30.731  12.830   8.850
 4667POPC   GL2 6794  30.677  12.702   8.850
 4667POPC   C1A 6795  30.724  12.837   8.550
 4667POPC   D2A 6796  30.698  12.837   8.250
 4667POPC   C3A 6797  30.653  12.878   7.950
 4667POPC   C4A 6798  30.707  12.867   7.650
 4667POPC   C1B 6799  30.764  12.579   8.550
 4667POPC   C2B 6800  30.707  12.626   8.250
 4667POPC   C3B 6801  30.705  12.556   7.950
 4667POPC   C4B 6802  30.697  12.578   7.650
 4668POPC   NC3 6803  13.623  12.099   9.450
 4668POPC   PO4 6804  13.648  12.094   9.150
 4668POPC   GL1 6805  13.673  12.062   8.850
 4668POPC   GL2 6806  13.547  11.992   8.850
 4668POPC   C1A 6807  13.623  12.073   8.550
 4668POPC   D2A 6808  13.614  12.121   8.250
 4668POPC   C3A 6809  13.673  12.034   7.950
 4668POPC   C4A 6810  13.582  12.084   7.650
 4668POPC   C1B 6811  13.383  12.003   8.550
 4668POPC   C2B 6812  13.414  11.959   8.250
 4668POPC   C3B 6813  13.387  11.999   7.950
 4668POPC   C4B 6814  13.368  11.935   7.650
 4669POPC   NC3 6815  34.566   1.223   9.450
 4669POPC   PO4 6816  34.553   1.228   9.150
 4669POPC   GL1 6817  34.573   1.170   8.850
 4669POPC   GL2 6818  34.592   1.290   8.850
 4669POPC   C1A 6819  34.535   1.191   8.550
 4669POPC   D2A 6820  34.552   1.229   8.250
 4669POPC   C3A 6821  34.532   1.242   7.950
 4669POPC   C4A 6822  34.563   1.219   7.650
 4669POPC   C1B 6823  34.681   1.417   8.550
 4669POPC   C2B 6824  34.719   1.406   8.250
 4669POPC   C3B 6825  34.734   1.465   7.950
 4669POPC   C4B 6826  34.684   1.441   7.650
 4670POPC   NC3 6827  26.814   1.232   9.450
 4670POPC   PO4 6828  26.830   1.262   9.150
 4670POPC   GL1 6829  26.863   1.171   8.850
 4670POPC   GL2 6830  26.770   1.089   8.850
 4670POPC   C1A 6831  26.797   1.237   8.550
 4670POPC   D2A 6832  26.780   1.232   8.250
 4670POPC   C3A 6833  26.866   1.191   7.950
 4670POPC   C4A 6834  26.786   1.218   7.650
 4670POPC   C1B 6835  26.735   1.017   8.550
 4670POPC   C2B 6836  26.698   1.044   8.250
 4670POPC   C3B 6837  26.688   0.960   7.950
 4670POPC   C4B 6838  26.658   0.993   7.650
 4671POPC   NC3 6839   6.637  44.667   9.450
 4671POPC   PO4 6840   6.652  44.618   9.150
 4671POPC   GL1 6841   6.617  44.613   8.850
 4671POPC   GL2 6842   6.664  44.522   8.850
 4671POPC   C1A 6843   6.615  44.636   8.550
 4671POPC   D2A 6844   6.606  44.631   8.250
 4671POPC   C3A 6845   6.609  44.667   7.950
 4671POPC   C4A 6846   6.640  44.645   7.650
 4671POPC   C1B 6847   6.607  44.436   8.550
 4671POPC   C2B 6848   6.560  44.460   8.250
 4671POPC   C3B 6849   6.591  44.458   7.950
 4671POPC   C4B 6850   6.540  44.420   7.650
 4672POPC   NC3 6851  40.035  39.994   9.450
 4672POPC   PO4 6852  40.037  39.963   9.150
 4672POPC   GL1 6853  39.977  40.025   8.850
 4672POPC   GL2 6854  40.155  40.065   8.850
 4672POPC   C1A 6855  39.977  39.997   8.550
 4672POPC   D2A 6856  39.988  40.026   8.250
 4672POPC   C3A 6857  40.005  40.000   7.950
 4672POPC   C4A 6858  40.055  39.961   7.650
 4672POPC   C1B 6859  40.285  40.129   8.550
 4672POPC   C2B 6860  40.202  40.063   8.250
 4672POPC   C3B 6861  40.244  40.052   7.950
 4672POPC   C4B 6862  40.283  40.132   7.650
 4673POPC   NC3 6863  15.981   1.252   9.450
 4673POPC   PO4 6864  15.962   1.173   9.150
 4673POPC   GL1 6865  15.950   1.179   8.850
 4673POPC   GL2 6866  16.095   1.169   8.850
 4673POPC   C1A 6867  15.930   1.255   8.550
 4673POPC   D2A 6868  15.998   1.250   8.250
 4673POPC   C3A 6869  15.974   1.259   7.950
 4673POPC   C4A 6870  15.913   1.226   7.650
 4673POPC   C1B 6871  16.198   1.196   8.550
 4673POPC   C2B 6872  16.179   1.226   8.250
 4673POPC   C3B 6873  16.216   1.229   7.950
 4673POPC   C4B 6874  16.249   1.151   7.650
 4674POPC   NC3 6875   5.065  22.979   9.450
 4674POPC   PO4 6876   5.078  22.889   9.150
 4674POPC   GL1 6877   5.139  22.927   8.850
 4674POPC   GL2 6878   5.125  22.801   8.850
 4674POPC   C1A 6879   5.077  22.926   8.550
 4674POPC   D2A 6880   5.109  22.907   8.250
 4674POPC   C3A 6881   5.125  22.983   7.950
 4674POPC   C4A 6882   5.044  22.970   7.650
 4674POPC   C1B 6883   5.125  22.698   8.550
 4674POPC   C2B 6884   5.140  22.720   8.250
 4674POPC   C3B 6885   5.101  22.704   7.950
 4674POPC   C4B 6886   5.132  22.715   7.650
 4675POPC   NC3 6887   5.873  31.438   9.450
 4675POPC   PO4 6888   5.866  31.453   9.150
 4675POPC   GL1 6889   5.878  31.506   8.850
 4675POPC   GL2 6890   5.822  31.369   8.850
 4675POPC   C1A 6891   5.849  31.484   8.550
 4675POPC   D2A 6892   5.833  31.430   8.250
 4675POPC   C3A 6893   5.829  31.434   7.950
 4675POPC   C4A 6894   5.877  31.429   7.650
 4675POPC   C1B 6895   5.884  31.190   8.550
 4675POPC   C2B 6896   5.812  31.268   8.250
 4675POPC   C3B 6897   5.867  31.202   7.950
 4675POPC   C4B 6898   5.875  31.256   7.650
 4676POPC   NC3 6899  17.517  32.295   9.450
 4676POPC   PO4 6900  17.528  32.265   9.150
 4676POPC   GL1 6901  17.541  32.242   8.850
 4676POPC   GL2 6902  17.575  32.382   8.850
 4676POPC   C1A 6903  17.498  32.205   8.550
 4676POPC   D2A 6904  17.503  32.275   8.250
 4676POPC   C3A 6905  17.551  32.241   7.950
 4676POPC   C4A 6906  17.507  32.260   7.650
 4676POPC   C1B 6907  17.658  32.482   8.550
 4676POPC   C2B 6908  17.653  32.461   8.250
 4676POPC   C3B 6909  17.640  32.448   7.950
 4676POPC   C4B 6910  17.610  32.477   7.650
 4677POPC   NC3 6911  24.469  32.226   9.450
 4677POPC   PO4 6912  24.497  32.293   9.150
 4677POPC   GL1 6913  24.446  32.231   8.850
 4677POPC   GL2 6914  24.468  32.102   8.850
 4677POPC   C1A 6915  24.459  32.252   8.550
 4677POPC   D2A 6916  24.463  32.231   8.250
 4677POPC   C3A 6917  24.500  32.210   7.950
 4677POPC   C4A 6918  24.452  32.278   7.650
 4677POPC   C1B 6919  24.393  32.046   8.550
 4677POPC   C2B 6920  24.470  31.999   8.250
 4677POPC   C3B 6921  24.466  31.989   7.950
 4677POPC   C4B 6922  24.437  32.008   7.650
 4678POPC   NC3 6923  23.750   8.989   9.450
 4678POPC   PO4 6924  23.693   8.977   9.150
 4678POPC   GL1 6925  23.729   8.951   8.850
 4678POPC   GL2 6926  23.842   9.037   8.850
 4678POPC   C1A 6927  23.683   9.012   8.550
 4678POPC   D2A 6928  23.722   8.932   8.250
 4678POPC   C3A 6929  23.759   9.000   7.950
 4678POPC   C4A 6930  23.664   8.931   7.650
 4678POPC   C1B 6931  23.849   9.124   8.550
 4678POPC   C2B 6932  23.936   9.167   8.250
 4678POPC   C3B 6933  23.937   9.149   7.950
 4678POPC   C4B 6934  23.886   9.171   7.650
 4679POPC   NC3 6935   2.812  29.178   9.450
 4679POPC   PO4 6936   2.790  29.155   9.150
 4679POPC   GL1 6937   2.725  29.166   8.850
 4679POPC   GL2 6938   2.864  29.188   8.850
 4679POPC   C1A 6939   2.728  29.159   8.550
 4679POPC   D2A 6940   2.766  29.118   8.250
 4679POPC   C3A 6941   2.767  29.168   7.950
 4679POPC   C4A 6942   2.722  29.096   7.650
 4679POPC   C1B 6943   2.982  29.296   8.550
 4679POPC   C2B 6944   2.937  29.320   8.250
 4679POPC   C3B 6945   2.959  29.345   7.950
 4679POPC   C4B 6946   2.896  29.316   7.650
 4680POPC   NC3 6947  22.191  36.937   9.450
 4680POPC   PO4 6948  22.123  36.945   9.150
 4680POPC   GL1 6949  22.117  36.916   8.850
 4680POPC   GL2 6950  22.128  36.961   8.850
 4680POPC   C1A 6951  22.181  36.934   8.550
 4680POPC   D2A 6952  22.125  36.861   8.250
 4680POPC   C3A 6953  22.186  36.926   7.950
 4680POPC   C4A 6954  22.176  36.910   7.650
 4680POPC   C1B 6955  21.984  37.064   8.550
 4680POPC   C2B 6956  22.048  37.106   8.250
 4680POPC   C3B 6957  22.005  37.154   7.950
 4680POPC   C4B 6958  22.022  37.131   7.650
 4681POPC   NC3 6959   1.973  42.383   9.450
 4681POPC   PO4 6960   2.016  42.383   9.150
 4681POPC   GL1 6961   2.023  42.363   8.850
 4681POPC   GL2 6962   1.866  42.274   8.850
 4681POPC   C1A 6963   2.013  42.317   8.550
 4681POPC   D2A 6964   1.948  42.350   8.250
 4681POPC   C3A 6965   2.027  42.367   7.950
 4681POPC   C4A 6966   1.947  42.384   7.650
 4681POPC   C1B 6967   1.792  42.187   8.550
 4681POPC   C2B 6968   1.801  42.150   8.250
 4681POPC   C3B 6969   1.775  42.162   7.950
 4681POPC   C4B 6970   1.774  42.160   7.650
 4682POPC   NC3 6971   5.132  40.808   9.450
 4682POPC   PO4 6972   5.053  40.791   9.150
 4682POPC   GL1 6973   5.050  40.765   8.850
 4682POPC   GL2 6974   4.995  40.875   8.850
 4682POPC   C1A 6975   5.083  40.828   8.550
 4682POPC   D2A 6976   5.115  40.782   8.250
 4682POPC   C3A 6977   5.065  40.823   7.950
 4682POPC   C4A 6978   5.117  40.775   7.650
 4682POPC   C1B 6979   4.825  40.901   8.550
 4682POPC   C2B 6980   4.898  40.922   8.250
 4682POPC   C3B 6981   4.913  40.890   7.950
 4682POPC   C4B 6982   4.867  40.884   7.650
 4683POPC   NC3 6983  23.669  21.340   9.450
 4683POPC   PO4 6984  23.729  21.424   9.150
 4683POPC   GL1 6985  23.684  21.366   8.850
 4683POPC   GL2 6986  23.626  21.433   8.850
 4683POPC   C1A 6987  23.741  21.413   8.550
 4683POPC   D2A 6988  23.706  21.380   8.250
 4683POPC   C3A 6989  23.705  21.409   7.950
 4683POPC   C4A 6990  23.668  21.337   7.650
 4683POPC   C1B 6991  23.438  21.413   8.550
 4683POPC   C2B 6992  23.493  21.438   8.250
 4683POPC   C3B 6993  23.434  21.353   7.950
 4683POPC   C4B 6994  23.478  21.363   7.650
 4684POPC   NC3 6995  42.338  16.769   9.450
 4684POPC   PO4 6996  42.337  16.695   9.150
 4684POPC   GL1 6997  42.357  16.717   8.850
 4684POPC   GL2 6998  42.260  16.603   8.850
 4684POPC   C1A 6999  42.329  16.685   8.550
 4684POPC   D2A 7000  42.325  16.732   8.250
 4684POPC   C3A 7001  42.322  16.686   7.950
 4684POPC   C4A 7002  42.318  16.757   7.650
 4684POPC   C1B 7003  42.250  16.497   8.550
 4684POPC   C2B 7004  42.192  16.546   8.250
 4684POPC   C3B 7005  42.187  16.456   7.950
 4684POPC   C4B 7006  42.263  16.461   7.650
 4685POPC   NC3 7007  18.244  17.474   9.450
 4685POPC   PO4 7008  18.311  17.511   9.150
 4685POPC   GL1 7009  18.292  17.509   8.850
 4685POPC   GL2 7010  18.409  17.400   8.850
 4685POPC   C1A 7011  18.290  17.517   8.550
 4685POPC   D2A 7012  18.296  17.545   8.250
 4685POPC   C3A 7013  18.315  17.485   7.950
 4685POPC   C4A 7014  18.323  17.510   7.650
 4685POPC   C1B 7015  18.499  17.414   8.550
 4685POPC   C2B 7016  18.510  17.382   8.250
 4685POPC   C3B 7017  18.496  17.412   7.950
 4685POPC   C4B 7018  18.547  17.364   7.650
 4686POPC   NC3 7019  26.017  26.835   9.450
 4686POPC   PO4 7020  26.041  26.776   9.150
 4686POPC   GL1 7021  26.009  26.813   8.850
 4686POPC   GL2 7022  26.058  26.707   8.850
 4686POPC   C1A 7023  26.080  26.816   8.550
 4686POPC   D2A 7024  26.030  26.801   8.250
 4686POPC   C3A 7025  26.052  26.846   7.950
 4686POPC   C4A 7026  26.074  26.816   7.650
 4686POPC   C1B 7027  25.953  26.586   8.550
 4686POPC   C2B 7028  26.022  26.534   8.250
 4686POPC   C3B 7029  25.974  26.619   7.950
 4686POPC   C4B 7030  26.017  26.541   7.650
 4687POPC   NC3 7031  14.389  40.008   9.450
 4687POPC   PO4 7032  14.358  39.998   9.150
 4687POPC   GL1 7033  14.356  39.985   8.850
 4687POPC   GL2 7034  14.363  39.887   8.850
 4687POPC   C1A 7035  14.385  40.032   8.550
 4687POPC   D2A 7036  14.399  39.966   8.250
 4687POPC   C3A 7037  14.396  39.985   7.950
 4687POPC   C4A 7038  14.413  40.033   7.650
 4687POPC   C1B 7039  14.253  39.830   8.550
 4687POPC   C2B 7040  14.239  39.768   8.250
 4687POPC   C3B 7041  14.250  39.810   7.950
 4687POPC   C4B 7042  14.245  39.832   7.650
 4688POPC   NC3 7043  26.855  25.216   9.450
 4688POPC   PO4 7044  26.851  25.284   9.150
 4688POPC   GL1 7045  26.809  25.228   8.850
 4688POPC   GL2 7046  26.906  25.320   8.850
 4688POPC   C1A 7047  26.800  25.227   8.550
 4688POPC   D2A 7048  26.815  25.290   8.250
 4688POPC   C3A 7049  26.788  25.315   7.950
 4688POPC   C4A 7050  26.830  25.286   7.650
 4688POPC   C1B 7051  27.015  25.483   8.550
 4688POPC   C2B 7052  27.000  25.468   8.250
 4688POPC   C3B 7053  27.001  25.477   7.950
 4688POPC   C4B 7054  27.001  25.415   7.650
 4689POPC   NC3 7055  35.364  12.124   9.450
 4689POPC   PO4 7056  35.386  12.111   9.150
 4689POPC   GL1 7057  35.340  12.097   8.850
 4689POPC   GL2 7058  35.375  12.154   8.850
 4689POPC   C1A 7059  35.381  12.077   8.550
 4689POPC   D2A 7060  35.335  12.107   8.250
 4689POPC   C3A 7061  35.356  12.109   7.950
 4689POPC   C4A 7062  35.389  12.083   7.650
 4689POPC   C1B 7063  35.469  12.305   8.550
 4689POPC   C2B 7064  35.438  12.243   8.250
 4689POPC   C3B 7065  35.528  12.273   7.950
 4689POPC   C4B 7066  35.447  12.256   7.650
 4690POPC   NC3 7067  43.073  12.114   9.450
 4690POPC   PO4 7068  43.135  12.072   9.150
 4690POPC   GL1 7069  43.141  12.044   8.850
 4690POPC   GL2 7070  43.096  11.967   8.850
 4690POPC   C1A 7071  43.124  12.095   8.550
 4690POPC   D2A 7072  43.130  12.114   8.250
 4690POPC   C3A 7073  43.099  12.079   7.950
 4690POPC   C4A 7074  43.103  12.034   7.650
 4690POPC   C1B 7075  43.021  11.835   8.550
 4690POPC   C2B 7076  42.973  11.808   8.250
 4690POPC   C3B 7077  43.000  11.857   7.950
 4690POPC   C4B 7078  42.983  11.865   7.650
 4691POPC   NC3 7079  24.452   0.446   9.450
 4691POPC   PO4 7080  24.452   0.441   9.150
 4691POPC   GL1 7081  24.512   0.408   8.850
 4691POPC   GL2 7082  24.357   0.438   8.850
 4691POPC   C1A 7083  24.457   0.438   8.550
 4691POPC   D2A 7084  24.445   0.420   8.250
 4691POPC   C3A 7085  24.536   0.475   7.950
 4691POPC   C4A 7086  24.447   0.434   7.650
 4691POPC   C1B 7087  24.284   0.386   8.550
 4691POPC   C2B 7088  24.266   0.318   8.250
 4691POPC   C3B 7089  24.243   0.323   7.950
 4691POPC   C4B 7090  24.244   0.352   7.650
 4692POPC   NC3 7091  36.155  42.334   9.450
 4692POPC   PO4 7092  36.136  42.311   9.150
 4692POPC   GL1 7093  36.146  42.353   8.850
 4692POPC   GL2 7094  36.068  42.500   8.850
 4692POPC   C1A 7095  36.159  42.302   8.550
 4692POPC   D2A 7096  36.150  42.321   8.250
 4692POPC   C3A 7097  36.156  42.345   7.950
 4692POPC   C4A 7098  36.136  42.321   7.650
 4692POPC   C1B 7099  36.114  42.573   8.550
 4692POPC   C2B 7100  36.045  42.626   8.250
 4692POPC   C3B 7101  36.068  42.600   7.950
 4692POPC   C4B 7102  36.050  42.551   7.650
 4693POPC   NC3 7103  26.040  32.289   9.450
 4693POPC   PO4 7104  26.090  32.247   9.150
 4693POPC   GL1 7105  26.000  32.292   8.850
 4693POPC   GL2 7106  26.085  32.151   8.850
 4693POPC   C1A 7107  26.082  32.219   8.550
 4693POPC   D2A 7108  26.069  32.216   8.250
 4693POPC   C3A 7109  26.049  32.290   7.950
 4693POPC   C4A 7110  26.059  32.245   7.650
 4693POPC   C1B 7111  26.025  32.034   8.550
 4693POPC   C2B 7112  26.091  31.965   8.250
 4693POPC   C3B 7113  26.084  32.047   7.950
 4693POPC   C4B 7114  26.019  31.995   7.650
 4694POPC   NC3 7115  34.618  32.269   9.450
 4694POPC   PO4 7116  34.528  32.218   9.150
 4694POPC   GL1 7117  34.582  32.215   8.850
 4694POPC   GL2 7118  34.503  32.135   8.850
 4694POPC   C1A 7119  34.541  32.234   8.550
 4694POPC   D2A 7120  34.554  32.242   8.250
 4694POPC   C3A 7121  34.586  32.207   7.950
 4694POPC   C4A 7122  34.530  32.266   7.650
 4694POPC   C1B 7123  34.390  32.108   8.550
 4694POPC   C2B 7124  34.377  32.051   8.250
 4694POPC   C3B 7125  34.383  32.090   7.950
 4694POPC   C4B 7126  34.433  32.107   7.650
 4695POPC   NC3 7127  12.890  15.220   9.450
 4695POPC   PO4 7128  12.879  15.135   9.150
 4695POPC   GL1 7129  12.825  15.203   8.850
 4695POPC   GL2 7130  12.900  15.102   8.850
 4695POPC   C1A 7131  12.802  15.223   8.550
 4695POPC   D2A 7132  12.897  15.163   8.250
 4695POPC   C3A 7133  12.845  15.222   7.950
 4695POPC   C4A 7134  12.856  15.130   7.650
 4695POPC   C1B 7135  12.848  14.927   8.550
 4695POPC   C2B 7136  12.866  14.966   8.250
 4695POPC   C3B 7137  12.916  14.960   7.950
 4695POPC   C4B 7138  12.880  14.934   7.650
 4696POPC   NC3 7139  23.756  26.052   9.450
 4696POPC   PO4 7140  23.715  25.996   9.150
 4696POPC   GL1 7141  23.671  26.066   8.850
 4696POPC   GL2 7142  23.823  25.962   8.850
 4696POPC   C1A 7143  23.728  26.050   8.550
 4696POPC   D2A 7144  23.728  26.046   8.250
 4696POPC   C3A 7145  23.710  26.037   7.950
 4696POPC   C4A 7146  23.681  26.025   7.650
 4696POPC   C1B 7147  23.917  25.977   8.550
 4696POPC   C2B 7148  23.891  25.937   8.250
 4696POPC   C3B 7149  23.952  25.923   7.950
 4696POPC   C4B 7150  23.897  25.911   7.650
 4697POPC   NC3 7151  23.756  28.406   9.450
 4697POPC   PO4 7152  23.680  28.360   9.150
 4697POPC   GL1 7153  23.691  28.418   8.850
 4697POPC   GL2 7154  23.664  28.269   8.850
 4697POPC   C1A 7155  23.667  28.392   8.550
 4697POPC   D2A 7156  23.734  28.353   8.250
 4697POPC   C3A 7157  23.750  28.382   7.950
 4697POPC   C4A 7158  23.733  28.332   7.650
 4697POPC   C1B 7159  23.618  28.172   8.550
 4697POPC   C2B 7160  23.657  28.128   8.250
 4697POPC   C3B 7161  23.664  28.099   7.950
 4697POPC   C4B 7162  23.673  28.177   7.650
 4698POPC   NC3 7163  29.151   3.534   9.450
 4698POPC   PO4 7164  29.112   3.506   9.150
 4698POPC   GL1 7165  29.131   3.585   8.850
 4698POPC   GL2 7166  29.265   3.464   8.850
 4698POPC   C1A 7167  29.180   3.544   8.550
 4698POPC   D2A 7168  29.110   3.583   8.250
 4698POPC   C3A 7169  29.137   3.511   7.950
 4698POPC   C4A 7170  29.121   3.562   7.650
 4698POPC   C1B 7171  29.350   3.431   8.550
 4698POPC   C2B 7172  29.372   3.402   8.250
 4698POPC   C3B 7173  29.399   3.420   7.950
 4698POPC   C4B 7174  29.313   3.435   7.650
 4699POPC   NC3 7175   9.765  14.366   9.450
 4699POPC   PO4 7176   9.779  14.383   9.150
 4699POPC   GL1 7177   9.735  14.384   8.850
 4699POPC   GL2 7178   9.630  14.365   8.850
 4699POPC   C1A 7179   9.714  14.406   8.550
 4699POPC   D2A 7180   9.758  14.361   8.250
 4699POPC   C3A 7181   9.786  14.372   7.950
 4699POPC   C4A 7182   9.763  14.406   7.650
 4699POPC   C1B 7183   9.489  14.382   8.550
 4699POPC   C2B 7184   9.509  14.376   8.250
 4699POPC   C3B 7185   9.502  14.408   7.950
 4699POPC   C4B 7186   9.548  14.377   7.650
 4700POPC   NC3 7187  21.378  26.835   9.450
 4700POPC   PO4 7188  21.367  26.770   9.150
 4700POPC   GL1 7189  21.398  26.828   8.850
 4700POPC   GL2 7190  21.358  26.755   8.850
 4700POPC   C1A 7191  21.361  26.809   8.550
 4700POPC   D2A 7192  21.374  26.863   8.250
 4700POPC   C3A 7193  21.373  26.867   7.950
 4700POPC   C4A 7194  21.396  26.778   7.650
 4700POPC   C1B 7195  21.285  26.574   8.550
 4700POPC   C2B 7196  21.293  26.621   8.250
 4700POPC   C3B 7197  21.253  26.610   7.950
 4700POPC   C4B 7198  21.295  26.637   7.650
 4701POPC   NC3 7199  26.049  41.515   9.450
 4701POPC   PO4 7200  26.029  41.577   9.150
 4701POPC   GL1 7201  26.087  41.548   8.850
 4701POPC   GL2 7202  25.960  41.621   8.850
 4701POPC   C1A 7203  26.013  41.584   8.550
 4701POPC   D2A 7204  26.039  41.532   8.250
 4701POPC   C3A 7205  26.055  41.574   7.950
 4701POPC   C4A 7206  26.004  41.576   7.650
 4701POPC   C1B 7207  25.777  41.646   8.550
 4701POPC   C2B 7208  25.855  41.716   8.250
 4701POPC   C3B 7209  25.852  41.729   7.950
 4701POPC   C4B 7210  25.774  41.658   7.650
 4702POPC   NC3 7211  19.011  22.176   9.450
 4702POPC   PO4 7212  19.039  22.170   9.150
 4702POPC   GL1 7213  19.057  22.144   8.850
 4702POPC   GL2 7214  18.977  22.123   8.850
 4702POPC   C1A 7215  19.057  22.166   8.550
 4702POPC   D2A 7216  19.071  22.149   8.250
 4702POPC   C3A 7217  19.091  22.119   7.950
 4702POPC   C4A 7218  19.083  22.141   7.650
 4702POPC   C1B 7219  18.801  22.189   8.550
 4702POPC   C2B 7220  18.827  22.168   8.250
 4702POPC   C3B 7221  18.779  22.212   7.950
 4702POPC   C4B 7222  18.834  22.151   7.650
 4703POPC   NC3 7223  20.601  24.458   9.450
 4703POPC   PO4 7224  20.655  24.514   9.150
 4703POPC   GL1 7225  20.581  24.443   8.850
 4703POPC   GL2 7226  20.679  24.410   8.850
 4703POPC   C1A 7227  20.613  24.462   8.550
 4703POPC   D2A 7228  20.648  24.476   8.250
 4703POPC   C3A 7229  20.630  24.536   7.950
 4703POPC   C4A 7230  20.643  24.453   7.650
 4703POPC   C1B 7231  20.666  24.235   8.550
 4703POPC   C2B 7232  20.661  24.254   8.250
 4703POPC   C3B 7233  20.663  24.290   7.950
 4703POPC   C4B 7234  20.636  24.239   7.650
 4704POPC   NC3 7235  33.792  32.200   9.450
 4704POPC   PO4 7236  33.819  32.200   9.150
 4704POPC   GL1 7237  33.772  32.282   8.850
 4704POPC   GL2 7238  33.889  32.081   8.850
 4704POPC   C1A 7239  33.764  32.260   8.550
 4704POPC   D2A 7240  33.778  32.218   8.250
 4704POPC   C3A 7241  33.807  32.248   7.950
 4704POPC   C4A 7242  33.830  32.269   7.650
 4704POPC   C1B 7243  33.858  32.032   8.550
 4704POPC   C2B 7244  33.847  31.966   8.250
 4704POPC   C3B 7245  33.895  32.000   7.950
 4704POPC   C4B 7246  33.929  31.973   7.650
 4705POPC   NC3 7247  19.831  22.135   9.450
 4705POPC   PO4 7248  19.817  22.141   9.150
 4705POPC   GL1 7249  19.882  22.130   8.850
 4705POPC   GL2 7250  19.742  22.186   8.850
 4705POPC   C1A 7251  19.800  22.161   8.550
 4705POPC   D2A 7252  19.812  22.140   8.250
 4705POPC   C3A 7253  19.874  22.207   7.950
 4705POPC   C4A 7254  19.793  22.153   7.650
 4705POPC   C1B 7255  19.626  22.208   8.550
 4705POPC   C2B 7256  19.608  22.215   8.250
 4705POPC   C3B 7257  19.597  22.227   7.950
 4705POPC   C4B 7258  19.633  22.284   7.650
 4706POPC   NC3 7259  12.073  27.597   9.450
 4706POPC   PO4 7260  12.114  27.608   9.150
 4706POPC   GL1 7261  12.068  27.558   8.850
 4706POPC   GL2 7262  12.186  27.705   8.850
 4706POPC   C1A 7263  12.074  27.596   8.550
 4706POPC   D2A 7264  12.063  27.553   8.250
 4706POPC   C3A 7265  12.112  27.566   7.950
 4706POPC   C4A 7266  12.047  27.634   7.650
 4706POPC   C1B 7267  12.205  27.785   8.550
 4706POPC   C2B 7268  12.227  27.826   8.250
 4706POPC   C3B 7269  12.213  27.810   7.950
 4706POPC   C4B 7270  12.186  27.771   7.650
 4707POPC   NC3 7271  19.871  36.939   9.450
 4707POPC   PO4 7272  19.794  36.932   9.150
 4707POPC   GL1 7273  19.835  36.953   8.850
 4707POPC   GL2 7274  19.740  36.904   8.850
 4707POPC   C1A 7275  19.791  36.899   8.550
 4707POPC   D2A 7276  19.796  36.911   8.250
 4707POPC   C3A 7277  19.833  36.920   7.950
 4707POPC   C4A 7278  19.837  36.860   7.650
 4707POPC   C1B 7279  19.563  36.972   8.550
 4707POPC   C2B 7280  19.583  36.891   8.250
 4707POPC   C3B 7281  19.551  36.978   7.950
 4707POPC   C4B 7282  19.541  36.951   7.650
 4708POPC   NC3 7283  36.128  40.054   9.450
 4708POPC   PO4 7284  36.097  40.039   9.150
 4708POPC   GL1 7285  36.140  39.987   8.850
 4708POPC   GL2 7286  36.269  39.889   8.850
 4708POPC   C1A 7287  36.105  39.972   8.550
 4708POPC   D2A 7288  36.164  40.005   8.250
 4708POPC   C3A 7289  36.100  39.998   7.950
 4708POPC   C4A 7290  36.078  39.960   7.650
 4708POPC   C1B 7291  36.274  39.849   8.550
 4708POPC   C2B 7292  36.331  39.861   8.250
 4708POPC   C3B 7293  36.306  39.884   7.950
 4708POPC   C4B 7294  36.367  39.804   7.650
 4709POPC   NC3 7295  19.855  11.294   9.450
 4709POPC   PO4 7296  19.819  11.307   9.150
 4709POPC   GL1 7297  19.868  11.255   8.850
 4709POPC   GL2 7298  19.814  11.165   8.850
 4709POPC   C1A 7299  19.855  11.283   8.550
 4709POPC   D2A 7300  19.792  11.318   8.250
 4709POPC   C3A 7301  19.867  11.321   7.950
 4709POPC   C4A 7302  19.824  11.253   7.650
 4709POPC   C1B 7303  19.731  11.123   8.550
 4709POPC   C2B 7304  19.730  11.079   8.250
 4709POPC   C3B 7305  19.663  11.051   7.950
 4709POPC   C4B 7306  19.703  11.102   7.650
 4710POPC   NC3 7307  38.459  16.757   9.450
 4710POPC   PO4 7308  38.432  16.721   9.150
 4710POPC   GL1 7309  38.458  16.781   8.850
 4710POPC   GL2 7310  38.414  16.615   8.850
 4710POPC   C1A 7311  38.405  16.689   8.550
 4710POPC   D2A 7312  38.454  16.707   8.250
 4710POPC   C3A 7313  38.447  16.684   7.950
 4710POPC   C4A 7314  38.441  16.778   7.650
 4710POPC   C1B 7315  38.370  16.486   8.550
 4710POPC   C2B 7316  38.292  16.540   8.250
 4710POPC   C3B 7317  38.297  16.502   7.950
 4710POPC   C4B 7318  38.291  16.502   7.650
 4711POPC   NC3 7319  32.986  10.565   9.450
 4711POPC   PO4 7320  33.043  10.537   9.150
 4711POPC   GL1 7321  33.068  10.483   8.850
 4711POPC   GL2 7322  32.931  10.575   8.850
 4711POPC   C1A 7323  33.070  10.571   8.550
 4711POPC   D2A 7324  33.044  10.502   8.250
 4711POPC   C3A 7325  33.051  10.481   7.950
 4711POPC   C4A 7326  33.040  10.520   7.650
 4711POPC   C1B 7327  32.836  10.605   8.550
 4711POPC   C2B 7328  32.851  10.657   8.250
 4711POPC   C3B 7329  32.779  10.668   7.950
 4711POPC   C4B 7330  32.811  10.634   7.650
 4712POPC   NC3 7331  37.712  19.833   9.450
 4712POPC   PO4 7332  37.648  19.790   9.150
 4712POPC   GL1 7333  37.706  19.805   8.850
 4712POPC   GL2 7334  37.571  19.857   8.850
 4712POPC   C1A 7335  37.639  19.798   8.550
 4712POPC   D2A 7336  37.678  19.839   8.250
 4712POPC   C3A 7337  37.715  19.840   7.950
 4712POPC   C4A 7338  37.630  19.787   7.650
 4712POPC   C1B 7339  37.459  19.886   8.550
 4712POPC   C2B 7340  37.459  19.854   8.250
 4712POPC   C3B 7341  37.412  19.824   7.950
 4712POPC   C4B 7342  37.458  19.847   7.650
 4713POPC   NC3 7343  12.057  36.175   9.450
 4713POPC   PO4 7344  12.062  36.103   9.150
 4713POPC   GL1 7345  12.100  36.083   8.850
 4713POPC   GL2 7346  12.166  36.036   8.850
 4713POPC   C1A 7347  12.029  36.169   8.550
 4713POPC   D2A 7348  12.104  36.110   8.250
 4713POPC   C3A 7349  12.062  36.113   7.950
 4713POPC   C4A 7350  12.081  36.098   7.650
 4713POPC   C1B 7351  12.256  35.987   8.550
 4713POPC   C2B 7352  12.328  36.044   8.250
 4713POPC   C3B 7353  12.302  36.017   7.950
 4713POPC   C4B 7354  12.272  35.953   7.650
 4714POPC   NC3 7355  21.433  44.619   9.450
 4714POPC   PO4 7356  21.385  44.673   9.150
 4714POPC   GL1 7357  21.364  44.667   8.850
 4714POPC   GL2 7358  21.550  44.656   8.850
 4714POPC   C1A 7359  21.429  44.694   8.550
 4714POPC   D2A 7360  21.364  44.682   8.250
 4714POPC   C3A 7361  21.413  44.644   7.950
 4714POPC   C4A 7362  21.399  44.632   7.650
 4714POPC   C1B 7363  21.677  44.618   8.550
 4714POPC   C2B 7364  21.661  44.637   8.250
 4714POPC   C3B 7365  21.610  44.609   7.950
 4714POPC   C4B 7366  21.667  44.595   7.650
 4715POPC   NC3 7367  19.085   1.202   9.450
 4715POPC   PO4 7368  19.072   1.181   9.150
 4715POPC   GL1 7369  19.066   1.224   8.850
 4715POPC   GL2 7370  19.185   1.119   8.850
 4715POPC   C1A 7371  19.063   1.190   8.550
 4715POPC   D2A 7372  19.027   1.212   8.250
 4715POPC   C3A 7373  19.011   1.196   7.950
 4715POPC   C4A 7374  19.088   1.178   7.650
 4715POPC   C1B 7375  19.191   0.972   8.550
 4715POPC   C2B 7376  19.256   1.005   8.250
 4715POPC   C3B 7377  19.181   0.977   7.950
 4715POPC   C4B 7378  19.257   1.020   7.650
 4716POPC   NC3 7379  11.256  31.442   9.450
 4716POPC   PO4 7380  11.303  31.472   9.150
 4716POPC   GL1 7381  11.261  31.426   8.850
 4716POPC   GL2 7382  11.291  31.338   8.850
 4716POPC   C1A 7383  11.283  31.465   8.550
 4716POPC   D2A 7384  11.319  31.460   8.250
 4716POPC   C3A 7385  11.319  31.433   7.950
 4716POPC   C4A 7386  11.313  31.479   7.650
 4716POPC   C1B 7387  11.301  31.179   8.550
 4716POPC   C2B 7388  11.275  31.205   8.250
 4716POPC   C3B 7389  11.326  31.264   7.950
 4716POPC   C4B 7390  11.307  31.239   7.650
 4717POPC   NC3 7391  10.568  36.088   9.450
 4717POPC   PO4 7392  10.524  36.158   9.150
 4717POPC   GL1 7393  10.507  36.169   8.850
 4717POPC   GL2 7394  10.456  36.244   8.850
 4717POPC   C1A 7395  10.560  36.101   8.550
 4717POPC   D2A 7396  10.569  36.137   8.250
 4717POPC   C3A 7397  10.531  36.170   7.950
 4717POPC   C4A 7398  10.479  36.122   7.650
 4717POPC   C1B 7399  10.458  36.387   8.550
 4717POPC   C2B 7400  10.401  36.380   8.250
 4717POPC   C3B 7401  10.407  36.312   7.950
 4717POPC   C4B 7402  10.439  36.325   7.650
 4718POPC   NC3 7403   5.873   1.177   9.450
 4718POPC   PO4 7404   5.853   1.258   9.150
 4718POPC   GL1 7405   5.838   1.172   8.850
 4718POPC   GL2 7406   5.903   1.066   8.850
 4718POPC   C1A 7407   5.896   1.206   8.550
 4718POPC   D2A 7408   5.877   1.167   8.250
 4718POPC   C3A 7409   5.846   1.170   7.950
 4718POPC   C4A 7410   5.901   1.264   7.650
 4718POPC   C1B 7411   5.892   0.943   8.550
 4718POPC   C2B 7412   5.888   0.997   8.250
 4718POPC   C3B 7413   5.871   0.919   7.950
 4718POPC   C4B 7414   5.842   0.989   7.650
 4719POPC   NC3 7415  10.514  14.442   9.450
 4719POPC   PO4 7416  10.487  14.375   9.150
 4719POPC   GL1 7417  10.552  14.423   8.850
 4719POPC   GL2 7418  10.378  14.509   8.850
 4719POPC   C1A 7419  10.530  14.417   8.550
 4719POPC   D2A 7420  10.537  14.392   8.250
 4719POPC   C3A 7421  10.524  14.448   7.950
 4719POPC   C4A 7422  10.569  14.426   7.650
 4719POPC   C1B 7423  10.312  14.496   8.550
 4719POPC   C2B 7424  10.360  14.588   8.250
 4719POPC   C3B 7425  10.356  14.556   7.950
 4719POPC   C4B 7426  10.286  14.501   7.650
 4720POPC   NC3 7427  40.827  19.839   9.450
 4720POPC   PO4 7428  40.822  19.845   9.150
 4720POPC   GL1 7429  40.754  19.843   8.850
 4720POPC   GL2 7430  40.799  19.924   8.850
 4720POPC   C1A 7431  40.819  19.824   8.550
 4720POPC   D2A 7432  40.736  19.829   8.250
 4720POPC   C3A 7433  40.780  19.803   7.950
 4720POPC   C4A 7434  40.798  19.834   7.650
 4720POPC   C1B 7435  40.786  20.129   8.550
 4720POPC   C2B 7436  40.767  20.088   8.250
 4720POPC   C3B 7437  40.753  20.096   7.950
 4720POPC   C4B 7438  40.792  20.075   7.650
 4721POPC   NC3 7439  19.034   2.000   9.450
 4721POPC   PO4 7440  19.033   2.013   9.150
 4721POPC   GL1 7441  19.013   2.018   8.850
 4721POPC   GL2 7442  19.167   1.858   8.850
 4721POPC   C1A 7443  19.072   1.974   8.550
 4721POPC   D2A 7444  19.015   2.039   8.250
 4721POPC   C3A 7445  19.031   1.941   7.950
 4721POPC   C4A 7446  19.094   1.971   7.650
 4721POPC   C1B 7447  19.238   1.844   8.550
 4721POPC   C2B 7448  19.255   1.753   8.250
 4721POPC   C3B 7449  19.201   1.837   7.950
 4721POPC   C4B 7450  19.231   1.780   7.650
 4722POPC   NC3 7451  21.349   2.786   9.450
 4722POPC   PO4 7452  21.352   2.755   9.150
 4722POPC   GL1 7453  21.388   2.757   8.850
 4722POPC   GL2 7454  21.422   2.819   8.850
 4722POPC   C1A 7455  21.338   2.801   8.550
 4722POPC   D2A 7456  21.396   2.757   8.250
 4722POPC   C3A 7457  21.373   2.721   7.950
 4722POPC   C4A 7458  21.394   2.803   7.650
 4722POPC   C1B 7459  21.541   2.965   8.550
 4722POPC   C2B 7460  21.586   2.985   8.250
 4722POPC   C3B 7461  21.535   2.988   7.950
 4722POPC   C4B 7462  21.530   2.963   7.650
 4723POPC   NC3 7463  43.102  24.484   9.450
 4723POPC   PO4 7464  43.105  24.528   9.150
 4723POPC   GL1 7465  43.100  24.475   8.850
 4723POPC   GL2 7466  43.177  24.586   8.850
 4723POPC   C1A 7467  43.111  24.467   8.550
 4723POPC   D2A 7468  43.081  24.493   8.250
 4723POPC   C3A 7469  43.154  24.457   7.950
 4723POPC   C4A 7470  43.064  24.480   7.650
 4723POPC   C1B 7471  43.291  24.697   8.550
 4723POPC   C2B 7472  43.265  24.722   8.250
 4723POPC   C3B 7473  43.196  24.710   7.950
 4723POPC   C4B 7474  43.245  24.698   7.650
 4724POPC   NC3 7475  21.424  15.187   9.450
 4724POPC   PO4 7476  21.371  15.209   9.150
 4724POPC   GL1 7477  21.422  15.135   8.850
 4724POPC   GL2 7478  21.474  15.216   8.850
 4724POPC   C1A 7479  21.397  15.219   8.550
 4724POPC   D2A 7480  21.365  15.156   8.250
 4724POPC   C3A 7481  21.434  15.153   7.950
 4724POPC   C4A 7482  21.399  15.200   7.650
 4724POPC   C1B 7483  21.644  15.190   8.550
 4724POPC   C2B 7484  21.625  15.183   8.250
 4724POPC   C3B 7485  21.651  15.147   7.950
 4724POPC   C4B 7486  21.677  15.165   7.650
 4725POPC   NC3 7487   4.299  20.590   9.450
 4725POPC   PO4 7488   4.277  20.563   9.150
 4725POPC   GL1 7489   4.318  20.653   8.850
 4725POPC   GL2 7490   4.382  20.505   8.850
 4725POPC   C1A 7491   4.323  20.585   8.550
 4725POPC   D2A 7492   4.367  20.645   8.250
 4725POPC   C3A 7493   4.319  20.618   7.950
 4725POPC   C4A 7494   4.324  20.614   7.650
 4725POPC   C1B 7495   4.363  20.328   8.550
 4725POPC   C2B 7496   4.388  20.396   8.250
 4725POPC   C3B 7497   4.392  20.357   7.950
 4725POPC   C4B 7498   4.386  20.351   7.650
 4726POPC   NC3 7499  22.158  34.567   9.450
 4726POPC   PO4 7500  22.195  34.623   9.150
 4726POPC   GL1 7501  22.113  34.571   8.850
 4726POPC   GL2 7502  22.271  34.502   8.850
 4726POPC   C1A 7503  22.168  34.602   8.550
 4726POPC   D2A 7504  22.180  34.543   8.250
 4726POPC   C3A 7505  22.124  34.581   7.950
 4726POPC   C4A 7506  22.133  34.613   7.650
 4726POPC   C1B 7507  22.341  34.415   8.550
 4726POPC   C2B 7508  22.290  34.359   8.250
 4726POPC   C3B 7509  22.345  34.381   7.950
 4726POPC   C4B 7510  22.290  34.351   7.650
 4727POPC   NC3 7511   4.283   1.221   9.450
 4727POPC   PO4 7512   4.287   1.180   9.150
 4727POPC   GL1 7513   4.361   1.243   8.850
 4727POPC   GL2 7514   4.278   1.136   8.850
 4727POPC   C1A 7515   4.350   1.261   8.550
 4727POPC   D2A 7516   4.341   1.230   8.250
 4727POPC   C3A 7517   4.341   1.210   7.950
 4727POPC   C4A 7518   4.355   1.218   7.650
 4727POPC   C1B 7519   4.145   1.022   8.550
 4727POPC   C2B 7520   4.153   1.010   8.250
 4727POPC   C3B 7521   4.206   1.020   7.950
 4727POPC   C4B 7522   4.138   0.987   7.650
 4728POPC   NC3 7523   2.026  23.675   9.450
 4728POPC   PO4 7524   2.020  23.719   9.150
 4728POPC   GL1 7525   1.954  23.706   8.850
 4728POPC   GL2 7526   2.015  23.827   8.850
 4728POPC   C1A 7527   2.018  23.671   8.550
 4728POPC   D2A 7528   1.998  23.706   8.250
 4728POPC   C3A 7529   2.016  23.711   7.950
 4728POPC   C4A 7530   1.959  23.749   7.650
 4728POPC   C1B 7531   2.123  23.877   8.550
 4728POPC   C2B 7532   2.119  23.966   8.250
 4728POPC   C3B 7533   2.092  23.924   7.950
 4728POPC   C4B 7534   2.097  23.963   7.650
 4729POPC   NC3 7535  36.121  25.257   9.450
 4729POPC   PO4 7536  36.148  25.289   9.150
 4729POPC   GL1 7537  36.161  25.310   8.850
 4729POPC   GL2 7538  36.020  25.260   8.850
 4729POPC   C1A 7539  36.124  25.226   8.550
 4729POPC   D2A 7540  36.148  25.262   8.250
 4729POPC   C3A 7541  36.119  25.283   7.950
 4729POPC   C4A 7542  36.155  25.222   7.650
 4729POPC   C1B 7543  35.919  25.176   8.550
 4729POPC   C2B 7544  35.928  25.147   8.250
 4729POPC   C3B 7545  35.854  25.167   7.950
 4729POPC   C4B 7546  35.872  25.194   7.650
 4730POPC   NC3 7547  44.655  15.172   9.450
 4730POPC   PO4 7548  44.651  15.227   9.150
 4730POPC   GL1 7549  44.653  15.152   8.850
 4730POPC   GL2 7550  44.714  15.263   8.850
 4730POPC   C1A 7551  44.638  15.153   8.550
 4730POPC   D2A 7552  44.702  15.178   8.250
 4730POPC   C3A 7553  44.638  15.186   7.950
 4730POPC   C4A 7554  44.642  15.174   7.650
 4730POPC   C1B 7555  44.778  15.411   8.550
 4730POPC   C2B 7556  44.773  15.435   8.250
 4730POPC   C3B 7557  44.754  15.416   7.950
 4730POPC   C4B 7558  44.795  15.407   7.650
 4731POPC   NC3 7559  40.024   0.479   9.450
 4731POPC   PO4 7560  40.002   0.393   9.150
 4731POPC   GL1 7561  39.984   0.399   8.850
 4731POPC   GL2 7562  39.853   0.441   8.850
 4731POPC   C1A 7563  40.055   0.468   8.550
 4731POPC   D2A 7564  39.985   0.483   8.250
 4731POPC   C3A 7565  39.996   0.468   7.950
 4731POPC   C4A 7566  40.010   0.469   7.650
 4731POPC   C1B 7567  39.730   0.498   8.550
 4731POPC   C2B 7568  39.791   0.556   8.250
 4731POPC   C3B 7569  39.824   0.540   7.950
 4731POPC   C4B 7570  39.733   0.514   7.650
 4732POPC   NC3 7571  34.610  40.019   9.450
 4732POPC   PO4 7572  34.546  40.052   9.150
 4732POPC   GL1 7573  34.558  40.046   8.850
 4732POPC   GL2 7574  34.626  40.089   8.850
 4732POPC   C1A 7575  34.526  40.035   8.550
 4732POPC   D2A 7576  34.597  39.966   8.250
 4732POPC   C3A 7577  34.591  40.026   7.950
 4732POPC   C4A 7578  34.587  40.009   7.650
 4732POPC   C1B 7579  34.614  40.217   8.550
 4732POPC   C2B 7580  34.586  40.260   8.250
 4732POPC   C3B 7581  34.574  40.275   7.950
 4732POPC   C4B 7582  34.586  40.288   7.650
 4733POPC   NC3 7583  27.565   1.258   9.450
 4733POPC   PO4 7584  27.635   1.185   9.150
 4733POPC   GL1 7585  27.635   1.207   8.850
 4733POPC   GL2 7586  27.657   1.385   8.850
 4733POPC   C1A 7587  27.573   1.169   8.550
 4733POPC   D2A 7588  27.618   1.200   8.250
 4733POPC   C3A 7589  27.558   1.197   7.950
 4733POPC   C4A 7590  27.543   1.249   7.650
 4733POPC   C1B 7591  27.604   1.439   8.550
 4733POPC   C2B 7592  27.596   1.486   8.250
 4733POPC   C3B 7593  27.591   1.429   7.950
 4733POPC   C4B 7594  27.632   1.413   7.650
 4734POPC   NC3 7595  14.387  39.249   9.450
 4734POPC   PO4 7596  14.366  39.278   9.150
 4734POPC   GL1 7597  14.355  39.187   8.850
 4734POPC   GL2 7598  14.328  39.226   8.850
 4734POPC   C1A 7599  14.442  39.207   8.550
 4734POPC   D2A 7600  14.370  39.274   8.250
 4734POPC   C3A 7601  14.420  39.262   7.950
 4734POPC   C4A 7602  14.403  39.280   7.650
 4734POPC   C1B 7603  14.125  39.325   8.550
 4734POPC   C2B 7604  14.202  39.258   8.250
 4734POPC   C3B 7605  14.143  39.309   7.950
 4734POPC   C4B 7606  14.173  39.333   7.650
 4735POPC   NC3 7607  36.885  39.252   9.450
 4735POPC   PO4 7608  36.919  39.230   9.150
 4735POPC   GL1 7609  36.861  39.235   8.850
 4735POPC   GL2 7610  36.895  39.093   8.850
 4735POPC   C1A 7611  36.941  39.212   8.550
 4735POPC   D2A 7612  36.879  39.183   8.250
 4735POPC   C3A 7613  36.896  39.192   7.950
 4735POPC   C4A 7614  36.949  39.240   7.650
 4735POPC   C1B 7615  36.875  38.958   8.550
 4735POPC   C2B 7616  36.950  38.944   8.250
 4735POPC   C3B 7617  36.870  38.972   7.950
 4735POPC   C4B 7618  36.918  38.956   7.650
 4736POPC   NC3 7619   5.840  21.347   9.450
 4736POPC   PO4 7620   5.823  21.401   9.150
 4736POPC   GL1 7621   5.838  21.424   8.850
 4736POPC   GL2 7622   5.887  21.264   8.850
 4736POPC   C1A 7623   5.856  21.422   8.550
 4736POPC   D2A 7624   5.876  21.347   8.250
 4736POPC   C3A 7625   5.878  21.375   7.950
 4736POPC   C4A 7626   5.917  21.362   7.650
 4736POPC   C1B 7627   6.020  21.116   8.550
 4736POPC   C2B 7628   6.020  21.157   8.250
 4736POPC   C3B 7629   5.966  21.138   7.950
 4736POPC   C4B 7630   5.960  21.205   7.650
 4737POPC   NC3 7631  39.237  10.522   9.450
 4737POPC   PO4 7632  39.268  10.477   9.150
 4737POPC   GL1 7633  39.195  10.551   8.850
 4737POPC   GL2 7634  39.275  10.656   8.850
 4737POPC   C1A 7635  39.262  10.549   8.550
 4737POPC   D2A 7636  39.182  10.513   8.250
 4737POPC   C3A 7637  39.195  10.571   7.950
 4737POPC   C4A 7638  39.201  10.551   7.650
 4737POPC   C1B 7639  39.346  10.813   8.550
 4737POPC   C2B 7640  39.312  10.732   8.250
 4737POPC   C3B 7641  39.314  10.747   7.950
 4737POPC   C4B 7642  39.345  10.724   7.650
 4738POPC   NC3 7643  27.565  37.647   9.450
 4738POPC   PO4 7644  27.577  37.636   9.150
 4738POPC   GL1 7645  27.628  37.683   8.850
 4738POPC   GL2 7646  27.438  37.722   8.850
 4738POPC   C1A 7647  27.619  37.690   8.550
 4738POPC   D2A 7648  27.557  37.662   8.250
 4738POPC   C3A 7649  27.601  37.697   7.950
 4738POPC   C4A 7650  27.629  37.686   7.650
 4738POPC   C1B 7651  27.320  37.700   8.550
 4738POPC   C2B 7652  27.313  37.684   8.250
 4738POPC   C3B 7653  27.368  37.702   7.950
 4738POPC   C4B 7654  27.387  37.747   7.650
 4739POPC   NC3 7655  40.043  27.573   9.450
 4739POPC   PO4 7656  40.038  27.633   9.150
 4739POPC   GL1 7657  39.987  27.557   8.850
 4739POPC   GL2 7658  40.102  27.652   8.850
 4739POPC   C1A 7659  39.993  27.591   8.550
 4739POPC   D2A 7660  40.020  27.639   8.250
 4739POPC   C3A 7661  40.032  27.629   7.950
 4739POPC   C4A 7662  40.043  27.560   7.650
 4739POPC   C1B 7663  40.153  27.779   8.550
 4739POPC   C2B 7664  40.192  27.723   8.250
 4739POPC   C3B 7665  40.186  27.731   7.950
 4739POPC   C4B 7666  40.138  27.735   7.650
 4740POPC   NC3 7667  31.449  40.743   9.450
 4740POPC   PO4 7668  31.516  40.827   9.150
 4740POPC   GL1 7669  31.496  40.811   8.850
 4740POPC   GL2 7670  31.559  40.880   8.850
 4740POPC   C1A 7671  31.470  40.761   8.550
 4740POPC   D2A 7672  31.483  40.735   8.250
 4740POPC   C3A 7673  31.471  40.806   7.950
 4740POPC   C4A 7674  31.478  40.796   7.650
 4740POPC   C1B 7675  31.612  41.060   8.550
 4740POPC   C2B 7676  31.565  40.994   8.250
 4740POPC   C3B 7677  31.599  40.974   7.950
 4740POPC   C4B 7678  31.589  40.978   7.650
 4741POPC   NC3 7679   3.591  31.513   9.450
 4741POPC   PO4 7680   3.512  31.517   9.150
 4741POPC   GL1 7681   3.545  31.512   8.850
 4741POPC   GL2 7682   3.510  31.568   8.850
 4741POPC   C1A 7683   3.542  31.444   8.550
 4741POPC   D2A 7684   3.537  31.510   8.250
 4741POPC   C3A 7685   3.549  31.447   7.950
 4741POPC   C4A 7686   3.528  31.426   7.650
 4741POPC   C1B 7687   3.401  31.727   8.550
 4741POPC   C2B 7688   3.380  31.694   8.250
 4741POPC   C3B 7689   3.415  31.630   7.950
 4741POPC   C4B 7690   3.397  31.723   7.650
 4742POPC   NC3 7691   5.873  40.023   9.450
 4742POPC   PO4 7692   5.855  39.996   9.150
 4742POPC   GL1 7693   5.863  40.037   8.850
 4742POPC   GL2 7694   5.830  39.880   8.850
 4742POPC   C1A 7695   5.903  40.048   8.550
 4742POPC   D2A 7696   5.854  39.961   8.250
 4742POPC   C3A 7697   5.841  40.057   7.950
 4742POPC   C4A 7698   5.855  40.008   7.650
 4742POPC   C1B 7699   5.770  39.730   8.550
 4742POPC   C2B 7700   5.807  39.780   8.250
 4742POPC   C3B 7701   5.779  39.789   7.950
 4742POPC   C4B 7702   5.738  39.817   7.650
 4743POPC   NC3 7703   6.639  28.387   9.450
 4743POPC   PO4 7704   6.612  28.329   9.150
 4743POPC   GL1 7705   6.688  28.404   8.850
 4743POPC   GL2 7706   6.618  28.509   8.850
 4743POPC   C1A 7707   6.662  28.346   8.550
 4743POPC   D2A 7708   6.622  28.387   8.250
 4743POPC   C3A 7709   6.637  28.343   7.950
 4743POPC   C4A 7710   6.628  28.398   7.650
 4743POPC   C1B 7711   6.680  28.590   8.550
 4743POPC   C2B 7712   6.651  28.662   8.250
 4743POPC   C3B 7713   6.642  28.613   7.950
 4743POPC   C4B 7714   6.719  28.607   7.650
 4744POPC   NC3 7715  37.703  36.142   9.450
 4744POPC   PO4 7716  37.691  36.159   9.150
 4744POPC   GL1 7717  37.668  36.090   8.850
 4744POPC   GL2 7718  37.682  35.990   8.850
 4744POPC   C1A 7719  37.691  36.082   8.550
 4744POPC   D2A 7720  37.636  36.142   8.250
 4744POPC   C3A 7721  37.669  36.162   7.950
 4744POPC   C4A 7722  37.681  36.122   7.650
 4744POPC   C1B 7723  37.595  35.909   8.550
 4744POPC   C2B 7724  37.645  35.872   8.250
 4744POPC   C3B 7725  37.585  35.884   7.950
 4744POPC   C4B 7726  37.569  35.885   7.650
 4745POPC   NC3 7727  34.574  11.283   9.450
 4745POPC   PO4 7728  34.551  11.307   9.150
 4745POPC   GL1 7729  34.565  11.273   8.850
 4745POPC   GL2 7730  34.669  11.169   8.850
 4745POPC   C1A 7731  34.603  11.300   8.550
 4745POPC   D2A 7732  34.605  11.266   8.250
 4745POPC   C3A 7733  34.577  11.274   7.950
 4745POPC   C4A 7734  34.530  11.336   7.650
 4745POPC   C1B 7735  34.636  11.076   8.550
 4745POPC   C2B 7736  34.649  11.109   8.250
 4745POPC   C3B 7737  34.691  11.106   7.950
 4745POPC   C4B 7738  34.691  11.104   7.650
 4746POPC   NC3 7739   1.168  27.635   9.450
 4746POPC   PO4 7740   1.183  27.640   9.150
 4746POPC   GL1 7741   1.182  27.612   8.850
 4746POPC   GL2 7742   1.260  27.749   8.850
 4746POPC   C1A 7743   1.244  27.591   8.550
 4746POPC   D2A 7744   1.167  27.558   8.250
 4746POPC   C3A 7745   1.183  27.555   7.950
 4746POPC   C4A 7746   1.259  27.623   7.650
 4746POPC   C1B 7747   1.350  27.810   8.550
 4746POPC   C2B 7748   1.323  27.821   8.250
 4746POPC   C3B 7749   1.355  27.760   7.950
 4746POPC   C4B 7750   1.364  27.802   7.650
 4747POPC   NC3 7751   5.880  32.241   9.450
 4747POPC   PO4 7752   5.902  32.293   9.150
 4747POPC   GL1 7753   5.850  32.246   8.850
 4747POPC   GL2 7754   5.823  32.106   8.850
 4747POPC   C1A 7755   5.882  32.294   8.550
 4747POPC   D2A 7756   5.871  32.274   8.250
 4747POPC   C3A 7757   5.854  32.226   7.950
 4747POPC   C4A 7758   5.895  32.269   7.650
 4747POPC   C1B 7759   5.855  32.020   8.550
 4747POPC   C2B 7760   5.777  31.979   8.250
 4747POPC   C3B 7761   5.848  32.050   7.950
 4747POPC   C4B 7762   5.788  32.019   7.650
 4748POPC   NC3 7763   5.093  15.927   9.450
 4748POPC   PO4 7764   5.085  15.987   9.150
 4748POPC   GL1 7765   5.138  15.999   8.850
 4748POPC   GL2 7766   5.188  15.842   8.850
 4748POPC   C1A 7767   5.095  15.991   8.550
 4748POPC   D2A 7768   5.097  15.933   8.250
 4748POPC   C3A 7769   5.122  15.955   7.950
 4748POPC   C4A 7770   5.095  15.945   7.650
 4748POPC   C1B 7771   5.218  15.711   8.550
 4748POPC   C2B 7772   5.181  15.729   8.250
 4748POPC   C3B 7773   5.227  15.715   7.950
 4748POPC   C4B 7774   5.169  15.696   7.650
 4749POPC   NC3 7775  37.726  26.819   9.450
 4749POPC   PO4 7776  37.689  26.823   9.150
 4749POPC   GL1 7777  37.712  26.833   8.850
 4749POPC   GL2 7778  37.580  26.767   8.850
 4749POPC   C1A 7779  37.686  26.857   8.550
 4749POPC   D2A 7780  37.636  26.778   8.250
 4749POPC   C3A 7781  37.697  26.809   7.950
 4749POPC   C4A 7782  37.647  26.851   7.650
 4749POPC   C1B 7783  37.434  26.690   8.550
 4749POPC   C2B 7784  37.438  26.711   8.250
 4749POPC   C3B 7785  37.490  26.696   7.950
 4749POPC   C4B 7786  37.480  26.718   7.650
 4750POPC   NC3 7787  26.864  12.059   9.450
 4750POPC   PO4 7788  26.797  12.059   9.150
 4750POPC   GL1 7789  26.862  12.062   8.850
 4750POPC   GL2 7790  26.756  12.182   8.850
 4750POPC   C1A 7791  26.770  12.063   8.550
 4750POPC   D2A 7792  26.867  12.075   8.250
 4750POPC   C3A 7793  26.771  12.059   7.950
 4750POPC   C4A 7794  26.835  12.115   7.650
 4750POPC   C1B 7795  26.660  12.336   8.550
 4750POPC   C2B 7796  26.654  12.278   8.250
 4750POPC   C3B 7797  26.700  12.269   7.950
 4750POPC   C4B 7798  26.652  12.320   7.650
 4751POPC   NC3 7799  15.990  43.913   9.450
 4751POPC   PO4 7800  15.930  43.887   9.150
 4751POPC   GL1 7801  15.972  43.844   8.850
 4751POPC   GL2 7802  16.075  43.831   8.850
 4751POPC   C1A 7803  15.926  43.909   8.550
 4751POPC   D2A 7804  15.919  43.902   8.250
 4751POPC   C3A 7805  15.922  43.911   7.950
 4751POPC   C4A 7806  15.991  43.863   7.650
 4751POPC   C1B 7807  16.182  43.796   8.550
 4751POPC   C2B 7808  16.165  43.710   8.250
 4751POPC   C3B 7809  16.181  43.708   7.950
 4751POPC   C4B 7810  16.158  43.807   7.650
 4752POPC   NC3 7811  13.582  34.550   9.450
 4752POPC   PO4 7812  13.636  34.609   9.150
 4752POPC   GL1 7813  13.623  34.539   8.850
 4752POPC   GL2 7814  13.547  34.728   8.850
 4752POPC   C1A 7815  13.637  34.589   8.550
 4752POPC   D2A 7816  13.587  34.542   8.250
 4752POPC   C3A 7817  13.588  34.575   7.950
 4752POPC   C4A 7818  13.650  34.597   7.650
 4752POPC   C1B 7819  13.496  34.835   8.550
 4752POPC   C2B 7820  13.514  34.743   8.250
 4752POPC   C3B 7821  13.452  34.835   7.950
 4752POPC   C4B 7822  13.497  34.768   7.650
 4753POPC   NC3 7823  23.717   3.577   9.450
 4753POPC   PO4 7824  23.699   3.533   9.150
 4753POPC   GL1 7825  23.704   3.562   8.850
 4753POPC   GL2 7826  23.815   3.465   8.850
 4753POPC   C1A 7827  23.673   3.527   8.550
 4753POPC   D2A 7828  23.718   3.513   8.250
 4753POPC   C3A 7829  23.703   3.590   7.950
 4753POPC   C4A 7830  23.684   3.578   7.650
 4753POPC   C1B 7831  23.926   3.441   8.550
 4753POPC   C2B 7832  23.973   3.408   8.250
 4753POPC   C3B 7833  23.933   3.425   7.950
 4753POPC   C4B 7834  23.969   3.470   7.650
 4754POPC   NC3 7835   1.195  26.774   9.450
 4754POPC   PO4 7836   1.207  26.855   9.150
 4754POPC   GL1 7837   1.190  26.864   8.850
 4754POPC   GL2 7838   1.147  26.920   8.850
 4754POPC   C1A 7839   1.185  26.854   8.550
 4754POPC   D2A 7840   1.263  26.796   8.250
 4754POPC   C3A 7841   1.209  26.784   7.950
 4754POPC   C4A 7842   1.180  26.849   7.650
 4754POPC   C1B 7843   1.060  27.011   8.550
 4754POPC   C2B 7844   1.049  26.990   8.250
 4754POPC   C3B 7845   1.091  27.023   7.950
 4754POPC   C4B 7846   1.044  27.009   7.650
 4755POPC   NC3 7847  12.876   6.619   9.450
 4755POPC   PO4 7848  12.857   6.641   9.150
 4755POPC   GL1 7849  12.862   6.598   8.850
 4755POPC   GL2 7850  12.904   6.743   8.850
 4755POPC   C1A 7851  12.854   6.643   8.550
 4755POPC   D2A 7852  12.830   6.663   8.250
 4755POPC   C3A 7853  12.891   6.647   7.950
 4755POPC   C4A 7854  12.850   6.613   7.650
 4755POPC   C1B 7855  12.864   6.889   8.550
 4755POPC   C2B 7856  12.885   6.934   8.250
 4755POPC   C3B 7857  12.830   6.874   7.950
 4755POPC   C4B 7858  12.908   6.889   7.650
 4756POPC   NC3 7859  12.837  32.283   9.450
 4756POPC   PO4 7860  12.856  32.290   9.150
 4756POPC   GL1 7861  12.849  32.223   8.850
 4756POPC   GL2 7862  12.855  32.176   8.850
 4756POPC   C1A 7863  12.866  32.230   8.550
 4756POPC   D2A 7864  12.833  32.268   8.250
 4756POPC   C3A 7865  12.824  32.217   7.950
 4756POPC   C4A 7866  12.810  32.272   7.650
 4756POPC   C1B 7867  12.739  31.989   8.550
 4756POPC   C2B 7868  12.809  32.010   8.250
 4756POPC   C3B 7869  12.714  31.996   7.950
 4756POPC   C4B 7870  12.732  32.014   7.650
 4757POPC   NC3 7871  29.873   4.341   9.450
 4757POPC   PO4 7872  29.886   4.353   9.150
 4757POPC   GL1 7873  29.962   4.343   8.850
 4757POPC   GL2 7874  29.879   4.157   8.850
 4757POPC   C1A 7875  29.911   4.343   8.550
 4757POPC   D2A 7876  29.890   4.311   8.250
 4757POPC   C3A 7877  29.917   4.298   7.950
 4757POPC   C4A 7878  29.889   4.284   7.650
 4757POPC   C1B 7879  29.790   4.131   8.550
 4757POPC   C2B 7880  29.815   4.085   8.250
 4757POPC   C3B 7881  29.826   4.087   7.950
 4757POPC   C4B 7882  29.788   4.136   7.650
 4758POPC   NC3 7883  32.199  33.000   9.450
 4758POPC   PO4 7884  32.217  33.025   9.150
 4758POPC   GL1 7885  32.217  33.065   8.850
 4758POPC   GL2 7886  32.097  32.988   8.850
 4758POPC   C1A 7887  32.202  32.997   8.550
 4758POPC   D2A 7888  32.277  32.978   8.250
 4758POPC   C3A 7889  32.210  32.974   7.950
 4758POPC   C4A 7890  32.254  32.987   7.650
 4758POPC   C1B 7891  32.015  33.017   8.550
 4758POPC   C2B 7892  32.002  33.058   8.250
 4758POPC   C3B 7893  32.022  32.969   7.950
 4758POPC   C4B 7894  32.001  32.984   7.650
 4759POPC   NC3 7895  38.495  28.352   9.450
 4759POPC   PO4 7896  38.423  28.340   9.150
 4759POPC   GL1 7897  38.406  28.389   8.850
 4759POPC   GL2 7898  38.487  28.445   8.850
 4759POPC   C1A 7899  38.422  28.330   8.550
 4759POPC   D2A 7900  38.502  28.387   8.250
 4759POPC   C3A 7901  38.490  28.366   7.950
 4759POPC   C4A 7902  38.437  28.334   7.650
 4759POPC   C1B 7903  38.525  28.636   8.550
 4759POPC   C2B 7904  38.502  28.641   8.250
 4759POPC   C3B 7905  38.446  28.656   7.950
 4759POPC   C4B 7906  38.466  28.616   7.650
 4760POPC   NC3 7907  34.621  37.648   9.450
 4760POPC   PO4 7908  34.612  37.725   9.150
 4760POPC   GL1 7909  34.532  37.681   8.850
 4760POPC   GL2 7910  34.682  37.695   8.850
 4760POPC   C1A 7911  34.560  37.643   8.550
 4760POPC   D2A 7912  34.608  37.631   8.250
 4760POPC   C3A 7913  34.563  37.634   7.950
 4760POPC   C4A 7914  34.626  37.676   7.650
 4760POPC   C1B 7915  34.807  37.720   8.550
 4760POPC   C2B 7916  34.785  37.800   8.250
 4760POPC   C3B 7917  34.809  37.735   7.950
 4760POPC   C4B 7918  34.854  37.709   7.650
 4761POPC   NC3 7919  12.034  20.649   9.450
 4761POPC   PO4 7920  12.095  20.634   9.150
 4761POPC   GL1 7921  12.096  20.569   8.850
 4761POPC   GL2 7922  11.982  20.646   8.850
 4761POPC   C1A 7923  12.027  20.637   8.550
 4761POPC   D2A 7924  12.043  20.596   8.250
 4761POPC   C3A 7925  12.091  20.632   7.950
 4761POPC   C4A 7926  12.038  20.564   7.650
 4761POPC   C1B 7927  11.851  20.798   8.550
 4761POPC   C2B 7928  11.859  20.808   8.250
 4761POPC   C3B 7929  11.839  20.806   7.950
 4761POPC   C4B 7930  11.899  20.798   7.650
 4762POPC   NC3 7931  32.277   9.011   9.450
 4762POPC   PO4 7932  32.238   8.944   9.150
 4762POPC   GL1 7933  32.267   8.971   8.850
 4762POPC   GL2 7934  32.119   8.916   8.850
 4762POPC   C1A 7935  32.274   9.014   8.550
 4762POPC   D2A 7936  32.226   9.000   8.250
 4762POPC   C3A 7937  32.241   8.972   7.950
 4762POPC   C4A 7938  32.238   8.943   7.650
 4762POPC   C1B 7939  32.114   8.808   8.550
 4762POPC   C2B 7940  32.073   8.805   8.250
 4762POPC   C3B 7941  32.068   8.778   7.950
 4762POPC   C4B 7942  32.031   8.826   7.650
 4763POPC   NC3 7943  37.652  40.788   9.450
 4763POPC   PO4 7944  37.677  40.797   9.150
 4763POPC   GL1 7945  37.666  40.775   8.850
 4763POPC   GL2 7946  37.689  40.895   8.850
 4763POPC   C1A 7947  37.697  40.745   8.550
 4763POPC   D2A 7948  37.718  40.760   8.250
 4763POPC   C3A 7949  37.655  40.749   7.950
 4763POPC   C4A 7950  37.695  40.745   7.650
 4763POPC   C1B 7951  37.655  41.032   8.550
 4763POPC   C2B 7952  37.694  41.056   8.250
 4763POPC   C3B 7953  37.660  41.079   7.950
 4763POPC   C4B 7954  37.600  40.991   7.650
 4764POPC   NC3 7955  13.603  37.639   9.450
 4764POPC   PO4 7956  13.581  37.674   9.150
 4764POPC   GL1 7957  13.596  37.681   8.850
 4764POPC   GL2 7958  13.487  37.597   8.850
 4764POPC   C1A 7959  13.646  37.709   8.550
 4764POPC   D2A 7960  13.669  37.729   8.250
 4764POPC   C3A 7961  13.656  37.646   7.950
 4764POPC   C4A 7962  13.610  37.682   7.650
 4764POPC   C1B 7963  13.374  37.600   8.550
 4764POPC   C2B 7964  13.400  37.607   8.250
 4764POPC   C3B 7965  13.394  37.555   7.950
 4764POPC   C4B 7966  13.434  37.576   7.650
 4765POPC   NC3 7967  25.237  27.589   9.450
 4765POPC   PO4 7968  25.249  27.632   9.150
 4765POPC   GL1 7969  25.297  27.634   8.850
 4765POPC   GL2 7970  25.143  27.667   8.850
 4765POPC   C1A 7971  25.308  27.625   8.550
 4765POPC   D2A 7972  25.220  27.620   8.250
 4765POPC   C3A 7973  25.281  27.602   7.950
 4765POPC   C4A 7974  25.267  27.603   7.650
 4765POPC   C1B 7975  25.127  27.767   8.550
 4765POPC   C2B 7976  25.077  27.806   8.250
 4765POPC   C3B 7977  25.115  27.748   7.950
 4765POPC   C4B 7978  25.035  27.747   7.650
 4766POPC   NC3 7979  25.998   1.965   9.450
 4766POPC   PO4 7980  26.066   1.987   9.150
 4766POPC   GL1 7981  26.078   1.980   8.850
 4766POPC   GL2 7982  25.910   1.980   8.850
 4766POPC   C1A 7983  26.017   1.985   8.550
 4766POPC   D2A 7984  26.070   1.977   8.250
 4766POPC   C3A 7985  26.005   1.951   7.950
 4766POPC   C4A 7986  26.052   2.036   7.650
 4766POPC   C1B 7987  25.836   1.973   8.550
 4766POPC   C2B 7988  25.763   1.922   8.250
 4766POPC   C3B 7989  25.749   1.994   7.950
 4766POPC   C4B 7990  25.751   1.981   7.650
 4767POPC   NC3 7991   0.413  43.914   9.450
 4767POPC   PO4 7992   0.429  43.854   9.150
 4767POPC   GL1 7993   0.460  43.912   8.850
 4767POPC   GL2 7994   0.407  44.016   8.850
 4767POPC   C1A 7995   0.441  43.875   8.550
 4767POPC   D2A 7996   0.476  43.934   8.250
 4767POPC   C3A 7997   0.475  43.854   7.950
 4767POPC   C4A 7998   0.392  43.911   7.650
 4767POPC   C1B 7999   0.394  44.099   8.550
 4767POPC   C2B 8000   0.342  44.075   8.250
 4767POPC   C3B 8001   0.352  44.119   7.950
 4767POPC   C4B 8002   0.362  44.096   7.650
 4768POPC   NC3 8003  24.441  36.153   9.450
 4768POPC   PO4 8004  24.504  36.125   9.150
 4768POPC   GL1 8005  24.493  36.107   8.850
 4768POPC   GL2 8006  24.326  36.057   8.850
 4768POPC   C1A 8007  24.502  36.128   8.550
 4768POPC   D2A 8008  24.525  36.149   8.250
 4768POPC   C3A 8009  24.510  36.133   7.950
 4768POPC   C4A 8010  24.497  36.088   7.650
 4768POPC   C1B 8011  24.220  36.052   8.550
 4768POPC   C2B 8012  24.245  36.046   8.250
 4768POPC   C3B 8013  24.216  36.103   7.950
 4768POPC   C4B 8014  24.226  36.089   7.650
 4769POPC   NC3 8015   9.716  43.156   9.450
 4769POPC   PO4 8016   9.768  43.074   9.150
 4769POPC   GL1 8017   9.731  43.151   8.850
 4769POPC   GL2 8018   9.751  43.246   8.850
 4769POPC   C1A 8019   9.718  43.089   8.550
 4769POPC   D2A 8020   9.711  43.103   8.250
 4769POPC   C3A 8021   9.718  43.079   7.950
 4769POPC   C4A 8022   9.781  43.155   7.650
 4769POPC   C1B 8023   9.741  43.321   8.550
 4769POPC   C2B 8024   9.699  43.395   8.250
 4769POPC   C3B 8025   9.786  43.360   7.950
 4769POPC   C4B 8026   9.786  43.329   7.650
 4770POPC   NC3 8027   0.478  29.187   9.450
 4770POPC   PO4 8028   0.408  29.161   9.150
 4770POPC   GL1 8029   0.399  29.110   8.850
 4770POPC   GL2 8030   0.351  29.044   8.850
 4770POPC   C1A 8031   0.431  29.131   8.550
 4770POPC   D2A 8032   0.412  29.146   8.250
 4770POPC   C3A 8033   0.406  29.159   7.950
 4770POPC   C4A 8034   0.470  29.151   7.650
 4770POPC   C1B 8035   0.269  28.999   8.550
 4770POPC   C2B 8036   0.244  29.023   8.250
 4770POPC   C3B 8037   0.228  29.015   7.950
 4770POPC   C4B 8038   0.229  28.985   7.650
 4771POPC   NC3 8039  30.661  23.761   9.450
 4771POPC   PO4 8040  30.662  23.759   9.150
 4771POPC   GL1 8041  30.735  23.716   8.850
 4771POPC   GL2 8042  30.803  23.720   8.850
 4771POPC   C1A 8043  30.674  23.739   8.550
 4771POPC   D2A 8044  30.652  23.720   8.250
 4771POPC   C3A 8045  30.669  23.674   7.950
 4771POPC   C4A 8046  30.710  23.716   7.650
 4771POPC   C1B 8047  30.926  23.659   8.550
 4771POPC   C2B 8048  30.905  23.713   8.250
 4771POPC   C3B 8049  30.947  23.702   7.950
 4771POPC   C4B 8050  30.895  23.657   7.650
 4772POPC   NC3 8051  31.426  11.320   9.450
 4772POPC   PO4 8052  31.516  11.348   9.150
 4772POPC   GL1 8053  31.501  11.284   8.850
 4772POPC   GL2 8054  31.383  11.291   8.850
 4772POPC   C1A 8055  31.444  11.308   8.550
 4772POPC   D2A 8056  31.511  11.332   8.250
 4772POPC   C3A 8057  31.472  11.251   7.950
 4772POPC   C4A 8058  31.505  11.287   7.650
 4772POPC   C1B 8059  31.278  11.345   8.550
 4772POPC   C2B 8060  31.185  11.308   8.250
 4772POPC   C3B 8061  31.259  11.366   7.950
 4772POPC   C4B 8062  31.244  11.403   7.650
 4773POPC   NC3 8063  37.641  28.412   9.450
 4773POPC   PO4 8064  37.686  28.354   9.150
 4773POPC   GL1 8065  37.636  28.341   8.850
 4773POPC   GL2 8066  37.583  28.438   8.850
 4773POPC   C1A 8067  37.687  28.325   8.550
 4773POPC   D2A 8068  37.694  28.401   8.250
 4773POPC   C3A 8069  37.713  28.336   7.950
 4773POPC   C4A 8070  37.658  28.414   7.650
 4773POPC   C1B 8071  37.430  28.435   8.550
 4773POPC   C2B 8072  37.396  28.446   8.250
 4773POPC   C3B 8073  37.445  28.405   7.950
 4773POPC   C4B 8074  37.484  28.444   7.650
 4774POPC   NC3 8075   2.016  43.910   9.450
 4774POPC   PO4 8076   1.959  43.909   9.150
 4774POPC   GL1 8077   2.011  43.896   8.850
 4774POPC   GL2 8078   2.008  43.825   8.850
 4774POPC   C1A 8079   2.025  43.926   8.550
 4774POPC   D2A 8080   2.023  43.925   8.250
 4774POPC   C3A 8081   2.000  43.843   7.950
 4774POPC   C4A 8082   1.961  43.848   7.650
 4774POPC   C1B 8083   2.120  43.629   8.550
 4774POPC   C2B 8084   2.122  43.708   8.250
 4774POPC   C3B 8085   2.109  43.679   7.950
 4774POPC   C4B 8086   2.095  43.691   7.650
 4775POPC   NC3 8087  36.135  10.514   9.450
 4775POPC   PO4 8088  36.112  10.568   9.150
 4775POPC   GL1 8089  36.098  10.574   8.850
 4775POPC   GL2 8090  36.125  10.663   8.850
 4775POPC   C1A 8091  36.177  10.527   8.550
 4775POPC   D2A 8092  36.085  10.493   8.250
 4775POPC   C3A 8093  36.126  10.543   7.950
 4775POPC   C4A 8094  36.083  10.493   7.650
 4775POPC   C1B 8095  36.149  10.763   8.550
 4775POPC   C2B 8096  36.218  10.773   8.250
 4775POPC   C3B 8097  36.224  10.806   7.950
 4775POPC   C4B 8098  36.209  10.721   7.650
 4776POPC   NC3 8099  28.393   1.991   9.450
 4776POPC   PO4 8100  28.356   1.962   9.150
 4776POPC   GL1 8101  28.381   1.958   8.850
 4776POPC   GL2 8102  28.295   2.116   8.850
 4776POPC   C1A 8103  28.346   2.005   8.550
 4776POPC   D2A 8104  28.334   2.004   8.250
 4776POPC   C3A 8105  28.407   1.945   7.950
 4776POPC   C4A 8106  28.407   2.021   7.650
 4776POPC   C1B 8107  28.236   2.189   8.550
 4776POPC   C2B 8108  28.228   2.260   8.250
 4776POPC   C3B 8109  28.301   2.165   7.950
 4776POPC   C4B 8110  28.309   2.167   7.650
 4777POPC   NC3 8111   8.948  26.777   9.450
 4777POPC   PO4 8112   8.964  26.771   9.150
 4777POPC   GL1 8113   9.017  26.787   8.850
 4777POPC   GL2 8114   9.083  26.879   8.850
 4777POPC   C1A 8115   8.954  26.771   8.550
 4777POPC   D2A 8116   8.999  26.787   8.250
 4777POPC   C3A 8117   8.985  26.770   7.950
 4777POPC   C4A 8118   9.005  26.822   7.650
 4777POPC   C1B 8119   9.253  26.861   8.550
 4777POPC   C2B 8120   9.242  26.851   8.250
 4777POPC   C3B 8121   9.196  26.864   7.950
 4777POPC   C4B 8122   9.241  26.878   7.650
 4778POPC   NC3 8123  43.119  29.919   9.450
 4778POPC   PO4 8124  43.139  29.885   9.150
 4778POPC   GL1 8125  43.098  29.956   8.850
 4778POPC   GL2 8126  43.179  29.897   8.850
 4778POPC   C1A 8127  43.070  29.923   8.550
 4778POPC   D2A 8128  43.160  29.961   8.250
 4778POPC   C3A 8129  43.139  29.890   7.950
 4778POPC   C4A 8130  43.145  29.914   7.650
 4778POPC   C1B 8131  43.322  29.831   8.550
 4778POPC   C2B 8132  43.298  29.788   8.250
 4778POPC   C3B 8133  43.306  29.775   7.950
 4778POPC   C4B 8134  43.356  29.850   7.650
 4779POPC   NC3 8135  24.493  25.267   9.450
 4779POPC   PO4 8136  24.472  25.254   9.150
 4779POPC   GL1 8137  24.456  25.266   8.850
 4779POPC   GL2 8138  24.592  25.342   8.850
 4779POPC   C1A 8139  24.511  25.274   8.550
 4779POPC   D2A 8140  24.521  25.292   8.250
 4779POPC   C3A 8141  24.484  25.225   7.950
 4779POPC   C4A 8142  24.537  25.315   7.650
 4779POPC   C1B 8143  24.550  25.455   8.550
 4779POPC   C2B 8144  24.629  25.461   8.250
 4779POPC   C3B 8145  24.576  25.456   7.950
 4779POPC   C4B 8146  24.556  25.496   7.650
 4780POPC   NC3 8147   7.419   6.635   9.450
 4780POPC   PO4 8148   7.413   6.627   9.150
 4780POPC   GL1 8149   7.377   6.670   8.850
 4780POPC   GL2 8150   7.477   6.553   8.850
 4780POPC   C1A 8151   7.403   6.685   8.550
 4780POPC   D2A 8152   7.448   6.671   8.250
 4780POPC   C3A 8153   7.448   6.595   7.950
 4780POPC   C4A 8154   7.451   6.597   7.650
 4780POPC   C1B 8155   7.595   6.526   8.550
 4780POPC   C2B 8156   7.625   6.490   8.250
 4780POPC   C3B 8157   7.625   6.467   7.950
 4780POPC   C4B 8158   7.633   6.505   7.650
 4781POPC   NC3 8159  23.717  29.886   9.450
 4781POPC   PO4 8160  23.713  29.885   9.150
 4781POPC   GL1 8161  23.718  29.917   8.850
 4781POPC   GL2 8162  23.673  29.994   8.850
 4781POPC   C1A 8163  23.674  29.874   8.550
 4781POPC   D2A 8164  23.673  29.878   8.250
 4781POPC   C3A 8165  23.701  29.888   7.950
 4781POPC   C4A 8166  23.749  29.916   7.650
 4781POPC   C1B 8167  23.539  30.056   8.550
 4781POPC   C2B 8168  23.533  30.145   8.250
 4781POPC   C3B 8169  23.497  30.100   7.950
 4781POPC   C4B 8170  23.565  30.073   7.650
 4782POPC   NC3 8171  20.593  30.704   9.450
 4782POPC   PO4 8172  20.613  30.668   9.150
 4782POPC   GL1 8173  20.591  30.657   8.850
 4782POPC   GL2 8174  20.536  30.651   8.850
 4782POPC   C1A 8175  20.593  30.722   8.550
 4782POPC   D2A 8176  20.641  30.712   8.250
 4782POPC   C3A 8177  20.577  30.681   7.950
 4782POPC   C4A 8178  20.646  30.720   7.650
 4782POPC   C1B 8179  20.367  30.568   8.550
 4782POPC   C2B 8180  20.381  30.495   8.250
 4782POPC   C3B 8181  20.449  30.512   7.950
 4782POPC   C4B 8182  20.401  30.581   7.650
 4783POPC   NC3 8183  10.551   1.947   9.450
 4783POPC   PO4 8184  10.554   1.975   9.150
 4783POPC   GL1 8185  10.542   2.039   8.850
 4783POPC   GL2 8186  10.400   2.036   8.850
 4783POPC   C1A 8187  10.501   2.008   8.550
 4783POPC   D2A 8188  10.530   2.030   8.250
 4783POPC   C3A 8189  10.506   2.039   7.950
 4783POPC   C4A 8190  10.572   2.023   7.650
 4783POPC   C1B 8191  10.249   2.061   8.550
 4783POPC   C2B 8192  10.322   2.071   8.250
 4783POPC   C3B 8193  10.342   2.141   7.950
 4783POPC   C4B 8194  10.267   2.065   7.650
 4784POPC   NC3 8195  32.996   1.246   9.450
 4784POPC   PO4 8196  32.976   1.206   9.150
 4784POPC   GL1 8197  32.981   1.230   8.850
 4784POPC   GL2 8198  33.024   1.133   8.850
 4784POPC   C1A 8199  33.057   1.235   8.550
 4784POPC   D2A 8200  33.057   1.191   8.250
 4784POPC   C3A 8201  32.987   1.243   7.950
 4784POPC   C4A 8202  33.026   1.233   7.650
 4784POPC   C1B 8203  33.039   1.007   8.550
 4784POPC   C2B 8204  32.996   0.971   8.250
 4784POPC   C3B 8205  33.002   0.959   7.950
 4784POPC   C4B 8206  32.993   0.980   7.650
 4785POPC   NC3 8207  10.516  40.022   9.450
 4785POPC   PO4 8208  10.511  39.983   9.150
 4785POPC   GL1 8209  10.552  39.972   8.850
 4785POPC   GL2 8210  10.411  40.034   8.850
 4785POPC   C1A 8211  10.535  39.968   8.550
 4785POPC   D2A 8212  10.488  40.033   8.250
 4785POPC   C3A 8213  10.561  39.959   7.950
 4785POPC   C4A 8214  10.515  39.989   7.650
 4785POPC   C1B 8215  10.262  40.052   8.550
 4785POPC   C2B 8216  10.308  40.085   8.250
 4785POPC   C3B 8217  10.281  40.085   7.950
 4785POPC   C4B 8218  10.308  40.062   7.650
 4786POPC   NC3 8219   9.786  23.762   9.450
 4786POPC   PO4 8220   9.728  23.749   9.150
 4786POPC   GL1 8221   9.703  23.695   8.850
 4786POPC   GL2 8222   9.594  23.679   8.850
 4786POPC   C1A 8223   9.709  23.758   8.550
 4786POPC   D2A 8224   9.785  23.719   8.250
 4786POPC   C3A 8225   9.731  23.746   7.950
 4786POPC   C4A 8226   9.786  23.683   7.650
 4786POPC   C1B 8227   9.474  23.647   8.550
 4786POPC   C2B 8228   9.506  23.668   8.250
 4786POPC   C3B 8229   9.489  23.620   7.950
 4786POPC   C4B 8230   9.465  23.692   7.650
 4787POPC   NC3 8231  30.740  42.310   9.450
 4787POPC   PO4 8232  30.690  42.365   9.150
 4787POPC   GL1 8233  30.713  42.350   8.850
 4787POPC   GL2 8234  30.576  42.344   8.850
 4787POPC   C1A 8235  30.704  42.354   8.550
 4787POPC   D2A 8236  30.657  42.361   8.250
 4787POPC   C3A 8237  30.700  42.341   7.950
 4787POPC   C4A 8238  30.722  42.334   7.650
 4787POPC   C1B 8239  30.497  42.363   8.550
 4787POPC   C2B 8240  30.457  42.384   8.250
 4787POPC   C3B 8241  30.477  42.452   7.950
 4787POPC   C4B 8242  30.461  42.425   7.650
 4788POPC   NC3 8243  12.051  34.605   9.450
 4788POPC   PO4 8244  12.029  34.613   9.150
 4788POPC   GL1 8245  12.083  34.529   8.850
 4788POPC   GL2 8246  12.197  34.711   8.850
 4788POPC   C1A 8247  12.099  34.600   8.550
 4788POPC   D2A 8248  12.094  34.532   8.250
 4788POPC   C3A 8249  12.079  34.618   7.950
 4788POPC   C4A 8250  12.082  34.534   7.650
 4788POPC   C1B 8251  12.219  34.814   8.550
 4788POPC   C2B 8252  12.184  34.741   8.250
 4788POPC   C3B 8253  12.221  34.754   7.950
 4788POPC   C4B 8254  12.240  34.767   7.650
 4789POPC   NC3 8255  35.390  14.445   9.450
 4789POPC   PO4 8256  35.400  14.376   9.150
 4789POPC   GL1 8257  35.318  14.378   8.850
 4789POPC   GL2 8258  35.246  14.416   8.850
 4789POPC   C1A 8259  35.302  14.432   8.550
 4789POPC   D2A 8260  35.319  14.407   8.250
 4789POPC   C3A 8261  35.367  14.391   7.950
 4789POPC   C4A 8262  35.376  14.450   7.650
 4789POPC   C1B 8263  35.115  14.337   8.550
 4789POPC   C2B 8264  35.096  14.309   8.250
 4789POPC   C3B 8265  35.081  14.377   7.950
 4789POPC   C4B 8266  35.158  14.311   7.650
 4790POPC   NC3 8267  37.687  37.702   9.450
 4790POPC   PO4 8268  37.644  37.639   9.150
 4790POPC   GL1 8269  37.651  37.668   8.850
 4790POPC   GL2 8270  37.539  37.754   8.850
 4790POPC   C1A 8271  37.677  37.717   8.550
 4790POPC   D2A 8272  37.640  37.664   8.250
 4790POPC   C3A 8273  37.649  37.640   7.950
 4790POPC   C4A 8274  37.715  37.698   7.650
 4790POPC   C1B 8275  37.495  37.799   8.550
 4790POPC   C2B 8276  37.491  37.785   8.250
 4790POPC   C3B 8277  37.509  37.815   7.950
 4790POPC   C4B 8278  37.504  37.797   7.650
 4791POPC   NC3 8279  36.859  37.708   9.450
 4791POPC   PO4 8280  36.872  37.680   9.150
 4791POPC   GL1 8281  36.887  37.631   8.850
 4791POPC   GL2 8282  36.853  37.548   8.850
 4791POPC   C1A 8283  36.906  37.678   8.550
 4791POPC   D2A 8284  36.924  37.681   8.250
 4791POPC   C3A 8285  36.942  37.727   7.950
 4791POPC   C4A 8286  36.895  37.650   7.650
 4791POPC   C1B 8287  36.710  37.543   8.550
 4791POPC   C2B 8288  36.712  37.508   8.250
 4791POPC   C3B 8289  36.731  37.545   7.950
 4791POPC   C4B 8290  36.746  37.507   7.650
 4792POPC   NC3 8291   0.424  21.344   9.450
 4792POPC   PO4 8292   0.389  21.364   9.150
 4792POPC   GL1 8293   0.445  21.376   8.850
 4792POPC   GL2 8294   0.336  21.268   8.850
 4792POPC   C1A 8295   0.454  21.402   8.550
 4792POPC   D2A 8296   0.398  21.372   8.250
 4792POPC   C3A 8297   0.468  21.340   7.950
 4792POPC   C4A 8298   0.428  21.425   7.650
 4792POPC   C1B 8299   0.355  21.139   8.550
 4792POPC   C2B 8300   0.316  21.178   8.250
 4792POPC   C3B 8301   0.377  21.154   7.950
 4792POPC   C4B 8302   0.350  21.205   7.650
 4793POPC   NC3 8303  27.638   3.569   9.450
 4793POPC   PO4 8304  27.555   3.552   9.150
 4793POPC   GL1 8305  27.623   3.555   8.850
 4793POPC   GL2 8306  27.577   3.452   8.850
 4793POPC   C1A 8307  27.591   3.586   8.550
 4793POPC   D2A 8308  27.566   3.492   8.250
 4793POPC   C3A 8309  27.595   3.502   7.950
 4793POPC   C4A 8310  27.584   3.537   7.650
 4793POPC   C1B 8311  27.601   3.253   8.550
 4793POPC   C2B 8312  27.635   3.278   8.250
 4793POPC   C3B 8313  27.552   3.329   7.950
 4793POPC   C4B 8314  27.599   3.334   7.650
 4794POPC   NC3 8315  20.624   7.438   9.450
 4794POPC   PO4 8316  20.566   7.380   9.150
 4794POPC   GL1 8317  20.574   7.412   8.850
 4794POPC   GL2 8318  20.517   7.411   8.850
 4794POPC   C1A 8319  20.650   7.437   8.550
 4794POPC   D2A 8320  20.569   7.425   8.250
 4794POPC   C3A 8321  20.644   7.399   7.950
 4794POPC   C4A 8322  20.569   7.468   7.650
 4794POPC   C1B 8323  20.342   7.347   8.550
 4794POPC   C2B 8324  20.415   7.326   8.250
 4794POPC   C3B 8325  20.334   7.392   7.950
 4794POPC   C4B 8326  20.370   7.350   7.650
 4795POPC   NC3 8327   9.766  25.283   9.450
 4795POPC   PO4 8328   9.722  25.237   9.150
 4795POPC   GL1 8329   9.705  25.273   8.850
 4795POPC   GL2 8330   9.657  25.208   8.850
 4795POPC   C1A 8331   9.794  25.287   8.550
 4795POPC   D2A 8332   9.711  25.291   8.250
 4795POPC   C3A 8333   9.765  25.315   7.950
 4795POPC   C4A 8334   9.789  25.252   7.650
 4795POPC   C1B 8335   9.584  25.031   8.550
 4795POPC   C2B 8336   9.598  25.045   8.250
 4795POPC   C3B 8337   9.593  25.050   7.950
 4795POPC   C4B 8338   9.567  25.068   7.650
 4796POPC   NC3 8339   0.439   8.200   9.450
 4796POPC   PO4 8340   0.399   8.205   9.150
 4796POPC   GL1 8341   0.484   8.232   8.850
 4796POPC   GL2 8342   0.381   8.240   8.850
 4796POPC   C1A 8343   0.392   8.156   8.550
 4796POPC   D2A 8344   0.441   8.242   8.250
 4796POPC   C3A 8345   0.409   8.168   7.950
 4796POPC   C4A 8346   0.411   8.235   7.650
 4796POPC   C1B 8347   0.262   8.347   8.550
 4796POPC   C2B 8348   0.220   8.324   8.250
 4796POPC   C3B 8349   0.251   8.318   7.950
 4796POPC   C4B 8350   0.268   8.307   7.650
 4797POPC   NC3 8351  24.537  16.723   9.450
 4797POPC   PO4 8352  24.457  16.689   9.150
 4797POPC   GL1 8353  24.480  16.752   8.850
 4797POPC   GL2 8354  24.564  16.790   8.850
 4797POPC   C1A 8355  24.518  16.734   8.550
 4797POPC   D2A 8356  24.489  16.710   8.250
 4797POPC   C3A 8357  24.489  16.758   7.950
 4797POPC   C4A 8358  24.484  16.738   7.650
 4797POPC   C1B 8359  24.711  16.837   8.550
 4797POPC   C2B 8360  24.705  16.853   8.250
 4797POPC   C3B 8361  24.653  16.823   7.950
 4797POPC   C4B 8362  24.708  16.836   7.650
 4798POPC   NC3 8363  36.146   1.255   9.450
 4798POPC   PO4 8364  36.139   1.234   9.150
 4798POPC   GL1 8365  36.121   1.239   8.850
 4798POPC   GL2 8366  35.992   1.121   8.850
 4798POPC   C1A 8367  36.085   1.228   8.550
 4798POPC   D2A 8368  36.119   1.183   8.250
 4798POPC   C3A 8369  36.093   1.220   7.950
 4798POPC   C4A 8370  36.154   1.185   7.650
 4798POPC   C1B 8371  35.903   1.113   8.550
 4798POPC   C2B 8372  35.889   1.040   8.250
 4798POPC   C3B 8373  35.882   1.039   7.950
 4798POPC   C4B 8374  35.966   1.074   7.650
 4799POPC   NC3 8375  20.569  33.820   9.450
 4799POPC   PO4 8376  20.619  33.766   9.150
 4799POPC   GL1 8377  20.599  33.756   8.850
 4799POPC   GL2 8378  20.508  33.922   8.850
 4799POPC   C1A 8379  20.576  33.765   8.550
 4799POPC   D2A 8380  20.570  33.786   8.250
 4799POPC   C3A 8381  20.620  33.765   7.950
 4799POPC   C4A 8382  20.642  33.841   7.650
 4799POPC   C1B 8383  20.451  33.912   8.550
 4799POPC   C2B 8384  20.421  33.923   8.250
 4799POPC   C3B 8385  20.433  33.943   7.950
 4799POPC   C4B 8386  20.368  33.917   7.650
 4800POPC   NC3 8387  37.638  35.346   9.450
 4800POPC   PO4 8388  37.702  35.370   9.150
 4800POPC   GL1 8389  37.715  35.351   8.850
 4800POPC   GL2 8390  37.592  35.280   8.850
 4800POPC   C1A 8391  37.649  35.327   8.550
 4800POPC   D2A 8392  37.681  35.315   8.250
 4800POPC   C3A 8393  37.643  35.393   7.950
 4800POPC   C4A 8394  37.630  35.351   7.650
 4800POPC   C1B 8395  37.593  35.185   8.550
 4800POPC   C2B 8396  37.576  35.182   8.250
 4800POPC   C3B 8397  37.538  35.146   7.950
 4800POPC   C4B 8398  37.563  35.094   7.650
 4801POPC   NC3 8399  40.056  38.420   9.450
 4801POPC   PO4 8400  39.992  38.441   9.150
 4801POPC   GL1 8401  39.992  38.428   8.850
 4801POPC   GL2 8402  39.908  38.530   8.850
 4801POPC   C1A 8403  39.982  38.505   8.550
 4801POPC   D2A 8404  40.026  38.489   8.250
 4801POPC   C3A 8405  39.973  38.412   7.950
 4801POPC   C4A 8406  39.979  38.486   7.650
 4801POPC   C1B 8407  39.840  38.618   8.550
 4801POPC   C2B 8408  39.817  38.628   8.250
 4801POPC   C3B 8409  39.801  38.573   7.950
 4801POPC   C4B 8410  39.767  38.637   7.650
 4802POPC   NC3 8411  14.427  32.281   9.450
 4802POPC   PO4 8412  14.425  32.208   9.150
 4802POPC   GL1 8413  14.404  32.220   8.850
 4802POPC   GL2 8414  14.537  32.374   8.850
 4802POPC   C1A 8415  14.380  32.295   8.550
 4802POPC   D2A 8416  14.445  32.205   8.250
 4802POPC   C3A 8417  14.372  32.228   7.950
 4802POPC   C4A 8418  14.376  32.201   7.650
 4802POPC   C1B 8419  14.612  32.438   8.550
 4802POPC   C2B 8420  14.589  32.428   8.250
 4802POPC   C3B 8421  14.543  32.467   7.950
 4802POPC   C4B 8422  14.613  32.480   7.650
 4803POPC   NC3 8423  40.006  26.830   9.450
 4803POPC   PO4 8424  40.039  26.774   9.150
 4803POPC   GL1 8425  39.966  26.793   8.850
 4803POPC   GL2 8426  39.860  26.862   8.850
 4803POPC   C1A 8427  40.018  26.783   8.550
 4803POPC   D2A 8428  40.018  26.810   8.250
 4803POPC   C3A 8429  40.052  26.818   7.950
 4803POPC   C4A 8430  39.984  26.862   7.650
 4803POPC   C1B 8431  39.803  26.979   8.550
 4803POPC   C2B 8432  39.834  26.887   8.250
 4803POPC   C3B 8433  39.778  26.950   7.950
 4803POPC   C4B 8434  39.741  26.956   7.650
 4804POPC   NC3 8435  25.297  22.958   9.450
 4804POPC   PO4 8436  25.245  22.892   9.150
 4804POPC   GL1 8437  25.260  22.920   8.850
 4804POPC   GL2 8438  25.367  22.817   8.850
 4804POPC   C1A 8439  25.305  22.945   8.550
 4804POPC   D2A 8440  25.302  22.911   8.250
 4804POPC   C3A 8441  25.285  22.927   7.950
 4804POPC   C4A 8442  25.276  22.930   7.650
 4804POPC   C1B 8443  25.426  22.705   8.550
 4804POPC   C2B 8444  25.352  22.754   8.250
 4804POPC   C3B 8445  25.367  22.701   7.950
 4804POPC   C4B 8446  25.359  22.734   7.650
 4805POPC   NC3 8447   5.869  34.572   9.450
 4805POPC   PO4 8448   5.845  34.608   9.150
 4805POPC   GL1 8449   5.839  34.566   8.850
 4805POPC   GL2 8450   5.758  34.700   8.850
 4805POPC   C1A 8451   5.868  34.603   8.550
 4805POPC   D2A 8452   5.875  34.538   8.250
 4805POPC   C3A 8453   5.876  34.575   7.950
 4805POPC   C4A 8454   5.853  34.576   7.650
 4805POPC   C1B 8455   5.738  34.754   8.550
 4805POPC   C2B 8456   5.688  34.789   8.250
 4805POPC   C3B 8457   5.718  34.750   7.950
 4805POPC   C4B 8458   5.726  34.821   7.650
 4806POPC   NC3 8459  41.599  12.044   9.450
 4806POPC   PO4 8460  41.602  12.072   9.150
 4806POPC   GL1 8461  41.600  12.108   8.850
 4806POPC   GL2 8462  41.522  11.980   8.850
 4806POPC   C1A 8463  41.523  12.122   8.550
 4806POPC   D2A 8464  41.592  12.113   8.250
 4806POPC   C3A 8465  41.509  12.042   7.950
 4806POPC   C4A 8466  41.550  12.089   7.650
 4806POPC   C1B 8467  41.590  11.794   8.550
 4806POPC   C2B 8468  41.546  11.865   8.250
 4806POPC   C3B 8469  41.557  11.853   7.950
 4806POPC   C4B 8470  41.557  11.837   7.650
 4807POPC   NC3 8471  20.564  10.558   9.450
 4807POPC   PO4 8472  20.652  10.516   9.150
 4807POPC   GL1 8473  20.609  10.514   8.850
 4807POPC   GL2 8474  20.609  10.359   8.850
 4807POPC   C1A 8475  20.632  10.491   8.550
 4807POPC   D2A 8476  20.569  10.475   8.250
 4807POPC   C3A 8477  20.612  10.517   7.950
 4807POPC   C4A 8478  20.639  10.520   7.650
 4807POPC   C1B 8479  20.676  10.252   8.550
 4807POPC   C2B 8480  20.721  10.272   8.250
 4807POPC   C3B 8481  20.726  10.249   7.950
 4807POPC   C4B 8482  20.681  10.291   7.650
 4808POPC   NC3 8483  32.226  22.203   9.450
 4808POPC   PO4 8484  32.244  22.137   9.150
 4808POPC   GL1 8485  32.285  22.206   8.850
 4808POPC   GL2 8486  32.098  22.065   8.850
 4808POPC   C1A 8487  32.241  22.142   8.550
 4808POPC   D2A 8488  32.208  22.150   8.250
 4808POPC   C3A 8489  32.286  22.163   7.950
 4808POPC   C4A 8490  32.266  22.140   7.650
 4808POPC   C1B 8491  32.075  22.014   8.550
 4808POPC   C2B 8492  32.077  22.073   8.250
 4808POPC   C3B 8493  32.024  22.017   7.950
 4808POPC   C4B 8494  31.993  22.045   7.650
 4809POPC   NC3 8495  34.609  30.676   9.450
 4809POPC   PO4 8496  34.542  30.701   9.150
 4809POPC   GL1 8497  34.603  30.654   8.850
 4809POPC   GL2 8498  34.688  30.807   8.850
 4809POPC   C1A 8499  34.599  30.679   8.550
 4809POPC   D2A 8500  34.598  30.727   8.250
 4809POPC   C3A 8501  34.613  30.688   7.950
 4809POPC   C4A 8502  34.560  30.695   7.650
 4809POPC   C1B 8503  34.746  30.895   8.550
 4809POPC   C2B 8504  34.802  30.828   8.250
 4809POPC   C3B 8505  34.709  30.923   7.950
 4809POPC   C4B 8506  34.755  30.880   7.650
 4810POPC   NC3 8507  35.369  12.882   9.450
 4810POPC   PO4 8508  35.304  12.861   9.150
 4810POPC   GL1 8509  35.396  12.810   8.850
 4810POPC   GL2 8510  35.498  12.823   8.850
 4810POPC   C1A 8511  35.335  12.886   8.550
 4810POPC   D2A 8512  35.393  12.829   8.250
 4810POPC   C3A 8513  35.312  12.803   7.950
 4810POPC   C4A 8514  35.392  12.895   7.650
 4810POPC   C1B 8515  35.576  12.898   8.550
 4810POPC   C2B 8516  35.561  12.815   8.250
 4810POPC   C3B 8517  35.636  12.820   7.950
 4810POPC   C4B 8518  35.643  12.889   7.650
 4811POPC   NC3 8519  15.225  26.797   9.450
 4811POPC   PO4 8520  15.216  26.773   9.150
 4811POPC   GL1 8521  15.225  26.844   8.850
 4811POPC   GL2 8522  15.307  26.688   8.850
 4811POPC   C1A 8523  15.177  26.848   8.550
 4811POPC   D2A 8524  15.151  26.842   8.250
 4811POPC   C3A 8525  15.167  26.826   7.950
 4811POPC   C4A 8526  15.138  26.771   7.650
 4811POPC   C1B 8527  15.359  26.634   8.550
 4811POPC   C2B 8528  15.390  26.664   8.250
 4811POPC   C3B 8529  15.315  26.615   7.950
 4811POPC   C4B 8530  15.399  26.597   7.650
 4812POPC   NC3 8531  43.104  43.125   9.450
 4812POPC   PO4 8532  43.144  43.137   9.150
 4812POPC   GL1 8533  43.089  43.145   8.850
 4812POPC   GL2 8534  43.007  43.106   8.850
 4812POPC   C1A 8535  43.083  43.110   8.550
 4812POPC   D2A 8536  43.076  43.150   8.250
 4812POPC   C3A 8537  43.153  43.147   7.950
 4812POPC   C4A 8538  43.104  43.107   7.650
 4812POPC   C1B 8539  42.882  43.126   8.550
 4812POPC   C2B 8540  42.867  43.044   8.250
 4812POPC   C3B 8541  42.860  43.113   7.950
 4812POPC   C4B 8542  42.870  43.129   7.650
 4813POPC   NC3 8543  31.437  30.669   9.450
 4813POPC   PO4 8544  31.440  30.730   9.150
 4813POPC   GL1 8545  31.425  30.733   8.850
 4813POPC   GL2 8546  31.416  30.637   8.850
 4813POPC   C1A 8547  31.425  30.670   8.550
 4813POPC   D2A 8548  31.460  30.658   8.250
 4813POPC   C3A 8549  31.437  30.706   7.950
 4813POPC   C4A 8550  31.491  30.729   7.650
 4813POPC   C1B 8551  31.270  30.521   8.550
 4813POPC   C2B 8552  31.315  30.544   8.250
 4813POPC   C3B 8553  31.265  30.542   7.950
 4813POPC   C4B 8554  31.329  30.523   7.650
 4814POPC   NC3 8555  40.018  32.981   9.450
 4814POPC   PO4 8556  40.023  32.991   9.150
 4814POPC   GL1 8557  39.974  33.008   8.850
 4814POPC   GL2 8558  39.994  32.882   8.850
 4814POPC   C1A 8559  40.019  32.997   8.550
 4814POPC   D2A 8560  39.957  33.004   8.250
 4814POPC   C3A 8561  39.997  32.977   7.950
 4814POPC   C4A 8562  39.958  32.979   7.650
 4814POPC   C1B 8563  40.081  32.809   8.550
 4814POPC   C2B 8564  40.033  32.776   8.250
 4814POPC   C3B 8565  40.049  32.807   7.950
 4814POPC   C4B 8566  40.081  32.806   7.650
 4815POPC   NC3 8567  12.880   5.891   9.450
 4815POPC   PO4 8568  12.852   5.883   9.150
 4815POPC   GL1 8569  12.872   5.836   8.850
 4815POPC   GL2 8570  12.758   5.906   8.850
 4815POPC   C1A 8571  12.807   5.916   8.550
 4815POPC   D2A 8572  12.814   5.895   8.250
 4815POPC   C3A 8573  12.893   5.828   7.950
 4815POPC   C4A 8574  12.831   5.856   7.650
 4815POPC   C1B 8575  12.645   5.923   8.550
 4815POPC   C2B 8576  12.616   5.919   8.250
 4815POPC   C3B 8577  12.644   5.908   7.950
 4815POPC   C4B 8578  12.594   5.922   7.650
 4816POPC   NC3 8579  25.229  44.682   9.450
 4816POPC   PO4 8580  25.312  44.685   9.150
 4816POPC   GL1 8581  25.267  44.700   8.850
 4816POPC   GL2 8582  25.289  44.816   8.850
 4816POPC   C1A 8583  25.225  44.656   8.550
 4816POPC   D2A 8584  25.307  44.615   8.250
 4816POPC   C3A 8585  25.217  44.625   7.950
 4816POPC   C4A 8586  25.315  44.620   7.650
 4816POPC   C1B 8587  25.219  44.959   8.550
 4816POPC   C2B 8588  25.237  44.870   8.250
 4816POPC   C3B 8589  25.234  44.900   7.950
 4816POPC   C4B 8590  25.235  44.877   7.650
 4817POPC   NC3 8591  12.816  30.716   9.450
 4817POPC   PO4 8592  12.882  30.698   9.150
 4817POPC   GL1 8593  12.888  30.731   8.850
 4817POPC   GL2 8594  12.719  30.709   8.850
 4817POPC   C1A 8595  12.897  30.701   8.550
 4817POPC   D2A 8596  12.860  30.688   8.250
 4817POPC   C3A 8597  12.891  30.744   7.950
 4817POPC   C4A 8598  12.811  30.715   7.650
 4817POPC   C1B 8599  12.592  30.580   8.550
 4817POPC   C2B 8600  12.649  30.666   8.250
 4817POPC   C3B 8601  12.593  30.664   7.950
 4817POPC   C4B 8602  12.643  30.640   7.650
 4818POPC   NC3 8603   6.621  35.333   9.450
 4818POPC   PO4 8604   6.668  35.395   9.150
 4818POPC   GL1 8605   6.603  35.309   8.850
 4818POPC   GL2 8606   6.653  35.487   8.850
 4818POPC   C1A 8607   6.626  35.364   8.550
 4818POPC   D2A 8608   6.602  35.306   8.250
 4818POPC   C3A 8609   6.633  35.375   7.950
 4818POPC   C4A 8610   6.631  35.385   7.650
 4818POPC   C1B 8611   6.683  35.600   8.550
 4818POPC   C2B 8612   6.652  35.581   8.250
 4818POPC   C3B 8613   6.676  35.604   7.950
 4818POPC   C4B 8614   6.660  35.616   7.650
 4819POPC   NC3 8615  16.746  43.923   9.450
 4819POPC   PO4 8616  16.729  43.903   9.150
 4819POPC   GL1 8617  16.732  43.853   8.850
 4819POPC   GL2 8618  16.674  43.834   8.850
 4819POPC   C1A 8619  16.773  43.843   8.550
 4819POPC   D2A 8620  16.723  43.924   8.250
 4819POPC   C3A 8621  16.694  43.929   7.950
 4819POPC   C4A 8622  16.698  43.897   7.650
 4819POPC   C1B 8623  16.575  43.749   8.550
 4819POPC   C2B 8624  16.577  43.688   8.250
 4819POPC   C3B 8625  16.521  43.755   7.950
 4819POPC   C4B 8626  16.512  43.663   7.650
 4820POPC   NC3 8627   5.108  35.371   9.450
 4820POPC   PO4 8628   5.080  35.400   9.150
 4820POPC   GL1 8629   5.090  35.385   8.850
 4820POPC   GL2 8630   5.227  35.357   8.850
 4820POPC   C1A 8631   5.133  35.308   8.550
 4820POPC   D2A 8632   5.101  35.364   8.250
 4820POPC   C3A 8633   5.094  35.331   7.950
 4820POPC   C4A 8634   5.060  35.327   7.650
 4820POPC   C1B 8635   5.352  35.408   8.550
 4820POPC   C2B 8636   5.354  35.408   8.250
 4820POPC   C3B 8637   5.345  35.476   7.950
 4820POPC   C4B 8638   5.307  35.427   7.650
 4821POPC   NC3 8639  26.072   1.179   9.450
 4821POPC   PO4 8640  26.023   1.178   9.150
 4821POPC   GL1 8641  26.067   1.193   8.850
 4821POPC   GL2 8642  26.105   1.133   8.850
 4821POPC   C1A 8643  26.071   1.240   8.550
 4821POPC   D2A 8644  26.087   1.218   8.250
 4821POPC   C3A 8645  26.061   1.196   7.950
 4821POPC   C4A 8646  26.062   1.215   7.650
 4821POPC   C1B 8647  26.141   0.977   8.550
 4821POPC   C2B 8648  26.167   0.977   8.250
 4821POPC   C3B 8649  26.112   0.951   7.950
 4821POPC   C4B 8650  26.105   0.947   7.650
 4822POPC   NC3 8651  15.224  29.171   9.450
 4822POPC   PO4 8652  15.157  29.101   9.150
 4822POPC   GL1 8653  15.214  29.097   8.850
 4822POPC   GL2 8654  15.094  29.245   8.850
 4822POPC   C1A 8655  15.148  29.114   8.550
 4822POPC   D2A 8656  15.203  29.177   8.250
 4822POPC   C3A 8657  15.170  29.144   7.950
 4822POPC   C4A 8658  15.134  29.177   7.650
 4822POPC   C1B 8659  14.994  29.204   8.550
 4822POPC   C2B 8660  14.926  29.297   8.250
 4822POPC   C3B 8661  14.994  29.274   7.950
 4822POPC   C4B 8662  14.983  29.259   7.650
 4823POPC   NC3 8663  35.343  29.931   9.450
 4823POPC   PO4 8664  35.304  29.878   9.150
 4823POPC   GL1 8665  35.331  29.934   8.850
 4823POPC   GL2 8666  35.344  29.754   8.850
 4823POPC   C1A 8667  35.400  29.937   8.550
 4823POPC   D2A 8668  35.303  29.918   8.250
 4823POPC   C3A 8669  35.347  29.883   7.950
 4823POPC   C4A 8670  35.397  29.907   7.650
 4823POPC   C1B 8671  35.280  29.664   8.550
 4823POPC   C2B 8672  35.270  29.687   8.250
 4823POPC   C3B 8673  35.248  29.655   7.950
 4823POPC   C4B 8674  35.289  29.645   7.650
 4824POPC   NC3 8675  42.296  24.500   9.450
 4824POPC   PO4 8676  42.356  24.453   9.150
 4824POPC   GL1 8677  42.349  24.494   8.850
 4824POPC   GL2 8678  42.433  24.585   8.850
 4824POPC   C1A 8679  42.378  24.510   8.550
 4824POPC   D2A 8680  42.373  24.533   8.250
 4824POPC   C3A 8681  42.341  24.458   7.950
 4824POPC   C4A 8682  42.374  24.454   7.650
 4824POPC   C1B 8683  42.444  24.723   8.550
 4824POPC   C2B 8684  42.472  24.669   8.250
 4824POPC   C3B 8685  42.481  24.719   7.950
 4824POPC   C4B 8686  42.474  24.752   7.650
 4825POPC   NC3 8687   6.611  26.801   9.450
 4825POPC   PO4 8688   6.609  26.862   9.150
 4825POPC   GL1 8689   6.684  26.844   8.850
 4825POPC   GL2 8690   6.761  26.809   8.850
 4825POPC   C1A 8691   6.609  26.791   8.550
 4825POPC   D2A 8692   6.685  26.782   8.250
 4825POPC   C3A 8693   6.665  26.771   7.950
 4825POPC   C4A 8694   6.651  26.862   7.650
 4825POPC   C1B 8695   6.907  26.791   8.550
 4825POPC   C2B 8696   6.913  26.776   8.250
 4825POPC   C3B 8697   6.928  26.785   7.950
 4825POPC   C4B 8698   6.939  26.836   7.650
 4826POPC   NC3 8699  43.123   6.598   9.450
 4826POPC   PO4 8700  43.079   6.666   9.150
 4826POPC   GL1 8701  43.144   6.678   8.850
 4826POPC   GL2 8702  43.185   6.730   8.850
 4826POPC   C1A 8703  43.080   6.648   8.550
 4826POPC   D2A 8704  43.106   6.603   8.250
 4826POPC   C3A 8705  43.065   6.624   7.950
 4826POPC   C4A 8706  43.083   6.596   7.650
 4826POPC   C1B 8707  43.150   6.832   8.550
 4826POPC   C2B 8708  43.188   6.847   8.250
 4826POPC   C3B 8709  43.188   6.871   7.950
 4826POPC   C4B 8710  43.243   6.836   7.650
 4827POPC   NC3 8711   5.894  40.816   9.450
 4827POPC   PO4 8712   5.835  40.751   9.150
 4827POPC   GL1 8713   5.891  40.812   8.850
 4827POPC   GL2 8714   5.848  40.678   8.850
 4827POPC   C1A 8715   5.862  40.775   8.550
 4827POPC   D2A 8716   5.897  40.777   8.250
 4827POPC   C3A 8717   5.843  40.811   7.950
 4827POPC   C4A 8718   5.898  40.817   7.650
 4827POPC   C1B 8719   5.855  40.509   8.550
 4827POPC   C2B 8720   5.857  40.555   8.250
 4827POPC   C3B 8721   5.865  40.510   7.950
 4827POPC   C4B 8722   5.784  40.541   7.650
 4828POPC   NC3 8723   3.586   6.615   9.450
 4828POPC   PO4 8724   3.578   6.689   9.150
 4828POPC   GL1 8725   3.534   6.617   8.850
 4828POPC   GL2 8726   3.667   6.746   8.850
 4828POPC   C1A 8727   3.568   6.658   8.550
 4828POPC   D2A 8728   3.575   6.670   8.250
 4828POPC   C3A 8729   3.538   6.600   7.950
 4828POPC   C4A 8730   3.559   6.666   7.650
 4828POPC   C1B 8731   3.719   6.829   8.550
 4828POPC   C2B 8732   3.726   6.821   8.250
 4828POPC   C3B 8733   3.740   6.838   7.950
 4828POPC   C4B 8734   3.727   6.837   7.650
 4829POPC   NC3 8735  17.516  23.762   9.450
 4829POPC   PO4 8736  17.465  23.730   9.150
 4829POPC   GL1 8737  17.490  23.672   8.850
 4829POPC   GL2 8738  17.422  23.686   8.850
 4829POPC   C1A 8739  17.556  23.694   8.550
 4829POPC   D2A 8740  17.536  23.738   8.250
 4829POPC   C3A 8741  17.549  23.709   7.950
 4829POPC   C4A 8742  17.513  23.762   7.650
 4829POPC   C1B 8743  17.265  23.679   8.550
 4829POPC   C2B 8744  17.215  23.708   8.250
 4829POPC   C3B 8745  17.245  23.708   7.950
 4829POPC   C4B 8746  17.251  23.655   7.650
 4830POPC   NC3 8747  23.739  29.171   9.450
 4830POPC   PO4 8748  23.706  29.121   9.150
 4830POPC   GL1 8749  23.725  29.173   8.850
 4830POPC   GL2 8750  23.632  29.187   8.850
 4830POPC   C1A 8751  23.690  29.182   8.550
 4830POPC   D2A 8752  23.676  29.122   8.250
 4830POPC   C3A 8753  23.746  29.114   7.950
 4830POPC   C4A 8754  23.736  29.104   7.650
 4830POPC   C1B 8755  23.525  29.225   8.550
 4830POPC   C2B 8756  23.483  29.231   8.250
 4830POPC   C3B 8757  23.461  29.203   7.950
 4830POPC   C4B 8758  23.500  29.179   7.650
 4831POPC   NC3 8759  41.562  38.479   9.450
 4831POPC   PO4 8760  41.543  38.469   9.150
 4831POPC   GL1 8761  41.608  38.438   8.850
 4831POPC   GL2 8762  41.485  38.377   8.850
 4831POPC   C1A 8763  41.522  38.409   8.550
 4831POPC   D2A 8764  41.530  38.425   8.250
 4831POPC   C3A 8765  41.523  38.505   7.950
 4831POPC   C4A 8766  41.567  38.466   7.650
 4831POPC   C1B 8767  41.488  38.187   8.550
 4831POPC   C2B 8768  41.473  38.196   8.250
 4831POPC   C3B 8769  41.511  38.227   7.950
 4831POPC   C4B 8770  41.517  38.208   7.650
 4832POPC   NC3 8771  40.820  15.152   9.450
 4832POPC   PO4 8772  40.821  15.217   9.150
 4832POPC   GL1 8773  40.824  15.220   8.850
 4832POPC   GL2 8774  40.680  15.230   8.850
 4832POPC   C1A 8775  40.764  15.145   8.550
 4832POPC   D2A 8776  40.810  15.190   8.250
 4832POPC   C3A 8777  40.789  15.160   7.950
 4832POPC   C4A 8778  40.823  15.207   7.650
 4832POPC   C1B 8779  40.593  15.288   8.550
 4832POPC   C2B 8780  40.572  15.273   8.250
 4832POPC   C3B 8781  40.553  15.250   7.950
 4832POPC   C4B 8782  40.582  15.304   7.650
 4833POPC   NC3 8783  43.068  31.475   9.450
 4833POPC   PO4 8784  43.142  31.438   9.150
 4833POPC   GL1 8785  43.082  31.437   8.850
 4833POPC   GL2 8786  43.095  31.592   8.850
 4833POPC   C1A 8787  43.146  31.444   8.550
 4833POPC   D2A 8788  43.090  31.488   8.250
 4833POPC   C3A 8789  43.142  31.515   7.950
 4833POPC   C4A 8790  43.159  31.451   7.650
 4833POPC   C1B 8791  42.990  31.718   8.550
 4833POPC   C2B 8792  43.023  31.642   8.250
 4833POPC   C3B 8793  42.965  31.718   7.950
 4833POPC   C4B 8794  42.995  31.681   7.650
 4834POPC   NC3 8795  40.802  43.118   9.450
 4834POPC   PO4 8796  40.832  43.122   9.150
 4834POPC   GL1 8797  40.771  43.146   8.850
 4834POPC   GL2 8798  40.690  43.147   8.850
 4834POPC   C1A 8799  40.791  43.073   8.550
 4834POPC   D2A 8800  40.758  43.071   8.250
 4834POPC   C3A 8801  40.737  43.104   7.950
 4834POPC   C4A 8802  40.762  43.067   7.650
 4834POPC   C1B 8803  40.580  43.159   8.550
 4834POPC   C2B 8804  40.513  43.139   8.250
 4834POPC   C3B 8805  40.520  43.081   7.950
 4834POPC   C4B 8806  40.529  43.176   7.650
 4835POPC   NC3 8807  20.619  19.803   9.450
 4835POPC   PO4 8808  20.632  19.803   9.150
 4835POPC   GL1 8809  20.622  19.825   8.850
 4835POPC   GL2 8810  20.485  19.936   8.850
 4835POPC   C1A 8811  20.635  19.818   8.550
 4835POPC   D2A 8812  20.636  19.798   8.250
 4835POPC   C3A 8813  20.652  19.855   7.950
 4835POPC   C4A 8814  20.581  19.882   7.650
 4835POPC   C1B 8815  20.424  19.913   8.550
 4835POPC   C2B 8816  20.390  19.945   8.250
 4835POPC   C3B 8817  20.333  19.914   7.950
 4835POPC   C4B 8818  20.413  19.985   7.650
 4836POPC   NC3 8819  11.329  42.334   9.450
 4836POPC   PO4 8820  11.317  42.351   9.150
 4836POPC   GL1 8821  11.259  42.347   8.850
 4836POPC   GL2 8822  11.160  42.414   8.850
 4836POPC   C1A 8823  11.312  42.295   8.550
 4836POPC   D2A 8824  11.300  42.286   8.250
 4836POPC   C3A 8825  11.304  42.362   7.950
 4836POPC   C4A 8826  11.327  42.320   7.650
 4836POPC   C1B 8827  11.038  42.465   8.550
 4836POPC   C2B 8828  11.083  42.434   8.250
 4836POPC   C3B 8829  11.045  42.469   7.950
 4836POPC   C4B 8830  11.081  42.492   7.650
 4837POPC   NC3 8831   0.393  29.896   9.450
 4837POPC   PO4 8832   0.430  29.962   9.150
 4837POPC   GL1 8833   0.405  29.887   8.850
 4837POPC   GL2 8834   0.534  29.850   8.850
 4837POPC   C1A 8835   0.398  29.905   8.550
 4837POPC   D2A 8836   0.460  29.889   8.250
 4837POPC   C3A 8837   0.450  29.906   7.950
 4837POPC   C4A 8838   0.467  29.889   7.650
 4837POPC   C1B 8839   0.573  29.684   8.550
 4837POPC   C2B 8840   0.623  29.733   8.250
 4837POPC   C3B 8841   0.646  29.697   7.950
 4837POPC   C4B 8842   0.636  29.763   7.650
 4838POPC   NC3 8843  44.707  12.057   9.450
 4838POPC   PO4 8844  44.688  12.041   9.150
 4838POPC   GL1 8845  44.617  12.112   8.850
 4838POPC   GL2 8846  44.771  12.017   8.850
 4838POPC   C1A 8847  44.654  12.056   8.550
 4838POPC   D2A 8848  44.631  12.092   8.250
 4838POPC   C3A 8849  44.685  12.065   7.950
 4838POPC   C4A 8850  44.620  12.106   7.650
 4838POPC   C1B 8851  44.832  11.883   8.550
 4838POPC   C2B 8852  44.896  11.921   8.250
 4838POPC   C3B 8853  44.813  11.961   7.950
 4838POPC   C4B 8854  44.840  11.921   7.650
 4839POPC   NC3 8855  43.139  37.656   9.450
 4839POPC   PO4 8856  43.079  37.678   9.150
 4839POPC   GL1 8857  43.094  37.657   8.850
 4839POPC   GL2 8858  43.142  37.841   8.850
 4839POPC   C1A 8859  43.093  37.678   8.550
 4839POPC   D2A 8860  43.122  37.685   8.250
 4839POPC   C3A 8861  43.154  37.669   7.950
 4839POPC   C4A 8862  43.087  37.636   7.650
 4839POPC   C1B 8863  43.117  37.932   8.550
 4839POPC   C2B 8864  43.135  37.911   8.250
 4839POPC   C3B 8865  43.096  37.912   7.950
 4839POPC   C4B 8866  43.158  37.934   7.650
 4840POPC   NC3 8867  26.047  21.434   9.450
 4840POPC   PO4 8868  26.058  21.348   9.150
 4840POPC   GL1 8869  26.082  21.340   8.850
 4840POPC   GL2 8870  25.949  21.272   8.850
 4840POPC   C1A 8871  26.064  21.343   8.550
 4840POPC   D2A 8872  26.085  21.400   8.250
 4840POPC   C3A 8873  26.049  21.380   7.950
 4840POPC   C4A 8874  26.075  21.367   7.650
 4840POPC   C1B 8875  25.897  21.193   8.550
 4840POPC   C2B 8876  25.884  21.209   8.250
 4840POPC   C3B 8877  25.862  21.223   7.950
 4840POPC   C4B 8878  25.903  21.185   7.650
 4841POPC   NC3 8879  33.071   2.021   9.450
 4841POPC   PO4 8880  32.996   1.981   9.150
 4841POPC   GL1 8881  33.057   2.034   8.850
 4841POPC   GL2 8882  33.192   2.022   8.850
 4841POPC   C1A 8883  33.012   1.959   8.550
 4841POPC   D2A 8884  33.002   1.988   8.250
 4841POPC   C3A 8885  32.983   1.977   7.950
 4841POPC   C4A 8886  33.068   1.960   7.650
 4841POPC   C1B 8887  33.281   2.060   8.550
 4841POPC   C2B 8888  33.287   2.072   8.250
 4841POPC   C3B 8889  33.268   2.086   7.950
 4841POPC   C4B 8890  33.291   2.096   7.650
 4842POPC   NC3 8891   6.646  33.829   9.450
 4842POPC   PO4 8892   6.650  33.806   9.150
 4842POPC   GL1 8893   6.621  33.778   8.850
 4842POPC   GL2 8894   6.721  33.839   8.850
 4842POPC   C1A 8895   6.665  33.785   8.550
 4842POPC   D2A 8896   6.607  33.786   8.250
 4842POPC   C3A 8897   6.653  33.762   7.950
 4842POPC   C4A 8898   6.604  33.835   7.650
 4842POPC   C1B 8899   6.871  33.905   8.550
 4842POPC   C2B 8900   6.927  33.831   8.250
 4842POPC   C3B 8901   6.841  33.838   7.950
 4842POPC   C4B 8902   6.927  33.893   7.650
 4843POPC   NC3 8903  36.141  16.758   9.450
 4843POPC   PO4 8904  36.142  16.703   9.150
 4843POPC   GL1 8905  36.098  16.744   8.850
 4843POPC   GL2 8906  36.218  16.849   8.850
 4843POPC   C1A 8907  36.094  16.762   8.550
 4843POPC   D2A 8908  36.131  16.723   8.250
 4843POPC   C3A 8909  36.116  16.699   7.950
 4843POPC   C4A 8910  36.108  16.700   7.650
 4843POPC   C1B 8911  36.266  16.899   8.550
 4843POPC   C2B 8912  36.310  16.954   8.250
 4843POPC   C3B 8913  36.312  16.913   7.950
 4843POPC   C4B 8914  36.286  16.981   7.650
 4844POPC   NC3 8915  36.151  33.807   9.450
 4844POPC   PO4 8916  36.094  33.839   9.150
 4844POPC   GL1 8917  36.082  33.820   8.850
 4844POPC   GL2 8918  36.147  33.948   8.850
 4844POPC   C1A 8919  36.089  33.774   8.550
 4844POPC   D2A 8920  36.165  33.811   8.250
 4844POPC   C3A 8921  36.149  33.828   7.950
 4844POPC   C4A 8922  36.169  33.792   7.650
 4844POPC   C1B 8923  36.142  34.057   8.550
 4844POPC   C2B 8924  36.220  34.053   8.250
 4844POPC   C3B 8925  36.141  34.004   7.950
 4844POPC   C4B 8926  36.192  34.022   7.650
 4845POPC   NC3 8927  22.968  14.410   9.450
 4845POPC   PO4 8928  22.920  14.415   9.150
 4845POPC   GL1 8929  22.968  14.371   8.850
 4845POPC   GL2 8930  22.885  14.329   8.850
 4845POPC   C1A 8931  22.916  14.383   8.550
 4845POPC   D2A 8932  22.946  14.415   8.250
 4845POPC   C3A 8933  22.958  14.413   7.950
 4845POPC   C4A 8934  22.914  14.426   7.650
 4845POPC   C1B 8935  22.897  14.185   8.550
 4845POPC   C2B 8936  22.905  14.176   8.250
 4845POPC   C3B 8937  22.893  14.135   7.950
 4845POPC   C4B 8938  22.891  14.135   7.650
 4846POPC   NC3 8939   5.825  35.330   9.450
 4846POPC   PO4 8940   5.833  35.391   9.150
 4846POPC   GL1 8941   5.838  35.331   8.850
 4846POPC   GL2 8942   6.007  35.321   8.850
 4846POPC   C1A 8943   5.889  35.393   8.550
 4846POPC   D2A 8944   5.897  35.338   8.250
 4846POPC   C3A 8945   5.834  35.396   7.950
 4846POPC   C4A 8946   5.900  35.319   7.650
 4846POPC   C1B 8947   6.082  35.340   8.550
 4846POPC   C2B 8948   6.078  35.345   8.250
 4846POPC   C3B 8949   6.081  35.270   7.950
 4846POPC   C4B 8950   6.158  35.311   7.650
 4847POPC   NC3 8951  34.568   2.023   9.450
 4847POPC   PO4 8952  34.585   2.026   9.150
 4847POPC   GL1 8953  34.537   2.024   8.850
 4847POPC   GL2 8954  34.714   1.898   8.850
 4847POPC   C1A 8955  34.551   2.018   8.550
 4847POPC   D2A 8956  34.562   2.020   8.250
 4847POPC   C3A 8957  34.613   2.024   7.950
 4847POPC   C4A 8958  34.584   2.039   7.650
 4847POPC   C1B 8959  34.812   1.926   8.550
 4847POPC   C2B 8960  34.804   1.906   8.250
 4847POPC   C3B 8961  34.837   1.929   7.950
 4847POPC   C4B 8962  34.857   1.898   7.650
 4848POPC   NC3 8963  10.526  25.234   9.450
 4848POPC   PO4 8964  10.483  25.295   9.150
 4848POPC   GL1 8965  10.492  25.278   8.850
 4848POPC   GL2 8966  10.370  25.315   8.850
 4848POPC   C1A 8967  10.533  25.261   8.550
 4848POPC   D2A 8968  10.474  25.241   8.250
 4848POPC   C3A 8969  10.554  25.242   7.950
 4848POPC   C4A 8970  10.549  25.235   7.650
 4848POPC   C1B 8971  10.297  25.264   8.550
 4848POPC   C2B 8972  10.324  25.266   8.250
 4848POPC   C3B 8973  10.267  25.284   7.950
 4848POPC   C4B 8974  10.298  25.231   7.650
 4849POPC   NC3 8975   5.044  27.638   9.450
 4849POPC   PO4 8976   5.125  27.626   9.150
 4849POPC   GL1 8977   5.107  27.555   8.850
 4849POPC   GL2 8978   4.985  27.505   8.850
 4849POPC   C1A 8979   5.091  27.636   8.550
 4849POPC   D2A 8980   5.089  27.596   8.250
 4849POPC   C3A 8981   5.062  27.623   7.950
 4849POPC   C4A 8982   5.139  27.565   7.650
 4849POPC   C1B 8983   4.855  27.465   8.550
 4849POPC   C2B 8984   4.896  27.514   8.250
 4849POPC   C3B 8985   4.852  27.493   7.950
 4849POPC   C4B 8986   4.843  27.447   7.650
 4850POPC   NC3 8987  36.113   6.606   9.450
 4850POPC   PO4 8988  36.111   6.687   9.150
 4850POPC   GL1 8989  36.088   6.625   8.850
 4850POPC   GL2 8990  36.064   6.572   8.850
 4850POPC   C1A 8991  36.174   6.606   8.550
 4850POPC   D2A 8992  36.154   6.681   8.250
 4850POPC   C3A 8993  36.101   6.596   7.950
 4850POPC   C4A 8994  36.123   6.670   7.650
 4850POPC   C1B 8995  36.061   6.361   8.550
 4850POPC   C2B 8996  36.074   6.398   8.250
 4850POPC   C3B 8997  36.079   6.394   7.950
 4850POPC   C4B 8998  36.075   6.363   7.650
 4851POPC   NC3 8999  33.027   0.448   9.450
 4851POPC   PO4 9000  33.056   0.470   9.150
 4851POPC   GL1 9001  33.058   0.462   8.850
 4851POPC   GL2 9002  33.115   0.391   8.850
 4851POPC   C1A 9003  32.999   0.411   8.550
 4851POPC   D2A 9004  33.067   0.426   8.250
 4851POPC   C3A 9005  33.049   0.445   7.950
 4851POPC   C4A 9006  33.005   0.402   7.650
 4851POPC   C1B 9007  33.275   0.354   8.550
 4851POPC   C2B 9008  33.201   0.336   8.250
 4851POPC   C3B 9009  33.276   0.267   7.950
 4851POPC   C4B 9010  33.283   0.330   7.650
 4852POPC   NC3 9011   8.194  29.142   9.450
 4852POPC   PO4 9012   8.197  29.096   9.150
 4852POPC   GL1 9013   8.167  29.159   8.850
 4852POPC   GL2 9014   8.036  29.155   8.850
 4852POPC   C1A 9015   8.191  29.106   8.550
 4852POPC   D2A 9016   8.235  29.137   8.250
 4852POPC   C3A 9017   8.189  29.154   7.950
 4852POPC   C4A 9018   8.150  29.121   7.650
 4852POPC   C1B 9019   7.921  29.136   8.550
 4852POPC   C2B 9020   7.905  29.100   8.250
 4852POPC   C3B 9021   7.909  29.144   7.950
 4852POPC   C4B 9022   7.969  29.103   7.650
 4853POPC   NC3 9023   6.608  38.498   9.450
 4853POPC   PO4 9024   6.659  38.493   9.150
 4853POPC   GL1 9025   6.604  38.439   8.850
 4853POPC   GL2 9026   6.740  38.477   8.850
 4853POPC   C1A 9027   6.679  38.427   8.550
 4853POPC   D2A 9028   6.619  38.461   8.250
 4853POPC   C3A 9029   6.687  38.475   7.950
 4853POPC   C4A 9030   6.631  38.460   7.650
 4853POPC   C1B 9031   6.856  38.470   8.550
 4853POPC   C2B 9032   6.940  38.506   8.250
 4853POPC   C3B 9033   6.866  38.503   7.950
 4853POPC   C4B 9034   6.923  38.465   7.650
 4854POPC   NC3 9035  33.021   6.603   9.450
 4854POPC   PO4 9036  33.072   6.677   9.150
 4854POPC   GL1 9037  33.047   6.673   8.850
 4854POPC   GL2 9038  32.944   6.640   8.850
 4854POPC   C1A 9039  33.022   6.616   8.550
 4854POPC   D2A 9040  33.039   6.676   8.250
 4854POPC   C3A 9041  33.062   6.605   7.950
 4854POPC   C4A 9042  32.992   6.632   7.650
 4854POPC   C1B 9043  32.767   6.750   8.550
 4854POPC   C2B 9044  32.751   6.739   8.250
 4854POPC   C3B 9045  32.780   6.726   7.950
 4854POPC   C4B 9046  32.747   6.694   7.650
 4855POPC   NC3 9047  16.001  12.846   9.450
 4855POPC   PO4 9048  15.924  12.870   9.150
 4855POPC   GL1 9049  15.964  12.889   8.850
 4855POPC   GL2 9050  15.817  12.953   8.850
 4855POPC   C1A 9051  15.983  12.846   8.550
 4855POPC   D2A 9052  15.990  12.868   8.250
 4855POPC   C3A 9053  15.976  12.878   7.950
 4855POPC   C4A 9054  15.926  12.806   7.650
 4855POPC   C1B 9055  15.771  13.043   8.550
 4855POPC   C2B 9056  15.744  13.071   8.250
 4855POPC   C3B 9057  15.752  12.980   7.950
 4855POPC   C4B 9058  15.814  13.054   7.650
 4856POPC   NC3 9059  37.702   8.212   9.450
 4856POPC   PO4 9060  37.646   8.160   9.150
 4856POPC   GL1 9061  37.716   8.214   8.850
 4856POPC   GL2 9062  37.535   8.203   8.850
 4856POPC   C1A 9063  37.686   8.225   8.550
 4856POPC   D2A 9064  37.630   8.227   8.250
 4856POPC   C3A 9065  37.728   8.200   7.950
 4856POPC   C4A 9066  37.655   8.213   7.650
 4856POPC   C1B 9067  37.465   8.091   8.550
 4856POPC   C2B 9068  37.474   8.170   8.250
 4856POPC   C3B 9069  37.429   8.161   7.950
 4856POPC   C4B 9070  37.464   8.123   7.650
 4857POPC   NC3 9071   3.501  11.319   9.450
 4857POPC   PO4 9072   3.544  11.327   9.150
 4857POPC   GL1 9073   3.561  11.266   8.850
 4857POPC   GL2 9074   3.511  11.385   8.850
 4857POPC   C1A 9075   3.547  11.337   8.550
 4857POPC   D2A 9076   3.570  11.252   8.250
 4857POPC   C3A 9077   3.511  11.320   7.950
 4857POPC   C4A 9078   3.550  11.261   7.650
 4857POPC   C1B 9079   3.515  11.568   8.550
 4857POPC   C2B 9080   3.528  11.553   8.250
 4857POPC   C3B 9081   3.493  11.501   7.950
 4857POPC   C4B 9082   3.527  11.562   7.650
 4858POPC   NC3 9083  17.551  42.360   9.450
 4858POPC   PO4 9084  17.521  42.318   9.150
 4858POPC   GL1 9085  17.479  42.297   8.850
 4858POPC   GL2 9086  17.415  42.428   8.850
 4858POPC   C1A 9087  17.530  42.367   8.550
 4858POPC   D2A 9088  17.522  42.286   8.250
 4858POPC   C3A 9089  17.462  42.294   7.950
 4858POPC   C4A 9090  17.509  42.290   7.650
 4858POPC   C1B 9091  17.265  42.445   8.550
 4858POPC   C2B 9092  17.304  42.426   8.250
 4858POPC   C3B 9093  17.252  42.487   7.950
 4858POPC   C4B 9094  17.335  42.448   7.650
 4859POPC   NC3 9095  36.951  34.579   9.450
 4859POPC   PO4 9096  36.917  34.574   9.150
 4859POPC   GL1 9097  36.862  34.605   8.850
 4859POPC   GL2 9098  36.784  34.627   8.850
 4859POPC   C1A 9099  36.937  34.558   8.550
 4859POPC   D2A 9100  36.933  34.584   8.250
 4859POPC   C3A 9101  36.918  34.624   7.950
 4859POPC   C4A 9102  36.857  34.560   7.650
 4859POPC   C1B 9103  36.666  34.655   8.550
 4859POPC   C2B 9104  36.632  34.722   8.250
 4859POPC   C3B 9105  36.643  34.677   7.950
 4859POPC   C4B 9106  36.673  34.709   7.650
 4860POPC   NC3 9107   5.065  12.069   9.450
 4860POPC   PO4 9108   5.104  12.035   9.150
 4860POPC   GL1 9109   5.117  12.056   8.850
 4860POPC   GL2 9110   5.057  11.958   8.850
 4860POPC   C1A 9111   5.081  12.086   8.550
 4860POPC   D2A 9112   5.073  12.095   8.250
 4860POPC   C3A 9113   5.057  12.084   7.950
 4860POPC   C4A 9114   5.080  12.065   7.650
 4860POPC   C1B 9115   5.056  11.801   8.550
 4860POPC   C2B 9116   5.034  11.796   8.250
 4860POPC   C3B 9117   5.075  11.786   7.950
 4860POPC   C4B 9118   5.022  11.855   7.650
 4861POPC   NC3 9119  19.852  15.906   9.450
 4861POPC   PO4 9120  19.815  15.999   9.150
 4861POPC   GL1 9121  19.789  16.000   8.850
 4861POPC   GL2 9122  19.958  15.973   8.850
 4861POPC   C1A 9123  19.831  15.943   8.550
 4861POPC   D2A 9124  19.878  16.001   8.250
 4861POPC   C3A 9125  19.795  15.955   7.950
 4861POPC   C4A 9126  19.877  15.981   7.650
 4861POPC   C1B 9127  20.106  16.039   8.550
 4861POPC   C2B 9128  20.091  16.094   8.250
 4861POPC   C3B 9129  20.042  16.045   7.950
 4861POPC   C4B 9130  20.072  16.031   7.650
 4862POPC   NC3 9131   3.516  16.735   9.450
 4862POPC   PO4 9132   3.566  16.708   9.150
 4862POPC   GL1 9133   3.492  16.734   8.850
 4862POPC   GL2 9134   3.661  16.773   8.850
 4862POPC   C1A 9135   3.510  16.698   8.550
 4862POPC   D2A 9136   3.510  16.713   8.250
 4862POPC   C3A 9137   3.506  16.707   7.950
 4862POPC   C4A 9138   3.581  16.779   7.650
 4862POPC   C1B 9139   3.716  16.838   8.550
 4862POPC   C2B 9140   3.754  16.839   8.250
 4862POPC   C3B 9141   3.737  16.820   7.950
 4862POPC   C4B 9142   3.730  16.860   7.650
 4863POPC   NC3 9143   5.881   6.608   9.450
 4863POPC   PO4 9144   5.838   6.607   9.150
 4863POPC   GL1 9145   5.847   6.669   8.850
 4863POPC   GL2 9146   5.868   6.806   8.850
 4863POPC   C1A 9147   5.912   6.668   8.550
 4863POPC   D2A 9148   5.855   6.621   8.250
 4863POPC   C3A 9149   5.867   6.629   7.950
 4863POPC   C4A 9150   5.834   6.664   7.650
 4863POPC   C1B 9151   5.821   6.861   8.550
 4863POPC   C2B 9152   5.802   6.927   8.250
 4863POPC   C3B 9153   5.833   6.875   7.950
 4863POPC   C4B 9154   5.825   6.930   7.650
 4864POPC   NC3 9155   5.858  43.866   9.450
 4864POPC   PO4 9156   5.896  43.866   9.150
 4864POPC   GL1 9157   5.844  43.879   8.850
 4864POPC   GL2 9158   5.900  43.771   8.850
 4864POPC   C1A 9159   5.904  43.878   8.550
 4864POPC   D2A 9160   5.905  43.884   8.250
 4864POPC   C3A 9161   5.887  43.872   7.950
 4864POPC   C4A 9162   5.907  43.896   7.650
 4864POPC   C1B 9163   5.817  43.665   8.550
 4864POPC   C2B 9164   5.834  43.631   8.250
 4864POPC   C3B 9165   5.795  43.668   7.950
 4864POPC   C4B 9166   5.789  43.617   7.650
 4865POPC   NC3 9167  13.612  13.658   9.450
 4865POPC   PO4 9168  13.611  13.663   9.150
 4865POPC   GL1 9169  13.671  13.648   8.850
 4865POPC   GL2 9170  13.692  13.546   8.850
 4865POPC   C1A 9171  13.603  13.596   8.550
 4865POPC   D2A 9172  13.589  13.598   8.250
 4865POPC   C3A 9173  13.669  13.606   7.950
 4865POPC   C4A 9174  13.597  13.641   7.650
 4865POPC   C1B 9175  13.771  13.350   8.550
 4865POPC   C2B 9176  13.714  13.417   8.250
 4865POPC   C3B 9177  13.752  13.421   7.950
 4865POPC   C4B 9178  13.725  13.407   7.650
 4866POPC   NC3 9179  26.810  33.818   9.450
 4866POPC   PO4 9180  26.833  33.778   9.150
 4866POPC   GL1 9181  26.776  33.782   8.850
 4866POPC   GL2 9182  26.907  33.708   8.850
 4866POPC   C1A 9183  26.770  33.817   8.550
 4866POPC   D2A 9184  26.862  33.819   8.250
 4866POPC   C3A 9185  26.819  33.750   7.950
 4866POPC   C4A 9186  26.792  33.835   7.650
 4866POPC   C1B 9187  27.002  33.650   8.550
 4866POPC   C2B 9188  27.027  33.672   8.250
 4866POPC   C3B 9189  27.048  33.734   7.950
 4866POPC   C4B 9190  27.017  33.667   7.650
 4867POPC   NC3 9191  29.101   6.613   9.450
 4867POPC   PO4 9192  29.139   6.624   9.150
 4867POPC   GL1 9193  29.177   6.630   8.850
 4867POPC   GL2 9194  29.236   6.800   8.850
 4867POPC   C1A 9195  29.171   6.681   8.550
 4867POPC   D2A 9196  29.180   6.595   8.250
 4867POPC   C3A 9197  29.121   6.660   7.950
 4867POPC   C4A 9198  29.102   6.664   7.650
 4867POPC   C1B 9199  29.236   6.855   8.550
 4867POPC   C2B 9200  29.310   6.889   8.250
 4867POPC   C3B 9201  29.264   6.818   7.950
 4867POPC   C4B 9202  29.272   6.857   7.650
 4868POPC   NC3 9203  11.322  28.383   9.450
 4868POPC   PO4 9204  11.253  28.408   9.150
 4868POPC   GL1 9205  11.305  28.331   8.850
 4868POPC   GL2 9206  11.300  28.292   8.850
 4868POPC   C1A 9207  11.262  28.410   8.550
 4868POPC   D2A 9208  11.308  28.347   8.250
 4868POPC   C3A 9209  11.271  28.383   7.950
 4868POPC   C4A 9210  11.291  28.390   7.650
 4868POPC   C1B 9211  11.332  28.141   8.550
 4868POPC   C2B 9212  11.337  28.130   8.250
 4868POPC   C3B 9213  11.330  28.132   7.950
 4868POPC   C4B 9214  11.313  28.152   7.650
 4869POPC   NC3 9215  22.166  20.656   9.450
 4869POPC   PO4 9216  22.178  20.634   9.150
 4869POPC   GL1 9217  22.196  20.610   8.850
 4869POPC   GL2 9218  22.171  20.692   8.850
 4869POPC   C1A 9219  22.173  20.567   8.550
 4869POPC   D2A 9220  22.179  20.627   8.250
 4869POPC   C3A 9221  22.127  20.577   7.950
 4869POPC   C4A 9222  22.175  20.645   7.650
 4869POPC   C1B 9223  22.215  20.858   8.550
 4869POPC   C2B 9224  22.269  20.846   8.250
 4869POPC   C3B 9225  22.282  20.810   7.950
 4869POPC   C4B 9226  22.220  20.891   7.650
 4870POPC   NC3 9227  42.326  34.529   9.450
 4870POPC   PO4 9228  42.309  34.604   9.150
 4870POPC   GL1 9229  42.377  34.557   8.850
 4870POPC   GL2 9230  42.276  34.475   8.850
 4870POPC   C1A 9231  42.323  34.557   8.550
 4870POPC   D2A 9232  42.366  34.590   8.250
 4870POPC   C3A 9233  42.303  34.558   7.950
 4870POPC   C4A 9234  42.339  34.529   7.650
 4870POPC   C1B 9235  42.304  34.320   8.550
 4870POPC   C2B 9236  42.292  34.279   8.250
 4870POPC   C3B 9237  42.313  34.340   7.950
 4870POPC   C4B 9238  42.248  34.296   7.650
 4871POPC   NC3 9239   8.157  38.456   9.450
 4871POPC   PO4 9240   8.177  38.442   9.150
 4871POPC   GL1 9241   8.150  38.474   8.850
 4871POPC   GL2 9242   8.096  38.551   8.850
 4871POPC   C1A 9243   8.190  38.478   8.550
 4871POPC   D2A 9244   8.154  38.409   8.250
 4871POPC   C3A 9245   8.225  38.443   7.950
 4871POPC   C4A 9246   8.228  38.474   7.650
 4871POPC   C1B 9247   8.006  38.529   8.550
 4871POPC   C2B 9248   7.930  38.622   8.250
 4871POPC   C3B 9249   7.951  38.601   7.950
 4871POPC   C4B 9250   8.024  38.574   7.650
 4872POPC   NC3 9251  22.200  23.682   9.450
 4872POPC   PO4 9252  22.115  23.694   9.150
 4872POPC   GL1 9253  22.186  23.673   8.850
 4872POPC   GL2 9254  22.077  23.723   8.850
 4872POPC   C1A 9255  22.178  23.729   8.550
 4872POPC   D2A 9256  22.131  23.732   8.250
 4872POPC   C3A 9257  22.143  23.744   7.950
 4872POPC   C4A 9258  22.179  23.757   7.650
 4872POPC   C1B 9259  21.928  23.719   8.550
 4872POPC   C2B 9260  21.959  23.728   8.250
 4872POPC   C3B 9261  21.881  23.767   7.950
 4872POPC   C4B 9262  21.879  23.733   7.650
 4873POPC   NC3 9263  15.987  16.753   9.450
 4873POPC   PO4 9264  15.967  16.768   9.150
 4873POPC   GL1 9265  15.940  16.731   8.850
 4873POPC   GL2 9266  16.076  16.789   8.850
 4873POPC   C1A 9267  15.966  16.729   8.550
 4873POPC   D2A 9268  16.004  16.699   8.250
 4873POPC   C3A 9269  15.966  16.683   7.950
 4873POPC   C4A 9270  15.924  16.716   7.650
 4873POPC   C1B 9271  16.099  16.898   8.550
 4873POPC   C2B 9272  16.187  16.865   8.250
 4873POPC   C3B 9273  16.113  16.932   7.950
 4873POPC   C4B 9274  16.136  16.936   7.650
 4874POPC   NC3 9275  18.267   2.003   9.450
 4874POPC   PO4 9276  18.303   2.034   9.150
 4874POPC   GL1 9277  18.331   2.017   8.850
 4874POPC   GL2 9278  18.194   2.041   8.850
 4874POPC   C1A 9279  18.307   1.957   8.550
 4874POPC   D2A 9280  18.304   1.945   8.250
 4874POPC   C3A 9281  18.327   2.029   7.950
 4874POPC   C4A 9282  18.317   1.941   7.650
 4874POPC   C1B 9283  18.145   2.148   8.550
 4874POPC   C2B 9284  18.154   2.227   8.250
 4874POPC   C3B 9285  18.166   2.205   7.950
 4874POPC   C4B 9286  18.122   2.218   7.650
 4875POPC   NC3 9287  21.345  22.200   9.450
 4875POPC   PO4 9288  21.357  22.181   9.150
 4875POPC   GL1 9289  21.381  22.120   8.850
 4875POPC   GL2 9290  21.243  22.155   8.850
 4875POPC   C1A 9291  21.363  22.147   8.550
 4875POPC   D2A 9292  21.365  22.193   8.250
 4875POPC   C3A 9293  21.427  22.155   7.950
 4875POPC   C4A 9294  21.380  22.157   7.650
 4875POPC   C1B 9295  21.184  22.090   8.550
 4875POPC   C2B 9296  21.186  22.131   8.250
 4875POPC   C3B 9297  21.115  22.104   7.950
 4875POPC   C4B 9298  21.157  22.156   7.650
 4876POPC   NC3 9299  25.293  19.014   9.450
 4876POPC   PO4 9300  25.230  19.011   9.150
 4876POPC   GL1 9301  25.271  19.082   8.850
 4876POPC   GL2 9302  25.246  18.889   8.850
 4876POPC   C1A 9303  25.255  19.106   8.550
 4876POPC   D2A 9304  25.225  19.053   8.250
 4876POPC   C3A 9305  25.232  19.049   7.950
 4876POPC   C4A 9306  25.230  19.009   7.650
 4876POPC   C1B 9307  25.185  18.784   8.550
 4876POPC   C2B 9308  25.252  18.797   8.250
 4876POPC   C3B 9309  25.201  18.791   7.950
 4876POPC   C4B 9310  25.186  18.838   7.650
 4877POPC   NC3 9311  22.915  12.086   9.450
 4877POPC   PO4 9312  22.977  12.088   9.150
 4877POPC   GL1 9313  22.987  12.097   8.850
 4877POPC   GL2 9314  23.084  12.054   8.850
 4877POPC   C1A 9315  22.918  12.119   8.550
 4877POPC   D2A 9316  22.956  12.085   8.250
 4877POPC   C3A 9317  22.945  12.104   7.950
 4877POPC   C4A 9318  22.895  12.118   7.650
 4877POPC   C1B 9319  23.175  12.032   8.550
 4877POPC   C2B 9320  23.217  11.969   8.250
 4877POPC   C3B 9321  23.184  12.035   7.950
 4877POPC   C4B 9322  23.220  11.979   7.650
 4878POPC   NC3 9323  44.641  37.652   9.450
 4878POPC   PO4 9324  44.660  37.665   9.150
 4878POPC   GL1 9325  44.679  37.667   8.850
 4878POPC   GL2 9326  44.771  37.613   8.850
 4878POPC   C1A 9327  44.618  37.699   8.550
 4878POPC   D2A 9328  44.641  37.651   8.250
 4878POPC   C3A 9329  44.622  37.709   7.950
 4878POPC   C4A 9330  44.644  37.705   7.650
 4878POPC   C1B 9331  44.911  37.537   8.550
 4878POPC   C2B 9332  44.880  37.573   8.250
 4878POPC   C3B 9333  44.890  37.588   7.950
 4878POPC   C4B 9334  44.889  37.505   7.650
 4879POPC   NC3 9335  30.679  29.193   9.450
 4879POPC   PO4 9336  30.740  29.140   9.150
 4879POPC   GL1 9337  30.732  29.119   8.850
 4879POPC   GL2 9338  30.786  29.119   8.850
 4879POPC   C1A 9339  30.736  29.186   8.550
 4879POPC   D2A 9340  30.693  29.167   8.250
 4879POPC   C3A 9341  30.648  29.194   7.950
 4879POPC   C4A 9342  30.700  29.159   7.650
 4879POPC   C1B 9343  30.909  29.048   8.550
 4879POPC   C2B 9344  30.952  29.059   8.250
 4879POPC   C3B 9345  30.910  29.052   7.950
 4879POPC   C4B 9346  30.919  29.082   7.650
 4880POPC   NC3 9347   4.304  43.848   9.450
 4880POPC   PO4 9348   4.302  43.844   9.150
 4880POPC   GL1 9349   4.357  43.876   8.850
 4880POPC   GL2 9350   4.329  43.772   8.850
 4880POPC   C1A 9351   4.270  43.920   8.550
 4880POPC   D2A 9352   4.317  43.846   8.250
 4880POPC   C3A 9353   4.314  43.886   7.950
 4880POPC   C4A 9354   4.292  43.923   7.650
 4880POPC   C1B 9355   4.255  43.596   8.550
 4880POPC   C2B 9356   4.215  43.669   8.250
 4880POPC   C3B 9357   4.216  43.658   7.950
 4880POPC   C4B 9358   4.262  43.649   7.650
 4881POPC   NC3 9359   1.239  43.853   9.450
 4881POPC   PO4 9360   1.172  43.846   9.150
 4881POPC   GL1 9361   1.242  43.872   8.850
 4881POPC   GL2 9362   1.313  43.812   8.850
 4881POPC   C1A 9363   1.169  43.907   8.550
 4881POPC   D2A 9364   1.170  43.880   8.250
 4881POPC   C3A 9365   1.208  43.838   7.950
 4881POPC   C4A 9366   1.186  43.842   7.650
 4881POPC   C1B 9367   1.428  43.824   8.550
 4881POPC   C2B 9368   1.456  43.821   8.250
 4881POPC   C3B 9369   1.426  43.736   7.950
 4881POPC   C4B 9370   1.416  43.742   7.650
 4882POPC   NC3 9371  31.424  12.057   9.450
 4882POPC   PO4 9372  31.469  12.045   9.150
 4882POPC   GL1 9373  31.512  12.043   8.850
 4882POPC   GL2 9374  31.462  11.911   8.850
 4882POPC   C1A 9375  31.435  12.050   8.550
 4882POPC   D2A 9376  31.507  12.050   8.250
 4882POPC   C3A 9377  31.495  12.079   7.950
 4882POPC   C4A 9378  31.423  12.067   7.650
 4882POPC   C1B 9379  31.358  11.804   8.550
 4882POPC   C2B 9380  31.403  11.864   8.250
 4882POPC   C3B 9381  31.405  11.882   7.950
 4882POPC   C4B 9382  31.381  11.861   7.650
 4883POPC   NC3 9383  36.141  43.867   9.450
 4883POPC   PO4 9384  36.171  43.899   9.150
 4883POPC   GL1 9385  36.113  43.843   8.850
 4883POPC   GL2 9386  36.204  43.819   8.850
 4883POPC   C1A 9387  36.176  43.886   8.550
 4883POPC   D2A 9388  36.094  43.846   8.250
 4883POPC   C3A 9389  36.105  43.843   7.950
 4883POPC   C4A 9390  36.128  43.859   7.650
 4883POPC   C1B 9391  36.393  43.757   8.550
 4883POPC   C2B 9392  36.340  43.831   8.250
 4883POPC   C3B 9393  36.321  43.774   7.950
 4883POPC   C4B 9394  36.348  43.823   7.650
 4884POPC   NC3 9395  20.642   1.229   9.450
 4884POPC   PO4 9396  20.605   1.172   9.150
 4884POPC   GL1 9397  20.610   1.260   8.850
 4884POPC   GL2 9398  20.532   1.145   8.850
 4884POPC   C1A 9399  20.646   1.241   8.550
 4884POPC   D2A 9400  20.589   1.254   8.250
 4884POPC   C3A 9401  20.637   1.226   7.950
 4884POPC   C4A 9402  20.626   1.180   7.650
 4884POPC   C1B 9403  20.441   1.052   8.550
 4884POPC   C2B 9404  20.476   0.965   8.250
 4884POPC   C3B 9405  20.468   1.020   7.950
 4884POPC   C4B 9406  20.453   0.997   7.650
 4885POPC   NC3 9407  11.304  25.997   9.450
 4885POPC   PO4 9408  11.329  26.022   9.150
 4885POPC   GL1 9409  11.263  26.046   8.850
 4885POPC   GL2 9410  11.239  26.119   8.850
 4885POPC   C1A 9411  11.309  26.046   8.550
 4885POPC   D2A 9412  11.253  26.007   8.250
 4885POPC   C3A 9413  11.258  26.090   7.950
 4885POPC   C4A 9414  11.308  26.014   7.650
 4885POPC   C1B 9415  11.160  26.226   8.550
 4885POPC   C2B 9416  11.140  26.233   8.250
 4885POPC   C3B 9417  11.125  26.221   7.950
 4885POPC   C4B 9418  11.147  26.253   7.650
 4886POPC   NC3 9419  10.476  18.311   9.450
 4886POPC   PO4 9420  10.574  18.304   9.150
 4886POPC   GL1 9421  10.571  18.293   8.850
 4886POPC   GL2 9422  10.587  18.386   8.850
 4886POPC   C1A 9423  10.547  18.308   8.550
 4886POPC   D2A 9424  10.481  18.291   8.250
 4886POPC   C3A 9425  10.496  18.282   7.950
 4886POPC   C4A 9426  10.489  18.250   7.650
 4886POPC   C1B 9427  10.655  18.513   8.550
 4886POPC   C2B 9428  10.623  18.494   8.250
 4886POPC   C3B 9429  10.601  18.494   7.950
 4886POPC   C4B 9430  10.583  18.559   7.650
 4887POPC   NC3 9431  35.336  43.859   9.450
 4887POPC   PO4 9432  35.327  43.927   9.150
 4887POPC   GL1 9433  35.397  43.880   8.850
 4887POPC   GL2 9434  35.320  43.768   8.850
 4887POPC   C1A 9435  35.363  43.922   8.550
 4887POPC   D2A 9436  35.343  43.916   8.250
 4887POPC   C3A 9437  35.387  43.837   7.950
 4887POPC   C4A 9438  35.360  43.916   7.650
 4887POPC   C1B 9439  35.236  43.679   8.550
 4887POPC   C2B 9440  35.224  43.662   8.250
 4887POPC   C3B 9441  35.221  43.669   7.950
 4887POPC   C4B 9442  35.226  43.633   7.650
 4888POPC   NC3 9443  19.108  12.864   9.450
 4888POPC   PO4 9444  19.076  12.811   9.150
 4888POPC   GL1 9445  19.062  12.843   8.850
 4888POPC   GL2 9446  19.109  12.747   8.850
 4888POPC   C1A 9447  19.071  12.843   8.550
 4888POPC   D2A 9448  19.020  12.860   8.250
 4888POPC   C3A 9449  19.010  12.886   7.950
 4888POPC   C4A 9450  19.016  12.841   7.650
 4888POPC   C1B 9451  19.106  12.658   8.550
 4888POPC   C2B 9452  19.103  12.627   8.250
 4888POPC   C3B 9453  19.167  12.608   7.950
 4888POPC   C4B 9454  19.128  12.637   7.650
 4889POPC   NC3 9455  12.105  42.320   9.450
 4889POPC   PO4 9456  12.051  42.312   9.150
 4889POPC   GL1 9457  12.106  42.373   8.850
 4889POPC   GL2 9458  11.915  42.264   8.850
 4889POPC   C1A 9459  12.111  42.383   8.550
 4889POPC   D2A 9460  12.108  42.332   8.250
 4889POPC   C3A 9461  12.040  42.295   7.950
 4889POPC   C4A 9462  12.028  42.359   7.650
 4889POPC   C1B 9463  11.880  42.180   8.550
 4889POPC   C2B 9464  11.849  42.220   8.250
 4889POPC   C3B 9465  11.872  42.254   7.950
 4889POPC   C4B 9466  11.865  42.179   7.650
 4890POPC   NC3 9467   7.382   2.719   9.450
 4890POPC   PO4 9468   7.391   2.798   9.150
 4890POPC   GL1 9469   7.399   2.761   8.850
 4890POPC   GL2 9470   7.372   2.868   8.850
 4890POPC   C1A 9471   7.380   2.776   8.550
 4890POPC   D2A 9472   7.398   2.779   8.250
 4890POPC   C3A 9473   7.448   2.814   7.950
 4890POPC   C4A 9474   7.375   2.767   7.650
 4890POPC   C1B 9475   7.352   3.010   8.550
 4890POPC   C2B 9476   7.388   3.034   8.250
 4890POPC   C3B 9477   7.354   2.995   7.950
 4890POPC   C4B 9478   7.354   2.981   7.650
 4891POPC   NC3 9479  21.425  32.259   9.450
 4891POPC   PO4 9480  21.393  32.222   9.150
 4891POPC   GL1 9481  21.412  32.295   8.850
 4891POPC   GL2 9482  21.220  32.230   8.850
 4891POPC   C1A 9483  21.400  32.215   8.550
 4891POPC   D2A 9484  21.371  32.225   8.250
 4891POPC   C3A 9485  21.357  32.200   7.950
 4891POPC   C4A 9486  21.423  32.276   7.650
 4891POPC   C1B 9487  21.100  32.247   8.550
 4891POPC   C2B 9488  21.149  32.276   8.250
 4891POPC   C3B 9489  21.181  32.308   7.950
 4891POPC   C4B 9490  21.094  32.308   7.650
 4892POPC   NC3 9491  32.289   0.419   9.450
 4892POPC   PO4 9492  32.261   0.419   9.150
 4892POPC   GL1 9493  32.265   0.406   8.850
 4892POPC   GL2 9494  32.193   0.569   8.850
 4892POPC   C1A 9495  32.224   0.416   8.550
 4892POPC   D2A 9496  32.249   0.434   8.250
 4892POPC   C3A 9497  32.237   0.467   7.950
 4892POPC   C4A 9498  32.199   0.423   7.650
 4892POPC   C1B 9499  32.115   0.609   8.550
 4892POPC   C2B 9500  32.144   0.645   8.250
 4892POPC   C3B 9501  32.138   0.648   7.950
 4892POPC   C4B 9502  32.081   0.595   7.650
 4893POPC   NC3 9503  12.086  15.136   9.450
 4893POPC   PO4 9504  12.109  15.222   9.150
 4893POPC   GL1 9505  12.116  15.177   8.850
 4893POPC   GL2 9506  11.949  15.120   8.850
 4893POPC   C1A 9507  12.041  15.219   8.550
 4893POPC   D2A 9508  12.100  15.140   8.250
 4893POPC   C3A 9509  12.090  15.194   7.950
 4893POPC   C4A 9510  12.049  15.194   7.650
 4893POPC   C1B 9511  11.928  15.027   8.550
 4893POPC   C2B 9512  11.952  14.975   8.250
 4893POPC   C3B 9513  11.956  15.037   7.950
 4893POPC   C4B 9514  11.866  14.947   7.650
 4894POPC   NC3 9515  22.156  29.879   9.450
 4894POPC   PO4 9516  22.151  29.951   9.150
 4894POPC   GL1 9517  22.118  29.898   8.850
 4894POPC   GL2 9518  22.119  30.033   8.850
 4894POPC   C1A 9519  22.161  29.940   8.550
 4894POPC   D2A 9520  22.163  29.970   8.250
 4894POPC   C3A 9521  22.186  29.881   7.950
 4894POPC   C4A 9522  22.198  29.957   7.650
 4894POPC   C1B 9523  22.027  30.146   8.550
 4894POPC   C2B 9524  22.005  30.170   8.250
 4894POPC   C3B 9525  22.029  30.105   7.950
 4894POPC   C4B 9526  22.079  30.178   7.650
 4895POPC   NC3 9527  23.695  25.237   9.450
 4895POPC   PO4 9528  23.701  25.303   9.150
 4895POPC   GL1 9529  23.696  25.281   8.850
 4895POPC   GL2 9530  23.794  25.311   8.850
 4895POPC   C1A 9531  23.701  25.269   8.550
 4895POPC   D2A 9532  23.743  25.288   8.250
 4895POPC   C3A 9533  23.696  25.232   7.950
 4895POPC   C4A 9534  23.745  25.253   7.650
 4895POPC   C1B 9535  23.845  25.438   8.550
 4895POPC   C2B 9536  23.886  25.470   8.250
 4895POPC   C3B 9537  23.918  25.488   7.950
 4895POPC   C4B 9538  23.926  25.436   7.650
 4896POPC   NC3 9539  43.123  13.655   9.450
 4896POPC   PO4 9540  43.122  13.609   9.150
 4896POPC   GL1 9541  43.097  13.584   8.850
 4896POPC   GL2 9542  43.033  13.633   8.850
 4896POPC   C1A 9543  43.152  13.645   8.550
 4896POPC   D2A 9544  43.134  13.600   8.250
 4896POPC   C3A 9545  43.069  13.583   7.950
 4896POPC   C4A 9546  43.074  13.656   7.650
 4896POPC   C1B 9547  42.892  13.748   8.550
 4896POPC   C2B 9548  42.861  13.707   8.250
 4896POPC   C3B 9549  42.921  13.682   7.950
 4896POPC   C4B 9550  42.925  13.779   7.650
 4897POPC   NC3 9551  27.580   9.712   9.450
 4897POPC   PO4 9552  27.634   9.715   9.150
 4897POPC   GL1 9553  27.606   9.701   8.850
 4897POPC   GL2 9554  27.470   9.681   8.850
 4897POPC   C1A 9555  27.593   9.748   8.550
 4897POPC   D2A 9556  27.560   9.758   8.250
 4897POPC   C3A 9557  27.606   9.707   7.950
 4897POPC   C4A 9558  27.543   9.754   7.650
 4897POPC   C1B 9559  27.333   9.689   8.550
 4897POPC   C2B 9560  27.326   9.636   8.250
 4897POPC   C3B 9561  27.357   9.713   7.950
 4897POPC   C4B 9562  27.317   9.653   7.650
 4898POPC   NC3 9563  17.502  26.055   9.450
 4898POPC   PO4 9564  17.480  25.995   9.150
 4898POPC   GL1 9565  17.522  26.034   8.850
 4898POPC   GL2 9566  17.404  26.103   8.850
 4898POPC   C1A 9567  17.493  26.078   8.550
 4898POPC   D2A 9568  17.512  26.016   8.250
 4898POPC   C3A 9569  17.553  26.049   7.950
 4898POPC   C4A 9570  17.505  26.084   7.650
 4898POPC   C1B 9571  17.235  26.091   8.550
 4898POPC   C2B 9572  17.241  26.068   8.250
 4898POPC   C3B 9573  17.289  26.157   7.950
 4898POPC   C4B 9574  17.274  26.130   7.650
 4899POPC   NC3 9575  43.930   7.372   9.450
 4899POPC   PO4 9576  43.918   7.423   9.150
 4899POPC   GL1 9577  43.839   7.403   8.850
 4899POPC   GL2 9578  43.755   7.512   8.850
 4899POPC   C1A 9579  43.870   7.401   8.550
 4899POPC   D2A 9580  43.902   7.383   8.250
 4899POPC   C3A 9581  43.927   7.431   7.950
 4899POPC   C4A 9582  43.917   7.379   7.650
 4899POPC   C1B 9583  43.682   7.581   8.550
 4899POPC   C2B 9584  43.668   7.559   8.250
 4899POPC   C3B 9585  43.627   7.579   7.950
 4899POPC   C4B 9586  43.620   7.563   7.650
 4900POPC   NC3 9587   6.652  27.549   9.450
 4900POPC   PO4 9588   6.612  27.559   9.150
 4900POPC   GL1 9589   6.650  27.569   8.850
 4900POPC   GL2 9590   6.579  27.479   8.850
 4900POPC   C1A 9591   6.626  27.638   8.550
 4900POPC   D2A 9592   6.602  27.545   8.250
 4900POPC   C3A 9593   6.677  27.611   7.950
 4900POPC   C4A 9594   6.689  27.590   7.650
 4900POPC   C1B 9595   6.604  27.322   8.550
 4900POPC   C2B 9596   6.611  27.377   8.250
 4900POPC   C3B 9597   6.548  27.315   7.950
 4900POPC   C4B 9598   6.589  27.363   7.650
 4901POPC   NC3 9599  33.841  23.753   9.450
 4901POPC   PO4 9600  33.837  23.708   9.150
 4901POPC   GL1 9601  33.779  23.699   8.850
 4901POPC   GL2 9602  33.878  23.809   8.850
 4901POPC   C1A 9603  33.762  23.734   8.550
 4901POPC   D2A 9604  33.763  23.704   8.250
 4901POPC   C3A 9605  33.790  23.728   7.950
 4901POPC   C4A 9606  33.757  23.731   7.650
 4901POPC   C1B 9607  33.853  23.908   8.550
 4901POPC   C2B 9608  33.904  23.984   8.250
 4901POPC   C3B 9609  33.925  23.904   7.950
 4901POPC   C4B 9610  33.835  23.987   7.650
 4902POPC   NC3 9611  27.624  14.429   9.450
 4902POPC   PO4 9612  27.572  14.397   9.150
 4902POPC   GL1 9613  27.557  14.404   8.850
 4902POPC   GL2 9614  27.465  14.487   8.850
 4902POPC   C1A 9615  27.594  14.397   8.550
 4902POPC   D2A 9616  27.565  14.439   8.250
 4902POPC   C3A 9617  27.620  14.410   7.950
 4902POPC   C4A 9618  27.625  14.392   7.650
 4902POPC   C1B 9619  27.419  14.580   8.550
 4902POPC   C2B 9620  27.360  14.519   8.250
 4902POPC   C3B 9621  27.380  14.557   7.950
 4902POPC   C4B 9622  27.398  14.607   7.650
 4903POPC   NC3 9623  21.367   5.893   9.450
 4903POPC   PO4 9624  21.420   5.887   9.150
 4903POPC   GL1 9625  21.386   5.895   8.850
 4903POPC   GL2 9626  21.265   5.763   8.850
 4903POPC   C1A 9627  21.435   5.879   8.550
 4903POPC   D2A 9628  21.413   5.875   8.250
 4903POPC   C3A 9629  21.376   5.873   7.950
 4903POPC   C4A 9630  21.372   5.841   7.650
 4903POPC   C1B 9631  21.219   5.673   8.550
 4903POPC   C2B 9632  21.247   5.695   8.250
 4903POPC   C3B 9633  21.154   5.745   7.950
 4903POPC   C4B 9634  21.244   5.734   7.650
 4904POPC   NC3 9635  38.467  26.803   9.450
 4904POPC   PO4 9636  38.501  26.829   9.150
 4904POPC   GL1 9637  38.433  26.820   8.850
 4904POPC   GL2 9638  38.357  26.884   8.850
 4904POPC   C1A 9639  38.485  26.789   8.550
 4904POPC   D2A 9640  38.437  26.792   8.250
 4904POPC   C3A 9641  38.455  26.772   7.950
 4904POPC   C4A 9642  38.408  26.788   7.650
 4904POPC   C1B 9643  38.369  27.032   8.550
 4904POPC   C2B 9644  38.342  26.998   8.250
 4904POPC   C3B 9645  38.331  27.014   7.950
 4904POPC   C4B 9646  38.371  27.013   7.650
 4905POPC   NC3 9647  22.952  44.658   9.450
 4905POPC   PO4 9648  22.961  44.668   9.150
 4905POPC   GL1 9649  22.973  44.648   8.850
 4905POPC   GL2 9650  22.969  44.812   8.850
 4905POPC   C1A 9651  22.968  44.624   8.550
 4905POPC   D2A 9652  22.927  44.686   8.250
 4905POPC   C3A 9653  22.971  44.668   7.950
 4905POPC   C4A 9654  22.985  44.699   7.650
 4905POPC   C1B 9655  23.018  44.907   8.550
 4905POPC   C2B 9656  22.992  44.861   8.250
 4905POPC   C3B 9657  22.991  44.945   7.950
 4905POPC   C4B 9658  23.074  44.944   7.650
 4906POPC   NC3 9659  43.072  36.879   9.450
 4906POPC   PO4 9660  43.085  36.944   9.150
 4906POPC   GL1 9661  43.094  36.909   8.850
 4906POPC   GL2 9662  42.980  36.877   8.850
 4906POPC   C1A 9663  43.106  36.912   8.550
 4906POPC   D2A 9664  43.160  36.911   8.250
 4906POPC   C3A 9665  43.095  36.899   7.950
 4906POPC   C4A 9666  43.080  36.860   7.650
 4906POPC   C1B 9667  42.848  36.813   8.550
 4906POPC   C2B 9668  42.874  36.819   8.250
 4906POPC   C3B 9669  42.859  36.785   7.950
 4906POPC   C4B 9670  42.893  36.779   7.650
 4907POPC   NC3 9671  28.367  40.038   9.450
 4907POPC   PO4 9672  28.411  40.015   9.150
 4907POPC   GL1 9673  28.376  39.975   8.850
 4907POPC   GL2 9674  28.251  39.997   8.850
 4907POPC   C1A 9675  28.324  40.008   8.550
 4907POPC   D2A 9676  28.399  40.043   8.250
 4907POPC   C3A 9677  28.409  39.959   7.950
 4907POPC   C4A 9678  28.374  40.026   7.650
 4907POPC   C1B 9679  28.137  39.912   8.550
 4907POPC   C2B 9680  28.094  39.953   8.250
 4907POPC   C3B 9681  28.162  39.869   7.950
 4907POPC   C4B 9682  28.105  39.955   7.650
 4908POPC   NC3 9683  26.865  40.774   9.450
 4908POPC   PO4 9684  26.812  40.808   9.150
 4908POPC   GL1 9685  26.788  40.798   8.850
 4908POPC   GL2 9686  26.717  40.791   8.850
 4908POPC   C1A 9687  26.815  40.807   8.550
 4908POPC   D2A 9688  26.859  40.780   8.250
 4908POPC   C3A 9689  26.809  40.735   7.950
 4908POPC   C4A 9690  26.823  40.752   7.650
 4908POPC   C1B 9691  26.615  40.749   8.550
 4908POPC   C2B 9692  26.536  40.821   8.250
 4908POPC   C3B 9693  26.547  40.800   7.950
 4908POPC   C4B 9694  26.600  40.805   7.650
 4909POPC   NC3 9695   9.727  11.339   9.450
 4909POPC   PO4 9696   9.705  11.303   9.150
 4909POPC   GL1 9697   9.767  11.341   8.850
 4909POPC   GL2 9698   9.674  11.255   8.850
 4909POPC   C1A 9699   9.710  11.297   8.550
 4909POPC   D2A 9700   9.783  11.349   8.250
 4909POPC   C3A 9701   9.781  11.330   7.950
 4909POPC   C4A 9702   9.723  11.338   7.650
 4909POPC   C1B 9703   9.515  11.181   8.550
 4909POPC   C2B 9704   9.498  11.198   8.250
 4909POPC   C3B 9705   9.566  11.196   7.950
 4909POPC   C4B 9706   9.497  11.190   7.650
 4910POPC   NC3 9707  37.709  17.467   9.450
 4910POPC   PO4 9708  37.681  17.479   9.150
 4910POPC   GL1 9709  37.722  17.525   8.850
 4910POPC   GL2 9710  37.520  17.461   8.850
 4910POPC   C1A 9711  37.642  17.537   8.550
 4910POPC   D2A 9712  37.669  17.484   8.250
 4910POPC   C3A 9713  37.681  17.554   7.950
 4910POPC   C4A 9714  37.637  17.544   7.650
 4910POPC   C1B 9715  37.445  17.391   8.550
 4910POPC   C2B 9716  37.392  17.470   8.250
 4910POPC   C3B 9717  37.423  17.452   7.950
 4910POPC   C4B 9718  37.443  17.444   7.650
 4911POPC   NC3 9719  13.637  25.265   9.450
 4911POPC   PO4 9720  13.677  25.259   9.150
 4911POPC   GL1 9721  13.661  25.260   8.850
 4911POPC   GL2 9722  13.580  25.374   8.850
 4911POPC   C1A 9723  13.640  25.283   8.550
 4911POPC   D2A 9724  13.599  25.223   8.250
 4911POPC   C3A 9725  13.662  25.266   7.950
 4911POPC   C4A 9726  13.615  25.253   7.650
 4911POPC   C1B 9727  13.511  25.441   8.550
 4911POPC   C2B 9728  13.457  25.486   8.250
 4911POPC   C3B 9729  13.522  25.427   7.950
 4911POPC   C4B 9730  13.467  25.457   7.650
 4912POPC   NC3 9731   5.134  36.936   9.450
 4912POPC   PO4 9732   5.073  36.940   9.150
 4912POPC   GL1 9733   5.052  36.921   8.850
 4912POPC   GL2 9734   4.999  36.948   8.850
 4912POPC   C1A 9735   5.094  36.916   8.550
 4912POPC   D2A 9736   5.115  36.933   8.250
 4912POPC   C3A 9737   5.124  36.865   7.950
 4912POPC   C4A 9738   5.055  36.863   7.650
 4912POPC   C1B 9739   4.836  36.856   8.550
 4912POPC   C2B 9740   4.886  36.943   8.250
 4912POPC   C3B 9741   4.842  36.944   7.950
 4912POPC   C4B 9742   4.847  36.940   7.650
 4913POPC   NC3 9743   5.114  28.399   9.450
 4913POPC   PO4 9744   5.142  28.394   9.150
 4913POPC   GL1 9745   5.098  28.403   8.850
 4913POPC   GL2 9746   5.165  28.250   8.850
 4913POPC   C1A 9747   5.056  28.416   8.550
 4913POPC   D2A 9748   5.071  28.362   8.250
 4913POPC   C3A 9749   5.117  28.364   7.950
 4913POPC   C4A 9750   5.121  28.381   7.650
 4913POPC   C1B 9751   5.231  28.145   8.550
 4913POPC   C2B 9752   5.263  28.202   8.250
 4913POPC   C3B 9753   5.282  28.138   7.950
 4913POPC   C4B 9754   5.284  28.128   7.650
 4914POPC   NC3 9755  36.137  23.679   9.450
 4914POPC   PO4 9756  36.080  23.753   9.150
 4914POPC   GL1 9757  36.115  23.680   8.850
 4914POPC   GL2 9758  36.052  23.583   8.850
 4914POPC   C1A 9759  36.165  23.743   8.550
 4914POPC   D2A 9760  36.165  23.749   8.250
 4914POPC   C3A 9761  36.141  23.716   7.950
 4914POPC   C4A 9762  36.104  23.685   7.650
 4914POPC   C1B 9763  36.115  23.477   8.550
 4914POPC   C2B 9764  36.077  23.486   8.250
 4914POPC   C3B 9765  36.098  23.426   7.950
 4914POPC   C4B 9766  36.025  23.497   7.650
 4915POPC   NC3 9767  12.065  11.264   9.450
 4915POPC   PO4 9768  12.056  11.325   9.150
 4915POPC   GL1 9769  12.050  11.318   8.850
 4915POPC   GL2 9770  12.101  11.240   8.850
 4915POPC   C1A 9771  12.124  11.328   8.550
 4915POPC   D2A 9772  12.093  11.268   8.250
 4915POPC   C3A 9773  12.103  11.348   7.950
 4915POPC   C4A 9774  12.102  11.260   7.650
 4915POPC   C1B 9775  12.166  11.095   8.550
 4915POPC   C2B 9776  12.188  11.060   8.250
 4915POPC   C3B 9777  12.159  11.067   7.950
 4915POPC   C4B 9778  12.231  11.106   7.650
 4916POPC   NC3 9779  36.088   5.116   9.450
 4916POPC   PO4 9780  36.124   5.089   9.150
 4916POPC   GL1 9781  36.083   5.101   8.850
 4916POPC   GL2 9782  36.129   5.174   8.850
 4916POPC   C1A 9783  36.170   5.084   8.550
 4916POPC   D2A 9784  36.173   5.135   8.250
 4916POPC   C3A 9785  36.084   5.126   7.950
 4916POPC   C4A 9786  36.111   5.127   7.650
 4916POPC   C1B 9787  36.184   5.379   8.550
 4916POPC   C2B 9788  36.152   5.371   8.250
 4916POPC   C3B 9789  36.193   5.300   7.950
 4916POPC   C4B 9790  36.199   5.359   7.650
 4917POPC   NC3 9791  40.778  36.078   9.450
 4917POPC   PO4 9792  40.822  36.092   9.150
 4917POPC   GL1 9793  40.797  36.172   8.850
 4917POPC   GL2 9794  40.706  36.126   8.850
 4917POPC   C1A 9795  40.755  36.149   8.550
 4917POPC   D2A 9796  40.771  36.157   8.250
 4917POPC   C3A 9797  40.764  36.156   7.950
 4917POPC   C4A 9798  40.816  36.172   7.650
 4917POPC   C1B 9799  40.581  36.161   8.550
 4917POPC   C2B 9800  40.557  36.128   8.250
 4917POPC   C3B 9801  40.521  36.162   7.950
 4917POPC   C4B 9802  40.584  36.172   7.650
 4918POPC   NC3 9803  34.578  12.901   9.450
 4918POPC   PO4 9804  34.560  12.887   9.150
 4918POPC   GL1 9805  34.539  12.880   8.850
 4918POPC   GL2 9806  34.562  12.769   8.850
 4918POPC   C1A 9807  34.531  12.884   8.550
 4918POPC   D2A 9808  34.535  12.845   8.250
 4918POPC   C3A 9809  34.585  12.860   7.950
 4918POPC   C4A 9810  34.569  12.810   7.650
 4918POPC   C1B 9811  34.616  12.563   8.550
 4918POPC   C2B 9812  34.655  12.633   8.250
 4918POPC   C3B 9813  34.650  12.619   7.950
 4918POPC   C4B 9814  34.665  12.589   7.650
 4919POPC   NC3 9815  42.285  14.379   9.450
 4919POPC   PO4 9816  42.297  14.372   9.150
 4919POPC   GL1 9817  42.383  14.423   8.850
 4919POPC   GL2 9818  42.471  14.490   8.850
 4919POPC   C1A 9819  42.345  14.407   8.550
 4919POPC   D2A 9820  42.301  14.388   8.250
 4919POPC   C3A 9821  42.370  14.444   7.950
 4919POPC   C4A 9822  42.367  14.392   7.650
 4919POPC   C1B 9823  42.600  14.474   8.550
 4919POPC   C2B 9824  42.576  14.471   8.250
 4919POPC   C3B 9825  42.560  14.482   7.950
 4919POPC   C4B 9826  42.615  14.496   7.650
 4920POPC   NC3 9827  18.306   1.246   9.450
 4920POPC   PO4 9828  18.266   1.209   9.150
 4920POPC   GL1 9829  18.298   1.202   8.850
 4920POPC   GL2 9830  18.210   1.160   8.850
 4920POPC   C1A 9831  18.241   1.203   8.550
 4920POPC   D2A 9832  18.236   1.199   8.250
 4920POPC   C3A 9833  18.277   1.235   7.950
 4920POPC   C4A 9834  18.325   1.202   7.650
 4920POPC   C1B 9835  18.073   1.195   8.550
 4920POPC   C2B 9836  18.053   1.155   8.250
 4920POPC   C3B 9837  18.080   1.182   7.950
 4920POPC   C4B 9838  18.067   1.136   7.650
 4921POPC   NC3 9839   2.796  41.572   9.450
 4921POPC   PO4 9840   2.717  41.595   9.150
 4921POPC   GL1 9841   2.728  41.532   8.850
 4921POPC   GL2 9842   2.862  41.534   8.850
 4921POPC   C1A 9843   2.730  41.576   8.550
 4921POPC   D2A 9844   2.815  41.587   8.250
 4921POPC   C3A 9845   2.775  41.521   7.950
 4921POPC   C4A 9846   2.809  41.584   7.650
 4921POPC   C1B 9847   3.046  41.559   8.550
 4921POPC   C2B 9848   2.987  41.571   8.250
 4921POPC   C3B 9849   3.049  41.629   7.950
 4921POPC   C4B 9850   3.016  41.598   7.650
 4922POPC   NC3 9851  36.879  30.700   9.450
 4922POPC   PO4 9852  36.944  30.659   9.150
 4922POPC   GL1 9853  36.941  30.651   8.850
 4922POPC   GL2 9854  37.025  30.700   8.850
 4922POPC   C1A 9855  36.949  30.735   8.550
 4922POPC   D2A 9856  36.949  30.680   8.250
 4922POPC   C3A 9857  36.950  30.648   7.950
 4922POPC   C4A 9858  36.870  30.712   7.650
 4922POPC   C1B 9859  37.172  30.681   8.550
 4922POPC   C2B 9860  37.169  30.713   8.250
 4922POPC   C3B 9861  37.143  30.709   7.950
 4922POPC   C4B 9862  37.119  30.720   7.650
 4923POPC   NC3 9863  25.262   9.014   9.450
 4923POPC   PO4 9864  25.252   9.002   9.150
 4923POPC   GL1 9865  25.309   8.942   8.850
 4923POPC   GL2 9866  25.176   9.003   8.850
 4923POPC   C1A 9867  25.242   8.944   8.550
 4923POPC   D2A 9868  25.278   8.996   8.250
 4923POPC   C3A 9869  25.265   8.966   7.950
 4923POPC   C4A 9870  25.263   8.964   7.650
 4923POPC   C1B 9871  24.976   8.991   8.550
 4923POPC   C2B 9872  25.040   8.984   8.250
 4923POPC   C3B 9873  24.970   8.973   7.950
 4923POPC   C4B 9874  25.061   8.966   7.650
 4924POPC   NC3 9875   8.928  41.510   9.450
 4924POPC   PO4 9876   8.942  41.523   9.150
 4924POPC   GL1 9877   8.967  41.592   8.850
 4924POPC   GL2 9878   8.908  41.393   8.850
 4924POPC   C1A 9879   8.992  41.513   8.550
 4924POPC   D2A 9880   9.009  41.559   8.250
 4924POPC   C3A 9881   8.952  41.579   7.950
 4924POPC   C4A 9882   8.977  41.527   7.650
 4924POPC   C1B 9883   8.977  41.300   8.550
 4924POPC   C2B 9884   8.909  41.295   8.250
 4924POPC   C3B 9885   8.986  41.266   7.950
 4924POPC   C4B 9886   8.954  41.266   7.650
 4925POPC   NC3 9887  28.377   0.479   9.450
 4925POPC   PO4 9888  28.389   0.431   9.150
 4925POPC   GL1 9889  28.373   0.461   8.850
 4925POPC   GL2 9890  28.308   0.594   8.850
 4925POPC   C1A 9891  28.408   0.432   8.550
 4925POPC   D2A 9892  28.321   0.458   8.250
 4925POPC   C3A 9893  28.325   0.394   7.950
 4925POPC   C4A 9894  28.357   0.437   7.650
 4925POPC   C1B 9895  28.283   0.646   8.550
 4925POPC   C2B 9896  28.338   0.640   8.250
 4925POPC   C3B 9897  28.282   0.692   7.950
 4925POPC   C4B 9898  28.339   0.682   7.650
 4926POPC   NC3 9899  18.305  33.805   9.450
 4926POPC   PO4 9900  18.292  33.817   9.150
 4926POPC   GL1 9901  18.314  33.839   8.850
 4926POPC   GL2 9902  18.342  33.902   8.850
 4926POPC   C1A 9903  18.238  33.837   8.550
 4926POPC   D2A 9904  18.256  33.784   8.250
 4926POPC   C3A 9905  18.323  33.818   7.950
 4926POPC   C4A 9906  18.288  33.788   7.650
 4926POPC   C1B 9907  18.278  34.077   8.550
 4926POPC   C2B 9908  18.322  34.057   8.250
 4926POPC   C3B 9909  18.312  34.055   7.950
 4926POPC   C4B 9910  18.312  34.063   7.650
 4927POPC   NC3 9911  24.452  15.228   9.450
 4927POPC   PO4 9912  24.527  15.214   9.150
 4927POPC   GL1 9913  24.467  15.192   8.850
 4927POPC   GL2 9914  24.386  15.204   8.850
 4927POPC   C1A 9915  24.452  15.205   8.550
 4927POPC   D2A 9916  24.532  15.186   8.250
 4927POPC   C3A 9917  24.484  15.227   7.950
 4927POPC   C4A 9918  24.498  15.204   7.650
 4927POPC   C1B 9919  24.211  15.247   8.550
 4927POPC   C2B 9920  24.213  15.267   8.250
 4927POPC   C3B 9921  24.215  15.197   7.950
 4927POPC   C4B 9922  24.253  15.179   7.650
 4928POPC   NC3 9923   7.438  26.866   9.450
 4928POPC   PO4 9924   7.459  26.769   9.150
 4928POPC   GL1 9925   7.376  26.780   8.850
 4928POPC   GL2 9926   7.357  26.928   8.850
 4928POPC   C1A 9927   7.404  26.783   8.550
 4928POPC   D2A 9928   7.386  26.846   8.250
 4928POPC   C3A 9929   7.431  26.780   7.950
 4928POPC   C4A 9930   7.438  26.832   7.650
 4928POPC   C1B 9931   7.296  27.065   8.550
 4928POPC   C2B 9932   7.282  27.012   8.250
 4928POPC   C3B 9933   7.287  27.066   7.950
 4928POPC   C4B 9934   7.355  27.065   7.650
 4929POPC   NC3 9935  22.193  41.511   9.450
 4929POPC   PO4 9936  22.181  41.590   9.150
 4929POPC   GL1 9937  22.168  41.581   8.850
 4929POPC   GL2 9938  21.994  41.527   8.850
 4929POPC   C1A 9939  22.132  41.541   8.550
 4929POPC   D2A 9940  22.177  41.599   8.250
 4929POPC   C3A 9941  22.139  41.513   7.950
 4929POPC   C4A 9942  22.172  41.557   7.650
 4929POPC   C1B 9943  21.905  41.529   8.550
 4929POPC   C2B 9944  21.885  41.585   8.250
 4929POPC   C3B 9945  21.879  41.567   7.950
 4929POPC   C4B 9946  21.904  41.544   7.650
 4930POPC   NC3 9947  36.940   2.800   9.450
 4930POPC   PO4 9948  36.909   2.764   9.150
 4930POPC   GL1 9949  36.882   2.720   8.850
 4930POPC   GL2 9950  36.955   2.693   8.850
 4930POPC   C1A 9951  36.918   2.742   8.550
 4930POPC   D2A 9952  36.907   2.719   8.250
 4930POPC   C3A 9953  36.896   2.740   7.950
 4930POPC   C4A 9954  36.950   2.769   7.650
 4930POPC   C1B 9955  37.007   2.501   8.550
 4930POPC   C2B 9956  37.029   2.518   8.250
 4930POPC   C3B 9957  37.003   2.495   7.950
 4930POPC   C4B 9958  37.008   2.500   7.650
 4931POPC   NC3 9959  30.706   2.789   9.450
 4931POPC   PO4 9960  30.673   2.733   9.150
 4931POPC   GL1 9961  30.681   2.802   8.850
 4931POPC   GL2 9962  30.555   2.801   8.850
 4931POPC   C1A 9963  30.651   2.764   8.550
 4931POPC   D2A 9964  30.650   2.809   8.250
 4931POPC   C3A 9965  30.731   2.734   7.950
 4931POPC   C4A 9966  30.704   2.815   7.650
 4931POPC   C1B 9967  30.420   2.822   8.550
 4931POPC   C2B 9968  30.438   2.807   8.250
 4931POPC   C3B 9969  30.431   2.889   7.950
 4931POPC   C4B 9970  30.441   2.836   7.650
 4932POPC   NC3 9971  19.077   9.727   9.450
 4932POPC   PO4 9972  19.052   9.736   9.150
 4932POPC   GL1 9973  19.059   9.737   8.850
 4932POPC   GL2 9974  19.151   9.797   8.850
 4932POPC   C1A 9975  19.056   9.786   8.550
 4932POPC   D2A 9976  19.067   9.722   8.250
 4932POPC   C3A 9977  19.044   9.700   7.950
 4932POPC   C4A 9978  19.087   9.715   7.650
 4932POPC   C1B 9979  19.172   9.912   8.550
 4932POPC   C2B 9980  19.197   9.954   8.250
 4932POPC   C3B 9981  19.239   9.917   7.950
 4932POPC   C4B 9982  19.202   9.976   7.650
 4933POPC   NC3 9983   5.905  15.209   9.450
 4933POPC   PO4 9984   5.848  15.170   9.150
 4933POPC   GL1 9985   5.878  15.213   8.850
 4933POPC   GL2 9986   5.725  15.162   8.850
 4933POPC   C1A 9987   5.880  15.196   8.550
 4933POPC   D2A 9988   5.855  15.143   8.250
 4933POPC   C3A 9989   5.914  15.137   7.950
 4933POPC   C4A 9990   5.849  15.216   7.650
 4933POPC   C1B 9991   5.655  15.085   8.550
 4933POPC   C2B 9992   5.680  15.014   8.250
 4933POPC   C3B 9993   5.648  15.095   7.950
 4933POPC   C4B 9994   5.658  15.080   7.650
 4934POPC   NC3 9995  19.014   5.109   9.450
 4934POPC   PO4 9996  19.020   5.109   9.150
 4934POPC   GL1 9997  19.076   5.128   8.850
 4934POPC   GL2 9998  18.969   5.099   8.850
 4934POPC   C1A 9999  19.040   5.141   8.550
 4934POPC   D2A10000  19.044   5.109   8.250
 4934POPC   C3A10001  19.081   5.052   7.950
 4934POPC   C4A10002  19.037   5.128   7.650
 4934POPC   C1B10003  18.840   5.183   8.550
 4934POPC   C2B10004  18.804   5.172   8.250
 4934POPC   C3B10005  18.851   5.133   7.950
 4934POPC   C4B10006  18.860   5.136   7.650
 4935POPC   NC310007   8.998  21.422   9.450
 4935POPC   PO410008   8.942  21.419   9.150
 4935POPC   GL110009   8.993  21.375   8.850
 4935POPC   GL210010   8.886  21.508   8.850
 4935POPC   C1A10011   8.959  21.370   8.550
 4935POPC   D2A10012   8.968  21.342   8.250
 4935POPC   C3A10013   8.999  21.381   7.950
 4935POPC   C4A10014   8.968  21.362   7.650
 4935POPC   C1B10015   8.845  21.582   8.550
 4935POPC   C2B10016   8.855  21.628   8.250
 4935POPC   C3B10017   8.855  21.561   7.950
 4935POPC   C4B10018   8.866  21.642   7.650
 4936POPC   NC310019   3.544   0.484   9.450
 4936POPC   PO410020   3.540   0.396   9.150
 4936POPC   GL110021   3.504   0.405   8.850
 4936POPC   GL210022   3.648   0.375   8.850
 4936POPC   C1A10023   3.530   0.486   8.550
 4936POPC   D2A10024   3.496   0.486   8.250
 4936POPC   C3A10025   3.494   0.445   7.950
 4936POPC   C4A10026   3.532   0.441   7.650
 4936POPC   C1B10027   3.785   0.429   8.550
 4936POPC   C2B10028   3.794   0.426   8.250
 4936POPC   C3B10029   3.834   0.349   7.950
 4936POPC   C4B10030   3.781   0.426   7.650
 4937POPC   NC310031  35.331  10.543   9.450
 4937POPC   PO410032  35.370  10.528   9.150
 4937POPC   GL110033  35.345  10.488   8.850
 4937POPC   GL210034  35.303  10.405   8.850
 4937POPC   C1A10035  35.343  10.526   8.550
 4937POPC   D2A10036  35.333  10.552   8.250
 4937POPC   C3A10037  35.338  10.555   7.950
 4937POPC   C4A10038  35.333  10.523   7.650
 4937POPC   C1B10039  35.334  10.311   8.550
 4937POPC   C2B10040  35.377  10.269   8.250
 4937POPC   C3B10041  35.335  10.242   7.950
 4937POPC   C4B10042  35.301  10.275   7.650
 4938POPC   NC310043  35.332   6.679   9.450
 4938POPC   PO410044  35.389   6.649   9.150
 4938POPC   GL110045  35.335   6.604   8.850
 4938POPC   GL210046  35.182   6.668   8.850
 4938POPC   C1A10047  35.336   6.674   8.550
 4938POPC   D2A10048  35.358   6.641   8.250
 4938POPC   C3A10049  35.389   6.673   7.950
 4938POPC   C4A10050  35.356   6.646   7.650
 4938POPC   C1B10051  35.139   6.729   8.550
 4938POPC   C2B10052  35.073   6.642   8.250
 4938POPC   C3B10053  35.098   6.719   7.950
 4938POPC   C4B10054  35.085   6.681   7.650
 4939POPC   NC310055   7.433  35.391   9.450
 4939POPC   PO410056   7.460  35.324   9.150
 4939POPC   GL110057   7.385  35.320   8.850
 4939POPC   GL210058   7.528  35.401   8.850
 4939POPC   C1A10059   7.450  35.390   8.550
 4939POPC   D2A10060   7.390  35.312   8.250
 4939POPC   C3A10061   7.468  35.320   7.950
 4939POPC   C4A10062   7.387  35.393   7.650
 4939POPC   C1B10063   7.560  35.569   8.550
 4939POPC   C2B10064   7.554  35.568   8.250
 4939POPC   C3B10065   7.605  35.518   7.950
 4939POPC   C4B10066   7.617  35.495   7.650
 4940POPC   NC310067  43.883  21.340   9.450
 4940POPC   PO410068  43.847  21.364   9.150
 4940POPC   GL110069  43.918  21.423   8.850
 4940POPC   GL210070  43.881  21.481   8.850
 4940POPC   C1A10071  43.873  21.339   8.550
 4940POPC   D2A10072  43.863  21.435   8.250
 4940POPC   C3A10073  43.909  21.414   7.950
 4940POPC   C4A10074  43.878  21.375   7.650
 4940POPC   C1B10075  43.875  21.643   8.550
 4940POPC   C2B10076  43.851  21.681   8.250
 4940POPC   C3B10077  43.856  21.686   7.950
 4940POPC   C4B10078  43.892  21.589   7.650
 4941POPC   NC310079   8.148  42.376   9.450
 4941POPC   PO410080   8.166  42.367   9.150
 4941POPC   GL110081   8.151  42.382   8.850
 4941POPC   GL210082   8.217  42.439   8.850
 4941POPC   C1A10083   8.210  42.367   8.550
 4941POPC   D2A10084   8.172  42.292   8.250
 4941POPC   C3A10085   8.239  42.372   7.950
 4941POPC   C4A10086   8.226  42.356   7.650
 4941POPC   C1B10087   8.259  42.599   8.550
 4941POPC   C2B10088   8.258  42.561   8.250
 4941POPC   C3B10089   8.243  42.550   7.950
 4941POPC   C4B10090   8.178  42.632   7.650
 4942POPC   NC310091  33.789  20.591   9.450
 4942POPC   PO410092  33.783  20.615   9.150
 4942POPC   GL110093  33.837  20.607   8.850
 4942POPC   GL210094  33.758  20.751   8.850
 4942POPC   C1A10095  33.801  20.561   8.550
 4942POPC   D2A10096  33.831  20.615   8.250
 4942POPC   C3A10097  33.783  20.651   7.950
 4942POPC   C4A10098  33.765  20.597   7.650
 4942POPC   C1B10099  33.682  20.875   8.550
 4942POPC   C2B10100  33.722  20.842   8.250
 4942POPC   C3B10101  33.673  20.883   7.950
 4942POPC   C4B10102  33.705  20.865   7.650
 4943POPC   NC310103  31.464  38.503   9.450
 4943POPC   PO410104  31.476  38.475   9.150
 4943POPC   GL110105  31.517  38.418   8.850
 4943POPC   GL210106  31.413  38.355   8.850
 4943POPC   C1A10107  31.432  38.429   8.550
 4943POPC   D2A10108  31.480  38.474   8.250
 4943POPC   C3A10109  31.471  38.504   7.950
 4943POPC   C4A10110  31.432  38.422   7.650
 4943POPC   C1B10111  31.416  38.185   8.550
 4943POPC   C2B10112  31.406  38.195   8.250
 4943POPC   C3B10113  31.442  38.203   7.950
 4943POPC   C4B10114  31.390  38.203   7.650
 4944POPC   NC310115  26.012  36.882   9.450
 4944POPC   PO410116  26.055  36.870   9.150
 4944POPC   GL110117  26.056  36.899   8.850
 4944POPC   GL210118  26.102  36.829   8.850
 4944POPC   C1A10119  26.079  36.904   8.550
 4944POPC   D2A10120  26.069  36.878   8.250
 4944POPC   C3A10121  26.073  36.858   7.950
 4944POPC   C4A10122  26.074  36.865   7.650
 4944POPC   C1B10123  26.115  36.651   8.550
 4944POPC   C2B10124  26.131  36.687   8.250
 4944POPC   C3B10125  26.155  36.687   7.950
 4944POPC   C4B10126  26.160  36.680   7.650
 4945POPC   NC310127  14.413  40.742   9.450
 4945POPC   PO410128  14.361  40.823   9.150
 4945POPC   GL110129  14.437  40.737   8.850
 4945POPC   GL210130  14.451  40.869   8.850
 4945POPC   C1A10131  14.357  40.802   8.550
 4945POPC   D2A10132  14.434  40.779   8.250
 4945POPC   C3A10133  14.397  40.751   7.950
 4945POPC   C4A10134  14.377  40.781   7.650
 4945POPC   C1B10135  14.516  40.977   8.550
 4945POPC   C2B10136  14.545  40.985   8.250
 4945POPC   C3B10137  14.573  41.023   7.950
 4945POPC   C4B10138  14.559  40.992   7.650
 4946POPC   NC310139  22.981  26.090   9.450
 4946POPC   PO410140  22.919  26.078   9.150
 4946POPC   GL110141  22.939  26.044   8.850
 4946POPC   GL210142  22.791  26.100   8.850
 4946POPC   C1A10143  22.968  26.051   8.550
 4946POPC   D2A10144  22.969  26.042   8.250
 4946POPC   C3A10145  22.945  26.073   7.950
 4946POPC   C4A10146  22.889  26.023   7.650
 4946POPC   C1B10147  22.752  26.202   8.550
 4946POPC   C2B10148  22.735  26.108   8.250
 4946POPC   C3B10149  22.707  26.182   7.950
 4946POPC   C4B10150  22.743  26.122   7.650
 4947POPC   NC310151  26.796  44.673   9.450
 4947POPC   PO410152  26.824  44.683   9.150
 4947POPC   GL110153  26.793  44.710   8.850
 4947POPC   GL210154  26.759  44.545   8.850
 4947POPC   C1A10155  26.796  44.681   8.550
 4947POPC   D2A10156  26.823  44.614   8.250
 4947POPC   C3A10157  26.848  44.645   7.950
 4947POPC   C4A10158  26.819  44.659   7.650
 4947POPC   C1B10159  26.702  44.433   8.550
 4947POPC   C2B10160  26.684  44.416   8.250
 4947POPC   C3B10161  26.618  44.459   7.950
 4947POPC   C4B10162  26.693  44.498   7.650
 4948POPC   NC310163  14.420  36.165   9.450
 4948POPC   PO410164  14.447  36.147   9.150
 4948POPC   GL110165  14.412  36.136   8.850
 4948POPC   GL210166  14.444  36.249   8.850
 4948POPC   C1A10167  14.386  36.087   8.550
 4948POPC   D2A10168  14.432  36.110   8.250
 4948POPC   C3A10169  14.405  36.160   7.950
 4948POPC   C4A10170  14.446  36.140   7.650
 4948POPC   C1B10171  14.518  36.364   8.550
 4948POPC   C2B10172  14.555  36.343   8.250
 4948POPC   C3B10173  14.587  36.335   7.950
 4948POPC   C4B10174  14.545  36.299   7.650
 4949POPC   NC310175   3.583  43.885   9.450
 4949POPC   PO410176   3.553  43.862   9.150
 4949POPC   GL110177   3.584  43.844   8.850
 4949POPC   GL210178   3.605  43.767   8.850
 4949POPC   C1A10179   3.558  43.868   8.550
 4949POPC   D2A10180   3.510  43.861   8.250
 4949POPC   C3A10181   3.550  43.912   7.950
 4949POPC   C4A10182   3.578  43.888   7.650
 4949POPC   C1B10183   3.606  43.663   8.550
 4949POPC   C2B10184   3.555  43.633   8.250
 4949POPC   C3B10185   3.612  43.596   7.950
 4949POPC   C4B10186   3.644  43.661   7.650
 4950POPC   NC310187  42.296  11.297   9.450
 4950POPC   PO410188  42.331  11.261   9.150
 4950POPC   GL110189  42.288  11.300   8.850
 4950POPC   GL210190  42.428  11.395   8.850
 4950POPC   C1A10191  42.373  11.301   8.550
 4950POPC   D2A10192  42.349  11.340   8.250
 4950POPC   C3A10193  42.381  11.334   7.950
 4950POPC   C4A10194  42.339  11.295   7.650
 4950POPC   C1B10195  42.435  11.519   8.550
 4950POPC   C2B10196  42.428  11.483   8.250
 4950POPC   C3B10197  42.482  11.503   7.950
 4950POPC   C4B10198  42.470  11.545   7.650
 4951POPC   NC310199  35.386  30.684   9.450
 4951POPC   PO410200  35.394  30.738   9.150
 4951POPC   GL110201  35.345  30.672   8.850
 4951POPC   GL210202  35.399  30.814   8.850
 4951POPC   C1A10203  35.393  30.736   8.550
 4951POPC   D2A10204  35.323  30.675   8.250
 4951POPC   C3A10205  35.324  30.672   7.950
 4951POPC   C4A10206  35.373  30.710   7.650
 4951POPC   C1B10207  35.583  30.879   8.550
 4951POPC   C2B10208  35.562  30.838   8.250
 4951POPC   C3B10209  35.587  30.907   7.950
 4951POPC   C4B10210  35.534  30.846   7.650
 4952POPC   NC310211  39.198  12.829   9.450
 4952POPC   PO410212  39.224  12.842   9.150
 4952POPC   GL110213  39.266  12.891   8.850
 4952POPC   GL210214  39.162  12.702   8.850
 4952POPC   C1A10215  39.257  12.806   8.550
 4952POPC   D2A10216  39.245  12.881   8.250
 4952POPC   C3A10217  39.240  12.812   7.950
 4952POPC   C4A10218  39.224  12.879   7.650
 4952POPC   C1B10219  39.126  12.601   8.550
 4952POPC   C2B10220  39.180  12.622   8.250
 4952POPC   C3B10221  39.154  12.601   7.950
 4952POPC   C4B10222  39.130  12.661   7.650
 4953POPC   NC310223  36.946   9.698   9.450
 4953POPC   PO410224  36.894   9.700   9.150
 4953POPC   GL110225  36.913   9.780   8.850
 4953POPC   GL210226  36.838   9.661   8.850
 4953POPC   C1A10227  36.903   9.717   8.550
 4953POPC   D2A10228  36.910   9.741   8.250
 4953POPC   C3A10229  36.898   9.704   7.950
 4953POPC   C4A10230  36.886   9.749   7.650
 4953POPC   C1B10231  36.777   9.588   8.550
 4953POPC   C2B10232  36.766   9.593   8.250
 4953POPC   C3B10233  36.741   9.582   7.950
 4953POPC   C4B10234  36.775   9.613   7.650
 4954POPC   NC310235  27.624  36.937   9.450
 4954POPC   PO410236  27.546  36.944   9.150
 4954POPC   GL110237  27.545  36.880   8.850
 4954POPC   GL210238  27.667  36.787   8.850
 4954POPC   C1A10239  27.609  36.891   8.550
 4954POPC   D2A10240  27.627  36.937   8.250
 4954POPC   C3A10241  27.609  36.912   7.950
 4954POPC   C4A10242  27.608  36.870   7.650
 4954POPC   C1B10243  27.741  36.741   8.550
 4954POPC   C2B10244  27.729  36.770   8.250
 4954POPC   C3B10245  27.809  36.705   7.950
 4954POPC   C4B10246  27.758  36.747   7.650
 4955POPC   NC310247   6.674  16.695   9.450
 4955POPC   PO410248   6.638  16.754   9.150
 4955POPC   GL110249   6.608  16.696   8.850
 4955POPC   GL210250   6.531  16.804   8.850
 4955POPC   C1A10251   6.622  16.768   8.550
 4955POPC   D2A10252   6.646  16.741   8.250
 4955POPC   C3A10253   6.673  16.769   7.950
 4955POPC   C4A10254   6.626  16.700   7.650
 4955POPC   C1B10255   6.420  16.855   8.550
 4955POPC   C2B10256   6.425  16.862   8.250
 4955POPC   C3B10257   6.452  16.922   7.950
 4955POPC   C4B10258   6.446  16.912   7.650
 4956POPC   NC310259  44.629   2.755   9.450
 4956POPC   PO410260  44.617   2.752   9.150
 4956POPC   GL110261  44.645   2.753   8.850
 4956POPC   GL210262  44.721   2.699   8.850
 4956POPC   C1A10263  44.670   2.733   8.550
 4956POPC   D2A10264  44.712   2.815   8.250
 4956POPC   C3A10265  44.645   2.806   7.950
 4956POPC   C4A10266  44.694   2.746   7.650
 4956POPC   C1B10267  44.852   2.568   8.550
 4956POPC   C2B10268  44.861   2.632   8.250
 4956POPC   C3B10269  44.882   2.637   7.950
 4956POPC   C4B10270  44.836   2.562   7.650
 4957POPC   NC310271  24.489  39.239   9.450
 4957POPC   PO410272  24.528  39.200   9.150
 4957POPC   GL110273  24.465  39.253   8.850
 4957POPC   GL210274  24.514  39.304   8.850
 4957POPC   C1A10275  24.520  39.223   8.550
 4957POPC   D2A10276  24.474  39.216   8.250
 4957POPC   C3A10277  24.535  39.233   7.950
 4957POPC   C4A10278  24.487  39.232   7.650
 4957POPC   C1B10279  24.567  39.422   8.550
 4957POPC   C2B10280  24.603  39.425   8.250
 4957POPC   C3B10281  24.549  39.479   7.950
 4957POPC   C4B10282  24.565  39.475   7.650
 4958POPC   NC310283  23.679  12.871   9.450
 4958POPC   PO410284  23.712  12.819   9.150
 4958POPC   GL110285  23.697  12.844   8.850
 4958POPC   GL210286  23.718  12.982   8.850
 4958POPC   C1A10287  23.740  12.823   8.550
 4958POPC   D2A10288  23.679  12.860   8.250
 4958POPC   C3A10289  23.757  12.870   7.950
 4958POPC   C4A10290  23.722  12.812   7.650
 4958POPC   C1B10291  23.671  13.079   8.550
 4958POPC   C2B10292  23.678  13.087   8.250
 4958POPC   C3B10293  23.742  13.057   7.950
 4958POPC   C4B10294  23.712  13.094   7.650
 4959POPC   NC310295  18.302  12.051   9.450
 4959POPC   PO410296  18.274  12.062   9.150
 4959POPC   GL110297  18.246  12.122   8.850
 4959POPC   GL210298  18.301  11.933   8.850
 4959POPC   C1A10299  18.272  12.118   8.550
 4959POPC   D2A10300  18.242  12.074   8.250
 4959POPC   C3A10301  18.290  12.103   7.950
 4959POPC   C4A10302  18.285  12.031   7.650
 4959POPC   C1B10303  18.390  11.787   8.550
 4959POPC   C2B10304  18.350  11.879   8.250
 4959POPC   C3B10305  18.313  11.878   7.950
 4959POPC   C4B10306  18.338  11.814   7.650
 4960POPC   NC310307   7.440  23.733   9.450
 4960POPC   PO410308   7.390  23.691   9.150
 4960POPC   GL110309   7.395  23.681   8.850
 4960POPC   GL210310   7.503  23.779   8.850
 4960POPC   C1A10311   7.450  23.757   8.550
 4960POPC   D2A10312   7.418  23.757   8.250
 4960POPC   C3A10313   7.389  23.738   7.950
 4960POPC   C4A10314   7.381  23.664   7.650
 4960POPC   C1B10315   7.590  23.838   8.550
 4960POPC   C2B10316   7.566  23.853   8.250
 4960POPC   C3B10317   7.594  23.883   7.950
 4960POPC   C4B10318   7.617  23.889   7.650
 4961POPC   NC310319  24.456  22.958   9.450
 4961POPC   PO410320  24.511  22.976   9.150
 4961POPC   GL110321  24.501  22.926   8.850
 4961POPC   GL210322  24.366  22.859   8.850
 4961POPC   C1A10323  24.508  22.925   8.550
 4961POPC   D2A10324  24.486  22.979   8.250
 4961POPC   C3A10325  24.511  22.960   7.950
 4961POPC   C4A10326  24.449  22.973   7.650
 4961POPC   C1B10327  24.277  22.747   8.550
 4961POPC   C2B10328  24.253  22.757   8.250
 4961POPC   C3B10329  24.320  22.779   7.950
 4961POPC   C4B10330  24.299  22.789   7.650
 4962POPC   NC310331  36.909  27.627   9.450
 4962POPC   PO410332  36.873  27.595   9.150
 4962POPC   GL110333  36.891  27.626   8.850
 4962POPC   GL210334  36.834  27.672   8.850
 4962POPC   C1A10335  36.950  27.548   8.550
 4962POPC   D2A10336  36.891  27.639   8.250
 4962POPC   C3A10337  36.902  27.596   7.950
 4962POPC   C4A10338  36.868  27.592   7.650
 4962POPC   C1B10339  36.657  27.766   8.550
 4962POPC   C2B10340  36.704  27.718   8.250
 4962POPC   C3B10341  36.710  27.719   7.950
 4962POPC   C4B10342  36.664  27.726   7.650
 4963POPC   NC310343   0.391  25.301   9.450
 4963POPC   PO410344   0.461  25.290   9.150
 4963POPC   GL110345   0.460  25.298   8.850
 4963POPC   GL210346   0.396  25.118   8.850
 4963POPC   C1A10347   0.431  25.226   8.550
 4963POPC   D2A10348   0.427  25.225   8.250
 4963POPC   C3A10349   0.442  25.298   7.950
 4963POPC   C4A10350   0.475  25.229   7.650
 4963POPC   C1B10351   0.446  25.058   8.550
 4963POPC   C2B10352   0.453  24.968   8.250
 4963POPC   C3B10353   0.456  25.038   7.950
 4963POPC   C4B10354   0.452  24.974   7.650
 4964POPC   NC310355  13.677   6.695   9.450
 4964POPC   PO410356  13.627   6.672   9.150
 4964POPC   GL110357  13.601   6.666   8.850
 4964POPC   GL210358  13.537   6.693   8.850
 4964POPC   C1A10359  13.602   6.657   8.550
 4964POPC   D2A10360  13.592   6.695   8.250
 4964POPC   C3A10361  13.608   6.647   7.950
 4964POPC   C4A10362  13.648   6.681   7.650
 4964POPC   C1B10363  13.487   6.789   8.550
 4964POPC   C2B10364  13.490   6.847   8.250
 4964POPC   C3B10365  13.403   6.848   7.950
 4964POPC   C4B10366  13.468   6.819   7.650
 4965POPC   NC310367  31.487  32.241   9.450
 4965POPC   PO410368  31.475  32.288   9.150
 4965POPC   GL110369  31.495  32.268   8.850
 4965POPC   GL210370  31.468  32.116   8.850
 4965POPC   C1A10371  31.447  32.234   8.550
 4965POPC   D2A10372  31.451  32.211   8.250
 4965POPC   C3A10373  31.452  32.233   7.950
 4965POPC   C4A10374  31.471  32.292   7.650
 4965POPC   C1B10375  31.519  32.031   8.550
 4965POPC   C2B10376  31.475  32.040   8.250
 4965POPC   C3B10377  31.448  31.968   7.950
 4965POPC   C4B10378  31.474  31.982   7.650
 4966POPC   NC310379  43.141  43.848   9.450
 4966POPC   PO410380  43.069  43.925   9.150
 4966POPC   GL110381  43.145  43.875   8.850
 4966POPC   GL210382  43.030  43.962   8.850
 4966POPC   C1A10383  43.138  43.872   8.550
 4966POPC   D2A10384  43.138  43.930   8.250
 4966POPC   C3A10385  43.129  43.882   7.950
 4966POPC   C4A10386  43.142  43.905   7.650
 4966POPC   C1B10387  42.882  44.030   8.550
 4966POPC   C2B10388  42.878  44.022   8.250
 4966POPC   C3B10389  42.871  43.951   7.950
 4966POPC   C4B10390  42.877  44.035   7.650
 4967POPC   NC310391   5.913  26.847   9.450
 4967POPC   PO410392   5.918  26.792   9.150
 4967POPC   GL110393   5.841  26.809   8.850
 4967POPC   GL210394   5.960  26.954   8.850
 4967POPC   C1A10395   5.913  26.768   8.550
 4967POPC   D2A10396   5.891  26.829   8.250
 4967POPC   C3A10397   5.852  26.775   7.950
 4967POPC   C4A10398   5.910  26.851   7.650
 4967POPC   C1B10399   5.982  27.034   8.550
 4967POPC   C2B10400   5.983  27.075   8.250
 4967POPC   C3B10401   5.914  27.075   7.950
 4967POPC   C4B10402   5.910  27.019   7.650
 4968POPC   NC310403  22.938  25.302   9.450
 4968POPC   PO410404  22.930  25.315   9.150
 4968POPC   GL110405  22.971  25.247   8.850
 4968POPC   GL210406  23.023  25.323   8.850
 4968POPC   C1A10407  22.939  25.227   8.550
 4968POPC   D2A10408  22.974  25.256   8.250
 4968POPC   C3A10409  22.977  25.256   7.950
 4968POPC   C4A10410  22.982  25.266   7.650
 4968POPC   C1B10411  23.116  25.348   8.550
 4968POPC   C2B10412  23.134  25.394   8.250
 4968POPC   C3B10413  23.125  25.446   7.950
 4968POPC   C4B10414  23.168  25.354   7.650
 4969POPC   NC310415  19.817  12.858   9.450
 4969POPC   PO410416  19.831  12.827   9.150
 4969POPC   GL110417  19.841  12.865   8.850
 4969POPC   GL210418  19.978  12.800   8.850
 4969POPC   C1A10419  19.874  12.865   8.550
 4969POPC   D2A10420  19.849  12.821   8.250
 4969POPC   C3A10421  19.798  12.880   7.950
 4969POPC   C4A10422  19.799  12.891   7.650
 4969POPC   C1B10423  20.011  12.703   8.550
 4969POPC   C2B10424  20.075  12.728   8.250
 4969POPC   C3B10425  20.053  12.679   7.950
 4969POPC   C4B10426  20.005  12.722   7.650
 4970POPC   NC310427   5.826  42.357   9.450
 4970POPC   PO410428   5.841  42.328   9.150
 4970POPC   GL110429   5.839  42.353   8.850
 4970POPC   GL210430   5.894  42.439   8.850
 4970POPC   C1A10431   5.905  42.350   8.550
 4970POPC   D2A10432   5.853  42.317   8.250
 4970POPC   C3A10433   5.873  42.290   7.950
 4970POPC   C4A10434   5.906  42.318   7.650
 4970POPC   C1B10435   6.038  42.520   8.550
 4970POPC   C2B10436   5.997  42.558   8.250
 4970POPC   C3B10437   5.996  42.494   7.950
 4970POPC   C4B10438   5.965  42.564   7.650
 4971POPC   NC310439  28.343  26.777   9.450
 4971POPC   PO410440  28.400  26.838   9.150
 4971POPC   GL110441  28.364  26.816   8.850
 4971POPC   GL210442  28.427  26.737   8.850
 4971POPC   C1A10443  28.388  26.804   8.550
 4971POPC   D2A10444  28.346  26.770   8.250
 4971POPC   C3A10445  28.415  26.795   7.950
 4971POPC   C4A10446  28.393  26.824   7.650
 4971POPC   C1B10447  28.512  26.604   8.550
 4971POPC   C2B10448  28.578  26.661   8.250
 4971POPC   C3B10449  28.572  26.639   7.950
 4971POPC   C4B10450  28.512  26.665   7.650
 4972POPC   NC310451  20.657  12.869   9.450
 4972POPC   PO410452  20.609  12.848   9.150
 4972POPC   GL110453  20.567  12.892   8.850
 4972POPC   GL210454  20.651  12.738   8.850
 4972POPC   C1A10455  20.614  12.889   8.550
 4972POPC   D2A10456  20.626  12.872   8.250
 4972POPC   C3A10457  20.573  12.828   7.950
 4972POPC   C4A10458  20.606  12.803   7.650
 4972POPC   C1B10459  20.747  12.671   8.550
 4972POPC   C2B10460  20.721  12.593   8.250
 4972POPC   C3B10461  20.741  12.649   7.950
 4972POPC   C4B10462  20.781  12.653   7.650
 4973POPC   NC310463  22.967  29.946   9.450
 4973POPC   PO410464  22.938  29.895   9.150
 4973POPC   GL110465  22.947  29.920   8.850
 4973POPC   GL210466  22.860  29.980   8.850
 4973POPC   C1A10467  22.910  29.939   8.550
 4973POPC   D2A10468  22.945  29.878   8.250
 4973POPC   C3A10469  22.979  29.946   7.950
 4973POPC   C4A10470  22.908  29.879   7.650
 4973POPC   C1B10471  22.719  30.114   8.550
 4973POPC   C2B10472  22.731  30.092   8.250
 4973POPC   C3B10473  22.734  30.059   7.950
 4973POPC   C4B10474  22.699  30.053   7.650
 4974POPC   NC310475   4.272   9.007   9.450
 4974POPC   PO410476   4.299   8.971   9.150
 4974POPC   GL110477   4.312   8.957   8.850
 4974POPC   GL210478   4.438   8.985   8.850
 4974POPC   C1A10479   4.321   8.923   8.550
 4974POPC   D2A10480   4.332   9.002   8.250
 4974POPC   C3A10481   4.309   8.969   7.950
 4974POPC   C4A10482   4.315   9.000   7.650
 4974POPC   C1B10483   4.529   8.999   8.550
 4974POPC   C2B10484   4.561   9.067   8.250
 4974POPC   C3B10485   4.542   9.010   7.950
 4974POPC   C4B10486   4.540   9.070   7.650
 4975POPC   NC310487  10.484  33.780   9.450
 4975POPC   PO410488  10.481  33.843   9.150
 4975POPC   GL110489  10.509  33.804   8.850
 4975POPC   GL210490  10.447  33.754   8.850
 4975POPC   C1A10491  10.532  33.831   8.550
 4975POPC   D2A10492  10.535  33.758   8.250
 4975POPC   C3A10493  10.524  33.846   7.950
 4975POPC   C4A10494  10.512  33.799   7.650
 4975POPC   C1B10495  10.259  33.748   8.550
 4975POPC   C2B10496  10.316  33.808   8.250
 4975POPC   C3B10497  10.248  33.795   7.950
 4975POPC   C4B10498  10.227  33.783   7.650
 4976POPC   NC310499  29.946   2.733   9.450
 4976POPC   PO410500  29.930   2.802   9.150
 4976POPC   GL110501  29.908   2.792   8.850
 4976POPC   GL210502  30.076   2.735   8.850
 4976POPC   C1A10503  29.901   2.788   8.550
 4976POPC   D2A10504  29.939   2.749   8.250
 4976POPC   C3A10505  29.945   2.793   7.950
 4976POPC   C4A10506  29.876   2.717   7.650
 4976POPC   C1B10507  30.178   2.780   8.550
 4976POPC   C2B10508  30.160   2.763   8.250
 4976POPC   C3B10509  30.146   2.789   7.950
 4976POPC   C4B10510  30.143   2.743   7.650
 4977POPC   NC310511  40.829  39.250   9.450
 4977POPC   PO410512  40.828  39.212   9.150
 4977POPC   GL110513  40.753  39.214   8.850
 4977POPC   GL210514  40.652  39.324   8.850
 4977POPC   C1A10515  40.816  39.197   8.550
 4977POPC   D2A10516  40.814  39.239   8.250
 4977POPC   C3A10517  40.821  39.279   7.950
 4977POPC   C4A10518  40.757  39.253   7.650
 4977POPC   C1B10519  40.505  39.358   8.550
 4977POPC   C2B10520  40.552  39.329   8.250
 4977POPC   C3B10521  40.511  39.351   7.950
 4977POPC   C4B10522  40.544  39.297   7.650
 4978POPC   NC310523  24.453  11.307   9.450
 4978POPC   PO410524  24.487  11.319   9.150
 4978POPC   GL110525  24.482  11.333   8.850
 4978POPC   GL210526  24.432  11.431   8.850
 4978POPC   C1A10527  24.502  11.320   8.550
 4978POPC   D2A10528  24.451  11.313   8.250
 4978POPC   C3A10529  24.444  11.348   7.950
 4978POPC   C4A10530  24.481  11.274   7.650
 4978POPC   C1B10531  24.437  11.531   8.550
 4978POPC   C2B10532  24.448  11.523   8.250
 4978POPC   C3B10533  24.395  11.497   7.950
 4978POPC   C4B10534  24.441  11.572   7.650
 4979POPC   NC310535   5.871  12.892   9.450
 4979POPC   PO410536   5.914  12.831   9.150
 4979POPC   GL110537   5.870  12.825   8.850
 4979POPC   GL210538   5.912  12.810   8.850
 4979POPC   C1A10539   5.836  12.854   8.550
 4979POPC   D2A10540   5.848  12.835   8.250
 4979POPC   C3A10541   5.866  12.874   7.950
 4979POPC   C4A10542   5.824  12.867   7.650
 4979POPC   C1B10543   6.096  12.731   8.550
 4979POPC   C2B10544   6.060  12.674   8.250
 4979POPC   C3B10545   6.009  12.703   7.950
 4979POPC   C4B10546   6.034  12.644   7.650
 4980POPC   NC310547   4.333  41.522   9.450
 4980POPC   PO410548   4.326  41.546   9.150
 4980POPC   GL110549   4.356  41.586   8.850
 4980POPC   GL210550   4.299  41.480   8.850
 4980POPC   C1A10551   4.352  41.519   8.550
 4980POPC   D2A10552   4.269  41.567   8.250
 4980POPC   C3A10553   4.350  41.529   7.950
 4980POPC   C4A10554   4.323  41.518   7.650
 4980POPC   C1B10555   4.250  41.307   8.550
 4980POPC   C2B10556   4.204  41.377   8.250
 4980POPC   C3B10557   4.246  41.376   7.950
 4980POPC   C4B10558   4.242  41.308   7.650
 4981POPC   NC310559  25.224  12.828   9.450
 4981POPC   PO410560  25.239  12.889   9.150
 4981POPC   GL110561  25.246  12.852   8.850
 4981POPC   GL210562  25.396  12.917   8.850
 4981POPC   C1A10563  25.241  12.889   8.550
 4981POPC   D2A10564  25.297  12.846   8.250
 4981POPC   C3A10565  25.261  12.889   7.950
 4981POPC   C4A10566  25.230  12.814   7.650
 4981POPC   C1B10567  25.507  12.929   8.550
 4981POPC   C2B10568  25.524  12.914   8.250
 4981POPC   C3B10569  25.545  12.963   7.950
 4981POPC   C4B10570  25.531  12.931   7.650
 4982POPC   NC310571  22.981  12.827   9.450
 4982POPC   PO410572  22.963  12.849   9.150
 4982POPC   GL110573  22.977  12.809   8.850
 4982POPC   GL210574  23.007  12.718   8.850
 4982POPC   C1A10575  22.938  12.811   8.550
 4982POPC   D2A10576  22.958  12.876   8.250
 4982POPC   C3A10577  22.896  12.892   7.950
 4982POPC   C4A10578  22.981  12.897   7.650
 4982POPC   C1B10579  23.056  12.648   8.550
 4982POPC   C2B10580  23.033  12.628   8.250
 4982POPC   C3B10581  23.089  12.661   7.950
 4982POPC   C4B10582  23.005  12.639   7.650
 4983POPC   NC310583  13.597  16.740   9.450
 4983POPC   PO410584  13.636  16.756   9.150
 4983POPC   GL110585  13.593  16.769   8.850
 4983POPC   GL210586  13.570  16.576   8.850
 4983POPC   C1A10587  13.656  16.756   8.550
 4983POPC   D2A10588  13.675  16.765   8.250
 4983POPC   C3A10589  13.588  16.735   7.950
 4983POPC   C4A10590  13.661  16.762   7.650
 4983POPC   C1B10591  13.602  16.483   8.550
 4983POPC   C2B10592  13.630  16.479   8.250
 4983POPC   C3B10593  13.592  16.486   7.950
 4983POPC   C4B10594  13.649  16.493   7.650
 4984POPC   NC310595  26.079  16.780   9.450
 4984POPC   PO410596  26.043  16.745   9.150
 4984POPC   GL110597  26.048  16.682   8.850
 4984POPC   GL210598  25.964  16.692   8.850
 4984POPC   C1A10599  26.057  16.720   8.550
 4984POPC   D2A10600  26.013  16.683   8.250
 4984POPC   C3A10601  25.993  16.727   7.950
 4984POPC   C4A10602  26.078  16.721   7.650
 4984POPC   C1B10603  25.856  16.604   8.550
 4984POPC   C2B10604  25.844  16.600   8.250
 4984POPC   C3B10605  25.848  16.623   7.950
 4984POPC   C4B10606  25.795  16.598   7.650
 4985POPC   NC310607   0.458   8.923   9.450
 4985POPC   PO410608   0.420   9.016   9.150
 4985POPC   GL110609   0.395   9.010   8.850
 4985POPC   GL210610   0.388   9.137   8.850
 4985POPC   C1A10611   0.396   9.009   8.550
 4985POPC   D2A10612   0.432   8.984   8.250
 4985POPC   C3A10613   0.486   8.984   7.950
 4985POPC   C4A10614   0.414   8.928   7.650
 4985POPC   C1B10615   0.375   9.171   8.550
 4985POPC   C2B10616   0.370   9.195   8.250
 4985POPC   C3B10617   0.385   9.184   7.950
 4985POPC   C4B10618   0.324   9.176   7.650
 4986POPC   NC310619   6.671  25.997   9.450
 4986POPC   PO410620   6.660  26.023   9.150
 4986POPC   GL110621   6.643  26.020   8.850
 4986POPC   GL210622   6.617  26.206   8.850
 4986POPC   C1A10623   6.613  26.004   8.550
 4986POPC   D2A10624   6.674  26.048   8.250
 4986POPC   C3A10625   6.606  26.054   7.950
 4986POPC   C4A10626   6.658  26.074   7.650
 4986POPC   C1B10627   6.501  26.317   8.550
 4986POPC   C2B10628   6.520  26.293   8.250
 4986POPC   C3B10629   6.536  26.299   7.950
 4986POPC   C4B10630   6.598  26.306   7.650
 4987POPC   NC310631   7.405  28.402   9.450
 4987POPC   PO410632   7.386  28.350   9.150
 4987POPC   GL110633   7.455  28.362   8.850
 4987POPC   GL210634   7.443  28.497   8.850
 4987POPC   C1A10635   7.465  28.410   8.550
 4987POPC   D2A10636   7.430  28.357   8.250
 4987POPC   C3A10637   7.429  28.405   7.950
 4987POPC   C4A10638   7.440  28.396   7.650
 4987POPC   C1B10639   7.528  28.574   8.550
 4987POPC   C2B10640   7.562  28.572   8.250
 4987POPC   C3B10641   7.565  28.604   7.950
 4987POPC   C4B10642   7.502  28.589   7.650
 4988POPC   NC310643  17.460  43.861   9.450
 4988POPC   PO410644  17.549  43.902   9.150
 4988POPC   GL110645  17.461  43.866   8.850
 4988POPC   GL210646  17.544  44.003   8.850
 4988POPC   C1A10647  17.506  43.843   8.550
 4988POPC   D2A10648  17.478  43.895   8.250
 4988POPC   C3A10649  17.481  43.885   7.950
 4988POPC   C4A10650  17.544  43.877   7.650
 4988POPC   C1B10651  17.548  44.182   8.550
 4988POPC   C2B10652  17.515  44.163   8.250
 4988POPC   C3B10653  17.567  44.091   7.950
 4988POPC   C4B10654  17.516  44.177   7.650
 4989POPC   NC310655  40.752  31.480   9.450
 4989POPC   PO410656  40.814  31.491   9.150
 4989POPC   GL110657  40.794  31.501   8.850
 4989POPC   GL210658  40.930  31.360   8.850
 4989POPC   C1A10659  40.789  31.480   8.550
 4989POPC   D2A10660  40.824  31.521   8.250
 4989POPC   C3A10661  40.750  31.436   7.950
 4989POPC   C4A10662  40.793  31.477   7.650
 4989POPC   C1B10663  40.960  31.348   8.550
 4989POPC   C2B10664  40.958  31.346   8.250
 4989POPC   C3B10665  41.023  31.316   7.950
 4989POPC   C4B10666  40.966  31.319   7.650
 4990POPC   NC310667  24.444  26.859   9.450
 4990POPC   PO410668  24.495  26.863   9.150
 4990POPC   GL110669  24.536  26.832   8.850
 4990POPC   GL210670  24.629  26.817   8.850
 4990POPC   C1A10671  24.463  26.838   8.550
 4990POPC   D2A10672  24.456  26.833   8.250
 4990POPC   C3A10673  24.537  26.858   7.950
 4990POPC   C4A10674  24.455  26.842   7.650
 4990POPC   C1B10675  24.689  26.743   8.550
 4990POPC   C2B10676  24.690  26.746   8.250
 4990POPC   C3B10677  24.768  26.762   7.950
 4990POPC   C4B10678  24.772  26.789   7.650
 4991POPC   NC310679  10.504  31.468   9.450
 4991POPC   PO410680  10.481  31.474   9.150
 4991POPC   GL110681  10.539  31.423   8.850
 4991POPC   GL210682  10.511  31.302   8.850
 4991POPC   C1A10683  10.511  31.423   8.550
 4991POPC   D2A10684  10.532  31.519   8.250
 4991POPC   C3A10685  10.485  31.450   7.950
 4991POPC   C4A10686  10.494  31.477   7.650
 4991POPC   C1B10687  10.590  31.209   8.550
 4991POPC   C2B10688  10.584  31.182   8.250
 4991POPC   C3B10689  10.561  31.229   7.950
 4991POPC   C4B10690  10.577  31.210   7.650
 4992POPC   NC310691  40.057  28.418   9.450
 4992POPC   PO410692  39.986  28.349   9.150
 4992POPC   GL110693  39.985  28.416   8.850
 4992POPC   GL210694  40.055  28.292   8.850
 4992POPC   C1A10695  40.017  28.370   8.550
 4992POPC   D2A10696  39.960  28.383   8.250
 4992POPC   C3A10697  40.000  28.401   7.950
 4992POPC   C4A10698  39.964  28.371   7.650
 4992POPC   C1B10699  40.137  28.184   8.550
 4992POPC   C2B10700  40.192  28.166   8.250
 4992POPC   C3B10701  40.176  28.152   7.950
 4992POPC   C4B10702  40.188  28.169   7.650
 4993POPC   NC310703  18.312   0.434   9.450
 4993POPC   PO410704  18.323   0.404   9.150
 4993POPC   GL110705  18.235   0.409   8.850
 4993POPC   GL210706  18.172   0.387   8.850
 4993POPC   C1A10707  18.327   0.482   8.550
 4993POPC   D2A10708  18.331   0.447   8.250
 4993POPC   C3A10709  18.251   0.392   7.950
 4993POPC   C4A10710  18.291   0.473   7.650
 4993POPC   C1B10711  18.091   0.230   8.550
 4993POPC   C2B10712  18.056   0.260   8.250
 4993POPC   C3B10713  18.117   0.269   7.950
 4993POPC   C4B10714  18.071   0.270   7.650
 4994POPC   NC310715  26.082  38.503   9.450
 4994POPC   PO410716  26.075  38.447   9.150
 4994POPC   GL110717  26.083  38.417   8.850
 4994POPC   GL210718  26.113  38.362   8.850
 4994POPC   C1A10719  25.998  38.488   8.550
 4994POPC   D2A10720  26.011  38.452   8.250
 4994POPC   C3A10721  26.040  38.477   7.950
 4994POPC   C4A10722  25.999  38.478   7.650
 4994POPC   C1B10723  26.251  38.299   8.550
 4994POPC   C2B10724  26.281  38.289   8.250
 4994POPC   C3B10725  26.238  38.325   7.950
 4994POPC   C4B10726  26.260  38.271   7.650
 4995POPC   NC310727  37.729  33.810   9.450
 4995POPC   PO410728  37.642  33.783   9.150
 4995POPC   GL110729  37.672  33.822   8.850
 4995POPC   GL210730  37.538  33.762   8.850
 4995POPC   C1A10731  37.657  33.765   8.550
 4995POPC   D2A10732  37.695  33.810   8.250
 4995POPC   C3A10733  37.724  33.768   7.950
 4995POPC   C4A10734  37.686  33.808   7.650
 4995POPC   C1B10735  37.476  33.675   8.550
 4995POPC   C2B10736  37.502  33.672   8.250
 4995POPC   C3B10737  37.473  33.649   7.950
 4995POPC   C4B10738  37.492  33.646   7.650
 4996POPC   NC310739  14.406  43.078   9.450
 4996POPC   PO410740  14.442  43.117   9.150
 4996POPC   GL110741  14.441  43.111   8.850
 4996POPC   GL210742  14.302  43.161   8.850
 4996POPC   C1A10743  14.440  43.074   8.550
 4996POPC   D2A10744  14.356  43.089   8.250
 4996POPC   C3A10745  14.447  43.134   7.950
 4996POPC   C4A10746  14.440  43.143   7.650
 4996POPC   C1B10747  14.189  43.162   8.550
 4996POPC   C2B10748  14.212  43.219   8.250
 4996POPC   C3B10749  14.203  43.240   7.950
 4996POPC   C4B10750  14.222  43.205   7.650
 4997POPC   NC310751  25.302  29.191   9.450
 4997POPC   PO410752  25.269  29.106   9.150
 4997POPC   GL110753  25.252  29.142   8.850
 4997POPC   GL210754  25.167  29.272   8.850
 4997POPC   C1A10755  25.267  29.165   8.550
 4997POPC   D2A10756  25.280  29.146   8.250
 4997POPC   C3A10757  25.310  29.108   7.950
 4997POPC   C4A10758  25.235  29.175   7.650
 4997POPC   C1B10759  25.177  29.339   8.550
 4997POPC   C2B10760  25.216  29.409   8.250
 4997POPC   C3B10761  25.213  29.385   7.950
 4997POPC   C4B10762  25.135  29.369   7.650
 4998POPC   NC310763  12.846   3.534   9.450
 4998POPC   PO410764  12.821   3.516   9.150
 4998POPC   GL110765  12.827   3.539   8.850
 4998POPC   GL210766  12.779   3.615   8.850
 4998POPC   C1A10767  12.816   3.548   8.550
 4998POPC   D2A10768  12.827   3.575   8.250
 4998POPC   C3A10769  12.886   3.516   7.950
 4998POPC   C4A10770  12.867   3.535   7.650
 4998POPC   C1B10771  12.611   3.663   8.550
 4998POPC   C2B10772  12.642   3.625   8.250
 4998POPC   C3B10773  12.632   3.592   7.950
 4998POPC   C4B10774  12.630   3.641   7.650
 4999POPC   NC310775  12.116  25.261   9.450
 4999POPC   PO410776  12.083  25.285   9.150
 4999POPC   GL110777  12.084  25.251   8.850
 4999POPC   GL210778  12.182  25.306   8.850
 4999POPC   C1A10779  12.067  25.265   8.550
 4999POPC   D2A10780  12.125  25.280   8.250
 4999POPC   C3A10781  12.115  25.246   7.950
 4999POPC   C4A10782  12.082  25.294   7.650
 4999POPC   C1B10783  12.277  25.465   8.550
 4999POPC   C2B10784  12.300  25.414   8.250
 4999POPC   C3B10785  12.302  25.432   7.950
 4999POPC   C4B10786  12.228  25.388   7.650
 5000POPC   NC310787  42.314  38.496   9.450
 5000POPC   PO410788  42.310  38.411   9.150
 5000POPC   GL110789  42.371  38.434   8.850
 5000POPC   GL210790  42.460  38.370   8.850
 5000POPC   C1A10791  42.319  38.475   8.550
 5000POPC   D2A10792  42.356  38.442   8.250
 5000POPC   C3A10793  42.365  38.490   7.950
 5000POPC   C4A10794  42.382  38.470   7.650
 5000POPC   C1B10795  42.566  38.338   8.550
 5000POPC   C2B10796  42.536  38.294   8.250
 5000POPC   C3B10797  42.570  38.365   7.950
 5000POPC   C4B10798  42.542  38.336   7.650
 5001POPC   NC310799  25.301  29.943   9.450
 5001POPC   PO410800  25.248  29.927   9.150
 5001POPC   GL110801  25.217  29.945   8.850
 5001POPC   GL210802  25.332  30.067   8.850
 5001POPC   C1A10803  25.265  29.945   8.550
 5001POPC   D2A10804  25.261  29.915   8.250
 5001POPC   C3A10805  25.243  29.888   7.950
 5001POPC   C4A10806  25.302  29.938   7.650
 5001POPC   C1B10807  25.387  30.100   8.550
 5001POPC   C2B10808  25.371  30.156   8.250
 5001POPC   C3B10809  25.408  30.153   7.950
 5001POPC   C4B10810  25.372  30.123   7.650
 5002POPC   NC310811  22.208   9.746   9.450
 5002POPC   PO410812  22.205   9.722   9.150
 5002POPC   GL110813  22.200   9.756   8.850
 5002POPC   GL210814  22.306   9.827   8.850
 5002POPC   C1A10815  22.208   9.700   8.550
 5002POPC   D2A10816  22.186   9.743   8.250
 5002POPC   C3A10817  22.153   9.781   7.950
 5002POPC   C4A10818  22.208   9.787   7.650
 5002POPC   C1B10819  22.370   9.873   8.550
 5002POPC   C2B10820  22.348   9.925   8.250
 5002POPC   C3B10821  22.397   9.906   7.950
 5002POPC   C4B10822  22.329   9.861   7.650
 5003POPC   NC310823   1.210  22.951   9.450
 5003POPC   PO410824   1.179  22.964   9.150
 5003POPC   GL110825   1.188  22.984   8.850
 5003POPC   GL210826   1.181  22.773   8.850
 5003POPC   C1A10827   1.213  22.917   8.550
 5003POPC   D2A10828   1.262  22.898   8.250
 5003POPC   C3A10829   1.225  22.901   7.950
 5003POPC   C4A10830   1.180  22.912   7.650
 5003POPC   C1B10831   1.266  22.719   8.550
 5003POPC   C2B10832   1.266  22.676   8.250
 5003POPC   C3B10833   1.195  22.730   7.950
 5003POPC   C4B10834   1.187  22.691   7.650
 5004POPC   NC310835   6.675  31.449   9.450
 5004POPC   PO410836   6.641  31.462   9.150
 5004POPC   GL110837   6.613  31.503   8.850
 5004POPC   GL210838   6.604  31.569   8.850
 5004POPC   C1A10839   6.669  31.446   8.550
 5004POPC   D2A10840   6.657  31.436   8.250
 5004POPC   C3A10841   6.609  31.440   7.950
 5004POPC   C4A10842   6.684  31.431   7.650
 5004POPC   C1B10843   6.543  31.714   8.550
 5004POPC   C2B10844   6.510  31.734   8.250
 5004POPC   C3B10845   6.561  31.690   7.950
 5004POPC   C4B10846   6.542  31.651   7.650
 5005POPC   NC310847  11.273  16.732   9.450
 5005POPC   PO410848  11.345  16.751   9.150
 5005POPC   GL110849  11.317  16.706   8.850
 5005POPC   GL210850  11.196  16.666   8.850
 5005POPC   C1A10851  11.262  16.746   8.550
 5005POPC   D2A10852  11.275  16.759   8.250
 5005POPC   C3A10853  11.331  16.742   7.950
 5005POPC   C4A10854  11.344  16.756   7.650
 5005POPC   C1B10855  11.157  16.564   8.550
 5005POPC   C2B10856  11.176  16.571   8.250
 5005POPC   C3B10857  11.142  16.526   7.950
 5005POPC   C4B10858  11.079  16.590   7.650
 5006POPC   NC310859   2.779  17.479   9.450
 5006POPC   PO410860   2.727  17.532   9.150
 5006POPC   GL110861   2.743  17.488   8.850
 5006POPC   GL210862   2.920  17.547   8.850
 5006POPC   C1A10863   2.793  17.463   8.550
 5006POPC   D2A10864   2.759  17.551   8.250
 5006POPC   C3A10865   2.740  17.508   7.950
 5006POPC   C4A10866   2.755  17.521   7.650
 5006POPC   C1B10867   2.954  17.588   8.550
 5006POPC   C2B10868   2.994  17.577   8.250
 5006POPC   C3B10869   3.037  17.549   7.950
 5006POPC   C4B10870   3.035  17.546   7.650
 5007POPC   NC310871   2.804  40.768   9.450
 5007POPC   PO410872   2.744  40.816   9.150
 5007POPC   GL110873   2.780  40.769   8.850
 5007POPC   GL210874   2.730  40.943   8.850
 5007POPC   C1A10875   2.716  40.800   8.550
 5007POPC   D2A10876   2.781  40.758   8.250
 5007POPC   C3A10877   2.738  40.770   7.950
 5007POPC   C4A10878   2.812  40.787   7.650
 5007POPC   C1B10879   2.672  40.994   8.550
 5007POPC   C2B10880   2.687  40.984   8.250
 5007POPC   C3B10881   2.621  40.966   7.950
 5007POPC   C4B10882   2.602  40.969   7.650
 5008POPC   NC310883   8.162  15.225   9.450
 5008POPC   PO410884   8.198  15.135   9.150
 5008POPC   GL110885   8.164  15.201   8.850
 5008POPC   GL210886   8.333  15.241   8.850
 5008POPC   C1A10887   8.173  15.175   8.550
 5008POPC   D2A10888   8.203  15.204   8.250
 5008POPC   C3A10889   8.235  15.191   7.950
 5008POPC   C4A10890   8.188  15.164   7.650
 5008POPC   C1B10891   8.344  15.301   8.550
 5008POPC   C2B10892   8.383  15.310   8.250
 5008POPC   C3B10893   8.413  15.378   7.950
 5008POPC   C4B10894   8.432  15.317   7.650
 5009POPC   NC310895  17.531  41.581   9.450
 5009POPC   PO410896  17.531  41.593   9.150
 5009POPC   GL110897  17.522  41.550   8.850
 5009POPC   GL210898  17.457  41.614   8.850
 5009POPC   C1A10899  17.468  41.574   8.550
 5009POPC   D2A10900  17.502  41.566   8.250
 5009POPC   C3A10901  17.482  41.535   7.950
 5009POPC   C4A10902  17.487  41.602   7.650
 5009POPC   C1B10903  17.394  41.758   8.550
 5009POPC   C2B10904  17.374  41.723   8.250
 5009POPC   C3B10905  17.349  41.749   7.950
 5009POPC   C4B10906  17.331  41.718   7.650
 5010POPC   NC310907  10.532   4.307   9.450
 5010POPC   PO410908  10.559   4.362   9.150
 5010POPC   GL110909  10.540   4.351   8.850
 5010POPC   GL210910  10.513   4.488   8.850
 5010POPC   C1A10911  10.527   4.335   8.550
 5010POPC   D2A10912  10.498   4.360   8.250
 5010POPC   C3A10913  10.514   4.314   7.950
 5010POPC   C4A10914  10.526   4.353   7.650
 5010POPC   C1B10915  10.474   4.578   8.550
 5010POPC   C2B10916  10.530   4.527   8.250
 5010POPC   C3B10917  10.497   4.521   7.950
 5010POPC   C4B10918  10.536   4.550   7.650
 5011POPC   NC310919  12.869  19.870   9.450
 5011POPC   PO410920  12.855  19.826   9.150
 5011POPC   GL110921  12.815  19.871   8.850
 5011POPC   GL210922  12.736  19.890   8.850
 5011POPC   C1A10923  12.866  19.801   8.550
 5011POPC   D2A10924  12.803  19.837   8.250
 5011POPC   C3A10925  12.888  19.848   7.950
 5011POPC   C4A10926  12.887  19.851   7.650
 5011POPC   C1B10927  12.639  19.862   8.550
 5011POPC   C2B10928  12.570  19.874   8.250
 5011POPC   C3B10929  12.565  19.905   7.950
 5011POPC   C4B10930  12.612  19.870   7.650
 5012POPC   NC310931  13.647  24.459   9.450
 5012POPC   PO410932  13.666  24.469   9.150
 5012POPC   GL110933  13.626  24.516   8.850
 5012POPC   GL210934  13.537  24.428   8.850
 5012POPC   C1A10935  13.636  24.536   8.550
 5012POPC   D2A10936  13.603  24.486   8.250
 5012POPC   C3A10937  13.664  24.531   7.950
 5012POPC   C4A10938  13.592  24.465   7.650
 5012POPC   C1B10939  13.442  24.351   8.550
 5012POPC   C2B10940  13.409  24.364   8.250
 5012POPC   C3B10941  13.417  24.387   7.950
 5012POPC   C4B10942  13.411  24.391   7.650
 5013POPC   NC310943  29.956  19.856   9.450
 5013POPC   PO410944  29.970  19.865   9.150
 5013POPC   GL110945  29.967  19.881   8.850
 5013POPC   GL210946  29.838  19.872   8.850
 5013POPC   C1A10947  29.877  19.850   8.550
 5013POPC   D2A10948  29.945  19.794   8.250
 5013POPC   C3A10949  29.929  19.824   7.950
 5013POPC   C4A10950  29.911  19.811   7.650
 5013POPC   C1B10951  29.674  19.865   8.550
 5013POPC   C2B10952  29.729  19.942   8.250
 5013POPC   C3B10953  29.686  19.862   7.950
 5013POPC   C4B10954  29.669  19.939   7.650
 5014POPC   NC310955  33.811   5.880   9.450
 5014POPC   PO410956  33.808   5.831   9.150
 5014POPC   GL110957  33.775   5.857   8.850
 5014POPC   GL210958  33.720   5.961   8.850
 5014POPC   C1A10959  33.843   5.844   8.550
 5014POPC   D2A10960  33.765   5.843   8.250
 5014POPC   C3A10961  33.801   5.912   7.950
 5014POPC   C4A10962  33.783   5.905   7.650
 5014POPC   C1B10963  33.624   6.016   8.550
 5014POPC   C2B10964  33.588   6.014   8.250
 5014POPC   C3B10965  33.572   5.994   7.950
 5014POPC   C4B10966  33.585   5.939   7.650
 5015POPC   NC310967  18.243  13.665   9.450
 5015POPC   PO410968  18.245  13.632   9.150
 5015POPC   GL110969  18.306  13.606   8.850
 5015POPC   GL210970  18.207  13.595   8.850
 5015POPC   C1A10971  18.286  13.667   8.550
 5015POPC   D2A10972  18.308  13.635   8.250
 5015POPC   C3A10973  18.278  13.624   7.950
 5015POPC   C4A10974  18.261  13.589   7.650
 5015POPC   C1B10975  18.000  13.499   8.550
 5015POPC   C2B10976  18.051  13.579   8.250
 5015POPC   C3B10977  18.049  13.503   7.950
 5015POPC   C4B10978  18.013  13.578   7.650
 5016POPC   NC310979  22.153  32.204   9.450
 5016POPC   PO410980  22.141  32.255   9.150
 5016POPC   GL110981  22.184  32.234   8.850
 5016POPC   GL210982  22.210  32.091   8.850
 5016POPC   C1A10983  22.176  32.279   8.550
 5016POPC   D2A10984  22.131  32.210   8.250
 5016POPC   C3A10985  22.162  32.293   7.950
 5016POPC   C4A10986  22.135  32.238   7.650
 5016POPC   C1B10987  22.254  32.040   8.550
 5016POPC   C2B10988  22.323  32.045   8.250
 5016POPC   C3B10989  22.316  31.989   7.950
 5016POPC   C4B10990  22.301  32.078   7.650
 5017POPC   NC310991   9.756  20.580   9.450
 5017POPC   PO410992   9.698  20.623   9.150
 5017POPC   GL110993   9.753  20.657   8.850
 5017POPC   GL210994   9.668  20.699   8.850
 5017POPC   C1A10995   9.714  20.655   8.550
 5017POPC   D2A10996   9.730  20.581   8.250
 5017POPC   C3A10997   9.776  20.656   7.950
 5017POPC   C4A10998   9.726  20.619   7.650
 5017POPC   C1B10999   9.481  20.685   8.550
 5017POPC   C2B11000   9.533  20.664   8.250
 5017POPC   C3B11001   9.504  20.716   7.950
 5017POPC   C4B11002   9.526  20.667   7.650
 5018POPC   NC311003  35.346  29.187   9.450
 5018POPC   PO411004  35.378  29.172   9.150
 5018POPC   GL111005  35.383  29.194   8.850
 5018POPC   GL211006  35.450  29.200   8.850
 5018POPC   C1A11007  35.360  29.170   8.550
 5018POPC   D2A11008  35.401  29.133   8.250
 5018POPC   C3A11009  35.386  29.150   7.950
 5018POPC   C4A11010  35.344  29.194   7.650
 5018POPC   C1B11011  35.624  29.173   8.550
 5018POPC   C2B11012  35.587  29.190   8.250
 5018POPC   C3B11013  35.622  29.209   7.950
 5018POPC   C4B11014  35.620  29.192   7.650
 5019POPC   NC311015  20.613   2.731   9.450
 5019POPC   PO411016  20.615   2.787   9.150
 5019POPC   GL111017  20.654   2.746   8.850
 5019POPC   GL211018  20.646   2.873   8.850
 5019POPC   C1A11019  20.614   2.731   8.550
 5019POPC   D2A11020  20.600   2.797   8.250
 5019POPC   C3A11021  20.582   2.741   7.950
 5019POPC   C4A11022  20.658   2.762   7.650
 5019POPC   C1B11023  20.734   3.042   8.550
 5019POPC   C2B11024  20.684   3.036   8.250
 5019POPC   C3B11025  20.735   2.965   7.950
 5019POPC   C4B11026  20.686   2.986   7.650
 5020POPC   NC311027  12.117  14.394   9.450
 5020POPC   PO411028  12.072  14.405   9.150
 5020POPC   GL111029  12.076  14.375   8.850
 5020POPC   GL211030  11.980  14.321   8.850
 5020POPC   C1A11031  12.063  14.438   8.550
 5020POPC   D2A11032  12.100  14.413   8.250
 5020POPC   C3A11033  12.080  14.425   7.950
 5020POPC   C4A11034  12.038  14.369   7.650
 5020POPC   C1B11035  11.814  14.329   8.550
 5020POPC   C2B11036  11.808  14.308   8.250
 5020POPC   C3B11037  11.886  14.272   7.950
 5020POPC   C4B11038  11.825  14.319   7.650
 5021POPC   NC311039  31.442  33.810   9.450
 5021POPC   PO411040  31.476  33.788   9.150
 5021POPC   GL111041  31.507  33.771   8.850
 5021POPC   GL211042  31.477  33.698   8.850
 5021POPC   C1A11043  31.516  33.838   8.550
 5021POPC   D2A11044  31.426  33.820   8.250
 5021POPC   C3A11045  31.495  33.827   7.950
 5021POPC   C4A11046  31.439  33.793   7.650
 5021POPC   C1B11047  31.469  33.595   8.550
 5021POPC   C2B11048  31.528  33.555   8.250
 5021POPC   C3B11049  31.540  33.573   7.950
 5021POPC   C4B11050  31.533  33.554   7.650
 5022POPC   NC311051  40.800  26.069   9.450
 5022POPC   PO411052  40.769  26.048   9.150
 5022POPC   GL111053  40.830  26.003   8.850
 5022POPC   GL211054  40.659  26.146   8.850
 5022POPC   C1A11055  40.796  26.082   8.550
 5022POPC   D2A11056  40.827  25.993   8.250
 5022POPC   C3A11057  40.733  26.085   7.950
 5022POPC   C4A11058  40.782  26.021   7.650
 5022POPC   C1B11059  40.521  26.163   8.550
 5022POPC   C2B11060  40.552  26.142   8.250
 5022POPC   C3B11061  40.527  26.186   7.950
 5022POPC   C4B11062  40.605  26.210   7.650
 5023POPC   NC311063  40.022  25.243   9.450
 5023POPC   PO411064  40.028  25.300   9.150
 5023POPC   GL111065  39.978  25.262   8.850
 5023POPC   GL211066  39.909  25.343   8.850
 5023POPC   C1A11067  40.033  25.256   8.550
 5023POPC   D2A11068  40.005  25.245   8.250
 5023POPC   C3A11069  40.032  25.299   7.950
 5023POPC   C4A11070  40.049  25.266   7.650
 5023POPC   C1B11071  39.823  25.344   8.550
 5023POPC   C2B11072  39.812  25.408   8.250
 5023POPC   C3B11073  39.753  25.368   7.950
 5023POPC   C4B11074  39.770  25.329   7.650
 5024POPC   NC311075  35.335  33.786   9.450
 5024POPC   PO411076  35.335  33.809   9.150
 5024POPC   GL111077  35.394  33.814   8.850
 5024POPC   GL211078  35.443  33.887   8.850
 5024POPC   C1A11079  35.363  33.774   8.550
 5024POPC   D2A11080  35.377  33.835   8.250
 5024POPC   C3A11081  35.335  33.806   7.950
 5024POPC   C4A11082  35.393  33.802   7.650
 5024POPC   C1B11083  35.472  34.014   8.550
 5024POPC   C2B11084  35.464  33.976   8.250
 5024POPC   C3B11085  35.527  33.977   7.950
 5024POPC   C4B11086  35.553  33.990   7.650
 5025POPC   NC311087  20.573   0.467   9.450
 5025POPC   PO411088  20.621   0.446   9.150
 5025POPC   GL111089  20.570   0.473   8.850
 5025POPC   GL211090  20.504   0.357   8.850
 5025POPC   C1A11091  20.591   0.432   8.550
 5025POPC   D2A11092  20.582   0.450   8.250
 5025POPC   C3A11093  20.640   0.450   7.950
 5025POPC   C4A11094  20.626   0.479   7.650
 5025POPC   C1B11095  20.422   0.259   8.550
 5025POPC   C2B11096  20.401   0.266   8.250
 5025POPC   C3B11097  20.447   0.268   7.950
 5025POPC   C4B11098  20.373   0.338   7.650
 5026POPC   NC311099   6.660   5.095   9.450
 5026POPC   PO411100   6.604   5.104   9.150
 5026POPC   GL111101   6.655   5.047   8.850
 5026POPC   GL211102   6.582   5.121   8.850
 5026POPC   C1A11103   6.612   5.113   8.550
 5026POPC   D2A11104   6.638   5.082   8.250
 5026POPC   C3A11105   6.662   5.064   7.950
 5026POPC   C4A11106   6.657   5.106   7.650
 5026POPC   C1B11107   6.395   5.233   8.550
 5026POPC   C2B11108   6.460   5.220   8.250
 5026POPC   C3B11109   6.466   5.206   7.950
 5026POPC   C4B11110   6.391   5.213   7.650
 5027POPC   NC311111  21.428   1.196   9.450
 5027POPC   PO411112  21.432   1.179   9.150
 5027POPC   GL111113  21.402   1.247   8.850
 5027POPC   GL211114  21.217   1.248   8.850
 5027POPC   C1A11115  21.352   1.220   8.550
 5027POPC   D2A11116  21.376   1.214   8.250
 5027POPC   C3A11117  21.355   1.208   7.950
 5027POPC   C4A11118  21.343   1.223   7.650
 5027POPC   C1B11119  21.150   1.223   8.550
 5027POPC   C2B11120  21.162   1.233   8.250
 5027POPC   C3B11121  21.179   1.145   7.950
 5027POPC   C4B11122  21.158   1.191   7.650
 5028POPC   NC311123   4.360  32.254   9.450
 5028POPC   PO411124   4.288  32.199   9.150
 5028POPC   GL111125   4.310  32.242   8.850
 5028POPC   GL211126   4.453  32.311   8.850
 5028POPC   C1A11127   4.304  32.288   8.550
 5028POPC   D2A11128   4.356  32.284   8.250
 5028POPC   C3A11129   4.347  32.244   7.950
 5028POPC   C4A11130   4.327  32.273   7.650
 5028POPC   C1B11131   4.553  32.356   8.550
 5028POPC   C2B11132   4.523  32.363   8.250
 5028POPC   C3B11133   4.521  32.373   7.950
 5028POPC   C4B11134   4.518  32.375   7.650
 5029POPC   NC311135  29.951  38.476   9.450
 5029POPC   PO411136  29.905  38.468   9.150
 5029POPC   GL111137  29.929  38.479   8.850
 5029POPC   GL211138  29.777  38.421   8.850
 5029POPC   C1A11139  29.905  38.466   8.550
 5029POPC   D2A11140  29.900  38.407   8.250
 5029POPC   C3A11141  29.950  38.441   7.950
 5029POPC   C4A11142  29.877  38.477   7.650
 5029POPC   C1B11143  29.713  38.392   8.550
 5029POPC   C2B11144  29.728  38.336   8.250
 5029POPC   C3B11145  29.722  38.307   7.950
 5029POPC   C4B11146  29.737  38.335   7.650
 5030POPC   NC311147  23.683   5.137   9.450
 5030POPC   PO411148  23.742   5.090   9.150
 5030POPC   GL111149  23.686   5.131   8.850
 5030POPC   GL211150  23.755   4.957   8.850
 5030POPC   C1A11151  23.698   5.122   8.550
 5030POPC   D2A11152  23.702   5.081   8.250
 5030POPC   C3A11153  23.733   5.136   7.950
 5030POPC   C4A11154  23.726   5.120   7.650
 5030POPC   C1B11155  23.745   4.848   8.550
 5030POPC   C2B11156  23.666   4.852   8.250
 5030POPC   C3B11157  23.720   4.848   7.950
 5030POPC   C4B11158  23.745   4.886   7.650
 5031POPC   NC311159   0.411  26.793   9.450
 5031POPC   PO411160   0.409  26.819   9.150
 5031POPC   GL111161   0.448  26.783   8.850
 5031POPC   GL211162   0.297  26.743   8.850
 5031POPC   C1A11163   0.487  26.837   8.550
 5031POPC   D2A11164   0.423  26.841   8.250
 5031POPC   C3A11165   0.484  26.852   7.950
 5031POPC   C4A11166   0.456  26.799   7.650
 5031POPC   C1B11167   0.257  26.715   8.550
 5031POPC   C2B11168   0.218  26.680   8.250
 5031POPC   C3B11169   0.190  26.657   7.950
 5031POPC   C4B11170   0.254  26.634   7.650
 5032POPC   NC311171  24.470  19.102   9.450
 5032POPC   PO411172  24.500  19.031   9.150
 5032POPC   GL111173  24.469  19.084   8.850
 5032POPC   GL211174  24.534  18.977   8.850
 5032POPC   C1A11175  24.514  19.045   8.550
 5032POPC   D2A11176  24.530  19.009   8.250
 5032POPC   C3A11177  24.474  19.078   7.950
 5032POPC   C4A11178  24.470  19.031   7.650
 5032POPC   C1B11179  24.562  18.790   8.550
 5032POPC   C2B11180  24.570  18.817   8.250
 5032POPC   C3B11181  24.590  18.859   7.950
 5032POPC   C4B11182  24.617  18.871   7.650
 5033POPC   NC311183  13.605  17.550   9.450
 5033POPC   PO411184  13.587  17.464   9.150
 5033POPC   GL111185  13.589  17.554   8.850
 5033POPC   GL211186  13.604  17.395   8.850
 5033POPC   C1A11187  13.665  17.535   8.550
 5033POPC   D2A11188  13.644  17.490   8.250
 5033POPC   C3A11189  13.605  17.512   7.950
 5033POPC   C4A11190  13.601  17.485   7.650
 5033POPC   C1B11191  13.684  17.285   8.550
 5033POPC   C2B11192  13.640  17.303   8.250
 5033POPC   C3B11193  13.683  17.303   7.950
 5033POPC   C4B11194  13.609  17.303   7.650
 5034POPC   NC311195   8.213  44.665   9.450
 5034POPC   PO411196   8.241  44.691   9.150
 5034POPC   GL111197   8.208  44.687   8.850
 5034POPC   GL211198   8.129  44.584   8.850
 5034POPC   C1A11199   8.184  44.614   8.550
 5034POPC   D2A11200   8.185  44.697   8.250
 5034POPC   C3A11201   8.198  44.634   7.950
 5034POPC   C4A11202   8.246  44.712   7.650
 5034POPC   C1B11203   8.162  44.394   8.550
 5034POPC   C2B11204   8.115  44.412   8.250
 5034POPC   C3B11205   8.162  44.459   7.950
 5034POPC   C4B11206   8.143  44.456   7.650
 5035POPC   NC311207  14.360  16.700   9.450
 5035POPC   PO411208  14.429  16.727   9.150
 5035POPC   GL111209  14.360  16.765   8.850
 5035POPC   GL211210  14.549  16.722   8.850
 5035POPC   C1A11211  14.430  16.759   8.550
 5035POPC   D2A11212  14.430  16.737   8.250
 5035POPC   C3A11213  14.392  16.760   7.950
 5035POPC   C4A11214  14.390  16.699   7.650
 5035POPC   C1B11215  14.660  16.687   8.550
 5035POPC   C2B11216  14.645  16.661   8.250
 5035POPC   C3B11217  14.653  16.613   7.950
 5035POPC   C4B11218  14.686  16.648   7.650
 5036POPC   NC311219  44.632   5.882   9.450
 5036POPC   PO411220  44.670   5.861   9.150
 5036POPC   GL111221  44.627   5.876   8.850
 5036POPC   GL211222  44.680   5.723   8.850
 5036POPC   C1A11223  44.662   5.919   8.550
 5036POPC   D2A11224  44.710   5.893   8.250
 5036POPC   C3A11225  44.697   5.918   7.950
 5036POPC   C4A11226  44.707   5.912   7.650
 5036POPC   C1B11227  44.644   5.593   8.550
 5036POPC   C2B11228  44.699   5.640   8.250
 5036POPC   C3B11229  44.648   5.653   7.950
 5036POPC   C4B11230  44.654   5.617   7.650
 5037POPC   NC311231  42.381   8.983   9.450
 5037POPC   PO411232  42.382   9.004   9.150
 5037POPC   GL111233  42.308   8.950   8.850
 5037POPC   GL211234  42.276   9.045   8.850
 5037POPC   C1A11235  42.329   8.997   8.550
 5037POPC   D2A11236  42.303   8.977   8.250
 5037POPC   C3A11237  42.291   8.998   7.950
 5037POPC   C4A11238  42.347   8.933   7.650
 5037POPC   C1B11239  42.149   9.096   8.550
 5037POPC   C2B11240  42.132   9.177   8.250
 5037POPC   C3B11241  42.127   9.107   7.950
 5037POPC   C4B11242  42.109   9.143   7.650
 5038POPC   NC311243   9.719  31.428   9.450
 5038POPC   PO411244   9.725  31.456   9.150
 5038POPC   GL111245   9.752  31.455   8.850
 5038POPC   GL211246   9.874  31.595   8.850
 5038POPC   C1A11247   9.744  31.436   8.550
 5038POPC   D2A11248   9.719  31.452   8.250
 5038POPC   C3A11249   9.701  31.463   7.950
 5038POPC   C4A11250   9.733  31.507   7.650
 5038POPC   C1B11251   9.934  31.690   8.550
 5038POPC   C2B11252   9.906  31.690   8.250
 5038POPC   C3B11253   9.921  31.627   7.950
 5038POPC   C4B11254   9.902  31.642   7.650
 5039POPC   NC311255  35.335  19.865   9.450
 5039POPC   PO411256  35.344  19.819   9.150
 5039POPC   GL111257  35.361  19.791   8.850
 5039POPC   GL211258  35.323  19.692   8.850
 5039POPC   C1A11259  35.358  19.813   8.550
 5039POPC   D2A11260  35.363  19.858   8.250
 5039POPC   C3A11261  35.383  19.823   7.950
 5039POPC   C4A11262  35.398  19.867   7.650
 5039POPC   C1B11263  35.331  19.603   8.550
 5039POPC   C2B11264  35.364  19.567   8.250
 5039POPC   C3B11265  35.403  19.582   7.950
 5039POPC   C4B11266  35.409  19.614   7.650
 5040POPC   NC311267  19.070  13.621   9.450
 5040POPC   PO411268  19.029  13.636   9.150
 5040POPC   GL111269  19.082  13.671   8.850
 5040POPC   GL211270  19.074  13.548   8.850
 5040POPC   C1A11271  19.055  13.644   8.550
 5040POPC   D2A11272  19.038  13.583   8.250
 5040POPC   C3A11273  19.086  13.593   7.950
 5040POPC   C4A11274  19.011  13.663   7.650
 5040POPC   C1B11275  19.158  13.398   8.550
 5040POPC   C2B11276  19.177  13.382   8.250
 5040POPC   C3B11277  19.141  13.376   7.950
 5040POPC   C4B11278  19.180  13.426   7.650
 5041POPC   NC311279  19.058  36.084   9.450
 5041POPC   PO411280  19.010  36.098   9.150
 5041POPC   GL111281  19.106  36.099   8.850
 5041POPC   GL211282  18.951  36.116   8.850
 5041POPC   C1A11283  19.059  36.084   8.550
 5041POPC   D2A11284  19.046  36.171   8.250
 5041POPC   C3A11285  19.097  36.106   7.950
 5041POPC   C4A11286  19.028  36.097   7.650
 5041POPC   C1B11287  18.834  36.240   8.550
 5041POPC   C2B11288  18.846  36.244   8.250
 5041POPC   C3B11289  18.838  36.203   7.950
 5041POPC   C4B11290  18.823  36.210   7.650
 5042POPC   NC311291  19.102  44.706   9.450
 5042POPC   PO411292  19.061  44.614   9.150
 5042POPC   GL111293  19.050  44.649   8.850
 5042POPC   GL211294  19.148  44.523   8.850
 5042POPC   C1A11295  19.023  44.661   8.550
 5042POPC   D2A11296  19.063  44.625   8.250
 5042POPC   C3A11297  19.027  44.657   7.950
 5042POPC   C4A11298  19.049  44.654   7.650
 5042POPC   C1B11299  19.169  44.500   8.550
 5042POPC   C2B11300  19.200  44.486   8.250
 5042POPC   C3B11301  19.205  44.426   7.950
 5042POPC   C4B11302  19.208  44.475   7.650
 5043POPC   NC311303  33.007  16.705   9.450
 5043POPC   PO411304  33.036  16.747   9.150
 5043POPC   GL111305  33.044  16.697   8.850
 5043POPC   GL211306  33.028  16.589   8.850
 5043POPC   C1A11307  33.043  16.772   8.550
 5043POPC   D2A11308  32.983  16.768   8.250
 5043POPC   C3A11309  33.007  16.780   7.950
 5043POPC   C4A11310  32.984  16.708   7.650
 5043POPC   C1B11311  32.991  16.453   8.550
 5043POPC   C2B11312  32.969  16.437   8.250
 5043POPC   C3B11313  32.984  16.492   7.950
 5043POPC   C4B11314  32.955  16.523   7.650
 5044POPC   NC311315  30.737   9.740   9.450
 5044POPC   PO411316  30.674   9.773   9.150
 5044POPC   GL111317  30.672   9.763   8.850
 5044POPC   GL211318  30.858   9.714   8.850
 5044POPC   C1A11319  30.711   9.706   8.550
 5044POPC   D2A11320  30.669   9.755   8.250
 5044POPC   C3A11321  30.652   9.772   7.950
 5044POPC   C4A11322  30.702   9.775   7.650
 5044POPC   C1B11323  30.909   9.689   8.550
 5044POPC   C2B11324  30.967   9.672   8.250
 5044POPC   C3B11325  30.907   9.651   7.950
 5044POPC   C4B11326  30.916   9.648   7.650
 5045POPC   NC311327  41.565   5.122   9.450
 5045POPC   PO411328  41.572   5.068   9.150
 5045POPC   GL111329  41.608   5.092   8.850
 5045POPC   GL211330  41.712   5.113   8.850
 5045POPC   C1A11331  41.533   5.092   8.550
 5045POPC   D2A11332  41.595   5.049   8.250
 5045POPC   C3A11333  41.574   5.143   7.950
 5045POPC   C4A11334  41.608   5.110   7.650
 5045POPC   C1B11335  41.843   5.212   8.550
 5045POPC   C2B11336  41.755   5.113   8.250
 5045POPC   C3B11337  41.827   5.212   7.950
 5045POPC   C4B11338  41.752   5.127   7.650
 5046POPC   NC311339  44.682  19.838   9.450
 5046POPC   PO411340  44.660  19.866   9.150
 5046POPC   GL111341  44.693  19.789   8.850
 5046POPC   GL211342  44.528  19.841   8.850
 5046POPC   C1A11343  44.661  19.856   8.550
 5046POPC   D2A11344  44.701  19.785   8.250
 5046POPC   C3A11345  44.646  19.821   7.950
 5046POPC   C4A11346  44.626  19.867   7.650
 5046POPC   C1B11347  44.390  19.858   8.550
 5046POPC   C2B11348  44.369  19.842   8.250
 5046POPC   C3B11349  44.387  19.836   7.950
 5046POPC   C4B11350  44.402  19.863   7.650
 5047POPC   NC311351   1.250   0.449   9.450
 5047POPC   PO411352   1.212   0.472   9.150
 5047POPC   GL111353   1.207   0.399   8.850
 5047POPC   GL211354   1.319   0.432   8.850
 5047POPC   C1A11355   1.240   0.432   8.550
 5047POPC   D2A11356   1.243   0.390   8.250
 5047POPC   C3A11357   1.175   0.443   7.950
 5047POPC   C4A11358   1.262   0.474   7.650
 5047POPC   C1B11359   1.433   0.450   8.550
 5047POPC   C2B11360   1.415   0.445   8.250
 5047POPC   C3B11361   1.439   0.496   7.950
 5047POPC   C4B11362   1.484   0.508   7.650
 5048POPC   NC311363  43.120  20.576   9.450
 5048POPC   PO411364  43.149  20.639   9.150
 5048POPC   GL111365  43.109  20.651   8.850
 5048POPC   GL211366  42.994  20.600   8.850
 5048POPC   C1A11367  43.078  20.650   8.550
 5048POPC   D2A11368  43.126  20.656   8.250
 5048POPC   C3A11369  43.129  20.641   7.950
 5048POPC   C4A11370  43.126  20.643   7.650
 5048POPC   C1B11371  42.818  20.698   8.550
 5048POPC   C2B11372  42.882  20.702   8.250
 5048POPC   C3B11373  42.868  20.669   7.950
 5048POPC   C4B11374  42.826  20.643   7.650
 5049POPC   NC311375  28.375  36.126   9.450
 5049POPC   PO411376  28.346  36.093   9.150
 5049POPC   GL111377  28.328  36.127   8.850
 5049POPC   GL211378  28.387  36.236   8.850
 5049POPC   C1A11379  28.400  36.135   8.550
 5049POPC   D2A11380  28.419  36.135   8.250
 5049POPC   C3A11381  28.325  36.154   7.950
 5049POPC   C4A11382  28.324  36.170   7.650
 5049POPC   C1B11383  28.294  36.348   8.550
 5049POPC   C2B11384  28.302  36.401   8.250
 5049POPC   C3B11385  28.284  36.417   7.950
 5049POPC   C4B11386  28.266  36.360   7.650
 5050POPC   NC311387  12.844  20.605   9.450
 5050POPC   PO411388  12.888  20.599   9.150
 5050POPC   GL111389  12.840  20.589   8.850
 5050POPC   GL211390  12.998  20.639   8.850
 5050POPC   C1A11391  12.866  20.657   8.550
 5050POPC   D2A11392  12.824  20.630   8.250
 5050POPC   C3A11393  12.849  20.592   7.950
 5050POPC   C4A11394  12.882  20.612   7.650
 5050POPC   C1B11395  13.083  20.705   8.550
 5050POPC   C2B11396  13.073  20.635   8.250
 5050POPC   C3B11397  13.073  20.625   7.950
 5050POPC   C4B11398  13.065  20.671   7.650
 5051POPC   NC311399   3.498  33.796   9.450
 5051POPC   PO411400   3.576  33.845   9.150
 5051POPC   GL111401   3.548  33.798   8.850
 5051POPC   GL211402   3.567  33.892   8.850
 5051POPC   C1A11403   3.525  33.789   8.550
 5051POPC   D2A11404   3.517  33.767   8.250
 5051POPC   C3A11405   3.537  33.752   7.950
 5051POPC   C4A11406   3.499  33.825   7.650
 5051POPC   C1B11407   3.642  34.013   8.550
 5051POPC   C2B11408   3.652  34.021   8.250
 5051POPC   C3B11409   3.650  34.051   7.950
 5051POPC   C4B11410   3.627  34.008   7.650
 5052POPC   NC311411   8.203  35.343   9.450
 5052POPC   PO411412   8.218  35.345   9.150
 5052POPC   GL111413   8.228  35.365   8.850
 5052POPC   GL211414   8.193  35.479   8.850
 5052POPC   C1A11415   8.237  35.309   8.550
 5052POPC   D2A11416   8.192  35.330   8.250
 5052POPC   C3A11417   8.213  35.330   7.950
 5052POPC   C4A11418   8.193  35.359   7.650
 5052POPC   C1B11419   8.199  35.593   8.550
 5052POPC   C2B11420   8.204  35.566   8.250
 5052POPC   C3B11421   8.120  35.589   7.950
 5052POPC   C4B11422   8.159  35.590   7.650
 5053POPC   NC311423  15.972  26.088   9.450
 5053POPC   PO411424  15.959  26.012   9.150
 5053POPC   GL111425  15.972  26.085   8.850
 5053POPC   GL211426  15.993  25.970   8.850
 5053POPC   C1A11427  15.943  26.003   8.550
 5053POPC   D2A11428  15.944  26.055   8.250
 5053POPC   C3A11429  15.952  26.045   7.950
 5053POPC   C4A11430  15.936  26.040   7.650
 5053POPC   C1B11431  15.999  25.819   8.550
 5053POPC   C2B11432  16.028  25.791   8.250
 5053POPC   C3B11433  16.030  25.820   7.950
 5053POPC   C4B11434  16.068  25.780   7.650
 5054POPC   NC311435  37.656  18.234   9.450
 5054POPC   PO411436  37.715  18.257   9.150
 5054POPC   GL111437  37.695  18.287   8.850
 5054POPC   GL211438  37.587  18.194   8.850
 5054POPC   C1A11439  37.714  18.291   8.550
 5054POPC   D2A11440  37.706  18.303   8.250
 5054POPC   C3A11441  37.701  18.263   7.950
 5054POPC   C4A11442  37.667  18.304   7.650
 5054POPC   C1B11443  37.462  18.106   8.550
 5054POPC   C2B11444  37.535  18.055   8.250
 5054POPC   C3B11445  37.458  18.063   7.950
 5054POPC   C4B11446  37.493  18.056   7.650
 5055POPC   NC311447  22.911  27.566   9.450
 5055POPC   PO411448  22.929  27.596   9.150
 5055POPC   GL111449  22.976  27.626   8.850
 5055POPC   GL211450  22.843  27.618   8.850
 5055POPC   C1A11451  22.986  27.557   8.550
 5055POPC   D2A11452  22.891  27.607   8.250
 5055POPC   C3A11453  22.972  27.598   7.950
 5055POPC   C4A11454  22.902  27.631   7.650
 5055POPC   C1B11455  22.739  27.680   8.550
 5055POPC   C2B11456  22.648  27.672   8.250
 5055POPC   C3B11457  22.718  27.631   7.950
 5055POPC   C4B11458  22.650  27.613   7.650
 5056POPC   NC311459   2.766  19.069   9.450
 5056POPC   PO411460   2.728  19.080   9.150
 5056POPC   GL111461   2.745  19.011   8.850
 5056POPC   GL211462   2.833  18.967   8.850
 5056POPC   C1A11463   2.755  19.033   8.550
 5056POPC   D2A11464   2.716  19.051   8.250
 5056POPC   C3A11465   2.724  19.015   7.950
 5056POPC   C4A11466   2.786  19.025   7.650
 5056POPC   C1B11467   2.879  18.857   8.550
 5056POPC   C2B11468   2.785  18.808   8.250
 5056POPC   C3B11469   2.797  18.788   7.950
 5056POPC   C4B11470   2.827  18.828   7.650
 5057POPC   NC311471  29.953  28.341   9.450
 5057POPC   PO411472  29.960  28.375   9.150
 5057POPC   GL111473  29.917  28.382   8.850
 5057POPC   GL211474  29.968  28.294   8.850
 5057POPC   C1A11475  29.938  28.412   8.550
 5057POPC   D2A11476  29.945  28.406   8.250
 5057POPC   C3A11477  29.944  28.402   7.950
 5057POPC   C4A11478  29.931  28.356   7.650
 5057POPC   C1B11479  30.039  28.194   8.550
 5057POPC   C2B11480  30.048  28.198   8.250
 5057POPC   C3B11481  30.084  28.181   7.950
 5057POPC   C4B11482  30.076  28.119   7.650
 5058POPC   NC311483  22.959  28.407   9.450
 5058POPC   PO411484  22.908  28.411   9.150
 5058POPC   GL111485  22.903  28.370   8.850
 5058POPC   GL211486  22.877  28.514   8.850
 5058POPC   C1A11487  22.933  28.378   8.550
 5058POPC   D2A11488  22.889  28.352   8.250
 5058POPC   C3A11489  22.910  28.371   7.950
 5058POPC   C4A11490  22.985  28.354   7.650
 5058POPC   C1B11491  22.736  28.590   8.550
 5058POPC   C2B11492  22.807  28.606   8.250
 5058POPC   C3B11493  22.778  28.612   7.950
 5058POPC   C4B11494  22.741  28.527   7.650
 5059POPC   NC311495  19.843  16.751   9.450
 5059POPC   PO411496  19.787  16.703   9.150
 5059POPC   GL111497  19.838  16.713   8.850
 5059POPC   GL211498  19.755  16.786   8.850
 5059POPC   C1A11499  19.811  16.751   8.550
 5059POPC   D2A11500  19.805  16.723   8.250
 5059POPC   C3A11501  19.807  16.761   7.950
 5059POPC   C4A11502  19.849  16.720   7.650
 5059POPC   C1B11503  19.631  16.851   8.550
 5059POPC   C2B11504  19.628  16.856   8.250
 5059POPC   C3B11505  19.619  16.918   7.950
 5059POPC   C4B11506  19.646  16.880   7.650
 5060POPC   NC311507   5.867  41.535   9.450
 5060POPC   PO411508   5.825  41.518   9.150
 5060POPC   GL111509   5.825  41.550   8.850
 5060POPC   GL211510   6.007  41.590   8.850
 5060POPC   C1A11511   5.900  41.591   8.550
 5060POPC   D2A11512   5.827  41.555   8.250
 5060POPC   C3A11513   5.917  41.587   7.950
 5060POPC   C4A11514   5.829  41.547   7.650
 5060POPC   C1B11515   6.089  41.636   8.550
 5060POPC   C2B11516   6.103  41.580   8.250
 5060POPC   C3B11517   6.153  41.555   7.950
 5060POPC   C4B11518   6.097  41.620   7.650
 5061POPC   NC311519  33.035  28.377   9.450
 5061POPC   PO411520  33.063  28.332   9.150
 5061POPC   GL111521  33.048  28.387   8.850
 5061POPC   GL211522  32.969  28.271   8.850
 5061POPC   C1A11523  33.061  28.377   8.550
 5061POPC   D2A11524  33.012  28.400   8.250
 5061POPC   C3A11525  33.021  28.326   7.950
 5061POPC   C4A11526  32.989  28.406   7.650
 5061POPC   C1B11527  32.883  28.137   8.550
 5061POPC   C2B11528  32.857  28.183   8.250
 5061POPC   C3B11529  32.833  28.200   7.950
 5061POPC   C4B11530  32.901  28.170   7.650
 5062POPC   NC311531  36.886  14.357   9.450
 5062POPC   PO411532  36.890  14.372   9.150
 5062POPC   GL111533  36.893  14.360   8.850
 5062POPC   GL211534  37.006  14.435   8.850
 5062POPC   C1A11535  36.886  14.386   8.550
 5062POPC   D2A11536  36.905  14.392   8.250
 5062POPC   C3A11537  36.885  14.365   7.950
 5062POPC   C4A11538  36.936  14.372   7.650
 5062POPC   C1B11539  37.153  14.519   8.550
 5062POPC   C2B11540  37.173  14.446   8.250
 5062POPC   C3B11541  37.107  14.494   7.950
 5062POPC   C4B11542  37.136  14.472   7.650
 5063POPC   NC311543  38.483  12.069   9.450
 5063POPC   PO411544  38.406  12.069   9.150
 5063POPC   GL111545  38.428  12.038   8.850
 5063POPC   GL211546  38.477  11.979   8.850
 5063POPC   C1A11547  38.412  12.113   8.550
 5063POPC   D2A11548  38.494  12.057   8.250
 5063POPC   C3A11549  38.440  12.098   7.950
 5063POPC   C4A11550  38.479  12.046   7.650
 5063POPC   C1B11551  38.382  11.808   8.550
 5063POPC   C2B11552  38.434  11.791   8.250
 5063POPC   C3B11553  38.412  11.874   7.950
 5063POPC   C4B11554  38.439  11.829   7.650
 5064POPC   NC311555  28.376  18.331   9.450
 5064POPC   PO411556  28.412  18.286   9.150
 5064POPC   GL111557  28.408  18.260   8.850
 5064POPC   GL211558  28.525  18.344   8.850
 5064POPC   C1A11559  28.333  18.269   8.550
 5064POPC   D2A11560  28.320  18.253   8.250
 5064POPC   C3A11561  28.408  18.271   7.950
 5064POPC   C4A11562  28.389  18.326   7.650
 5064POPC   C1B11563  28.604  18.408   8.550
 5064POPC   C2B11564  28.577  18.443   8.250
 5064POPC   C3B11565  28.542  18.376   7.950
 5064POPC   C4B11566  28.603  18.444   7.650
 5065POPC   NC311567  26.010  43.118   9.450
 5065POPC   PO411568  26.035  43.128   9.150
 5065POPC   GL111569  26.081  43.125   8.850
 5065POPC   GL211570  25.965  43.033   8.850
 5065POPC   C1A11571  26.057  43.086   8.550
 5065POPC   D2A11572  26.055  43.134   8.250
 5065POPC   C3A11573  26.034  43.061   7.950
 5065POPC   C4A11574  26.041  43.095   7.650
 5065POPC   C1B11575  25.858  42.915   8.550
 5065POPC   C2B11576  25.948  42.860   8.250
 5065POPC   C3B11577  25.925  42.897   7.950
 5065POPC   C4B11578  25.874  42.916   7.650
 5066POPC   NC311579  31.498  39.254   9.450
 5066POPC   PO411580  31.468  39.192   9.150
 5066POPC   GL111581  31.453  39.224   8.850
 5066POPC   GL211582  31.447  39.385   8.850
 5066POPC   C1A11583  31.478  39.197   8.550
 5066POPC   D2A11584  31.491  39.241   8.250
 5066POPC   C3A11585  31.513  39.185   7.950
 5066POPC   C4A11586  31.442  39.237   7.650
 5066POPC   C1B11587  31.416  39.464   8.550
 5066POPC   C2B11588  31.407  39.457   8.250
 5066POPC   C3B11589  31.409  39.439   7.950
 5066POPC   C4B11590  31.421  39.489   7.650
 5067POPC   NC311591  12.083  24.484   9.450
 5067POPC   PO411592  12.088  24.466   9.150
 5067POPC   GL111593  12.055  24.491   8.850
 5067POPC   GL211594  12.205  24.434   8.850
 5067POPC   C1A11595  12.072  24.464   8.550
 5067POPC   D2A11596  12.027  24.507   8.250
 5067POPC   C3A11597  12.075  24.514   7.950
 5067POPC   C4A11598  12.082  24.514   7.650
 5067POPC   C1B11599  12.346  24.449   8.550
 5067POPC   C2B11600  12.358  24.428   8.250
 5067POPC   C3B11601  12.325  24.415   7.950
 5067POPC   C4B11602  12.277  24.481   7.650
 5068POPC   NC311603   2.805   8.979   9.450
 5068POPC   PO411604   2.771   8.999   9.150
 5068POPC   GL111605   2.738   9.002   8.850
 5068POPC   GL211606   2.748   9.137   8.850
 5068POPC   C1A11607   2.780   9.017   8.550
 5068POPC   D2A11608   2.737   8.939   8.250
 5068POPC   C3A11609   2.769   8.981   7.950
 5068POPC   C4A11610   2.751   8.968   7.650
 5068POPC   C1B11611   2.748   9.175   8.550
 5068POPC   C2B11612   2.827   9.239   8.250
 5068POPC   C3B11613   2.760   9.206   7.950
 5068POPC   C4B11614   2.820   9.203   7.650
 5069POPC   NC311615  28.365  11.278   9.450
 5069POPC   PO411616  28.362  11.348   9.150
 5069POPC   GL111617  28.387  11.267   8.850
 5069POPC   GL211618  28.405  11.440   8.850
 5069POPC   C1A11619  28.344  11.343   8.550
 5069POPC   D2A11620  28.350  11.301   8.250
 5069POPC   C3A11621  28.356  11.278   7.950
 5069POPC   C4A11622  28.409  11.338   7.650
 5069POPC   C1B11623  28.464  11.556   8.550
 5069POPC   C2B11624  28.484  11.488   8.250
 5069POPC   C3B11625  28.506  11.508   7.950
 5069POPC   C4B11626  28.469  11.501   7.650
 5070POPC   NC311627  33.796  29.916   9.450
 5070POPC   PO411628  33.797  29.900   9.150
 5070POPC   GL111629  33.827  29.921   8.850
 5070POPC   GL211630  33.798  29.765   8.850
 5070POPC   C1A11631  33.805  29.915   8.550
 5070POPC   D2A11632  33.753  29.901   8.250
 5070POPC   C3A11633  33.780  29.899   7.950
 5070POPC   C4A11634  33.779  29.958   7.650
 5070POPC   C1B11635  33.892  29.664   8.550
 5070POPC   C2B11636  33.897  29.641   8.250
 5070POPC   C3B11637  33.894  29.698   7.950
 5070POPC   C4B11638  33.875  29.688   7.650
 5071POPC   NC311639  19.059  24.526   9.450
 5071POPC   PO411640  19.100  24.475   9.150
 5071POPC   GL111641  19.065  24.485   8.850
 5071POPC   GL211642  19.038  24.404   8.850
 5071POPC   C1A11643  19.072  24.513   8.550
 5071POPC   D2A11644  19.075  24.514   8.250
 5071POPC   C3A11645  19.092  24.536   7.950
 5071POPC   C4A11646  19.084  24.536   7.650
 5071POPC   C1B11647  19.017  24.288   8.550
 5071POPC   C2B11648  19.002  24.289   8.250
 5071POPC   C3B11649  19.052  24.220   7.950
 5071POPC   C4B11650  19.017  24.237   7.650
 5072POPC   NC311651   7.461  40.048   9.450
 5072POPC   PO411652   7.462  40.055   9.150
 5072POPC   GL111653   7.376  40.008   8.850
 5072POPC   GL211654   7.345  40.003   8.850
 5072POPC   C1A11655   7.457  40.017   8.550
 5072POPC   D2A11656   7.453  39.980   8.250
 5072POPC   C3A11657   7.427  40.035   7.950
 5072POPC   C4A11658   7.393  40.016   7.650
 5072POPC   C1B11659   7.149  39.959   8.550
 5072POPC   C2B11660   7.171  39.957   8.250
 5072POPC   C3B11661   7.142  39.971   7.950
 5072POPC   C4B11662   7.167  40.009   7.650
 5073POPC   NC311663  26.801  15.949   9.450
 5073POPC   PO411664  26.784  15.917   9.150
 5073POPC   GL111665  26.825  15.949   8.850
 5073POPC   GL211666  26.773  15.893   8.850
 5073POPC   C1A11667  26.856  15.983   8.550
 5073POPC   D2A11668  26.777  15.999   8.250
 5073POPC   C3A11669  26.811  16.001   7.950
 5073POPC   C4A11670  26.831  16.000   7.650
 5073POPC   C1B11671  26.602  15.718   8.550
 5073POPC   C2B11672  26.644  15.789   8.250
 5073POPC   C3B11673  26.632  15.762   7.950
 5073POPC   C4B11674  26.667  15.730   7.650
 5074POPC   NC311675  41.547  22.176   9.450
 5074POPC   PO411676  41.515  22.162   9.150
 5074POPC   GL111677  41.583  22.207   8.850
 5074POPC   GL211678  41.633  22.041   8.850
 5074POPC   C1A11679  41.525  22.196   8.550
 5074POPC   D2A11680  41.532  22.153   8.250
 5074POPC   C3A11681  41.597  22.187   7.950
 5074POPC   C4A11682  41.598  22.205   7.650
 5074POPC   C1B11683  41.658  21.940   8.550
 5074POPC   C2B11684  41.629  21.941   8.250
 5074POPC   C3B11685  41.618  21.882   7.950
 5074POPC   C4B11686  41.611  21.885   7.650
 5075POPC   NC311687  41.558  13.632   9.450
 5075POPC   PO411688  41.543  13.661   9.150
 5075POPC   GL111689  41.564  13.609   8.850
 5075POPC   GL211690  41.581  13.552   8.850
 5075POPC   C1A11691  41.539  13.578   8.550
 5075POPC   D2A11692  41.574  13.646   8.250
 5075POPC   C3A11693  41.527  13.602   7.950
 5075POPC   C4A11694  41.585  13.661   7.650
 5075POPC   C1B11695  41.641  13.363   8.550
 5075POPC   C2B11696  41.605  13.409   8.250
 5075POPC   C3B11697  41.544  13.427   7.950
 5075POPC   C4B11698  41.600  13.379   7.650
 5076POPC   NC311699  40.742  28.390   9.450
 5076POPC   PO411700  40.777  28.373   9.150
 5076POPC   GL111701  40.776  28.337   8.850
 5076POPC   GL211702  40.883  28.380   8.850
 5076POPC   C1A11703  40.751  28.408   8.550
 5076POPC   D2A11704  40.781  28.341   8.250
 5076POPC   C3A11705  40.832  28.382   7.950
 5076POPC   C4A11706  40.760  28.327   7.650
 5076POPC   C1B11707  41.010  28.363   8.550
 5076POPC   C2B11708  41.037  28.366   8.250
 5076POPC   C3B11709  41.045  28.450   7.950
 5076POPC   C4B11710  40.987  28.443   7.650
 5077POPC   NC311711  44.654  27.544   9.450
 5077POPC   PO411712  44.680  27.625   9.150
 5077POPC   GL111713  44.623  27.562   8.850
 5077POPC   GL211714  44.786  27.677   8.850
 5077POPC   C1A11715  44.646  27.580   8.550
 5077POPC   D2A11716  44.641  27.636   8.250
 5077POPC   C3A11717  44.674  27.593   7.950
 5077POPC   C4A11718  44.681  27.615   7.650
 5077POPC   C1B11719  44.869  27.778   8.550
 5077POPC   C2B11720  44.902  27.775   8.250
 5077POPC   C3B11721  44.895  27.748   7.950
 5077POPC   C4B11722  44.906  27.792   7.650
 5078POPC   NC311723  17.513  15.192   9.450
 5078POPC   PO411724  17.468  15.222   9.150
 5078POPC   GL111725  17.553  15.134   8.850
 5078POPC   GL211726  17.547  15.331   8.850
 5078POPC   C1A11727  17.531  15.177   8.550
 5078POPC   D2A11728  17.552  15.136   8.250
 5078POPC   C3A11729  17.510  15.185   7.950
 5078POPC   C4A11730  17.494  15.220   7.650
 5078POPC   C1B11731  17.619  15.438   8.550
 5078POPC   C2B11732  17.557  15.469   8.250
 5078POPC   C3B11733  17.594  15.395   7.950
 5078POPC   C4B11734  17.581  15.400   7.650
 5079POPC   NC311735  40.769  14.428   9.450
 5079POPC   PO411736  40.773  14.417   9.150
 5079POPC   GL111737  40.810  14.443   8.850
 5079POPC   GL211738  40.885  14.518   8.850
 5079POPC   C1A11739  40.785  14.375   8.550
 5079POPC   D2A11740  40.755  14.449   8.250
 5079POPC   C3A11741  40.771  14.397   7.950
 5079POPC   C4A11742  40.778  14.373   7.650
 5079POPC   C1B11743  41.003  14.527   8.550
 5079POPC   C2B11744  40.981  14.612   8.250
 5079POPC   C3B11745  40.969  14.564   7.950
 5079POPC   C4B11746  41.004  14.567   7.650
 5080POPC   NC311747  26.042   6.614   9.450
 5080POPC   PO411748  26.003   6.611   9.150
 5080POPC   GL111749  26.052   6.603   8.850
 5080POPC   GL211750  26.207   6.686   8.850
 5080POPC   C1A11751  26.064   6.636   8.550
 5080POPC   D2A11752  26.018   6.694   8.250
 5080POPC   C3A11753  26.008   6.615   7.950
 5080POPC   C4A11754  26.079   6.649   7.650
 5080POPC   C1B11755  26.331   6.600   8.550
 5080POPC   C2B11756  26.318   6.652   8.250
 5080POPC   C3B11757  26.298   6.646   7.950
 5080POPC   C4B11758  26.254   6.649   7.650
 5081POPC   NC311759   0.415  42.347   9.450
 5081POPC   PO411760   0.396  42.288   9.150
 5081POPC   GL111761   0.416  42.322   8.850
 5081POPC   GL211762   0.601  42.300   8.850
 5081POPC   C1A11763   0.449  42.376   8.550
 5081POPC   D2A11764   0.449  42.301   8.250
 5081POPC   C3A11765   0.425  42.350   7.950
 5081POPC   C4A11766   0.484  42.376   7.650
 5081POPC   C1B11767   0.713  42.333   8.550
 5081POPC   C2B11768   0.688  42.406   8.250
 5081POPC   C3B11769   0.641  42.344   7.950
 5081POPC   C4B11770   0.653  42.319   7.650
 5082POPC   NC311771  29.110   2.002   9.450
 5082POPC   PO411772  29.160   1.986   9.150
 5082POPC   GL111773  29.182   1.953   8.850
 5082POPC   GL211774  29.146   1.837   8.850
 5082POPC   C1A11775  29.096   2.019   8.550
 5082POPC   D2A11776  29.168   2.001   8.250
 5082POPC   C3A11777  29.143   1.981   7.950
 5082POPC   C4A11778  29.123   2.023   7.650
 5082POPC   C1B11779  29.151   1.723   8.550
 5082POPC   C2B11780  29.136   1.775   8.250
 5082POPC   C3B11781  29.130   1.722   7.950
 5082POPC   C4B11782  29.166   1.699   7.650
 5083POPC   NC311783   9.017  10.527   9.450
 5083POPC   PO411784   8.984  10.563   9.150
 5083POPC   GL111785   8.983  10.570   8.850
 5083POPC   GL211786   9.047  10.511   8.850
 5083POPC   C1A11787   8.991  10.482   8.550
 5083POPC   D2A11788   8.947  10.495   8.250
 5083POPC   C3A11789   8.928  10.513   7.950
 5083POPC   C4A11790   8.953  10.565   7.650
 5083POPC   C1B11791   9.227  10.427   8.550
 5083POPC   C2B11792   9.195  10.478   8.250
 5083POPC   C3B11793   9.262  10.414   7.950
 5083POPC   C4B11794   9.183  10.470   7.650
 5084POPC   NC311795  27.546  19.026   9.450
 5084POPC   PO411796  27.615  19.097   9.150
 5084POPC   GL111797  27.619  19.101   8.850
 5084POPC   GL211798  27.455  19.050   8.850
 5084POPC   C1A11799  27.631  19.104   8.550
 5084POPC   D2A11800  27.620  19.061   8.250
 5084POPC   C3A11801  27.600  19.107   7.950
 5084POPC   C4A11802  27.631  19.019   7.650
 5084POPC   C1B11803  27.394  18.972   8.550
 5084POPC   C2B11804  27.414  18.971   8.250
 5084POPC   C3B11805  27.355  18.983   7.950
 5084POPC   C4B11806  27.327  18.948   7.650
 5085POPC   NC311807  43.865  43.925   9.450
 5085POPC   PO411808  43.863  43.923   9.150
 5085POPC   GL111809  43.920  43.848   8.850
 5085POPC   GL211810  43.953  43.827   8.850
 5085POPC   C1A11811  43.884  43.848   8.550
 5085POPC   D2A11812  43.859  43.925   8.250
 5085POPC   C3A11813  43.878  43.895   7.950
 5085POPC   C4A11814  43.850  43.850   7.650
 5085POPC   C1B11815  44.067  43.677   8.550
 5085POPC   C2B11816  44.071  43.678   8.250
 5085POPC   C3B11817  43.994  43.705   7.950
 5085POPC   C4B11818  44.021  43.723   7.650
 5086POPC   NC311819  37.724   5.065   9.450
 5086POPC   PO411820  37.704   5.080   9.150
 5086POPC   GL111821  37.705   5.143   8.850
 5086POPC   GL211822  37.616   5.038   8.850
 5086POPC   C1A11823  37.675   5.119   8.550
 5086POPC   D2A11824  37.636   5.054   8.250
 5086POPC   C3A11825  37.648   5.094   7.950
 5086POPC   C4A11826  37.708   5.093   7.650
 5086POPC   C1B11827  37.501   4.931   8.550
 5086POPC   C2B11828  37.524   4.927   8.250
 5086POPC   C3B11829  37.520   4.944   7.950
 5086POPC   C4B11830  37.566   4.873   7.650
 5087POPC   NC311831   1.962  18.252   9.450
 5087POPC   PO411832   2.038  18.325   9.150
 5087POPC   GL111833   2.036  18.303   8.850
 5087POPC   GL211834   1.887  18.339   8.850
 5087POPC   C1A11835   2.034  18.275   8.550
 5087POPC   D2A11836   1.999  18.264   8.250
 5087POPC   C3A11837   1.942  18.272   7.950
 5087POPC   C4A11838   1.999  18.316   7.650
 5087POPC   C1B11839   1.763  18.444   8.550
 5087POPC   C2B11840   1.828  18.451   8.250
 5087POPC   C3B11841   1.803  18.407   7.950
 5087POPC   C4B11842   1.815  18.398   7.650
 5088POPC   NC311843   5.053   8.985   9.450
 5088POPC   PO411844   5.060   8.997   9.150
 5088POPC   GL111845   5.047   8.938   8.850
 5088POPC   GL211846   5.204   8.879   8.850
 5088POPC   C1A11847   5.142   8.943   8.550
 5088POPC   D2A11848   5.107   8.938   8.250
 5088POPC   C3A11849   5.062   8.947   7.950
 5088POPC   C4A11850   5.044   8.949   7.650
 5088POPC   C1B11851   5.271   8.830   8.550
 5088POPC   C2B11852   5.275   8.760   8.250
 5088POPC   C3B11853   5.245   8.814   7.950
 5088POPC   C4B11854   5.237   8.763   7.650
 5089POPC   NC311855  43.113  30.723   9.450
 5089POPC   PO411856  43.118  30.689   9.150
 5089POPC   GL111857  43.121  30.691   8.850
 5089POPC   GL211858  43.205  30.768   8.850
 5089POPC   C1A11859  43.090  30.746   8.550
 5089POPC   D2A11860  43.098  30.694   8.250
 5089POPC   C3A11861  43.123  30.660   7.950
 5089POPC   C4A11862  43.158  30.730   7.650
 5089POPC   C1B11863  43.382  30.729   8.550
 5089POPC   C2B11864  43.302  30.730   8.250
 5089POPC   C3B11865  43.343  30.730   7.950
 5089POPC   C4B11866  43.310  30.728   7.650
 5090POPC   NC311867  40.747   4.315   9.450
 5090POPC   PO411868  40.759   4.320   9.150
 5090POPC   GL111869  40.786   4.309   8.850
 5090POPC   GL211870  40.779   4.210   8.850
 5090POPC   C1A11871  40.780   4.305   8.550
 5090POPC   D2A11872  40.809   4.277   8.250
 5090POPC   C3A11873  40.816   4.330   7.950
 5090POPC   C4A11874  40.816   4.334   7.650
 5090POPC   C1B11875  40.758   4.020   8.550
 5090POPC   C2B11876  40.786   4.105   8.250
 5090POPC   C3B11877  40.818   4.066   7.950
 5090POPC   C4B11878  40.790   4.078   7.650
 5091POPC   NC311879  19.823  36.129   9.450
 5091POPC   PO411880  19.840  36.113   9.150
 5091POPC   GL111881  19.840  36.174   8.850
 5091POPC   GL211882  19.700  36.068   8.850
 5091POPC   C1A11883  19.867  36.089   8.550
 5091POPC   D2A11884  19.838  36.109   8.250
 5091POPC   C3A11885  19.855  36.095   7.950
 5091POPC   C4A11886  19.787  36.162   7.650
 5091POPC   C1B11887  19.602  36.032   8.550
 5091POPC   C2B11888  19.559  36.104   8.250
 5091POPC   C3B11889  19.567  36.111   7.950
 5091POPC   C4B11890  19.584  36.086   7.650
 5092POPC   NC311891   1.255  39.245   9.450
 5092POPC   PO411892   1.252  39.243   9.150
 5092POPC   GL111893   1.207  39.207   8.850
 5092POPC   GL211894   1.270  39.134   8.850
 5092POPC   C1A11895   1.176  39.240   8.550
 5092POPC   D2A11896   1.246  39.210   8.250
 5092POPC   C3A11897   1.206  39.259   7.950
 5092POPC   C4A11898   1.245  39.256   7.650
 5092POPC   C1B11899   1.338  39.029   8.550
 5092POPC   C2B11900   1.349  39.026   8.250
 5092POPC   C3B11901   1.342  39.020   7.950
 5092POPC   C4B11902   1.340  39.000   7.650
 5093POPC   NC311903  36.143  44.707   9.450
 5093POPC   PO411904  36.088  44.654   9.150
 5093POPC   GL111905  36.110  44.707   8.850
 5093POPC   GL211906  36.080  44.598   8.850
 5093POPC   C1A11907  36.093  44.706   8.550
 5093POPC   D2A11908  36.153  44.656   8.250
 5093POPC   C3A11909  36.115  44.711   7.950
 5093POPC   C4A11910  36.096  44.710   7.650
 5093POPC   C1B11911  35.944  44.527   8.550
 5093POPC   C2B11912  35.996  44.454   8.250
 5093POPC   C3B11913  35.972  44.437   7.950
 5093POPC   C4B11914  35.960  44.436   7.650
 5094POPC   NC311915  36.934  18.303   9.450
 5094POPC   PO411916  36.854  18.273   9.150
 5094POPC   GL111917  36.862  18.299   8.850
 5094POPC   GL211918  36.864  18.433   8.850
 5094POPC   C1A11919  36.934  18.279   8.550
 5094POPC   D2A11920  36.906  18.277   8.250
 5094POPC   C3A11921  36.935  18.313   7.950
 5094POPC   C4A11922  36.914  18.280   7.650
 5094POPC   C1B11923  36.837  18.570   8.550
 5094POPC   C2B11924  36.871  18.516   8.250
 5094POPC   C3B11925  36.844  18.538   7.950
 5094POPC   C4B11926  36.904  18.547   7.650
 5095POPC   NC311927  22.156  18.299   9.450
 5095POPC   PO411928  22.212  18.262   9.150
 5095POPC   GL111929  22.118  18.287   8.850
 5095POPC   GL211930  22.281  18.386   8.850
 5095POPC   C1A11931  22.155  18.293   8.550
 5095POPC   D2A11932  22.145  18.292   8.250
 5095POPC   C3A11933  22.133  18.277   7.950
 5095POPC   C4A11934  22.183  18.253   7.650
 5095POPC   C1B11935  22.385  18.445   8.550
 5095POPC   C2B11936  22.339  18.366   8.250
 5095POPC   C3B11937  22.358  18.393   7.950
 5095POPC   C4B11938  22.340  18.440   7.650
 5096POPC   NC311939   1.165   8.149   9.450
 5096POPC   PO411940   1.195   8.234   9.150
 5096POPC   GL111941   1.219   8.155   8.850
 5096POPC   GL211942   1.165   8.269   8.850
 5096POPC   C1A11943   1.238   8.188   8.550
 5096POPC   D2A11944   1.177   8.200   8.250
 5096POPC   C3A11945   1.179   8.244   7.950
 5096POPC   C4A11946   1.235   8.158   7.650
 5096POPC   C1B11947   0.996   8.360   8.550
 5096POPC   C2B11948   1.018   8.344   8.250
 5096POPC   C3B11949   0.996   8.418   7.950
 5096POPC   C4B11950   1.082   8.389   7.650
 5097POPC   NC311951  14.391  14.385   9.450
 5097POPC   PO411952  14.411  14.416   9.150
 5097POPC   GL111953  14.451  14.447   8.850
 5097POPC   GL211954  14.321  14.442   8.850
 5097POPC   C1A11955  14.444  14.408   8.550
 5097POPC   D2A11956  14.386  14.364   8.250
 5097POPC   C3A11957  14.401  14.451   7.950
 5097POPC   C4A11958  14.428  14.442   7.650
 5097POPC   C1B11959  14.151  14.423   8.550
 5097POPC   C2B11960  14.116  14.392   8.250
 5097POPC   C3B11961  14.172  14.406   7.950
 5097POPC   C4B11962  14.186  14.381   7.650
 5098POPC   NC311963  39.185  26.849   9.450
 5098POPC   PO411964  39.202  26.819   9.150
 5098POPC   GL111965  39.185  26.864   8.850
 5098POPC   GL211966  39.177  26.720   8.850
 5098POPC   C1A11967  39.206  26.838   8.550
 5098POPC   D2A11968  39.256  26.774   8.250
 5098POPC   C3A11969  39.183  26.850   7.950
 5098POPC   C4A11970  39.208  26.854   7.650
 5098POPC   C1B11971  39.198  26.566   8.550
 5098POPC   C2B11972  39.196  26.601   8.250
 5098POPC   C3B11973  39.245  26.604   7.950
 5098POPC   C4B11974  39.252  26.575   7.650
 5099POPC   NC311975  44.671  26.781   9.450
 5099POPC   PO411976  44.689  26.774   9.150
 5099POPC   GL111977  44.639  26.768   8.850
 5099POPC   GL211978  44.752  26.889   8.850
 5099POPC   C1A11979  44.656  26.805   8.550
 5099POPC   D2A11980  44.712  26.811   8.250
 5099POPC   C3A11981  44.638  26.867   7.950
 5099POPC   C4A11982  44.646  26.809   7.650
 5099POPC   C1B11983  44.946  26.920   8.550
 5099POPC   C2B11984  44.878  26.834   8.250
 5099POPC   C3B11985  44.927  26.891   7.950
 5099POPC   C4B11986  44.947  26.895   7.650
 5100POPC   NC311987  18.264  43.840   9.450
 5100POPC   PO411988  18.263  43.906   9.150
 5100POPC   GL111989  18.251  43.881   8.850
 5100POPC   GL211990  18.136  43.893   8.850
 5100POPC   C1A11991  18.237  43.901   8.550
 5100POPC   D2A11992  18.245  43.890   8.250
 5100POPC   C3A11993  18.310  43.925   7.950
 5100POPC   C4A11994  18.294  43.866   7.650
 5100POPC   C1B11995  18.011  43.853   8.550
 5100POPC   C2B11996  18.015  43.875   8.250
 5100POPC   C3B11997  18.045  43.826   7.950
 5100POPC   C4B11998  18.030  43.883   7.650
 5101POPC   NC311999   3.536  30.706   9.450
 5101POPC   PO412000   3.553  30.690   9.150
 5101POPC   GL112001   3.553  30.725   8.850
 5101POPC   GL212002   3.436  30.693   8.850
 5101POPC   C1A12003   3.496  30.687   8.550
 5101POPC   D2A12004   3.540  30.662   8.250
 5101POPC   C3A12005   3.531  30.654   7.950
 5101POPC   C4A12006   3.538  30.685   7.650
 5101POPC   C1B12007   3.337  30.745   8.550
 5101POPC   C2B12008   3.243  30.691   8.250
 5101POPC   C3B12009   3.249  30.716   7.950
 5101POPC   C4B12010   3.244  30.722   7.650
 5102POPC   NC312011  24.478  41.586   9.450
 5102POPC   PO412012  24.465  41.550   9.150
 5102POPC   GL112013  24.494  41.573   8.850
 5102POPC   GL212014  24.624  41.550   8.850
 5102POPC   C1A12015  24.498  41.594   8.550
 5102POPC   D2A12016  24.441  41.570   8.250
 5102POPC   C3A12017  24.469  41.586   7.950
 5102POPC   C4A12018  24.531  41.523   7.650
 5102POPC   C1B12019  24.748  41.494   8.550
 5102POPC   C2B12020  24.739  41.524   8.250
 5102POPC   C3B12021  24.729  41.528   7.950
 5102POPC   C4B12022  24.781  41.487   7.650
 5103POPC   NC312023   4.310   8.155   9.450
 5103POPC   PO412024   4.295   8.165   9.150
 5103POPC   GL112025   4.267   8.216   8.850
 5103POPC   GL212026   4.235   8.055   8.850
 5103POPC   C1A12027   4.322   8.190   8.550
 5103POPC   D2A12028   4.321   8.172   8.250
 5103POPC   C3A12029   4.275   8.229   7.950
 5103POPC   C4A12030   4.336   8.151   7.650
 5103POPC   C1B12031   4.129   8.004   8.550
 5103POPC   C2B12032   4.106   8.057   8.250
 5103POPC   C3B12033   4.168   8.045   7.950
 5103POPC   C4B12034   4.168   8.052   7.650
 5104POPC   NC312035  26.091  34.600   9.450
 5104POPC   PO412036  26.067  34.613   9.150
 5104POPC   GL112037  26.050  34.623   8.850
 5104POPC   GL212038  26.017  34.686   8.850
 5104POPC   C1A12039  26.047  34.583   8.550
 5104POPC   D2A12040  26.069  34.549   8.250
 5104POPC   C3A12041  26.055  34.597   7.950
 5104POPC   C4A12042  26.018  34.575   7.650
 5104POPC   C1B12043  25.968  34.772   8.550
 5104POPC   C2B12044  25.972  34.770   8.250
 5104POPC   C3B12045  25.908  34.796   7.950
 5104POPC   C4B12046  25.966  34.778   7.650
 5105POPC   NC312047  23.727  14.393   9.450
 5105POPC   PO412048  23.689  14.410   9.150
 5105POPC   GL112049  23.748  14.424   8.850
 5105POPC   GL212050  23.836  14.418   8.850
 5105POPC   C1A12051  23.674  14.366   8.550
 5105POPC   D2A12052  23.726  14.363   8.250
 5105POPC   C3A12053  23.685  14.376   7.950
 5105POPC   C4A12054  23.708  14.361   7.650
 5105POPC   C1B12055  23.933  14.455   8.550
 5105POPC   C2B12056  23.961  14.432   8.250
 5105POPC   C3B12057  23.929  14.422   7.950
 5105POPC   C4B12058  23.920  14.478   7.650
 5106POPC   NC312059  26.019  35.396   9.450
 5106POPC   PO412060  26.012  35.322   9.150
 5106POPC   GL112061  26.037  35.312   8.850
 5106POPC   GL212062  26.127  35.354   8.850
 5106POPC   C1A12063  26.026  35.387   8.550
 5106POPC   D2A12064  25.996  35.355   8.250
 5106POPC   C3A12065  25.995  35.331   7.950
 5106POPC   C4A12066  26.009  35.377   7.650
 5106POPC   C1B12067  26.324  35.327   8.550
 5106POPC   C2B12068  26.267  35.343   8.250
 5106POPC   C3B12069  26.322  35.364   7.950
 5106POPC   C4B12070  26.254  35.321   7.650
 5107POPC   NC312071  29.923  30.704   9.450
 5107POPC   PO412072  29.918  30.717   9.150
 5107POPC   GL112073  29.911  30.687   8.850
 5107POPC   GL212074  29.767  30.723   8.850
 5107POPC   C1A12075  29.913  30.743   8.550
 5107POPC   D2A12076  29.937  30.687   8.250
 5107POPC   C3A12077  29.930  30.746   7.950
 5107POPC   C4A12078  29.921  30.691   7.650
 5107POPC   C1B12079  29.748  30.831   8.550
 5107POPC   C2B12080  29.711  30.794   8.250
 5107POPC   C3B12081  29.672  30.799   7.950
 5107POPC   C4B12082  29.695  30.789   7.650
 5108POPC   NC312083  18.306   2.792   9.450
 5108POPC   PO412084  18.266   2.812   9.150
 5108POPC   GL112085  18.302   2.760   8.850
 5108POPC   GL212086  18.293   2.613   8.850
 5108POPC   C1A12087  18.259   2.803   8.550
 5108POPC   D2A12088  18.333   2.760   8.250
 5108POPC   C3A12089  18.307   2.750   7.950
 5108POPC   C4A12090  18.285   2.740   7.650
 5108POPC   C1B12091  18.213   2.488   8.550
 5108POPC   C2B12092  18.203   2.541   8.250
 5108POPC   C3B12093  18.191   2.486   7.950
 5108POPC   C4B12094  18.262   2.476   7.650
 5109POPC   NC312095  36.906  26.853   9.450
 5109POPC   PO412096  36.952  26.853   9.150
 5109POPC   GL112097  36.911  26.829   8.850
 5109POPC   GL212098  36.941  26.738   8.850
 5109POPC   C1A12099  36.928  26.806   8.550
 5109POPC   D2A12100  36.865  26.852   8.250
 5109POPC   C3A12101  36.868  26.805   7.950
 5109POPC   C4A12102  36.923  26.803   7.650
 5109POPC   C1B12103  37.113  26.658   8.550
 5109POPC   C2B12104  37.108  26.599   8.250
 5109POPC   C3B12105  37.063  26.667   7.950
 5109POPC   C4B12106  37.033  26.600   7.650
 5110POPC   NC312107  21.373   6.633   9.450
 5110POPC   PO412108  21.436   6.687   9.150
 5110POPC   GL112109  21.391   6.638   8.850
 5110POPC   GL212110  21.270   6.744   8.850
 5110POPC   C1A12111  21.390   6.599   8.550
 5110POPC   D2A12112  21.399   6.661   8.250
 5110POPC   C3A12113  21.360   6.653   7.950
 5110POPC   C4A12114  21.368   6.621   7.650
 5110POPC   C1B12115  21.128   6.807   8.550
 5110POPC   C2B12116  21.129   6.794   8.250
 5110POPC   C3B12117  21.183   6.736   7.950
 5110POPC   C4B12118  21.173   6.810   7.650
 5111POPC   NC312119   9.005  31.472   9.450
 5111POPC   PO412120   8.944  31.441   9.150
 5111POPC   GL112121   8.978  31.515   8.850
 5111POPC   GL212122   9.138  31.533   8.850
 5111POPC   C1A12123   8.968  31.466   8.550
 5111POPC   D2A12124   8.948  31.441   8.250
 5111POPC   C3A12125   8.948  31.477   7.950
 5111POPC   C4A12126   8.934  31.517   7.650
 5111POPC   C1B12127   9.176  31.496   8.550
 5111POPC   C2B12128   9.226  31.554   8.250
 5111POPC   C3B12129   9.205  31.507   7.950
 5111POPC   C4B12130   9.181  31.553   7.650
 5112POPC   NC312131   2.812  26.815   9.450
 5112POPC   PO412132   2.743  26.867   9.150
 5112POPC   GL112133   2.738  26.840   8.850
 5112POPC   GL212134   2.844  26.668   8.850
 5112POPC   C1A12135   2.768  26.854   8.550
 5112POPC   D2A12136   2.764  26.815   8.250
 5112POPC   C3A12137   2.756  26.774   7.950
 5112POPC   C4A12138   2.775  26.775   7.650
 5112POPC   C1B12139   2.848  26.587   8.550
 5112POPC   C2B12140   2.885  26.611   8.250
 5112POPC   C3B12141   2.852  26.621   7.950
 5112POPC   C4B12142   2.877  26.576   7.650
 5113POPC   NC312143   6.657  40.737   9.450
 5113POPC   PO412144   6.616  40.746   9.150
 5113POPC   GL112145   6.604  40.820   8.850
 5113POPC   GL212146   6.566  40.702   8.850
 5113POPC   C1A12147   6.678  40.799   8.550
 5113POPC   D2A12148   6.692  40.808   8.250
 5113POPC   C3A12149   6.612  40.794   7.950
 5113POPC   C4A12150   6.651  40.793   7.650
 5113POPC   C1B12151   6.416  40.612   8.550
 5113POPC   C2B12152   6.467  40.594   8.250
 5113POPC   C3B12153   6.476  40.648   7.950
 5113POPC   C4B12154   6.479  40.646   7.650
 5114POPC   NC312155   9.739   7.430   9.450
 5114POPC   PO412156   9.753   7.419   9.150
 5114POPC   GL112157   9.735   7.410   8.850
 5114POPC   GL212158   9.674   7.550   8.850
 5114POPC   C1A12159   9.727   7.396   8.550
 5114POPC   D2A12160   9.731   7.391   8.250
 5114POPC   C3A12161   9.711   7.375   7.950
 5114POPC   C4A12162   9.765   7.460   7.650
 5114POPC   C1B12163   9.623   7.604   8.550
 5114POPC   C2B12164   9.599   7.610   8.250
 5114POPC   C3B12165   9.663   7.633   7.950
 5114POPC   C4B12166   9.589   7.594   7.650
 5115POPC   NC312167  20.570  34.617   9.450
 5115POPC   PO412168  20.581  34.532   9.150
 5115POPC   GL112169  20.582  34.619   8.850
 5115POPC   GL212170  20.549  34.701   8.850
 5115POPC   C1A12171  20.619  34.600   8.550
 5115POPC   D2A12172  20.608  34.603   8.250
 5115POPC   C3A12173  20.643  34.530   7.950
 5115POPC   C4A12174  20.658  34.592   7.650
 5115POPC   C1B12175  20.401  34.760   8.550
 5115POPC   C2B12176  20.392  34.710   8.250
 5115POPC   C3B12177  20.478  34.800   7.950
 5115POPC   C4B12178  20.449  34.772   7.650
 5116POPC   NC312179  23.701  15.928   9.450
 5116POPC   PO412180  23.714  15.989   9.150
 5116POPC   GL112181  23.698  15.989   8.850
 5116POPC   GL212182  23.671  15.831   8.850
 5116POPC   C1A12183  23.673  15.972   8.550
 5116POPC   D2A12184  23.680  15.950   8.250
 5116POPC   C3A12185  23.717  16.002   7.950
 5116POPC   C4A12186  23.678  15.925   7.650
 5116POPC   C1B12187  23.663  15.664   8.550
 5116POPC   C2B12188  23.690  15.716   8.250
 5116POPC   C3B12189  23.699  15.683   7.950
 5116POPC   C4B12190  23.610  15.723   7.650
 5117POPC   NC312191  11.282  19.853   9.450
 5117POPC   PO412192  11.327  19.788   9.150
 5117POPC   GL112193  11.301  19.800   8.850
 5117POPC   GL212194  11.198  19.709   8.850
 5117POPC   C1A12195  11.314  19.861   8.550
 5117POPC   D2A12196  11.345  19.809   8.250
 5117POPC   C3A12197  11.284  19.823   7.950
 5117POPC   C4A12198  11.252  19.806   7.650
 5117POPC   C1B12199  11.165  19.572   8.550
 5117POPC   C2B12200  11.139  19.576   8.250
 5117POPC   C3B12201  11.201  19.601   7.950
 5117POPC   C4B12202  11.129  19.595   7.650
 5118POPC   NC312203   8.959  29.879   9.450
 5118POPC   PO412204   8.977  29.969   9.150
 5118POPC   GL112205   8.929  29.932   8.850
 5118POPC   GL212206   8.885  29.958   8.850
 5118POPC   C1A12207   8.928  29.948   8.550
 5118POPC   D2A12208   8.963  29.919   8.250
 5118POPC   C3A12209   9.008  29.918   7.950
 5118POPC   C4A12210   8.937  29.937   7.650
 5118POPC   C1B12211   8.732  30.000   8.550
 5118POPC   C2B12212   8.777  29.949   8.250
 5118POPC   C3B12213   8.692  29.948   7.950
 5118POPC   C4B12214   8.735  29.977   7.650
 5119POPC   NC312215  36.950   7.404   9.450
 5119POPC   PO412216  36.946   7.427   9.150
 5119POPC   GL112217  36.855   7.375   8.850
 5119POPC   GL212218  36.920   7.515   8.850
 5119POPC   C1A12219  36.883   7.438   8.550
 5119POPC   D2A12220  36.891   7.375   8.250
 5119POPC   C3A12221  36.855   7.467   7.950
 5119POPC   C4A12222  36.927   7.418   7.650
 5119POPC   C1B12223  36.930   7.633   8.550
 5119POPC   C2B12224  36.872   7.649   8.250
 5119POPC   C3B12225  36.912   7.631   7.950
 5119POPC   C4B12226  36.925   7.672   7.650
 5120POPC   NC312227   1.252  12.835   9.450
 5120POPC   PO412228   1.170  12.838   9.150
 5120POPC   GL112229   1.167  12.804   8.850
 5120POPC   GL212230   1.301  12.869   8.850
 5120POPC   C1A12231   1.251  12.834   8.550
 5120POPC   D2A12232   1.226  12.850   8.250
 5120POPC   C3A12233   1.178  12.809   7.950
 5120POPC   C4A12234   1.194  12.863   7.650
 5120POPC   C1B12235   1.471  12.795   8.550
 5120POPC   C2B12236   1.477  12.826   8.250
 5120POPC   C3B12237   1.474  12.845   7.950
 5120POPC   C4B12238   1.438  12.765   7.650
 5121POPC   NC312239  15.191  39.239   9.450
 5121POPC   PO412240  15.170  39.205   9.150
 5121POPC   GL112241  15.199  39.262   8.850
 5121POPC   GL212242  15.027  39.206   8.850
 5121POPC   C1A12243  15.146  39.257   8.550
 5121POPC   D2A12244  15.155  39.272   8.250
 5121POPC   C3A12245  15.151  39.246   7.950
 5121POPC   C4A12246  15.213  39.263   7.650
 5121POPC   C1B12247  14.913  39.269   8.550
 5121POPC   C2B12248  14.966  39.303   8.250
 5121POPC   C3B12249  14.891  39.225   7.950
 5121POPC   C4B12250  14.921  39.268   7.650
 5122POPC   NC312251  34.615   3.558   9.450
 5122POPC   PO412252  34.574   3.517   9.150
 5122POPC   GL112253  34.583   3.532   8.850
 5122POPC   GL212254  34.626   3.652   8.850
 5122POPC   C1A12255  34.536   3.496   8.550
 5122POPC   D2A12256  34.534   3.526   8.250
 5122POPC   C3A12257  34.621   3.559   7.950
 5122POPC   C4A12258  34.568   3.513   7.650
 5122POPC   C1B12259  34.757   3.670   8.550
 5122POPC   C2B12260  34.727   3.716   8.250
 5122POPC   C3B12261  34.741   3.703   7.950
 5122POPC   C4B12262  34.763   3.673   7.650
 5123POPC   NC312263  23.671  30.724   9.450
 5123POPC   PO412264  23.702  30.667   9.150
 5123POPC   GL112265  23.744  30.653   8.850
 5123POPC   GL212266  23.877  30.701   8.850
 5123POPC   C1A12267  23.733  30.724   8.550
 5123POPC   D2A12268  23.703  30.664   8.250
 5123POPC   C3A12269  23.696  30.706   7.950
 5123POPC   C4A12270  23.746  30.709   7.650
 5123POPC   C1B12271  23.933  30.704   8.550
 5123POPC   C2B12272  23.965  30.705   8.250
 5123POPC   C3B12273  23.980  30.757   7.950
 5123POPC   C4B12274  23.961  30.751   7.650
 5124POPC   NC312275  11.252  17.501   9.450
 5124POPC   PO412276  11.286  17.506   9.150
 5124POPC   GL112277  11.290  17.487   8.850
 5124POPC   GL212278  11.361  17.639   8.850
 5124POPC   C1A12279  11.301  17.461   8.550
 5124POPC   D2A12280  11.327  17.499   8.250
 5124POPC   C3A12281  11.262  17.525   7.950
 5124POPC   C4A12282  11.349  17.478   7.650
 5124POPC   C1B12283  11.408  17.762   8.550
 5124POPC   C2B12284  11.417  17.729   8.250
 5124POPC   C3B12285  11.382  17.722   7.950
 5124POPC   C4B12286  11.458  17.729   7.650
 5125POPC   NC312287  35.304  17.479   9.450
 5125POPC   PO412288  35.341  17.503   9.150
 5125POPC   GL112289  35.400  17.514   8.850
 5125POPC   GL212290  35.240  17.544   8.850
 5125POPC   C1A12291  35.305  17.481   8.550
 5125POPC   D2A12292  35.327  17.499   8.250
 5125POPC   C3A12293  35.392  17.497   7.950
 5125POPC   C4A12294  35.341  17.490   7.650
 5125POPC   C1B12295  35.115  17.580   8.550
 5125POPC   C2B12296  35.124  17.607   8.250
 5125POPC   C3B12297  35.167  17.674   7.950
 5125POPC   C4B12298  35.151  17.629   7.650
 5126POPC   NC312299   6.683   8.164   9.450
 5126POPC   PO412300   6.679   8.227   9.150
 5126POPC   GL112301   6.665   8.185   8.850
 5126POPC   GL212302   6.803   8.211   8.850
 5126POPC   C1A12303   6.660   8.168   8.550
 5126POPC   D2A12304   6.630   8.205   8.250
 5126POPC   C3A12305   6.609   8.164   7.950
 5126POPC   C4A12306   6.674   8.210   7.650
 5126POPC   C1B12307   6.931   8.196   8.550
 5126POPC   C2B12308   6.930   8.240   8.250
 5126POPC   C3B12309   6.919   8.154   7.950
 5126POPC   C4B12310   6.922   8.153   7.650
 5127POPC   NC312311  42.297   0.442   9.450
 5127POPC   PO412312  42.332   0.405   9.150
 5127POPC   GL112313  42.297   0.439   8.850
 5127POPC   GL212314  42.471   0.449   8.850
 5127POPC   C1A12315  42.326   0.398   8.550
 5127POPC   D2A12316  42.363   0.404   8.250
 5127POPC   C3A12317  42.316   0.454   7.950
 5127POPC   C4A12318  42.334   0.455   7.650
 5127POPC   C1B12319  42.569   0.509   8.550
 5127POPC   C2B12320  42.548   0.591   8.250
 5127POPC   C3B12321  42.567   0.571   7.950
 5127POPC   C4B12322  42.599   0.511   7.650
 5128POPC   NC312323  25.269  17.547   9.450
 5128POPC   PO412324  25.235  17.533   9.150
 5128POPC   GL112325  25.274  17.468   8.850
 5128POPC   GL212326  25.256  17.385   8.850
 5128POPC   C1A12327  25.258  17.462   8.550
 5128POPC   D2A12328  25.235  17.509   8.250
 5128POPC   C3A12329  25.257  17.512   7.950
 5128POPC   C4A12330  25.308  17.534   7.650
 5128POPC   C1B12331  25.277  17.288   8.550
 5128POPC   C2B12332  25.241  17.297   8.250
 5128POPC   C3B12333  25.320  17.231   7.950
 5128POPC   C4B12334  25.313  17.251   7.650
 5129POPC   NC312335   7.458  11.314   9.450
 5129POPC   PO412336   7.468  11.289   9.150
 5129POPC   GL112337   7.443  11.331   8.850
 5129POPC   GL212338   7.487  11.179   8.850
 5129POPC   C1A12339   7.399  11.285   8.550
 5129POPC   D2A12340   7.392  11.279   8.250
 5129POPC   C3A12341   7.386  11.259   7.950
 5129POPC   C4A12342   7.412  11.298   7.650
 5129POPC   C1B12343   7.568  11.067   8.550
 5129POPC   C2B12344   7.587  11.160   8.250
 5129POPC   C3B12345   7.600  11.092   7.950
 5129POPC   C4B12346   7.630  11.125   7.650
 5130POPC   NC312347  32.296   1.229   9.450
 5130POPC   PO412348  32.218   1.233   9.150
 5130POPC   GL112349  32.264   1.174   8.850
 5130POPC   GL212350  32.339   1.176   8.850
 5130POPC   C1A12351  32.220   1.210   8.550
 5130POPC   D2A12352  32.262   1.171   8.250
 5130POPC   C3A12353  32.257   1.189   7.950
 5130POPC   C4A12354  32.231   1.235   7.650
 5130POPC   C1B12355  32.534   1.138   8.550
 5130POPC   C2B12356  32.522   1.166   8.250
 5130POPC   C3B12357  32.505   1.156   7.950
 5130POPC   C4B12358  32.535   1.159   7.650
 5131POPC   NC312359  33.019  32.252   9.450
 5131POPC   PO412360  32.983  32.199   9.150
 5131POPC   GL112361  33.036  32.281   8.850
 5131POPC   GL212362  32.888  32.187   8.850
 5131POPC   C1A12363  33.019  32.266   8.550
 5131POPC   D2A12364  33.065  32.225   8.250
 5131POPC   C3A12365  33.030  32.235   7.950
 5131POPC   C4A12366  32.986  32.244   7.650
 5131POPC   C1B12367  32.748  32.240   8.550
 5131POPC   C2B12368  32.749  32.252   8.250
 5131POPC   C3B12369  32.727  32.220   7.950
 5131POPC   C4B12370  32.819  32.223   7.650
 5132POPC   NC312371  26.047   3.529   9.450
 5132POPC   PO412372  26.055   3.521   9.150
 5132POPC   GL112373  26.035   3.571   8.850
 5132POPC   GL212374  25.973   3.653   8.850
 5132POPC   C1A12375  25.998   3.503   8.550
 5132POPC   D2A12376  25.999   3.539   8.250
 5132POPC   C3A12377  26.033   3.585   7.950
 5132POPC   C4A12378  26.025   3.583   7.650
 5132POPC   C1B12379  25.935   3.778   8.550
 5132POPC   C2B12380  25.895   3.765   8.250
 5132POPC   C3B12381  25.954   3.733   7.950
 5132POPC   C4B12382  25.966   3.782   7.650
 5133POPC   NC312383  27.547   9.003   9.450
 5133POPC   PO412384  27.602   8.929   9.150
 5133POPC   GL112385  27.600   8.961   8.850
 5133POPC   GL212386  27.512   9.011   8.850
 5133POPC   C1A12387  27.587   8.973   8.550
 5133POPC   D2A12388  27.576   8.939   8.250
 5133POPC   C3A12389  27.577   9.018   7.950
 5133POPC   C4A12390  27.642   8.970   7.650
 5133POPC   C1B12391  27.354   8.958   8.550
 5133POPC   C2B12392  27.373   8.982   8.250
 5133POPC   C3B12393  27.314   8.948   7.950
 5133POPC   C4B12394  27.321   8.986   7.650
 5134POPC   NC312395   7.417   0.398   9.450
 5134POPC   PO412396   7.394   0.445   9.150
 5134POPC   GL112397   7.407   0.443   8.850
 5134POPC   GL212398   7.257   0.376   8.850
 5134POPC   C1A12399   7.405   0.485   8.550
 5134POPC   D2A12400   7.453   0.408   8.250
 5134POPC   C3A12401   7.389   0.430   7.950
 5134POPC   C4A12402   7.469   0.458   7.650
 5134POPC   C1B12403   7.137   0.345   8.550
 5134POPC   C2B12404   7.235   0.399   8.250
 5134POPC   C3B12405   7.188   0.378   7.950
 5134POPC   C4B12406   7.231   0.373   7.650
 5135POPC   NC312407  35.337  32.991   9.450
 5135POPC   PO412408  35.346  33.016   9.150
 5135POPC   GL112409  35.373  33.040   8.850
 5135POPC   GL212410  35.433  32.936   8.850
 5135POPC   C1A12411  35.338  33.041   8.550
 5135POPC   D2A12412  35.347  33.010   8.250
 5135POPC   C3A12413  35.311  33.045   7.950
 5135POPC   C4A12414  35.376  33.027   7.650
 5135POPC   C1B12415  35.480  32.779   8.550
 5135POPC   C2B12416  35.488  32.790   8.250
 5135POPC   C3B12417  35.509  32.792   7.950
 5135POPC   C4B12418  35.489  32.854   7.650
 5136POPC   NC312419  17.465  12.046   9.450
 5136POPC   PO412420  17.525  12.096   9.150
 5136POPC   GL112421  17.511  12.073   8.850
 5136POPC   GL212422  17.554  11.962   8.850
 5136POPC   C1A12423  17.544  12.062   8.550
 5136POPC   D2A12424  17.475  12.068   8.250
 5136POPC   C3A12425  17.506  12.034   7.950
 5136POPC   C4A12426  17.480  12.100   7.650
 5136POPC   C1B12427  17.570  11.802   8.550
 5136POPC   C2B12428  17.603  11.852   8.250
 5136POPC   C3B12429  17.562  11.794   7.950
 5136POPC   C4B12430  17.531  11.863   7.650
 5137POPC   NC312431  17.538  33.794   9.450
 5137POPC   PO412432  17.544  33.805   9.150
 5137POPC   GL112433  17.551  33.753   8.850
 5137POPC   GL212434  17.621  33.738   8.850
 5137POPC   C1A12435  17.508  33.815   8.550
 5137POPC   D2A12436  17.466  33.786   8.250
 5137POPC   C3A12437  17.491  33.779   7.950
 5137POPC   C4A12438  17.489  33.798   7.650
 5137POPC   C1B12439  17.684  33.590   8.550
 5137POPC   C2B12440  17.685  33.581   8.250
 5137POPC   C3B12441  17.619  33.567   7.950
 5137POPC   C4B12442  17.699  33.635   7.650
 5138POPC   NC312443   8.154  29.966   9.450
 5138POPC   PO412444   8.210  29.906   9.150
 5138POPC   GL112445   8.149  29.916   8.850
 5138POPC   GL212446   8.262  29.914   8.850
 5138POPC   C1A12447   8.154  29.899   8.550
 5138POPC   D2A12448   8.195  29.926   8.250
 5138POPC   C3A12449   8.228  29.882   7.950
 5138POPC   C4A12450   8.165  29.947   7.650
 5138POPC   C1B12451   8.406  29.815   8.550
 5138POPC   C2B12452   8.435  29.788   8.250
 5138POPC   C3B12453   8.416  29.843   7.950
 5138POPC   C4B12454   8.408  29.851   7.650
 5139POPC   NC312455  41.552   0.403   9.450
 5139POPC   PO412456  41.555   0.434   9.150
 5139POPC   GL112457  41.543   0.476   8.850
 5139POPC   GL212458  41.514   0.520   8.850
 5139POPC   C1A12459  41.601   0.394   8.550
 5139POPC   D2A12460  41.570   0.478   8.250
 5139POPC   C3A12461  41.543   0.477   7.950
 5139POPC   C4A12462  41.570   0.405   7.650
 5139POPC   C1B12463  41.505   0.657   8.550
 5139POPC   C2B12464  41.515   0.637   8.250
 5139POPC   C3B12465  41.517   0.660   7.950
 5139POPC   C4B12466  41.497   0.690   7.650
 5140POPC   NC312467  24.456  13.638   9.450
 5140POPC   PO412468  24.466  13.648   9.150
 5140POPC   GL112469  24.486  13.659   8.850
 5140POPC   GL212470  24.414  13.457   8.850
 5140POPC   C1A12471  24.451  13.579   8.550
 5140POPC   D2A12472  24.478  13.611   8.250
 5140POPC   C3A12473  24.539  13.606   7.950
 5140POPC   C4A12474  24.465  13.626   7.650
 5140POPC   C1B12475  24.425  13.337   8.550
 5140POPC   C2B12476  24.454  13.392   8.250
 5140POPC   C3B12477  24.439  13.342   7.950
 5140POPC   C4B12478  24.435  13.352   7.650
 5141POPC   NC312479  29.127  17.498   9.450
 5141POPC   PO412480  29.190  17.549   9.150
 5141POPC   GL112481  29.104  17.524   8.850
 5141POPC   GL212482  29.024  17.451   8.850
 5141POPC   C1A12483  29.155  17.503   8.550
 5141POPC   D2A12484  29.144  17.463   8.250
 5141POPC   C3A12485  29.156  17.500   7.950
 5141POPC   C4A12486  29.095  17.527   7.650
 5141POPC   C1B12487  28.954  17.308   8.550
 5141POPC   C2B12488  29.005  17.325   8.250
 5141POPC   C3B12489  28.911  17.385   7.950
 5141POPC   C4B12490  28.966  17.364   7.650
 5142POPC   NC312491  30.686  21.370   9.450
 5142POPC   PO412492  30.742  21.414   9.150
 5142POPC   GL112493  30.690  21.434   8.850
 5142POPC   GL212494  30.646  21.265   8.850
 5142POPC   C1A12495  30.675  21.434   8.550
 5142POPC   D2A12496  30.709  21.400   8.250
 5142POPC   C3A12497  30.725  21.345   7.950
 5142POPC   C4A12498  30.676  21.390   7.650
 5142POPC   C1B12499  30.723  21.176   8.550
 5142POPC   C2B12500  30.723  21.111   8.250
 5142POPC   C3B12501  30.678  21.099   7.950
 5142POPC   C4B12502  30.643  21.122   7.650
 5143POPC   NC312503  36.105   9.008   9.450
 5143POPC   PO412504  36.172   8.965   9.150
 5143POPC   GL112505  36.113   9.014   8.850
 5143POPC   GL212506  35.969   8.959   8.850
 5143POPC   C1A12507  36.150   8.949   8.550
 5143POPC   D2A12508  36.092   8.923   8.250
 5143POPC   C3A12509  36.099   9.002   7.950
 5143POPC   C4A12510  36.136   8.965   7.650
 5143POPC   C1B12511  35.898   8.931   8.550
 5143POPC   C2B12512  35.871   8.958   8.250
 5143POPC   C3B12513  35.879   8.898   7.950
 5143POPC   C4B12514  35.840   8.941   7.650
 5144POPC   NC312515  33.028  21.389   9.450
 5144POPC   PO412516  32.976  21.393   9.150
 5144POPC   GL112517  33.071  21.356   8.850
 5144POPC   GL212518  32.932  21.344   8.850
 5144POPC   C1A12519  33.041  21.377   8.550
 5144POPC   D2A12520  33.066  21.423   8.250
 5144POPC   C3A12521  32.981  21.411   7.950
 5144POPC   C4A12522  33.021  21.408   7.650
 5144POPC   C1B12523  32.827  21.238   8.550
 5144POPC   C2B12524  32.849  21.208   8.250
 5144POPC   C3B12525  32.820  21.238   7.950
 5144POPC   C4B12526  32.797  21.195   7.650
 5145POPC   NC312527  13.658   2.765   9.450
 5145POPC   PO412528  13.668   2.805   9.150
 5145POPC   GL112529  13.649   2.768   8.850
 5145POPC   GL212530  13.601   2.632   8.850
 5145POPC   C1A12531  13.611   2.813   8.550
 5145POPC   D2A12532  13.668   2.767   8.250
 5145POPC   C3A12533  13.614   2.741   7.950
 5145POPC   C4A12534  13.619   2.780   7.650
 5145POPC   C1B12535  13.612   2.474   8.550
 5145POPC   C2B12536  13.623   2.484   8.250
 5145POPC   C3B12537  13.634   2.529   7.950
 5145POPC   C4B12538  13.649   2.528   7.650
 5146POPC   NC312539  11.265  11.333   9.450
 5146POPC   PO412540  11.291  11.323   9.150
 5146POPC   GL112541  11.287  11.280   8.850
 5146POPC   GL212542  11.318  11.433   8.850
 5146POPC   C1A12543  11.258  11.288   8.550
 5146POPC   D2A12544  11.253  11.318   8.250
 5146POPC   C3A12545  11.302  11.266   7.950
 5146POPC   C4A12546  11.339  11.309   7.650
 5146POPC   C1B12547  11.356  11.520   8.550
 5146POPC   C2B12548  11.353  11.565   8.250
 5146POPC   C3B12549  11.319  11.575   7.950
 5146POPC   C4B12550  11.293  11.543   7.650
 5147POPC   NC312551  41.576  21.399   9.450
 5147POPC   PO412552  41.557  21.417   9.150
 5147POPC   GL112553  41.526  21.414   8.850
 5147POPC   GL212554  41.413  21.398   8.850
 5147POPC   C1A12555  41.540  21.362   8.550
 5147POPC   D2A12556  41.531  21.367   8.250
 5147POPC   C3A12557  41.577  21.347   7.950
 5147POPC   C4A12558  41.515  21.346   7.650
 5147POPC   C1B12559  41.271  21.368   8.550
 5147POPC   C2B12560  41.282  21.405   8.250
 5147POPC   C3B12561  41.309  21.425   7.950
 5147POPC   C4B12562  41.334  21.417   7.650
 5148POPC   NC312563  34.583  18.311   9.450
 5148POPC   PO412564  34.598  18.332   9.150
 5148POPC   GL112565  34.604  18.291   8.850
 5148POPC   GL212566  34.567  18.178   8.850
 5148POPC   C1A12567  34.581  18.320   8.550
 5148POPC   D2A12568  34.588  18.253   8.250
 5148POPC   C3A12569  34.564  18.321   7.950
 5148POPC   C4A12570  34.555  18.249   7.650
 5148POPC   C1B12571  34.481  18.050   8.550
 5148POPC   C2B12572  34.574  17.996   8.250
 5148POPC   C3B12573  34.527  18.017   7.950
 5148POPC   C4B12574  34.535  18.042   7.650
 5149POPC   NC312575  43.124  19.096   9.450
 5149POPC   PO412576  43.105  19.045   9.150
 5149POPC   GL112577  43.124  19.058   8.850
 5149POPC   GL212578  43.069  19.182   8.850
 5149POPC   C1A12579  43.141  19.019   8.550
 5149POPC   D2A12580  43.159  19.025   8.250
 5149POPC   C3A12581  43.146  19.098   7.950
 5149POPC   C4A12582  43.137  19.035   7.650
 5149POPC   C1B12583  43.114  19.284   8.550
 5149POPC   C2B12584  43.091  19.321   8.250
 5149POPC   C3B12585  43.098  19.276   7.950
 5149POPC   C4B12586  43.109  19.295   7.650
 5150POPC   NC312587  14.453  42.290   9.450
 5150POPC   PO412588  14.438  42.285   9.150
 5150POPC   GL112589  14.409  42.312   8.850
 5150POPC   GL212590  14.397  42.425   8.850
 5150POPC   C1A12591  14.370  42.343   8.550
 5150POPC   D2A12592  14.417  42.351   8.250
 5150POPC   C3A12593  14.430  42.342   7.950
 5150POPC   C4A12594  14.435  42.346   7.650
 5150POPC   C1B12595  14.450  42.610   8.550
 5150POPC   C2B12596  14.421  42.566   8.250
 5150POPC   C3B12597  14.382  42.603   7.950
 5150POPC   C4B12598  14.458  42.615   7.650
 5151POPC   NC312599  42.337  15.153   9.450
 5151POPC   PO412600  42.326  15.223   9.150
 5151POPC   GL112601  42.348  15.146   8.850
 5151POPC   GL212602  42.236  15.325   8.850
 5151POPC   C1A12603  42.366  15.209   8.550
 5151POPC   D2A12604  42.335  15.154   8.250
 5151POPC   C3A12605  42.297  15.129   7.950
 5151POPC   C4A12606  42.342  15.163   7.650
 5151POPC   C1B12607  42.231  15.364   8.550
 5151POPC   C2B12608  42.204  15.408   8.250
 5151POPC   C3B12609  42.182  15.398   7.950
 5151POPC   C4B12610  42.201  15.429   7.650
 5152POPC   NC312611  39.961  42.370   9.450
 5152POPC   PO412612  40.030  42.326   9.150
 5152POPC   GL112613  40.044  42.339   8.850
 5152POPC   GL212614  40.111  42.258   8.850
 5152POPC   C1A12615  39.974  42.315   8.550
 5152POPC   D2A12616  39.977  42.362   8.250
 5152POPC   C3A12617  39.998  42.371   7.950
 5152POPC   C4A12618  39.992  42.320   7.650
 5152POPC   C1B12619  40.217  42.237   8.550
 5152POPC   C2B12620  40.190  42.190   8.250
 5152POPC   C3B12621  40.281  42.250   7.950
 5152POPC   C4B12622  40.197  42.268   7.650
 5153POPC   NC312623  36.893  35.372   9.450
 5153POPC   PO412624  36.924  35.389   9.150
 5153POPC   GL112625  36.925  35.364   8.850
 5153POPC   GL212626  36.895  35.228   8.850
 5153POPC   C1A12627  36.901  35.341   8.550
 5153POPC   D2A12628  36.916  35.400   8.250
 5153POPC   C3A12629  36.902  35.331   7.950
 5153POPC   C4A12630  36.886  35.346   7.650
 5153POPC   C1B12631  36.800  35.156   8.550
 5153POPC   C2B12632  36.839  35.112   8.250
 5153POPC   C3B12633  36.825  35.153   7.950
 5153POPC   C4B12634  36.775  35.149   7.650
 5154POPC   NC312635  27.643   0.415   9.450
 5154POPC   PO412636  27.636   0.431   9.150
 5154POPC   GL112637  27.612   0.440   8.850
 5154POPC   GL212638  27.516   0.535   8.850
 5154POPC   C1A12639  27.611   0.407   8.550
 5154POPC   D2A12640  27.616   0.472   8.250
 5154POPC   C3A12641  27.606   0.409   7.950
 5154POPC   C4A12642  27.567   0.468   7.650
 5154POPC   C1B12643  27.451   0.635   8.550
 5154POPC   C2B12644  27.451   0.623   8.250
 5154POPC   C3B12645  27.373   0.629   7.950
 5154POPC   C4B12646  27.449   0.554   7.650
 5155POPC   NC312647  18.239  35.348   9.450
 5155POPC   PO412648  18.255  35.310   9.150
 5155POPC   GL112649  18.246  35.396   8.850
 5155POPC   GL212650  18.293  35.265   8.850
 5155POPC   C1A12651  18.317  35.389   8.550
 5155POPC   D2A12652  18.235  35.358   8.250
 5155POPC   C3A12653  18.321  35.340   7.950
 5155POPC   C4A12654  18.305  35.398   7.650
 5155POPC   C1B12655  18.377  35.161   8.550
 5155POPC   C2B12656  18.407  35.071   8.250
 5155POPC   C3B12657  18.393  35.126   7.950
 5155POPC   C4B12658  18.381  35.132   7.650
 5156POPC   NC312659  27.605  22.176   9.450
 5156POPC   PO412660  27.612  22.170   9.150
 5156POPC   GL112661  27.566  22.178   8.850
 5156POPC   GL212662  27.634  22.315   8.850
 5156POPC   C1A12663  27.579  22.211   8.550
 5156POPC   D2A12664  27.633  22.123   8.250
 5156POPC   C3A12665  27.613  22.134   7.950
 5156POPC   C4A12666  27.615  22.198   7.650
 5156POPC   C1B12667  27.657  22.393   8.550
 5156POPC   C2B12668  27.699  22.386   8.250
 5156POPC   C3B12669  27.729  22.377   7.950
 5156POPC   C4B12670  27.665  22.415   7.650
 5157POPC   NC312671  38.416  29.100   9.450
 5157POPC   PO412672  38.443  29.171   9.150
 5157POPC   GL112673  38.457  29.098   8.850
 5157POPC   GL212674  38.437  29.009   8.850
 5157POPC   C1A12675  38.450  29.141   8.550
 5157POPC   D2A12676  38.492  29.137   8.250
 5157POPC   C3A12677  38.470  29.132   7.950
 5157POPC   C4A12678  38.473  29.133   7.650
 5157POPC   C1B12679  38.520  28.924   8.550
 5157POPC   C2B12680  38.470  28.936   8.250
 5157POPC   C3B12681  38.514  28.915   7.950
 5157POPC   C4B12682  38.521  28.853   7.650
 5158POPC   NC312683  19.881  14.442   9.450
 5158POPC   PO412684  19.871  14.421   9.150
 5158POPC   GL112685  19.881  14.416   8.850
 5158POPC   GL212686  19.945  14.312   8.850
 5158POPC   C1A12687  19.820  14.391   8.550
 5158POPC   D2A12688  19.796  14.405   8.250
 5158POPC   C3A12689  19.878  14.394   7.950
 5158POPC   C4A12690  19.842  14.451   7.650
 5158POPC   C1B12691  20.001  14.227   8.550
 5158POPC   C2B12692  19.970  14.168   8.250
 5158POPC   C3B12693  20.012  14.222   7.950
 5158POPC   C4B12694  20.002  14.190   7.650
 5159POPC   NC312695  26.080  42.299   9.450
 5159POPC   PO412696  26.064  42.373   9.150
 5159POPC   GL112697  26.083  42.288   8.850
 5159POPC   GL212698  26.147  42.222   8.850
 5159POPC   C1A12699  26.051  42.376   8.550
 5159POPC   D2A12700  26.020  42.357   8.250
 5159POPC   C3A12701  26.015  42.291   7.950
 5159POPC   C4A12702  26.047  42.379   7.650
 5159POPC   C1B12703  26.187  42.125   8.550
 5159POPC   C2B12704  26.281  42.203   8.250
 5159POPC   C3B12705  26.219  42.158   7.950
 5159POPC   C4B12706  26.240  42.147   7.650
 5160POPC   NC312707  26.056  19.055   9.450
 5160POPC   PO412708  26.085  19.083   9.150
 5160POPC   GL112709  26.055  19.083   8.850
 5160POPC   GL212710  26.120  19.213   8.850
 5160POPC   C1A12711  26.019  19.010   8.550
 5160POPC   D2A12712  26.063  19.075   8.250
 5160POPC   C3A12713  26.077  19.072   7.950
 5160POPC   C4A12714  26.034  19.027   7.650
 5160POPC   C1B12715  26.135  19.244   8.550
 5160POPC   C2B12716  26.166  19.254   8.250
 5160POPC   C3B12717  26.142  19.334   7.950
 5160POPC   C4B12718  26.150  19.282   7.650
 5161POPC   NC312719  26.091  25.240   9.450
 5161POPC   PO412720  26.084  25.259   9.150
 5161POPC   GL112721  26.072  25.269   8.850
 5161POPC   GL212722  25.902  25.308   8.850
 5161POPC   C1A12723  26.035  25.278   8.550
 5161POPC   D2A12724  26.013  25.282   8.250
 5161POPC   C3A12725  26.080  25.291   7.950
 5161POPC   C4A12726  26.072  25.231   7.650
 5161POPC   C1B12727  25.906  25.390   8.550
 5161POPC   C2B12728  25.886  25.483   8.250
 5161POPC   C3B12729  25.816  25.416   7.950
 5161POPC   C4B12730  25.841  25.477   7.650
 5162POPC   NC312731  38.484  36.900   9.450
 5162POPC   PO412732  38.415  36.894   9.150
 5162POPC   GL112733  38.439  36.862   8.850
 5162POPC   GL212734  38.343  36.917   8.850
 5162POPC   C1A12735  38.500  36.880   8.550
 5162POPC   D2A12736  38.426  36.916   8.250
 5162POPC   C3A12737  38.492  36.868   7.950
 5162POPC   C4A12738  38.414  36.950   7.650
 5162POPC   C1B12739  38.203  36.953   8.550
 5162POPC   C2B12740  38.195  36.937   8.250
 5162POPC   C3B12741  38.184  36.913   7.950
 5162POPC   C4B12742  38.232  36.911   7.650
 5163POPC   NC312743  39.250  27.616   9.450
 5163POPC   PO412744  39.220  27.589   9.150
 5163POPC   GL112745  39.198  27.635   8.850
 5163POPC   GL212746  39.369  27.681   8.850
 5163POPC   C1A12747  39.270  27.632   8.550
 5163POPC   D2A12748  39.205  27.564   8.250
 5163POPC   C3A12749  39.213  27.585   7.950
 5163POPC   C4A12750  39.194  27.577   7.650
 5163POPC   C1B12751  39.384  27.728   8.550
 5163POPC   C2B12752  39.470  27.767   8.250
 5163POPC   C3B12753  39.438  27.774   7.950
 5163POPC   C4B12754  39.468  27.719   7.650
 5164POPC   NC312755  28.365  24.482   9.450
 5164POPC   PO412756  28.345  24.498   9.150
 5164POPC   GL112757  28.415  24.522   8.850
 5164POPC   GL212758  28.223  24.434   8.850
 5164POPC   C1A12759  28.338  24.503   8.550
 5164POPC   D2A12760  28.351  24.451   8.250
 5164POPC   C3A12761  28.353  24.459   7.950
 5164POPC   C4A12762  28.333  24.447   7.650
 5164POPC   C1B12763  28.105  24.403   8.550
 5164POPC   C2B12764  28.125  24.383   8.250
 5164POPC   C3B12765  28.141  24.399   7.950
 5164POPC   C4B12766  28.153  24.369   7.650
 5165POPC   NC312767  39.243   5.099   9.450
 5165POPC   PO412768  39.207   5.053   9.150
 5165POPC   GL112769  39.210   5.058   8.850
 5165POPC   GL212770  39.145   5.178   8.850
 5165POPC   C1A12771  39.267   5.095   8.550
 5165POPC   D2A12772  39.255   5.052   8.250
 5165POPC   C3A12773  39.214   5.067   7.950
 5165POPC   C4A12774  39.249   5.086   7.650
 5165POPC   C1B12775  39.198   5.298   8.550
 5165POPC   C2B12776  39.205   5.304   8.250
 5165POPC   C3B12777  39.182   5.314   7.950
 5165POPC   C4B12778  39.148   5.363   7.650
 5166POPC   NC312779  29.167  37.648   9.450
 5166POPC   PO412780  29.143  37.706   9.150
 5166POPC   GL112781  29.148  37.679   8.850
 5166POPC   GL212782  29.072  37.595   8.850
 5166POPC   C1A12783  29.128  37.648   8.550
 5166POPC   D2A12784  29.156  37.630   8.250
 5166POPC   C3A12785  29.168  37.678   7.950
 5166POPC   C4A12786  29.121  37.637   7.650
 5166POPC   C1B12787  29.000  37.480   8.550
 5166POPC   C2B12788  28.938  37.510   8.250
 5166POPC   C3B12789  28.979  37.556   7.950
 5166POPC   C4B12790  28.996  37.512   7.650
 5167POPC   NC312791  38.441   4.295   9.450
 5167POPC   PO412792  38.418   4.342   9.150
 5167POPC   GL112793  38.485   4.329   8.850
 5167POPC   GL212794  38.293   4.254   8.850
 5167POPC   C1A12795  38.476   4.342   8.550
 5167POPC   D2A12796  38.447   4.322   8.250
 5167POPC   C3A12797  38.491   4.352   7.950
 5167POPC   C4A12798  38.414   4.279   7.650
 5167POPC   C1B12799  38.234   4.211   8.550
 5167POPC   C2B12800  38.206   4.204   8.250
 5167POPC   C3B12801  38.201   4.219   7.950
 5167POPC   C4B12802  38.220   4.189   7.650
 5168POPC   NC312803   5.891  36.913   9.450
 5168POPC   PO412804   5.883  36.878   9.150
 5168POPC   GL112805   5.839  36.917   8.850
 5168POPC   GL212806   5.868  36.818   8.850
 5168POPC   C1A12807   5.849  36.880   8.550
 5168POPC   D2A12808   5.832  36.953   8.250
 5168POPC   C3A12809   5.884  36.912   7.950
 5168POPC   C4A12810   5.862  36.864   7.650
 5168POPC   C1B12811   5.969  36.621   8.550
 5168POPC   C2B12812   5.964  36.702   8.250
 5168POPC   C3B12813   5.947  36.616   7.950
 5168POPC   C4B12814   5.909  36.647   7.650
 5169POPC   NC312815  28.369  20.597   9.450
 5169POPC   PO412816  28.411  20.632   9.150
 5169POPC   GL112817  28.371  20.602   8.850
 5169POPC   GL212818  28.248  20.639   8.850
 5169POPC   C1A12819  28.360  20.630   8.550
 5169POPC   D2A12820  28.355  20.596   8.250
 5169POPC   C3A12821  28.352  20.657   7.950
 5169POPC   C4A12822  28.418  20.583   7.650
 5169POPC   C1B12823  28.156  20.673   8.550
 5169POPC   C2B12824  28.132  20.708   8.250
 5169POPC   C3B12825  28.180  20.675   7.950
 5169POPC   C4B12826  28.157  20.717   7.650
 5170POPC   NC312827  28.411  23.734   9.450
 5170POPC   PO412828  28.384  23.754   9.150
 5170POPC   GL112829  28.361  23.736   8.850
 5170POPC   GL212830  28.262  23.582   8.850
 5170POPC   C1A12831  28.393  23.717   8.550
 5170POPC   D2A12832  28.346  23.673   8.250
 5170POPC   C3A12833  28.384  23.757   7.950
 5170POPC   C4A12834  28.322  23.678   7.650
 5170POPC   C1B12835  28.249  23.505   8.550
 5170POPC   C2B12836  28.256  23.533   8.250
 5170POPC   C3B12837  28.260  23.490   7.950
 5170POPC   C4B12838  28.240  23.505   7.650
 5171POPC   NC312839   1.967  19.817   9.450
 5171POPC   PO412840   1.951  19.838   9.150
 5171POPC   GL112841   1.947  19.856   8.850
 5171POPC   GL212842   1.869  19.855   8.850
 5171POPC   C1A12843   1.999  19.858   8.550
 5171POPC   D2A12844   2.004  19.833   8.250
 5171POPC   C3A12845   2.011  19.819   7.950
 5171POPC   C4A12846   2.000  19.794   7.650
 5171POPC   C1B12847   1.756  19.890   8.550
 5171POPC   C2B12848   1.736  19.896   8.250
 5171POPC   C3B12849   1.749  19.912   7.950
 5171POPC   C4B12850   1.746  19.950   7.650
 5172POPC   NC312851  40.817  15.927   9.450
 5172POPC   PO412852  40.800  15.984   9.150
 5172POPC   GL112853  40.826  15.943   8.850
 5172POPC   GL212854  40.916  16.004   8.850
 5172POPC   C1A12855  40.753  15.913   8.550
 5172POPC   D2A12856  40.805  15.969   8.250
 5172POPC   C3A12857  40.762  15.994   7.950
 5172POPC   C4A12858  40.780  15.917   7.650
 5172POPC   C1B12859  40.996  16.123   8.550
 5172POPC   C2B12860  40.999  16.048   8.250
 5172POPC   C3B12861  40.997  16.084   7.950
 5172POPC   C4B12862  41.000  16.060   7.650
 5173POPC   NC312863  22.168  19.869   9.450
 5173POPC   PO412864  22.172  19.878   9.150
 5173POPC   GL112865  22.137  19.873   8.850
 5173POPC   GL212866  22.032  19.940   8.850
 5173POPC   C1A12867  22.168  19.833   8.550
 5173POPC   D2A12868  22.131  19.869   8.250
 5173POPC   C3A12869  22.137  19.789   7.950
 5173POPC   C4A12870  22.195  19.882   7.650
 5173POPC   C1B12871  21.947  20.008   8.550
 5173POPC   C2B12872  22.003  20.024   8.250
 5173POPC   C3B12873  22.001  20.021   7.950
 5173POPC   C4B12874  21.965  20.015   7.650
 5174POPC   NC312875  26.833  18.250   9.450
 5174POPC   PO412876  26.823  18.296   9.150
 5174POPC   GL112877  26.827  18.244   8.850
 5174POPC   GL212878  26.955  18.320   8.850
 5174POPC   C1A12879  26.775  18.321   8.550
 5174POPC   D2A12880  26.779  18.312   8.250
 5174POPC   C3A12881  26.770  18.315   7.950
 5174POPC   C4A12882  26.863  18.306   7.650
 5174POPC   C1B12883  27.054  18.298   8.550
 5174POPC   C2B12884  27.035  18.256   8.250
 5174POPC   C3B12885  27.036  18.251   7.950
 5174POPC   C4B12886  27.101  18.325   7.650
 5175POPC   NC312887  34.590   5.139   9.450
 5175POPC   PO412888  34.607   5.061   9.150
 5175POPC   GL112889  34.577   5.052   8.850
 5175POPC   GL212890  34.586   5.017   8.850
 5175POPC   C1A12891  34.593   5.134   8.550
 5175POPC   D2A12892  34.573   5.095   8.250
 5175POPC   C3A12893  34.612   5.066   7.950
 5175POPC   C4A12894  34.539   5.107   7.650
 5175POPC   C1B12895  34.637   4.865   8.550
 5175POPC   C2B12896  34.592   4.867   8.250
 5175POPC   C3B12897  34.651   4.858   7.950
 5175POPC   C4B12898  34.656   4.822   7.650
 5176POPC   NC312899   4.357  30.744   9.450
 5176POPC   PO412900   4.294  30.705   9.150
 5176POPC   GL112901   4.282  30.713   8.850
 5176POPC   GL212902   4.326  30.823   8.850
 5176POPC   C1A12903   4.353  30.689   8.550
 5176POPC   D2A12904   4.279  30.659   8.250
 5176POPC   C3A12905   4.356  30.738   7.950
 5176POPC   C4A12906   4.337  30.687   7.650
 5176POPC   C1B12907   4.350  30.970   8.550
 5176POPC   C2B12908   4.342  30.899   8.250
 5176POPC   C3B12909   4.306  30.974   7.950
 5176POPC   C4B12910   4.313  30.979   7.650
 5177POPC   NC312911  27.639  11.253   9.450
 5177POPC   PO412912  27.597  11.265   9.150
 5177POPC   GL112913  27.642  11.288   8.850
 5177POPC   GL212914  27.649  11.212   8.850
 5177POPC   C1A12915  27.622  11.272   8.550
 5177POPC   D2A12916  27.578  11.273   8.250
 5177POPC   C3A12917  27.635  11.319   7.950
 5177POPC   C4A12918  27.557  11.323   7.650
 5177POPC   C1B12919  27.746  11.089   8.550
 5177POPC   C2B12920  27.745  11.066   8.250
 5177POPC   C3B12921  27.751  11.115   7.950
 5177POPC   C4B12922  27.763  11.062   7.650
 5178POPC   NC312923  43.881  22.116   9.450
 5178POPC   PO412924  43.874  22.134   9.150
 5178POPC   GL112925  43.845  22.197   8.850
 5178POPC   GL212926  43.809  22.080   8.850
 5178POPC   C1A12927  43.887  22.119   8.550
 5178POPC   D2A12928  43.858  22.137   8.250
 5178POPC   C3A12929  43.884  22.119   7.950
 5178POPC   C4A12930  43.887  22.201   7.650
 5178POPC   C1B12931  43.651  22.024   8.550
 5178POPC   C2B12932  43.679  22.075   8.250
 5178POPC   C3B12933  43.649  22.035   7.950
 5178POPC   C4B12934  43.669  22.032   7.650
 5179POPC   NC312935  28.360  39.183   9.450
 5179POPC   PO412936  28.379  39.263   9.150
 5179POPC   GL112937  28.340  39.224   8.850
 5179POPC   GL212938  28.476  39.262   8.850
 5179POPC   C1A12939  28.322  39.230   8.550
 5179POPC   D2A12940  28.328  39.257   8.250
 5179POPC   C3A12941  28.320  39.239   7.950
 5179POPC   C4A12942  28.372  39.267   7.650
 5179POPC   C1B12943  28.581  39.311   8.550
 5179POPC   C2B12944  28.580  39.359   8.250
 5179POPC   C3B12945  28.582  39.358   7.950
 5179POPC   C4B12946  28.569  39.356   7.650
 5180POPC   NC312947  31.476  19.085   9.450
 5180POPC   PO412948  31.434  19.074   9.150
 5180POPC   GL112949  31.490  19.027   8.850
 5180POPC   GL212950  31.417  18.902   8.850
 5180POPC   C1A12951  31.442  19.038   8.550
 5180POPC   D2A12952  31.503  19.043   8.250
 5180POPC   C3A12953  31.466  19.023   7.950
 5180POPC   C4A12954  31.445  19.083   7.650
 5180POPC   C1B12955  31.324  18.820   8.550
 5180POPC   C2B12956  31.369  18.860   8.250
 5180POPC   C3B12957  31.384  18.867   7.950
 5180POPC   C4B12958  31.328  18.823   7.650
 5181POPC   NC312959  33.801  36.162   9.450
 5181POPC   PO412960  33.817  36.172   9.150
 5181POPC   GL112961  33.805  36.156   8.850
 5181POPC   GL212962  33.969  36.102   8.850
 5181POPC   C1A12963  33.786  36.177   8.550
 5181POPC   D2A12964  33.814  36.117   8.250
 5181POPC   C3A12965  33.842  36.145   7.950
 5181POPC   C4A12966  33.782  36.092   7.650
 5181POPC   C1B12967  34.000  36.192   8.550
 5181POPC   C2B12968  34.083  36.199   8.250
 5181POPC   C3B12969  34.017  36.149   7.950
 5181POPC   C4B12970  34.071  36.146   7.650
 5182POPC   NC312971  28.362   6.691   9.450
 5182POPC   PO412972  28.397   6.658   9.150
 5182POPC   GL112973  28.389   6.689   8.850
 5182POPC   GL212974  28.327   6.764   8.850
 5182POPC   C1A12975  28.330   6.643   8.550
 5182POPC   D2A12976  28.353   6.643   8.250
 5182POPC   C3A12977  28.381   6.600   7.950
 5182POPC   C4A12978  28.409   6.679   7.650
 5182POPC   C1B12979  28.236   6.893   8.550
 5182POPC   C2B12980  28.256   6.886   8.250
 5182POPC   C3B12981  28.256   6.805   7.950
 5182POPC   C4B12982  28.240   6.873   7.650
 5183POPC   NC312983  39.236  43.909   9.450
 5183POPC   PO412984  39.266  43.901   9.150
 5183POPC   GL112985  39.266  43.842   8.850
 5183POPC   GL212986  39.140  43.827   8.850
 5183POPC   C1A12987  39.214  43.912   8.550
 5183POPC   D2A12988  39.198  43.857   8.250
 5183POPC   C3A12989  39.261  43.837   7.950
 5183POPC   C4A12990  39.251  43.936   7.650
 5183POPC   C1B12991  39.056  43.696   8.550
 5183POPC   C2B12992  38.999  43.756   8.250
 5183POPC   C3B12993  39.062  43.760   7.950
 5183POPC   C4B12994  39.027  43.743   7.650
 5184POPC   NC312995  15.958   1.979   9.450
 5184POPC   PO412996  15.917   1.948   9.150
 5184POPC   GL112997  15.989   1.983   8.850
 5184POPC   GL212998  15.899   1.906   8.850
 5184POPC   C1A12999  15.932   2.014   8.550
 5184POPC   D2A13000  15.929   2.007   8.250
 5184POPC   C3A13001  15.947   2.021   7.950
 5184POPC   C4A13002  16.001   1.989   7.650
 5184POPC   C1B13003  15.906   1.793   8.550
 5184POPC   C2B13004  15.854   1.785   8.250
 5184POPC   C3B13005  15.906   1.713   7.950
 5184POPC   C4B13006  15.811   1.763   7.650
 5185POPC   NC313007  36.866  26.037   9.450
 5185POPC   PO413008  36.909  26.026   9.150
 5185POPC   GL113009  36.913  26.013   8.850
 5185POPC   GL213010  36.817  26.126   8.850
 5185POPC   C1A13011  36.942  26.034   8.550
 5185POPC   D2A13012  36.885  26.070   8.250
 5185POPC   C3A13013  36.863  26.091   7.950
 5185POPC   C4A13014  36.891  26.080   7.650
 5185POPC   C1B13015  36.800  26.289   8.550
 5185POPC   C2B13016  36.723  26.297   8.250
 5185POPC   C3B13017  36.750  26.254   7.950
 5185POPC   C4B13018  36.779  26.224   7.650
 5186POPC   NC313019  23.760  42.287   9.450
 5186POPC   PO413020  23.723  42.355   9.150
 5186POPC   GL113021  23.756  42.345   8.850
 5186POPC   GL213022  23.631  42.415   8.850
 5186POPC   C1A13023  23.665  42.350   8.550
 5186POPC   D2A13024  23.701  42.339   8.250
 5186POPC   C3A13025  23.689  42.306   7.950
 5186POPC   C4A13026  23.676  42.328   7.650
 5186POPC   C1B13027  23.622  42.578   8.550
 5186POPC   C2B13028  23.597  42.578   8.250
 5186POPC   C3B13029  23.589  42.531   7.950
 5186POPC   C4B13030  23.619  42.534   7.650
 5187POPC   NC313031  12.826  38.471   9.450
 5187POPC   PO413032  12.864  38.495   9.150
 5187POPC   GL113033  12.857  38.440   8.850
 5187POPC   GL213034  12.914  38.604   8.850
 5187POPC   C1A13035  12.885  38.495   8.550
 5187POPC   D2A13036  12.831  38.421   8.250
 5187POPC   C3A13037  12.886  38.410   7.950
 5187POPC   C4A13038  12.856  38.459   7.650
 5187POPC   C1B13039  12.936  38.713   8.550
 5187POPC   C2B13040  12.949  38.662   8.250
 5187POPC   C3B13041  12.976  38.729   7.950
 5187POPC   C4B13042  12.979  38.640   7.650
 5188POPC   NC313043  22.168  26.777   9.450
 5188POPC   PO413044  22.190  26.823   9.150
 5188POPC   GL113045  22.125  26.816   8.850
 5188POPC   GL213046  22.071  26.803   8.850
 5188POPC   C1A13047  22.194  26.828   8.550
 5188POPC   D2A13048  22.177  26.852   8.250
 5188POPC   C3A13049  22.137  26.801   7.950
 5188POPC   C4A13050  22.145  26.834   7.650
 5188POPC   C1B13051  21.890  26.830   8.550
 5188POPC   C2B13052  21.874  26.823   8.250
 5188POPC   C3B13053  21.933  26.830   7.950
 5188POPC   C4B13054  21.940  26.809   7.650
 5189POPC   NC313055  24.466   7.438   9.450
 5189POPC   PO413056  24.508   7.429   9.150
 5189POPC   GL113057  24.502   7.411   8.850
 5189POPC   GL213058  24.363   7.522   8.850
 5189POPC   C1A13059  24.462   7.394   8.550
 5189POPC   D2A13060  24.444   7.468   8.250
 5189POPC   C3A13061  24.474   7.426   7.950
 5189POPC   C4A13062  24.481   7.395   7.650
 5189POPC   C1B13063  24.331   7.611   8.550
 5189POPC   C2B13064  24.264   7.555   8.250
 5189POPC   C3B13065  24.289   7.594   7.950
 5189POPC   C4B13066  24.294   7.627   7.650
 5190POPC   NC313067  33.031  43.900   9.450
 5190POPC   PO413068  33.010  43.932   9.150
 5190POPC   GL113069  32.992  43.855   8.850
 5190POPC   GL213070  32.946  43.750   8.850
 5190POPC   C1A13071  32.992  43.921   8.550
 5190POPC   D2A13072  33.015  43.849   8.250
 5190POPC   C3A13073  32.979  43.863   7.950
 5190POPC   C4A13074  33.061  43.902   7.650
 5190POPC   C1B13075  32.939  43.656   8.550
 5190POPC   C2B13076  32.910  43.646   8.250
 5190POPC   C3B13077  32.975  43.679   7.950
 5190POPC   C4B13078  32.977  43.660   7.650
 5191POPC   NC313079  17.493   4.273   9.450
 5191POPC   PO413080  17.482   4.326   9.150
 5191POPC   GL113081  17.514   4.364   8.850
 5191POPC   GL213082  17.427   4.460   8.850
 5191POPC   C1A13083  17.510   4.360   8.550
 5191POPC   D2A13084  17.552   4.336   8.250
 5191POPC   C3A13085  17.554   4.341   7.950
 5191POPC   C4A13086  17.549   4.275   7.650
 5191POPC   C1B13087  17.348   4.532   8.550
 5191POPC   C2B13088  17.400   4.490   8.250
 5191POPC   C3B13089  17.369   4.489   7.950
 5191POPC   C4B13090  17.408   4.527   7.650
 5192POPC   NC313091   1.254  25.294   9.450
 5192POPC   PO413092   1.197  25.260   9.150
 5192POPC   GL113093   1.253  25.308   8.850
 5192POPC   GL213094   1.275  25.420   8.850
 5192POPC   C1A13095   1.225  25.304   8.550
 5192POPC   D2A13096   1.253  25.300   8.250
 5192POPC   C3A13097   1.260  25.266   7.950
 5192POPC   C4A13098   1.201  25.238   7.650
 5192POPC   C1B13099   1.277  25.495   8.550
 5192POPC   C2B13100   1.347  25.475   8.250
 5192POPC   C3B13101   1.296  25.535   7.950
 5192POPC   C4B13102   1.356  25.501   7.650
 5193POPC   NC313103  39.271  29.107   9.450
 5193POPC   PO413104  39.263  29.194   9.150
 5193POPC   GL113105  39.239  29.175   8.850
 5193POPC   GL213106  39.209  29.285   8.850
 5193POPC   C1A13107  39.226  29.109   8.550
 5193POPC   D2A13108  39.273  29.175   8.250
 5193POPC   C3A13109  39.227  29.163   7.950
 5193POPC   C4A13110  39.203  29.186   7.650
 5193POPC   C1B13111  39.148  29.436   8.550
 5193POPC   C2B13112  39.151  29.359   8.250
 5193POPC   C3B13113  39.143  29.378   7.950
 5193POPC   C4B13114  39.170  29.346   7.650
 5194POPC   NC313115  35.347  15.184   9.450
 5194POPC   PO413116  35.309  15.140   9.150
 5194POPC   GL113117  35.390  15.150   8.850
 5194POPC   GL213118  35.240  15.275   8.850
 5194POPC   C1A13119  35.356  15.139   8.550
 5194POPC   D2A13120  35.391  15.188   8.250
 5194POPC   C3A13121  35.319  15.178   7.950
 5194POPC   C4A13122  35.391  15.145   7.650
 5194POPC   C1B13123  35.184  15.363   8.550
 5194POPC   C2B13124  35.166  15.328   8.250
 5194POPC   C3B13125  35.148  15.348   7.950
 5194POPC   C4B13126  35.192  15.398   7.650
 5195POPC   NC313127  43.061  32.212   9.450
 5195POPC   PO413128  43.078  32.250   9.150
 5195POPC   GL113129  43.070  32.295   8.850
 5195POPC   GL213130  43.058  32.112   8.850
 5195POPC   C1A13131  43.152  32.254   8.550
 5195POPC   D2A13132  43.084  32.227   8.250
 5195POPC   C3A13133  43.137  32.221   7.950
 5195POPC   C4A13134  43.160  32.294   7.650
 5195POPC   C1B13135  42.950  32.067   8.550
 5195POPC   C2B13136  42.989  32.062   8.250
 5195POPC   C3B13137  42.956  31.989   7.950
 5195POPC   C4B13138  42.951  31.994   7.650
 5196POPC   NC313139  25.287  24.446   9.450
 5196POPC   PO413140  25.228  24.517   9.150
 5196POPC   GL113141  25.299  24.515   8.850
 5196POPC   GL213142  25.105  24.444   8.850
 5196POPC   C1A13143  25.306  24.460   8.550
 5196POPC   D2A13144  25.302  24.468   8.250
 5196POPC   C3A13145  25.222  24.450   7.950
 5196POPC   C4A13146  25.291  24.534   7.650
 5196POPC   C1B13147  25.011  24.346   8.550
 5196POPC   C2B13148  25.027  24.361   8.250
 5196POPC   C3B13149  25.011  24.391   7.950
 5196POPC   C4B13150  25.015  24.382   7.650
 5197POPC   NC313151  31.488  41.581   9.450
 5197POPC   PO413152  31.434  41.530   9.150
 5197POPC   GL113153  31.462  41.591   8.850
 5197POPC   GL213154  31.425  41.640   8.850
 5197POPC   C1A13155  31.493  41.555   8.550
 5197POPC   D2A13156  31.437  41.588   8.250
 5197POPC   C3A13157  31.435  41.553   7.950
 5197POPC   C4A13158  31.483  41.581   7.650
 5197POPC   C1B13159  31.263  41.689   8.550
 5197POPC   C2B13160  31.255  41.771   8.250
 5197POPC   C3B13161  31.247  41.715   7.950
 5197POPC   C4B13162  31.315  41.682   7.650
 5198POPC   NC313163  10.477   9.017   9.450
 5198POPC   PO413164  10.544   9.000   9.150
 5198POPC   GL113165  10.499   8.994   8.850
 5198POPC   GL213166  10.414   8.928   8.850
 5198POPC   C1A13167  10.531   8.946   8.550
 5198POPC   D2A13168  10.571   8.966   8.250
 5198POPC   C3A13169  10.518   8.993   7.950
 5198POPC   C4A13170  10.523   8.959   7.650
 5198POPC   C1B13171  10.377   8.737   8.550
 5198POPC   C2B13172  10.325   8.782   8.250
 5198POPC   C3B13173  10.379   8.782   7.950
 5198POPC   C4B13174  10.339   8.742   7.650
 5199POPC   NC313175  26.012  28.329   9.450
 5199POPC   PO413176  26.064  28.405   9.150
 5199POPC   GL113177  26.043  28.391   8.850
 5199POPC   GL213178  26.166  28.413   8.850
 5199POPC   C1A13179  26.030  28.354   8.550
 5199POPC   D2A13180  26.004  28.403   8.250
 5199POPC   C3A13181  26.050  28.394   7.950
 5199POPC   C4A13182  26.063  28.338   7.650
 5199POPC   C1B13183  26.294  28.359   8.550
 5199POPC   C2B13184  26.249  28.396   8.250
 5199POPC   C3B13185  26.310  28.401   7.950
 5199POPC   C4B13186  26.338  28.335   7.650
 5200POPC   NC313187  42.356  22.124   9.450
 5200POPC   PO413188  42.311  22.146   9.150
 5200POPC   GL113189  42.317  22.212   8.850
 5200POPC   GL213190  42.489  22.162   8.850
 5200POPC   C1A13191  42.302  22.132   8.550
 5200POPC   D2A13192  42.306  22.179   8.250
 5200POPC   C3A13193  42.372  22.155   7.950
 5200POPC   C4A13194  42.344  22.197   7.650
 5200POPC   C1B13195  42.585  22.229   8.550
 5200POPC   C2B13196  42.607  22.224   8.250
 5200POPC   C3B13197  42.568  22.237   7.950
 5200POPC   C4B13198  42.558  22.247   7.650
 5201POPC   NC313199   1.165  43.132   9.450
 5201POPC   PO413200   1.225  43.066   9.150
 5201POPC   GL113201   1.181  43.078   8.850
 5201POPC   GL213202   1.115  43.178   8.850
 5201POPC   C1A13203   1.250  43.110   8.550
 5201POPC   D2A13204   1.198  43.079   8.250
 5201POPC   C3A13205   1.264  43.113   7.950
 5201POPC   C4A13206   1.201  43.076   7.650
 5201POPC   C1B13207   0.935  43.155   8.550
 5201POPC   C2B13208   0.960  43.172   8.250
 5201POPC   C3B13209   0.944  43.171   7.950
 5201POPC   C4B13210   0.971  43.163   7.650
 5202POPC   NC313211  32.265   5.889   9.450
 5202POPC   PO413212  32.201   5.839   9.150
 5202POPC   GL113213  32.295   5.837   8.850
 5202POPC   GL213214  32.191   5.740   8.850
 5202POPC   C1A13215  32.276   5.840   8.550
 5202POPC   D2A13216  32.262   5.916   8.250
 5202POPC   C3A13217  32.233   5.915   7.950
 5202POPC   C4A13218  32.296   5.903   7.650
 5202POPC   C1B13219  32.095   5.654   8.550
 5202POPC   C2B13220  32.090   5.612   8.250
 5202POPC   C3B13221  32.101   5.688   7.950
 5202POPC   C4B13222  32.127   5.607   7.650
 5203POPC   NC313223  29.135   8.236   9.450
 5203POPC   PO413224  29.148   8.198   9.150
 5203POPC   GL113225  29.144   8.178   8.850
 5203POPC   GL213226  29.018   8.263   8.850
 5203POPC   C1A13227  29.163   8.219   8.550
 5203POPC   D2A13228  29.111   8.227   8.250
 5203POPC   C3A13229  29.159   8.175   7.950
 5203POPC   C4A13230  29.139   8.203   7.650
 5203POPC   C1B13231  28.865   8.296   8.550
 5203POPC   C2B13232  28.883   8.248   8.250
 5203POPC   C3B13233  28.873   8.224   7.950
 5203POPC   C4B13234  28.905   8.227   7.650
 5204POPC   NC313235  27.546  15.927   9.450
 5204POPC   PO413236  27.637  15.946   9.150
 5204POPC   GL113237  27.576  15.968   8.850
 5204POPC   GL213238  27.735  15.911   8.850
 5204POPC   C1A13239  27.616  15.984   8.550
 5204POPC   D2A13240  27.639  15.927   8.250
 5204POPC   C3A13241  27.614  15.979   7.950
 5204POPC   C4A13242  27.594  15.932   7.650
 5204POPC   C1B13243  27.795  15.893   8.550
 5204POPC   C2B13244  27.858  15.882   8.250
 5204POPC   C3B13245  27.879  15.900   7.950
 5204POPC   C4B13246  27.873  15.871   7.650
 5205POPC   NC313247  19.086   3.558   9.450
 5205POPC   PO413248  19.049   3.585   9.150
 5205POPC   GL113249  19.088   3.583   8.850
 5205POPC   GL213250  18.907   3.553   8.850
 5205POPC   C1A13251  19.074   3.562   8.550
 5205POPC   D2A13252  19.053   3.495   8.250
 5205POPC   C3A13253  19.017   3.507   7.950
 5205POPC   C4A13254  19.094   3.560   7.650
 5205POPC   C1B13255  18.785   3.632   8.550
 5205POPC   C2B13256  18.858   3.630   8.250
 5205POPC   C3B13257  18.839   3.581   7.950
 5205POPC   C4B13258  18.844   3.576   7.650
 5206POPC   NC313259  39.237   9.776   9.450
 5206POPC   PO413260  39.208   9.739   9.150
 5206POPC   GL113261  39.196   9.751   8.850
 5206POPC   GL213262  39.345   9.708   8.850
 5206POPC   C1A13263  39.267   9.732   8.550
 5206POPC   D2A13264  39.253   9.720   8.250
 5206POPC   C3A13265  39.194   9.726   7.950
 5206POPC   C4A13266  39.262   9.749   7.650
 5206POPC   C1B13267  39.442   9.752   8.550
 5206POPC   C2B13268  39.484   9.697   8.250
 5206POPC   C3B13269  39.475   9.754   7.950
 5206POPC   C4B13270  39.521   9.691   7.650
 5207POPC   NC313271  19.794  13.624   9.450
 5207POPC   PO413272  19.876  13.668   9.150
 5207POPC   GL113273  19.849  13.652   8.850
 5207POPC   GL213274  19.723  13.687   8.850
 5207POPC   C1A13275  19.808  13.673   8.550
 5207POPC   D2A13276  19.786  13.641   8.250
 5207POPC   C3A13277  19.837  13.607   7.950
 5207POPC   C4A13278  19.866  13.578   7.650
 5207POPC   C1B13279  19.600  13.690   8.550
 5207POPC   C2B13280  19.640  13.705   8.250
 5207POPC   C3B13281  19.570  13.706   7.950
 5207POPC   C4B13282  19.626  13.774   7.650
 5208POPC   NC313283   6.663  42.320   9.450
 5208POPC   PO413284   6.632  42.314   9.150
 5208POPC   GL113285   6.602  42.296   8.850
 5208POPC   GL213286   6.536  42.287   8.850
 5208POPC   C1A13287   6.648  42.287   8.550
 5208POPC   D2A13288   6.636  42.302   8.250
 5208POPC   C3A13289   6.638  42.336   7.950
 5208POPC   C4A13290   6.668  42.369   7.650
 5208POPC   C1B13291   6.434  42.196   8.550
 5208POPC   C2B13292   6.411  42.247   8.250
 5208POPC   C3B13293   6.400  42.197   7.950
 5208POPC   C4B13294   6.467  42.197   7.650
 5209POPC   NC313295  19.819  43.127   9.450
 5209POPC   PO413296  19.854  43.159   9.150
 5209POPC   GL113297  19.837  43.101   8.850
 5209POPC   GL213298  19.936  43.038   8.850
 5209POPC   C1A13299  19.856  43.098   8.550
 5209POPC   D2A13300  19.843  43.087   8.250
 5209POPC   C3A13301  19.788  43.096   7.950
 5209POPC   C4A13302  19.841  43.113   7.650
 5209POPC   C1B13303  20.055  42.911   8.550
 5209POPC   C2B13304  20.005  42.903   8.250
 5209POPC   C3B13305  20.035  42.916   7.950
 5209POPC   C4B13306  20.052  42.930   7.650
 5210POPC   NC313307  40.740   9.760   9.450
 5210POPC   PO413308  40.826   9.711   9.150
 5210POPC   GL113309  40.760   9.780   8.850
 5210POPC   GL213310  40.783   9.865   8.850
 5210POPC   C1A13311  40.831   9.791   8.550
 5210POPC   D2A13312  40.748   9.755   8.250
 5210POPC   C3A13313  40.826   9.769   7.950
 5210POPC   C4A13314  40.823   9.771   7.650
 5210POPC   C1B13315  40.719   9.968   8.550
 5210POPC   C2B13316  40.745  10.002   8.250
 5210POPC   C3B13317  40.766   9.951   7.950
 5210POPC   C4B13318  40.697   9.969   7.650
 5211POPC   NC313319  32.298   2.018   9.450
 5211POPC   PO413320  32.259   1.965   9.150
 5211POPC   GL113321  32.282   1.991   8.850
 5211POPC   GL213322  32.354   1.942   8.850
 5211POPC   C1A13323  32.235   2.016   8.550
 5211POPC   D2A13324  32.277   1.991   8.250
 5211POPC   C3A13325  32.229   1.952   7.950
 5211POPC   C4A13326  32.241   1.975   7.650
 5211POPC   C1B13327  32.519   1.949   8.550
 5211POPC   C2B13328  32.478   1.920   8.250
 5211POPC   C3B13329  32.499   1.920   7.950
 5211POPC   C4B13330  32.453   1.922   7.650
 5212POPC   NC313331  44.677  10.480   9.450
 5212POPC   PO413332  44.614  10.568   9.150
 5212POPC   GL113333  44.648  10.508   8.850
 5212POPC   GL213334  44.549  10.473   8.850
 5212POPC   C1A13335  44.700  10.556   8.550
 5212POPC   D2A13336  44.664  10.491   8.250
 5212POPC   C3A13337  44.659  10.486   7.950
 5212POPC   C4A13338  44.678  10.520   7.650
 5212POPC   C1B13339  44.402  10.421   8.550
 5212POPC   C2B13340  44.419  10.353   8.250
 5212POPC   C3B13341  44.462  10.353   7.950
 5212POPC   C4B13342  44.472  10.417   7.650
 5213POPC   NC313343  18.244  32.245   9.450
 5213POPC   PO413344  18.254  32.202   9.150
 5213POPC   GL113345  18.239  32.220   8.850
 5213POPC   GL213346  18.405  32.312   8.850
 5213POPC   C1A13347  18.286  32.228   8.550
 5213POPC   D2A13348  18.311  32.258   8.250
 5213POPC   C3A13349  18.296  32.258   7.950
 5213POPC   C4A13350  18.299  32.220   7.650
 5213POPC   C1B13351  18.479  32.288   8.550
 5213POPC   C2B13352  18.500  32.269   8.250
 5213POPC   C3B13353  18.535  32.314   7.950
 5213POPC   C4B13354  18.507  32.279   7.650
 5214POPC   NC313355  16.727   5.891   9.450
 5214POPC   PO413356  16.702   5.906   9.150
 5214POPC   GL113357  16.771   5.845   8.850
 5214POPC   GL213358  16.678   5.708   8.850
 5214POPC   C1A13359  16.768   5.870   8.550
 5214POPC   D2A13360  16.742   5.825   8.250
 5214POPC   C3A13361  16.702   5.873   7.950
 5214POPC   C4A13362  16.724   5.918   7.650
 5214POPC   C1B13363  16.672   5.642   8.550
 5214POPC   C2B13364  16.683   5.628   8.250
 5214POPC   C3B13365  16.706   5.583   7.950
 5214POPC   C4B13366  16.713   5.655   7.650
 5215POPC   NC313367  35.365  40.035   9.450
 5215POPC   PO413368  35.359  39.994   9.150
 5215POPC   GL113369  35.337  40.046   8.850
 5215POPC   GL213370  35.379  40.149   8.850
 5215POPC   C1A13371  35.395  40.019   8.550
 5215POPC   D2A13372  35.307  39.996   8.250
 5215POPC   C3A13373  35.308  40.028   7.950
 5215POPC   C4A13374  35.391  39.982   7.650
 5215POPC   C1B13375  35.314  40.230   8.550
 5215POPC   C2B13376  35.303  40.207   8.250
 5215POPC   C3B13377  35.335  40.279   7.950
 5215POPC   C4B13378  35.345  40.299   7.650
 5216POPC   NC313379  26.777  29.906   9.450
 5216POPC   PO413380  26.833  29.915   9.150
 5216POPC   GL113381  26.789  29.945   8.850
 5216POPC   GL213382  26.733  29.982   8.850
 5216POPC   C1A13383  26.793  29.892   8.550
 5216POPC   D2A13384  26.797  29.881   8.250
 5216POPC   C3A13385  26.853  29.953   7.950
 5216POPC   C4A13386  26.835  29.933   7.650
 5216POPC   C1B13387  26.590  29.994   8.550
 5216POPC   C2B13388  26.583  29.986   8.250
 5216POPC   C3B13389  26.541  30.064   7.950
 5216POPC   C4B13390  26.614  30.067   7.650
 5217POPC   NC313391  12.810  23.739   9.450
 5217POPC   PO413392  12.880  23.741   9.150
 5217POPC   GL113393  12.898  23.727   8.850
 5217POPC   GL213394  12.838  23.582   8.850
 5217POPC   C1A13395  12.816  23.763   8.550
 5217POPC   D2A13396  12.805  23.670   8.250
 5217POPC   C3A13397  12.857  23.679   7.950
 5217POPC   C4A13398  12.851  23.734   7.650
 5217POPC   C1B13399  12.930  23.431   8.550
 5217POPC   C2B13400  12.952  23.455   8.250
 5217POPC   C3B13401  12.859  23.476   7.950
 5217POPC   C4B13402  12.955  23.452   7.650
 5218POPC   NC313403  40.050  29.918   9.450
 5218POPC   PO413404  40.029  29.919   9.150
 5218POPC   GL113405  39.964  29.937   8.850
 5218POPC   GL213406  40.122  29.968   8.850
 5218POPC   C1A13407  39.991  29.909   8.550
 5218POPC   D2A13408  40.009  29.937   8.250
 5218POPC   C3A13409  40.019  29.918   7.950
 5218POPC   C4A13410  40.023  29.942   7.650
 5218POPC   C1B13411  40.265  30.034   8.550
 5218POPC   C2B13412  40.191  30.014   8.250
 5218POPC   C3B13413  40.271  30.031   7.950
 5218POPC   C4B13414  40.193  29.989   7.650
 5219POPC   NC313415  29.099  18.268   9.450
 5219POPC   PO413416  29.129  18.320   9.150
 5219POPC   GL113417  29.193  18.289   8.850
 5219POPC   GL213418  29.037  18.185   8.850
 5219POPC   C1A13419  29.142  18.246   8.550
 5219POPC   D2A13420  29.146  18.265   8.250
 5219POPC   C3A13421  29.142  18.281   7.950
 5219POPC   C4A13422  29.124  18.287   7.650
 5219POPC   C1B13423  28.971  18.126   8.550
 5219POPC   C2B13424  29.005  18.066   8.250
 5219POPC   C3B13425  28.956  18.121   7.950
 5219POPC   C4B13426  28.921  18.077   7.650
 5220POPC   NC313427  22.985  43.889   9.450
 5220POPC   PO413428  22.889  43.873   9.150
 5220POPC   GL113429  22.952  43.858   8.850
 5220POPC   GL213430  22.826  43.819   8.850
 5220POPC   C1A13431  22.933  43.930   8.550
 5220POPC   D2A13432  22.940  43.908   8.250
 5220POPC   C3A13433  22.923  43.855   7.950
 5220POPC   C4A13434  22.894  43.929   7.650
 5220POPC   C1B13435  22.701  43.886   8.550
 5220POPC   C2B13436  22.721  43.837   8.250
 5220POPC   C3B13437  22.683  43.801   7.950
 5220POPC   C4B13438  22.677  43.851   7.650
 5221POPC   NC313439   1.193  32.206   9.450
 5221POPC   PO413440   1.243  32.290   9.150
 5221POPC   GL113441   1.232  32.270   8.850
 5221POPC   GL213442   1.336  32.304   8.850
 5221POPC   C1A13443   1.244  32.228   8.550
 5221POPC   D2A13444   1.237  32.273   8.250
 5221POPC   C3A13445   1.257  32.290   7.950
 5221POPC   C4A13446   1.187  32.235   7.650
 5221POPC   C1B13447   1.501  32.289   8.550
 5221POPC   C2B13448   1.457  32.266   8.250
 5221POPC   C3B13449   1.432  32.318   7.950
 5221POPC   C4B13450   1.438  32.361   7.650
 5222POPC   NC313451  38.498  43.900   9.450
 5222POPC   PO413452  38.455  43.921   9.150
 5222POPC   GL113453  38.416  43.856   8.850
 5222POPC   GL213454  38.552  43.925   8.850
 5222POPC   C1A13455  38.493  43.904   8.550
 5222POPC   D2A13456  38.490  43.927   8.250
 5222POPC   C3A13457  38.483  43.931   7.950
 5222POPC   C4A13458  38.443  43.888   7.650
 5222POPC   C1B13459  38.723  43.943   8.550
 5222POPC   C2B13460  38.664  44.010   8.250
 5222POPC   C3B13461  38.668  43.976   7.950
 5222POPC   C4B13462  38.737  44.000   7.650
 5223POPC   NC313463  22.890  22.160   9.450
 5223POPC   PO413464  22.946  22.185   9.150
 5223POPC   GL113465  22.901  22.171   8.850
 5223POPC   GL213466  22.820  22.193   8.850
 5223POPC   C1A13467  22.972  22.197   8.550
 5223POPC   D2A13468  22.981  22.117   8.250
 5223POPC   C3A13469  22.945  22.192   7.950
 5223POPC   C4A13470  22.914  22.159   7.650
 5223POPC   C1B13471  22.686  22.129   8.550
 5223POPC   C2B13472  22.723  22.164   8.250
 5223POPC   C3B13473  22.643  22.198   7.950
 5223POPC   C4B13474  22.654  22.130   7.650
 5224POPC   NC313475  15.160  18.255   9.450
 5224POPC   PO413476  15.226  18.266   9.150
 5224POPC   GL113477  15.130  18.323   8.850
 5224POPC   GL213478  15.123  18.353   8.850
 5224POPC   C1A13479  15.189  18.291   8.550
 5224POPC   D2A13480  15.192  18.327   8.250
 5224POPC   C3A13481  15.217  18.303   7.950
 5224POPC   C4A13482  15.198  18.315   7.650
 5224POPC   C1B13483  15.072  18.551   8.550
 5224POPC   C2B13484  15.047  18.518   8.250
 5224POPC   C3B13485  15.034  18.498   7.950
 5224POPC   C4B13486  15.079  18.517   7.650
 5225POPC   NC313487   9.018   8.942   9.450
 5225POPC   PO413488   8.946   8.999   9.150
 5225POPC   GL113489   8.975   8.975   8.850
 5225POPC   GL213490   8.884   9.018   8.850
 5225POPC   C1A13491   8.931   8.932   8.550
 5225POPC   D2A13492   8.946   8.956   8.250
 5225POPC   C3A13493   8.950   8.985   7.950
 5225POPC   C4A13494   9.009   8.962   7.650
 5225POPC   C1B13495   8.754   9.030   8.550
 5225POPC   C2B13496   8.716   9.019   8.250
 5225POPC   C3B13497   8.701   9.016   7.950
 5225POPC   C4B13498   8.757   8.992   7.650
 5226POPC   NC313499  16.747   4.327   9.450
 5226POPC   PO413500  16.728   4.278   9.150
 5226POPC   GL113501  16.757   4.347   8.850
 5226POPC   GL213502  16.848   4.429   8.850
 5226POPC   C1A13503  16.700   4.345   8.550
 5226POPC   D2A13504  16.723   4.287   8.250
 5226POPC   C3A13505  16.734   4.317   7.950
 5226POPC   C4A13506  16.690   4.360   7.650
 5226POPC   C1B13507  16.864   4.547   8.550
 5226POPC   C2B13508  16.842   4.505   8.250
 5226POPC   C3B13509  16.903   4.507   7.950
 5226POPC   C4B13510  16.925   4.547   7.650
 5227POPC   NC313511  21.352  36.165   9.450
 5227POPC   PO413512  21.406  36.078   9.150
 5227POPC   GL113513  21.413  36.145   8.850
 5227POPC   GL213514  21.350  35.990   8.850
 5227POPC   C1A13515  21.376  36.142   8.550
 5227POPC   D2A13516  21.363  36.109   8.250
 5227POPC   C3A13517  21.420  36.122   7.950
 5227POPC   C4A13518  21.404  36.114   7.650
 5227POPC   C1B13519  21.172  35.920   8.550
 5227POPC   C2B13520  21.242  35.954   8.250
 5227POPC   C3B13521  21.247  35.893   7.950
 5227POPC   C4B13522  21.189  35.983   7.650
 5228POPC   NC313523   7.418  31.521   9.450
 5228POPC   PO413524   7.441  31.457   9.150
 5228POPC   GL113525   7.424  31.510   8.850
 5228POPC   GL213526   7.527  31.492   8.850
 5228POPC   C1A13527   7.443  31.473   8.550
 5228POPC   D2A13528   7.430  31.455   8.250
 5228POPC   C3A13529   7.436  31.460   7.950
 5228POPC   C4A13530   7.389  31.496   7.650
 5228POPC   C1B13531   7.649  31.528   8.550
 5228POPC   C2B13532   7.693  31.595   8.250
 5228POPC   C3B13533   7.630  31.626   7.950
 5228POPC   C4B13534   7.655  31.540   7.650
 5229POPC   NC313535   6.598   2.726   9.450
 5229POPC   PO413536   6.641   2.793   9.150
 5229POPC   GL113537   6.684   2.772   8.850
 5229POPC   GL213538   6.521   2.676   8.850
 5229POPC   C1A13539   6.650   2.768   8.550
 5229POPC   D2A13540   6.649   2.806   8.250
 5229POPC   C3A13541   6.695   2.794   7.950
 5229POPC   C4A13542   6.643   2.787   7.650
 5229POPC   C1B13543   6.523   2.595   8.550
 5229POPC   C2B13544   6.444   2.572   8.250
 5229POPC   C3B13545   6.442   2.593   7.950
 5229POPC   C4B13546   6.486   2.563   7.650
 5230POPC   NC313547   6.600  36.106   9.450
 5230POPC   PO413548   6.602  36.130   9.150
 5230POPC   GL113549   6.667  36.116   8.850
 5230POPC   GL213550   6.653  36.276   8.850
 5230POPC   C1A13551   6.628  36.172   8.550
 5230POPC   D2A13552   6.630  36.079   8.250
 5230POPC   C3A13553   6.681  36.157   7.950
 5230POPC   C4A13554   6.626  36.106   7.650
 5230POPC   C1B13555   6.718  36.389   8.550
 5230POPC   C2B13556   6.772  36.400   8.250
 5230POPC   C3B13557   6.796  36.310   7.950
 5230POPC   C4B13558   6.706  36.343   7.650
 5231POPC   NC313559  42.321  40.026   9.450
 5231POPC   PO413560  42.358  39.979   9.150
 5231POPC   GL113561  42.333  39.990   8.850
 5231POPC   GL213562  42.401  40.157   8.850
 5231POPC   C1A13563  42.368  39.974   8.550
 5231POPC   D2A13564  42.313  40.052   8.250
 5231POPC   C3A13565  42.369  40.016   7.950
 5231POPC   C4A13566  42.350  39.994   7.650
 5231POPC   C1B13567  42.447  40.194   8.550
 5231POPC   C2B13568  42.397  40.281   8.250
 5231POPC   C3B13569  42.449  40.263   7.950
 5231POPC   C4B13570  42.396  40.258   7.650
 5232POPC   NC313571  14.412  29.896   9.450
 5232POPC   PO413572  14.451  29.911   9.150
 5232POPC   GL113573  14.369  29.938   8.850
 5232POPC   GL213574  14.251  29.940   8.850
 5232POPC   C1A13575  14.361  29.894   8.550
 5232POPC   D2A13576  14.423  29.935   8.250
 5232POPC   C3A13577  14.420  29.896   7.950
 5232POPC   C4A13578  14.419  29.887   7.650
 5232POPC   C1B13579  14.120  29.868   8.550
 5232POPC   C2B13580  14.143  29.947   8.250
 5232POPC   C3B13581  14.130  29.877   7.950
 5232POPC   C4B13582  14.179  29.860   7.650
 5233POPC   NC313583  17.486  12.867   9.450
 5233POPC   PO413584  17.480  12.859   9.150
 5233POPC   GL113585  17.474  12.826   8.850
 5233POPC   GL213586  17.442  12.899   8.850
 5233POPC   C1A13587  17.550  12.886   8.550
 5233POPC   D2A13588  17.474  12.897   8.250
 5233POPC   C3A13589  17.522  12.855   7.950
 5233POPC   C4A13590  17.472  12.867   7.650
 5233POPC   C1B13591  17.278  12.992   8.550
 5233POPC   C2B13592  17.307  12.979   8.250
 5233POPC   C3B13593  17.354  13.035   7.950
 5233POPC   C4B13594  17.338  12.963   7.650
 5234POPC   NC313595  19.826  43.857   9.450
 5234POPC   PO413596  19.876  43.879   9.150
 5234POPC   GL113597  19.871  43.920   8.850
 5234POPC   GL213598  19.672  43.850   8.850
 5234POPC   C1A13599  19.844  43.923   8.550
 5234POPC   D2A13600  19.838  43.843   8.250
 5234POPC   C3A13601  19.818  43.916   7.950
 5234POPC   C4A13602  19.849  43.875   7.650
 5234POPC   C1B13603  19.607  43.802   8.550
 5234POPC   C2B13604  19.599  43.828   8.250
 5234POPC   C3B13605  19.569  43.867   7.950
 5234POPC   C4B13606  19.543  43.881   7.650
 5235POPC   NC313607   8.201   3.517   9.450
 5235POPC   PO413608   8.156   3.581   9.150
 5235POPC   GL113609   8.231   3.544   8.850
 5235POPC   GL213610   8.094   3.502   8.850
 5235POPC   C1A13611   8.193   3.514   8.550
 5235POPC   D2A13612   8.166   3.504   8.250
 5235POPC   C3A13613   8.181   3.512   7.950
 5235POPC   C4A13614   8.201   3.528   7.650
 5235POPC   C1B13615   7.935   3.531   8.550
 5235POPC   C2B13616   7.978   3.556   8.250
 5235POPC   C3B13617   7.996   3.549   7.950
 5235POPC   C4B13618   7.935   3.492   7.650
 5236POPC   NC313619  22.184  24.516   9.450
 5236POPC   PO413620  22.188  24.473   9.150
 5236POPC   GL113621  22.187  24.465   8.850
 5236POPC   GL213622  22.028  24.568   8.850
 5236POPC   C1A13623  22.181  24.508   8.550
 5236POPC   D2A13624  22.174  24.481   8.250
 5236POPC   C3A13625  22.137  24.502   7.950
 5236POPC   C4A13626  22.181  24.505   7.650
 5236POPC   C1B13627  22.011  24.614   8.550
 5236POPC   C2B13628  21.939  24.614   8.250
 5236POPC   C3B13629  21.952  24.638   7.950
 5236POPC   C4B13630  21.976  24.621   7.650
 5237POPC   NC313631  15.190   4.301   9.450
 5237POPC   PO413632  15.185   4.283   9.150
 5237POPC   GL113633  15.156   4.342   8.850
 5237POPC   GL213634  15.354   4.322   8.850
 5237POPC   C1A13635  15.168   4.333   8.550
 5237POPC   D2A13636  15.132   4.323   8.250
 5237POPC   C3A13637  15.165   4.275   7.950
 5237POPC   C4A13638  15.169   4.332   7.650
 5237POPC   C1B13639  15.422   4.327   8.550
 5237POPC   C2B13640  15.418   4.315   8.250
 5237POPC   C3B13641  15.416   4.374   7.950
 5237POPC   C4B13642  15.383   4.381   7.650
 5238POPC   NC313643  21.402  12.893   9.450
 5238POPC   PO413644  21.355  12.825   9.150
 5238POPC   GL113645  21.388  12.882   8.850
 5238POPC   GL213646  21.443  12.944   8.850
 5238POPC   C1A13647  21.347  12.880   8.550
 5238POPC   D2A13648  21.370  12.896   8.250
 5238POPC   C3A13649  21.339  12.838   7.950
 5238POPC   C4A13650  21.364  12.804   7.650
 5238POPC   C1B13651  21.578  12.965   8.550
 5238POPC   C2B13652  21.618  12.941   8.250
 5238POPC   C3B13653  21.563  13.007   7.950
 5238POPC   C4B13654  21.634  12.936   7.650
 5239POPC   NC313655  19.081  34.570   9.450
 5239POPC   PO413656  19.101  34.529   9.150
 5239POPC   GL113657  19.049  34.619   8.850
 5239POPC   GL213658  19.124  34.710   8.850
 5239POPC   C1A13659  19.019  34.622   8.550
 5239POPC   D2A13660  19.038  34.598   8.250
 5239POPC   C3A13661  19.035  34.569   7.950
 5239POPC   C4A13662  19.016  34.618   7.650
 5239POPC   C1B13663  19.100  34.773   8.550
 5239POPC   C2B13664  19.149  34.866   8.250
 5239POPC   C3B13665  19.146  34.857   7.950
 5239POPC   C4B13666  19.061  34.835   7.650
 5240POPC   NC313667  19.804  37.688   9.450
 5240POPC   PO413668  19.827  37.715   9.150
 5240POPC   GL113669  19.819  37.672   8.850
 5240POPC   GL213670  19.943  37.614   8.850
 5240POPC   C1A13671  19.799  37.658   8.550
 5240POPC   D2A13672  19.831  37.676   8.250
 5240POPC   C3A13673  19.806  37.706   7.950
 5240POPC   C4A13674  19.845  37.690   7.650
 5240POPC   C1B13675  20.078  37.512   8.550
 5240POPC   C2B13676  20.042  37.511   8.250
 5240POPC   C3B13677  20.023  37.559   7.950
 5240POPC   C4B13678  20.055  37.540   7.650
 5241POPC   NC313679  40.821  23.758   9.450
 5241POPC   PO413680  40.754  23.707   9.150
 5241POPC   GL113681  40.755  23.694   8.850
 5241POPC   GL213682  40.923  23.754   8.850
 5241POPC   C1A13683  40.810  23.763   8.550
 5241POPC   D2A13684  40.748  23.755   8.250
 5241POPC   C3A13685  40.817  23.707   7.950
 5241POPC   C4A13686  40.805  23.714   7.650
 5241POPC   C1B13687  40.952  23.929   8.550
 5241POPC   C2B13688  40.980  23.897   8.250
 5241POPC   C3B13689  40.922  23.855   7.950
 5241POPC   C4B13690  40.992  23.853   7.650
 5242POPC   NC313691  21.391   9.794   9.450
 5242POPC   PO413692  21.358   9.773   9.150
 5242POPC   GL113693  21.392   9.700   8.850
 5242POPC   GL213694  21.490   9.727   8.850
 5242POPC   C1A13695  21.358   9.705   8.550
 5242POPC   D2A13696  21.356   9.720   8.250
 5242POPC   C3A13697  21.369   9.733   7.950
 5242POPC   C4A13698  21.432   9.733   7.650
 5242POPC   C1B13699  21.672   9.784   8.550
 5242POPC   C2B13700  21.619   9.749   8.250
 5242POPC   C3B13701  21.662   9.740   7.950
 5242POPC   C4B13702  21.603   9.731   7.650
 5243POPC   NC313703  32.986  39.995   9.450
 5243POPC   PO413704  33.002  39.961   9.150
 5243POPC   GL113705  33.004  40.056   8.850
 5243POPC   GL213706  33.120  40.020   8.850
 5243POPC   C1A13707  33.045  39.964   8.550
 5243POPC   D2A13708  33.064  39.965   8.250
 5243POPC   C3A13709  33.025  40.005   7.950
 5243POPC   C4A13710  33.046  40.017   7.650
 5243POPC   C1B13711  33.293  39.976   8.550
 5243POPC   C2B13712  33.279  39.985   8.250
 5243POPC   C3B13713  33.288  39.955   7.950
 5243POPC   C4B13714  33.311  39.914   7.650
 5244POPC   NC313715  25.230   6.692   9.450
 5244POPC   PO413716  25.233   6.684   9.150
 5244POPC   GL113717  25.261   6.647   8.850
 5244POPC   GL213718  25.380   6.702   8.850
 5244POPC   C1A13719  25.300   6.652   8.550
 5244POPC   D2A13720  25.305   6.610   8.250
 5244POPC   C3A13721  25.293   6.629   7.950
 5244POPC   C4A13722  25.216   6.616   7.650
 5244POPC   C1B13723  25.375   6.850   8.550
 5244POPC   C2B13724  25.446   6.877   8.250
 5244POPC   C3B13725  25.373   6.846   7.950
 5244POPC   C4B13726  25.407   6.827   7.650
 5245POPC   NC313727  23.723  43.894   9.450
 5245POPC   PO413728  23.724  43.872   9.150
 5245POPC   GL113729  23.664  43.839   8.850
 5245POPC   GL213730  23.625  43.997   8.850
 5245POPC   C1A13731  23.715  43.845   8.550
 5245POPC   D2A13732  23.738  43.848   8.250
 5245POPC   C3A13733  23.678  43.857   7.950
 5245POPC   C4A13734  23.707  43.932   7.650
 5245POPC   C1B13735  23.643  44.096   8.550
 5245POPC   C2B13736  23.639  44.151   8.250
 5245POPC   C3B13737  23.591  44.076   7.950
 5245POPC   C4B13738  23.608  44.098   7.650
 5246POPC   NC313739  22.184   2.806   9.450
 5246POPC   PO413740  22.194   2.786   9.150
 5246POPC   GL113741  22.193   2.788   8.850
 5246POPC   GL213742  22.042   2.718   8.850
 5246POPC   C1A13743  22.145   2.742   8.550
 5246POPC   D2A13744  22.113   2.735   8.250
 5246POPC   C3A13745  22.136   2.744   7.950
 5246POPC   C4A13746  22.195   2.779   7.650
 5246POPC   C1B13747  21.915   2.745   8.550
 5246POPC   C2B13748  21.879   2.703   8.250
 5246POPC   C3B13749  21.968   2.760   7.950
 5246POPC   C4B13750  21.912   2.755   7.650
 5247POPC   NC313751  43.134  19.807   9.450
 5247POPC   PO413752  43.107  19.853   9.150
 5247POPC   GL113753  43.062  19.837   8.850
 5247POPC   GL213754  43.200  19.729   8.850
 5247POPC   C1A13755  43.159  19.794   8.550
 5247POPC   D2A13756  43.119  19.849   8.250
 5247POPC   C3A13757  43.131  19.816   7.950
 5247POPC   C4A13758  43.104  19.870   7.650
 5247POPC   C1B13759  43.228  19.594   8.550
 5247POPC   C2B13760  43.260  19.615   8.250
 5247POPC   C3B13761  43.249  19.604   7.950
 5247POPC   C4B13762  43.202  19.575   7.650
 5248POPC   NC313763  29.104  29.894   9.450
 5248POPC   PO413764  29.139  29.875   9.150
 5248POPC   GL113765  29.154  29.917   8.850
 5248POPC   GL213766  29.276  29.865   8.850
 5248POPC   C1A13767  29.194  29.908   8.550
 5248POPC   D2A13768  29.115  29.881   8.250
 5248POPC   C3A13769  29.104  29.968   7.950
 5248POPC   C4A13770  29.115  29.901   7.650
 5248POPC   C1B13771  29.347  29.721   8.550
 5248POPC   C2B13772  29.268  29.751   8.250
 5248POPC   C3B13773  29.295  29.730   7.950
 5248POPC   C4B13774  29.367  29.758   7.650
 5249POPC   NC313775  33.812  32.997   9.450
 5249POPC   PO413776  33.786  33.050   9.150
 5249POPC   GL113777  33.838  33.038   8.850
 5249POPC   GL213778  33.864  32.870   8.850
 5249POPC   C1A13779  33.806  33.022   8.550
 5249POPC   D2A13780  33.784  32.982   8.250
 5249POPC   C3A13781  33.754  32.999   7.950
 5249POPC   C4A13782  33.770  33.053   7.650
 5249POPC   C1B13783  33.874  32.822   8.550
 5249POPC   C2B13784  33.891  32.776   8.250
 5249POPC   C3B13785  33.917  32.743   7.950
 5249POPC   C4B13786  33.850  32.741   7.650
 5250POPC   NC313787  26.801  38.421   9.450
 5250POPC   PO413788  26.830  38.464   9.150
 5250POPC   GL113789  26.842  38.461   8.850
 5250POPC   GL213790  26.963  38.534   8.850
 5250POPC   C1A13791  26.778  38.448   8.550
 5250POPC   D2A13792  26.789  38.477   8.250
 5250POPC   C3A13793  26.844  38.468   7.950
 5250POPC   C4A13794  26.852  38.440   7.650
 5250POPC   C1B13795  27.009  38.563   8.550
 5250POPC   C2B13796  27.015  38.565   8.250
 5250POPC   C3B13797  26.970  38.607   7.950
 5250POPC   C4B13798  27.037  38.641   7.650
 5251POPC   NC313799   2.792   1.944   9.450
 5251POPC   PO413800   2.801   2.003   9.150
 5251POPC   GL113801   2.800   2.035   8.850
 5251POPC   GL213802   2.651   2.063   8.850
 5251POPC   C1A13803   2.725   1.986   8.550
 5251POPC   D2A13804   2.802   1.993   8.250
 5251POPC   C3A13805   2.791   1.976   7.950
 5251POPC   C4A13806   2.726   1.970   7.650
 5251POPC   C1B13807   2.488   2.047   8.550
 5251POPC   C2B13808   2.550   2.046   8.250
 5251POPC   C3B13809   2.486   2.034   7.950
 5251POPC   C4B13810   2.491   2.103   7.650
 5252POPC   NC313811   2.732   2.736   9.450
 5252POPC   PO413812   2.726   2.777   9.150
 5252POPC   GL113813   2.802   2.724   8.850
 5252POPC   GL213814   2.796   2.708   8.850
 5252POPC   C1A13815   2.757   2.730   8.550
 5252POPC   D2A13816   2.744   2.721   8.250
 5252POPC   C3A13817   2.744   2.807   7.950
 5252POPC   C4A13818   2.774   2.774   7.650
 5252POPC   C1B13819   2.854   2.565   8.550
 5252POPC   C2B13820   2.854   2.510   8.250
 5252POPC   C3B13821   2.894   2.536   7.950
 5252POPC   C4B13822   2.860   2.538   7.650
 5253POPC   NC313823  39.277  39.984   9.450
 5253POPC   PO413824  39.238  40.008   9.150
 5253POPC   GL113825  39.202  39.973   8.850
 5253POPC   GL213826  39.136  40.098   8.850
 5253POPC   C1A13827  39.230  40.016   8.550
 5253POPC   D2A13828  39.270  39.984   8.250
 5253POPC   C3A13829  39.200  40.042   7.950
 5253POPC   C4A13830  39.281  40.023   7.650
 5253POPC   C1B13831  39.077  40.170   8.550
 5253POPC   C2B13832  39.053  40.193   8.250
 5253POPC   C3B13833  39.006  40.146   7.950
 5253POPC   C4B13834  39.040  40.198   7.650
 5254POPC   NC313835  30.744  43.103   9.450
 5254POPC   PO413836  30.690  43.079   9.150
 5254POPC   GL113837  30.686  43.122   8.850
 5254POPC   GL213838  30.781  43.175   8.850
 5254POPC   C1A13839  30.723  43.061   8.550
 5254POPC   D2A13840  30.662  43.116   8.250
 5254POPC   C3A13841  30.713  43.064   7.950
 5254POPC   C4A13842  30.679  43.149   7.650
 5254POPC   C1B13843  30.864  43.345   8.550
 5254POPC   C2B13844  30.815  43.269   8.250
 5254POPC   C3B13845  30.849  43.282   7.950
 5254POPC   C4B13846  30.867  43.308   7.650
 5255POPC   NC313847  27.550  26.071   9.450
 5255POPC   PO413848  27.608  26.081   9.150
 5255POPC   GL113849  27.622  26.007   8.850
 5255POPC   GL213850  27.502  26.087   8.850
 5255POPC   C1A13851  27.595  26.056   8.550
 5255POPC   D2A13852  27.623  26.068   8.250
 5255POPC   C3A13853  27.627  26.075   7.950
 5255POPC   C4A13854  27.596  26.004   7.650
 5255POPC   C1B13855  27.386  26.151   8.550
 5255POPC   C2B13856  27.387  26.152   8.250
 5255POPC   C3B13857  27.403  26.163   7.950
 5255POPC   C4B13858  27.379  26.142   7.650
 5256POPC   NC313859  38.471  26.015   9.450
 5256POPC   PO413860  38.431  26.044   9.150
 5256POPC   GL113861  38.412  25.996   8.850
 5256POPC   GL213862  38.585  26.048   8.850
 5256POPC   C1A13863  38.441  26.007   8.550
 5256POPC   D2A13864  38.490  26.003   8.250
 5256POPC   C3A13865  38.471  26.007   7.950
 5256POPC   C4A13866  38.492  26.056   7.650
 5256POPC   C1B13867  38.702  25.978   8.550
 5256POPC   C2B13868  38.678  25.982   8.250
 5256POPC   C3B13869  38.664  25.988   7.950
 5256POPC   C4B13870  38.704  26.029   7.650
 5257POPC   NC313871  26.866  20.632   9.450
 5257POPC   PO413872  26.835  20.637   9.150
 5257POPC   GL113873  26.791  20.650   8.850
 5257POPC   GL213874  26.904  20.738   8.850
 5257POPC   C1A13875  26.823  20.636   8.550
 5257POPC   D2A13876  26.826  20.578   8.250
 5257POPC   C3A13877  26.848  20.621   7.950
 5257POPC   C4A13878  26.842  20.635   7.650
 5257POPC   C1B13879  26.928  20.817   8.550
 5257POPC   C2B13880  26.870  20.824   8.250
 5257POPC   C3B13881  26.882  20.874   7.950
 5257POPC   C4B13882  26.897  20.864   7.650
 5258POPC   NC313883  36.866   5.832   9.450
 5258POPC   PO413884  36.933   5.890   9.150
 5258POPC   GL113885  36.926   5.851   8.850
 5258POPC   GL213886  36.952   6.004   8.850
 5258POPC   C1A13887  36.927   5.880   8.550
 5258POPC   D2A13888  36.950   5.896   8.250
 5258POPC   C3A13889  36.937   5.900   7.950
 5258POPC   C4A13890  36.931   5.916   7.650
 5258POPC   C1B13891  37.046   6.033   8.550
 5258POPC   C2B13892  37.098   6.003   8.250
 5258POPC   C3B13893  37.073   6.081   7.950
 5258POPC   C4B13894  37.063   6.054   7.650
 5259POPC   NC313895   8.926   5.911   9.450
 5259POPC   PO413896   8.965   5.820   9.150
 5259POPC   GL113897   8.974   5.833   8.850
 5259POPC   GL213898   8.947   5.751   8.850
 5259POPC   C1A13899   8.950   5.843   8.550
 5259POPC   D2A13900   8.975   5.863   8.250
 5259POPC   C3A13901   8.928   5.856   7.950
 5259POPC   C4A13902   9.002   5.857   7.650
 5259POPC   C1B13903   8.848   5.645   8.550
 5259POPC   C2B13904   8.871   5.679   8.250
 5259POPC   C3B13905   8.870   5.631   7.950
 5259POPC   C4B13906   8.833   5.697   7.650
 5260POPC   NC313907   5.870  39.242   9.450
 5260POPC   PO413908   5.908  39.210   9.150
 5260POPC   GL113909   5.884  39.208   8.850
 5260POPC   GL213910   5.751  39.163   8.850
 5260POPC   C1A13911   5.866  39.270   8.550
 5260POPC   D2A13912   5.863  39.205   8.250
 5260POPC   C3A13913   5.835  39.209   7.950
 5260POPC   C4A13914   5.896  39.276   7.650
 5260POPC   C1B13915   5.641  39.032   8.550
 5260POPC   C2B13916   5.721  39.037   8.250
 5260POPC   C3B13917   5.703  39.091   7.950
 5260POPC   C4B13918   5.700  39.063   7.650
 5261POPC   NC313919  44.661  44.706   9.450
 5261POPC   PO413920  44.672  44.685   9.150
 5261POPC   GL113921  44.653  44.663   8.850
 5261POPC   GL213922  44.811  44.704   8.850
 5261POPC   C1A13923  44.668  44.620   8.550
 5261POPC   D2A13924  44.680  44.643   8.250
 5261POPC   C3A13925  44.666  44.636   7.950
 5261POPC   C4A13926  44.697  44.647   7.650
 5261POPC   C1B13927  44.845  44.770   8.550
 5261POPC   C2B13928  44.877  44.770   8.250
 5261POPC   C3B13929  44.891  44.794   7.950
 5261POPC   C4B13930  44.907  44.711   7.650
 5262POPC   NC313931  21.341  25.265   9.450
 5262POPC   PO413932  21.343  25.262   9.150
 5262POPC   GL113933  21.427  25.247   8.850
 5262POPC   GL213934  21.443  25.397   8.850
 5262POPC   C1A13935  21.431  25.311   8.550
 5262POPC   D2A13936  21.356  25.311   8.250
 5262POPC   C3A13937  21.343  25.295   7.950
 5262POPC   C4A13938  21.371  25.299   7.650
 5262POPC   C1B13939  21.606  25.489   8.550
 5262POPC   C2B13940  21.604  25.393   8.250
 5262POPC   C3B13941  21.572  25.479   7.950
 5262POPC   C4B13942  21.564  25.443   7.650
 5263POPC   NC313943   6.681  43.890   9.450
 5263POPC   PO413944   6.649  43.852   9.150
 5263POPC   GL113945   6.687  43.843   8.850
 5263POPC   GL213946   6.642  43.781   8.850
 5263POPC   C1A13947   6.682  43.927   8.550
 5263POPC   D2A13948   6.608  43.855   8.250
 5263POPC   C3A13949   6.600  43.884   7.950
 5263POPC   C4A13950   6.611  43.867   7.650
 5263POPC   C1B13951   6.525  43.676   8.550
 5263POPC   C2B13952   6.583  43.650   8.250
 5263POPC   C3B13953   6.548  43.673   7.950
 5263POPC   C4B13954   6.533  43.666   7.650
 5264POPC   NC313955   1.246  16.762   9.450
 5264POPC   PO413956   1.204  16.764   9.150
 5264POPC   GL113957   1.210  16.743   8.850
 5264POPC   GL213958   1.259  16.804   8.850
 5264POPC   C1A13959   1.241  16.718   8.550
 5264POPC   D2A13960   1.230  16.771   8.250
 5264POPC   C3A13961   1.234  16.770   7.950
 5264POPC   C4A13962   1.169  16.682   7.650
 5264POPC   C1B13963   1.268  17.001   8.550
 5264POPC   C2B13964   1.324  16.932   8.250
 5264POPC   C3B13965   1.331  17.003   7.950
 5264POPC   C4B13966   1.324  16.964   7.650
 5265POPC   NC313967  41.556  15.930   9.450
 5265POPC   PO413968  41.578  16.000   9.150
 5265POPC   GL113969  41.548  15.981   8.850
 5265POPC   GL213970  41.568  15.829   8.850
 5265POPC   C1A13971  41.600  15.909   8.550
 5265POPC   D2A13972  41.523  15.992   8.250
 5265POPC   C3A13973  41.600  15.954   7.950
 5265POPC   C4A13974  41.540  15.993   7.650
 5265POPC   C1B13975  41.580  15.735   8.550
 5265POPC   C2B13976  41.619  15.739   8.250
 5265POPC   C3B13977  41.622  15.740   7.950
 5265POPC   C4B13978  41.615  15.665   7.650
 5266POPC   NC313979  10.570  22.975   9.450
 5266POPC   PO413980  10.496  22.940   9.150
 5266POPC   GL113981  10.516  22.910   8.850
 5266POPC   GL213982  10.460  22.857   8.850
 5266POPC   C1A13983  10.489  22.985   8.550
 5266POPC   D2A13984  10.488  22.904   8.250
 5266POPC   C3A13985  10.512  22.954   7.950
 5266POPC   C4A13986  10.549  22.973   7.650
 5266POPC   C1B13987  10.371  22.803   8.550
 5266POPC   C2B13988  10.355  22.791   8.250
 5266POPC   C3B13989  10.368  22.716   7.950
 5266POPC   C4B13990  10.404  22.705   7.650
 5267POPC   NC313991  31.519   9.019   9.450
 5267POPC   PO413992  31.470   8.956   9.150
 5267POPC   GL113993  31.425   9.007   8.850
 5267POPC   GL213994  31.595   9.004   8.850
 5267POPC   C1A13995  31.427   9.002   8.550
 5267POPC   D2A13996  31.489   9.010   8.250
 5267POPC   C3A13997  31.445   9.009   7.950
 5267POPC   C4A13998  31.517   9.007   7.650
 5267POPC   C1B13999  31.678   9.061   8.550
 5267POPC   C2B14000  31.723   9.074   8.250
 5267POPC   C3B14001  31.729   9.007   7.950
 5267POPC   C4B14002  31.681   9.075   7.650
 5268POPC   NC314003  31.478  17.459   9.450
 5268POPC   PO414004  31.496  17.510   9.150
 5268POPC   GL114005  31.485  17.550   8.850
 5268POPC   GL214006  31.477  17.638   8.850
 5268POPC   C1A14007  31.442  17.537   8.550
 5268POPC   D2A14008  31.458  17.495   8.250
 5268POPC   C3A14009  31.466  17.485   7.950
 5268POPC   C4A14010  31.465  17.494   7.650
 5268POPC   C1B14011  31.414  17.781   8.550
 5268POPC   C2B14012  31.428  17.801   8.250
 5268POPC   C3B14013  31.412  17.770   7.950
 5268POPC   C4B14014  31.463  17.780   7.650
 5269POPC   NC314015  29.925  31.485   9.450
 5269POPC   PO414016  29.933  31.476   9.150
 5269POPC   GL114017  29.969  31.456   8.850
 5269POPC   GL214018  29.764  31.517   8.850
 5269POPC   C1A14019  29.969  31.451   8.550
 5269POPC   D2A14020  29.934  31.479   8.250
 5269POPC   C3A14021  29.917  31.427   7.950
 5269POPC   C4A14022  29.953  31.483   7.650
 5269POPC   C1B14023  29.678  31.463   8.550
 5269POPC   C2B14024  29.701  31.438   8.250
 5269POPC   C3B14025  29.632  31.433   7.950
 5269POPC   C4B14026  29.632  31.487   7.650
 5270POPC   NC314027  40.750  19.099   9.450
 5270POPC   PO414028  40.757  19.084   9.150
 5270POPC   GL114029  40.776  19.088   8.850
 5270POPC   GL214030  40.892  19.004   8.850
 5270POPC   C1A14031  40.779  19.057   8.550
 5270POPC   D2A14032  40.825  19.030   8.250
 5270POPC   C3A14033  40.827  19.091   7.950
 5270POPC   C4A14034  40.748  19.104   7.650
 5270POPC   C1B14035  41.005  18.891   8.550
 5270POPC   C2B14036  41.032  18.958   8.250
 5270POPC   C3B14037  41.017  18.949   7.950
 5270POPC   C4B14038  40.999  18.914   7.650
 5271POPC   NC314039   8.187  31.492   9.450
 5271POPC   PO414040   8.227  31.432   9.150
 5271POPC   GL114041   8.171  31.434   8.850
 5271POPC   GL214042   8.135  31.633   8.850
 5271POPC   C1A14043   8.193  31.492   8.550
 5271POPC   D2A14044   8.184  31.517   8.250
 5271POPC   C3A14045   8.159  31.482   7.950
 5271POPC   C4A14046   8.201  31.482   7.650
 5271POPC   C1B14047   8.176  31.703   8.550
 5271POPC   C2B14048   8.114  31.712   8.250
 5271POPC   C3B14049   8.179  31.673   7.950
 5271POPC   C4B14050   8.129  31.690   7.650
 5272POPC   NC314051   4.320   5.837   9.450
 5272POPC   PO414052   4.347   5.891   9.150
 5272POPC   GL114053   4.314   5.879   8.850
 5272POPC   GL214054   4.430   5.739   8.850
 5272POPC   C1A14055   4.332   5.856   8.550
 5272POPC   D2A14056   4.328   5.912   8.250
 5272POPC   C3A14057   4.348   5.906   7.950
 5272POPC   C4A14058   4.287   5.898   7.650
 5272POPC   C1B14059   4.492   5.678   8.550
 5272POPC   C2B14060   4.531   5.707   8.250
 5272POPC   C3B14061   4.541   5.640   7.950
 5272POPC   C4B14062   4.530   5.704   7.650
 5273POPC   NC314063  25.268  10.483   9.450
 5273POPC   PO414064  25.235  10.568   9.150
 5273POPC   GL114065  25.271  10.531   8.850
 5273POPC   GL214066  25.347  10.468   8.850
 5273POPC   C1A14067  25.295  10.498   8.550
 5273POPC   D2A14068  25.237  10.493   8.250
 5273POPC   C3A14069  25.258  10.554   7.950
 5273POPC   C4A14070  25.245  10.518   7.650
 5273POPC   C1B14071  25.474  10.363   8.550
 5273POPC   C2B14072  25.476  10.366   8.250
 5273POPC   C3B14073  25.452  10.371   7.950
 5273POPC   C4B14074  25.494  10.307   7.650
 5274POPC   NC314075  13.586  12.837   9.450
 5274POPC   PO414076  13.664  12.893   9.150
 5274POPC   GL114077  13.644  12.834   8.850
 5274POPC   GL214078  13.712  12.977   8.850
 5274POPC   C1A14079  13.625  12.894   8.550
 5274POPC   D2A14080  13.608  12.857   8.250
 5274POPC   C3A14081  13.672  12.885   7.950
 5274POPC   C4A14082  13.645  12.881   7.650
 5274POPC   C1B14083  13.753  13.065   8.550
 5274POPC   C2B14084  13.739  13.105   8.250
 5274POPC   C3B14085  13.713  13.080   7.950
 5274POPC   C4B14086  13.724  13.094   7.650
 5275POPC   NC314087  33.045  29.895   9.450
 5275POPC   PO414088  33.000  29.970   9.150
 5275POPC   GL114089  33.063  29.899   8.850
 5275POPC   GL214090  32.943  29.884   8.850
 5275POPC   C1A14091  32.979  29.945   8.550
 5275POPC   D2A14092  33.053  29.897   8.250
 5275POPC   C3A14093  33.059  29.958   7.950
 5275POPC   C4A14094  33.032  29.956   7.650
 5275POPC   C1B14095  32.782  29.948   8.550
 5275POPC   C2B14096  32.745  29.961   8.250
 5275POPC   C3B14097  32.773  29.959   7.950
 5275POPC   C4B14098  32.793  29.900   7.650
 5276POPC   NC314099  25.258  15.148   9.450
 5276POPC   PO414100  25.291  15.181   9.150
 5276POPC   GL114101  25.258  15.195   8.850
 5276POPC   GL214102  25.352  15.104   8.850
 5276POPC   C1A14103  25.242  15.150   8.550
 5276POPC   D2A14104  25.307  15.217   8.250
 5276POPC   C3A14105  25.240  15.148   7.950
 5276POPC   C4A14106  25.241  15.197   7.650
 5276POPC   C1B14107  25.469  15.048   8.550
 5276POPC   C2B14108  25.521  15.123   8.250
 5276POPC   C3B14109  25.469  15.100   7.950
 5276POPC   C4B14110  25.488  15.114   7.650
 5277POPC   NC314111   8.207  25.262   9.450
 5277POPC   PO414112   8.165  25.286   9.150
 5277POPC   GL114113   8.161  25.267   8.850
 5277POPC   GL214114   8.172  25.402   8.850
 5277POPC   C1A14115   8.224  25.234   8.550
 5277POPC   D2A14116   8.236  25.292   8.250
 5277POPC   C3A14117   8.163  25.265   7.950
 5277POPC   C4A14118   8.187  25.290   7.650
 5277POPC   C1B14119   8.077  25.485   8.550
 5277POPC   C2B14120   8.121  25.546   8.250
 5277POPC   C3B14121   8.149  25.460   7.950
 5277POPC   C4B14122   8.074  25.520   7.650
 5278POPC   NC314123  36.901  38.490   9.450
 5278POPC   PO414124  36.886  38.406   9.150
 5278POPC   GL114125  36.858  38.427   8.850
 5278POPC   GL214126  36.897  38.347   8.850
 5278POPC   C1A14127  36.911  38.474   8.550
 5278POPC   D2A14128  36.927  38.422   8.250
 5278POPC   C3A14129  36.926  38.426   7.950
 5278POPC   C4A14130  36.908  38.460   7.650
 5278POPC   C1B14131  36.866  38.182   8.550
 5278POPC   C2B14132  36.912  38.158   8.250
 5278POPC   C3B14133  36.862  38.162   7.950
 5278POPC   C4B14134  36.894  38.253   7.650
 5279POPC   NC314135   9.007   7.453   9.450
 5279POPC   PO414136   8.941   7.380   9.150
 5279POPC   GL114137   8.999   7.384   8.850
 5279POPC   GL214138   9.020   7.490   8.850
 5279POPC   C1A14139   8.968   7.447   8.550
 5279POPC   D2A14140   8.992   7.469   8.250
 5279POPC   C3A14141   8.983   7.417   7.950
 5279POPC   C4A14142   8.952   7.430   7.650
 5279POPC   C1B14143   9.147   7.618   8.550
 5279POPC   C2B14144   9.110   7.621   8.250
 5279POPC   C3B14145   9.160   7.555   7.950
 5279POPC   C4B14146   9.193   7.557   7.650
 5280POPC   NC314147  19.033   5.886   9.450
 5280POPC   PO414148  19.057   5.865   9.150
 5280POPC   GL114149  19.066   5.857   8.850
 5280POPC   GL214150  19.195   5.809   8.850
 5280POPC   C1A14151  19.051   5.832   8.550
 5280POPC   D2A14152  19.104   5.885   8.250
 5280POPC   C3A14153  19.036   5.833   7.950
 5280POPC   C4A14154  19.019   5.918   7.650
 5280POPC   C1B14155  19.340   5.829   8.550
 5280POPC   C2B14156  19.318   5.785   8.250
 5280POPC   C3B14157  19.328   5.828   7.950
 5280POPC   C4B14158  19.310   5.765   7.650
 5281POPC   NC314159   8.971   6.640   9.450
 5281POPC   PO414160   9.014   6.672   9.150
 5281POPC   GL114161   9.014   6.622   8.850
 5281POPC   GL214162   8.859   6.736   8.850
 5281POPC   C1A14163   8.983   6.675   8.550
 5281POPC   D2A14164   8.936   6.622   8.250
 5281POPC   C3A14165   9.016   6.644   7.950
 5281POPC   C4A14166   8.969   6.613   7.650
 5281POPC   C1B14167   8.740   6.836   8.550
 5281POPC   C2B14168   8.808   6.778   8.250
 5281POPC   C3B14169   8.759   6.844   7.950
 5281POPC   C4B14170   8.766   6.828   7.650
 5282POPC   NC314171  22.892  37.634   9.450
 5282POPC   PO414172  22.940  37.691   9.150
 5282POPC   GL114173  22.946  37.713   8.850
 5282POPC   GL214174  23.023  37.722   8.850
 5282POPC   C1A14175  22.965  37.655   8.550
 5282POPC   D2A14176  22.892  37.638   8.250
 5282POPC   C3A14177  22.917  37.701   7.950
 5282POPC   C4A14178  22.986  37.637   7.650
 5282POPC   C1B14179  23.158  37.687   8.550
 5282POPC   C2B14180  23.139  37.712   8.250
 5282POPC   C3B14181  23.151  37.768   7.950
 5282POPC   C4B14182  23.198  37.719   7.650
 5283POPC   NC314183  24.441  29.935   9.450
 5283POPC   PO414184  24.463  29.929   9.150
 5283POPC   GL114185  24.462  29.922   8.850
 5283POPC   GL214186  24.386  29.845   8.850
 5283POPC   C1A14187  24.519  29.942   8.550
 5283POPC   D2A14188  24.458  29.941   8.250
 5283POPC   C3A14189  24.531  29.937   7.950
 5283POPC   C4A14190  24.454  29.920   7.650
 5283POPC   C1B14191  24.296  29.712   8.550
 5283POPC   C2B14192  24.323  29.743   8.250
 5283POPC   C3B14193  24.372  29.737   7.950
 5283POPC   C4B14194  24.309  29.685   7.650
 5284POPC   NC314195  26.803   7.465   9.450
 5284POPC   PO414196  26.793   7.372   9.150
 5284POPC   GL114197  26.788   7.401   8.850
 5284POPC   GL214198  26.740   7.373   8.850
 5284POPC   C1A14199  26.834   7.392   8.550
 5284POPC   D2A14200  26.786   7.388   8.250
 5284POPC   C3A14201  26.800   7.401   7.950
 5284POPC   C4A14202  26.810   7.394   7.650
 5284POPC   C1B14203  26.580   7.325   8.550
 5284POPC   C2B14204  26.537   7.380   8.250
 5284POPC   C3B14205  26.622   7.393   7.950
 5284POPC   C4B14206  26.549   7.362   7.650
 5285POPC   NC314207  44.659  38.426   9.450
 5285POPC   PO414208  44.663  38.433   9.150
 5285POPC   GL114209  44.698  38.489   8.850
 5285POPC   GL214210  44.542  38.402   8.850
 5285POPC   C1A14211  44.655  38.476   8.550
 5285POPC   D2A14212  44.616  38.480   8.250
 5285POPC   C3A14213  44.635  38.438   7.950
 5285POPC   C4A14214  44.640  38.479   7.650
 5285POPC   C1B14215  44.532  38.264   8.550
 5285POPC   C2B14216  44.447  38.285   8.250
 5285POPC   C3B14217  44.446  38.301   7.950
 5285POPC   C4B14218  44.534  38.309   7.650
 5286POPC   NC314219  13.652  36.124   9.450
 5286POPC   PO414220  13.600  36.096   9.150
 5286POPC   GL114221  13.603  36.108   8.850
 5286POPC   GL214222  13.689  36.037   8.850
 5286POPC   C1A14223  13.596  36.149   8.550
 5286POPC   D2A14224  13.655  36.095   8.250
 5286POPC   C3A14225  13.578  36.157   7.950
 5286POPC   C4A14226  13.588  36.146   7.650
 5286POPC   C1B14227  13.823  35.953   8.550
 5286POPC   C2B14228  13.813  35.922   8.250
 5286POPC   C3B14229  13.810  35.963   7.950
 5286POPC   C4B14230  13.840  35.930   7.650
 5287POPC   NC314231  22.129  12.840   9.450
 5287POPC   PO414232  22.186  12.856   9.150
 5287POPC   GL114233  22.147  12.809   8.850
 5287POPC   GL214234  22.294  12.850   8.850
 5287POPC   C1A14235  22.192  12.890   8.550
 5287POPC   D2A14236  22.154  12.808   8.250
 5287POPC   C3A14237  22.169  12.826   7.950
 5287POPC   C4A14238  22.194  12.804   7.650
 5287POPC   C1B14239  22.428  12.917   8.550
 5287POPC   C2B14240  22.375  12.978   8.250
 5287POPC   C3B14241  22.447  12.975   7.950
 5287POPC   C4B14242  22.371  12.903   7.650
 5288POPC   NC314243  30.666  43.837   9.450
 5288POPC   PO414244  30.724  43.863   9.150
 5288POPC   GL114245  30.739  43.916   8.850
 5288POPC   GL214246  30.696  43.784   8.850
 5288POPC   C1A14247  30.689  43.879   8.550
 5288POPC   D2A14248  30.715  43.883   8.250
 5288POPC   C3A14249  30.704  43.916   7.950
 5288POPC   C4A14250  30.696  43.884   7.650
 5288POPC   C1B14251  30.775  43.655   8.550
 5288POPC   C2B14252  30.735  43.621   8.250
 5288POPC   C3B14253  30.735  43.643   7.950
 5288POPC   C4B14254  30.748  43.677   7.650
 5289POPC   NC314255   3.506   1.989   9.450
 5289POPC   PO414256   3.567   1.977   9.150
 5289POPC   GL114257   3.537   1.980   8.850
 5289POPC   GL214258   3.650   2.001   8.850
 5289POPC   C1A14259   3.586   2.038   8.550
 5289POPC   D2A14260   3.575   2.039   8.250
 5289POPC   C3A14261   3.581   2.030   7.950
 5289POPC   C4A14262   3.520   2.018   7.650
 5289POPC   C1B14263   3.752   1.961   8.550
 5289POPC   C2B14264   3.817   1.983   8.250
 5289POPC   C3B14265   3.760   1.937   7.950
 5289POPC   C4B14266   3.773   1.921   7.650
 5290POPC   NC314267  31.501  27.594   9.450
 5290POPC   PO414268  31.450  27.623   9.150
 5290POPC   GL114269  31.440  27.554   8.850
 5290POPC   GL214270  31.470  27.688   8.850
 5290POPC   C1A14271  31.463  27.577   8.550
 5290POPC   D2A14272  31.460  27.622   8.250
 5290POPC   C3A14273  31.469  27.567   7.950
 5290POPC   C4A14274  31.469  27.621   7.650
 5290POPC   C1B14275  31.447  27.890   8.550
 5290POPC   C2B14276  31.507  27.853   8.250
 5290POPC   C3B14277  31.544  27.804   7.950
 5290POPC   C4B14278  31.531  27.824   7.650
 5291POPC   NC314279  15.162  14.414   9.450
 5291POPC   PO414280  15.193  14.402   9.150
 5291POPC   GL114281  15.191  14.392   8.850
 5291POPC   GL214282  15.087  14.428   8.850
 5291POPC   C1A14283  15.218  14.418   8.550
 5291POPC   D2A14284  15.157  14.395   8.250
 5291POPC   C3A14285  15.219  14.449   7.950
 5291POPC   C4A14286  15.163  14.415   7.650
 5291POPC   C1B14287  14.952  14.445   8.550
 5291POPC   C2B14288  14.941  14.447   8.250
 5291POPC   C3B14289  14.950  14.418   7.950
 5291POPC   C4B14290  14.888  14.505   7.650
 5292POPC   NC314291   1.999  43.131   9.450
 5292POPC   PO414292   2.009  43.117   9.150
 5292POPC   GL114293   2.030  43.070   8.850
 5292POPC   GL214294   1.988  43.013   8.850
 5292POPC   C1A14295   1.997  43.090   8.550
 5292POPC   D2A14296   2.025  43.099   8.250
 5292POPC   C3A14297   1.990  43.129   7.950
 5292POPC   C4A14298   2.038  43.074   7.650
 5292POPC   C1B14299   2.098  42.844   8.550
 5292POPC   C2B14300   2.007  42.873   8.250
 5292POPC   C3B14301   2.092  42.913   7.950
 5292POPC   C4B14302   2.013  42.900   7.650
 5293POPC   NC314303  18.236  40.807   9.450
 5293POPC   PO414304  18.267  40.772   9.150
 5293POPC   GL114305  18.294  40.742   8.850
 5293POPC   GL214306  18.232  40.835   8.850
 5293POPC   C1A14307  18.314  40.745   8.550
 5293POPC   D2A14308  18.237  40.807   8.250
 5293POPC   C3A14309  18.285  40.785   7.950
 5293POPC   C4A14310  18.294  40.793   7.650
 5293POPC   C1B14311  18.109  41.005   8.550
 5293POPC   C2B14312  18.083  40.966   8.250
 5293POPC   C3B14313  18.137  40.965   7.950
 5293POPC   C4B14314  18.109  40.956   7.650
 5294POPC   NC314315  42.339  12.032   9.450
 5294POPC   PO414316  42.321  12.058   9.150
 5294POPC   GL114317  42.296  12.075   8.850
 5294POPC   GL214318  42.208  12.045   8.850
 5294POPC   C1A14319  42.350  12.066   8.550
 5294POPC   D2A14320  42.384  12.060   8.250
 5294POPC   C3A14321  42.285  12.051   7.950
 5294POPC   C4A14322  42.289  12.034   7.650
 5294POPC   C1B14323  42.113  12.078   8.550
 5294POPC   C2B14324  42.049  12.076   8.250
 5294POPC   C3B14325  42.080  12.080   7.950
 5294POPC   C4B14326  42.091  12.097   7.650
 5295POPC   NC314327   6.612   7.420   9.450
 5295POPC   PO414328   6.682   7.445   9.150
 5295POPC   GL114329   6.616   7.376   8.850
 5295POPC   GL214330   6.697   7.567   8.850
 5295POPC   C1A14331   6.680   7.382   8.550
 5295POPC   D2A14332   6.631   7.444   8.250
 5295POPC   C3A14333   6.663   7.464   7.950
 5295POPC   C4A14334   6.655   7.456   7.650
 5295POPC   C1B14335   6.653   7.698   8.550
 5295POPC   C2B14336   6.644   7.630   8.250
 5295POPC   C3B14337   6.719   7.644   7.950
 5295POPC   C4B14338   6.698   7.693   7.650
 5296POPC   NC314339  12.806  34.568   9.450
 5296POPC   PO414340  12.802  34.600   9.150
 5296POPC   GL114341  12.837  34.619   8.850
 5296POPC   GL214342  12.838  34.669   8.850
 5296POPC   C1A14343  12.819  34.595   8.550
 5296POPC   D2A14344  12.811  34.616   8.250
 5296POPC   C3A14345  12.864  34.551   7.950
 5296POPC   C4A14346  12.853  34.565   7.650
 5296POPC   C1B14347  12.940  34.818   8.550
 5296POPC   C2B14348  12.878  34.791   8.250
 5296POPC   C3B14349  12.882  34.809   7.950
 5296POPC   C4B14350  12.936  34.851   7.650
 5297POPC   NC314351  12.045  18.235   9.450
 5297POPC   PO414352  12.105  18.270   9.150
 5297POPC   GL114353  12.053  18.305   8.850
 5297POPC   GL214354  11.915  18.378   8.850
 5297POPC   C1A14355  12.112  18.286   8.550
 5297POPC   D2A14356  12.089  18.233   8.250
 5297POPC   C3A14357  12.048  18.281   7.950
 5297POPC   C4A14358  12.031  18.256   7.650
 5297POPC   C1B14359  11.840  18.367   8.550
 5297POPC   C2B14360  11.801  18.404   8.250
 5297POPC   C3B14361  11.874  18.408   7.950
 5297POPC   C4B14362  11.892  18.365   7.650
 5298POPC   NC314363  24.502  12.035   9.450
 5298POPC   PO414364  24.508  12.040   9.150
 5298POPC   GL114365  24.467  12.029   8.850
 5298POPC   GL214366  24.510  12.237   8.850
 5298POPC   C1A14367  24.533  12.041   8.550
 5298POPC   D2A14368  24.442  12.106   8.250
 5298POPC   C3A14369  24.526  12.111   7.950
 5298POPC   C4A14370  24.457  12.029   7.650
 5298POPC   C1B14371  24.502  12.359   8.550
 5298POPC   C2B14372  24.493  12.360   8.250
 5298POPC   C3B14373  24.501  12.364   7.950
 5298POPC   C4B14374  24.541  12.372   7.650
 5299POPC   NC314375  12.812   4.342   9.450
 5299POPC   PO414376  12.837   4.356   9.150
 5299POPC   GL114377  12.856   4.320   8.850
 5299POPC   GL214378  12.756   4.355   8.850
 5299POPC   C1A14379  12.843   4.333   8.550
 5299POPC   D2A14380  12.821   4.269   8.250
 5299POPC   C3A14381  12.869   4.357   7.950
 5299POPC   C4A14382  12.870   4.294   7.650
 5299POPC   C1B14383  12.650   4.462   8.550
 5299POPC   C2B14384  12.673   4.507   8.250
 5299POPC   C3B14385  12.636   4.501   7.950
 5299POPC   C4B14386  12.685   4.498   7.650
 5300POPC   NC314387  14.389  28.392   9.450
 5300POPC   PO414388  14.425  28.387   9.150
 5300POPC   GL114389  14.406  28.328   8.850
 5300POPC   GL214390  14.561  28.355   8.850
 5300POPC   C1A14391  14.379  28.373   8.550
 5300POPC   D2A14392  14.415  28.414   8.250
 5300POPC   C3A14393  14.427  28.369   7.950
 5300POPC   C4A14394  14.399  28.322   7.650
 5300POPC   C1B14395  14.660  28.258   8.550
 5300POPC   C2B14396  14.634  28.266   8.250
 5300POPC   C3B14397  14.623  28.247   7.950
 5300POPC   C4B14398  14.677  28.305   7.650
 5301POPC   NC314399  37.707   0.413   9.450
 5301POPC   PO414400  37.714   0.448   9.150
 5301POPC   GL114401  37.688   0.443   8.850
 5301POPC   GL214402  37.555   0.514   8.850
 5301POPC   C1A14403  37.714   0.463   8.550
 5301POPC   D2A14404  37.660   0.394   8.250
 5301POPC   C3A14405  37.718   0.432   7.950
 5301POPC   C4A14406  37.634   0.409   7.650
 5301POPC   C1B14407  37.482   0.594   8.550
 5301POPC   C2B14408  37.509   0.617   8.250
 5301POPC   C3B14409  37.513   0.636   7.950
 5301POPC   C4B14410  37.549   0.632   7.650
 5302POPC   NC314411  33.048  30.719   9.450
 5302POPC   PO414412  33.035  30.665   9.150
 5302POPC   GL114413  32.992  30.651   8.850
 5302POPC   GL214414  33.139  30.717   8.850
 5302POPC   C1A14415  32.991  30.689   8.550
 5302POPC   D2A14416  33.061  30.743   8.250
 5302POPC   C3A14417  33.014  30.672   7.950
 5302POPC   C4A14418  33.046  30.652   7.650
 5302POPC   C1B14419  33.299  30.705   8.550
 5302POPC   C2B14420  33.282  30.738   8.250
 5302POPC   C3B14421  33.289  30.665   7.950
 5302POPC   C4B14422  33.240  30.720   7.650
 5303POPC   NC314423   1.180  24.516   9.450
 5303POPC   PO414424   1.178  24.462   9.150
 5303POPC   GL114425   1.243  24.504   8.850
 5303POPC   GL214426   1.136  24.532   8.850
 5303POPC   C1A14427   1.166  24.522   8.550
 5303POPC   D2A14428   1.228  24.461   8.250
 5303POPC   C3A14429   1.179  24.531   7.950
 5303POPC   C4A14430   1.259  24.505   7.650
 5303POPC   C1B14431   1.071  24.627   8.550
 5303POPC   C2B14432   1.056  24.675   8.250
 5303POPC   C3B14433   1.016  24.692   7.950
 5303POPC   C4B14434   1.028  24.687   7.650
 5304POPC   NC314435   8.992  30.691   9.450
 5304POPC   PO414436   9.006  30.677   9.150
 5304POPC   GL114437   8.962  30.671   8.850
 5304POPC   GL214438   8.947  30.801   8.850
 5304POPC   C1A14439   8.940  30.695   8.550
 5304POPC   D2A14440   8.982  30.746   8.250
 5304POPC   C3A14441   8.955  30.683   7.950
 5304POPC   C4A14442   8.965  30.745   7.650
 5304POPC   C1B14443   9.027  30.962   8.550
 5304POPC   C2B14444   9.019  30.924   8.250
 5304POPC   C3B14445   8.949  30.977   7.950
 5304POPC   C4B14446   8.965  30.970   7.650
 5305POPC   NC314447  33.035   5.821   9.450
 5305POPC   PO414448  32.995   5.883   9.150
 5305POPC   GL114449  33.042   5.916   8.850
 5305POPC   GL214450  33.099   5.946   8.850
 5305POPC   C1A14451  33.002   5.838   8.550
 5305POPC   D2A14452  33.056   5.910   8.250
 5305POPC   C3A14453  33.071   5.902   7.950
 5305POPC   C4A14454  33.063   5.844   7.650
 5305POPC   C1B14455  33.187   5.999   8.550
 5305POPC   C2B14456  33.207   6.004   8.250
 5305POPC   C3B14457  33.161   6.023   7.950
 5305POPC   C4B14458  33.181   6.051   7.650
 5306POPC   NC314459   3.581  39.221   9.450
 5306POPC   PO414460   3.494  39.209   9.150
 5306POPC   GL114461   3.573  39.260   8.850
 5306POPC   GL214462   3.502  39.124   8.850
 5306POPC   C1A14463   3.551  39.194   8.550
 5306POPC   D2A14464   3.502  39.241   8.250
 5306POPC   C3A14465   3.528  39.240   7.950
 5306POPC   C4A14466   3.588  39.200   7.650
 5306POPC   C1B14467   3.458  39.013   8.550
 5306POPC   C2B14468   3.504  39.030   8.250
 5306POPC   C3B14469   3.510  38.957   7.950
 5306POPC   C4B14470   3.474  38.981   7.650
 5307POPC   NC314471  12.822   5.111   9.450
 5307POPC   PO414472  12.867   5.094   9.150
 5307POPC   GL114473  12.828   5.117   8.850
 5307POPC   GL214474  12.910   4.992   8.850
 5307POPC   C1A14475  12.878   5.073   8.550
 5307POPC   D2A14476  12.853   5.107   8.250
 5307POPC   C3A14477  12.823   5.129   7.950
 5307POPC   C4A14478  12.820   5.095   7.650
 5307POPC   C1B14479  13.015   4.938   8.550
 5307POPC   C2B14480  12.992   4.898   8.250
 5307POPC   C3B14481  12.992   4.884   7.950
 5307POPC   C4B14482  12.969   4.940   7.650
 5308POPC   NC314483  13.645   4.358   9.450
 5308POPC   PO414484  13.593   4.322   9.150
 5308POPC   GL114485  13.665   4.297   8.850
 5308POPC   GL214486  13.718   4.239   8.850
 5308POPC   C1A14487  13.667   4.348   8.550
 5308POPC   D2A14488  13.588   4.287   8.250
 5308POPC   C3A14489  13.604   4.287   7.950
 5308POPC   C4A14490  13.635   4.283   7.650
 5308POPC   C1B14491  13.791   4.190   8.550
 5308POPC   C2B14492  13.834   4.198   8.250
 5308POPC   C3B14493  13.847   4.200   7.950
 5308POPC   C4B14494  13.791   4.199   7.650
 5309POPC   NC314495  41.585  43.095   9.450
 5309POPC   PO414496  41.600  43.129   9.150
 5309POPC   GL114497  41.566  43.070   8.850
 5309POPC   GL214498  41.674  43.138   8.850
 5309POPC   C1A14499  41.583  43.063   8.550
 5309POPC   D2A14500  41.521  43.104   8.250
 5309POPC   C3A14501  41.524  43.160   7.950
 5309POPC   C4A14502  41.564  43.126   7.650
 5309POPC   C1B14503  41.791  43.176   8.550
 5309POPC   C2B14504  41.764  43.110   8.250
 5309POPC   C3B14505  41.806  43.127   7.950
 5309POPC   C4B14506  41.847  43.200   7.650
 5310POPC   NC314507  39.960  12.813   9.450
 5310POPC   PO414508  40.041  12.802   9.150
 5310POPC   GL114509  40.008  12.875   8.850
 5310POPC   GL214510  40.097  12.911   8.850
 5310POPC   C1A14511  40.025  12.884   8.550
 5310POPC   D2A14512  40.037  12.821   8.250
 5310POPC   C3A14513  40.049  12.883   7.950
 5310POPC   C4A14514  39.960  12.894   7.650
 5310POPC   C1B14515  40.226  12.913   8.550
 5310POPC   C2B14516  40.249  12.934   8.250
 5310POPC   C3B14517  40.220  12.845   7.950
 5310POPC   C4B14518  40.273  12.854   7.650
 5311POPC   NC314519  24.453  43.108   9.450
 5311POPC   PO414520  24.507  43.124   9.150
 5311POPC   GL114521  24.449  43.074   8.850
 5311POPC   GL214522  24.325  43.176   8.850
 5311POPC   C1A14523  24.447  43.130   8.550
 5311POPC   D2A14524  24.493  43.075   8.250
 5311POPC   C3A14525  24.520  43.099   7.950
 5311POPC   C4A14526  24.521  43.075   7.650
 5311POPC   C1B14527  24.298  43.213   8.550
 5311POPC   C2B14528  24.289  43.227   8.250
 5311POPC   C3B14529  24.281  43.173   7.950
 5311POPC   C4B14530  24.285  43.211   7.650
 5312POPC   NC314531  26.058  12.875   9.450
 5312POPC   PO414532  26.027  12.883   9.150
 5312POPC   GL114533  26.040  12.885   8.850
 5312POPC   GL214534  26.143  12.969   8.850
 5312POPC   C1A14535  26.087  12.854   8.550
 5312POPC   D2A14536  26.002  12.818   8.250
 5312POPC   C3A14537  26.063  12.900   7.950
 5312POPC   C4A14538  26.035  12.872   7.650
 5312POPC   C1B14539  26.145  13.071   8.550
 5312POPC   C2B14540  26.140  13.035   8.250
 5312POPC   C3B14541  26.234  13.071   7.950
 5312POPC   C4B14542  26.181  13.024   7.650
 5313POPC   NC314543  12.065   3.501   9.450
 5313POPC   PO414544  12.043   3.536   9.150
 5313POPC   GL114545  12.091   3.493   8.850
 5313POPC   GL214546  12.114   3.428   8.850
 5313POPC   C1A14547  12.091   3.494   8.550
 5313POPC   D2A14548  12.075   3.567   8.250
 5313POPC   C3A14549  12.060   3.516   7.950
 5313POPC   C4A14550  12.120   3.548   7.650
 5313POPC   C1B14551  12.126   3.267   8.550
 5313POPC   C2B14552  12.105   3.280   8.250
 5313POPC   C3B14553  12.123   3.330   7.950
 5313POPC   C4B14554  12.162   3.247   7.650
 5314POPC   NC314555  40.761  20.603   9.450
 5314POPC   PO414556  40.739  20.581   9.150
 5314POPC   GL114557  40.766  20.617   8.850
 5314POPC   GL214558  40.842  20.668   8.850
 5314POPC   C1A14559  40.775  20.609   8.550
 5314POPC   D2A14560  40.767  20.639   8.250
 5314POPC   C3A14561  40.820  20.585   7.950
 5314POPC   C4A14562  40.750  20.595   7.650
 5314POPC   C1B14563  41.036  20.708   8.550
 5314POPC   C2B14564  40.949  20.762   8.250
 5314POPC   C3B14565  41.030  20.766   7.950
 5314POPC   C4B14566  40.949  20.704   7.650
 5315POPC   NC314567  42.360  19.094   9.450
 5315POPC   PO414568  42.318  19.095   9.150
 5315POPC   GL114569  42.346  19.022   8.850
 5315POPC   GL214570  42.200  19.053   8.850
 5315POPC   C1A14571  42.368  19.076   8.550
 5315POPC   D2A14572  42.328  19.020   8.250
 5315POPC   C3A14573  42.323  19.068   7.950
 5315POPC   C4A14574  42.380  19.095   7.650
 5315POPC   C1B14575  42.110  19.149   8.550
 5315POPC   C2B14576  42.119  19.066   8.250
 5315POPC   C3B14577  42.114  19.126   7.950
 5315POPC   C4B14578  42.099  19.055   7.650
 5316POPC   NC314579  34.590  23.696   9.450
 5316POPC   PO414580  34.623  23.691   9.150
 5316POPC   GL114581  34.543  23.759   8.850
 5316POPC   GL214582  34.569  23.574   8.850
 5316POPC   C1A14583  34.565  23.757   8.550
 5316POPC   D2A14584  34.602  23.678   8.250
 5316POPC   C3A14585  34.563  23.725   7.950
 5316POPC   C4A14586  34.542  23.687   7.650
 5316POPC   C1B14587  34.549  23.442   8.550
 5316POPC   C2B14588  34.519  23.437   8.250
 5316POPC   C3B14589  34.538  23.478   7.950
 5316POPC   C4B14590  34.545  23.502   7.650
 5317POPC   NC314591  33.827  25.286   9.450
 5317POPC   PO414592  33.820  25.223   9.150
 5317POPC   GL114593  33.762  25.272   8.850
 5317POPC   GL214594  33.921  25.377   8.850
 5317POPC   C1A14595  33.761  25.309   8.550
 5317POPC   D2A14596  33.769  25.220   8.250
 5317POPC   C3A14597  33.788  25.267   7.950
 5317POPC   C4A14598  33.846  25.245   7.650
 5317POPC   C1B14599  33.979  25.442   8.550
 5317POPC   C2B14600  33.952  25.448   8.250
 5317POPC   C3B14601  33.975  25.453   7.950
 5317POPC   C4B14602  33.896  25.503   7.650
 5318POPC   NC314603  31.503  29.939   9.450
 5318POPC   PO414604  31.491  29.920   9.150
 5318POPC   GL114605  31.482  29.951   8.850
 5318POPC   GL214606  31.364  29.842   8.850
 5318POPC   C1A14607  31.484  29.942   8.550
 5318POPC   D2A14608  31.466  29.902   8.250
 5318POPC   C3A14609  31.435  29.912   7.950
 5318POPC   C4A14610  31.492  29.944   7.650
 5318POPC   C1B14611  31.283  29.769   8.550
 5318POPC   C2B14612  31.274  29.777   8.250
 5318POPC   C3B14613  31.262  29.705   7.950
 5318POPC   C4B14614  31.303  29.789   7.650
 5319POPC   NC314615   5.880  10.539   9.450
 5319POPC   PO414616   5.907  10.507   9.150
 5319POPC   GL114617   5.824  10.529   8.850
 5319POPC   GL214618   5.744  10.570   8.850
 5319POPC   C1A14619   5.877  10.568   8.550
 5319POPC   D2A14620   5.878  10.484   8.250
 5319POPC   C3A14621   5.842  10.483   7.950
 5319POPC   C4A14622   5.820  10.499   7.650
 5319POPC   C1B14623   5.591  10.594   8.550
 5319POPC   C2B14624   5.599  10.665   8.250
 5319POPC   C3B14625   5.655  10.575   7.950
 5319POPC   C4B14626   5.666  10.594   7.650
 5320POPC   NC314627   5.075  12.832   9.450
 5320POPC   PO414628   5.067  12.864   9.150
 5320POPC   GL114629   5.118  12.863   8.850
 5320POPC   GL214630   4.997  12.878   8.850
 5320POPC   C1A14631   5.051  12.857   8.550
 5320POPC   D2A14632   5.123  12.886   8.250
 5320POPC   C3A14633   5.062  12.874   7.950
 5320POPC   C4A14634   5.093  12.850   7.650
 5320POPC   C1B14635   4.864  12.903   8.550
 5320POPC   C2B14636   4.884  12.914   8.250
 5320POPC   C3B14637   4.827  12.932   7.950
 5320POPC   C4B14638   4.808  12.913   7.650
 5321POPC   NC314639  42.341   1.250   9.450
 5321POPC   PO414640  42.382   1.246   9.150
 5321POPC   GL114641  42.364   1.194   8.850
 5321POPC   GL214642  42.250   1.342   8.850
 5321POPC   C1A14643  42.320   1.174   8.550
 5321POPC   D2A14644  42.347   1.196   8.250
 5321POPC   C3A14645  42.374   1.204   7.950
 5321POPC   C4A14646  42.300   1.222   7.650
 5321POPC   C1B14647  42.267   1.449   8.550
 5321POPC   C2B14648  42.221   1.431   8.250
 5321POPC   C3B14649  42.190   1.441   7.950
 5321POPC   C4B14650  42.233   1.463   7.650
 5322POPC   NC314651  10.566  32.281   9.450
 5322POPC   PO414652  10.478  32.234   9.150
 5322POPC   GL114653  10.572  32.280   8.850
 5322POPC   GL214654  10.553  32.100   8.850
 5322POPC   C1A14655  10.531  32.262   8.550
 5322POPC   D2A14656  10.502  32.262   8.250
 5322POPC   C3A14657  10.530  32.281   7.950
 5322POPC   C4A14658  10.550  32.286   7.650
 5322POPC   C1B14659  10.515  31.989   8.550
 5322POPC   C2B14660  10.459  31.952   8.250
 5322POPC   C3B14661  10.501  32.009   7.950
 5322POPC   C4B14662  10.541  32.015   7.650
 5323POPC   NC314663  39.273  31.513   9.450
 5323POPC   PO414664  39.263  31.488   9.150
 5323POPC   GL114665  39.279  31.424   8.850
 5323POPC   GL214666  39.213  31.321   8.850
 5323POPC   C1A14667  39.252  31.434   8.550
 5323POPC   D2A14668  39.259  31.496   8.250
 5323POPC   C3A14669  39.201  31.472   7.950
 5323POPC   C4A14670  39.220  31.446   7.650
 5323POPC   C1B14671  39.179  31.205   8.550
 5323POPC   C2B14672  39.150  31.271   8.250
 5323POPC   C3B14673  39.137  31.233   7.950
 5323POPC   C4B14674  39.121  31.190   7.650
 5324POPC   NC314675  41.563  19.010   9.450
 5324POPC   PO414676  41.527  19.049   9.150
 5324POPC   GL114677  41.573  19.064   8.850
 5324POPC   GL214678  41.587  19.165   8.850
 5324POPC   C1A14679  41.588  19.011   8.550
 5324POPC   D2A14680  41.602  19.069   8.250
 5324POPC   C3A14681  41.539  19.070   7.950
 5324POPC   C4A14682  41.596  19.025   7.650
 5324POPC   C1B14683  41.571  19.346   8.550
 5324POPC   C2B14684  41.651  19.283   8.250
 5324POPC   C3B14685  41.634  19.265   7.950
 5324POPC   C4B14686  41.585  19.285   7.650
 5325POPC   NC314687   1.209   7.382   9.450
 5325POPC   PO414688   1.254   7.456   9.150
 5325POPC   GL114689   1.213   7.436   8.850
 5325POPC   GL214690   1.063   7.331   8.850
 5325POPC   C1A14691   1.179   7.402   8.550
 5325POPC   D2A14692   1.217   7.388   8.250
 5325POPC   C3A14693   1.166   7.403   7.950
 5325POPC   C4A14694   1.207   7.389   7.650
 5325POPC   C1B14695   1.028   7.243   8.550
 5325POPC   C2B14696   1.040   7.297   8.250
 5325POPC   C3B14697   1.014   7.322   7.950
 5325POPC   C4B14698   0.962   7.268   7.650
 5326POPC   NC314699  34.556  34.536   9.450
 5326POPC   PO414700  34.597  34.540   9.150
 5326POPC   GL114701  34.621  34.558   8.850
 5326POPC   GL214702  34.743  34.534   8.850
 5326POPC   C1A14703  34.610  34.625   8.550
 5326POPC   D2A14704  34.563  34.539   8.250
 5326POPC   C3A14705  34.568  34.608   7.950
 5326POPC   C4A14706  34.572  34.600   7.650
 5326POPC   C1B14707  34.812  34.595   8.550
 5326POPC   C2B14708  34.796  34.544   8.250
 5326POPC   C3B14709  34.812  34.603   7.950
 5326POPC   C4B14710  34.843  34.597   7.650
 5327POPC   NC314711  22.162   3.536   9.450
 5327POPC   PO414712  22.144   3.548   9.150
 5327POPC   GL114713  22.193   3.583   8.850
 5327POPC   GL214714  22.174   3.418   8.850
 5327POPC   C1A14715  22.131   3.587   8.550
 5327POPC   D2A14716  22.193   3.556   8.250
 5327POPC   C3A14717  22.130   3.503   7.950
 5327POPC   C4A14718  22.131   3.510   7.650
 5327POPC   C1B14719  22.265   3.315   8.550
 5327POPC   C2B14720  22.314   3.281   8.250
 5327POPC   C3B14721  22.236   3.315   7.950
 5327POPC   C4B14722  22.233   3.335   7.650
 5328POPC   NC314723  24.450  40.043   9.450
 5328POPC   PO414724  24.443  40.012   9.150
 5328POPC   GL114725  24.459  40.024   8.850
 5328POPC   GL214726  24.414  40.052   8.850
 5328POPC   C1A14727  24.524  40.008   8.550
 5328POPC   D2A14728  24.447  39.977   8.250
 5328POPC   C3A14729  24.510  40.045   7.950
 5328POPC   C4A14730  24.504  39.966   7.650
 5328POPC   C1B14731  24.313  40.189   8.550
 5328POPC   C2B14732  24.335  40.198   8.250
 5328POPC   C3B14733  24.300  40.223   7.950
 5328POPC   C4B14734  24.300  40.156   7.650
 5329POPC   NC314735  11.289   3.504   9.450
 5329POPC   PO414736  11.340   3.513   9.150
 5329POPC   GL114737  11.317   3.541   8.850
 5329POPC   GL214738  11.376   3.660   8.850
 5329POPC   C1A14739  11.251   3.561   8.550
 5329POPC   D2A14740  11.300   3.537   8.250
 5329POPC   C3A14741  11.284   3.520   7.950
 5329POPC   C4A14742  11.294   3.493   7.650
 5329POPC   C1B14743  11.495   3.754   8.550
 5329POPC   C2B14744  11.460   3.740   8.250
 5329POPC   C3B14745  11.422   3.701   7.950
 5329POPC   C4B14746  11.486   3.752   7.650
 5330POPC   NC314747   9.003  11.282   9.450
 5330POPC   PO414748   8.953  11.251   9.150
 5330POPC   GL114749   8.942  11.254   8.850
 5330POPC   GL214750   9.056  11.213   8.850
 5330POPC   C1A14751   8.924  11.311   8.550
 5330POPC   D2A14752   8.955  11.304   8.250
 5330POPC   C3A14753   9.012  11.285   7.950
 5330POPC   C4A14754   8.995  11.283   7.650
 5330POPC   C1B14755   9.206  11.202   8.550
 5330POPC   C2B14756   9.223  11.241   8.250
 5330POPC   C3B14757   9.232  11.220   7.950
 5330POPC   C4B14758   9.205  11.248   7.650
 5331POPC   NC314759   3.568  34.600   9.450
 5331POPC   PO414760   3.575  34.590   9.150
 5331POPC   GL114761   3.501  34.564   8.850
 5331POPC   GL214762   3.660  34.554   8.850
 5331POPC   C1A14763   3.573  34.593   8.550
 5331POPC   D2A14764   3.553  34.550   8.250
 5331POPC   C3A14765   3.579  34.597   7.950
 5331POPC   C4A14766   3.493  34.532   7.650
 5331POPC   C1B14767   3.787  34.530   8.550
 5331POPC   C2B14768   3.763  34.487   8.250
 5331POPC   C3B14769   3.803  34.560   7.950
 5331POPC   C4B14770   3.754  34.538   7.650
 5332POPC   NC314771   4.321  22.162   9.450
 5332POPC   PO414772   4.333  22.120   9.150
 5332POPC   GL114773   4.309  22.128   8.850
 5332POPC   GL214774   4.200  22.206   8.850
 5332POPC   C1A14775   4.295  22.206   8.550
 5332POPC   D2A14776   4.360  22.187   8.250
 5332POPC   C3A14777   4.339  22.207   7.950
 5332POPC   C4A14778   4.334  22.201   7.650
 5332POPC   C1B14779   4.049  22.212   8.550
 5332POPC   C2B14780   4.115  22.201   8.250
 5332POPC   C3B14781   4.031  22.150   7.950
 5332POPC   C4B14782   4.062  22.207   7.650
 5333POPC   NC314783  35.307   7.425   9.450
 5333POPC   PO414784  35.383   7.424   9.150
 5333POPC   GL114785  35.334   7.408   8.850
 5333POPC   GL214786  35.442   7.378   8.850
 5333POPC   C1A14787  35.399   7.371   8.550
 5333POPC   D2A14788  35.393   7.403   8.250
 5333POPC   C3A14789  35.383   7.465   7.950
 5333POPC   C4A14790  35.394   7.396   7.650
 5333POPC   C1B14791  35.642   7.338   8.550
 5333POPC   C2B14792  35.604   7.388   8.250
 5333POPC   C3B14793  35.582   7.375   7.950
 5333POPC   C4B14794  35.551   7.331   7.650
 5334POPC   NC314795  26.079  30.735   9.450
 5334POPC   PO414796  26.023  30.715   9.150
 5334POPC   GL114797  26.020  30.660   8.850
 5334POPC   GL214798  26.151  30.799   8.850
 5334POPC   C1A14799  26.043  30.734   8.550
 5334POPC   D2A14800  26.048  30.739   8.250
 5334POPC   C3A14801  26.001  30.679   7.950
 5334POPC   C4A14802  26.061  30.681   7.650
 5334POPC   C1B14803  26.228  30.803   8.550
 5334POPC   C2B14804  26.278  30.853   8.250
 5334POPC   C3B14805  26.306  30.803   7.950
 5334POPC   C4B14806  26.283  30.812   7.650
 5335POPC   NC314807  36.865  12.122   9.450
 5335POPC   PO414808  36.905  12.039   9.150
 5335POPC   GL114809  36.856  12.113   8.850
 5335POPC   GL214810  36.781  12.199   8.850
 5335POPC   C1A14811  36.911  12.101   8.550
 5335POPC   D2A14812  36.950  12.059   8.250
 5335POPC   C3A14813  36.889  12.047   7.950
 5335POPC   C4A14814  36.878  12.042   7.650
 5335POPC   C1B14815  36.687  12.286   8.550
 5335POPC   C2B14816  36.699  12.236   8.250
 5335POPC   C3B14817  36.740  12.264   7.950
 5335POPC   C4B14818  36.730  12.290   7.650
 5336POPC   NC314819  29.141  42.319   9.450
 5336POPC   PO414820  29.124  42.314   9.150
 5336POPC   GL114821  29.112  42.332   8.850
 5336POPC   GL214822  29.176  42.491   8.850
 5336POPC   C1A14823  29.155  42.367   8.550
 5336POPC   D2A14824  29.175  42.297   8.250
 5336POPC   C3A14825  29.148  42.313   7.950
 5336POPC   C4A14826  29.178  42.298   7.650
 5336POPC   C1B14827  29.292  42.605   8.550
 5336POPC   C2B14828  29.223  42.560   8.250
 5336POPC   C3B14829  29.210  42.544   7.950
 5336POPC   C4B14830  29.239  42.580   7.650
 5337POPC   NC314831  26.004   4.300   9.450
 5337POPC   PO414832  26.020   4.278   9.150
 5337POPC   GL114833  26.089   4.314   8.850
 5337POPC   GL214834  25.920   4.371   8.850
 5337POPC   C1A14835  26.044   4.330   8.550
 5337POPC   D2A14836  26.073   4.323   8.250
 5337POPC   C3A14837  25.995   4.268   7.950
 5337POPC   C4A14838  25.998   4.290   7.650
 5337POPC   C1B14839  25.838   4.532   8.550
 5337POPC   C2B14840  25.833   4.489   8.250
 5337POPC   C3B14841  25.807   4.531   7.950
 5337POPC   C4B14842  25.822   4.477   7.650
 5338POPC   NC314843   3.493   1.258   9.450
 5338POPC   PO414844   3.493   1.263   9.150
 5338POPC   GL114845   3.502   1.234   8.850
 5338POPC   GL214846   3.421   1.230   8.850
 5338POPC   C1A14847   3.535   1.177   8.550
 5338POPC   D2A14848   3.550   1.195   8.250
 5338POPC   C3A14849   3.587   1.191   7.950
 5338POPC   C4A14850   3.577   1.230   7.650
 5338POPC   C1B14851   3.289   1.302   8.550
 5338POPC   C2B14852   3.311   1.324   8.250
 5338POPC   C3B14853   3.287   1.347   7.950
 5338POPC   C4B14854   3.360   1.329   7.650
 5339POPC   NC314855  19.821  35.389   9.450
 5339POPC   PO414856  19.862  35.367   9.150
 5339POPC   GL114857  19.854  35.333   8.850
 5339POPC   GL214858  19.775  35.481   8.850
 5339POPC   C1A14859  19.867  35.347   8.550
 5339POPC   D2A14860  19.840  35.394   8.250
 5339POPC   C3A14861  19.846  35.370   7.950
 5339POPC   C4A14862  19.848  35.347   7.650
 5339POPC   C1B14863  19.770  35.553   8.550
 5339POPC   C2B14864  19.771  35.600   8.250
 5339POPC   C3B14865  19.711  35.579   7.950
 5339POPC   C4B14866  19.733  35.576   7.650
 5340POPC   NC314867  34.550  24.474   9.450
 5340POPC   PO414868  34.594  24.518   9.150
 5340POPC   GL114869  34.528  24.497   8.850
 5340POPC   GL214870  34.498  24.541   8.850
 5340POPC   C1A14871  34.580  24.522   8.550
 5340POPC   D2A14872  34.575  24.484   8.250
 5340POPC   C3A14873  34.596  24.467   7.950
 5340POPC   C4A14874  34.531  24.470   7.650
 5340POPC   C1B14875  34.361  24.626   8.550
 5340POPC   C2B14876  34.369  24.608   8.250
 5340POPC   C3B14877  34.375  24.601   7.950
 5340POPC   C4B14878  34.323  24.615   7.650
 5341POPC   NC314879   9.745  12.041   9.450
 5341POPC   PO414880   9.782  12.057   9.150
 5341POPC   GL114881   9.793  12.123   8.850
 5341POPC   GL214882   9.662  11.995   8.850
 5341POPC   C1A14883   9.745  12.072   8.550
 5341POPC   D2A14884   9.721  12.053   8.250
 5341POPC   C3A14885   9.771  12.090   7.950
 5341POPC   C4A14886   9.723  12.100   7.650
 5341POPC   C1B14887   9.501  11.953   8.550
 5341POPC   C2B14888   9.548  11.948   8.250
 5341POPC   C3B14889   9.563  11.968   7.950
 5341POPC   C4B14890   9.529  11.987   7.650
 5342POPC   NC314891  12.895  39.218   9.450
 5342POPC   PO414892  12.882  39.200   9.150
 5342POPC   GL114893  12.814  39.255   8.850
 5342POPC   GL214894  12.774  39.071   8.850
 5342POPC   C1A14895  12.817  39.196   8.550
 5342POPC   D2A14896  12.842  39.267   8.250
 5342POPC   C3A14897  12.839  39.219   7.950
 5342POPC   C4A14898  12.869  39.261   7.650
 5342POPC   C1B14899  12.714  38.958   8.550
 5342POPC   C2B14900  12.715  39.009   8.250
 5342POPC   C3B14901  12.774  38.976   7.950
 5342POPC   C4B14902  12.756  38.968   7.650
 5343POPC   NC314903   0.392  30.709   9.450
 5343POPC   PO414904   0.426  30.710   9.150
 5343POPC   GL114905   0.411  30.665   8.850
 5343POPC   GL214906   0.388  30.580   8.850
 5343POPC   C1A14907   0.440  30.651   8.550
 5343POPC   D2A14908   0.423  30.672   8.250
 5343POPC   C3A14909   0.400  30.648   7.950
 5343POPC   C4A14910   0.442  30.669   7.650
 5343POPC   C1B14911   0.314  30.457   8.550
 5343POPC   C2B14912   0.315  30.449   8.250
 5343POPC   C3B14913   0.336  30.503   7.950
 5343POPC   C4B14914   0.328  30.418   7.650
 5344POPC   NC314915  30.666  40.801   9.450
 5344POPC   PO414916  30.678  40.765   9.150
 5344POPC   GL114917  30.650  40.795   8.850
 5344POPC   GL214918  30.581  40.821   8.850
 5344POPC   C1A14919  30.707  40.828   8.550
 5344POPC   D2A14920  30.733  40.831   8.250
 5344POPC   C3A14921  30.689  40.781   7.950
 5344POPC   C4A14922  30.719  40.830   7.650
 5344POPC   C1B14923  30.470  40.876   8.550
 5344POPC   C2B14924  30.413  40.891   8.250
 5344POPC   C3B14925  30.504  40.837   7.950
 5344POPC   C4B14926  30.475  40.806   7.650
 5345POPC   NC314927  29.157   7.417   9.450
 5345POPC   PO414928  29.190   7.461   9.150
 5345POPC   GL114929  29.130   7.414   8.850
 5345POPC   GL214930  29.158   7.565   8.850
 5345POPC   C1A14931  29.115   7.399   8.550
 5345POPC   D2A14932  29.150   7.396   8.250
 5345POPC   C3A14933  29.136   7.435   7.950
 5345POPC   C4A14934  29.097   7.382   7.650
 5345POPC   C1B14935  29.160   7.689   8.550
 5345POPC   C2B14936  29.194   7.700   8.250
 5345POPC   C3B14937  29.240   7.675   7.950
 5345POPC   C4B14938  29.232   7.640   7.650
 5346POPC   NC314939  36.863   4.346   9.450
 5346POPC   PO414940  36.886   4.363   9.150
 5346POPC   GL114941  36.952   4.270   8.850
 5346POPC   GL214942  36.983   4.408   8.850
 5346POPC   C1A14943  36.913   4.324   8.550
 5346POPC   D2A14944  36.891   4.320   8.250
 5346POPC   C3A14945  36.938   4.307   7.950
 5346POPC   C4A14946  36.862   4.312   7.650
 5346POPC   C1B14947  37.078   4.497   8.550
 5346POPC   C2B14948  37.081   4.453   8.250
 5346POPC   C3B14949  37.043   4.517   7.950
 5346POPC   C4B14950  37.071   4.508   7.650
 5347POPC   NC314951  35.323  22.132   9.450
 5347POPC   PO414952  35.306  22.162   9.150
 5347POPC   GL114953  35.367  22.115   8.850
 5347POPC   GL214954  35.476  22.135   8.850
 5347POPC   C1A14955  35.398  22.162   8.550
 5347POPC   D2A14956  35.316  22.112   8.250
 5347POPC   C3A14957  35.379  22.172   7.950
 5347POPC   C4A14958  35.387  22.162   7.650
 5347POPC   C1B14959  35.617  22.130   8.550
 5347POPC   C2B14960  35.594  22.079   8.250
 5347POPC   C3B14961  35.624  22.103   7.950
 5347POPC   C4B14962  35.567  22.099   7.650
 5348POPC   NC314963  15.197  36.883   9.450
 5348POPC   PO414964  15.187  36.908   9.150
 5348POPC   GL114965  15.132  36.950   8.850
 5348POPC   GL214966  15.338  36.876   8.850
 5348POPC   C1A14967  15.137  36.867   8.550
 5348POPC   D2A14968  15.139  36.924   8.250
 5348POPC   C3A14969  15.177  36.889   7.950
 5348POPC   C4A14970  15.200  36.864   7.650
 5348POPC   C1B14971  15.440  36.859   8.550
 5348POPC   C2B14972  15.473  36.874   8.250
 5348POPC   C3B14973  15.415  36.844   7.950
 5348POPC   C4B14974  15.433  36.829   7.650
 5349POPC   NC314975  17.526  13.581   9.450
 5349POPC   PO414976  17.502  13.659   9.150
 5349POPC   GL114977  17.501  13.644   8.850
 5349POPC   GL214978  17.400  13.550   8.850
 5349POPC   C1A14979  17.554  13.596   8.550
 5349POPC   D2A14980  17.485  13.668   8.250
 5349POPC   C3A14981  17.522  13.634   7.950
 5349POPC   C4A14982  17.501  13.632   7.650
 5349POPC   C1B14983  17.304  13.468   8.550
 5349POPC   C2B14984  17.314  13.471   8.250
 5349POPC   C3B14985  17.322  13.549   7.950
 5349POPC   C4B14986  17.268  13.500   7.650
 5350POPC   NC314987   4.282  40.046   9.450
 5350POPC   PO414988   4.328  40.051   9.150
 5350POPC   GL114989   4.315  39.957   8.850
 5350POPC   GL214990   4.144  39.983   8.850
 5350POPC   C1A14991   4.289  40.020   8.550
 5350POPC   D2A14992   4.357  40.027   8.250
 5350POPC   C3A14993   4.274  40.035   7.950
 5350POPC   C4A14994   4.333  40.034   7.650
 5350POPC   C1B14995   4.057  40.081   8.550
 5350POPC   C2B14996   4.062  40.001   8.250
 5350POPC   C3B14997   4.106  40.083   7.950
 5350POPC   C4B14998   4.064  39.986   7.650
 5351POPC   NC314999  12.856  39.999   9.450
 5351POPC   PO415000  12.867  40.050   9.150
 5351POPC   GL115001  12.893  39.959   8.850
 5351POPC   GL215002  12.900  40.109   8.850
 5351POPC   C1A15003  12.813  39.976   8.550
 5351POPC   D2A15004  12.895  40.019   8.250
 5351POPC   C3A15005  12.899  40.029   7.950
 5351POPC   C4A15006  12.866  40.002   7.650
 5351POPC   C1B15007  13.013  40.216   8.550
 5351POPC   C2B15008  12.978  40.164   8.250
 5351POPC   C3B15009  12.983  40.201   7.950
 5351POPC   C4B15010  12.971  40.182   7.650
 5352POPC   NC315011   8.956   3.531   9.450
 5352POPC   PO415012   8.987   3.561   9.150
 5352POPC   GL115013   8.978   3.535   8.850
 5352POPC   GL215014   8.971   3.698   8.850
 5352POPC   C1A15015   9.007   3.560   8.550
 5352POPC   D2A15016   8.944   3.569   8.250
 5352POPC   C3A15017   9.011   3.563   7.950
 5352POPC   C4A15018   8.971   3.513   7.650
 5352POPC   C1B15019   8.944   3.823   8.550
 5352POPC   C2B15020   8.982   3.796   8.250
 5352POPC   C3B15021   9.008   3.814   7.950
 5352POPC   C4B15022   8.940   3.790   7.650
 5353POPC   NC315023  33.847  12.850   9.450
 5353POPC   PO415024  33.800  12.870   9.150
 5353POPC   GL115025  33.841  12.807   8.850
 5353POPC   GL215026  33.761  12.702   8.850
 5353POPC   C1A15027  33.757  12.878   8.550
 5353POPC   D2A15028  33.817  12.867   8.250
 5353POPC   C3A15029  33.824  12.861   7.950
 5353POPC   C4A15030  33.838  12.833   7.650
 5353POPC   C1B15031  33.673  12.612   8.550
 5353POPC   C2B15032  33.615  12.690   8.250
 5353POPC   C3B15033  33.648  12.608   7.950
 5353POPC   C4B15034  33.637  12.688   7.650
 5354POPC   NC315035  37.665   7.428   9.450
 5354POPC   PO415036  37.729   7.379   9.150
 5354POPC   GL115037  37.722   7.394   8.850
 5354POPC   GL215038  37.769   7.444   8.850
 5354POPC   C1A15039  37.681   7.387   8.550
 5354POPC   D2A15040  37.686   7.407   8.250
 5354POPC   C3A15041  37.717   7.397   7.950
 5354POPC   C4A15042  37.639   7.385   7.650
 5354POPC   C1B15043  37.940   7.359   8.550
 5354POPC   C2B15044  37.947   7.433   8.250
 5354POPC   C3B15045  37.938   7.420   7.950
 5354POPC   C4B15046  37.972   7.437   7.650
 5355POPC   NC315047  20.619  15.910   9.450
 5355POPC   PO415048  20.641  15.919   9.150
 5355POPC   GL115049  20.611  15.917   8.850
 5355POPC   GL215050  20.452  15.937   8.850
 5355POPC   C1A15051  20.587  16.005   8.550
 5355POPC   D2A15052  20.624  16.005   8.250
 5355POPC   C3A15053  20.656  15.911   7.950
 5355POPC   C4A15054  20.611  16.003   7.650
 5355POPC   C1B15055  20.443  15.838   8.550
 5355POPC   C2B15056  20.371  15.879   8.250
 5355POPC   C3B15057  20.417  15.881   7.950
 5355POPC   C4B15058  20.398  15.876   7.650
 5356POPC   NC315059  14.436  30.725   9.450
 5356POPC   PO415060  14.393  30.691   9.150
 5356POPC   GL115061  14.446  30.744   8.850
 5356POPC   GL215062  14.264  30.669   8.850
 5356POPC   C1A15063  14.392  30.648   8.550
 5356POPC   D2A15064  14.447  30.682   8.250
 5356POPC   C3A15065  14.419  30.660   7.950
 5356POPC   C4A15066  14.453  30.701   7.650
 5356POPC   C1B15067  14.134  30.731   8.550
 5356POPC   C2B15068  14.119  30.637   8.250
 5356POPC   C3B15069  14.142  30.687   7.950
 5356POPC   C4B15070  14.142  30.653   7.650
 5357POPC   NC315071  43.865  25.312   9.450
 5357POPC   PO415072  43.908  25.266   9.150
 5357POPC   GL115073  43.921  25.304   8.850
 5357POPC   GL215074  43.839  25.139   8.850
 5357POPC   C1A15075  43.880  25.256   8.550
 5357POPC   D2A15076  43.907  25.255   8.250
 5357POPC   C3A15077  43.848  25.225   7.950
 5357POPC   C4A15078  43.884  25.223   7.650
 5357POPC   C1B15079  43.689  25.075   8.550
 5357POPC   C2B15080  43.723  25.046   8.250
 5357POPC   C3B15081  43.763  25.129   7.950
 5357POPC   C4B15082  43.737  25.048   7.650
 5358POPC   NC315083   2.730  44.620   9.450
 5358POPC   PO415084   2.798  44.701   9.150
 5358POPC   GL115085   2.783  44.701   8.850
 5358POPC   GL215086   2.766  44.508   8.850
 5358POPC   C1A15087   2.767  44.612   8.550
 5358POPC   D2A15088   2.807  44.653   8.250
 5358POPC   C3A15089   2.769  44.666   7.950
 5358POPC   C4A15090   2.761  44.653   7.650
 5358POPC   C1B15091   2.838  44.450   8.550
 5358POPC   C2B15092   2.843  44.385   8.250
 5358POPC   C3B15093   2.809  44.410   7.950
 5358POPC   C4B15094   2.864  44.379   7.650
 5359POPC   NC315095  30.745  30.694   9.450
 5359POPC   PO415096  30.684  30.657   9.150
 5359POPC   GL115097  30.664  30.735   8.850
 5359POPC   GL215098  30.868  30.664   8.850
 5359POPC   C1A15099  30.651  30.694   8.550
 5359POPC   D2A15100  30.715  30.707   8.250
 5359POPC   C3A15101  30.683  30.664   7.950
 5359POPC   C4A15102  30.694  30.668   7.650
 5359POPC   C1B15103  30.919  30.745   8.550
 5359POPC   C2B15104  30.944  30.667   8.250
 5359POPC   C3B15105  30.932  30.669   7.950
 5359POPC   C4B15106  30.913  30.764   7.650
 5360POPC   NC315107  15.193   1.978   9.450
 5360POPC   PO415108  15.227   1.944   9.150
 5360POPC   GL115109  15.141   2.008   8.850
 5360POPC   GL215110  15.120   1.835   8.850
 5360POPC   C1A15111  15.158   1.971   8.550
 5360POPC   D2A15112  15.173   1.946   8.250
 5360POPC   C3A15113  15.139   1.962   7.950
 5360POPC   C4A15114  15.187   2.009   7.650
 5360POPC   C1B15115  15.079   1.727   8.550
 5360POPC   C2B15116  15.057   1.764   8.250
 5360POPC   C3B15117  15.086   1.732   7.950
 5360POPC   C4B15118  15.079   1.757   7.650
 5361POPC   NC315119   2.811  12.821   9.450
 5361POPC   PO415120   2.748  12.837   9.150
 5361POPC   GL115121   2.791  12.817   8.850
 5361POPC   GL215122   2.773  12.698   8.850
 5361POPC   C1A15123   2.812  12.818   8.550
 5361POPC   D2A15124   2.778  12.832   8.250
 5361POPC   C3A15125   2.720  12.899   7.950
 5361POPC   C4A15126   2.787  12.807   7.650
 5361POPC   C1B15127   2.702  12.596   8.550
 5361POPC   C2B15128   2.653  12.575   8.250
 5361POPC   C3B15129   2.645  12.566   7.950
 5361POPC   C4B15130   2.673  12.603   7.650
 5362POPC   NC315131  27.630  16.738   9.450
 5362POPC   PO415132  27.546  16.696   9.150
 5362POPC   GL115133  27.630  16.759   8.850
 5362POPC   GL215134  27.668  16.657   8.850
 5362POPC   C1A15135  27.552  16.684   8.550
 5362POPC   D2A15136  27.551  16.726   8.250
 5362POPC   C3A15137  27.558  16.748   7.950
 5362POPC   C4A15138  27.574  16.707   7.650
 5362POPC   C1B15139  27.791  16.601   8.550
 5362POPC   C2B15140  27.759  16.582   8.250
 5362POPC   C3B15141  27.824  16.574   7.950
 5362POPC   C4B15142  27.766  16.543   7.650
 5363POPC   NC315143  44.639  24.445   9.450
 5363POPC   PO415144  44.624  24.469   9.150
 5363POPC   GL115145  44.653  24.461   8.850
 5363POPC   GL215146  44.598  24.423   8.850
 5363POPC   C1A15147  44.699  24.505   8.550
 5363POPC   D2A15148  44.679  24.446   8.250
 5363POPC   C3A15149  44.641  24.506   7.950
 5363POPC   C4A15150  44.676  24.464   7.650
 5363POPC   C1B15151  44.576  24.236   8.550
 5363POPC   C2B15152  44.537  24.245   8.250
 5363POPC   C3B15153  44.579  24.294   7.950
 5363POPC   C4B15154  44.574  24.250   7.650
 5364POPC   NC315155  18.330  14.424   9.450
 5364POPC   PO415156  18.270  14.363   9.150
 5364POPC   GL115157  18.236  14.400   8.850
 5364POPC   GL215158  18.168  14.382   8.850
 5364POPC   C1A15159  18.274  14.399   8.550
 5364POPC   D2A15160  18.286  14.358   8.250
 5364POPC   C3A15161  18.304  14.441   7.950
 5364POPC   C4A15162  18.327  14.365   7.650
 5364POPC   C1B15163  17.992  14.442   8.550
 5364POPC   C2B15164  18.000  14.403   8.250
 5364POPC   C3B15165  18.045  14.401   7.950
 5364POPC   C4B15166  18.075  14.407   7.650
 5365POPC   NC315167  38.468   3.504   9.450
 5365POPC   PO415168  38.460   3.569   9.150
 5365POPC   GL115169  38.473   3.529   8.850
 5365POPC   GL215170  38.564   3.413   8.850
 5365POPC   C1A15171  38.430   3.522   8.550
 5365POPC   D2A15172  38.449   3.518   8.250
 5365POPC   C3A15173  38.481   3.502   7.950
 5365POPC   C4A15174  38.475   3.539   7.650
 5365POPC   C1B15175  38.606   3.377   8.550
 5365POPC   C2B15176  38.619   3.294   8.250
 5365POPC   C3B15177  38.630   3.363   7.950
 5365POPC   C4B15178  38.555   3.306   7.650
 5366POPC   NC315179  43.870  37.659   9.450
 5366POPC   PO415180  43.888  37.707   9.150
 5366POPC   GL115181  43.851  37.661   8.850
 5366POPC   GL215182  43.771  37.546   8.850
 5366POPC   C1A15183  43.915  37.638   8.550
 5366POPC   D2A15184  43.868  37.702   8.250
 5366POPC   C3A15185  43.859  37.708   7.950
 5366POPC   C4A15186  43.903  37.660   7.650
 5366POPC   C1B15187  43.684  37.545   8.550
 5366POPC   C2B15188  43.680  37.541   8.250
 5366POPC   C3B15189  43.715  37.508   7.950
 5366POPC   C4B15190  43.712  37.497   7.650
 5367POPC   NC315191   8.938  19.884   9.450
 5367POPC   PO415192   8.986  19.808   9.150
 5367POPC   GL115193   8.947  19.827   8.850
 5367POPC   GL215194   9.063  19.843   8.850
 5367POPC   C1A15195   8.940  19.870   8.550
 5367POPC   D2A15196   8.983  19.798   8.250
 5367POPC   C3A15197   9.000  19.817   7.950
 5367POPC   C4A15198   8.935  19.855   7.650
 5367POPC   C1B15199   9.214  19.905   8.550
 5367POPC   C2B15200   9.182  19.907   8.250
 5367POPC   C3B15201   9.209  19.925   7.950
 5367POPC   C4B15202   9.188  19.957   7.650
 5368POPC   NC315203  18.323  33.031   9.450
 5368POPC   PO415204  18.282  32.979   9.150
 5368POPC   GL115205  18.246  33.059   8.850
 5368POPC   GL215206  18.188  32.980   8.850
 5368POPC   C1A15207  18.290  33.051   8.550
 5368POPC   D2A15208  18.255  33.052   8.250
 5368POPC   C3A15209  18.244  33.054   7.950
 5368POPC   C4A15210  18.309  33.061   7.650
 5368POPC   C1B15211  18.069  32.812   8.550
 5368POPC   C2B15212  18.076  32.855   8.250
 5368POPC   C3B15213  18.162  32.862   7.950
 5368POPC   C4B15214  18.152  32.858   7.650
 5369POPC   NC315215   3.500   8.240   9.450
 5369POPC   PO415216   3.497   8.246   9.150
 5369POPC   GL115217   3.536   8.189   8.850
 5369POPC   GL215218   3.503   8.112   8.850
 5369POPC   C1A15219   3.583   8.194   8.550
 5369POPC   D2A15220   3.508   8.221   8.250
 5369POPC   C3A15221   3.587   8.229   7.950
 5369POPC   C4A15222   3.590   8.206   7.650
 5369POPC   C1B15223   3.571   7.923   8.550
 5369POPC   C2B15224   3.502   7.965   8.250
 5369POPC   C3B15225   3.525   7.957   7.950
 5369POPC   C4B15226   3.538   7.904   7.650
 5370POPC   NC315227  22.193  44.707   9.450
 5370POPC   PO415228  22.157  44.655   9.150
 5370POPC   GL115229  22.117  44.623   8.850
 5370POPC   GL215230  22.157  44.561   8.850
 5370POPC   C1A15231  22.132  44.631   8.550
 5370POPC   D2A15232  22.169  44.654   8.250
 5370POPC   C3A15233  22.154  44.704   7.950
 5370POPC   C4A15234  22.148  44.651   7.650
 5370POPC   C1B15235  22.073  44.449   8.550
 5370POPC   C2B15236  22.099  44.403   8.250
 5370POPC   C3B15237  22.038  44.400   7.950
 5370POPC   C4B15238  22.056  44.400   7.650
 5371POPC   NC315239  26.058  39.256   9.450
 5371POPC   PO415240  26.057  39.237   9.150
 5371POPC   GL115241  26.025  39.243   8.850
 5371POPC   GL215242  25.955  39.133   8.850
 5371POPC   C1A15243  26.006  39.192   8.550
 5371POPC   D2A15244  26.011  39.262   8.250
 5371POPC   C3A15245  26.052  39.189   7.950
 5371POPC   C4A15246  26.063  39.263   7.650
 5371POPC   C1B15247  25.973  39.037   8.550
 5371POPC   C2B15248  26.004  39.040   8.250
 5371POPC   C3B15249  25.975  38.958   7.950
 5371POPC   C4B15250  25.946  39.010   7.650
 5372POPC   NC315251  12.863  22.920   9.450
 5372POPC   PO415252  12.886  22.920   9.150
 5372POPC   GL115253  12.877  22.949   8.850
 5372POPC   GL215254  12.932  22.860   8.850
 5372POPC   C1A15255  12.882  22.938   8.550
 5372POPC   D2A15256  12.839  22.984   8.250
 5372POPC   C3A15257  12.840  22.972   7.950
 5372POPC   C4A15258  12.807  22.983   7.650
 5372POPC   C1B15259  12.993  22.752   8.550
 5372POPC   C2B15260  12.977  22.770   8.250
 5372POPC   C3B15261  13.021  22.709   7.950
 5372POPC   C4B15262  13.036  22.738   7.650
 5373POPC   NC315263  15.965  15.937   9.450
 5373POPC   PO415264  15.949  15.968   9.150
 5373POPC   GL115265  15.989  15.965   8.850
 5373POPC   GL215266  15.811  15.948   8.850
 5373POPC   C1A15267  15.919  15.992   8.550
 5373POPC   D2A15268  16.002  15.910   8.250
 5373POPC   C3A15269  15.927  15.984   7.950
 5373POPC   C4A15270  15.963  15.934   7.650
 5373POPC   C1B15271  15.691  16.001   8.550
 5373POPC   C2B15272  15.679  16.009   8.250
 5373POPC   C3B15273  15.725  15.984   7.950
 5373POPC   C4B15274  15.750  16.003   7.650
 5374POPC   NC315275  36.930   6.649   9.450
 5374POPC   PO415276  36.937   6.611   9.150
 5374POPC   GL115277  36.889   6.664   8.850
 5374POPC   GL215278  36.894   6.761   8.850
 5374POPC   C1A15279  36.931   6.653   8.550
 5374POPC   D2A15280  36.872   6.633   8.250
 5374POPC   C3A15281  36.922   6.632   7.950
 5374POPC   C4A15282  36.865   6.604   7.650
 5374POPC   C1B15283  36.842   6.938   8.550
 5374POPC   C2B15284  36.879   6.937   8.250
 5374POPC   C3B15285  36.893   6.892   7.950
 5374POPC   C4B15286  36.833   6.931   7.650
 5375POPC   NC315287  33.007   8.159   9.450
 5375POPC   PO415288  33.031   8.170   9.150
 5375POPC   GL115289  33.046   8.161   8.850
 5375POPC   GL215290  32.965   8.046   8.850
 5375POPC   C1A15291  33.032   8.219   8.550
 5375POPC   D2A15292  33.029   8.204   8.250
 5375POPC   C3A15293  33.042   8.167   7.950
 5375POPC   C4A15294  33.043   8.191   7.650
 5375POPC   C1B15295  33.009   7.988   8.550
 5375POPC   C2B15296  32.972   7.988   8.250
 5375POPC   C3B15297  32.984   7.900   7.950
 5375POPC   C4B15298  33.020   7.902   7.650
 5376POPC   NC315299   5.138  24.478   9.450
 5376POPC   PO415300   5.139  24.442   9.150
 5376POPC   GL115301   5.098  24.496   8.850
 5376POPC   GL215302   5.161  24.555   8.850
 5376POPC   C1A15303   5.060  24.500   8.550
 5376POPC   D2A15304   5.045  24.460   8.250
 5376POPC   C3A15305   5.139  24.459   7.950
 5376POPC   C4A15306   5.096  24.447   7.650
 5376POPC   C1B15307   5.372  24.626   8.550
 5376POPC   C2B15308   5.304  24.631   8.250
 5376POPC   C3B15309   5.296  24.542   7.950
 5376POPC   C4B15310   5.277  24.563   7.650
 5377POPC   NC315311  11.276  37.649   9.450
 5377POPC   PO415312  11.341  37.727   9.150
 5377POPC   GL115313  11.325  37.657   8.850
 5377POPC   GL215314  11.332  37.598   8.850
 5377POPC   C1A15315  11.270  37.685   8.550
 5377POPC   D2A15316  11.334  37.655   8.250
 5377POPC   C3A15317  11.291  37.633   7.950
 5377POPC   C4A15318  11.259  37.704   7.650
 5377POPC   C1B15319  11.335  37.406   8.550
 5377POPC   C2B15320  11.344  37.449   8.250
 5377POPC   C3B15321  11.312  37.478   7.950
 5377POPC   C4B15322  11.352  37.394   7.650
 5378POPC   NC315323  26.054  22.125   9.450
 5378POPC   PO415324  26.023  22.115   9.150
 5378POPC   GL115325  26.046  22.126   8.850
 5378POPC   GL215326  26.095  22.014   8.850
 5378POPC   C1A15327  25.996  22.143   8.550
 5378POPC   D2A15328  26.053  22.173   8.250
 5378POPC   C3A15329  26.010  22.165   7.950
 5378POPC   C4A15330  26.089  22.168   7.650
 5378POPC   C1B15331  26.109  21.933   8.550
 5378POPC   C2B15332  26.104  21.930   8.250
 5378POPC   C3B15333  26.045  21.875   7.950
 5378POPC   C4B15334  26.054  21.937   7.650
 5379POPC   NC315335  10.558  16.768   9.450
 5379POPC   PO415336  10.503  16.701   9.150
 5379POPC   GL115337  10.555  16.753   8.850
 5379POPC   GL215338  10.465  16.563   8.850
 5379POPC   C1A15339  10.486  16.719   8.550
 5379POPC   D2A15340  10.489  16.741   8.250
 5379POPC   C3A15341  10.567  16.707   7.950
 5379POPC   C4A15342  10.564  16.731   7.650
 5379POPC   C1B15343  10.504  16.441   8.550
 5379POPC   C2B15344  10.452  16.531   8.250
 5379POPC   C3B15345  10.509  16.448   7.950
 5379POPC   C4B15346  10.529  16.444   7.650
 5380POPC   NC315347  12.826  33.000   9.450
 5380POPC   PO415348  12.812  32.988   9.150
 5380POPC   GL115349  12.860  33.065   8.850
 5380POPC   GL215350  12.840  33.134   8.850
 5380POPC   C1A15351  12.896  33.066   8.550
 5380POPC   D2A15352  12.876  33.006   8.250
 5380POPC   C3A15353  12.891  33.043   7.950
 5380POPC   C4A15354  12.897  33.047   7.650
 5380POPC   C1B15355  12.861  33.260   8.550
 5380POPC   C2B15356  12.929  33.251   8.250
 5380POPC   C3B15357  12.903  33.277   7.950
 5380POPC   C4B15358  12.878  33.226   7.650
 5381POPC   NC315359  36.881  21.349   9.450
 5381POPC   PO415360  36.905  21.377   9.150
 5381POPC   GL115361  36.890  21.404   8.850
 5381POPC   GL215362  36.932  21.509   8.850
 5381POPC   C1A15363  36.887  21.392   8.550
 5381POPC   D2A15364  36.911  21.340   8.250
 5381POPC   C3A15365  36.944  21.398   7.950
 5381POPC   C4A15366  36.931  21.388   7.650
 5381POPC   C1B15367  36.906  21.596   8.550
 5381POPC   C2B15368  36.930  21.639   8.250
 5381POPC   C3B15369  36.920  21.595   7.950
 5381POPC   C4B15370  36.968  21.597   7.650
 5382POPC   NC315371  34.606  22.894   9.450
 5382POPC   PO415372  34.600  22.944   9.150
 5382POPC   GL115373  34.580  22.971   8.850
 5382POPC   GL215374  34.487  22.872   8.850
 5382POPC   C1A15375  34.574  22.894   8.550
 5382POPC   D2A15376  34.565  22.969   8.250
 5382POPC   C3A15377  34.567  22.909   7.950
 5382POPC   C4A15378  34.548  22.940   7.650
 5382POPC   C1B15379  34.371  22.792   8.550
 5382POPC   C2B15380  34.350  22.824   8.250
 5382POPC   C3B15381  34.372  22.850   7.950
 5382POPC   C4B15382  34.406  22.840   7.650
 5383POPC   NC315383  34.564   4.320   9.450
 5383POPC   PO415384  34.601   4.365   9.150
 5383POPC   GL115385  34.554   4.326   8.850
 5383POPC   GL215386  34.685   4.267   8.850
 5383POPC   C1A15387  34.625   4.348   8.550
 5383POPC   D2A15388  34.582   4.345   8.250
 5383POPC   C3A15389  34.599   4.276   7.950
 5383POPC   C4A15390  34.625   4.358   7.650
 5383POPC   C1B15391  34.811   4.191   8.550
 5383POPC   C2B15392  34.813   4.216   8.250
 5383POPC   C3B15393  34.802   4.189   7.950
 5383POPC   C4B15394  34.830   4.275   7.650
 5384POPC   NC315395  41.563  39.183   9.450
 5384POPC   PO415396  41.604  39.261   9.150
 5384POPC   GL115397  41.585  39.234   8.850
 5384POPC   GL215398  41.667  39.246   8.850
 5384POPC   C1A15399  41.603  39.271   8.550
 5384POPC   D2A15400  41.558  39.278   8.250
 5384POPC   C3A15401  41.598  39.221   7.950
 5384POPC   C4A15402  41.519  39.228   7.650
 5384POPC   C1B15403  41.797  39.275   8.550
 5384POPC   C2B15404  41.765  39.239   8.250
 5384POPC   C3B15405  41.763  39.297   7.950
 5384POPC   C4B15406  41.845  39.275   7.650
 5385POPC   NC315407   4.283  35.363   9.450
 5385POPC   PO415408   4.293  35.388   9.150
 5385POPC   GL115409   4.283  35.379   8.850
 5385POPC   GL215410   4.390  35.305   8.850
 5385POPC   C1A15411   4.362  35.330   8.550
 5385POPC   D2A15412   4.275  35.369   8.250
 5385POPC   C3A15413   4.333  35.321   7.950
 5385POPC   C4A15414   4.329  35.308   7.650
 5385POPC   C1B15415   4.556  35.160   8.550
 5385POPC   C2B15416   4.518  35.235   8.250
 5385POPC   C3B15417   4.536  35.206   7.950
 5385POPC   C4B15418   4.512  35.245   7.650
 5386POPC   NC315419   1.982  16.713   9.450
 5386POPC   PO415420   2.022  16.747   9.150
 5386POPC   GL115421   1.962  16.734   8.850
 5386POPC   GL215422   2.136  16.630   8.850
 5386POPC   C1A15423   1.961  16.771   8.550
 5386POPC   D2A15424   1.956  16.718   8.250
 5386POPC   C3A15425   2.010  16.772   7.950
 5386POPC   C4A15426   2.002  16.690   7.650
 5386POPC   C1B15427   2.190  16.614   8.550
 5386POPC   C2B15428   2.144  16.558   8.250
 5386POPC   C3B15429   2.214  16.547   7.950
 5386POPC   C4B15430   2.186  16.528   7.650
 5387POPC   NC315431  38.411  15.183   9.450
 5387POPC   PO415432  38.478  15.186   9.150
 5387POPC   GL115433  38.486  15.156   8.850
 5387POPC   GL215434  38.478  15.332   8.850
 5387POPC   C1A15435  38.416  15.224   8.550
 5387POPC   D2A15436  38.436  15.172   8.250
 5387POPC   C3A15437  38.413  15.149   7.950
 5387POPC   C4A15438  38.494  15.191   7.650
 5387POPC   C1B15439  38.532  15.443   8.550
 5387POPC   C2B15440  38.517  15.386   8.250
 5387POPC   C3B15441  38.489  15.390   7.950
 5387POPC   C4B15442  38.501  15.454   7.650
 5388POPC   NC315443  27.608  12.817   9.450
 5388POPC   PO415444  27.571  12.901   9.150
 5388POPC   GL115445  27.588  12.836   8.850
 5388POPC   GL215446  27.430  12.913   8.850
 5388POPC   C1A15447  27.599  12.873   8.550
 5388POPC   D2A15448  27.556  12.898   8.250
 5388POPC   C3A15449  27.612  12.826   7.950
 5388POPC   C4A15450  27.620  12.898   7.650
 5388POPC   C1B15451  27.394  12.834   8.550
 5388POPC   C2B15452  27.315  12.875   8.250
 5388POPC   C3B15453  27.394  12.905   7.950
 5388POPC   C4B15454  27.312  12.916   7.650
 5389POPC   NC315455  31.499  18.319   9.450
 5389POPC   PO415456  31.458  18.272   9.150
 5389POPC   GL115457  31.518  18.255   8.850
 5389POPC   GL215458  31.333  18.372   8.850
 5389POPC   C1A15459  31.435  18.247   8.550
 5389POPC   D2A15460  31.467  18.321   8.250
 5389POPC   C3A15461  31.495  18.292   7.950
 5389POPC   C4A15462  31.454  18.243   7.650
 5389POPC   C1B15463  31.280  18.364   8.550
 5389POPC   C2B15464  31.282  18.450   8.250
 5389POPC   C3B15465  31.267  18.408   7.950
 5389POPC   C4B15466  31.206  18.356   7.650
 5390POPC   NC315467   4.317   0.397   9.450
 5390POPC   PO415468   4.270   0.406   9.150
 5390POPC   GL115469   4.275   0.459   8.850
 5390POPC   GL215470   4.258   0.576   8.850
 5390POPC   C1A15471   4.305   0.470   8.550
 5390POPC   D2A15472   4.312   0.403   8.250
 5390POPC   C3A15473   4.367   0.468   7.950
 5390POPC   C4A15474   4.362   0.392   7.650
 5390POPC   C1B15475   4.170   0.657   8.550
 5390POPC   C2B15476   4.202   0.620   8.250
 5390POPC   C3B15477   4.175   0.620   7.950
 5390POPC   C4B15478   4.202   0.645   7.650
 5391POPC   NC315479   6.664  23.679   9.450
 5391POPC   PO415480   6.678  23.671   9.150
 5391POPC   GL115481   6.608  23.707   8.850
 5391POPC   GL215482   6.753  23.792   8.850
 5391POPC   C1A15483   6.668  23.744   8.550
 5391POPC   D2A15484   6.630  23.696   8.250
 5391POPC   C3A15485   6.612  23.737   7.950
 5391POPC   C4A15486   6.656  23.725   7.650
 5391POPC   C1B15487   6.762  23.900   8.550
 5391POPC   C2B15488   6.738  23.894   8.250
 5391POPC   C3B15489   6.774  23.891   7.950
 5391POPC   C4B15490   6.773  23.955   7.650
 5392POPC   NC315491  36.171   5.898   9.450
 5392POPC   PO415492  36.175   5.870   9.150
 5392POPC   GL115493  36.150   5.842   8.850
 5392POPC   GL215494  36.273   5.832   8.850
 5392POPC   C1A15495  36.111   5.892   8.550
 5392POPC   D2A15496  36.128   5.846   8.250
 5392POPC   C3A15497  36.162   5.840   7.950
 5392POPC   C4A15498  36.087   5.838   7.650
 5392POPC   C1B15499  36.415   5.858   8.550
 5392POPC   C2B15500  36.400   5.862   8.250
 5392POPC   C3B15501  36.389   5.941   7.950
 5392POPC   C4B15502  36.420   5.898   7.650
 5393POPC   NC315503  41.544  36.156   9.450
 5393POPC   PO415504  41.525  36.151   9.150
 5393POPC   GL115505  41.549  36.088   8.850
 5393POPC   GL215506  41.401  36.149   8.850
 5393POPC   C1A15507  41.601  36.167   8.550
 5393POPC   D2A15508  41.582  36.173   8.250
 5393POPC   C3A15509  41.534  36.129   7.950
 5393POPC   C4A15510  41.605  36.126   7.650
 5393POPC   C1B15511  41.275  36.057   8.550
 5393POPC   C2B15512  41.317  36.066   8.250
 5393POPC   C3B15513  41.301  36.079   7.950
 5393POPC   C4B15514  41.278  36.136   7.650
 5394POPC   NC315515  15.178  23.688   9.450
 5394POPC   PO415516  15.202  23.669   9.150
 5394POPC   GL115517  15.180  23.679   8.850
 5394POPC   GL215518  15.257  23.670   8.850
 5394POPC   C1A15519  15.188  23.691   8.550
 5394POPC   D2A15520  15.223  23.762   8.250
 5394POPC   C3A15521  15.170  23.762   7.950
 5394POPC   C4A15522  15.136  23.695   7.650
 5394POPC   C1B15523  15.418  23.590   8.550
 5394POPC   C2B15524  15.398  23.556   8.250
 5394POPC   C3B15525  15.430  23.529   7.950
 5394POPC   C4B15526  15.374  23.617   7.650
 5395POPC   NC315527   0.420   9.743   9.450
 5395POPC   PO415528   0.439   9.771   9.150
 5395POPC   GL115529   0.438   9.728   8.850
 5395POPC   GL215530   0.550   9.778   8.850
 5395POPC   C1A15531   0.413   9.714   8.550
 5395POPC   D2A15532   0.411   9.709   8.250
 5395POPC   C3A15533   0.472   9.756   7.950
 5395POPC   C4A15534   0.428   9.787   7.650
 5395POPC   C1B15535   0.655   9.750   8.550
 5395POPC   C2B15536   0.726   9.698   8.250
 5395POPC   C3B15537   0.667   9.776   7.950
 5395POPC   C4B15538   0.711   9.759   7.650
 5396POPC   NC315539  21.369  11.290   9.450
 5396POPC   PO415540  21.404  11.291   9.150
 5396POPC   GL115541  21.391  11.295   8.850
 5396POPC   GL215542  21.301  11.386   8.850
 5396POPC   C1A15543  21.346  11.332   8.550
 5396POPC   D2A15544  21.425  11.280   8.250
 5396POPC   C3A15545  21.389  11.268   7.950
 5396POPC   C4A15546  21.337  11.250   7.650
 5396POPC   C1B15547  21.190  11.395   8.550
 5396POPC   C2B15548  21.134  11.442   8.250
 5396POPC   C3B15549  21.181  11.454   7.950
 5396POPC   C4B15550  21.168  11.449   7.650
 5397POPC   NC315551  39.958  29.137   9.450
 5397POPC   PO415552  39.978  29.122   9.150
 5397POPC   GL115553  40.033  29.126   8.850
 5397POPC   GL215554  39.855  29.142   8.850
 5397POPC   C1A15555  39.974  29.149   8.550
 5397POPC   D2A15556  39.965  29.189   8.250
 5397POPC   C3A15557  40.056  29.122   7.950
 5397POPC   C4A15558  40.057  29.154   7.650
 5397POPC   C1B15559  39.757  29.038   8.550
 5397POPC   C2B15560  39.820  29.090   8.250
 5397POPC   C3B15561  39.789  29.038   7.950
 5397POPC   C4B15562  39.767  29.023   7.650
 5398POPC   NC315563  43.065  36.094   9.450
 5398POPC   PO415564  43.153  36.119   9.150
 5398POPC   GL115565  43.092  36.172   8.850
 5398POPC   GL215566  43.062  36.253   8.850
 5398POPC   C1A15567  43.071  36.118   8.550
 5398POPC   D2A15568  43.151  36.113   8.250
 5398POPC   C3A15569  43.134  36.140   7.950
 5398POPC   C4A15570  43.146  36.112   7.650
 5398POPC   C1B15571  43.056  36.339   8.550
 5398POPC   C2B15572  43.024  36.386   8.250
 5398POPC   C3B15573  43.044  36.360   7.950
 5398POPC   C4B15574  43.028  36.393   7.650
 5399POPC   NC315575  42.345   6.641   9.450
 5399POPC   PO415576  42.349   6.630   9.150
 5399POPC   GL115577  42.334   6.615   8.850
 5399POPC   GL215578  42.349   6.763   8.850
 5399POPC   C1A15579  42.361   6.652   8.550
 5399POPC   D2A15580  42.336   6.648   8.250
 5399POPC   C3A15581  42.333   6.602   7.950
 5399POPC   C4A15582  42.351   6.654   7.650
 5399POPC   C1B15583  42.367   6.924   8.550
 5399POPC   C2B15584  42.321   6.857   8.250
 5399POPC   C3B15585  42.349   6.899   7.950
 5399POPC   C4B15586  42.342   6.862   7.650
 5400POPC   NC315587   4.324  15.912   9.450
 5400POPC   PO415588   4.297  15.986   9.150
 5400POPC   GL115589   4.301  16.000   8.850
 5400POPC   GL215590   4.214  15.958   8.850
 5400POPC   C1A15591   4.344  15.991   8.550
 5400POPC   D2A15592   4.320  15.920   8.250
 5400POPC   C3A15593   4.291  15.914   7.950
 5400POPC   C4A15594   4.325  15.996   7.650
 5400POPC   C1B15595   4.064  15.900   8.550
 5400POPC   C2B15596   4.084  15.818   8.250
 5400POPC   C3B15597   4.111  15.829   7.950
 5400POPC   C4B15598   4.115  15.865   7.650
 5401POPC   NC315599   7.398   1.987   9.450
 5401POPC   PO415600   7.435   2.027   9.150
 5401POPC   GL115601   7.400   1.995   8.850
 5401POPC   GL215602   7.420   1.900   8.850
 5401POPC   C1A15603   7.395   2.020   8.550
 5401POPC   D2A15604   7.377   2.025   8.250
 5401POPC   C3A15605   7.431   1.940   7.950
 5401POPC   C4A15606   7.397   2.026   7.650
 5401POPC   C1B15607   7.455   1.761   8.550
 5401POPC   C2B15608   7.409   1.760   8.250
 5401POPC   C3B15609   7.477   1.733   7.950
 5401POPC   C4B15610   7.484   1.790   7.650
 5402POPC   NC315611  36.124  20.632   9.450
 5402POPC   PO415612  36.110  20.582   9.150
 5402POPC   GL115613  36.096  20.575   8.850
 5402POPC   GL215614  36.009  20.690   8.850
 5402POPC   C1A15615  36.099  20.613   8.550
 5402POPC   D2A15616  36.171  20.648   8.250
 5402POPC   C3A15617  36.160  20.567   7.950
 5402POPC   C4A15618  36.116  20.593   7.650
 5402POPC   C1B15619  35.915  20.715   8.550
 5402POPC   C2B15620  35.957  20.746   8.250
 5402POPC   C3B15621  35.911  20.802   7.950
 5402POPC   C4B15622  35.925  20.801   7.650
 5403POPC   NC315623  37.665  13.587   9.450
 5403POPC   PO415624  37.678  13.593   9.150
 5403POPC   GL115625  37.687  13.619   8.850
 5403POPC   GL215626  37.622  13.710   8.850
 5403POPC   C1A15627  37.667  13.624   8.550
 5403POPC   D2A15628  37.729  13.652   8.250
 5403POPC   C3A15629  37.655  13.634   7.950
 5403POPC   C4A15630  37.661  13.649   7.650
 5403POPC   C1B15631  37.527  13.773   8.550
 5403POPC   C2B15632  37.523  13.798   8.250
 5403POPC   C3B15633  37.519  13.830   7.950
 5403POPC   C4B15634  37.480  13.822   7.650
 5404POPC   NC315635  15.197  17.467   9.450
 5404POPC   PO415636  15.222  17.506   9.150
 5404POPC   GL115637  15.192  17.495   8.850
 5404POPC   GL215638  15.296  17.449   8.850
 5404POPC   C1A15639  15.196  17.466   8.550
 5404POPC   D2A15640  15.138  17.465   8.250
 5404POPC   C3A15641  15.226  17.459   7.950
 5404POPC   C4A15642  15.179  17.507   7.650
 5404POPC   C1B15643  15.443  17.412   8.550
 5404POPC   C2B15644  15.456  17.468   8.250
 5404POPC   C3B15645  15.475  17.478   7.950
 5404POPC   C4B15646  15.414  17.457   7.650
 5405POPC   NC315647  11.340  36.111   9.450
 5405POPC   PO415648  11.348  36.083   9.150
 5405POPC   GL115649  11.264  36.132   8.850
 5405POPC   GL215650  11.155  36.040   8.850
 5405POPC   C1A15651  11.264  36.108   8.550
 5405POPC   D2A15652  11.268  36.167   8.250
 5405POPC   C3A15653  11.284  36.090   7.950
 5405POPC   C4A15654  11.292  36.164   7.650
 5405POPC   C1B15655  11.065  35.973   8.550
 5405POPC   C2B15656  11.114  36.025   8.250
 5405POPC   C3B15657  11.035  36.038   7.950
 5405POPC   C4B15658  11.086  36.024   7.650
 5406POPC   NC315659  22.958   7.420   9.450
 5406POPC   PO415660  22.963   7.424   9.150
 5406POPC   GL115661  22.940   7.408   8.850
 5406POPC   GL215662  22.834   7.419   8.850
 5406POPC   C1A15663  22.970   7.380   8.550
 5406POPC   D2A15664  22.923   7.372   8.250
 5406POPC   C3A15665  22.952   7.450   7.950
 5406POPC   C4A15666  22.920   7.387   7.650
 5406POPC   C1B15667  22.706   7.456   8.550
 5406POPC   C2B15668  22.699   7.411   8.250
 5406POPC   C3B15669  22.736   7.448   7.950
 5406POPC   C4B15670  22.643   7.447   7.650
 5407POPC   NC315671   0.452  27.634   9.450
 5407POPC   PO415672   0.454  27.612   9.150
 5407POPC   GL115673   0.436  27.615   8.850
 5407POPC   GL215674   0.326  27.523   8.850
 5407POPC   C1A15675   0.449  27.545   8.550
 5407POPC   D2A15676   0.397  27.629   8.250
 5407POPC   C3A15677   0.444  27.549   7.950
 5407POPC   C4A15678   0.402  27.566   7.650
 5407POPC   C1B15679   0.188  27.475   8.550
 5407POPC   C2B15680   0.210  27.422   8.250
 5407POPC   C3B15681   0.252  27.453   7.950
 5407POPC   C4B15682   0.253  27.511   7.650
 5408POPC   NC315683  21.378  26.071   9.450
 5408POPC   PO415684  21.428  26.003   9.150
 5408POPC   GL115685  21.408  26.057   8.850
 5408POPC   GL215686  21.553  26.035   8.850
 5408POPC   C1A15687  21.371  26.075   8.550
 5408POPC   D2A15688  21.413  26.057   8.250
 5408POPC   C3A15689  21.371  26.024   7.950
 5408POPC   C4A15690  21.393  26.007   7.650
 5408POPC   C1B15691  21.619  26.055   8.550
 5408POPC   C2B15692  21.638  26.108   8.250
 5408POPC   C3B15693  21.596  26.045   7.950
 5408POPC   C4B15694  21.662  26.046   7.650
 5409POPC   NC315695  28.374   5.915   9.450
 5409POPC   PO415696  28.403   5.890   9.150
 5409POPC   GL115697  28.322   5.902   8.850
 5409POPC   GL215698  28.253   5.917   8.850
 5409POPC   C1A15699  28.369   5.906   8.550
 5409POPC   D2A15700  28.353   5.894   8.250
 5409POPC   C3A15701  28.323   5.896   7.950
 5409POPC   C4A15702  28.335   5.845   7.650
 5409POPC   C1B15703  28.123   5.917   8.550
 5409POPC   C2B15704  28.135   5.892   8.250
 5409POPC   C3B15705  28.088   5.872   7.950
 5409POPC   C4B15706  28.110   5.919   7.650
 5410POPC   NC315707  23.712  35.380   9.450
 5410POPC   PO415708  23.748  35.375   9.150
 5410POPC   GL115709  23.694  35.401   8.850
 5410POPC   GL215710  23.555  35.407   8.850
 5410POPC   C1A15711  23.708  35.333   8.550
 5410POPC   D2A15712  23.755  35.313   8.250
 5410POPC   C3A15713  23.711  35.386   7.950
 5410POPC   C4A15714  23.710  35.371   7.650
 5410POPC   C1B15715  23.446  35.453   8.550
 5410POPC   C2B15716  23.478  35.478   8.250
 5410POPC   C3B15717  23.501  35.453   7.950
 5410POPC   C4B15718  23.520  35.455   7.650
 5411POPC   NC315719  34.565  35.337   9.450
 5411POPC   PO415720  34.538  35.344   9.150
 5411POPC   GL115721  34.608  35.387   8.850
 5411POPC   GL215722  34.482  35.221   8.850
 5411POPC   C1A15723  34.573  35.385   8.550
 5411POPC   D2A15724  34.608  35.313   8.250
 5411POPC   C3A15725  34.583  35.360   7.950
 5411POPC   C4A15726  34.554  35.365   7.650
 5411POPC   C1B15727  34.411  35.132   8.550
 5411POPC   C2B15728  34.422  35.181   8.250
 5411POPC   C3B15729  34.379  35.132   7.950
 5411POPC   C4B15730  34.463  35.142   7.650
 5412POPC   NC315731   3.527  36.156   9.450
 5412POPC   PO415732   3.533  36.134   9.150
 5412POPC   GL115733   3.544  36.171   8.850
 5412POPC   GL215734   3.652  36.245   8.850
 5412POPC   C1A15735   3.577  36.085   8.550
 5412POPC   D2A15736   3.553  36.083   8.250
 5412POPC   C3A15737   3.588  36.128   7.950
 5412POPC   C4A15738   3.564  36.144   7.650
 5412POPC   C1B15739   3.715  36.271   8.550
 5412POPC   C2B15740   3.702  36.245   8.250
 5412POPC   C3B15741   3.799  36.306   7.950
 5412POPC   C4B15742   3.725  36.243   7.650
 5413POPC   NC315743  12.839  29.152   9.450
 5413POPC   PO415744  12.828  29.164   9.150
 5413POPC   GL115745  12.809  29.154   8.850
 5413POPC   GL215746  12.835  29.277   8.850
 5413POPC   C1A15747  12.870  29.144   8.550
 5413POPC   D2A15748  12.869  29.178   8.250
 5413POPC   C3A15749  12.862  29.118   7.950
 5413POPC   C4A15750  12.883  29.172   7.650
 5413POPC   C1B15751  12.841  29.352   8.550
 5413POPC   C2B15752  12.797  29.348   8.250
 5413POPC   C3B15753  12.832  29.350   7.950
 5413POPC   C4B15754  12.774  29.405   7.650
 5414POPC   NC315755  17.547   9.013   9.450
 5414POPC   PO415756  17.486   8.952   9.150
 5414POPC   GL115757  17.490   8.956   8.850
 5414POPC   GL215758  17.609   8.896   8.850
 5414POPC   C1A15759  17.549   9.019   8.550
 5414POPC   D2A15760  17.474   8.982   8.250
 5414POPC   C3A15761  17.506   8.973   7.950
 5414POPC   C4A15762  17.489   8.972   7.650
 5414POPC   C1B15763  17.581   8.759   8.550
 5414POPC   C2B15764  17.604   8.715   8.250
 5414POPC   C3B15765  17.677   8.746   7.950
 5414POPC   C4B15766  17.669   8.800   7.650
 5415POPC   NC315767   9.773  17.494   9.450
 5415POPC   PO415768   9.725  17.481   9.150
 5415POPC   GL115769   9.729  17.475   8.850
 5415POPC   GL215770   9.669  17.495   8.850
 5415POPC   C1A15771   9.797  17.477   8.550
 5415POPC   D2A15772   9.781  17.550   8.250
 5415POPC   C3A15773   9.716  17.476   7.950
 5415POPC   C4A15774   9.768  17.532   7.650
 5415POPC   C1B15775   9.553  17.551   8.550
 5415POPC   C2B15776   9.535  17.529   8.250
 5415POPC   C3B15777   9.498  17.579   7.950
 5415POPC   C4B15778   9.502  17.572   7.650
 5416POPC   NC315779  19.083  22.915   9.450
 5416POPC   PO415780  19.012  22.911   9.150
 5416POPC   GL115781  19.083  22.946   8.850
 5416POPC   GL215782  18.933  22.898   8.850
 5416POPC   C1A15783  19.027  22.948   8.550
 5416POPC   D2A15784  19.069  22.968   8.250
 5416POPC   C3A15785  19.061  22.947   7.950
 5416POPC   C4A15786  19.107  22.968   7.650
 5416POPC   C1B15787  18.781  22.966   8.550
 5416POPC   C2B15788  18.789  22.911   8.250
 5416POPC   C3B15789  18.785  22.931   7.950
 5416POPC   C4B15790  18.770  22.966   7.650
 5417POPC   NC315791   5.867  37.690   9.450
 5417POPC   PO415792   5.827  37.720   9.150
 5417POPC   GL115793   5.826  37.716   8.850
 5417POPC   GL215794   5.966  37.750   8.850
 5417POPC   C1A15795   5.883  37.682   8.550
 5417POPC   D2A15796   5.915  37.716   8.250
 5417POPC   C3A15797   5.869  37.686   7.950
 5417POPC   C4A15798   5.834  37.636   7.650
 5417POPC   C1B15799   6.017  37.901   8.550
 5417POPC   C2B15800   6.022  37.902   8.250
 5417POPC   C3B15801   5.947  37.953   7.950
 5417POPC   C4B15802   6.020  37.903   7.650
 5418POPC   NC315803   0.454  26.084   9.450
 5418POPC   PO415804   0.403  26.014   9.150
 5418POPC   GL115805   0.470  26.032   8.850
 5418POPC   GL215806   0.410  25.947   8.850
 5418POPC   C1A15807   0.474  26.072   8.550
 5418POPC   D2A15808   0.436  26.052   8.250
 5418POPC   C3A15809   0.394  26.024   7.950
 5418POPC   C4A15810   0.444  26.062   7.650
 5418POPC   C1B15811   0.368  25.786   8.550
 5418POPC   C2B15812   0.358  25.773   8.250
 5418POPC   C3B15813   0.420  25.756   7.950
 5418POPC   C4B15814   0.337  25.798   7.650
 5419POPC   NC315815  11.264  25.311   9.450
 5419POPC   PO415816  11.329  25.216   9.150
 5419POPC   GL115817  11.250  25.267   8.850
 5419POPC   GL215818  11.276  25.419   8.850
 5419POPC   C1A15819  11.313  25.263   8.550
 5419POPC   D2A15820  11.283  25.255   8.250
 5419POPC   C3A15821  11.277  25.307   7.950
 5419POPC   C4A15822  11.269  25.260   7.650
 5419POPC   C1B15823  11.239  25.497   8.550
 5419POPC   C2B15824  11.230  25.441   8.250
 5419POPC   C3B15825  11.205  25.480   7.950
 5419POPC   C4B15826  11.195  25.457   7.650
 5420POPC   NC315827   8.208   9.716   9.450
 5420POPC   PO415828   8.181   9.791   9.150
 5420POPC   GL115829   8.147   9.767   8.850
 5420POPC   GL215830   8.080   9.789   8.850
 5420POPC   C1A15831   8.213   9.763   8.550
 5420POPC   D2A15832   8.174   9.742   8.250
 5420POPC   C3A15833   8.215   9.735   7.950
 5420POPC   C4A15834   8.178   9.774   7.650
 5420POPC   C1B15835   8.013   9.939   8.550
 5420POPC   C2B15836   8.003   9.857   8.250
 5420POPC   C3B15837   8.041   9.891   7.950
 5420POPC   C4B15838   7.963   9.903   7.650
 5421POPC   NC315839  16.756  36.134   9.450
 5421POPC   PO415840  16.754  36.088   9.150
 5421POPC   GL115841  16.698  36.121   8.850
 5421POPC   GL215842  16.723  36.212   8.850
 5421POPC   C1A15843  16.735  36.101   8.550
 5421POPC   D2A15844  16.712  36.089   8.250
 5421POPC   C3A15845  16.735  36.138   7.950
 5421POPC   C4A15846  16.715  36.144   7.650
 5421POPC   C1B15847  16.756  36.367   8.550
 5421POPC   C2B15848  16.807  36.404   8.250
 5421POPC   C3B15849  16.833  36.382   7.950
 5421POPC   C4B15850  16.772  36.393   7.650
 5422POPC   NC315851   4.306  29.167   9.450
 5422POPC   PO415852   4.287  29.169   9.150
 5422POPC   GL115853   4.320  29.168   8.850
 5422POPC   GL215854   4.469  29.078   8.850
 5422POPC   C1A15855   4.359  29.133   8.550
 5422POPC   D2A15856   4.299  29.167   8.250
 5422POPC   C3A15857   4.285  29.128   7.950
 5422POPC   C4A15858   4.356  29.170   7.650
 5422POPC   C1B15859   4.516  29.109   8.550
 5422POPC   C2B15860   4.528  29.027   8.250
 5422POPC   C3B15861   4.602  29.092   7.950
 5422POPC   C4B15862   4.545  29.113   7.650
 5423POPC   NC315863  39.249  14.421   9.450
 5423POPC   PO415864  39.281  14.429   9.150
 5423POPC   GL115865  39.183  14.367   8.850
 5423POPC   GL215866  39.343  14.321   8.850
 5423POPC   C1A15867  39.220  14.381   8.550
 5423POPC   D2A15868  39.260  14.369   8.250
 5423POPC   C3A15869  39.200  14.453   7.950
 5423POPC   C4A15870  39.264  14.453   7.650
 5423POPC   C1B15871  39.418  14.344   8.550
 5423POPC   C2B15872  39.506  14.359   8.250
 5423POPC   C3B15873  39.469  14.313   7.950
 5423POPC   C4B15874  39.489  14.319   7.650
 5424POPC   NC315875   5.044  30.733   9.450
 5424POPC   PO415876   5.123  30.670   9.150
 5424POPC   GL115877   5.131  30.717   8.850
 5424POPC   GL215878   5.186  30.761   8.850
 5424POPC   C1A15879   5.069  30.718   8.550
 5424POPC   D2A15880   5.058  30.661   8.250
 5424POPC   C3A15881   5.050  30.688   7.950
 5424POPC   C4A15882   5.141  30.680   7.650
 5424POPC   C1B15883   5.303  30.837   8.550
 5424POPC   C2B15884   5.301  30.845   8.250
 5424POPC   C3B15885   5.330  30.873   7.950
 5424POPC   C4B15886   5.313  30.781   7.650
 5425POPC   NC315887  12.057  13.594   9.450
 5425POPC   PO415888  12.119  13.590   9.150
 5425POPC   GL115889  12.048  13.614   8.850
 5425POPC   GL215890  12.131  13.569   8.850
 5425POPC   C1A15891  12.042  13.678   8.550
 5425POPC   D2A15892  12.119  13.647   8.250
 5425POPC   C3A15893  12.117  13.608   7.950
 5425POPC   C4A15894  12.053  13.622   7.650
 5425POPC   C1B15895  12.220  13.443   8.550
 5425POPC   C2B15896  12.247  13.441   8.250
 5425POPC   C3B15897  12.266  13.405   7.950
 5425POPC   C4B15898  12.246  13.476   7.650
 5426POPC   NC315899  28.360  17.513   9.450
 5426POPC   PO415900  28.350  17.541   9.150
 5426POPC   GL115901  28.352  17.512   8.850
 5426POPC   GL215902  28.502  17.584   8.850
 5426POPC   C1A15903  28.417  17.513   8.550
 5426POPC   D2A15904  28.337  17.506   8.250
 5426POPC   C3A15905  28.328  17.556   7.950
 5426POPC   C4A15906  28.345  17.539   7.650
 5426POPC   C1B15907  28.578  17.694   8.550
 5426POPC   C2B15908  28.538  17.700   8.250
 5426POPC   C3B15909  28.576  17.709   7.950
 5426POPC   C4B15910  28.591  17.644   7.650
 5427POPC   NC315911  34.550  22.205   9.450
 5427POPC   PO415912  34.559  22.209   9.150
 5427POPC   GL115913  34.574  22.123   8.850
 5427POPC   GL215914  34.624  22.293   8.850
 5427POPC   C1A15915  34.577  22.135   8.550
 5427POPC   D2A15916  34.538  22.168   8.250
 5427POPC   C3A15917  34.602  22.212   7.950
 5427POPC   C4A15918  34.610  22.152   7.650
 5427POPC   C1B15919  34.714  22.353   8.550
 5427POPC   C2B15920  34.711  22.375   8.250
 5427POPC   C3B15921  34.746  22.366   7.950
 5427POPC   C4B15922  34.672  22.418   7.650
 5428POPC   NC315923  13.580  43.867   9.450
 5428POPC   PO415924  13.593  43.883   9.150
 5428POPC   GL115925  13.677  43.901   8.850
 5428POPC   GL215926  13.710  43.740   8.850
 5428POPC   C1A15927  13.651  43.852   8.550
 5428POPC   D2A15928  13.668  43.843   8.250
 5428POPC   C3A15929  13.646  43.924   7.950
 5428POPC   C4A15930  13.610  43.933   7.650
 5428POPC   C1B15931  13.779  43.657   8.550
 5428POPC   C2B15932  13.755  43.703   8.250
 5428POPC   C3B15933  13.734  43.640   7.950
 5428POPC   C4B15934  13.749  43.706   7.650
 5429POPC   NC315935  28.384  19.105   9.450
 5429POPC   PO415936  28.364  19.090   9.150
 5429POPC   GL115937  28.414  19.103   8.850
 5429POPC   GL215938  28.293  19.020   8.850
 5429POPC   C1A15939  28.331  19.107   8.550
 5429POPC   D2A15940  28.335  19.024   8.250
 5429POPC   C3A15941  28.385  19.061   7.950
 5429POPC   C4A15942  28.391  19.091   7.650
 5429POPC   C1B15943  28.207  18.878   8.550
 5429POPC   C2B15944  28.154  18.869   8.250
 5429POPC   C3B15945  28.125  18.886   7.950
 5429POPC   C4B15946  28.145  18.906   7.650
 5430POPC   NC315947   1.247  15.167   9.450
 5430POPC   PO415948   1.228  15.145   9.150
 5430POPC   GL115949   1.241  15.204   8.850
 5430POPC   GL215950   1.085  15.133   8.850
 5430POPC   C1A15951   1.218  15.165   8.550
 5430POPC   D2A15952   1.180  15.201   8.250
 5430POPC   C3A15953   1.170  15.132   7.950
 5430POPC   C4A15954   1.182  15.216   7.650
 5430POPC   C1B15955   1.035  15.039   8.550
 5430POPC   C2B15956   1.030  15.079   8.250
 5430POPC   C3B15957   1.038  15.072   7.950
 5430POPC   C4B15958   1.021  15.053   7.650
 5431POPC   NC315959  12.812  42.285   9.450
 5431POPC   PO415960  12.859  42.317   9.150
 5431POPC   GL115961  12.809  42.351   8.850
 5431POPC   GL215962  12.757  42.412   8.850
 5431POPC   C1A15963  12.848  42.327   8.550
 5431POPC   D2A15964  12.817  42.340   8.250
 5431POPC   C3A15965  12.840  42.291   7.950
 5431POPC   C4A15966  12.822  42.379   7.650
 5431POPC   C1B15967  12.665  42.571   8.550
 5431POPC   C2B15968  12.674  42.520   8.250
 5431POPC   C3B15969  12.691  42.503   7.950
 5431POPC   C4B15970  12.713  42.572   7.650
 5432POPC   NC315971  42.342  15.959   9.450
 5432POPC   PO415972  42.345  15.936   9.150
 5432POPC   GL115973  42.372  15.909   8.850
 5432POPC   GL215974  42.447  16.003   8.850
 5432POPC   C1A15975  42.328  15.998   8.550
 5432POPC   D2A15976  42.295  15.931   8.250
 5432POPC   C3A15977  42.304  16.001   7.950
 5432POPC   C4A15978  42.334  15.975   7.650
 5432POPC   C1B15979  42.544  15.979   8.550
 5432POPC   C2B15980  42.564  16.014   8.250
 5432POPC   C3B15981  42.584  15.994   7.950
 5432POPC   C4B15982  42.568  15.988   7.650
 5433POPC   NC315983  27.591  30.716   9.450
 5433POPC   PO415984  27.627  30.686   9.150
 5433POPC   GL115985  27.587  30.702   8.850
 5433POPC   GL215986  27.477  30.701   8.850
 5433POPC   C1A15987  27.574  30.667   8.550
 5433POPC   D2A15988  27.589  30.682   8.250
 5433POPC   C3A15989  27.549  30.725   7.950
 5433POPC   C4A15990  27.584  30.650   7.650
 5433POPC   C1B15991  27.358  30.663   8.550
 5433POPC   C2B15992  27.303  30.642   8.250
 5433POPC   C3B15993  27.309  30.646   7.950
 5433POPC   C4B15994  27.374  30.644   7.650
 5434POPC   NC315995  18.279  15.226   9.450
 5434POPC   PO415996  18.236  15.181   9.150
 5434POPC   GL115997  18.251  15.158   8.850
 5434POPC   GL215998  18.270  15.068   8.850
 5434POPC   C1A15999  18.312  15.216   8.550
 5434POPC   D2A16000  18.300  15.163   8.250
 5434POPC   C3A16001  18.234  15.165   7.950
 5434POPC   C4A16002  18.298  15.198   7.650
 5434POPC   C1B16003  18.170  14.932   8.550
 5434POPC   C2B16004  18.178  14.917   8.250
 5434POPC   C3B16005  18.213  14.994   7.950
 5434POPC   C4B16006  18.218  14.926   7.650
 5435POPC   NC316007  11.342   9.022   9.450
 5435POPC   PO416008  11.278   9.003   9.150
 5435POPC   GL116009  11.314   9.004   8.850
 5435POPC   GL216010  11.405   9.063   8.850
 5435POPC   C1A16011  11.293   8.973   8.550
 5435POPC   D2A16012  11.294   8.998   8.250
 5435POPC   C3A16013  11.311   8.947   7.950
 5435POPC   C4A16014  11.287   9.020   7.650
 5435POPC   C1B16015  11.487   9.127   8.550
 5435POPC   C2B16016  11.478   9.133   8.250
 5435POPC   C3B16017  11.552   9.070   7.950
 5435POPC   C4B16018  11.529   9.112   7.650
 5436POPC   NC316019   8.961  39.249   9.450
 5436POPC   PO416020   8.989  39.208   9.150
 5436POPC   GL116021   8.980  39.238   8.850
 5436POPC   GL216022   8.864  39.308   8.850
 5436POPC   C1A16023   8.990  39.238   8.550
 5436POPC   D2A16024   9.016  39.249   8.250
 5436POPC   C3A16025   8.974  39.258   7.950
 5436POPC   C4A16026   9.002  39.212   7.650
 5436POPC   C1B16027   8.723  39.304   8.550
 5436POPC   C2B16028   8.695  39.353   8.250
 5436POPC   C3B16029   8.715  39.281   7.950
 5436POPC   C4B16030   8.763  39.352   7.650
 5437POPC   NC316031  14.420   6.632   9.450
 5437POPC   PO416032  14.400   6.650   9.150
 5437POPC   GL116033  14.391   6.658   8.850
 5437POPC   GL216034  14.499   6.565   8.850
 5437POPC   C1A16035  14.384   6.687   8.550
 5437POPC   D2A16036  14.431   6.677   8.250
 5437POPC   C3A16037  14.387   6.642   7.950
 5437POPC   C4A16038  14.415   6.634   7.650
 5437POPC   C1B16039  14.598   6.460   8.550
 5437POPC   C2B16040  14.591   6.499   8.250
 5437POPC   C3B16041  14.567   6.471   7.950
 5437POPC   C4B16042  14.560   6.491   7.650
 5438POPC   NC316043   8.169  22.945   9.450
 5438POPC   PO416044   8.215  22.956   9.150
 5438POPC   GL116045   8.221  22.973   8.850
 5438POPC   GL216046   8.293  23.091   8.850
 5438POPC   C1A16047   8.245  22.943   8.550
 5438POPC   D2A16048   8.173  22.930   8.250
 5438POPC   C3A16049   8.193  22.901   7.950
 5438POPC   C4A16050   8.173  22.955   7.650
 5438POPC   C1B16051   8.359  23.144   8.550
 5438POPC   C2B16052   8.318  23.200   8.250
 5438POPC   C3B16053   8.277  23.123   7.950
 5438POPC   C4B16054   8.280  23.209   7.650
 5439POPC   NC316055  32.991  22.954   9.450
 5439POPC   PO416056  32.987  22.958   9.150
 5439POPC   GL116057  33.059  22.936   8.850
 5439POPC   GL216058  33.124  22.920   8.850
 5439POPC   C1A16059  33.042  22.980   8.550
 5439POPC   D2A16060  33.016  22.985   8.250
 5439POPC   C3A16061  32.978  22.949   7.950
 5439POPC   C4A16062  33.036  22.952   7.650
 5439POPC   C1B16063  33.229  22.799   8.550
 5439POPC   C2B16064  33.295  22.813   8.250
 5439POPC   C3B16065  33.294  22.784   7.950
 5439POPC   C4B16066  33.204  22.876   7.650
 5440POPC   NC316067   0.412  23.686   9.450
 5440POPC   PO416068   0.438  23.676   9.150
 5440POPC   GL116069   0.419  23.700   8.850
 5440POPC   GL216070   0.440  23.839   8.850
 5440POPC   C1A16071   0.471  23.672   8.550
 5440POPC   D2A16072   0.455  23.693   8.250
 5440POPC   C3A16073   0.468  23.741   7.950
 5440POPC   C4A16074   0.432  23.714   7.650
 5440POPC   C1B16075   0.471  23.944   8.550
 5440POPC   C2B16076   0.505  24.003   8.250
 5440POPC   C3B16077   0.490  23.941   7.950
 5440POPC   C4B16078   0.459  23.939   7.650
 5441POPC   NC316079  33.009   7.372   9.450
 5441POPC   PO416080  33.030   7.439   9.150
 5441POPC   GL116081  32.980   7.401   8.850
 5441POPC   GL216082  33.184   7.428   8.850
 5441POPC   C1A16083  33.054   7.439   8.550
 5441POPC   D2A16084  32.986   7.459   8.250
 5441POPC   C3A16085  33.017   7.412   7.950
 5441POPC   C4A16086  32.981   7.407   7.650
 5441POPC   C1B16087  33.294   7.392   8.550
 5441POPC   C2B16088  33.262   7.362   8.250
 5441POPC   C3B16089  33.219   7.311   7.950
 5441POPC   C4B16090  33.301   7.334   7.650
 5442POPC   NC316091  13.650  19.014   9.450
 5442POPC   PO416092  13.593  19.080   9.150
 5442POPC   GL116093  13.676  19.088   8.850
 5442POPC   GL216094  13.583  18.967   8.850
 5442POPC   C1A16095  13.631  19.012   8.550
 5442POPC   D2A16096  13.651  19.105   8.250
 5442POPC   C3A16097  13.666  19.016   7.950
 5442POPC   C4A16098  13.652  19.101   7.650
 5442POPC   C1B16099  13.600  18.761   8.550
 5442POPC   C2B16100  13.607  18.770   8.250
 5442POPC   C3B16101  13.590  18.858   7.950
 5442POPC   C4B16102  13.568  18.769   7.650
 5443POPC   NC316103  40.774  44.662   9.450
 5443POPC   PO416104  40.770  44.657   9.150
 5443POPC   GL116105  40.755  44.697   8.850
 5443POPC   GL216106  40.645  44.559   8.850
 5443POPC   C1A16107  40.823  44.675   8.550
 5443POPC   D2A16108  40.742  44.688   8.250
 5443POPC   C3A16109  40.827  44.695   7.950
 5443POPC   C4A16110  40.741  44.642   7.650
 5443POPC   C1B16111  40.554  44.537   8.550
 5443POPC   C2B16112  40.564  44.556   8.250
 5443POPC   C3B16113  40.586  44.511   7.950
 5443POPC   C4B16114  40.528  44.471   7.650
 5444POPC   NC316115  35.312  38.463   9.450
 5444POPC   PO416116  35.316  38.459   9.150
 5444POPC   GL116117  35.310  38.458   8.850
 5444POPC   GL216118  35.344  38.572   8.850
 5444POPC   C1A16119  35.315  38.444   8.550
 5444POPC   D2A16120  35.328  38.451   8.250
 5444POPC   C3A16121  35.400  38.469   7.950
 5444POPC   C4A16122  35.368  38.490   7.650
 5444POPC   C1B16123  35.341  38.715   8.550
 5444POPC   C2B16124  35.281  38.676   8.250
 5444POPC   C3B16125  35.306  38.710   7.950
 5444POPC   C4B16126  35.308  38.725   7.650
 5445POPC   NC316127  11.309  39.969   9.450
 5445POPC   PO416128  11.311  39.969   9.150
 5445POPC   GL116129  11.293  39.975   8.850
 5445POPC   GL216130  11.466  40.017   8.850
 5445POPC   C1A16131  11.268  40.033   8.550
 5445POPC   D2A16132  11.259  39.985   8.250
 5445POPC   C3A16133  11.339  39.997   7.950
 5445POPC   C4A16134  11.344  40.010   7.650
 5445POPC   C1B16135  11.552  40.120   8.550
 5445POPC   C2B16136  11.556  40.121   8.250
 5445POPC   C3B16137  11.523  40.063   7.950
 5445POPC   C4B16138  11.546  40.122   7.650
 5446POPC   NC316139  25.266  43.087   9.450
 5446POPC   PO416140  25.310  43.068   9.150
 5446POPC   GL116141  25.219  43.128   8.850
 5446POPC   GL216142  25.321  42.968   8.850
 5446POPC   C1A16143  25.230  43.126   8.550
 5446POPC   D2A16144  25.220  43.133   8.250
 5446POPC   C3A16145  25.272  43.120   7.950
 5446POPC   C4A16146  25.287  43.121   7.650
 5446POPC   C1B16147  25.358  42.897   8.550
 5446POPC   C2B16148  25.436  42.910   8.250
 5446POPC   C3B16149  25.359  42.930   7.950
 5446POPC   C4B16150  25.355  42.904   7.650
 5447POPC   NC316151  12.084  22.196   9.450
 5447POPC   PO416152  12.056  22.208   9.150
 5447POPC   GL116153  12.082  22.207   8.850
 5447POPC   GL216154  12.021  22.130   8.850
 5447POPC   C1A16155  12.106  22.130   8.550
 5447POPC   D2A16156  12.049  22.187   8.250
 5447POPC   C3A16157  12.116  22.176   7.950
 5447POPC   C4A16158  12.093  22.188   7.650
 5447POPC   C1B16159  11.871  22.023   8.550
 5447POPC   C2B16160  11.866  22.025   8.250
 5447POPC   C3B16161  11.914  21.987   7.950
 5447POPC   C4B16162  11.908  21.958   7.650
 5448POPC   NC316163  32.253  16.776   9.450
 5448POPC   PO416164  32.248  16.686   9.150
 5448POPC   GL116165  32.261  16.686   8.850
 5448POPC   GL216166  32.101  16.666   8.850
 5448POPC   C1A16167  32.245  16.701   8.550
 5448POPC   D2A16168  32.274  16.701   8.250
 5448POPC   C3A16169  32.271  16.691   7.950
 5448POPC   C4A16170  32.286  16.712   7.650
 5448POPC   C1B16171  31.972  16.626   8.550
 5448POPC   C2B16172  32.041  16.694   8.250
 5448POPC   C3B16173  31.984  16.660   7.950
 5448POPC   C4B16174  31.988  16.678   7.650
 5449POPC   NC316175  12.840  18.291   9.450
 5449POPC   PO416176  12.879  18.291   9.150
 5449POPC   GL116177  12.885  18.331   8.850
 5449POPC   GL216178  12.878  18.151   8.850
 5449POPC   C1A16179  12.881  18.259   8.550
 5449POPC   D2A16180  12.818  18.265   8.250
 5449POPC   C3A16181  12.875  18.270   7.950
 5449POPC   C4A16182  12.842  18.269   7.650
 5449POPC   C1B16183  12.938  18.048   8.550
 5449POPC   C2B16184  12.935  18.078   8.250
 5449POPC   C3B16185  12.916  18.071   7.950
 5449POPC   C4B16186  12.963  18.082   7.650
 5450POPC   NC316187  26.027  14.438   9.450
 5450POPC   PO416188  26.058  14.373   9.150
 5450POPC   GL116189  25.997  14.449   8.850
 5450POPC   GL216190  26.080  14.450   8.850
 5450POPC   C1A16191  26.033  14.413   8.550
 5450POPC   D2A16192  26.014  14.407   8.250
 5450POPC   C3A16193  26.086  14.410   7.950
 5450POPC   C4A16194  26.091  14.397   7.650
 5450POPC   C1B16195  26.228  14.543   8.550
 5450POPC   C2B16196  26.164  14.639   8.250
 5450POPC   C3B16197  26.178  14.573   7.950
 5450POPC   C4B16198  26.224  14.567   7.650
 5451POPC   NC316199   9.783  16.769   9.450
 5451POPC   PO416200   9.721  16.763   9.150
 5451POPC   GL116201   9.723  16.697   8.850
 5451POPC   GL216202   9.639  16.816   8.850
 5451POPC   C1A16203   9.707  16.741   8.550
 5451POPC   D2A16204   9.700  16.706   8.250
 5451POPC   C3A16205   9.703  16.696   7.950
 5451POPC   C4A16206   9.711  16.739   7.650
 5451POPC   C1B16207   9.576  16.886   8.550
 5451POPC   C2B16208   9.580  16.929   8.250
 5451POPC   C3B16209   9.587  16.959   7.950
 5451POPC   C4B16210   9.608  16.926   7.650
 5452POPC   NC316211   8.241  13.617   9.450
 5452POPC   PO416212   8.150  13.617   9.150
 5452POPC   GL116213   8.205  13.630   8.850
 5452POPC   GL216214   8.281  13.740   8.850
 5452POPC   C1A16215   8.177  13.677   8.550
 5452POPC   D2A16216   8.172  13.646   8.250
 5452POPC   C3A16217   8.186  13.596   7.950
 5452POPC   C4A16218   8.160  13.608   7.650
 5452POPC   C1B16219   8.291  13.855   8.550
 5452POPC   C2B16220   8.355  13.832   8.250
 5452POPC   C3B16221   8.366  13.873   7.950
 5452POPC   C4B16222   8.379  13.873   7.650
 5453POPC   NC316223   9.731  40.797   9.450
 5453POPC   PO416224   9.758  40.776   9.150
 5453POPC   GL116225   9.798  40.755   8.850
 5453POPC   GL216226   9.609  40.867   8.850
 5453POPC   C1A16227   9.721  40.759   8.550
 5453POPC   D2A16228   9.793  40.825   8.250
 5453POPC   C3A16229   9.793  40.734   7.950
 5453POPC   C4A16230   9.787  40.796   7.650
 5453POPC   C1B16231   9.533  40.805   8.550
 5453POPC   C2B16232   9.521  40.819   8.250
 5453POPC   C3B16233   9.502  40.820   7.950
 5453POPC   C4B16234   9.534  40.823   7.650
 5454POPC   NC316235  41.549  12.865   9.450
 5454POPC   PO416236  41.520  12.852   9.150
 5454POPC   GL116237  41.528  12.857   8.850
 5454POPC   GL216238  41.448  12.847   8.850
 5454POPC   C1A16239  41.579  12.808   8.550
 5454POPC   D2A16240  41.543  12.819   8.250
 5454POPC   C3A16241  41.529  12.828   7.950
 5454POPC   C4A16242  41.541  12.818   7.650
 5454POPC   C1B16243  41.348  12.824   8.550
 5454POPC   C2B16244  41.353  12.858   8.250
 5454POPC   C3B16245  41.315  12.797   7.950
 5454POPC   C4B16246  41.319  12.785   7.650
 5455POPC   NC316247  11.321  41.561   9.450
 5455POPC   PO416248  11.255  41.532   9.150
 5455POPC   GL116249  11.309  41.555   8.850
 5455POPC   GL216250  11.366  41.679   8.850
 5455POPC   C1A16251  11.323  41.531   8.550
 5455POPC   D2A16252  11.342  41.516   8.250
 5455POPC   C3A16253  11.341  41.572   7.950
 5455POPC   C4A16254  11.302  41.542   7.650
 5455POPC   C1B16255  11.496  41.762   8.550
 5455POPC   C2B16256  11.449  41.704   8.250
 5455POPC   C3B16257  11.458  41.755   7.950
 5455POPC   C4B16258  11.501  41.688   7.650
 5456POPC   NC316259  12.863  43.150   9.450
 5456POPC   PO416260  12.813  43.074   9.150
 5456POPC   GL116261  12.885  43.135   8.850
 5456POPC   GL216262  12.946  43.211   8.850
 5456POPC   C1A16263  12.878  43.079   8.550
 5456POPC   D2A16264  12.829  43.081   8.250
 5456POPC   C3A16265  12.803  43.132   7.950
 5456POPC   C4A16266  12.881  43.079   7.650
 5456POPC   C1B16267  12.959  43.344   8.550
 5456POPC   C2B16268  12.994  43.307   8.250
 5456POPC   C3B16269  12.969  43.311   7.950
 5456POPC   C4B16270  13.001  43.346   7.650
 5457POPC   NC316271  40.774  32.264   9.450
 5457POPC   PO416272  40.795  32.289   9.150
 5457POPC   GL116273  40.762  32.231   8.850
 5457POPC   GL216274  40.736  32.354   8.850
 5457POPC   C1A16275  40.784  32.258   8.550
 5457POPC   D2A16276  40.781  32.281   8.250
 5457POPC   C3A16277  40.760  32.220   7.950
 5457POPC   C4A16278  40.819  32.275   7.650
 5457POPC   C1B16279  40.572  32.376   8.550
 5457POPC   C2B16280  40.577  32.375   8.250
 5457POPC   C3B16281  40.569  32.378   7.950
 5457POPC   C4B16282  40.585  32.461   7.650
 5458POPC   NC316283  16.685  40.043   9.450
 5458POPC   PO416284  16.728  39.997   9.150
 5458POPC   GL116285  16.697  40.045   8.850
 5458POPC   GL216286  16.738  39.866   8.850
 5458POPC   C1A16287  16.753  40.002   8.550
 5458POPC   D2A16288  16.699  39.999   8.250
 5458POPC   C3A16289  16.751  40.044   7.950
 5458POPC   C4A16290  16.692  40.012   7.650
 5458POPC   C1B16291  16.635  39.717   8.550
 5458POPC   C2B16292  16.634  39.750   8.250
 5458POPC   C3B16293  16.632  39.803   7.950
 5458POPC   C4B16294  16.656  39.809   7.650
 5459POPC   NC316295  19.814   2.039   9.450
 5459POPC   PO416296  19.848   1.955   9.150
 5459POPC   GL116297  19.839   1.985   8.850
 5459POPC   GL216298  19.843   2.160   8.850
 5459POPC   C1A16299  19.878   2.002   8.550
 5459POPC   D2A16300  19.793   2.014   8.250
 5459POPC   C3A16301  19.881   1.948   7.950
 5459POPC   C4A16302  19.808   2.004   7.650
 5459POPC   C1B16303  19.831   2.267   8.550
 5459POPC   C2B16304  19.827   2.219   8.250
 5459POPC   C3B16305  19.842   2.229   7.950
 5459POPC   C4B16306  19.826   2.216   7.650
 5460POPC   NC316307   7.441   1.197   9.450
 5460POPC   PO416308   7.374   1.256   9.150
 5460POPC   GL116309   7.409   1.198   8.850
 5460POPC   GL216310   7.476   1.289   8.850
 5460POPC   C1A16311   7.432   1.231   8.550
 5460POPC   D2A16312   7.387   1.219   8.250
 5460POPC   C3A16313   7.383   1.254   7.950
 5460POPC   C4A16314   7.457   1.206   7.650
 5460POPC   C1B16315   7.511   1.437   8.550
 5460POPC   C2B16316   7.576   1.471   8.250
 5460POPC   C3B16317   7.543   1.451   7.950
 5460POPC   C4B16318   7.547   1.477   7.650
 5461POPC   NC316319  12.830  22.153   9.450
 5461POPC   PO416320  12.863  22.193   9.150
 5461POPC   GL116321  12.869  22.128   8.850
 5461POPC   GL216322  12.988  22.141   8.850
 5461POPC   C1A16323  12.860  22.125   8.550
 5461POPC   D2A16324  12.828  22.177   8.250
 5461POPC   C3A16325  12.822  22.153   7.950
 5461POPC   C4A16326  12.816  22.167   7.650
 5461POPC   C1B16327  13.101  22.196   8.550
 5461POPC   C2B16328  13.093  22.159   8.250
 5461POPC   C3B16329  13.110  22.120   7.950
 5461POPC   C4B16330  13.130  22.190   7.650
 5462POPC   NC316331  19.881   5.087   9.450
 5462POPC   PO416332  19.818   5.043   9.150
 5462POPC   GL116333  19.811   5.137   8.850
 5462POPC   GL216334  19.780   5.135   8.850
 5462POPC   C1A16335  19.789   5.138   8.550
 5462POPC   D2A16336  19.834   5.069   8.250
 5462POPC   C3A16337  19.862   5.099   7.950
 5462POPC   C4A16338  19.797   5.085   7.650
 5462POPC   C1B16339  19.663   5.273   8.550
 5462POPC   C2B16340  19.628   5.303   8.250
 5462POPC   C3B16341  19.620   5.285   7.950
 5462POPC   C4B16342  19.663   5.239   7.650
 5463POPC   NC316343  38.486  40.752   9.450
 5463POPC   PO416344  38.414  40.806   9.150
 5463POPC   GL116345  38.420  40.797   8.850
 5463POPC   GL216346  38.589  40.730   8.850
 5463POPC   C1A16347  38.502  40.789   8.550
 5463POPC   D2A16348  38.468  40.803   8.250
 5463POPC   C3A16349  38.418  40.762   7.950
 5463POPC   C4A16350  38.427  40.752   7.650
 5463POPC   C1B16351  38.608  40.647   8.550
 5463POPC   C2B16352  38.650  40.667   8.250
 5463POPC   C3B16353  38.615  40.621   7.950
 5463POPC   C4B16354  38.625  40.628   7.650
 5464POPC   NC316355  39.997  40.795   9.450
 5464POPC   PO416356  39.969  40.744   9.150
 5464POPC   GL116357  40.002  40.800   8.850
 5464POPC   GL216358  40.000  40.617   8.850
 5464POPC   C1A16359  40.021  40.777   8.550
 5464POPC   D2A16360  40.013  40.817   8.250
 5464POPC   C3A16361  40.051  40.819   7.950
 5464POPC   C4A16362  40.001  40.772   7.650
 5464POPC   C1B16363  39.910  40.512   8.550
 5464POPC   C2B16364  39.965  40.574   8.250
 5464POPC   C3B16365  39.874  40.569   7.950
 5464POPC   C4B16366  39.882  40.537   7.650
 5465POPC   NC316367  16.731  24.498   9.450
 5465POPC   PO416368  16.763  24.480   9.150
 5465POPC   GL116369  16.687  24.493   8.850
 5465POPC   GL216370  16.691  24.405   8.850
 5465POPC   C1A16371  16.749  24.483   8.550
 5465POPC   D2A16372  16.779  24.533   8.250
 5465POPC   C3A16373  16.766  24.515   7.950
 5465POPC   C4A16374  16.698  24.514   7.650
 5465POPC   C1B16375  16.653  24.248   8.550
 5465POPC   C2B16376  16.675  24.226   8.250
 5465POPC   C3B16377  16.711  24.284   7.950
 5465POPC   C4B16378  16.620  24.224   7.650
 5466POPC   NC316379   4.354  18.239   9.450
 5466POPC   PO416380   4.342  18.238   9.150
 5466POPC   GL116381   4.341  18.284   8.850
 5466POPC   GL216382   4.222  18.205   8.850
 5466POPC   C1A16383   4.365  18.298   8.550
 5466POPC   D2A16384   4.348  18.317   8.250
 5466POPC   C3A16385   4.354  18.239   7.950
 5466POPC   C4A16386   4.333  18.315   7.650
 5466POPC   C1B16387   4.245  18.102   8.550
 5466POPC   C2B16388   4.193  18.057   8.250
 5466POPC   C3B16389   4.171  18.036   7.950
 5466POPC   C4B16390   4.247  18.101   7.650
 5467POPC   NC316391  32.217  11.340   9.450
 5467POPC   PO416392  32.223  11.337   9.150
 5467POPC   GL116393  32.255  11.338   8.850
 5467POPC   GL216394  32.107  11.258   8.850
 5467POPC   C1A16395  32.274  11.314   8.550
 5467POPC   D2A16396  32.274  11.322   8.250
 5467POPC   C3A16397  32.252  11.269   7.950
 5467POPC   C4A16398  32.206  11.339   7.650
 5467POPC   C1B16399  32.029  11.333   8.550
 5467POPC   C2B16400  31.957  11.320   8.250
 5467POPC   C3B16401  31.964  11.307   7.950
 5467POPC   C4B16402  31.980  11.264   7.650
 5468POPC   NC316403  23.693  43.111   9.450
 5468POPC   PO416404  23.677  43.100   9.150
 5468POPC   GL116405  23.733  43.062   8.850
 5468POPC   GL216406  23.740  43.196   8.850
 5468POPC   C1A16407  23.692  43.096   8.550
 5468POPC   D2A16408  23.713  43.105   8.250
 5468POPC   C3A16409  23.748  43.075   7.950
 5468POPC   C4A16410  23.672  43.159   7.650
 5468POPC   C1B16411  23.777  43.373   8.550
 5468POPC   C2B16412  23.788  43.348   8.250
 5468POPC   C3B16413  23.804  43.382   7.950
 5468POPC   C4B16414  23.747  43.375   7.650
 5469POPC   NC316415  35.330  23.698   9.450
 5469POPC   PO416416  35.378  23.747   9.150
 5469POPC   GL116417  35.387  23.720   8.850
 5469POPC   GL216418  35.218  23.732   8.850
 5469POPC   C1A16419  35.385  23.752   8.550
 5469POPC   D2A16420  35.373  23.693   8.250
 5469POPC   C3A16421  35.338  23.741   7.950
 5469POPC   C4A16422  35.400  23.674   7.650
 5469POPC   C1B16423  35.095  23.791   8.550
 5469POPC   C2B16424  35.131  23.850   8.250
 5469POPC   C3B16425  35.150  23.834   7.950
 5469POPC   C4B16426  35.144  23.850   7.650
 5470POPC   NC316427  43.088  39.234   9.450
 5470POPC   PO416428  43.101  39.266   9.150
 5470POPC   GL116429  43.068  39.258   8.850
 5470POPC   GL216430  42.999  39.180   8.850
 5470POPC   C1A16431  43.113  39.280   8.550
 5470POPC   D2A16432  43.097  39.271   8.250
 5470POPC   C3A16433  43.072  39.202   7.950
 5470POPC   C4A16434  43.136  39.219   7.650
 5470POPC   C1B16435  42.862  39.072   8.550
 5470POPC   C2B16436  42.899  39.071   8.250
 5470POPC   C3B16437  42.896  39.134   7.950
 5470POPC   C4B16438  42.874  39.071   7.650
 5471POPC   NC316439  42.305   9.759   9.450
 5471POPC   PO416440  42.296   9.706   9.150
 5471POPC   GL116441  42.337   9.793   8.850
 5471POPC   GL216442  42.343   9.627   8.850
 5471POPC   C1A16443  42.323   9.731   8.550
 5471POPC   D2A16444  42.371   9.774   8.250
 5471POPC   C3A16445  42.332   9.760   7.950
 5471POPC   C4A16446  42.384   9.768   7.650
 5471POPC   C1B16447  42.429   9.538   8.550
 5471POPC   C2B16448  42.432   9.550   8.250
 5471POPC   C3B16449  42.410   9.532   7.950
 5471POPC   C4B16450  42.383   9.526   7.650
 5472POPC   NC316451  43.934  27.544   9.450
 5472POPC   PO416452  43.902  27.559   9.150
 5472POPC   GL116453  43.900  27.603   8.850
 5472POPC   GL216454  43.961  27.563   8.850
 5472POPC   C1A16455  43.886  27.629   8.550
 5472POPC   D2A16456  43.860  27.612   8.250
 5472POPC   C3A16457  43.859  27.584   7.950
 5472POPC   C4A16458  43.864  27.617   7.650
 5472POPC   C1B16459  44.081  27.463   8.550
 5472POPC   C2B16460  44.108  27.530   8.250
 5472POPC   C3B16461  44.116  27.473   7.950
 5472POPC   C4B16462  44.131  27.542   7.650
 5473POPC   NC316463  12.123  21.379   9.450
 5473POPC   PO416464  12.099  21.413   9.150
 5473POPC   GL116465  12.090  21.433   8.850
 5473POPC   GL216466  12.082  21.542   8.850
 5473POPC   C1A16467  12.098  21.377   8.550
 5473POPC   D2A16468  12.032  21.434   8.250
 5473POPC   C3A16469  12.038  21.391   7.950
 5473POPC   C4A16470  12.097  21.434   7.650
 5473POPC   C1B16471  12.012  21.638   8.550
 5473POPC   C2B16472  12.030  21.588   8.250
 5473POPC   C3B16473  12.083  21.668   7.950
 5473POPC   C4B16474  12.063  21.607   7.650
 5474POPC   NC316475  10.491   3.580   9.450
 5474POPC   PO416476  10.516   3.494   9.150
 5474POPC   GL116477  10.542   3.545   8.850
 5474POPC   GL216478  10.443   3.484   8.850
 5474POPC   C1A16479  10.551   3.514   8.550
 5474POPC   D2A16480  10.569   3.542   8.250
 5474POPC   C3A16481  10.519   3.492   7.950
 5474POPC   C4A16482  10.560   3.539   7.650
 5474POPC   C1B16483  10.374   3.338   8.550
 5474POPC   C2B16484  10.373   3.293   8.250
 5474POPC   C3B16485  10.397   3.319   7.950
 5474POPC   C4B16486  10.396   3.317   7.650
 5475POPC   NC316487  40.758  41.538   9.450
 5475POPC   PO416488  40.829  41.589   9.150
 5475POPC   GL116489  40.736  41.578   8.850
 5475POPC   GL216490  40.867  41.480   8.850
 5475POPC   C1A16491  40.786  41.592   8.550
 5475POPC   D2A16492  40.821  41.577   8.250
 5475POPC   C3A16493  40.791  41.556   7.950
 5475POPC   C4A16494  40.809  41.585   7.650
 5475POPC   C1B16495  41.045  41.431   8.550
 5475POPC   C2B16496  41.019  41.425   8.250
 5475POPC   C3B16497  41.035  41.435   7.950
 5475POPC   C4B16498  41.002  41.463   7.650
 5476POPC   NC316499   0.412   7.403   9.450
 5476POPC   PO416500   0.401   7.462   9.150
 5476POPC   GL116501   0.447   7.409   8.850
 5476POPC   GL216502   0.529   7.266   8.850
 5476POPC   C1A16503   0.392   7.457   8.550
 5476POPC   D2A16504   0.452   7.458   8.250
 5476POPC   C3A16505   0.449   7.431   7.950
 5476POPC   C4A16506   0.422   7.390   7.650
 5476POPC   C1B16507   0.555   7.194   8.550
 5476POPC   C2B16508   0.567   7.158   8.250
 5476POPC   C3B16509   0.570   7.216   7.950
 5476POPC   C4B16510   0.569   7.214   7.650
 5477POPC   NC316511   1.220  38.472   9.450
 5477POPC   PO416512   1.166  38.503   9.150
 5477POPC   GL116513   1.254  38.425   8.850
 5477POPC   GL216514   1.317  38.391   8.850
 5477POPC   C1A16515   1.222  38.485   8.550
 5477POPC   D2A16516   1.251  38.416   8.250
 5477POPC   C3A16517   1.256  38.477   7.950
 5477POPC   C4A16518   1.221  38.423   7.650
 5477POPC   C1B16519   1.386  38.271   8.550
 5477POPC   C2B16520   1.392  38.277   8.250
 5477POPC   C3B16521   1.451  38.347   7.950
 5477POPC   C4B16522   1.447  38.321   7.650
 5478POPC   NC316523   5.059   1.981   9.450
 5478POPC   PO416524   5.072   2.012   9.150
 5478POPC   GL116525   5.131   2.035   8.850
 5478POPC   GL216526   5.136   1.890   8.850
 5478POPC   C1A16527   5.082   2.000   8.550
 5478POPC   D2A16528   5.121   1.941   8.250
 5478POPC   C3A16529   5.055   1.940   7.950
 5478POPC   C4A16530   5.101   2.030   7.650
 5478POPC   C1B16531   5.054   1.785   8.550
 5478POPC   C2B16532   5.109   1.730   8.250
 5478POPC   C3B16533   5.128   1.741   7.950
 5478POPC   C4B16534   5.080   1.778   7.650
 5479POPC   NC316535  41.594   3.562   9.450
 5479POPC   PO416536  41.510   3.541   9.150
 5479POPC   GL116537  41.575   3.533   8.850
 5479POPC   GL216538  41.552   3.468   8.850
 5479POPC   C1A16539  41.581   3.526   8.550
 5479POPC   D2A16540  41.520   3.491   8.250
 5479POPC   C3A16541  41.527   3.557   7.950
 5479POPC   C4A16542  41.578   3.560   7.650
 5479POPC   C1B16543  41.653   3.342   8.550
 5479POPC   C2B16544  41.661   3.310   8.250
 5479POPC   C3B16545  41.675   3.308   7.950
 5479POPC   C4B16546  41.681   3.307   7.650
 5480POPC   NC316547  22.119   1.245   9.450
 5480POPC   PO416548  22.174   1.205   9.150
 5480POPC   GL116549  22.152   1.175   8.850
 5480POPC   GL216550  22.159   1.345   8.850
 5480POPC   C1A16551  22.187   1.195   8.550
 5480POPC   D2A16552  22.142   1.246   8.250
 5480POPC   C3A16553  22.198   1.175   7.950
 5480POPC   C4A16554  22.196   1.204   7.650
 5480POPC   C1B16555  22.235   1.481   8.550
 5480POPC   C2B16556  22.225   1.501   8.250
 5480POPC   C3B16557  22.235   1.454   7.950
 5480POPC   C4B16558  22.182   1.493   7.650
 5481POPC   NC316559  10.484  26.863   9.450
 5481POPC   PO416560  10.479  26.772   9.150
 5481POPC   GL116561  10.504  26.795   8.850
 5481POPC   GL216562  10.449  26.833   8.850
 5481POPC   C1A16563  10.528  26.838   8.550
 5481POPC   D2A16564  10.489  26.805   8.250
 5481POPC   C3A16565  10.502  26.839   7.950
 5481POPC   C4A16566  10.532  26.823   7.650
 5481POPC   C1B16567  10.273  26.806   8.550
 5481POPC   C2B16568  10.247  26.849   8.250
 5481POPC   C3B16569  10.300  26.807   7.950
 5481POPC   C4B16570  10.262  26.761   7.650
 5482POPC   NC316571   4.282  26.810   9.450
 5482POPC   PO416572   4.299  26.807   9.150
 5482POPC   GL116573   4.303  26.778   8.850
 5482POPC   GL216574   4.339  26.713   8.850
 5482POPC   C1A16575   4.345  26.771   8.550
 5482POPC   D2A16576   4.271  26.847   8.250
 5482POPC   C3A16577   4.292  26.853   7.950
 5482POPC   C4A16578   4.283  26.847   7.650
 5482POPC   C1B16579   4.401  26.554   8.550
 5482POPC   C2B16580   4.431  26.578   8.250
 5482POPC   C3B16581   4.387  26.604   7.950
 5482POPC   C4B16582   4.412  26.632   7.650
 5483POPC   NC316583  23.729  37.679   9.450
 5483POPC   PO416584  23.690  37.645   9.150
 5483POPC   GL116585  23.730  37.670   8.850
 5483POPC   GL216586  23.801  37.816   8.850
 5483POPC   C1A16587  23.698  37.647   8.550
 5483POPC   D2A16588  23.680  37.691   8.250
 5483POPC   C3A16589  23.712  37.697   7.950
 5483POPC   C4A16590  23.742  37.723   7.650
 5483POPC   C1B16591  23.877  37.896   8.550
 5483POPC   C2B16592  23.858  37.863   8.250
 5483POPC   C3B16593  23.808  37.891   7.950
 5483POPC   C4B16594  23.893  37.924   7.650
 5484POPC   NC316595  36.078  22.956   9.450
 5484POPC   PO416596  36.126  22.979   9.150
 5484POPC   GL116597  36.112  22.933   8.850
 5484POPC   GL216598  35.975  22.942   8.850
 5484POPC   C1A16599  36.163  22.891   8.550
 5484POPC   D2A16600  36.170  22.946   8.250
 5484POPC   C3A16601  36.152  22.944   7.950
 5484POPC   C4A16602  36.147  22.973   7.650
 5484POPC   C1B16603  35.918  22.967   8.550
 5484POPC   C2B16604  35.927  22.935   8.250
 5484POPC   C3B16605  35.906  22.903   7.950
 5484POPC   C4B16606  35.890  22.905   7.650
 5485POPC   NC316607  36.098  29.968   9.450
 5485POPC   PO416608  36.145  29.912   9.150
 5485POPC   GL116609  36.094  29.903   8.850
 5485POPC   GL216610  36.103  30.038   8.850
 5485POPC   C1A16611  36.164  29.965   8.550
 5485POPC   D2A16612  36.122  29.935   8.250
 5485POPC   C3A16613  36.078  29.905   7.950
 5485POPC   C4A16614  36.160  29.905   7.650
 5485POPC   C1B16615  36.079  30.198   8.550
 5485POPC   C2B16616  36.048  30.154   8.250
 5485POPC   C3B16617  36.109  30.215   7.950
 5485POPC   C4B16618  36.083  30.140   7.650
 5486POPC   NC316619  29.969   3.499   9.450
 5486POPC   PO416620  29.935   3.505   9.150
 5486POPC   GL116621  29.954   3.498   8.850
 5486POPC   GL216622  29.989   3.652   8.850
 5486POPC   C1A16623  29.890   3.506   8.550
 5486POPC   D2A16624  29.887   3.570   8.250
 5486POPC   C3A16625  29.943   3.509   7.950
 5486POPC   C4A16626  29.928   3.522   7.650
 5486POPC   C1B16627  30.093   3.656   8.550
 5486POPC   C2B16628  30.133   3.620   8.250
 5486POPC   C3B16629  30.183   3.622   7.950
 5486POPC   C4B16630  30.142   3.621   7.650
 5487POPC   NC316631  34.532  14.418   9.450
 5487POPC   PO416632  34.614  14.359   9.150
 5487POPC   GL116633  34.544  14.411   8.850
 5487POPC   GL216634  34.496  14.515   8.850
 5487POPC   C1A16635  34.587  14.362   8.550
 5487POPC   D2A16636  34.540  14.388   8.250
 5487POPC   C3A16637  34.604  14.377   7.950
 5487POPC   C4A16638  34.587  14.422   7.650
 5487POPC   C1B16639  34.363  14.544   8.550
 5487POPC   C2B16640  34.347  14.521   8.250
 5487POPC   C3B16641  34.344  14.566   7.950
 5487POPC   C4B16642  34.327  14.552   7.650
 5488POPC   NC316643  26.803  12.810   9.450
 5488POPC   PO416644  26.835  12.897   9.150
 5488POPC   GL116645  26.812  12.859   8.850
 5488POPC   GL216646  26.789  12.715   8.850
 5488POPC   C1A16647  26.852  12.886   8.550
 5488POPC   D2A16648  26.863  12.846   8.250
 5488POPC   C3A16649  26.831  12.806   7.950
 5488POPC   C4A16650  26.811  12.900   7.650
 5488POPC   C1B16651  26.751  12.608   8.550
 5488POPC   C2B16652  26.716  12.609   8.250
 5488POPC   C3B16653  26.714  12.575   7.950
 5488POPC   C4B16654  26.720  12.629   7.650
 5489POPC   NC316655   7.412  29.141   9.450
 5489POPC   PO416656   7.426  29.172   9.150
 5489POPC   GL116657   7.393  29.164   8.850
 5489POPC   GL216658   7.493  29.249   8.850
 5489POPC   C1A16659   7.405  29.152   8.550
 5489POPC   D2A16660   7.462  29.129   8.250
 5489POPC   C3A16661   7.440  29.119   7.950
 5489POPC   C4A16662   7.413  29.146   7.650
 5489POPC   C1B16663   7.628  29.335   8.550
 5489POPC   C2B16664   7.670  29.333   8.250
 5489POPC   C3B16665   7.627  29.341   7.950
 5489POPC   C4B16666   7.604  29.249   7.650
 5490POPC   NC316667   2.027  26.848   9.450
 5490POPC   PO416668   2.019  26.798   9.150
 5490POPC   GL116669   2.025  26.788   8.850
 5490POPC   GL216670   1.890  26.720   8.850
 5490POPC   C1A16671   1.971  26.777   8.550
 5490POPC   D2A16672   2.018  26.829   8.250
 5490POPC   C3A16673   2.039  26.861   7.950
 5490POPC   C4A16674   1.986  26.838   7.650
 5490POPC   C1B16675   1.825  26.635   8.550
 5490POPC   C2B16676   1.835  26.653   8.250
 5490POPC   C3B16677   1.861  26.648   7.950
 5490POPC   C4B16678   1.859  26.619   7.650
 5491POPC   NC316679  43.143  28.359   9.450
 5491POPC   PO416680  43.120  28.360   9.150
 5491POPC   GL116681  43.100  28.349   8.850
 5491POPC   GL216682  43.008  28.365   8.850
 5491POPC   C1A16683  43.128  28.369   8.550
 5491POPC   D2A16684  43.132  28.365   8.250
 5491POPC   C3A16685  43.123  28.383   7.950
 5491POPC   C4A16686  43.096  28.413   7.650
 5491POPC   C1B16687  42.901  28.262   8.550
 5491POPC   C2B16688  42.889  28.261   8.250
 5491POPC   C3B16689  42.911  28.268   7.950
 5491POPC   C4B16690  42.871  28.311   7.650
 5492POPC   NC316691  38.406   6.638   9.450
 5492POPC   PO416692  38.444   6.675   9.150
 5492POPC   GL116693  38.428   6.682   8.850
 5492POPC   GL216694  38.538   6.686   8.850
 5492POPC   C1A16695  38.428   6.648   8.550
 5492POPC   D2A16696  38.409   6.630   8.250
 5492POPC   C3A16697  38.448   6.629   7.950
 5492POPC   C4A16698  38.414   6.602   7.650
 5492POPC   C1B16699  38.694   6.728   8.550
 5492POPC   C2B16700  38.665   6.696   8.250
 5492POPC   C3B16701  38.662   6.677   7.950
 5492POPC   C4B16702  38.680   6.714   7.650
 5493POPC   NC316703   7.395   3.576   9.450
 5493POPC   PO416704   7.390   3.572   9.150
 5493POPC   GL116705   7.405   3.568   8.850
 5493POPC   GL216706   7.487   3.591   8.850
 5493POPC   C1A16707   7.425   3.551   8.550
 5493POPC   D2A16708   7.390   3.513   8.250
 5493POPC   C3A16709   7.447   3.519   7.950
 5493POPC   C4A16710   7.444   3.557   7.650
 5493POPC   C1B16711   7.547   3.695   8.550
 5493POPC   C2B16712   7.615   3.739   8.250
 5493POPC   C3B16713   7.597   3.690   7.950
 5493POPC   C4B16714   7.585   3.768   7.650
 5494POPC   NC316715   6.691   6.659   9.450
 5494POPC   PO416716   6.600   6.619   9.150
 5494POPC   GL116717   6.634   6.640   8.850
 5494POPC   GL216718   6.566   6.766   8.850
 5494POPC   C1A16719   6.634   6.648   8.550
 5494POPC   D2A16720   6.669   6.616   8.250
 5494POPC   C3A16721   6.691   6.604   7.950
 5494POPC   C4A16722   6.599   6.657   7.650
 5494POPC   C1B16723   6.518   6.835   8.550
 5494POPC   C2B16724   6.573   6.877   8.250
 5494POPC   C3B16725   6.566   6.856   7.950
 5494POPC   C4B16726   6.498   6.840   7.650
 5495POPC   NC316727  37.630  33.066   9.450
 5495POPC   PO416728  37.642  33.009   9.150
 5495POPC   GL116729  37.667  33.074   8.850
 5495POPC   GL216730  37.662  32.927   8.850
 5495POPC   C1A16731  37.722  33.043   8.550
 5495POPC   D2A16732  37.675  32.976   8.250
 5495POPC   C3A16733  37.667  32.988   7.950
 5495POPC   C4A16734  37.657  33.065   7.650
 5495POPC   C1B16735  37.649  32.754   8.550
 5495POPC   C2B16736  37.614  32.752   8.250
 5495POPC   C3B16737  37.652  32.794   7.950
 5495POPC   C4B16738  37.672  32.780   7.650
 5496POPC   NC316739  21.403  21.366   9.450
 5496POPC   PO416740  21.425  21.425   9.150
 5496POPC   GL116741  21.436  21.350   8.850
 5496POPC   GL216742  21.336  21.533   8.850
 5496POPC   C1A16743  21.416  21.390   8.550
 5496POPC   D2A16744  21.407  21.369   8.250
 5496POPC   C3A16745  21.362  21.405   7.950
 5496POPC   C4A16746  21.384  21.341   7.650
 5496POPC   C1B16747  21.250  21.642   8.550
 5496POPC   C2B16748  21.320  21.664   8.250
 5496POPC   C3B16749  21.290  21.662   7.950
 5496POPC   C4B16750  21.271  21.637   7.650
 5497POPC   NC316751  34.617   8.946   9.450
 5497POPC   PO416752  34.561   8.969   9.150
 5497POPC   GL116753  34.622   9.006   8.850
 5497POPC   GL216754  34.674   8.929   8.850
 5497POPC   C1A16755  34.606   8.923   8.550
 5497POPC   D2A16756  34.557   8.960   8.250
 5497POPC   C3A16757  34.589   8.957   7.950
 5497POPC   C4A16758  34.547   9.020   7.650
 5497POPC   C1B16759  34.805   8.861   8.550
 5497POPC   C2B16760  34.864   8.951   8.250
 5497POPC   C3B16761  34.847   8.914   7.950
 5497POPC   C4B16762  34.839   8.953   7.650
 5498POPC   NC316763  29.923  39.250   9.450
 5498POPC   PO416764  29.955  39.182   9.150
 5498POPC   GL116765  29.943  39.216   8.850
 5498POPC   GL216766  29.777  39.270   8.850
 5498POPC   C1A16767  29.871  39.247   8.550
 5498POPC   D2A16768  29.915  39.266   8.250
 5498POPC   C3A16769  29.884  39.263   7.950
 5498POPC   C4A16770  29.966  39.272   7.650
 5498POPC   C1B16771  29.667  39.311   8.550
 5498POPC   C2B16772  29.668  39.253   8.250
 5498POPC   C3B16773  29.655  39.302   7.950
 5498POPC   C4B16774  29.725  39.338   7.650
 5499POPC   NC316775  14.391  12.084   9.450
 5499POPC   PO416776  14.368  12.081   9.150
 5499POPC   GL116777  14.388  12.085   8.850
 5499POPC   GL216778  14.305  12.200   8.850
 5499POPC   C1A16779  14.435  12.071   8.550
 5499POPC   D2A16780  14.421  12.084   8.250
 5499POPC   C3A16781  14.417  12.036   7.950
 5499POPC   C4A16782  14.395  12.064   7.650
 5499POPC   C1B16783  14.276  12.285   8.550
 5499POPC   C2B16784  14.328  12.269   8.250
 5499POPC   C3B16785  14.270  12.256   7.950
 5499POPC   C4B16786  14.285  12.327   7.650
 5500POPC   NC316787  26.062  23.697   9.450
 5500POPC   PO416788  26.068  23.716   9.150
 5500POPC   GL116789  25.999  23.744   8.850
 5500POPC   GL216790  26.142  23.816   8.850
 5500POPC   C1A16791  26.020  23.707   8.550
 5500POPC   D2A16792  26.002  23.701   8.250
 5500POPC   C3A16793  26.040  23.736   7.950
 5500POPC   C4A16794  25.997  23.669   7.650
 5500POPC   C1B16795  26.275  23.883   8.550
 5500POPC   C2B16796  26.294  23.841   8.250
 5500POPC   C3B16797  26.303  23.807   7.950
 5500POPC   C4B16798  26.234  23.829   7.650
 5501POPC   NC316799  30.656   1.225   9.450
 5501POPC   PO416800  30.719   1.234   9.150
 5501POPC   GL116801  30.706   1.250   8.850
 5501POPC   GL216802  30.583   1.306   8.850
 5501POPC   C1A16803  30.691   1.173   8.550
 5501POPC   D2A16804  30.694   1.254   8.250
 5501POPC   C3A16805  30.705   1.165   7.950
 5501POPC   C4A16806  30.649   1.174   7.650
 5501POPC   C1B16807  30.511   1.369   8.550
 5501POPC   C2B16808  30.586   1.436   8.250
 5501POPC   C3B16809  30.574   1.389   7.950
 5501POPC   C4B16810  30.586   1.434   7.650
 5502POPC   NC316811  25.266  30.709   9.450
 5502POPC   PO416812  25.235  30.738   9.150
 5502POPC   GL116813  25.269  30.701   8.850
 5502POPC   GL216814  25.350  30.739   8.850
 5502POPC   C1A16815  25.240  30.704   8.550
 5502POPC   D2A16816  25.314  30.747   8.250
 5502POPC   C3A16817  25.221  30.663   7.950
 5502POPC   C4A16818  25.233  30.682   7.650
 5502POPC   C1B16819  25.479  30.824   8.550
 5502POPC   C2B16820  25.486  30.861   8.250
 5502POPC   C3B16821  25.507  30.802   7.950
 5502POPC   C4B16822  25.462  30.830   7.650
 5503POPC   NC316823  28.375  19.796   9.450
 5503POPC   PO416824  28.326  19.844   9.150
 5503POPC   GL116825  28.369  19.856   8.850
 5503POPC   GL216826  28.425  19.774   8.850
 5503POPC   C1A16827  28.406  19.834   8.550
 5503POPC   D2A16828  28.406  19.876   8.250
 5503POPC   C3A16829  28.363  19.860   7.950
 5503POPC   C4A16830  28.386  19.824   7.650
 5503POPC   C1B16831  28.529  19.639   8.550
 5503POPC   C2B16832  28.591  19.714   8.250
 5503POPC   C3B16833  28.519  19.720   7.950
 5503POPC   C4B16834  28.570  19.672   7.650
 5504POPC   NC316835  26.828  36.137   9.450
 5504POPC   PO416836  26.863  36.112   9.150
 5504POPC   GL116837  26.821  36.119   8.850
 5504POPC   GL216838  26.963  36.183   8.850
 5504POPC   C1A16839  26.857  36.099   8.550
 5504POPC   D2A16840  26.836  36.092   8.250
 5504POPC   C3A16841  26.788  36.132   7.950
 5504POPC   C4A16842  26.816  36.087   7.650
 5504POPC   C1B16843  27.007  36.280   8.550
 5504POPC   C2B16844  27.055  36.237   8.250
 5504POPC   C3B16845  27.057  36.244   7.950
 5504POPC   C4B16846  27.043  36.323   7.650
 5505POPC   NC316847  39.975  35.329   9.450
 5505POPC   PO416848  40.031  35.335   9.150
 5505POPC   GL116849  39.988  35.321   8.850
 5505POPC   GL216850  40.046  35.217   8.850
 5505POPC   C1A16851  40.008  35.341   8.550
 5505POPC   D2A16852  40.041  35.302   8.250
 5505POPC   C3A16853  39.996  35.356   7.950
 5505POPC   C4A16854  40.044  35.384   7.650
 5505POPC   C1B16855  40.153  35.157   8.550
 5505POPC   C2B16856  40.181  35.165   8.250
 5505POPC   C3B16857  40.196  35.155   7.950
 5505POPC   C4B16858  40.201  35.151   7.650
 5506POPC   NC316859   5.099  22.190   9.450
 5506POPC   PO416860   5.136  22.192   9.150
 5506POPC   GL116861   5.081  22.147   8.850
 5506POPC   GL216862   4.962  22.184   8.850
 5506POPC   C1A16863   5.103  22.199   8.550
 5506POPC   D2A16864   5.101  22.148   8.250
 5506POPC   C3A16865   5.095  22.161   7.950
 5506POPC   C4A16866   5.083  22.188   7.650
 5506POPC   C1B16867   4.871  22.137   8.550
 5506POPC   C2B16868   4.809  22.188   8.250
 5506POPC   C3B16869   4.844  22.124   7.950
 5506POPC   C4B16870   4.832  22.120   7.650
 5507POPC   NC316871  43.130  33.017   9.450
 5507POPC   PO416872  43.067  32.979   9.150
 5507POPC   GL116873  43.067  33.045   8.850
 5507POPC   GL216874  43.141  32.938   8.850
 5507POPC   C1A16875  43.084  33.069   8.550
 5507POPC   D2A16876  43.142  33.055   8.250
 5507POPC   C3A16877  43.089  33.041   7.950
 5507POPC   C4A16878  43.131  33.051   7.650
 5507POPC   C1B16879  43.199  32.818   8.550
 5507POPC   C2B16880  43.192  32.802   8.250
 5507POPC   C3B16881  43.247  32.792   7.950
 5507POPC   C4B16882  43.272  32.817   7.650
 5508POPC   NC316883   6.607  36.870   9.450
 5508POPC   PO416884   6.673  36.854   9.150
 5508POPC   GL116885   6.648  36.928   8.850
 5508POPC   GL216886   6.558  36.970   8.850
 5508POPC   C1A16887   6.617  36.940   8.550
 5508POPC   D2A16888   6.616  36.938   8.250
 5508POPC   C3A16889   6.595  36.944   7.950
 5508POPC   C4A16890   6.691  36.917   7.650
 5508POPC   C1B16891   6.533  37.135   8.550
 5508POPC   C2B16892   6.557  37.105   8.250
 5508POPC   C3B16893   6.552  37.091   7.950
 5508POPC   C4B16894   6.488  37.106   7.650
 5509POPC   NC316895  44.676  39.224   9.450
 5509POPC   PO416896  44.659  39.199   9.150
 5509POPC   GL116897  44.646  39.275   8.850
 5509POPC   GL216898  44.577  39.139   8.850
 5509POPC   C1A16899  44.619  39.272   8.550
 5509POPC   D2A16900  44.709  39.271   8.250
 5509POPC   C3A16901  44.628  39.223   7.950
 5509POPC   C4A16902  44.675  39.193   7.650
 5509POPC   C1B16903  44.502  39.058   8.550
 5509POPC   C2B16904  44.506  39.003   8.250
 5509POPC   C3B16905  44.511  39.012   7.950
 5509POPC   C4B16906  44.533  38.988   7.650
 5510POPC   NC316907  37.671  29.159   9.450
 5510POPC   PO416908  37.688  29.116   9.150
 5510POPC   GL116909  37.670  29.194   8.850
 5510POPC   GL216910  37.637  29.041   8.850
 5510POPC   C1A16911  37.710  29.108   8.550
 5510POPC   D2A16912  37.636  29.104   8.250
 5510POPC   C3A16913  37.712  29.121   7.950
 5510POPC   C4A16914  37.662  29.111   7.650
 5510POPC   C1B16915  37.670  28.846   8.550
 5510POPC   C2B16916  37.725  28.935   8.250
 5510POPC   C3B16917  37.660  28.862   7.950
 5510POPC   C4B16918  37.736  28.929   7.650
 5511POPC   NC316919  10.544  29.143   9.450
 5511POPC   PO416920  10.567  29.104   9.150
 5511POPC   GL116921  10.538  29.191   8.850
 5511POPC   GL216922  10.454  29.040   8.850
 5511POPC   C1A16923  10.480  29.165   8.550
 5511POPC   D2A16924  10.550  29.164   8.250
 5511POPC   C3A16925  10.532  29.114   7.950
 5511POPC   C4A16926  10.482  29.151   7.650
 5511POPC   C1B16927  10.395  28.908   8.550
 5511POPC   C2B16928  10.425  28.876   8.250
 5511POPC   C3B16929  10.399  28.913   7.950
 5511POPC   C4B16930  10.445  28.931   7.650
 5512POPC   NC316931  15.942  31.515   9.450
 5512POPC   PO416932  15.986  31.509   9.150
 5512POPC   GL116933  16.003  31.519   8.850
 5512POPC   GL216934  15.877  31.399   8.850
 5512POPC   C1A16935  15.973  31.448   8.550
 5512POPC   D2A16936  15.976  31.464   8.250
 5512POPC   C3A16937  15.991  31.452   7.950
 5512POPC   C4A16938  16.000  31.512   7.650
 5512POPC   C1B16939  15.859  31.277   8.550
 5512POPC   C2B16940  15.882  31.247   8.250
 5512POPC   C3B16941  15.906  31.212   7.950
 5512POPC   C4B16942  15.854  31.228   7.650
 5513POPC   NC316943  10.480   6.637   9.450
 5513POPC   PO416944  10.490   6.604   9.150
 5513POPC   GL116945  10.545   6.597   8.850
 5513POPC   GL216946  10.554   6.775   8.850
 5513POPC   C1A16947  10.567   6.621   8.550
 5513POPC   D2A16948  10.526   6.644   8.250
 5513POPC   C3A16949  10.535   6.664   7.950
 5513POPC   C4A16950  10.494   6.643   7.650
 5513POPC   C1B16951  10.471   6.885   8.550
 5513POPC   C2B16952  10.471   6.876   8.250
 5513POPC   C3B16953  10.478   6.880   7.950
 5513POPC   C4B16954  10.544   6.850   7.650
 5514POPC   NC316955  29.875  41.534   9.450
 5514POPC   PO416956  29.923  41.559   9.150
 5514POPC   GL116957  29.926  41.584   8.850
 5514POPC   GL216958  29.850  41.676   8.850
 5514POPC   C1A16959  29.881  41.603   8.550
 5514POPC   D2A16960  29.894  41.533   8.250
 5514POPC   C3A16961  29.906  41.516   7.950
 5514POPC   C4A16962  29.871  41.557   7.650
 5514POPC   C1B16963  29.751  41.774   8.550
 5514POPC   C2B16964  29.692  41.680   8.250
 5514POPC   C3B16965  29.748  41.684   7.950
 5514POPC   C4B16966  29.775  41.768   7.650
 5515POPC   NC316967  28.391  21.359   9.450
 5515POPC   PO416968  28.415  21.436   9.150
 5515POPC   GL116969  28.342  21.370   8.850
 5515POPC   GL216970  28.399  21.486   8.850
 5515POPC   C1A16971  28.350  21.399   8.550
 5515POPC   D2A16972  28.373  21.426   8.250
 5515POPC   C3A16973  28.385  21.341   7.950
 5515POPC   C4A16974  28.343  21.426   7.650
 5515POPC   C1B16975  28.523  21.626   8.550
 5515POPC   C2B16976  28.459  21.616   8.250
 5515POPC   C3B16977  28.471  21.630   7.950
 5515POPC   C4B16978  28.516  21.556   7.650
 5516POPC   NC316979   6.644  22.133   9.450
 5516POPC   PO416980   6.650  22.172   9.150
 5516POPC   GL116981   6.677  22.126   8.850
 5516POPC   GL216982   6.756  22.179   8.850
 5516POPC   C1A16983   6.624  22.168   8.550
 5516POPC   D2A16984   6.629  22.200   8.250
 5516POPC   C3A16985   6.606  22.211   7.950
 5516POPC   C4A16986   6.661  22.150   7.650
 5516POPC   C1B16987   6.895  22.285   8.550
 5516POPC   C2B16988   6.918  22.226   8.250
 5516POPC   C3B16989   6.884  22.193   7.950
 5516POPC   C4B16990   6.877  22.200   7.650
 5517POPC   NC316991  33.782   8.186   9.450
 5517POPC   PO416992  33.765   8.191   9.150
 5517POPC   GL116993  33.810   8.165   8.850
 5517POPC   GL216994  33.748   8.115   8.850
 5517POPC   C1A16995  33.850   8.157   8.550
 5517POPC   D2A16996  33.820   8.166   8.250
 5517POPC   C3A16997  33.839   8.163   7.950
 5517POPC   C4A16998  33.796   8.210   7.650
 5517POPC   C1B16999  33.648   7.967   8.550
 5517POPC   C2B17000  33.720   8.003   8.250
 5517POPC   C3B17001  33.656   7.958   7.950
 5517POPC   C4B17002  33.655   7.995   7.650
 5518POPC   NC317003  31.473  29.179   9.450
 5518POPC   PO417004  31.494  29.118   9.150
 5518POPC   GL117005  31.491  29.179   8.850
 5518POPC   GL217006  31.604  29.157   8.850
 5518POPC   C1A17007  31.458  29.122   8.550
 5518POPC   D2A17008  31.425  29.165   8.250
 5518POPC   C3A17009  31.489  29.174   7.950
 5518POPC   C4A17010  31.483  29.193   7.650
 5518POPC   C1B17011  31.676  29.200   8.550
 5518POPC   C2B17012  31.735  29.200   8.250
 5518POPC   C3B17013  31.751  29.157   7.950
 5518POPC   C4B17014  31.722  29.164   7.650
 5519POPC   NC317015  18.271   5.911   9.450
 5519POPC   PO417016  18.247   5.885   9.150
 5519POPC   GL117017  18.280   5.845   8.850
 5519POPC   GL217018  18.160   5.881   8.850
 5519POPC   C1A17019  18.309   5.845   8.550
 5519POPC   D2A17020  18.247   5.822   8.250
 5519POPC   C3A17021  18.268   5.873   7.950
 5519POPC   C4A17022  18.247   5.865   7.650
 5519POPC   C1B17023  18.065   5.761   8.550
 5519POPC   C2B17024  18.076   5.829   8.250
 5519POPC   C3B17025  18.062   5.823   7.950
 5519POPC   C4B17026  18.060   5.829   7.650
 5520POPC   NC317027   8.237  11.250   9.450
 5520POPC   PO417028   8.243  11.297   9.150
 5520POPC   GL117029   8.243  11.302   8.850
 5520POPC   GL217030   8.091  11.316   8.850
 5520POPC   C1A17031   8.210  11.260   8.550
 5520POPC   D2A17032   8.167  11.348   8.250
 5520POPC   C3A17033   8.193  11.251   7.950
 5520POPC   C4A17034   8.181  11.287   7.650
 5520POPC   C1B17035   7.987  11.369   8.550
 5520POPC   C2B17036   8.015  11.439   8.250
 5520POPC   C3B17037   7.991  11.423   7.950
 5520POPC   C4B17038   7.942  11.355   7.650
 5521POPC   NC317039   2.025  41.557   9.450
 5521POPC   PO417040   2.011  41.602   9.150
 5521POPC   GL117041   1.955  41.601   8.850
 5521POPC   GL217042   2.084  41.676   8.850
 5521POPC   C1A17043   1.947  41.608   8.550
 5521POPC   D2A17044   2.017  41.531   8.250
 5521POPC   C3A17045   1.955  41.514   7.950
 5521POPC   C4A17046   2.027  41.533   7.650
 5521POPC   C1B17047   2.197  41.750   8.550
 5521POPC   C2B17048   2.156  41.715   8.250
 5521POPC   C3B17049   2.200  41.698   7.950
 5521POPC   C4B17050   2.125  41.759   7.650
 5522POPC   NC317051  25.314  26.829   9.450
 5522POPC   PO417052  25.304  26.861   9.150
 5522POPC   GL117053  25.230  26.787   8.850
 5522POPC   GL217054  25.135  26.769   8.850
 5522POPC   C1A17055  25.218  26.811   8.550
 5522POPC   D2A17056  25.269  26.775   8.250
 5522POPC   C3A17057  25.290  26.803   7.950
 5522POPC   C4A17058  25.231  26.841   7.650
 5522POPC   C1B17059  25.058  26.686   8.550
 5522POPC   C2B17060  25.062  26.729   8.250
 5522POPC   C3B17061  25.034  26.688   7.950
 5522POPC   C4B17062  25.083  26.737   7.650
 5523POPC   NC317063  35.324  19.067   9.450
 5523POPC   PO417064  35.358  19.060   9.150
 5523POPC   GL117065  35.396  19.096   8.850
 5523POPC   GL217066  35.385  18.974   8.850
 5523POPC   C1A17067  35.339  19.027   8.550
 5523POPC   D2A17068  35.366  19.019   8.250
 5523POPC   C3A17069  35.348  19.077   7.950
 5523POPC   C4A17070  35.320  19.087   7.650
 5523POPC   C1B17071  35.514  18.805   8.550
 5523POPC   C2B17072  35.496  18.820   8.250
 5523POPC   C3B17073  35.489  18.889   7.950
 5523POPC   C4B17074  35.531  18.877   7.650
 5524POPC   NC317075  38.471  29.886   9.450
 5524POPC   PO417076  38.468  29.920   9.150
 5524POPC   GL117077  38.449  29.966   8.850
 5524POPC   GL217078  38.318  29.886   8.850
 5524POPC   C1A17079  38.451  29.884   8.550
 5524POPC   D2A17080  38.455  29.897   8.250
 5524POPC   C3A17081  38.465  29.888   7.950
 5524POPC   C4A17082  38.441  29.955   7.650
 5524POPC   C1B17083  38.205  29.790   8.550
 5524POPC   C2B17084  38.224  29.758   8.250
 5524POPC   C3B17085  38.240  29.731   7.950
 5524POPC   C4B17086  38.224  29.758   7.650
 5525POPC   NC317087  15.156   2.774   9.450
 5525POPC   PO417088  15.130   2.744   9.150
 5525POPC   GL117089  15.213   2.811   8.850
 5525POPC   GL217090  15.216   2.657   8.850
 5525POPC   C1A17091  15.155   2.813   8.550
 5525POPC   D2A17092  15.158   2.786   8.250
 5525POPC   C3A17093  15.189   2.758   7.950
 5525POPC   C4A17094  15.220   2.793   7.650
 5525POPC   C1B17095  15.241   2.539   8.550
 5525POPC   C2B17096  15.294   2.532   8.250
 5525POPC   C3B17097  15.271   2.499   7.950
 5525POPC   C4B17098  15.228   2.548   7.650
 5526POPC   NC317099   8.974  28.357   9.450
 5526POPC   PO417100   8.929  28.335   9.150
 5526POPC   GL117101   9.005  28.413   8.850
 5526POPC   GL217102   8.835  28.320   8.850
 5526POPC   C1A17103   8.972  28.339   8.550
 5526POPC   D2A17104   8.945  28.375   8.250
 5526POPC   C3A17105   8.954  28.368   7.950
 5526POPC   C4A17106   8.979  28.378   7.650
 5526POPC   C1B17107   8.795  28.239   8.550
 5526POPC   C2B17108   8.841  28.151   8.250
 5526POPC   C3B17109   8.807  28.165   7.950
 5526POPC   C4B17110   8.765  28.184   7.650
 5527POPC   NC317111   9.007  37.683   9.450
 5527POPC   PO417112   8.950  37.680   9.150
 5527POPC   GL117113   8.967  37.667   8.850
 5527POPC   GL217114   8.971  37.832   8.850
 5527POPC   C1A17115   9.012  37.674   8.550
 5527POPC   D2A17116   8.942  37.631   8.250
 5527POPC   C3A17117   8.975  37.716   7.950
 5527POPC   C4A17118   8.951  37.714   7.650
 5527POPC   C1B17119   9.036  37.938   8.550
 5527POPC   C2B17120   9.037  37.950   8.250
 5527POPC   C3B17121   9.089  37.870   7.950
 5527POPC   C4B17122   9.020  37.920   7.650
 5528POPC   NC317123   7.461  22.201   9.450
 5528POPC   PO417124   7.461  22.200   9.150
 5528POPC   GL117125   7.453  22.189   8.850
 5528POPC   GL217126   7.409  22.086   8.850
 5528POPC   C1A17127   7.446  22.179   8.550
 5528POPC   D2A17128   7.374  22.133   8.250
 5528POPC   C3A17129   7.432  22.168   7.950
 5528POPC   C4A17130   7.439  22.204   7.650
 5528POPC   C1B17131   7.327  21.888   8.550
 5528POPC   C2B17132   7.301  21.902   8.250
 5528POPC   C3B17133   7.345  21.893   7.950
 5528POPC   C4B17134   7.311  21.951   7.650
 5529POPC   NC317135  33.779  31.480   9.450
 5529POPC   PO417136  33.766  31.467   9.150
 5529POPC   GL117137  33.786  31.471   8.850
 5529POPC   GL217138  33.649  31.439   8.850
 5529POPC   C1A17139  33.770  31.468   8.550
 5529POPC   D2A17140  33.823  31.458   8.250
 5529POPC   C3A17141  33.815  31.480   7.950
 5529POPC   C4A17142  33.830  31.429   7.650
 5529POPC   C1B17143  33.587  31.429   8.550
 5529POPC   C2B17144  33.544  31.459   8.250
 5529POPC   C3B17145  33.597  31.401   7.950
 5529POPC   C4B17146  33.532  31.455   7.650
 5530POPC   NC317147  11.300   6.650   9.450
 5530POPC   PO417148  11.331   6.648   9.150
 5530POPC   GL117149  11.285   6.668   8.850
 5530POPC   GL217150  11.171   6.643   8.850
 5530POPC   C1A17151  11.313   6.637   8.550
 5530POPC   D2A17152  11.257   6.606   8.250
 5530POPC   C3A17153  11.253   6.633   7.950
 5530POPC   C4A17154  11.322   6.633   7.650
 5530POPC   C1B17155  11.014   6.626   8.550
 5530POPC   C2B17156  11.078   6.664   8.250
 5530POPC   C3B17157  11.015   6.668   7.950
 5530POPC   C4B17158  11.014   6.611   7.650
 5531POPC   NC317159  23.705  18.242   9.450
 5531POPC   PO417160  23.666  18.268   9.150
 5531POPC   GL117161  23.726  18.254   8.850
 5531POPC   GL217162  23.833  18.310   8.850
 5531POPC   C1A17163  23.738  18.265   8.550
 5531POPC   D2A17164  23.688  18.286   8.250
 5531POPC   C3A17165  23.704  18.286   7.950
 5531POPC   C4A17166  23.694  18.244   7.650
 5531POPC   C1B17167  23.958  18.244   8.550
 5531POPC   C2B17168  23.926  18.222   8.250
 5531POPC   C3B17169  23.982  18.256   7.950
 5531POPC   C4B17170  23.957  18.220   7.650
 5532POPC   NC317171  21.380   8.934   9.450
 5532POPC   PO417172  21.431   8.960   9.150
 5532POPC   GL117173  21.389   8.927   8.850
 5532POPC   GL217174  21.311   8.998   8.850
 5532POPC   C1A17175  21.375   8.983   8.550
 5532POPC   D2A17176  21.418   8.952   8.250
 5532POPC   C3A17177  21.413   9.006   7.950
 5532POPC   C4A17178  21.412   8.964   7.650
 5532POPC   C1B17179  21.180   8.943   8.550
 5532POPC   C2B17180  21.166   8.923   8.250
 5532POPC   C3B17181  21.173   8.883   7.950
 5532POPC   C4B17182  21.110   8.919   7.650
 5533POPC   NC317183  40.771  40.740   9.450
 5533POPC   PO417184  40.755  40.809   9.150
 5533POPC   GL117185  40.774  40.790   8.850
 5533POPC   GL217186  40.787  40.858   8.850
 5533POPC   C1A17187  40.766  40.746   8.550
 5533POPC   D2A17188  40.814  40.738   8.250
 5533POPC   C3A17189  40.749  40.749   7.950
 5533POPC   C4A17190  40.762  40.752   7.650
 5533POPC   C1B17191  40.788  40.988   8.550
 5533POPC   C2B17192  40.785  41.039   8.250
 5533POPC   C3B17193  40.760  41.082   7.950
 5533POPC   C4B17194  40.741  41.080   7.650
 5534POPC   NC317195  35.347  13.670   9.450
 5534POPC   PO417196  35.352  13.598   9.150
 5534POPC   GL117197  35.393  13.588   8.850
 5534POPC   GL217198  35.400  13.528   8.850
 5534POPC   C1A17199  35.369  13.659   8.550
 5534POPC   D2A17200  35.361  13.621   8.250
 5534POPC   C3A17201  35.366  13.651   7.950
 5534POPC   C4A17202  35.337  13.589   7.650
 5534POPC   C1B17203  35.468  13.437   8.550
 5534POPC   C2B17204  35.500  13.381   8.250
 5534POPC   C3B17205  35.441  13.421   7.950
 5534POPC   C4B17206  35.437  13.456   7.650
 5535POPC   NC317207  39.276   5.821   9.450
 5535POPC   PO417208  39.211   5.870   9.150
 5535POPC   GL117209  39.210   5.841   8.850
 5535POPC   GL217210  39.279   5.779   8.850
 5535POPC   C1A17211  39.278   5.895   8.550
 5535POPC   D2A17212  39.268   5.918   8.250
 5535POPC   C3A17213  39.267   5.866   7.950
 5535POPC   C4A17214  39.257   5.906   7.650
 5535POPC   C1B17215  39.321   5.589   8.550
 5535POPC   C2B17216  39.315   5.643   8.250
 5535POPC   C3B17217  39.295   5.648   7.950
 5535POPC   C4B17218  39.290   5.654   7.650
 5536POPC   NC317219  21.389  30.706   9.450
 5536POPC   PO417220  21.375  30.726   9.150
 5536POPC   GL117221  21.361  30.724   8.850
 5536POPC   GL217222  21.429  30.600   8.850
 5536POPC   C1A17223  21.394  30.656   8.550
 5536POPC   D2A17224  21.380  30.674   8.250
 5536POPC   C3A17225  21.427  30.689   7.950
 5536POPC   C4A17226  21.433  30.667   7.650
 5536POPC   C1B17227  21.442  30.491   8.550
 5536POPC   C2B17228  21.371  30.447   8.250
 5536POPC   C3B17229  21.409  30.456   7.950
 5536POPC   C4B17230  21.372  30.495   7.650
 5537POPC   NC317231  34.566  41.519   9.450
 5537POPC   PO417232  34.530  41.511   9.150
 5537POPC   GL117233  34.623  41.540   8.850
 5537POPC   GL217234  34.658  41.719   8.850
 5537POPC   C1A17235  34.542  41.519   8.550
 5537POPC   D2A17236  34.547  41.511   8.250
 5537POPC   C3A17237  34.608  41.571   7.950
 5537POPC   C4A17238  34.577  41.570   7.650
 5537POPC   C1B17239  34.694  41.802   8.550
 5537POPC   C2B17240  34.633  41.819   8.250
 5537POPC   C3B17241  34.604  41.807   7.950
 5537POPC   C4B17242  34.695  41.812   7.650
 5538POPC   NC317243  31.495  21.396   9.450
 5538POPC   PO417244  31.513  21.379   9.150
 5538POPC   GL117245  31.446  21.428   8.850
 5538POPC   GL217246  31.395  21.412   8.850
 5538POPC   C1A17247  31.483  21.385   8.550
 5538POPC   D2A17248  31.431  21.434   8.250
 5538POPC   C3A17249  31.488  21.386   7.950
 5538POPC   C4A17250  31.443  21.371   7.650
 5538POPC   C1B17251  31.269  21.437   8.550
 5538POPC   C2B17252  31.192  21.463   8.250
 5538POPC   C3B17253  31.199  21.406   7.950
 5538POPC   C4B17254  31.245  21.419   7.650
 5539POPC   NC317255  28.359  43.854   9.450
 5539POPC   PO417256  28.377  43.872   9.150
 5539POPC   GL117257  28.341  43.911   8.850
 5539POPC   GL217258  28.372  43.789   8.850
 5539POPC   C1A17259  28.346  43.889   8.550
 5539POPC   D2A17260  28.395  43.893   8.250
 5539POPC   C3A17261  28.359  43.903   7.950
 5539POPC   C4A17262  28.402  43.932   7.650
 5539POPC   C1B17263  28.395  43.667   8.550
 5539POPC   C2B17264  28.423  43.604   8.250
 5539POPC   C3B17265  28.414  43.671   7.950
 5539POPC   C4B17266  28.401  43.668   7.650
 5540POPC   NC317267  24.488  34.619   9.450
 5540POPC   PO417268  24.506  34.580   9.150
 5540POPC   GL117269  24.527  34.562   8.850
 5540POPC   GL217270  24.571  34.647   8.850
 5540POPC   C1A17271  24.459  34.553   8.550
 5540POPC   D2A17272  24.503  34.531   8.250
 5540POPC   C3A17273  24.510  34.570   7.950
 5540POPC   C4A17274  24.504  34.558   7.650
 5540POPC   C1B17275  24.638  34.740   8.550
 5540POPC   C2B17276  24.709  34.725   8.250
 5540POPC   C3B17277  24.676  34.750   7.950
 5540POPC   C4B17278  24.681  34.708   7.650
 5541POPC   NC317279  22.173   4.307   9.450
 5541POPC   PO417280  22.191   4.338   9.150
 5541POPC   GL117281  22.172   4.268   8.850
 5541POPC   GL217282  22.231   4.440   8.850
 5541POPC   C1A17283  22.167   4.304   8.550
 5541POPC   D2A17284  22.143   4.344   8.250
 5541POPC   C3A17285  22.131   4.352   7.950
 5541POPC   C4A17286  22.199   4.296   7.650
 5541POPC   C1B17287  22.378   4.456   8.550
 5541POPC   C2B17288  22.385   4.507   8.250
 5541POPC   C3B17289  22.375   4.451   7.950
 5541POPC   C4B17290  22.326   4.464   7.650
 5542POPC   NC317291  43.897   2.029   9.450
 5542POPC   PO417292  43.930   1.949   9.150
 5542POPC   GL117293  43.889   2.019   8.850
 5542POPC   GL217294  43.976   2.092   8.850
 5542POPC   C1A17295  43.876   2.008   8.550
 5542POPC   D2A17296  43.931   1.985   8.250
 5542POPC   C3A17297  43.880   1.967   7.950
 5542POPC   C4A17298  43.890   1.999   7.650
 5542POPC   C1B17299  44.041   2.224   8.550
 5542POPC   C2B17300  44.060   2.194   8.250
 5542POPC   C3B17301  44.056   2.180   7.950
 5542POPC   C4B17302  44.061   2.214   7.650
 5543POPC   NC317303   3.531  14.426   9.450
 5543POPC   PO417304   3.515  14.435   9.150
 5543POPC   GL117305   3.555  14.392   8.850
 5543POPC   GL217306   3.431  14.441   8.850
 5543POPC   C1A17307   3.533  14.395   8.550
 5543POPC   D2A17308   3.548  14.431   8.250
 5543POPC   C3A17309   3.505  14.437   7.950
 5543POPC   C4A17310   3.502  14.370   7.650
 5543POPC   C1B17311   3.387  14.571   8.550
 5543POPC   C2B17312   3.380  14.611   8.250
 5543POPC   C3B17313   3.382  14.550   7.950
 5543POPC   C4B17314   3.347  14.556   7.650
 5544POPC   NC317315   8.157  20.570   9.450
 5544POPC   PO417316   8.218  20.583   9.150
 5544POPC   GL117317   8.178  20.651   8.850
 5544POPC   GL217318   8.287  20.489   8.850
 5544POPC   C1A17319   8.182  20.608   8.550
 5544POPC   D2A17320   8.243  20.659   8.250
 5544POPC   C3A17321   8.177  20.604   7.950
 5544POPC   C4A17322   8.211  20.571   7.650
 5544POPC   C1B17323   8.344  20.419   8.550
 5544POPC   C2B17324   8.321  20.387   8.250
 5544POPC   C3B17325   8.363  20.366   7.950
 5544POPC   C4B17326   8.286  20.444   7.650
 5545POPC   NC317327  19.058  32.986   9.450
 5545POPC   PO417328  19.023  32.979   9.150
 5545POPC   GL117329  19.054  32.980   8.850
 5545POPC   GL217330  18.972  33.060   8.850
 5545POPC   C1A17331  19.107  33.020   8.550
 5545POPC   D2A17332  19.052  33.018   8.250
 5545POPC   C3A17333  19.053  32.991   7.950
 5545POPC   C4A17334  19.031  33.001   7.650
 5545POPC   C1B17335  18.809  33.176   8.550
 5545POPC   C2B17336  18.873  33.149   8.250
 5545POPC   C3B17337  18.848  33.130   7.950
 5545POPC   C4B17338  18.876  33.155   7.650
 5546POPC   NC317339  22.946  15.152   9.450
 5546POPC   PO417340  22.960  15.139   9.150
 5546POPC   GL117341  22.987  15.178   8.850
 5546POPC   GL217342  23.108  15.229   8.850
 5546POPC   C1A17343  22.983  15.144   8.550
 5546POPC   D2A17344  22.978  15.145   8.250
 5546POPC   C3A17345  22.970  15.150   7.950
 5546POPC   C4A17346  22.964  15.216   7.650
 5546POPC   C1B17347  23.216  15.237   8.550
 5546POPC   C2B17348  23.179  15.197   8.250
 5546POPC   C3B17349  23.185  15.187   7.950
 5546POPC   C4B17350  23.211  15.178   7.650
 5547POPC   NC317351  19.788  22.929   9.450
 5547POPC   PO417352  19.832  22.934   9.150
 5547POPC   GL117353  19.858  22.926   8.850
 5547POPC   GL217354  19.755  22.934   8.850
 5547POPC   C1A17355  19.851  22.938   8.550
 5547POPC   D2A17356  19.877  22.927   8.250
 5547POPC   C3A17357  19.791  22.920   7.950
 5547POPC   C4A17358  19.826  22.916   7.650
 5547POPC   C1B17359  19.646  22.793   8.550
 5547POPC   C2B17360  19.634  22.794   8.250
 5547POPC   C3B17361  19.634  22.808   7.950
 5547POPC   C4B17362  19.597  22.793   7.650
 5548POPC   NC317363  39.250  12.042   9.450
 5548POPC   PO417364  39.214  12.118   9.150
 5548POPC   GL117365  39.254  12.033   8.850
 5548POPC   GL217366  39.315  11.956   8.850
 5548POPC   C1A17367  39.275  12.098   8.550
 5548POPC   D2A17368  39.233  12.049   8.250
 5548POPC   C3A17369  39.256  12.042   7.950
 5548POPC   C4A17370  39.267  12.036   7.650
 5548POPC   C1B17371  39.429  11.956   8.550
 5548POPC   C2B17372  39.442  11.912   8.250
 5548POPC   C3B17373  39.432  11.877   7.950
 5548POPC   C4B17374  39.395  11.866   7.650
 5549POPC   NC317375  41.562   2.732   9.450
 5549POPC   PO417376  41.526   2.734   9.150
 5549POPC   GL117377  41.573   2.764   8.850
 5549POPC   GL217378  41.692   2.781   8.850
 5549POPC   C1A17379  41.603   2.753   8.550
 5549POPC   D2A17380  41.583   2.719   8.250
 5549POPC   C3A17381  41.585   2.745   7.950
 5549POPC   C4A17382  41.560   2.716   7.650
 5549POPC   C1B17383  41.752   2.920   8.550
 5549POPC   C2B17384  41.816   2.845   8.250
 5549POPC   C3B17385  41.788   2.831   7.950
 5549POPC   C4B17386  41.828   2.874   7.650
 5550POPC   NC317387   5.852  36.131   9.450
 5550POPC   PO417388   5.893  36.084   9.150
 5550POPC   GL117389   5.844  36.105   8.850
 5550POPC   GL217390   5.807  35.986   8.850
 5550POPC   C1A17391   5.834  36.150   8.550
 5550POPC   D2A17392   5.857  36.142   8.250
 5550POPC   C3A17393   5.885  36.154   7.950
 5550POPC   C4A17394   5.867  36.093   7.650
 5550POPC   C1B17395   5.670  35.891   8.550
 5550POPC   C2B17396   5.667  35.908   8.250
 5550POPC   C3B17397   5.662  35.888   7.950
 5550POPC   C4B17398   5.696  35.963   7.650
 5551POPC   NC317399  42.371   2.743   9.450
 5551POPC   PO417400  42.384   2.791   9.150
 5551POPC   GL117401  42.330   2.766   8.850
 5551POPC   GL217402  42.474   2.790   8.850
 5551POPC   C1A17403  42.370   2.768   8.550
 5551POPC   D2A17404  42.297   2.756   8.250
 5551POPC   C3A17405  42.332   2.719   7.950
 5551POPC   C4A17406  42.373   2.770   7.650
 5551POPC   C1B17407  42.603   2.774   8.550
 5551POPC   C2B17408  42.535   2.825   8.250
 5551POPC   C3B17409  42.557   2.758   7.950
 5551POPC   C4B17410  42.544   2.817   7.650
 5552POPC   NC317411  42.328  35.331   9.450
 5552POPC   PO417412  42.345  35.360   9.150
 5552POPC   GL117413  42.371  35.305   8.850
 5552POPC   GL217414  42.454  35.242   8.850
 5552POPC   C1A17415  42.343  35.311   8.550
 5552POPC   D2A17416  42.376  35.386   8.250
 5552POPC   C3A17417  42.303  35.400   7.950
 5552POPC   C4A17418  42.333  35.376   7.650
 5552POPC   C1B17419  42.534  35.171   8.550
 5552POPC   C2B17420  42.560  35.201   8.250
 5552POPC   C3B17421  42.470  35.226   7.950
 5552POPC   C4B17422  42.476  35.227   7.650
 5553POPC   NC317423  13.637  21.370   9.450
 5553POPC   PO417424  13.579  21.359   9.150
 5553POPC   GL117425  13.621  21.418   8.850
 5553POPC   GL217426  13.503  21.323   8.850
 5553POPC   C1A17427  13.668  21.347   8.550
 5553POPC   D2A17428  13.664  21.423   8.250
 5553POPC   C3A17429  13.615  21.377   7.950
 5553POPC   C4A17430  13.654  21.363   7.650
 5553POPC   C1B17431  13.410  21.291   8.550
 5553POPC   C2B17432  13.386  21.267   8.250
 5553POPC   C3B17433  13.393  21.257   7.950
 5553POPC   C4B17434  13.399  21.243   7.650
 5554POPC   NC317435  36.886  15.982   9.450
 5554POPC   PO417436  36.870  15.949   9.150
 5554POPC   GL117437  36.889  15.912   8.850
 5554POPC   GL217438  36.773  15.870   8.850
 5554POPC   C1A17439  36.884  15.972   8.550
 5554POPC   D2A17440  36.910  15.939   8.250
 5554POPC   C3A17441  36.890  15.971   7.950
 5554POPC   C4A17442  36.896  15.932   7.650
 5554POPC   C1B17443  36.670  15.779   8.550
 5554POPC   C2B17444  36.697  15.828   8.250
 5554POPC   C3B17445  36.672  15.831   7.950
 5554POPC   C4B17446  36.691  15.845   7.650
 5555POPC   NC317447   3.566  15.993   9.450
 5555POPC   PO417448   3.516  15.953   9.150
 5555POPC   GL117449   3.518  15.975   8.850
 5555POPC   GL217450   3.593  15.827   8.850
 5555POPC   C1A17451   3.582  15.913   8.550
 5555POPC   D2A17452   3.546  15.991   8.250
 5555POPC   C3A17453   3.588  15.963   7.950
 5555POPC   C4A17454   3.542  15.987   7.650
 5555POPC   C1B17455   3.587  15.712   8.550
 5555POPC   C2B17456   3.616  15.691   8.250
 5555POPC   C3B17457   3.594  15.758   7.950
 5555POPC   C4B17458   3.615  15.696   7.650
 5556POPC   NC317459   7.397  10.519   9.450
 5556POPC   PO417460   7.416  10.492   9.150
 5556POPC   GL117461   7.439  10.481   8.850
 5556POPC   GL217462   7.520  10.507   8.850
 5556POPC   C1A17463   7.451  10.552   8.550
 5556POPC   D2A17464   7.426  10.506   8.250
 5556POPC   C3A17465   7.376  10.573   7.950
 5556POPC   C4A17466   7.445  10.505   7.650
 5556POPC   C1B17467   7.668  10.355   8.550
 5556POPC   C2B17468   7.686  10.441   8.250
 5556POPC   C3B17469   7.636  10.444   7.950
 5556POPC   C4B17470   7.590  10.393   7.650
 5557POPC   NC317471  32.229  30.705   9.450
 5557POPC   PO417472  32.270  30.681   9.150
 5557POPC   GL117473  32.212  30.680   8.850
 5557POPC   GL217474  32.329  30.625   8.850
 5557POPC   C1A17475  32.215  30.680   8.550
 5557POPC   D2A17476  32.280  30.720   8.250
 5557POPC   C3A17477  32.203  30.676   7.950
 5557POPC   C4A17478  32.264  30.707   7.650
 5557POPC   C1B17479  32.454  30.636   8.550
 5557POPC   C2B17480  32.497  30.654   8.250
 5557POPC   C3B17481  32.507  30.666   7.950
 5557POPC   C4B17482  32.468  30.648   7.650
 5558POPC   NC317483  43.132   5.063   9.450
 5558POPC   PO417484  43.155   5.113   9.150
 5558POPC   GL117485  43.112   5.068   8.850
 5558POPC   GL217486  43.012   5.139   8.850
 5558POPC   C1A17487  43.093   5.080   8.550
 5558POPC   D2A17488  43.130   5.055   8.250
 5558POPC   C3A17489  43.091   5.054   7.950
 5558POPC   C4A17490  43.141   5.054   7.650
 5558POPC   C1B17491  42.890   5.204   8.550
 5558POPC   C2B17492  42.854   5.150   8.250
 5558POPC   C3B17493  42.864   5.153   7.950
 5558POPC   C4B17494  42.873   5.199   7.650
 5559POPC   NC317495  29.942  26.012   9.450
 5559POPC   PO417496  29.890  26.055   9.150
 5559POPC   GL117497  29.951  26.078   8.850
 5559POPC   GL217498  29.885  26.114   8.850
 5559POPC   C1A17499  29.938  25.994   8.550
 5559POPC   D2A17500  29.915  26.075   8.250
 5559POPC   C3A17501  29.943  26.060   7.950
 5559POPC   C4A17502  29.941  26.051   7.650
 5559POPC   C1B17503  29.834  26.313   8.550
 5559POPC   C2B17504  29.795  26.272   8.250
 5559POPC   C3B17505  29.777  26.233   7.950
 5559POPC   C4B17506  29.779  26.264   7.650
 5560POPC   NC317507  25.996  22.981   9.450
 5560POPC   PO417508  26.081  22.987   9.150
 5560POPC   GL117509  26.070  22.939   8.850
 5560POPC   GL217510  25.993  22.814   8.850
 5560POPC   C1A17511  26.027  22.920   8.550
 5560POPC   D2A17512  25.995  22.939   8.250
 5560POPC   C3A17513  26.056  22.976   7.950
 5560POPC   C4A17514  26.091  22.934   7.650
 5560POPC   C1B17515  26.085  22.703   8.550
 5560POPC   C2B17516  26.001  22.727   8.250
 5560POPC   C3B17517  26.055  22.644   7.950
 5560POPC   C4B17518  26.059  22.708   7.650
 5561POPC   NC317519  43.848  14.356   9.450
 5561POPC   PO417520  43.935  14.375   9.150
 5561POPC   GL117521  43.893  14.438   8.850
 5561POPC   GL217522  43.908  14.479   8.850
 5561POPC   C1A17523  43.899  14.448   8.550
 5561POPC   D2A17524  43.935  14.440   8.250
 5561POPC   C3A17525  43.934  14.437   7.950
 5561POPC   C4A17526  43.847  14.394   7.650
 5561POPC   C1B17527  44.013  14.632   8.550
 5561POPC   C2B17528  43.946  14.651   8.250
 5561POPC   C3B17529  43.991  14.677   7.950
 5561POPC   C4B17530  43.956  14.608   7.650
 5562POPC   NC317531   4.278  39.210   9.450
 5562POPC   PO417532   4.362  39.255   9.150
 5562POPC   GL117533   4.349  39.191   8.850
 5562POPC   GL217534   4.395  39.276   8.850
 5562POPC   C1A17535   4.290  39.255   8.550
 5562POPC   D2A17536   4.297  39.205   8.250
 5562POPC   C3A17537   4.304  39.234   7.950
 5562POPC   C4A17538   4.273  39.183   7.650
 5562POPC   C1B17539   4.510  39.437   8.550
 5562POPC   C2B17540   4.459  39.372   8.250
 5562POPC   C3B17541   4.460  39.410   7.950
 5562POPC   C4B17542   4.513  39.368   7.650
 5563POPC   NC317543  27.557  17.526   9.450
 5563POPC   PO417544  27.630  17.520   9.150
 5563POPC   GL117545  27.642  17.541   8.850
 5563POPC   GL217546  27.490  17.483   8.850
 5563POPC   C1A17547  27.546  17.493   8.550
 5563POPC   D2A17548  27.547  17.461   8.250
 5563POPC   C3A17549  27.601  17.478   7.950
 5563POPC   C4A17550  27.607  17.481   7.650
 5563POPC   C1B17551  27.409  17.412   8.550
 5563POPC   C2B17552  27.331  17.398   8.250
 5563POPC   C3B17553  27.359  17.454   7.950
 5563POPC   C4B17554  27.311  17.387   7.650
 5564POPC   NC317555  38.472  24.514   9.450
 5564POPC   PO417556  38.409  24.442   9.150
 5564POPC   GL117557  38.427  24.537   8.850
 5564POPC   GL217558  38.404  24.580   8.850
 5564POPC   C1A17559  38.500  24.450   8.550
 5564POPC   D2A17560  38.422  24.450   8.250
 5564POPC   C3A17561  38.442  24.442   7.950
 5564POPC   C4A17562  38.485  24.493   7.650
 5564POPC   C1B17563  38.289  24.663   8.550
 5564POPC   C2B17564  38.348  24.690   8.250
 5564POPC   C3B17565  38.272  24.730   7.950
 5564POPC   C4B17566  38.347  24.716   7.650
 5565POPC   NC317567  20.617  13.596   9.450
 5565POPC   PO417568  20.587  13.634   9.150
 5565POPC   GL117569  20.580  13.602   8.850
 5565POPC   GL217570  20.482  13.644   8.850
 5565POPC   C1A17571  20.596  13.668   8.550
 5565POPC   D2A17572  20.615  13.583   8.250
 5565POPC   C3A17573  20.583  13.642   7.950
 5565POPC   C4A17574  20.631  13.666   7.650
 5565POPC   C1B17575  20.341  13.610   8.550
 5565POPC   C2B17576  20.401  13.591   8.250
 5565POPC   C3B17577  20.401  13.635   7.950
 5565POPC   C4B17578  20.398  13.682   7.650
 5566POPC   NC317579  26.843  30.654   9.450
 5566POPC   PO417580  26.831  30.660   9.150
 5566POPC   GL117581  26.771  30.652   8.850
 5566POPC   GL217582  26.704  30.605   8.850
 5566POPC   C1A17583  26.828  30.734   8.550
 5566POPC   D2A17584  26.782  30.696   8.250
 5566POPC   C3A17585  26.795  30.745   7.950
 5566POPC   C4A17586  26.826  30.677   7.650
 5566POPC   C1B17587  26.678  30.536   8.550
 5566POPC   C2B17588  26.690  30.518   8.250
 5566POPC   C3B17589  26.660  30.482   7.950
 5566POPC   C4B17590  26.674  30.498   7.650
 5567POPC   NC317591  34.543  43.934   9.450
 5567POPC   PO417592  34.567  43.876   9.150
 5567POPC   GL117593  34.576  43.917   8.850
 5567POPC   GL217594  34.651  43.796   8.850
 5567POPC   C1A17595  34.541  43.929   8.550
 5567POPC   D2A17596  34.613  43.920   8.250
 5567POPC   C3A17597  34.569  43.846   7.950
 5567POPC   C4A17598  34.549  43.843   7.650
 5567POPC   C1B17599  34.671  43.672   8.550
 5567POPC   C2B17600  34.692  43.711   8.250
 5567POPC   C3B17601  34.708  43.671   7.950
 5567POPC   C4B17602  34.676  43.679   7.650
 5568POPC   NC317603  25.251  36.862   9.450
 5568POPC   PO417604  25.222  36.926   9.150
 5568POPC   GL117605  25.253  36.931   8.850
 5568POPC   GL217606  25.192  36.961   8.850
 5568POPC   C1A17607  25.244  36.910   8.550
 5568POPC   D2A17608  25.242  36.931   8.250
 5568POPC   C3A17609  25.219  36.902   7.950
 5568POPC   C4A17610  25.257  36.920   7.650
 5568POPC   C1B17611  25.033  36.956   8.550
 5568POPC   C2B17612  25.053  36.955   8.250
 5568POPC   C3B17613  25.036  37.005   7.950
 5568POPC   C4B17614  25.002  36.925   7.650
 5569POPC   NC317615  36.173   4.337   9.450
 5569POPC   PO417616  36.125   4.300   9.150
 5569POPC   GL117617  36.156   4.360   8.850
 5569POPC   GL217618  36.018   4.462   8.850
 5569POPC   C1A17619  36.108   4.299   8.550
 5569POPC   D2A17620  36.144   4.343   8.250
 5569POPC   C3A17621  36.090   4.316   7.950
 5569POPC   C4A17622  36.159   4.311   7.650
 5569POPC   C1B17623  36.051   4.522   8.550
 5569POPC   C2B17624  36.038   4.492   8.250
 5569POPC   C3B17625  35.976   4.516   7.950
 5569POPC   C4B17626  36.039   4.511   7.650
 5570POPC   NC317627  40.051  36.913   9.450
 5570POPC   PO417628  40.056  36.939   9.150
 5570POPC   GL117629  39.991  36.857   8.850
 5570POPC   GL217630  39.987  36.757   8.850
 5570POPC   C1A17631  40.000  36.865   8.550
 5570POPC   D2A17632  40.024  36.886   8.250
 5570POPC   C3A17633  40.035  36.920   7.950
 5570POPC   C4A17634  40.036  36.918   7.650
 5570POPC   C1B17635  40.048  36.662   8.550
 5570POPC   C2B17636  40.080  36.688   8.250
 5570POPC   C3B17637  40.057  36.682   7.950
 5570POPC   C4B17638  40.096  36.622   7.650
 5571POPC   NC317639   0.416  40.788   9.450
 5571POPC   PO417640   0.479  40.736   9.150
 5571POPC   GL117641   0.439  40.780   8.850
 5571POPC   GL217642   0.439  40.858   8.850
 5571POPC   C1A17643   0.431  40.762   8.550
 5571POPC   D2A17644   0.441  40.817   8.250
 5571POPC   C3A17645   0.429  40.756   7.950
 5571POPC   C4A17646   0.390  40.778   7.650
 5571POPC   C1B17647   0.401  41.023   8.550
 5571POPC   C2B17648   0.426  41.064   8.250
 5571POPC   C3B17649   0.433  40.993   7.950
 5571POPC   C4B17650   0.398  40.986   7.650
 5572POPC   NC317651  41.538  37.684   9.450
 5572POPC   PO417652  41.528  37.634   9.150
 5572POPC   GL117653  41.577  37.712   8.850
 5572POPC   GL217654  41.484  37.685   8.850
 5572POPC   C1A17655  41.561  37.658   8.550
 5572POPC   D2A17656  41.524  37.683   8.250
 5572POPC   C3A17657  41.574  37.703   7.950
 5572POPC   C4A17658  41.596  37.657   7.650
 5572POPC   C1B17659  41.275  37.760   8.550
 5572POPC   C2B17660  41.289  37.812   8.250
 5572POPC   C3B17661  41.285  37.772   7.950
 5572POPC   C4B17662  41.361  37.780   7.650
 5573POPC   NC317663  20.585  12.056   9.450
 5573POPC   PO417664  20.574  12.102   9.150
 5573POPC   GL117665  20.593  12.037   8.850
 5573POPC   GL217666  20.722  12.066   8.850
 5573POPC   C1A17667  20.582  12.108   8.550
 5573POPC   D2A17668  20.640  12.046   8.250
 5573POPC   C3A17669  20.605  12.088   7.950
 5573POPC   C4A17670  20.571  12.124   7.650
 5573POPC   C1B17671  20.827  12.019   8.550
 5573POPC   C2B17672  20.851  11.947   8.250
 5573POPC   C3B17673  20.872  11.955   7.950
 5573POPC   C4B17674  20.838  12.039   7.650
 5574POPC   NC317675  18.303  16.761   9.450
 5574POPC   PO417676  18.249  16.763   9.150
 5574POPC   GL117677  18.271  16.780   8.850
 5574POPC   GL217678  18.366  16.793   8.850
 5574POPC   C1A17679  18.262  16.687   8.550
 5574POPC   D2A17680  18.235  16.723   8.250
 5574POPC   C3A17681  18.269  16.694   7.950
 5574POPC   C4A17682  18.278  16.761   7.650
 5574POPC   C1B17683  18.510  16.858   8.550
 5574POPC   C2B17684  18.472  16.828   8.250
 5574POPC   C3B17685  18.462  16.845   7.950
 5574POPC   C4B17686  18.507  16.843   7.650
 5575POPC   NC317687  26.079  10.561   9.450
 5575POPC   PO417688  25.995  10.547   9.150
 5575POPC   GL117689  26.002  10.501   8.850
 5575POPC   GL217690  25.935  10.546   8.850
 5575POPC   C1A17691  26.049  10.563   8.550
 5575POPC   D2A17692  26.069  10.484   8.250
 5575POPC   C3A17693  26.044  10.484   7.950
 5575POPC   C4A17694  26.040  10.474   7.650
 5575POPC   C1B17695  25.783  10.443   8.550
 5575POPC   C2B17696  25.813  10.535   8.250
 5575POPC   C3B17697  25.825  10.454   7.950
 5575POPC   C4B17698  25.799  10.485   7.650
 5576POPC   NC317699  26.024  29.164   9.450
 5576POPC   PO417700  26.087  29.124   9.150
 5576POPC   GL117701  26.004  29.146   8.850
 5576POPC   GL217702  26.153  29.172   8.850
 5576POPC   C1A17703  26.013  29.136   8.550
 5576POPC   D2A17704  26.084  29.145   8.250
 5576POPC   C3A17705  26.035  29.186   7.950
 5576POPC   C4A17706  26.063  29.174   7.650
 5576POPC   C1B17707  26.271  29.210   8.550
 5576POPC   C2B17708  26.280  29.211   8.250
 5576POPC   C3B17709  26.303  29.197   7.950
 5576POPC   C4B17710  26.233  29.176   7.650
 5577POPC   NC317711  15.908  43.153   9.450
 5577POPC   PO417712  15.952  43.096   9.150
 5577POPC   GL117713  16.003  43.105   8.850
 5577POPC   GL217714  15.948  43.192   8.850
 5577POPC   C1A17715  15.966  43.142   8.550
 5577POPC   D2A17716  15.914  43.073   8.250
 5577POPC   C3A17717  15.906  43.067   7.950
 5577POPC   C4A17718  15.962  43.135   7.650
 5577POPC   C1B17719  15.997  43.357   8.550
 5577POPC   C2B17720  16.011  43.321   8.250
 5577POPC   C3B17721  16.074  43.397   7.950
 5577POPC   C4B17722  16.040  43.331   7.650
 5578POPC   NC317723  24.516  19.851   9.450
 5578POPC   PO417724  24.498  19.832   9.150
 5578POPC   GL117725  24.514  19.843   8.850
 5578POPC   GL217726  24.630  19.778   8.850
 5578POPC   C1A17727  24.471  19.880   8.550
 5578POPC   D2A17728  24.479  19.819   8.250
 5578POPC   C3A17729  24.470  19.814   7.950
 5578POPC   C4A17730  24.532  19.817   7.650
 5578POPC   C1B17731  24.726  19.739   8.550
 5578POPC   C2B17732  24.715  19.789   8.250
 5578POPC   C3B17733  24.682  19.797   7.950
 5578POPC   C4B17734  24.691  19.745   7.650
 5579POPC   NC317735  43.912  19.807   9.450
 5579POPC   PO417736  43.855  19.861   9.150
 5579POPC   GL117737  43.900  19.870   8.850
 5579POPC   GL217738  43.966  19.903   8.850
 5579POPC   C1A17739  43.884  19.857   8.550
 5579POPC   D2A17740  43.922  19.830   8.250
 5579POPC   C3A17741  43.922  19.805   7.950
 5579POPC   C4A17742  43.907  19.797   7.650
 5579POPC   C1B17743  44.056  20.046   8.550
 5579POPC   C2B17744  44.022  19.968   8.250
 5579POPC   C3B17745  44.070  20.010   7.950
 5579POPC   C4B17746  44.032  20.057   7.650
 5580POPC   NC317747  33.031  13.618   9.450
 5580POPC   PO417748  33.011  13.619   9.150
 5580POPC   GL117749  33.009  13.600   8.850
 5580POPC   GL217750  33.030  13.788   8.850
 5580POPC   C1A17751  33.016  13.620   8.550
 5580POPC   D2A17752  33.072  13.628   8.250
 5580POPC   C3A17753  33.015  13.635   7.950
 5580POPC   C4A17754  33.035  13.628   7.650
 5580POPC   C1B17755  32.962  13.869   8.550
 5580POPC   C2B17756  32.913  13.906   8.250
 5580POPC   C3B17757  32.906  13.834   7.950
 5580POPC   C4B17758  32.931  13.904   7.650
 5581POPC   NC317759   0.399   2.792   9.450
 5581POPC   PO417760   0.461   2.736   9.150
 5581POPC   GL117761   0.445   2.738   8.850
 5581POPC   GL217762   0.540   2.829   8.850
 5581POPC   C1A17763   0.438   2.810   8.550
 5581POPC   D2A17764   0.437   2.741   8.250
 5581POPC   C3A17765   0.471   2.775   7.950
 5581POPC   C4A17766   0.394   2.785   7.650
 5581POPC   C1B17767   0.668   2.867   8.550
 5581POPC   C2B17768   0.687   2.895   8.250
 5581POPC   C3B17769   0.687   2.865   7.950
 5581POPC   C4B17770   0.706   2.860   7.650
 5582POPC   NC317771  29.171  28.406   9.450
 5582POPC   PO417772  29.185  28.366   9.150
 5582POPC   GL117773  29.162  28.389   8.850
 5582POPC   GL217774  29.270  28.320   8.850
 5582POPC   C1A17775  29.116  28.403   8.550
 5582POPC   D2A17776  29.187  28.381   8.250
 5582POPC   C3A17777  29.106  28.405   7.950
 5582POPC   C4A17778  29.174  28.333   7.650
 5582POPC   C1B17779  29.338  28.231   8.550
 5582POPC   C2B17780  29.420  28.265   8.250
 5582POPC   C3B17781  29.362  28.247   7.950
 5582POPC   C4B17782  29.398  28.265   7.650
 5583POPC   NC317783  23.752  26.800   9.450
 5583POPC   PO417784  23.736  26.857   9.150
 5583POPC   GL117785  23.705  26.814   8.850
 5583POPC   GL217786  23.727  26.706   8.850
 5583POPC   C1A17787  23.697  26.828   8.550
 5583POPC   D2A17788  23.725  26.865   8.250
 5583POPC   C3A17789  23.743  26.830   7.950
 5583POPC   C4A17790  23.724  26.773   7.650
 5583POPC   C1B17791  23.784  26.580   8.550
 5583POPC   C2B17792  23.831  26.589   8.250
 5583POPC   C3B17793  23.769  26.598   7.950
 5583POPC   C4B17794  23.734  26.605   7.650
 5584POPC   NC317795   7.380  20.573   9.450
 5584POPC   PO417796   7.440  20.625   9.150
 5584POPC   GL117797   7.469  20.584   8.850
 5584POPC   GL217798   7.446  20.750   8.850
 5584POPC   C1A17799   7.461  20.572   8.550
 5584POPC   D2A17800   7.459  20.659   8.250
 5584POPC   C3A17801   7.469  20.570   7.950
 5584POPC   C4A17802   7.377  20.595   7.650
 5584POPC   C1B17803   7.459  20.857   8.550
 5584POPC   C2B17804   7.440  20.866   8.250
 5584POPC   C3B17805   7.457  20.870   7.950
 5584POPC   C4B17806   7.487  20.880   7.650
 5585POPC   NC317807  22.956  22.957   9.450
 5585POPC   PO417808  22.955  22.966   9.150
 5585POPC   GL117809  22.935  22.891   8.850
 5585POPC   GL217810  22.973  23.050   8.850
 5585POPC   C1A17811  22.984  22.967   8.550
 5585POPC   D2A17812  22.981  22.899   8.250
 5585POPC   C3A17813  22.918  22.925   7.950
 5585POPC   C4A17814  22.958  22.971   7.650
 5585POPC   C1B17815  23.065  23.142   8.550
 5585POPC   C2B17816  23.150  23.110   8.250
 5585POPC   C3B17817  23.108  23.118   7.950
 5585POPC   C4B17818  23.118  23.156   7.650
 5586POPC   NC317819  29.919  19.099   9.450
 5586POPC   PO417820  29.882  19.095   9.150
 5586POPC   GL117821  29.946  19.075   8.850
 5586POPC   GL217822  29.872  19.158   8.850
 5586POPC   C1A17823  29.964  19.091   8.550
 5586POPC   D2A17824  29.939  19.074   8.250
 5586POPC   C3A17825  29.929  19.046   7.950
 5586POPC   C4A17826  29.964  19.108   7.650
 5586POPC   C1B17827  29.802  19.276   8.550
 5586POPC   C2B17828  29.816  19.326   8.250
 5586POPC   C3B17829  29.848  19.290   7.950
 5586POPC   C4B17830  29.817  19.271   7.650
 5587POPC   NC317831  24.451  15.985   9.450
 5587POPC   PO417832  24.484  15.958   9.150
 5587POPC   GL117833  24.492  15.905   8.850
 5587POPC   GL217834  24.401  15.992   8.850
 5587POPC   C1A17835  24.519  15.926   8.550
 5587POPC   D2A17836  24.511  15.926   8.250
 5587POPC   C3A17837  24.528  15.984   7.950
 5587POPC   C4A17838  24.462  15.932   7.650
 5587POPC   C1B17839  24.247  16.034   8.550
 5587POPC   C2B17840  24.216  15.998   8.250
 5587POPC   C3B17841  24.217  15.999   7.950
 5587POPC   C4B17842  24.210  16.043   7.650
 5588POPC   NC317843   7.400  27.544   9.450
 5588POPC   PO417844   7.457  27.603   9.150
 5588POPC   GL117845   7.411  27.584   8.850
 5588POPC   GL217846   7.463  27.445   8.850
 5588POPC   C1A17847   7.445  27.612   8.550
 5588POPC   D2A17848   7.401  27.573   8.250
 5588POPC   C3A17849   7.436  27.576   7.950
 5588POPC   C4A17850   7.426  27.618   7.650
 5588POPC   C1B17851   7.477  27.379   8.550
 5588POPC   C2B17852   7.492  27.359   8.250
 5588POPC   C3B17853   7.425  27.379   7.950
 5588POPC   C4B17854   7.514  27.330   7.650
 5589POPC   NC317855   9.002  33.784   9.450
 5589POPC   PO417856   9.002  33.803   9.150
 5589POPC   GL117857   9.014  33.778   8.850
 5589POPC   GL217858   8.835  33.780   8.850
 5589POPC   C1A17859   8.956  33.762   8.550
 5589POPC   D2A17860   8.929  33.793   8.250
 5589POPC   C3A17861   9.001  33.767   7.950
 5589POPC   C4A17862   8.970  33.776   7.650
 5589POPC   C1B17863   8.746  33.794   8.550
 5589POPC   C2B17864   8.757  33.784   8.250
 5589POPC   C3B17865   8.765  33.838   7.950
 5589POPC   C4B17866   8.716  33.767   7.650
 5590POPC   NC317867   8.957  17.515   9.450
 5590POPC   PO417868   8.932  17.518   9.150
 5590POPC   GL117869   8.934  17.531   8.850
 5590POPC   GL217870   9.018  17.420   8.850
 5590POPC   C1A17871   8.936  17.468   8.550
 5590POPC   D2A17872   8.954  17.478   8.250
 5590POPC   C3A17873   8.949  17.476   7.950
 5590POPC   C4A17874   8.943  17.488   7.650
 5590POPC   C1B17875   9.043  17.258   8.550
 5590POPC   C2B17876   9.039  17.237   8.250
 5590POPC   C3B17877   9.070  17.221   7.950
 5590POPC   C4B17878   9.018  17.308   7.650
 5591POPC   NC317879  15.159  13.618   9.450
 5591POPC   PO417880  15.195  13.665   9.150
 5591POPC   GL117881  15.170  13.625   8.850
 5591POPC   GL217882  15.250  13.485   8.850
 5591POPC   C1A17883  15.190  13.611   8.550
 5591POPC   D2A17884  15.168  13.609   8.250
 5591POPC   C3A17885  15.224  13.642   7.950
 5591POPC   C4A17886  15.191  13.628   7.650
 5591POPC   C1B17887  15.230  13.395   8.550
 5591POPC   C2B17888  15.289  13.354   8.250
 5591POPC   C3B17889  15.266  13.391   7.950
 5591POPC   C4B17890  15.235  13.392   7.650
 5592POPC   NC317891  39.996  32.248   9.450
 5592POPC   PO417892  39.977  32.220   9.150
 5592POPC   GL117893  39.999  32.268   8.850
 5592POPC   GL217894  39.949  32.188   8.850
 5592POPC   C1A17895  40.005  32.242   8.550
 5592POPC   D2A17896  39.980  32.270   8.250
 5592POPC   C3A17897  40.022  32.209   7.950
 5592POPC   C4A17898  40.030  32.234   7.650
 5592POPC   C1B17899  39.822  32.041   8.550
 5592POPC   C2B17900  39.797  32.050   8.250
 5592POPC   C3B17901  39.797  32.050   7.950
 5592POPC   C4B17902  39.848  32.089   7.650
 5593POPC   NC317903  24.484   1.245   9.450
 5593POPC   PO417904  24.459   1.235   9.150
 5593POPC   GL117905  24.447   1.228   8.850
 5593POPC   GL217906  24.595   1.060   8.850
 5593POPC   C1A17907  24.501   1.200   8.550
 5593POPC   D2A17908  24.504   1.213   8.250
 5593POPC   C3A17909  24.487   1.217   7.950
 5593POPC   C4A17910  24.441   1.177   7.650
 5593POPC   C1B17911  24.602   0.946   8.550
 5593POPC   C2B17912  24.623   1.035   8.250
 5593POPC   C3B17913  24.632   0.961   7.950
 5593POPC   C4B17914  24.647   0.992   7.650
 5594POPC   NC317915  11.337  14.447   9.450
 5594POPC   PO417916  11.316  14.395   9.150
 5594POPC   GL117917  11.287  14.416   8.850
 5594POPC   GL217918  11.225  14.254   8.850
 5594POPC   C1A17919  11.265  14.442   8.550
 5594POPC   D2A17920  11.266  14.370   8.250
 5594POPC   C3A17921  11.301  14.413   7.950
 5594POPC   C4A17922  11.260  14.407   7.650
 5594POPC   C1B17923  11.179  14.134   8.550
 5594POPC   C2B17924  11.169  14.144   8.250
 5594POPC   C3B17925  11.252  14.199   7.950
 5594POPC   C4B17926  11.206  14.209   7.650
 5595POPC   NC317927   2.772  39.196   9.450
 5595POPC   PO417928   2.772  39.200   9.150
 5595POPC   GL117929   2.769  39.257   8.850
 5595POPC   GL217930   2.650  39.315   8.850
 5595POPC   C1A17931   2.787  39.197   8.550
 5595POPC   D2A17932   2.722  39.281   8.250
 5595POPC   C3A17933   2.755  39.226   7.950
 5595POPC   C4A17934   2.774  39.277   7.650
 5595POPC   C1B17935   2.595  39.402   8.550
 5595POPC   C2B17936   2.625  39.385   8.250
 5595POPC   C3B17937   2.614  39.395   7.950
 5595POPC   C4B17938   2.647  39.430   7.650
 5596POPC   NC317939  32.223  19.034   9.450
 5596POPC   PO417940  32.264  19.054   9.150
 5596POPC   GL117941  32.289  19.062   8.850
 5596POPC   GL217942  32.186  19.180   8.850
 5596POPC   C1A17943  32.291  19.023   8.550
 5596POPC   D2A17944  32.285  19.015   8.250
 5596POPC   C3A17945  32.216  19.107   7.950
 5596POPC   C4A17946  32.201  19.105   7.650
 5596POPC   C1B17947  32.176  19.288   8.550
 5596POPC   C2B17948  32.199  19.306   8.250
 5596POPC   C3B17949  32.223  19.284   7.950
 5596POPC   C4B17950  32.266  19.293   7.650
 5597POPC   NC317951   1.943   4.267   9.450
 5597POPC   PO417952   1.992   4.364   9.150
 5597POPC   GL117953   2.005   4.314   8.850
 5597POPC   GL217954   1.864   4.259   8.850
 5597POPC   C1A17955   2.036   4.288   8.550
 5597POPC   D2A17956   1.982   4.302   8.250
 5597POPC   C3A17957   1.946   4.278   7.950
 5597POPC   C4A17958   1.963   4.335   7.650
 5597POPC   C1B17959   1.836   4.172   8.550
 5597POPC   C2B17960   1.821   4.156   8.250
 5597POPC   C3B17961   1.781   4.140   7.950
 5597POPC   C4B17962   1.779   4.156   7.650
 5598POPC   NC317963  34.622  28.407   9.450
 5598POPC   PO417964  34.541  28.408   9.150
 5598POPC   GL117965  34.620  28.320   8.850
 5598POPC   GL217966  34.613  28.282   8.850
 5598POPC   C1A17967  34.602  28.341   8.550
 5598POPC   D2A17968  34.597  28.397   8.250
 5598POPC   C3A17969  34.622  28.399   7.950
 5598POPC   C4A17970  34.597  28.379   7.650
 5598POPC   C1B17971  34.605  28.175   8.550
 5598POPC   C2B17972  34.658  28.087   8.250
 5598POPC   C3B17973  34.618  28.130   7.950
 5598POPC   C4B17974  34.681  28.086   7.650
 5599POPC   NC317975  40.770  24.511   9.450
 5599POPC   PO417976  40.752  24.524   9.150
 5599POPC   GL117977  40.768  24.527   8.850
 5599POPC   GL217978  40.777  24.621   8.850
 5599POPC   C1A17979  40.817  24.448   8.550
 5599POPC   D2A17980  40.790  24.466   8.250
 5599POPC   C3A17981  40.829  24.524   7.950
 5599POPC   C4A17982  40.798  24.480   7.650
 5599POPC   C1B17983  40.775  24.691   8.550
 5599POPC   C2B17984  40.853  24.782   8.250
 5599POPC   C3B17985  40.848  24.708   7.950
 5599POPC   C4B17986  40.825  24.767   7.650
 5600POPC   NC317987  32.219  19.877   9.450
 5600POPC   PO417988  32.216  19.832   9.150
 5600POPC   GL117989  32.295  19.856   8.850
 5600POPC   GL217990  32.319  19.760   8.850
 5600POPC   C1A17991  32.219  19.790   8.550
 5600POPC   D2A17992  32.211  19.851   8.250
 5600POPC   C3A17993  32.298  19.847   7.950
 5600POPC   C4A17994  32.289  19.795   7.650
 5600POPC   C1B17995  32.492  19.742   8.550
 5600POPC   C2B17996  32.482  19.707   8.250
 5600POPC   C3B17997  32.460  19.686   7.950
 5600POPC   C4B17998  32.491  19.721   7.650
 5601POPC   NC317999  33.059  20.565   9.450
 5601POPC   PO418000  33.034  20.649   9.150
 5601POPC   GL118001  33.047  20.626   8.850
 5601POPC   GL218002  32.930  20.731   8.850
 5601POPC   C1A18003  33.015  20.654   8.550
 5601POPC   D2A18004  32.998  20.570   8.250
 5601POPC   C3A18005  32.991  20.623   7.950
 5601POPC   C4A18006  33.011  20.621   7.650
 5601POPC   C1B18007  32.944  20.860   8.550
 5601POPC   C2B18008  32.883  20.854   8.250
 5601POPC   C3B18009  32.924  20.884   7.950
 5601POPC   C4B18010  32.976  20.845   7.650
 5602POPC   NC318011  22.920   9.752   9.450
 5602POPC   PO418012  22.955   9.716   9.150
 5602POPC   GL118013  22.939   9.778   8.850
 5602POPC   GL218014  22.854   9.827   8.850
 5602POPC   C1A18015  22.953   9.756   8.550
 5602POPC   D2A18016  22.888   9.742   8.250
 5602POPC   C3A18017  22.976   9.778   7.950
 5602POPC   C4A18018  22.897   9.780   7.650
 5602POPC   C1B18019  22.691   9.802   8.550
 5602POPC   C2B18020  22.743   9.855   8.250
 5602POPC   C3B18021  22.745   9.828   7.950
 5602POPC   C4B18022  22.676   9.843   7.650
 5603POPC   NC318023  40.739   7.418   9.450
 5603POPC   PO418024  40.816   7.417   9.150
 5603POPC   GL118025  40.764   7.407   8.850
 5603POPC   GL218026  40.903   7.486   8.850
 5603POPC   C1A18027  40.761   7.402   8.550
 5603POPC   D2A18028  40.816   7.412   8.250
 5603POPC   C3A18029  40.814   7.395   7.950
 5603POPC   C4A18030  40.746   7.389   7.650
 5603POPC   C1B18031  40.984   7.640   8.550
 5603POPC   C2B18032  40.956   7.593   8.250
 5603POPC   C3B18033  40.906   7.579   7.950
 5603POPC   C4B18034  40.939   7.611   7.650
 5604POPC   NC318035  16.005  26.771   9.450
 5604POPC   PO418036  16.002  26.769   9.150
 5604POPC   GL118037  15.967  26.836   8.850
 5604POPC   GL218038  15.904  26.687   8.850
 5604POPC   C1A18039  15.946  26.834   8.550
 5604POPC   D2A18040  15.990  26.834   8.250
 5604POPC   C3A18041  15.946  26.786   7.950
 5604POPC   C4A18042  15.963  26.783   7.650
 5604POPC   C1B18043  15.897  26.546   8.550
 5604POPC   C2B18044  15.864  26.602   8.250
 5604POPC   C3B18045  15.885  26.609   7.950
 5604POPC   C4B18046  15.899  26.586   7.650
 5605POPC   NC318047  36.147  13.634   9.450
 5605POPC   PO418048  36.138  13.596   9.150
 5605POPC   GL118049  36.093  13.607   8.850
 5605POPC   GL218050  36.140  13.765   8.850
 5605POPC   C1A18051  36.146  13.598   8.550
 5605POPC   D2A18052  36.107  13.644   8.250
 5605POPC   C3A18053  36.168  13.579   7.950
 5605POPC   C4A18054  36.102  13.596   7.650
 5605POPC   C1B18055  36.152  13.871   8.550
 5605POPC   C2B18056  36.208  13.819   8.250
 5605POPC   C3B18057  36.210  13.848   7.950
 5605POPC   C4B18058  36.172  13.853   7.650
 5606POPC   NC318059  23.713  23.762   9.450
 5606POPC   PO418060  23.665  23.685   9.150
 5606POPC   GL118061  23.750  23.692   8.850
 5606POPC   GL218062  23.809  23.701   8.850
 5606POPC   C1A18063  23.730  23.701   8.550
 5606POPC   D2A18064  23.731  23.713   8.250
 5606POPC   C3A18065  23.719  23.722   7.950
 5606POPC   C4A18066  23.695  23.747   7.650
 5606POPC   C1B18067  23.972  23.706   8.550
 5606POPC   C2B18068  23.971  23.785   8.250
 5606POPC   C3B18069  23.928  23.746   7.950
 5606POPC   C4B18070  23.973  23.706   7.650
 5607POPC   NC318071  42.295  27.625   9.450
 5607POPC   PO418072  42.336  27.576   9.150
 5607POPC   GL118073  42.300  27.634   8.850
 5607POPC   GL218074  42.396  27.706   8.850
 5607POPC   C1A18075  42.306  27.564   8.550
 5607POPC   D2A18076  42.376  27.611   8.250
 5607POPC   C3A18077  42.294  27.567   7.950
 5607POPC   C4A18078  42.336  27.594   7.650
 5607POPC   C1B18079  42.445  27.875   8.550
 5607POPC   C2B18080  42.405  27.817   8.250
 5607POPC   C3B18081  42.372  27.786   7.950
 5607POPC   C4B18082  42.401  27.798   7.650
 5608POPC   NC318083  30.709   4.270   9.450
 5608POPC   PO418084  30.732   4.280   9.150
 5608POPC   GL118085  30.668   4.270   8.850
 5608POPC   GL218086  30.776   4.182   8.850
 5608POPC   C1A18087  30.720   4.345   8.550
 5608POPC   D2A18088  30.735   4.298   8.250
 5608POPC   C3A18089  30.711   4.362   7.950
 5608POPC   C4A18090  30.717   4.287   7.650
 5608POPC   C1B18091  30.833   4.138   8.550
 5608POPC   C2B18092  30.890   4.130   8.250
 5608POPC   C3B18093  30.836   4.111   7.950
 5608POPC   C4B18094  30.884   4.096   7.650
 5609POPC   NC318095   8.968  15.982   9.450
 5609POPC   PO418096   9.009  15.962   9.150
 5609POPC   GL118097   8.960  15.926   8.850
 5609POPC   GL218098   8.997  16.057   8.850
 5609POPC   C1A18099   8.957  15.979   8.550
 5609POPC   D2A18100   8.942  15.911   8.250
 5609POPC   C3A18101   8.938  15.917   7.950
 5609POPC   C4A18102   8.964  15.931   7.650
 5609POPC   C1B18103   9.090  16.147   8.550
 5609POPC   C2B18104   9.107  16.129   8.250
 5609POPC   C3B18105   9.114  16.144   7.950
 5609POPC   C4B18106   9.048  16.136   7.650
 5610POPC   NC318107  41.576   5.900   9.450
 5610POPC   PO418108  41.513   5.849   9.150
 5610POPC   GL118109  41.567   5.894   8.850
 5610POPC   GL218110  41.649   5.931   8.850
 5610POPC   C1A18111  41.592   5.873   8.550
 5610POPC   D2A18112  41.571   5.844   8.250
 5610POPC   C3A18113  41.523   5.830   7.950
 5610POPC   C4A18114  41.541   5.882   7.650
 5610POPC   C1B18115  41.684   6.082   8.550
 5610POPC   C2B18116  41.683   6.103   8.250
 5610POPC   C3B18117  41.685   6.135   7.950
 5610POPC   C4B18118  41.632   6.108   7.650
 5611POPC   NC318119  16.005  36.881   9.450
 5611POPC   PO418120  15.997  36.943   9.150
 5611POPC   GL118121  15.928  36.952   8.850
 5611POPC   GL218122  15.892  37.033   8.850
 5611POPC   C1A18123  15.908  36.932   8.550
 5611POPC   D2A18124  15.965  36.898   8.250
 5611POPC   C3A18125  15.944  36.893   7.950
 5611POPC   C4A18126  15.930  36.862   7.650
 5611POPC   C1B18127  15.893  37.129   8.550
 5611POPC   C2B18128  15.880  37.109   8.250
 5611POPC   C3B18129  15.951  37.118   7.950
 5611POPC   C4B18130  15.903  37.124   7.650
 5612POPC   NC318131  41.573  33.062   9.450
 5612POPC   PO418132  41.548  32.993   9.150
 5612POPC   GL118133  41.568  33.046   8.850
 5612POPC   GL218134  41.594  32.908   8.850
 5612POPC   C1A18135  41.530  33.004   8.550
 5612POPC   D2A18136  41.548  33.009   8.250
 5612POPC   C3A18137  41.512  32.998   7.950
 5612POPC   C4A18138  41.593  32.986   7.650
 5612POPC   C1B18139  41.688  32.838   8.550
 5612POPC   C2B18140  41.708  32.831   8.250
 5612POPC   C3B18141  41.634  32.816   7.950
 5612POPC   C4B18142  41.694  32.761   7.650
 5613POPC   NC318143  43.145   7.413   9.450
 5613POPC   PO418144  43.079   7.445   9.150
 5613POPC   GL118145  43.075   7.424   8.850
 5613POPC   GL218146  43.021   7.501   8.850
 5613POPC   C1A18147  43.116   7.463   8.550
 5613POPC   D2A18148  43.116   7.413   8.250
 5613POPC   C3A18149  43.065   7.449   7.950
 5613POPC   C4A18150  43.156   7.430   7.650
 5613POPC   C1B18151  42.901   7.535   8.550
 5613POPC   C2B18152  42.882   7.513   8.250
 5613POPC   C3B18153  42.931   7.579   7.950
 5613POPC   C4B18154  42.848   7.577   7.650
 5614POPC   NC318155  12.095  22.984   9.450
 5614POPC   PO418156  12.047  22.920   9.150
 5614POPC   GL118157  12.107  22.942   8.850
 5614POPC   GL218158  11.988  22.949   8.850
 5614POPC   C1A18159  12.041  22.969   8.550
 5614POPC   D2A18160  12.070  22.948   8.250
 5614POPC   C3A18161  12.094  22.960   7.950
 5614POPC   C4A18162  12.121  22.919   7.650
 5614POPC   C1B18163  11.836  22.880   8.550
 5614POPC   C2B18164  11.831  22.927   8.250
 5614POPC   C3B18165  11.811  22.951   7.950
 5614POPC   C4B18166  11.836  22.939   7.650
 5615POPC   NC318167  15.133   5.083   9.450
 5615POPC   PO418168  15.228   5.077   9.150
 5615POPC   GL118169  15.150   5.125   8.850
 5615POPC   GL218170  15.144   4.991   8.850
 5615POPC   C1A18171  15.163   5.056   8.550
 5615POPC   D2A18172  15.139   5.054   8.250
 5615POPC   C3A18173  15.193   5.053   7.950
 5615POPC   C4A18174  15.223   5.097   7.650
 5615POPC   C1B18175  15.065   4.855   8.550
 5615POPC   C2B18176  15.121   4.809   8.250
 5615POPC   C3B18177  15.059   4.891   7.950
 5615POPC   C4B18178  15.069   4.834   7.650
 5616POPC   NC318179  35.354  40.786   9.450
 5616POPC   PO418180  35.306  40.746   9.150
 5616POPC   GL118181  35.400  40.744   8.850
 5616POPC   GL218182  35.289  40.865   8.850
 5616POPC   C1A18183  35.391  40.832   8.550
 5616POPC   D2A18184  35.366  40.758   8.250
 5616POPC   C3A18185  35.393  40.792   7.950
 5616POPC   C4A18186  35.340  40.830   7.650
 5616POPC   C1B18187  35.199  40.917   8.550
 5616POPC   C2B18188  35.201  40.946   8.250
 5616POPC   C3B18189  35.177  40.928   7.950
 5616POPC   C4B18190  35.115  40.909   7.650
 5617POPC   NC318191   2.749  22.957   9.450
 5617POPC   PO418192   2.810  22.914   9.150
 5617POPC   GL118193   2.812  22.961   8.850
 5617POPC   GL218194   2.649  22.962   8.850
 5617POPC   C1A18195   2.789  22.942   8.550
 5617POPC   D2A18196   2.802  22.909   8.250
 5617POPC   C3A18197   2.743  22.922   7.950
 5617POPC   C4A18198   2.766  22.980   7.650
 5617POPC   C1B18199   2.509  22.954   8.550
 5617POPC   C2B18200   2.558  22.919   8.250
 5617POPC   C3B18201   2.511  22.992   7.950
 5617POPC   C4B18202   2.564  22.917   7.650
 5618POPC   NC318203   4.324  31.443   9.450
 5618POPC   PO418204   4.293  31.499   9.150
 5618POPC   GL118205   4.335  31.432   8.850
 5618POPC   GL218206   4.361  31.585   8.850
 5618POPC   C1A18207   4.348  31.507   8.550
 5618POPC   D2A18208   4.318  31.488   8.250
 5618POPC   C3A18209   4.350  31.452   7.950
 5618POPC   C4A18210   4.274  31.498   7.650
 5618POPC   C1B18211   4.404  31.684   8.550
 5618POPC   C2B18212   4.385  31.702   8.250
 5618POPC   C3B18213   4.443  31.698   7.950
 5618POPC   C4B18214   4.400  31.721   7.650
 5619POPC   NC318215   7.432   5.070   9.450
 5619POPC   PO418216   7.399   5.134   9.150
 5619POPC   GL118217   7.436   5.073   8.850
 5619POPC   GL218218   7.512   5.194   8.850
 5619POPC   C1A18219   7.418   5.137   8.550
 5619POPC   D2A18220   7.463   5.073   8.250
 5619POPC   C3A18221   7.414   5.126   7.950
 5619POPC   C4A18222   7.437   5.131   7.650
 5619POPC   C1B18223   7.555   5.320   8.550
 5619POPC   C2B18224   7.542   5.366   8.250
 5619POPC   C3B18225   7.512   5.322   7.950
 5619POPC   C4B18226   7.488   5.337   7.650
 5620POPC   NC318227  33.752   1.982   9.450
 5620POPC   PO418228  33.785   2.038   9.150
 5620POPC   GL118229  33.775   1.976   8.850
 5620POPC   GL218230  33.875   1.883   8.850
 5620POPC   C1A18231  33.759   1.966   8.550
 5620POPC   D2A18232  33.785   1.955   8.250
 5620POPC   C3A18233  33.842   1.980   7.950
 5620POPC   C4A18234  33.800   1.979   7.650
 5620POPC   C1B18235  33.911   1.807   8.550
 5620POPC   C2B18236  33.917   1.779   8.250
 5620POPC   C3B18237  33.910   1.797   7.950
 5620POPC   C4B18238  33.925   1.790   7.650
 5621POPC   NC318239  13.604  38.476   9.450
 5621POPC   PO418240  13.671  38.430   9.150
 5621POPC   GL118241  13.585  38.443   8.850
 5621POPC   GL218242  13.472  38.476   8.850
 5621POPC   C1A18243  13.676  38.475   8.550
 5621POPC   D2A18244  13.592  38.408   8.250
 5621POPC   C3A18245  13.581  38.473   7.950
 5621POPC   C4A18246  13.653  38.457   7.650
 5621POPC   C1B18247  13.373  38.423   8.550
 5621POPC   C2B18248  13.329  38.414   8.250
 5621POPC   C3B18249  13.391  38.416   7.950
 5621POPC   C4B18250  13.356  38.437   7.650
 5622POPC   NC318251  29.883  11.310   9.450
 5622POPC   PO418252  29.880  11.265   9.150
 5622POPC   GL118253  29.896  11.307   8.850
 5622POPC   GL218254  29.819  11.377   8.850
 5622POPC   C1A18255  29.891  11.275   8.550
 5622POPC   D2A18256  29.919  11.349   8.250
 5622POPC   C3A18257  29.926  11.315   7.950
 5622POPC   C4A18258  29.964  11.255   7.650
 5622POPC   C1B18259  29.645  11.347   8.550
 5622POPC   C2B18260  29.727  11.357   8.250
 5622POPC   C3B18261  29.688  11.333   7.950
 5622POPC   C4B18262  29.702  11.357   7.650
 5623POPC   NC318263  39.245  19.023   9.450
 5623POPC   PO418264  39.281  19.102   9.150
 5623POPC   GL118265  39.260  19.088   8.850
 5623POPC   GL218266  39.199  19.122   8.850
 5623POPC   C1A18267  39.241  19.014   8.550
 5623POPC   D2A18268  39.218  19.017   8.250
 5623POPC   C3A18269  39.275  19.053   7.950
 5623POPC   C4A18270  39.216  19.031   7.650
 5623POPC   C1B18271  39.096  19.236   8.550
 5623POPC   C2B18272  39.084  19.228   8.250
 5623POPC   C3B18273  39.108  19.256   7.950
 5623POPC   C4B18274  39.047  19.262   7.650
 5624POPC   NC318275  17.537  25.300   9.450
 5624POPC   PO418276  17.553  25.218   9.150
 5624POPC   GL118277  17.543  25.278   8.850
 5624POPC   GL218278  17.547  25.363   8.850
 5624POPC   C1A18279  17.482  25.288   8.550
 5624POPC   D2A18280  17.498  25.228   8.250
 5624POPC   C3A18281  17.517  25.291   7.950
 5624POPC   C4A18282  17.532  25.302   7.650
 5624POPC   C1B18283  17.637  25.419   8.550
 5624POPC   C2B18284  17.688  25.456   8.250
 5624POPC   C3B18285  17.652  25.471   7.950
 5624POPC   C4B18286  17.626  25.460   7.650
 5625POPC   NC318287  41.592  24.491   9.450
 5625POPC   PO418288  41.547  24.516   9.150
 5625POPC   GL118289  41.513  24.443   8.850
 5625POPC   GL218290  41.462  24.347   8.850
 5625POPC   C1A18291  41.553  24.513   8.550
 5625POPC   D2A18292  41.528  24.451   8.250
 5625POPC   C3A18293  41.522  24.459   7.950
 5625POPC   C4A18294  41.513  24.450   7.650
 5625POPC   C1B18295  41.387  24.285   8.550
 5625POPC   C2B18296  41.380  24.319   8.250
 5625POPC   C3B18297  41.456  24.338   7.950
 5625POPC   C4B18298  41.375  24.281   7.650
 5626POPC   NC318299  11.291  43.911   9.450
 5626POPC   PO418300  11.342  43.902   9.150
 5626POPC   GL118301  11.315  43.925   8.850
 5626POPC   GL218302  11.162  43.842   8.850
 5626POPC   C1A18303  11.289  43.932   8.550
 5626POPC   D2A18304  11.270  43.844   8.250
 5626POPC   C3A18305  11.328  43.931   7.950
 5626POPC   C4A18306  11.320  43.855   7.650
 5626POPC   C1B18307  11.055  43.703   8.550
 5626POPC   C2B18308  11.083  43.693   8.250
 5626POPC   C3B18309  11.094  43.754   7.950
 5626POPC   C4B18310  11.110  43.723   7.650
 5627POPC   NC318311  19.066  33.793   9.450
 5627POPC   PO418312  19.010  33.792   9.150
 5627POPC   GL118313  19.073  33.754   8.850
 5627POPC   GL218314  18.979  33.814   8.850
 5627POPC   C1A18315  19.053  33.849   8.550
 5627POPC   D2A18316  19.099  33.755   8.250
 5627POPC   C3A18317  19.080  33.817   7.950
 5627POPC   C4A18318  19.072  33.774   7.650
 5627POPC   C1B18319  18.877  33.901   8.550
 5627POPC   C2B18320  18.845  33.951   8.250
 5627POPC   C3B18321  18.853  33.952   7.950
 5627POPC   C4B18322  18.853  33.863   7.650
 5628POPC   NC318323  22.905  33.031   9.450
 5628POPC   PO418324  22.952  33.012   9.150
 5628POPC   GL118325  22.955  33.058   8.850
 5628POPC   GL218326  23.103  32.984   8.850
 5628POPC   C1A18327  22.946  32.999   8.550
 5628POPC   D2A18328  22.930  32.982   8.250
 5628POPC   C3A18329  22.891  33.006   7.950
 5628POPC   C4A18330  22.984  33.044   7.650
 5628POPC   C1B18331  23.222  33.041   8.550
 5628POPC   C2B18332  23.199  33.020   8.250
 5628POPC   C3B18333  23.184  33.010   7.950
 5628POPC   C4B18334  23.174  33.039   7.650
 5629POPC   NC318335  25.282  16.694   9.450
 5629POPC   PO418336  25.304  16.727   9.150
 5629POPC   GL118337  25.294  16.716   8.850
 5629POPC   GL218338  25.354  16.676   8.850
 5629POPC   C1A18339  25.245  16.748   8.550
 5629POPC   D2A18340  25.243  16.760   8.250
 5629POPC   C3A18341  25.218  16.727   7.950
 5629POPC   C4A18342  25.288  16.774   7.650
 5629POPC   C1B18343  25.554  16.651   8.550
 5629POPC   C2B18344  25.521  16.650   8.250
 5629POPC   C3B18345  25.509  16.612   7.950
 5629POPC   C4B18346  25.553  16.629   7.650
 5630POPC   NC318347  15.174  16.723   9.450
 5630POPC   PO418348  15.176  16.693   9.150
 5630POPC   GL118349  15.131  16.710   8.850
 5630POPC   GL218350  15.275  16.879   8.850
 5630POPC   C1A18351  15.129  16.731   8.550
 5630POPC   D2A18352  15.168  16.693   8.250
 5630POPC   C3A18353  15.209  16.756   7.950
 5630POPC   C4A18354  15.208  16.761   7.650
 5630POPC   C1B18355  15.367  16.926   8.550
 5630POPC   C2B18356  15.296  16.951   8.250
 5630POPC   C3B18357  15.346  16.947   7.950
 5630POPC   C4B18358  15.364  16.947   7.650
 5631POPC   NC318359  14.366  43.856   9.450
 5631POPC   PO418360  14.405  43.924   9.150
 5631POPC   GL118361  14.358  43.888   8.850
 5631POPC   GL218362  14.464  43.786   8.850
 5631POPC   C1A18363  14.440  43.837   8.550
 5631POPC   D2A18364  14.382  43.922   8.250
 5631POPC   C3A18365  14.407  43.934   7.950
 5631POPC   C4A18366  14.449  43.865   7.650
 5631POPC   C1B18367  14.587  43.717   8.550
 5631POPC   C2B18368  14.542  43.684   8.250
 5631POPC   C3B18369  14.509  43.685   7.950
 5631POPC   C4B18370  14.553  43.654   7.650
 5632POPC   NC318371  44.684   4.279   9.450
 5632POPC   PO418372  44.692   4.291   9.150
 5632POPC   GL118373  44.655   4.311   8.850
 5632POPC   GL218374  44.488   4.337   8.850
 5632POPC   C1A18375  44.621   4.268   8.550
 5632POPC   D2A18376  44.662   4.275   8.250
 5632POPC   C3A18377  44.701   4.329   7.950
 5632POPC   C4A18378  44.672   4.349   7.650
 5632POPC   C1B18379  44.408   4.353   8.550
 5632POPC   C2B18380  44.425   4.377   8.250
 5632POPC   C3B18381  44.461   4.355   7.950
 5632POPC   C4B18382  44.398   4.343   7.650
 5633POPC   NC318383   4.289  22.986   9.450
 5633POPC   PO418384   4.284  22.891   9.150
 5633POPC   GL118385   4.307  22.937   8.850
 5633POPC   GL218386   4.355  23.025   8.850
 5633POPC   C1A18387   4.353  22.920   8.550
 5633POPC   D2A18388   4.328  22.926   8.250
 5633POPC   C3A18389   4.337  22.912   7.950
 5633POPC   C4A18390   4.278  22.987   7.650
 5633POPC   C1B18391   4.514  23.172   8.550
 5633POPC   C2B18392   4.425  23.180   8.250
 5633POPC   C3B18393   4.434  23.142   7.950
 5633POPC   C4B18394   4.462  23.153   7.650
 5634POPC   NC318395  14.408   0.411   9.450
 5634POPC   PO418396  14.389   0.423   9.150
 5634POPC   GL118397  14.396   0.478   8.850
 5634POPC   GL218398  14.247   0.547   8.850
 5634POPC   C1A18399  14.403   0.414   8.550
 5634POPC   D2A18400  14.383   0.455   8.250
 5634POPC   C3A18401  14.444   0.426   7.950
 5634POPC   C4A18402  14.376   0.413   7.650
 5634POPC   C1B18403  14.186   0.565   8.550
 5634POPC   C2B18404  14.187   0.577   8.250
 5634POPC   C3B18405  14.172   0.555   7.950
 5634POPC   C4B18406  14.143   0.518   7.650
 5635POPC   NC318407  39.247  29.898   9.450
 5635POPC   PO418408  39.221  29.901   9.150
 5635POPC   GL118409  39.194  29.939   8.850
 5635POPC   GL218410  39.131  29.876   8.850
 5635POPC   C1A18411  39.214  29.921   8.550
 5635POPC   D2A18412  39.188  29.877   8.250
 5635POPC   C3A18413  39.183  29.905   7.950
 5635POPC   C4A18414  39.228  29.950   7.650
 5635POPC   C1B18415  39.005  29.811   8.550
 5635POPC   C2B18416  39.000  29.799   8.250
 5635POPC   C3B18417  39.031  29.758   7.950
 5635POPC   C4B18418  38.999  29.791   7.650
 5636POPC   NC318419   9.733  29.149   9.450
 5636POPC   PO418420   9.708  29.139   9.150
 5636POPC   GL118421   9.737  29.182   8.850
 5636POPC   GL218422   9.921  29.139   8.850
 5636POPC   C1A18423   9.704  29.144   8.550
 5636POPC   D2A18424   9.783  29.194   8.250
 5636POPC   C3A18425   9.715  29.100   7.950
 5636POPC   C4A18426   9.779  29.124   7.650
 5636POPC   C1B18427   9.990  29.176   8.550
 5636POPC   C2B18428   9.988  29.120   8.250
 5636POPC   C3B18429  10.041  29.112   7.950
 5636POPC   C4B18430  10.045  29.145   7.650
 5637POPC   NC318431  43.840   6.627   9.450
 5637POPC   PO418432  43.877   6.645   9.150
 5637POPC   GL118433  43.921   6.648   8.850
 5637POPC   GL218434  43.788   6.723   8.850
 5637POPC   C1A18435  43.852   6.605   8.550
 5637POPC   D2A18436  43.847   6.657   8.250
 5637POPC   C3A18437  43.855   6.626   7.950
 5637POPC   C4A18438  43.895   6.634   7.650
 5637POPC   C1B18439  43.714   6.803   8.550
 5637POPC   C2B18440  43.724   6.788   8.250
 5637POPC   C3B18441  43.747   6.803   7.950
 5637POPC   C4B18442  43.742   6.823   7.650
 5638POPC   NC318443  15.975  22.955   9.450
 5638POPC   PO418444  15.972  22.948   9.150
 5638POPC   GL118445  16.001  22.952   8.850
 5638POPC   GL218446  15.898  23.065   8.850
 5638POPC   C1A18447  15.908  22.968   8.550
 5638POPC   D2A18448  15.956  22.913   8.250
 5638POPC   C3A18449  15.949  22.912   7.950
 5638POPC   C4A18450  15.980  22.902   7.650
 5638POPC   C1B18451  15.859  23.138   8.550
 5638POPC   C2B18452  15.816  23.172   8.250
 5638POPC   C3B18453  15.852  23.128   7.950
 5638POPC   C4B18454  15.832  23.165   7.650
 5639POPC   NC318455  33.025  42.316   9.450
 5639POPC   PO418456  33.034  42.288   9.150
 5639POPC   GL118457  33.030  42.303   8.850
 5639POPC   GL218458  33.100  42.337   8.850
 5639POPC   C1A18459  32.981  42.290   8.550
 5639POPC   D2A18460  33.029  42.299   8.250
 5639POPC   C3A18461  33.032  42.324   7.950
 5639POPC   C4A18462  33.006  42.364   7.650
 5639POPC   C1B18463  33.218  42.236   8.550
 5639POPC   C2B18464  33.300  42.222   8.250
 5639POPC   C3B18465  33.305  42.319   7.950
 5639POPC   C4B18466  33.270  42.230   7.650
 5640POPC   NC318467  40.053  14.355   9.450
 5640POPC   PO418468  40.043  14.385   9.150
 5640POPC   GL118469  39.979  14.448   8.850
 5640POPC   GL218470  39.835  14.367   8.850
 5640POPC   C1A18471  40.056  14.379   8.550
 5640POPC   D2A18472  40.034  14.413   8.250
 5640POPC   C3A18473  40.051  14.431   7.950
 5640POPC   C4A18474  39.976  14.444   7.650
 5640POPC   C1B18475  39.728  14.401   8.550
 5640POPC   C2B18476  39.713  14.429   8.250
 5640POPC   C3B18477  39.757  14.365   7.950
 5640POPC   C4B18478  39.768  14.410   7.650
 5641POPC   NC318479   5.113   1.210   9.450
 5641POPC   PO418480   5.044   1.214   9.150
 5641POPC   GL118481   5.078   1.205   8.850
 5641POPC   GL218482   4.948   1.290   8.850
 5641POPC   C1A18483   5.089   1.187   8.550
 5641POPC   D2A18484   5.095   1.207   8.250
 5641POPC   C3A18485   5.044   1.254   7.950
 5641POPC   C4A18486   5.082   1.244   7.650
 5641POPC   C1B18487   4.873   1.352   8.550
 5641POPC   C2B18488   4.858   1.311   8.250
 5641POPC   C3B18489   4.915   1.393   7.950
 5641POPC   C4B18490   4.894   1.340   7.650
 5642POPC   NC318491  40.033  11.266   9.450
 5642POPC   PO418492  40.053  11.310   9.150
 5642POPC   GL118493  40.022  11.262   8.850
 5642POPC   GL218494  39.964  11.399   8.850
 5642POPC   C1A18495  40.055  11.295   8.550
 5642POPC   D2A18496  39.977  11.325   8.250
 5642POPC   C3A18497  39.973  11.328   7.950
 5642POPC   C4A18498  40.037  11.292   7.650
 5642POPC   C1B18499  40.001  11.546   8.550
 5642POPC   C2B18500  39.920  11.549   8.250
 5642POPC   C3B18501  39.984  11.514   7.950
 5642POPC   C4B18502  39.939  11.573   7.650
 5643POPC   NC318503  39.259   0.397   9.450
 5643POPC   PO418504  39.253   0.415   9.150
 5643POPC   GL118505  39.251   0.411   8.850
 5643POPC   GL218506  39.323   0.421   8.850
 5643POPC   C1A18507  39.275   0.483   8.550
 5643POPC   D2A18508  39.227   0.426   8.250
 5643POPC   C3A18509  39.207   0.393   7.950
 5643POPC   C4A18510  39.227   0.444   7.650
 5643POPC   C1B18511  39.473   0.309   8.550
 5643POPC   C2B18512  39.423   0.272   8.250
 5643POPC   C3B18513  39.392   0.306   7.950
 5643POPC   C4B18514  39.430   0.288   7.650
 5644POPC   NC318515  34.616  42.324   9.450
 5644POPC   PO418516  34.587  42.322   9.150
 5644POPC   GL118517  34.604  42.288   8.850
 5644POPC   GL218518  34.554  42.464   8.850
 5644POPC   C1A18519  34.615  42.311   8.550
 5644POPC   D2A18520  34.581  42.323   8.250
 5644POPC   C3A18521  34.623  42.382   7.950
 5644POPC   C4A18522  34.536  42.327   7.650
 5644POPC   C1B18523  34.540  42.595   8.550
 5644POPC   C2B18524  34.570  42.598   8.250
 5644POPC   C3B18525  34.585  42.624   7.950
 5644POPC   C4B18526  34.561  42.633   7.650
 5645POPC   NC318527   1.167  12.090   9.450
 5645POPC   PO418528   1.248  12.108   9.150
 5645POPC   GL118529   1.258  12.054   8.850
 5645POPC   GL218530   1.116  11.994   8.850
 5645POPC   C1A18531   1.247  12.111   8.550
 5645POPC   D2A18532   1.212  12.101   8.250
 5645POPC   C3A18533   1.252  12.088   7.950
 5645POPC   C4A18534   1.193  12.092   7.650
 5645POPC   C1B18535   1.005  11.875   8.550
 5645POPC   C2B18536   0.994  11.924   8.250
 5645POPC   C3B18537   1.070  11.933   7.950
 5645POPC   C4B18538   1.018  11.911   7.650
 5646POPC   NC318539  39.245  41.569   9.450
 5646POPC   PO418540  39.267  41.601   9.150
 5646POPC   GL118541  39.183  41.519   8.850
 5646POPC   GL218542  39.151  41.568   8.850
 5646POPC   C1A18543  39.234  41.570   8.550
 5646POPC   D2A18544  39.237  41.535   8.250
 5646POPC   C3A18545  39.183  41.509   7.950
 5646POPC   C4A18546  39.190  41.542   7.650
 5646POPC   C1B18547  38.996  41.464   8.550
 5646POPC   C2B18548  39.041  41.489   8.250
 5646POPC   C3B18549  38.957  41.511   7.950
 5646POPC   C4B18550  38.945  41.475   7.650
 5647POPC   NC318551   1.966  15.918   9.450
 5647POPC   PO418552   1.941  15.916   9.150
 5647POPC   GL118553   1.952  15.911   8.850
 5647POPC   GL218554   2.002  16.080   8.850
 5647POPC   C1A18555   1.987  15.997   8.550
 5647POPC   D2A18556   2.027  15.964   8.250
 5647POPC   C3A18557   2.004  15.985   7.950
 5647POPC   C4A18558   1.983  15.909   7.650
 5647POPC   C1B18559   2.015  16.186   8.550
 5647POPC   C2B18560   2.065  16.243   8.250
 5647POPC   C3B18561   2.081  16.229   7.950
 5647POPC   C4B18562   1.995  16.215   7.650
 5648POPC   NC318563  29.949  37.655   9.450
 5648POPC   PO418564  29.924  37.687   9.150
 5648POPC   GL118565  29.949  37.635   8.850
 5648POPC   GL218566  29.995  37.738   8.850
 5648POPC   C1A18567  29.887  37.687   8.550
 5648POPC   D2A18568  29.965  37.718   8.250
 5648POPC   C3A18569  29.906  37.674   7.950
 5648POPC   C4A18570  29.929  37.635   7.650
 5648POPC   C1B18571  30.123  37.693   8.550
 5648POPC   C2B18572  30.138  37.696   8.250
 5648POPC   C3B18573  30.202  37.672   7.950
 5648POPC   C4B18574  30.148  37.730   7.650
 5649POPC   NC318575  11.322  33.757   9.450
 5649POPC   PO418576  11.292  33.803   9.150
 5649POPC   GL118577  11.344  33.776   8.850
 5649POPC   GL218578  11.446  33.790   8.850
 5649POPC   C1A18579  11.318  33.828   8.550
 5649POPC   D2A18580  11.274  33.777   8.250
 5649POPC   C3A18581  11.343  33.783   7.950
 5649POPC   C4A18582  11.305  33.784   7.650
 5649POPC   C1B18583  11.518  33.759   8.550
 5649POPC   C2B18584  11.521  33.760   8.250
 5649POPC   C3B18585  11.585  33.857   7.950
 5649POPC   C4B18586  11.550  33.778   7.650
 5650POPC   NC318587  27.584  40.811   9.450
 5650POPC   PO418588  27.548  40.748   9.150
 5650POPC   GL118589  27.578  40.780   8.850
 5650POPC   GL218590  27.502  40.847   8.850
 5650POPC   C1A18591  27.551  40.804   8.550
 5650POPC   D2A18592  27.624  40.762   8.250
 5650POPC   C3A18593  27.634  40.775   7.950
 5650POPC   C4A18594  27.604  40.764   7.650
 5650POPC   C1B18595  27.384  40.853   8.550
 5650POPC   C2B18596  27.379  40.920   8.250
 5650POPC   C3B18597  27.384  40.902   7.950
 5650POPC   C4B18598  27.410  40.871   7.650
 5651POPC   NC318599  36.889  19.848   9.450
 5651POPC   PO418600  36.920  19.788   9.150
 5651POPC   GL118601  36.894  19.794   8.850
 5651POPC   GL218602  37.027  19.830   8.850
 5651POPC   C1A18603  36.921  19.818   8.550
 5651POPC   D2A18604  36.902  19.846   8.250
 5651POPC   C3A18605  36.952  19.879   7.950
 5651POPC   C4A18606  36.936  19.864   7.650
 5651POPC   C1B18607  37.158  19.726   8.550
 5651POPC   C2B18608  37.157  19.795   8.250
 5651POPC   C3B18609  37.097  19.745   7.950
 5651POPC   C4B18610  37.098  19.781   7.650
 5652POPC   NC318611  20.654   3.558   9.450
 5652POPC   PO418612  20.562   3.528   9.150
 5652POPC   GL118613  20.608   3.556   8.850
 5652POPC   GL218614  20.562   3.687   8.850
 5652POPC   C1A18615  20.607   3.496   8.550
 5652POPC   D2A18616  20.619   3.515   8.250
 5652POPC   C3A18617  20.659   3.587   7.950
 5652POPC   C4A18618  20.615   3.554   7.650
 5652POPC   C1B18619  20.444   3.782   8.550
 5652POPC   C2B18620  20.494   3.789   8.250
 5652POPC   C3B18621  20.470   3.760   7.950
 5652POPC   C4B18622  20.468   3.759   7.650
 5653POPC   NC318623  12.895  35.345   9.450
 5653POPC   PO418624  12.882  35.323   9.150
 5653POPC   GL118625  12.847  35.387   8.850
 5653POPC   GL218626  12.771  35.388   8.850
 5653POPC   C1A18627  12.883  35.332   8.550
 5653POPC   D2A18628  12.824  35.334   8.250
 5653POPC   C3A18629  12.841  35.316   7.950
 5653POPC   C4A18630  12.877  35.346   7.650
 5653POPC   C1B18631  12.624  35.505   8.550
 5653POPC   C2B18632  12.608  35.505   8.250
 5653POPC   C3B18633  12.628  35.526   7.950
 5653POPC   C4B18634  12.645  35.494   7.650
 5654POPC   NC318635  27.578  26.843   9.450
 5654POPC   PO418636  27.551  26.857   9.150
 5654POPC   GL118637  27.586  26.823   8.850
 5654POPC   GL218638  27.670  26.794   8.850
 5654POPC   C1A18639  27.611  26.829   8.550
 5654POPC   D2A18640  27.605  26.851   8.250
 5654POPC   C3A18641  27.569  26.850   7.950
 5654POPC   C4A18642  27.608  26.779   7.650
 5654POPC   C1B18643  27.838  26.837   8.550
 5654POPC   C2B18644  27.860  26.884   8.250
 5654POPC   C3B18645  27.884  26.814   7.950
 5654POPC   C4B18646  27.816  26.854   7.650
 5655POPC   NC318647  13.612  30.708   9.450
 5655POPC   PO418648  13.642  30.720   9.150
 5655POPC   GL118649  13.642  30.691   8.850
 5655POPC   GL218650  13.673  30.839   8.850
 5655POPC   C1A18651  13.583  30.681   8.550
 5655POPC   D2A18652  13.660  30.705   8.250
 5655POPC   C3A18653  13.648  30.655   7.950
 5655POPC   C4A18654  13.615  30.649   7.650
 5655POPC   C1B18655  13.825  30.915   8.550
 5655POPC   C2B18656  13.811  30.932   8.250
 5655POPC   C3B18657  13.805  30.890   7.950
 5655POPC   C4B18658  13.734  30.899   7.650
 5656POPC   NC318659  21.430  28.336   9.450
 5656POPC   PO418660  21.340  28.355   9.150
 5656POPC   GL118661  21.380  28.351   8.850
 5656POPC   GL218662  21.307  28.481   8.850
 5656POPC   C1A18663  21.351  28.381   8.550
 5656POPC   D2A18664  21.376  28.407   8.250
 5656POPC   C3A18665  21.338  28.329   7.950
 5656POPC   C4A18666  21.372  28.346   7.650
 5656POPC   C1B18667  21.306  28.585   8.550
 5656POPC   C2B18668  21.318  28.619   8.250
 5656POPC   C3B18669  21.234  28.558   7.950
 5656POPC   C4B18670  21.237  28.634   7.650
 5657POPC   NC318671  24.506  42.296   9.450
 5657POPC   PO418672  24.465  42.358   9.150
 5657POPC   GL118673  24.470  42.372   8.850
 5657POPC   GL218674  24.346  42.259   8.850
 5657POPC   C1A18675  24.493  42.338   8.550
 5657POPC   D2A18676  24.483  42.374   8.250
 5657POPC   C3A18677  24.477  42.345   7.950
 5657POPC   C4A18678  24.507  42.333   7.650
 5657POPC   C1B18679  24.305  42.269   8.550
 5657POPC   C2B18680  24.218  42.244   8.250
 5657POPC   C3B18681  24.229  42.218   7.950
 5657POPC   C4B18682  24.287  42.209   7.650
 5658POPC   NC318683  34.591  31.458   9.450
 5658POPC   PO418684  34.587  31.483   9.150
 5658POPC   GL118685  34.608  31.463   8.850
 5658POPC   GL218686  34.440  31.369   8.850
 5658POPC   C1A18687  34.626  31.515   8.550
 5658POPC   D2A18688  34.591  31.519   8.250
 5658POPC   C3A18689  34.547  31.443   7.950
 5658POPC   C4A18690  34.604  31.449   7.650
 5658POPC   C1B18691  34.416  31.329   8.550
 5658POPC   C2B18692  34.402  31.275   8.250
 5658POPC   C3B18693  34.335  31.345   7.950
 5658POPC   C4B18694  34.416  31.329   7.650
 5659POPC   NC318695  19.047  32.272   9.450
 5659POPC   PO418696  19.022  32.251   9.150
 5659POPC   GL118697  19.074  32.207   8.850
 5659POPC   GL218698  19.164  32.163   8.850
 5659POPC   C1A18699  19.045  32.265   8.550
 5659POPC   D2A18700  19.089  32.251   8.250
 5659POPC   C3A18701  19.016  32.288   7.950
 5659POPC   C4A18702  19.049  32.264   7.650
 5659POPC   C1B18703  19.298  32.194   8.550
 5659POPC   C2B18704  19.267  32.172   8.250
 5659POPC   C3B18705  19.267  32.171   7.950
 5659POPC   C4B18706  19.250  32.131   7.650
 5660POPC   NC318707  39.962  30.711   9.450
 5660POPC   PO418708  39.987  30.731   9.150
 5660POPC   GL118709  40.056  30.672   8.850
 5660POPC   GL218710  39.888  30.813   8.850
 5660POPC   C1A18711  39.981  30.711   8.550
 5660POPC   D2A18712  40.037  30.725   8.250
 5660POPC   C3A18713  39.993  30.685   7.950
 5660POPC   C4A18714  39.963  30.706   7.650
 5660POPC   C1B18715  39.820  30.906   8.550
 5660POPC   C2B18716  39.834  30.903   8.250
 5660POPC   C3B18717  39.840  30.900   7.950
 5660POPC   C4B18718  39.794  30.908   7.650
 5661POPC   NC318719  39.241  33.762   9.450
 5661POPC   PO418720  39.191  33.836   9.150
 5661POPC   GL118721  39.254  33.816   8.850
 5661POPC   GL218722  39.224  33.717   8.850
 5661POPC   C1A18723  39.228  33.753   8.550
 5661POPC   D2A18724  39.228  33.755   8.250
 5661POPC   C3A18725  39.206  33.751   7.950
 5661POPC   C4A18726  39.227  33.762   7.650
 5661POPC   C1B18727  39.327  33.528   8.550
 5661POPC   C2B18728  39.309  33.527   8.250
 5661POPC   C3B18729  39.260  33.535   7.950
 5661POPC   C4B18730  39.262  33.528   7.650
 5662POPC   NC318731  38.488  14.421   9.450
 5662POPC   PO418732  38.481  14.434   9.150
 5662POPC   GL118733  38.482  14.412   8.850
 5662POPC   GL218734  38.598  14.397   8.850
 5662POPC   C1A18735  38.445  14.427   8.550
 5662POPC   D2A18736  38.428  14.424   8.250
 5662POPC   C3A18737  38.412  14.443   7.950
 5662POPC   C4A18738  38.451  14.357   7.650
 5662POPC   C1B18739  38.655  14.331   8.550
 5662POPC   C2B18740  38.645  14.359   8.250
 5662POPC   C3B18741  38.695  14.314   7.950
 5662POPC   C4B18742  38.671  14.308   7.650
 5663POPC   NC318743   5.850  43.088   9.450
 5663POPC   PO418744   5.856  43.073   9.150
 5663POPC   GL118745   5.829  43.107   8.850
 5663POPC   GL218746   5.880  43.268   8.850
 5663POPC   C1A18747   5.823  43.102   8.550
 5663POPC   D2A18748   5.890  43.139   8.250
 5663POPC   C3A18749   5.826  43.158   7.950
 5663POPC   C4A18750   5.826  43.097   7.650
 5663POPC   C1B18751   5.889  43.335   8.550
 5663POPC   C2B18752   5.900  43.391   8.250
 5663POPC   C3B18753   5.926  43.356   7.950
 5663POPC   C4B18754   5.900  43.346   7.650
 5664POPC   NC318755  22.118  15.956   9.450
 5664POPC   PO418756  22.129  15.994   9.150
 5664POPC   GL118757  22.192  15.947   8.850
 5664POPC   GL218758  22.024  15.986   8.850
 5664POPC   C1A18759  22.137  15.926   8.550
 5664POPC   D2A18760  22.198  15.946   8.250
 5664POPC   C3A18761  22.205  15.956   7.950
 5664POPC   C4A18762  22.142  15.922   7.650
 5664POPC   C1B18763  21.879  15.873   8.550
 5664POPC   C2B18764  21.907  15.925   8.250
 5664POPC   C3B18765  21.872  15.895   7.950
 5664POPC   C4B18766  21.933  15.916   7.650
 5665POPC   NC318767  37.689  22.891   9.450
 5665POPC   PO418768  37.729  22.981   9.150
 5665POPC   GL118769  37.724  22.908   8.850
 5665POPC   GL218770  37.578  23.039   8.850
 5665POPC   C1A18771  37.678  22.891   8.550
 5665POPC   D2A18772  37.682  22.906   8.250
 5665POPC   C3A18773  37.685  22.942   7.950
 5665POPC   C4A18774  37.652  22.918   7.650
 5665POPC   C1B18775  37.453  23.065   8.550
 5665POPC   C2B18776  37.449  23.128   8.250
 5665POPC   C3B18777  37.457  23.044   7.950
 5665POPC   C4B18778  37.510  23.042   7.650
 5666POPC   NC318779  15.143  43.147   9.450
 5666POPC   PO418780  15.202  43.133   9.150
 5666POPC   GL118781  15.207  43.137   8.850
 5666POPC   GL218782  15.081  43.108   8.850
 5666POPC   C1A18783  15.132  43.140   8.550
 5666POPC   D2A18784  15.187  43.087   8.250
 5666POPC   C3A18785  15.186  43.088   7.950
 5666POPC   C4A18786  15.209  43.071   7.650
 5666POPC   C1B18787  14.938  43.063   8.550
 5666POPC   C2B18788  14.932  43.080   8.250
 5666POPC   C3B18789  14.892  43.097   7.950
 5666POPC   C4B18790  14.943  43.058   7.650
 5667POPC   NC318791  15.994   0.406   9.450
 5667POPC   PO418792  15.921   0.486   9.150
 5667POPC   GL118793  15.968   0.412   8.850
 5667POPC   GL218794  16.023   0.479   8.850
 5667POPC   C1A18795  15.977   0.486   8.550
 5667POPC   D2A18796  15.977   0.475   8.250
 5667POPC   C3A18797  15.988   0.434   7.950
 5667POPC   C4A18798  15.934   0.465   7.650
 5667POPC   C1B18799  16.154   0.576   8.550
 5667POPC   C2B18800  16.129   0.615   8.250
 5667POPC   C3B18801  16.152   0.587   7.950
 5667POPC   C4B18802  16.158   0.598   7.650
 5668POPC   NC318803  23.734  17.472   9.450
 5668POPC   PO418804  23.704  17.475   9.150
 5668POPC   GL118805  23.714  17.508   8.850
 5668POPC   GL218806  23.769  17.374   8.850
 5668POPC   C1A18807  23.703  17.530   8.550
 5668POPC   D2A18808  23.761  17.501   8.250
 5668POPC   C3A18809  23.700  17.514   7.950
 5668POPC   C4A18810  23.714  17.457   7.650
 5668POPC   C1B18811  23.808  17.273   8.550
 5668POPC   C2B18812  23.777  17.263   8.250
 5668POPC   C3B18813  23.796  17.257   7.950
 5668POPC   C4B18814  23.825  17.238   7.650
 5669POPC   NC318815   0.431   6.606   9.450
 5669POPC   PO418816   0.417   6.640   9.150
 5669POPC   GL118817   0.453   6.669   8.850
 5669POPC   GL218818   0.523   6.611   8.850
 5669POPC   C1A18819   0.481   6.688   8.550
 5669POPC   D2A18820   0.416   6.682   8.250
 5669POPC   C3A18821   0.419   6.690   7.950
 5669POPC   C4A18822   0.424   6.633   7.650
 5669POPC   C1B18823   0.689   6.485   8.550
 5669POPC   C2B18824   0.601   6.500   8.250
 5669POPC   C3B18825   0.680   6.511   7.950
 5669POPC   C4B18826   0.618   6.534   7.650
 5670POPC   NC318827  44.627   1.979   9.450
 5670POPC   PO418828  44.690   1.949   9.150
 5670POPC   GL118829  44.698   1.975   8.850
 5670POPC   GL218830  44.590   2.102   8.850
 5670POPC   C1A18831  44.705   1.955   8.550
 5670POPC   D2A18832  44.677   1.955   8.250
 5670POPC   C3A18833  44.683   1.963   7.950
 5670POPC   C4A18834  44.659   1.992   7.650
 5670POPC   C1B18835  44.421   2.108   8.550
 5670POPC   C2B18836  44.435   2.167   8.250
 5670POPC   C3B18837  44.467   2.169   7.950
 5670POPC   C4B18838  44.480   2.160   7.650
 5671POPC   NC318839  35.393  28.319   9.450
 5671POPC   PO418840  35.354  28.371   9.150
 5671POPC   GL118841  35.345  28.410   8.850
 5671POPC   GL218842  35.403  28.457   8.850
 5671POPC   C1A18843  35.364  28.406   8.550
 5671POPC   D2A18844  35.343  28.381   8.250
 5671POPC   C3A18845  35.380  28.338   7.950
 5671POPC   C4A18846  35.356  28.402   7.650
 5671POPC   C1B18847  35.512  28.537   8.550
 5671POPC   C2B18848  35.495  28.578   8.250
 5671POPC   C3B18849  35.540  28.594   7.950
 5671POPC   C4B18850  35.518  28.568   7.650
 5672POPC   NC318851  16.769  17.463   9.450
 5672POPC   PO418852  16.742  17.467   9.150
 5672POPC   GL118853  16.767  17.509   8.850
 5672POPC   GL218854  16.602  17.552   8.850
 5672POPC   C1A18855  16.768  17.488   8.550
 5672POPC   D2A18856  16.737  17.516   8.250
 5672POPC   C3A18857  16.701  17.493   7.950
 5672POPC   C4A18858  16.714  17.479   7.650
 5672POPC   C1B18859  16.508  17.544   8.550
 5672POPC   C2B18860  16.515  17.565   8.250
 5672POPC   C3B18861  16.518  17.489   7.950
 5672POPC   C4B18862  16.449  17.573   7.650
 5673POPC   NC318863  38.442  42.378   9.450
 5673POPC   PO418864  38.447  42.313   9.150
 5673POPC   GL118865  38.420  42.309   8.850
 5673POPC   GL218866  38.431  42.484   8.850
 5673POPC   C1A18867  38.495  42.304   8.550
 5673POPC   D2A18868  38.410  42.345   8.250
 5673POPC   C3A18869  38.425  42.375   7.950
 5673POPC   C4A18870  38.478  42.347   7.650
 5673POPC   C1B18871  38.447  42.629   8.550
 5673POPC   C2B18872  38.442  42.586   8.250
 5673POPC   C3B18873  38.401  42.568   7.950
 5673POPC   C4B18874  38.390  42.598   7.650
 5674POPC   NC318875   8.976  12.046   9.450
 5674POPC   PO418876   8.997  12.089   9.150
 5674POPC   GL118877   8.928  12.055   8.850
 5674POPC   GL218878   8.879  12.043   8.850
 5674POPC   C1A18879   9.006  12.084   8.550
 5674POPC   D2A18880   8.953  12.122   8.250
 5674POPC   C3A18881   8.956  12.046   7.950
 5674POPC   C4A18882   8.999  12.030   7.650
 5674POPC   C1B18883   8.706  12.060   8.550
 5674POPC   C2B18884   8.733  12.051   8.250
 5674POPC   C3B18885   8.736  12.114   7.950
 5674POPC   C4B18886   8.717  12.118   7.650
 5675POPC   NC318887  44.670  11.267   9.450
 5675POPC   PO418888  44.710  11.287   9.150
 5675POPC   GL118889  44.701  11.324   8.850
 5675POPC   GL218890  44.515  11.342   8.850
 5675POPC   C1A18891  44.640  11.267   8.550
 5675POPC   D2A18892  44.648  11.296   8.250
 5675POPC   C3A18893  44.678  11.329   7.950
 5675POPC   C4A18894  44.693  11.254   7.650
 5675POPC   C1B18895  44.377  11.384   8.550
 5675POPC   C2B18896  44.426  11.397   8.250
 5675POPC   C3B18897  44.411  11.327   7.950
 5675POPC   C4B18898  44.461  11.349   7.650
 5676POPC   NC318899  10.501  12.869   9.450
 5676POPC   PO418900  10.483  12.858   9.150
 5676POPC   GL118901  10.484  12.872   8.850
 5676POPC   GL218902  10.655  12.898   8.850
 5676POPC   C1A18903  10.494  12.819   8.550
 5676POPC   D2A18904  10.560  12.846   8.250
 5676POPC   C3A18905  10.486  12.858   7.950
 5676POPC   C4A18906  10.545  12.846   7.650
 5676POPC   C1B18907  10.717  12.906   8.550
 5676POPC   C2B18908  10.761  12.972   8.250
 5676POPC   C3B18909  10.796  12.937   7.950
 5676POPC   C4B18910  10.755  12.927   7.650
 5677POPC   NC318911  12.899  17.507   9.450
 5677POPC   PO418912  12.804  17.508   9.150
 5677POPC   GL118913  12.885  17.464   8.850
 5677POPC   GL218914  12.712  17.503   8.850
 5677POPC   C1A18915  12.881  17.483   8.550
 5677POPC   D2A18916  12.805  17.543   8.250
 5677POPC   C3A18917  12.898  17.494   7.950
 5677POPC   C4A18918  12.854  17.496   7.650
 5677POPC   C1B18919  12.591  17.411   8.550
 5677POPC   C2B18920  12.582  17.423   8.250
 5677POPC   C3B18921  12.627  17.430   7.950
 5677POPC   C4B18922  12.633  17.419   7.650
 5678POPC   NC318923  12.069  17.511   9.450
 5678POPC   PO418924  12.041  17.495   9.150
 5678POPC   GL118925  12.059  17.509   8.850
 5678POPC   GL218926  12.082  17.372   8.850
 5678POPC   C1A18927  12.044  17.514   8.550
 5678POPC   D2A18928  12.068  17.523   8.250
 5678POPC   C3A18929  12.059  17.511   7.950
 5678POPC   C4A18930  12.027  17.490   7.650
 5678POPC   C1B18931  12.081  17.219   8.550
 5678POPC   C2B18932  12.112  17.225   8.250
 5678POPC   C3B18933  12.116  17.225   7.950
 5678POPC   C4B18934  12.063  17.273   7.650
 5679POPC   NC318935  26.075  31.451   9.450
 5679POPC   PO418936  26.045  31.498   9.150
 5679POPC   GL118937  26.020  31.475   8.850
 5679POPC   GL218938  26.031  31.403   8.850
 5679POPC   C1A18939  26.030  31.491   8.550
 5679POPC   D2A18940  26.069  31.433   8.250
 5679POPC   C3A18941  26.079  31.455   7.950
 5679POPC   C4A18942  26.069  31.485   7.650
 5679POPC   C1B18943  25.947  31.225   8.550
 5679POPC   C2B18944  25.950  31.292   8.250
 5679POPC   C3B18945  25.916  31.250   7.950
 5679POPC   C4B18946  25.973  31.292   7.650
 5680POPC   NC318947  29.186  12.083   9.450
 5680POPC   PO418948  29.143  12.063   9.150
 5680POPC   GL118949  29.187  12.092   8.850
 5680POPC   GL218950  29.301  12.116   8.850
 5680POPC   C1A18951  29.137  12.029   8.550
 5680POPC   D2A18952  29.162  12.031   8.250
 5680POPC   C3A18953  29.108  12.076   7.950
 5680POPC   C4A18954  29.112  12.120   7.650
 5680POPC   C1B18955  29.372  12.202   8.550
 5680POPC   C2B18956  29.335  12.195   8.250
 5680POPC   C3B18957  29.351  12.195   7.950
 5680POPC   C4B18958  29.332  12.197   7.650
 5681POPC   NC318959  24.509  30.665   9.450
 5681POPC   PO418960  24.535  30.708   9.150
 5681POPC   GL118961  24.462  30.735   8.850
 5681POPC   GL218962  24.554  30.794   8.850
 5681POPC   C1A18963  24.460  30.722   8.550
 5681POPC   D2A18964  24.496  30.685   8.250
 5681POPC   C3A18965  24.488  30.715   7.950
 5681POPC   C4A18966  24.443  30.714   7.650
 5681POPC   C1B18967  24.617  30.970   8.550
 5681POPC   C2B18968  24.558  30.968   8.250
 5681POPC   C3B18969  24.534  30.892   7.950
 5681POPC   C4B18970  24.581  30.953   7.650
 5682POPC   NC318971  19.087  43.149   9.450
 5682POPC   PO418972  19.087  43.095   9.150
 5682POPC   GL118973  19.094  43.119   8.850
 5682POPC   GL218974  18.966  43.196   8.850
 5682POPC   C1A18975  19.083  43.096   8.550
 5682POPC   D2A18976  19.080  43.094   8.250
 5682POPC   C3A18977  19.039  43.097   7.950
 5682POPC   C4A18978  19.090  43.131   7.650
 5682POPC   C1B18979  18.988  43.356   8.550
 5682POPC   C2B18980  19.001  43.305   8.250
 5682POPC   C3B18981  18.937  43.390   7.950
 5682POPC   C4B18982  18.917  43.312   7.650
 5683POPC   NC318983  39.200  28.364   9.450
 5683POPC   PO418984  39.240  28.384   9.150
 5683POPC   GL118985  39.202  28.365   8.850
 5683POPC   GL218986  39.387  28.397   8.850
 5683POPC   C1A18987  39.255  28.372   8.550
 5683POPC   D2A18988  39.214  28.349   8.250
 5683POPC   C3A18989  39.212  28.400   7.950
 5683POPC   C4A18990  39.245  28.372   7.650
 5683POPC   C1B18991  39.484  28.431   8.550
 5683POPC   C2B18992  39.429  28.447   8.250
 5683POPC   C3B18993  39.434  28.447   7.950
 5683POPC   C4B18994  39.446  28.439   7.650
 5684POPC   NC318995  43.883   4.331   9.450
 5684POPC   PO418996  43.871   4.364   9.150
 5684POPC   GL118997  43.870   4.365   8.850
 5684POPC   GL218998  43.747   4.342   8.850
 5684POPC   C1A18999  43.910   4.307   8.550
 5684POPC   D2A19000  43.854   4.270   8.250
 5684POPC   C3A19001  43.929   4.328   7.950
 5684POPC   C4A19002  43.878   4.281   7.650
 5684POPC   C1B19003  43.648   4.432   8.550
 5684POPC   C2B19004  43.672   4.390   8.250
 5684POPC   C3B19005  43.693   4.415   7.950
 5684POPC   C4B19006  43.636   4.440   7.650
 5685POPC   NC319007  32.291   3.507   9.450
 5685POPC   PO419008  32.238   3.572   9.150
 5685POPC   GL119009  32.247   3.570   8.850
 5685POPC   GL219010  32.199   3.678   8.850
 5685POPC   C1A19011  32.279   3.558   8.550
 5685POPC   D2A19012  32.289   3.537   8.250
 5685POPC   C3A19013  32.251   3.514   7.950
 5685POPC   C4A19014  32.222   3.581   7.650
 5685POPC   C1B19015  32.131   3.758   8.550
 5685POPC   C2B19016  32.139   3.711   8.250
 5685POPC   C3B19017  32.113   3.740   7.950
 5685POPC   C4B19018  32.085   3.709   7.650
 5686POPC   NC319019  12.867  36.097   9.450
 5686POPC   PO419020  12.818  36.128   9.150
 5686POPC   GL119021  12.901  36.085   8.850
 5686POPC   GL219022  12.762  36.036   8.850
 5686POPC   C1A19023  12.811  36.080   8.550
 5686POPC   D2A19024  12.888  36.153   8.250
 5686POPC   C3A19025  12.864  36.148   7.950
 5686POPC   C4A19026  12.893  36.155   7.650
 5686POPC   C1B19027  12.772  35.880   8.550
 5686POPC   C2B19028  12.773  35.852   8.250
 5686POPC   C3B19029  12.757  35.934   7.950
 5686POPC   C4B19030  12.765  35.851   7.650
 5687POPC   NC319031  10.491  34.588   9.450
 5687POPC   PO419032  10.528  34.535   9.150
 5687POPC   GL119033  10.532  34.583   8.850
 5687POPC   GL219034  10.576  34.528   8.850
 5687POPC   C1A19035  10.564  34.599   8.550
 5687POPC   D2A19036  10.508  34.553   8.250
 5687POPC   C3A19037  10.541  34.582   7.950
 5687POPC   C4A19038  10.482  34.571   7.650
 5687POPC   C1B19039  10.734  34.401   8.550
 5687POPC   C2B19040  10.643  34.418   8.250
 5687POPC   C3B19041  10.655  34.385   7.950
 5687POPC   C4B19042  10.644  34.336   7.650
 5688POPC   NC319043   7.374  22.937   9.450
 5688POPC   PO419044   7.384  22.959   9.150
 5688POPC   GL119045   7.381  22.907   8.850
 5688POPC   GL219046   7.365  23.093   8.850
 5688POPC   C1A19047   7.398  22.972   8.550
 5688POPC   D2A19048   7.392  22.899   8.250
 5688POPC   C3A19049   7.397  22.985   7.950
 5688POPC   C4A19050   7.430  22.979   7.650
 5688POPC   C1B19051   7.388  23.220   8.550
 5688POPC   C2B19052   7.369  23.208   8.250
 5688POPC   C3B19053   7.311  23.188   7.950
 5688POPC   C4B19054   7.359  23.210   7.650
 5689POPC   NC319055  37.715  39.234   9.450
 5689POPC   PO419056  37.707  39.250   9.150
 5689POPC   GL119057  37.652  39.274   8.850
 5689POPC   GL219058  37.544  39.130   8.850
 5689POPC   C1A19059  37.651  39.191   8.550
 5689POPC   D2A19060  37.649  39.210   8.250
 5689POPC   C3A19061  37.664  39.218   7.950
 5689POPC   C4A19062  37.697  39.213   7.650
 5689POPC   C1B19063  37.436  39.110   8.550
 5689POPC   C2B19064  37.445  39.094   8.250
 5689POPC   C3B19065  37.451  39.063   7.950
 5689POPC   C4B19066  37.494  39.067   7.650
 5690POPC   NC319067   1.197  37.723   9.450
 5690POPC   PO419068   1.226  37.676   9.150
 5690POPC   GL119069   1.260  37.727   8.850
 5690POPC   GL219070   1.263  37.771   8.850
 5690POPC   C1A19071   1.263  37.694   8.550
 5690POPC   D2A19072   1.173  37.696   8.250
 5690POPC   C3A19073   1.191  37.666   7.950
 5690POPC   C4A19074   1.254  37.669   7.650
 5690POPC   C1B19075   1.416  37.843   8.550
 5690POPC   C2B19076   1.368  37.838   8.250
 5690POPC   C3B19077   1.399  37.832   7.950
 5690POPC   C4B19078   1.363  37.796   7.650
 5691POPC   NC319079  27.547  44.634   9.450
 5691POPC   PO419080  27.608  44.670   9.150
 5691POPC   GL119081  27.637  44.704   8.850
 5691POPC   GL219082  27.694  44.615   8.850
 5691POPC   C1A19083  27.629  44.690   8.550
 5691POPC   D2A19084  27.638  44.693   8.250
 5691POPC   C3A19085  27.613  44.635   7.950
 5691POPC   C4A19086  27.638  44.707   7.650
 5691POPC   C1B19087  27.791  44.534   8.550
 5691POPC   C2B19088  27.773  44.508   8.250
 5691POPC   C3B19089  27.814  44.531   7.950
 5691POPC   C4B19090  27.783  44.567   7.650
 5692POPC   NC319091  43.122  40.807   9.450
 5692POPC   PO419092  43.105  40.782   9.150
 5692POPC   GL119093  43.139  40.824   8.850
 5692POPC   GL219094  43.139  40.625   8.850
 5692POPC   C1A19095  43.123  40.799   8.550
 5692POPC   D2A19096  43.144  40.823   8.250
 5692POPC   C3A19097  43.110  40.804   7.950
 5692POPC   C4A19098  43.123  40.767   7.650
 5692POPC   C1B19099  43.207  40.571   8.550
 5692POPC   C2B19100  43.198  40.517   8.250
 5692POPC   C3B19101  43.158  40.555   7.950
 5692POPC   C4B19102  43.208  40.499   7.650
 5693POPC   NC319103  38.498  32.211   9.450
 5693POPC   PO419104  38.495  32.291   9.150
 5693POPC   GL119105  38.457  32.252   8.850
 5693POPC   GL219106  38.601  32.360   8.850
 5693POPC   C1A19107  38.479  32.278   8.550
 5693POPC   D2A19108  38.421  32.231   8.250
 5693POPC   C3A19109  38.442  32.279   7.950
 5693POPC   C4A19110  38.481  32.209   7.650
 5693POPC   C1B19111  38.689  32.409   8.550
 5693POPC   C2B19112  38.697  32.368   8.250
 5693POPC   C3B19113  38.653  32.437   7.950
 5693POPC   C4B19114  38.625  32.348   7.650
 5694POPC   NC319115  20.607  18.236   9.450
 5694POPC   PO419116  20.618  18.305   9.150
 5694POPC   GL119117  20.628  18.273   8.850
 5694POPC   GL219118  20.687  18.206   8.850
 5694POPC   C1A19119  20.596  18.273   8.550
 5694POPC   D2A19120  20.650  18.326   8.250
 5694POPC   C3A19121  20.633  18.237   7.950
 5694POPC   C4A19122  20.580  18.234   7.650
 5694POPC   C1B19123  20.757  18.093   8.550
 5694POPC   C2B19124  20.828  18.061   8.250
 5694POPC   C3B19125  20.835  18.128   7.950
 5694POPC   C4B19126  20.805  18.099   7.650
 5695POPC   NC319127  10.539  19.796   9.450
 5695POPC   PO419128  10.546  19.871   9.150
 5695POPC   GL119129  10.561  19.816   8.850
 5695POPC   GL219130  10.489  19.986   8.850
 5695POPC   C1A19131  10.501  19.859   8.550
 5695POPC   D2A19132  10.488  19.850   8.250
 5695POPC   C3A19133  10.476  19.871   7.950
 5695POPC   C4A19134  10.500  19.799   7.650
 5695POPC   C1B19135  10.403  20.060   8.550
 5695POPC   C2B19136  10.385  20.092   8.250
 5695POPC   C3B19137  10.406  20.041   7.950
 5695POPC   C4B19138  10.453  20.072   7.650
 5696POPC   NC319139   1.987   7.456   9.450
 5696POPC   PO419140   1.950   7.428   9.150
 5696POPC   GL119141   1.970   7.456   8.850
 5696POPC   GL219142   2.130   7.381   8.850
 5696POPC   C1A19143   2.001   7.396   8.550
 5696POPC   D2A19144   2.007   7.422   8.250
 5696POPC   C3A19145   2.004   7.378   7.950
 5696POPC   C4A19146   1.970   7.395   7.650
 5696POPC   C1B19147   2.224   7.264   8.550
 5696POPC   C2B19148   2.162   7.291   8.250
 5696POPC   C3B19149   2.158   7.290   7.950
 5696POPC   C4B19150   2.190   7.229   7.650
 5697POPC   NC319151  30.699  19.066   9.450
 5697POPC   PO419152  30.735  19.061   9.150
 5697POPC   GL119153  30.737  19.058   8.850
 5697POPC   GL219154  30.595  19.025   8.850
 5697POPC   C1A19155  30.728  19.069   8.550
 5697POPC   D2A19156  30.732  19.015   8.250
 5697POPC   C3A19157  30.715  19.052   7.950
 5697POPC   C4A19158  30.680  19.070   7.650
 5697POPC   C1B19159  30.435  18.949   8.550
 5697POPC   C2B19160  30.492  18.925   8.250
 5697POPC   C3B19161  30.414  18.993   7.950
 5697POPC   C4B19162  30.475  18.996   7.650
 5698POPC   NC319163  43.892  31.487   9.450
 5698POPC   PO419164  43.836  31.439   9.150
 5698POPC   GL119165  43.876  31.452   8.850
 5698POPC   GL219166  43.970  31.374   8.850
 5698POPC   C1A19167  43.895  31.501   8.550
 5698POPC   D2A19168  43.900  31.430   8.250
 5698POPC   C3A19169  43.870  31.453   7.950
 5698POPC   C4A19170  43.867  31.468   7.650
 5698POPC   C1B19171  44.066  31.310   8.550
 5698POPC   C2B19172  44.091  31.358   8.250
 5698POPC   C3B19173  44.093  31.336   7.950
 5698POPC   C4B19174  44.110  31.339   7.650
 5699POPC   NC319175  23.722  22.963   9.450
 5699POPC   PO419176  23.679  22.923   9.150
 5699POPC   GL119177  23.726  22.935   8.850
 5699POPC   GL219178  23.833  23.020   8.850
 5699POPC   C1A19179  23.705  22.972   8.550
 5699POPC   D2A19180  23.702  22.916   8.250
 5699POPC   C3A19181  23.702  22.920   7.950
 5699POPC   C4A19182  23.701  22.929   7.650
 5699POPC   C1B19183  23.913  23.025   8.550
 5699POPC   C2B19184  23.899  23.070   8.250
 5699POPC   C3B19185  23.964  22.978   7.950
 5699POPC   C4B19186  23.982  23.065   7.650
 5700POPC   NC319187   0.409  36.107   9.450
 5700POPC   PO419188   0.485  36.171   9.150
 5700POPC   GL119189   0.453  36.128   8.850
 5700POPC   GL219190   0.420  36.231   8.850
 5700POPC   C1A19191   0.473  36.088   8.550
 5700POPC   D2A19192   0.460  36.084   8.250
 5700POPC   C3A19193   0.483  36.118   7.950
 5700POPC   C4A19194   0.461  36.100   7.650
 5700POPC   C1B19195   0.433  36.333   8.550
 5700POPC   C2B19196   0.362  36.381   8.250
 5700POPC   C3B19197   0.379  36.384   7.950
 5700POPC   C4B19198   0.409  36.336   7.650
 5701POPC   NC319199  11.336  29.962   9.450
 5701POPC   PO419200  11.335  29.902   9.150
 5701POPC   GL119201  11.269  29.889   8.850
 5701POPC   GL219202  11.278  29.799   8.850
 5701POPC   C1A19203  11.334  29.967   8.550
 5701POPC   D2A19204  11.331  29.917   8.250
 5701POPC   C3A19205  11.315  29.914   7.950
 5701POPC   C4A19206  11.267  29.890   7.650
 5701POPC   C1B19207  11.260  29.663   8.550
 5701POPC   C2B19208  11.355  29.686   8.250
 5701POPC   C3B19209  11.295  29.667   7.950
 5701POPC   C4B19210  11.282  29.682   7.650
 5702POPC   NC319211  16.749  19.045   9.450
 5702POPC   PO419212  16.687  19.105   9.150
 5702POPC   GL119213  16.712  19.042   8.850
 5702POPC   GL219214  16.601  19.096   8.850
 5702POPC   C1A19215  16.775  19.044   8.550
 5702POPC   D2A19216  16.736  19.081   8.250
 5702POPC   C3A19217  16.689  19.036   7.950
 5702POPC   C4A19218  16.775  19.026   7.650
 5702POPC   C1B19219  16.523  19.229   8.550
 5702POPC   C2B19220  16.568  19.170   8.250
 5702POPC   C3B19221  16.507  19.186   7.950
 5702POPC   C4B19222  16.517  19.215   7.650
 5703POPC   NC319223   1.219  22.155   9.450
 5703POPC   PO419224   1.237  22.188   9.150
 5703POPC   GL119225   1.181  22.154   8.850
 5703POPC   GL219226   1.069  22.112   8.850
 5703POPC   C1A19227   1.243  22.208   8.550
 5703POPC   D2A19228   1.212  22.189   8.250
 5703POPC   C3A19229   1.253  22.196   7.950
 5703POPC   C4A19230   1.252  22.130   7.650
 5703POPC   C1B19231   0.964  22.044   8.550
 5703POPC   C2B19232   1.026  22.117   8.250
 5703POPC   C3B19233   0.998  22.053   7.950
 5703POPC   C4B19234   0.959  22.071   7.650
 5704POPC   NC319235  12.078  23.734   9.450
 5704POPC   PO419236  12.094  23.712   9.150
 5704POPC   GL119237  12.051  23.746   8.850
 5704POPC   GL219238  12.222  23.686   8.850
 5704POPC   C1A19239  12.054  23.734   8.550
 5704POPC   D2A19240  12.081  23.692   8.250
 5704POPC   C3A19241  12.104  23.743   7.950
 5704POPC   C4A19242  12.044  23.741   7.650
 5704POPC   C1B19243  12.293  23.714   8.550
 5704POPC   C2B19244  12.347  23.677   8.250
 5704POPC   C3B19245  12.298  23.745   7.950
 5704POPC   C4B19246  12.310  23.722   7.650
 5705POPC   NC319247  43.887  16.758   9.450
 5705POPC   PO419248  43.846  16.773   9.150
 5705POPC   GL119249  43.842  16.779   8.850
 5705POPC   GL219250  43.978  16.642   8.850
 5705POPC   C1A19251  43.866  16.741   8.550
 5705POPC   D2A19252  43.900  16.734   8.250
 5705POPC   C3A19253  43.923  16.746   7.950
 5705POPC   C4A19254  43.855  16.739   7.650
 5705POPC   C1B19255  44.076  16.627   8.550
 5705POPC   C2B19256  44.106  16.655   8.250
 5705POPC   C3B19257  44.086  16.643   7.950
 5705POPC   C4B19258  44.139  16.639   7.650
 5706POPC   NC319259   7.374  15.908   9.450
 5706POPC   PO419260   7.437  15.985   9.150
 5706POPC   GL119261   7.424  15.910   8.850
 5706POPC   GL219262   7.532  15.935   8.850
 5706POPC   C1A19263   7.377  15.940   8.550
 5706POPC   D2A19264   7.466  15.995   8.250
 5706POPC   C3A19265   7.440  15.932   7.950
 5706POPC   C4A19266   7.464  15.907   7.650
 5706POPC   C1B19267   7.689  15.948   8.550
 5706POPC   C2B19268   7.676  15.990   8.250
 5706POPC   C3B19269   7.632  15.983   7.950
 5706POPC   C4B19270   7.672  15.961   7.650
 5707POPC   NC319271   6.666   5.880   9.450
 5707POPC   PO419272   6.622   5.827   9.150
 5707POPC   GL119273   6.648   5.874   8.850
 5707POPC   GL219274   6.632   5.704   8.850
 5707POPC   C1A19275   6.659   5.867   8.550
 5707POPC   D2A19276   6.625   5.833   8.250
 5707POPC   C3A19277   6.616   5.855   7.950
 5707POPC   C4A19278   6.627   5.826   7.650
 5707POPC   C1B19279   6.524   5.677   8.550
 5707POPC   C2B19280   6.522   5.632   8.250
 5707POPC   C3B19281   6.579   5.613   7.950
 5707POPC   C4B19282   6.525   5.654   7.650
 5708POPC   NC319283   2.808   3.506   9.450
 5708POPC   PO419284   2.736   3.562   9.150
 5708POPC   GL119285   2.785   3.526   8.850
 5708POPC   GL219286   2.864   3.621   8.850
 5708POPC   C1A19287   2.802   3.566   8.550
 5708POPC   D2A19288   2.794   3.558   8.250
 5708POPC   C3A19289   2.766   3.574   7.950
 5708POPC   C4A19290   2.732   3.536   7.650
 5708POPC   C1B19291   3.020   3.685   8.550
 5708POPC   C2B19292   2.957   3.691   8.250
 5708POPC   C3B19293   2.960   3.616   7.950
 5708POPC   C4B19294   3.027   3.631   7.650
 5709POPC   NC319295  22.177   5.900   9.450
 5709POPC   PO419296  22.142   5.844   9.150
 5709POPC   GL119297  22.124   5.862   8.850
 5709POPC   GL219298  22.267   5.878   8.850
 5709POPC   C1A19299  22.201   5.851   8.550
 5709POPC   D2A19300  22.125   5.826   8.250
 5709POPC   C3A19301  22.137   5.890   7.950
 5709POPC   C4A19302  22.196   5.821   7.650
 5709POPC   C1B19303  22.420   5.946   8.550
 5709POPC   C2B19304  22.454   5.936   8.250
 5709POPC   C3B19305  22.368   5.924   7.950
 5709POPC   C4B19306  22.410   5.856   7.650
 5710POPC   NC319307  41.566  44.637   9.450
 5710POPC   PO419308  41.594  44.673   9.150
 5710POPC   GL119309  41.532  44.629   8.850
 5710POPC   GL219310  41.670  44.606   8.850
 5710POPC   C1A19311  41.536  44.664   8.550
 5710POPC   D2A19312  41.599  44.627   8.250
 5710POPC   C3A19313  41.537  44.629   7.950
 5710POPC   C4A19314  41.551  44.673   7.650
 5710POPC   C1B19315  41.758  44.529   8.550
 5710POPC   C2B19316  41.710  44.527   8.250
 5710POPC   C3B19317  41.690  44.512   7.950
 5710POPC   C4B19318  41.774  44.447   7.650
 5711POPC   NC319319   5.845   8.986   9.450
 5711POPC   PO419320   5.908   9.022   9.150
 5711POPC   GL119321   5.825   9.003   8.850
 5711POPC   GL219322   5.858   9.065   8.850
 5711POPC   C1A19323   5.882   9.001   8.550
 5711POPC   D2A19324   5.843   8.959   8.250
 5711POPC   C3A19325   5.830   8.984   7.950
 5711POPC   C4A19326   5.876   8.952   7.650
 5711POPC   C1B19327   5.887   9.271   8.550
 5711POPC   C2B19328   5.875   9.179   8.250
 5711POPC   C3B19329   5.878   9.267   7.950
 5711POPC   C4B19330   5.895   9.238   7.650
 5712POPC   NC319331  32.238  40.768   9.450
 5712POPC   PO419332  32.265  40.824   9.150
 5712POPC   GL119333  32.279  40.758   8.850
 5712POPC   GL219334  32.415  40.842   8.850
 5712POPC   C1A19335  32.268  40.789   8.550
 5712POPC   D2A19336  32.202  40.736   8.250
 5712POPC   C3A19337  32.254  40.825   7.950
 5712POPC   C4A19338  32.233  40.811   7.650
 5712POPC   C1B19339  32.502  40.822   8.550
 5712POPC   C2B19340  32.448  40.795   8.250
 5712POPC   C3B19341  32.468  40.774   7.950
 5712POPC   C4B19342  32.465  40.861   7.650
 5713POPC   NC319343  43.071  16.750   9.450
 5713POPC   PO419344  43.138  16.730   9.150
 5713POPC   GL119345  43.090  16.770   8.850
 5713POPC   GL219346  42.996  16.732   8.850
 5713POPC   C1A19347  43.109  16.775   8.550
 5713POPC   D2A19348  43.067  16.740   8.250
 5713POPC   C3A19349  43.103  16.707   7.950
 5713POPC   C4A19350  43.073  16.695   7.650
 5713POPC   C1B19351  42.823  16.844   8.550
 5713POPC   C2B19352  42.835  16.784   8.250
 5713POPC   C3B19353  42.859  16.787   7.950
 5713POPC   C4B19354  42.884  16.824   7.650
 5714POPC   NC319355  43.865   9.750   9.450
 5714POPC   PO419356  43.913   9.741   9.150
 5714POPC   GL119357  43.906   9.754   8.850
 5714POPC   GL219358  43.844   9.902   8.850
 5714POPC   C1A19359  43.933   9.738   8.550
 5714POPC   D2A19360  43.842   9.724   8.250
 5714POPC   C3A19361  43.873   9.741   7.950
 5714POPC   C4A19362  43.930   9.732   7.650
 5714POPC   C1B19363  43.880  10.029   8.550
 5714POPC   C2B19364  43.857   9.986   8.250
 5714POPC   C3B19365  43.864   9.955   7.950
 5714POPC   C4B19366  43.895   9.981   7.650
 5715POPC   NC319367  14.396  20.644   9.450
 5715POPC   PO419368  14.399  20.628   9.150
 5715POPC   GL119369  14.399  20.579   8.850
 5715POPC   GL219370  14.402  20.479   8.850
 5715POPC   C1A19371  14.410  20.601   8.550
 5715POPC   D2A19372  14.404  20.605   8.250
 5715POPC   C3A19373  14.403  20.651   7.950
 5715POPC   C4A19374  14.394  20.605   7.650
 5715POPC   C1B19375  14.335  20.345   8.550
 5715POPC   C2B19376  14.335  20.376   8.250
 5715POPC   C3B19377  14.325  20.342   7.950
 5715POPC   C4B19378  14.325  20.353   7.650
 5716POPC   NC319379  27.639  18.298   9.450
 5716POPC   PO419380  27.546  18.320   9.150
 5716POPC   GL119381  27.574  18.238   8.850
 5716POPC   GL219382  27.689  18.209   8.850
 5716POPC   C1A19383  27.592  18.254   8.550
 5716POPC   D2A19384  27.624  18.249   8.250
 5716POPC   C3A19385  27.545  18.250   7.950
 5716POPC   C4A19386  27.569  18.313   7.650
 5716POPC   C1B19387  27.775  18.072   8.550
 5716POPC   C2B19388  27.739  18.061   8.250
 5716POPC   C3B19389  27.689  18.088   7.950
 5716POPC   C4B19390  27.693  18.110   7.650
 5717POPC   NC319391  12.834  10.553   9.450
 5717POPC   PO419392  12.874  10.550   9.150
 5717POPC   GL119393  12.889  10.483   8.850
 5717POPC   GL219394  12.735  10.453   8.850
 5717POPC   C1A19395  12.825  10.527   8.550
 5717POPC   D2A19396  12.898  10.527   8.250
 5717POPC   C3A19397  12.890  10.498   7.950
 5717POPC   C4A19398  12.806  10.564   7.650
 5717POPC   C1B19399  12.571  10.477   8.550
 5717POPC   C2B19400  12.593  10.478   8.250
 5717POPC   C3B19401  12.653  10.486   7.950
 5717POPC   C4B19402  12.633  10.427   7.650
 5718POPC   NC319403  31.472  35.365   9.450
 5718POPC   PO419404  31.514  35.351   9.150
 5718POPC   GL119405  31.516  35.312   8.850
 5718POPC   GL219406  31.365  35.318   8.850
 5718POPC   C1A19407  31.516  35.315   8.550
 5718POPC   D2A19408  31.466  35.343   8.250
 5718POPC   C3A19409  31.436  35.346   7.950
 5718POPC   C4A19410  31.425  35.392   7.650
 5718POPC   C1B19411  31.259  35.251   8.550
 5718POPC   C2B19412  31.240  35.277   8.250
 5718POPC   C3B19413  31.196  35.299   7.950
 5718POPC   C4B19414  31.181  35.326   7.650
 5719POPC   NC319415  32.214  18.296   9.450
 5719POPC   PO419416  32.237  18.271   9.150
 5719POPC   GL119417  32.251  18.297   8.850
 5719POPC   GL219418  32.306  18.418   8.850
 5719POPC   C1A19419  32.266  18.324   8.550
 5719POPC   D2A19420  32.232  18.310   8.250
 5719POPC   C3A19421  32.297  18.314   7.950
 5719POPC   C4A19422  32.287  18.267   7.650
 5719POPC   C1B19423  32.400  18.503   8.550
 5719POPC   C2B19424  32.344  18.478   8.250
 5719POPC   C3B19425  32.343  18.471   7.950
 5719POPC   C4B19426  32.420  18.480   7.650
 5720POPC   NC319427  24.525  14.424   9.450
 5720POPC   PO419428  24.518  14.428   9.150
 5720POPC   GL119429  24.477  14.417   8.850
 5720POPC   GL219430  24.396  14.412   8.850
 5720POPC   C1A19431  24.483  14.382   8.550
 5720POPC   D2A19432  24.479  14.436   8.250
 5720POPC   C3A19433  24.458  14.425   7.950
 5720POPC   C4A19434  24.477  14.412   7.650
 5720POPC   C1B19435  24.222  14.378   8.550
 5720POPC   C2B19436  24.243  14.327   8.250
 5720POPC   C3B19437  24.207  14.319   7.950
 5720POPC   C4B19438  24.241  14.381   7.650
 5721POPC   NC319439  37.663  29.944   9.450
 5721POPC   PO419440  37.721  29.946   9.150
 5721POPC   GL119441  37.725  29.905   8.850
 5721POPC   GL219442  37.714  29.983   8.850
 5721POPC   C1A19443  37.657  29.906   8.550
 5721POPC   D2A19444  37.662  29.912   8.250
 5721POPC   C3A19445  37.671  29.934   7.950
 5721POPC   C4A19446  37.695  29.955   7.650
 5721POPC   C1B19447  37.781  30.156   8.550
 5721POPC   C2B19448  37.839  30.119   8.250
 5721POPC   C3B19449  37.783  30.150   7.950
 5721POPC   C4B19450  37.804  30.133   7.650
 5722POPC   NC319451   0.484  44.643   9.450
 5722POPC   PO419452   0.391  44.673   9.150
 5722POPC   GL119453   0.393  44.664   8.850
 5722POPC   GL219454   0.385  44.571   8.850
 5722POPC   C1A19455   0.438  44.677   8.550
 5722POPC   D2A19456   0.447  44.667   8.250
 5722POPC   C3A19457   0.394  44.688   7.950
 5722POPC   C4A19458   0.401  44.707   7.650
 5722POPC   C1B19459   0.297  44.492   8.550
 5722POPC   C2B19460   0.305  44.456   8.250
 5722POPC   C3B19461   0.281  44.501   7.950
 5722POPC   C4B19462   0.274  44.458   7.650
 5723POPC   NC319463   1.217  18.271   9.450
 5723POPC   PO419464   1.220  18.234   9.150
 5723POPC   GL119465   1.201  18.266   8.850
 5723POPC   GL219466   1.152  18.182   8.850
 5723POPC   C1A19467   1.201  18.236   8.550
 5723POPC   D2A19468   1.185  18.242   8.250
 5723POPC   C3A19469   1.171  18.274   7.950
 5723POPC   C4A19470   1.262  18.242   7.650
 5723POPC   C1B19471   1.057  18.073   8.550
 5723POPC   C2B19472   1.094  18.061   8.250
 5723POPC   C3B19473   1.076  18.081   7.950
 5723POPC   C4B19474   1.080  18.048   7.650
 5724POPC   NC319475  32.202   9.718   9.450
 5724POPC   PO419476  32.217   9.791   9.150
 5724POPC   GL119477  32.232   9.788   8.850
 5724POPC   GL219478  32.372   9.686   8.850
 5724POPC   C1A19479  32.279   9.764   8.550
 5724POPC   D2A19480  32.266   9.732   8.250
 5724POPC   C3A19481  32.240   9.752   7.950
 5724POPC   C4A19482  32.244   9.784   7.650
 5724POPC   C1B19483  32.412   9.602   8.550
 5724POPC   C2B19484  32.443   9.610   8.250
 5724POPC   C3B19485  32.465   9.567   7.950
 5724POPC   C4B19486  32.403   9.608   7.650
 5725POPC   NC319487   4.306   2.034   9.450
 5725POPC   PO419488   4.365   2.020   9.150
 5725POPC   GL119489   4.292   2.015   8.850
 5725POPC   GL219490   4.382   2.039   8.850
 5725POPC   C1A19491   4.288   1.969   8.550
 5725POPC   D2A19492   4.305   2.025   8.250
 5725POPC   C3A19493   4.329   2.038   7.950
 5725POPC   C4A19494   4.274   1.968   7.650
 5725POPC   C1B19495   4.584   2.128   8.550
 5725POPC   C2B19496   4.529   2.146   8.250
 5725POPC   C3B19497   4.537   2.088   7.950
 5725POPC   C4B19498   4.555   2.140   7.650
 5726POPC   NC319499  24.459  35.363   9.450
 5726POPC   PO419500  24.499  35.311   9.150
 5726POPC   GL119501  24.453  35.395   8.850
 5726POPC   GL219502  24.478  35.425   8.850
 5726POPC   C1A19503  24.450  35.347   8.550
 5726POPC   D2A19504  24.473  35.332   8.250
 5726POPC   C3A19505  24.481  35.349   7.950
 5726POPC   C4A19506  24.513  35.401   7.650
 5726POPC   C1B19507  24.440  35.631   8.550
 5726POPC   C2B19508  24.453  35.642   8.250
 5726POPC   C3B19509  24.410  35.559   7.950
 5726POPC   C4B19510  24.422  35.643   7.650
 5727POPC   NC319511  25.295  20.608   9.450
 5727POPC   PO419512  25.289  20.635   9.150
 5727POPC   GL119513  25.296  20.577   8.850
 5727POPC   GL219514  25.250  20.496   8.850
 5727POPC   C1A19515  25.232  20.599   8.550
 5727POPC   D2A19516  25.235  20.596   8.250
 5727POPC   C3A19517  25.311  20.573   7.950
 5727POPC   C4A19518  25.301  20.614   7.650
 5727POPC   C1B19519  25.106  20.363   8.550
 5727POPC   C2B19520  25.193  20.381   8.250
 5727POPC   C3B19521  25.142  20.390   7.950
 5727POPC   C4B19522  25.191  20.413   7.650
 5728POPC   NC319523   8.990  15.144   9.450
 5728POPC   PO419524   8.929  15.191   9.150
 5728POPC   GL119525   8.963  15.139   8.850
 5728POPC   GL219526   8.831  15.212   8.850
 5728POPC   C1A19527   9.018  15.191   8.550
 5728POPC   D2A19528   8.964  15.171   8.250
 5728POPC   C3A19529   8.964  15.146   7.950
 5728POPC   C4A19530   8.955  15.144   7.650
 5728POPC   C1B19531   8.760  15.191   8.550
 5728POPC   C2B19532   8.717  15.250   8.250
 5728POPC   C3B19533   8.683  15.202   7.950
 5728POPC   C4B19534   8.676  15.209   7.650
 5729POPC   NC319535  23.697   9.790   9.450
 5729POPC   PO419536  23.738   9.768   9.150
 5729POPC   GL119537  23.736   9.786   8.850
 5729POPC   GL219538  23.673   9.824   8.850
 5729POPC   C1A19539  23.707   9.751   8.550
 5729POPC   D2A19540  23.740   9.792   8.250
 5729POPC   C3A19541  23.716   9.753   7.950
 5729POPC   C4A19542  23.680   9.717   7.650
 5729POPC   C1B19543  23.655   9.993   8.550
 5729POPC   C2B19544  23.644  10.016   8.250
 5729POPC   C3B19545  23.648   9.983   7.950
 5729POPC   C4B19546  23.721  10.006   7.650
 5730POPC   NC319547  43.879  42.376   9.450
 5730POPC   PO419548  43.860  42.285   9.150
 5730POPC   GL119549  43.932  42.342   8.850
 5730POPC   GL219550  43.882  42.409   8.850
 5730POPC   C1A19551  43.891  42.371   8.550
 5730POPC   D2A19552  43.911  42.323   8.250
 5730POPC   C3A19553  43.871  42.333   7.950
 5730POPC   C4A19554  43.855  42.361   7.650
 5730POPC   C1B19555  43.869  42.542   8.550
 5730POPC   C2B19556  43.851  42.541   8.250
 5730POPC   C3B19557  43.863  42.611   7.950
 5730POPC   C4B19558  43.903  42.555   7.650
 5731POPC   NC319559  31.445  37.659   9.450
 5731POPC   PO419560  31.488  37.672   9.150
 5731POPC   GL119561  31.470  37.659   8.850
 5731POPC   GL219562  31.508  37.850   8.850
 5731POPC   C1A19563  31.463  37.639   8.550
 5731POPC   D2A19564  31.437  37.667   8.250
 5731POPC   C3A19565  31.423  37.650   7.950
 5731POPC   C4A19566  31.473  37.692   7.650
 5731POPC   C1B19567  31.431  37.893   8.550
 5731POPC   C2B19568  31.492  37.952   8.250
 5731POPC   C3B19569  31.449  37.890   7.950
 5731POPC   C4B19570  31.406  37.887   7.650
 5732POPC   NC319571   5.141  42.340   9.450
 5732POPC   PO419572   5.093  42.333   9.150
 5732POPC   GL119573   5.058  42.309   8.850
 5732POPC   GL219574   5.198  42.272   8.850
 5732POPC   C1A19575   5.052  42.373   8.550
 5732POPC   D2A19576   5.122  42.314   8.250
 5732POPC   C3A19577   5.094  42.359   7.950
 5732POPC   C4A19578   5.117  42.349   7.650
 5732POPC   C1B19579   5.361  42.323   8.550
 5732POPC   C2B19580   5.321  42.232   8.250
 5732POPC   C3B19581   5.337  42.284   7.950
 5732POPC   C4B19582   5.374  42.310   7.650
 5733POPC   NC319583  12.101  35.371   9.450
 5733POPC   PO419584  12.030  35.350   9.150
 5733POPC   GL119585  12.068  35.346   8.850
 5733POPC   GL219586  12.131  35.439   8.850
 5733POPC   C1A19587  12.054  35.305   8.550
 5733POPC   D2A19588  12.108  35.305   8.250
 5733POPC   C3A19589  12.041  35.364   7.950
 5733POPC   C4A19590  12.105  35.380   7.650
 5733POPC   C1B19591  12.148  35.562   8.550
 5733POPC   C2B19592  12.214  35.569   8.250
 5733POPC   C3B19593  12.210  35.611   7.950
 5733POPC   C4B19594  12.245  35.573   7.650
 5734POPC   NC319595  40.025  12.039   9.450
 5734POPC   PO419596  39.969  12.114   9.150
 5734POPC   GL119597  39.964  12.101   8.850
 5734POPC   GL219598  39.917  11.964   8.850
 5734POPC   C1A19599  40.050  12.031   8.550
 5734POPC   D2A19600  39.979  12.047   8.250
 5734POPC   C3A19601  39.991  12.075   7.950
 5734POPC   C4A19602  39.968  12.126   7.650
 5734POPC   C1B19603  39.855  11.857   8.550
 5734POPC   C2B19604  39.801  11.895   8.250
 5734POPC   C3B19605  39.813  11.898   7.950
 5734POPC   C4B19606  39.785  11.888   7.650
 5735POPC   NC319607  17.509   1.220   9.450
 5735POPC   PO419608  17.498   1.246   9.150
 5735POPC   GL119609  17.528   1.186   8.850
 5735POPC   GL219610  17.617   1.111   8.850
 5735POPC   C1A19611  17.459   1.212   8.550
 5735POPC   D2A19612  17.474   1.243   8.250
 5735POPC   C3A19613  17.538   1.246   7.950
 5735POPC   C4A19614  17.500   1.258   7.650
 5735POPC   C1B19615  17.631   1.039   8.550
 5735POPC   C2B19616  17.678   1.060   8.250
 5735POPC   C3B19617  17.649   0.999   7.950
 5735POPC   C4B19618  17.665   1.025   7.650
 5736POPC   NC319619  12.862  14.367   9.450
 5736POPC   PO419620  12.891  14.407   9.150
 5736POPC   GL119621  12.829  14.431   8.850
 5736POPC   GL219622  12.714  14.462   8.850
 5736POPC   C1A19623  12.869  14.448   8.550
 5736POPC   D2A19624  12.889  14.385   8.250
 5736POPC   C3A19625  12.813  14.417   7.950
 5736POPC   C4A19626  12.838  14.382   7.650
 5736POPC   C1B19627  12.707  14.606   8.550
 5736POPC   C2B19628  12.610  14.518   8.250
 5736POPC   C3B19629  12.632  14.523   7.950
 5736POPC   C4B19630  12.629  14.605   7.650
 5737POPC   NC319631  17.483  15.920   9.450
 5737POPC   PO419632  17.552  15.954   9.150
 5737POPC   GL119633  17.530  15.999   8.850
 5737POPC   GL219634  17.593  15.851   8.850
 5737POPC   C1A19635  17.469  15.911   8.550
 5737POPC   D2A19636  17.533  15.944   8.250
 5737POPC   C3A19637  17.531  16.000   7.950
 5737POPC   C4A19638  17.494  15.988   7.650
 5737POPC   C1B19639  17.738  15.759   8.550
 5737POPC   C2B19640  17.733  15.801   8.250
 5737POPC   C3B19641  17.722  15.808   7.950
 5737POPC   C4B19642  17.732  15.747   7.650
 5738POPC   NC319643  20.567  36.081   9.450
 5738POPC   PO419644  20.619  36.165   9.150
 5738POPC   GL119645  20.644  36.155   8.850
 5738POPC   GL219646  20.575  36.253   8.850
 5738POPC   C1A19647  20.605  36.115   8.550
 5738POPC   D2A19648  20.618  36.125   8.250
 5738POPC   C3A19649  20.596  36.089   7.950
 5738POPC   C4A19650  20.601  36.083   7.650
 5738POPC   C1B19651  20.600  36.416   8.550
 5738POPC   C2B19652  20.515  36.368   8.250
 5738POPC   C3B19653  20.597  36.370   7.950
 5738POPC   C4B19654  20.573  36.392   7.650
 5739POPC   NC319655   4.296   7.391   9.450
 5739POPC   PO419656   4.290   7.388   9.150
 5739POPC   GL119657   4.342   7.426   8.850
 5739POPC   GL219658   4.249   7.296   8.850
 5739POPC   C1A19659   4.364   7.378   8.550
 5739POPC   D2A19660   4.366   7.466   8.250
 5739POPC   C3A19661   4.364   7.424   7.950
 5739POPC   C4A19662   4.362   7.422   7.650
 5739POPC   C1B19663   4.201   7.235   8.550
 5739POPC   C2B19664   4.253   7.172   8.250
 5739POPC   C3B19665   4.242   7.218   7.950
 5739POPC   C4B19666   4.220   7.233   7.650
 5740POPC   NC319667  39.221  26.055   9.450
 5740POPC   PO419668  39.278  26.076   9.150
 5740POPC   GL119669  39.251  26.036   8.850
 5740POPC   GL219670  39.321  25.972   8.850
 5740POPC   C1A19671  39.258  26.085   8.550
 5740POPC   D2A19672  39.202  26.026   8.250
 5740POPC   C3A19673  39.193  26.041   7.950
 5740POPC   C4A19674  39.228  26.067   7.650
 5740POPC   C1B19675  39.478  25.939   8.550
 5740POPC   C2B19676  39.464  25.867   8.250
 5740POPC   C3B19677  39.482  25.857   7.950
 5740POPC   C4B19678  39.477  25.935   7.650
 5741POPC   NC319679  40.763  42.293   9.450
 5741POPC   PO419680  40.789  42.311   9.150
 5741POPC   GL119681  40.797  42.331   8.850
 5741POPC   GL219682  40.768  42.208   8.850
 5741POPC   C1A19683  40.831  42.293   8.550
 5741POPC   D2A19684  40.805  42.332   8.250
 5741POPC   C3A19685  40.757  42.344   7.950
 5741POPC   C4A19686  40.738  42.360   7.650
 5741POPC   C1B19687  40.803  42.050   8.550
 5741POPC   C2B19688  40.750  42.068   8.250
 5741POPC   C3B19689  40.749  42.044   7.950
 5741POPC   C4B19690  40.786  42.086   7.650
 5742POPC   NC319691  39.222  18.324   9.450
 5742POPC   PO419692  39.264  18.296   9.150
 5742POPC   GL119693  39.227  18.268   8.850
 5742POPC   GL219694  39.097  18.179   8.850
 5742POPC   C1A19695  39.233  18.264   8.550
 5742POPC   D2A19696  39.188  18.332   8.250
 5742POPC   C3A19697  39.276  18.236   7.950
 5742POPC   C4A19698  39.185  18.276   7.650
 5742POPC   C1B19699  39.053  18.170   8.550
 5742POPC   C2B19700  39.007  18.137   8.250
 5742POPC   C3B19701  38.997  18.178   7.950
 5742POPC   C4B19702  38.968  18.193   7.650
 5743POPC   NC319703   3.516  21.376   9.450
 5743POPC   PO419704   3.514  21.426   9.150
 5743POPC   GL119705   3.587  21.431   8.850
 5743POPC   GL219706   3.521  21.547   8.850
 5743POPC   C1A19707   3.546  21.349   8.550
 5743POPC   D2A19708   3.503  21.404   8.250
 5743POPC   C3A19709   3.591  21.413   7.950
 5743POPC   C4A19710   3.584  21.429   7.650
 5743POPC   C1B19711   3.550  21.678   8.550
 5743POPC   C2B19712   3.528  21.609   8.250
 5743POPC   C3B19713   3.538  21.593   7.950
 5743POPC   C4B19714   3.481  21.679   7.650
 5744POPC   NC319715   2.772  13.613   9.450
 5744POPC   PO419716   2.781  13.605   9.150
 5744POPC   GL119717   2.728  13.584   8.850
 5744POPC   GL219718   2.666  13.575   8.850
 5744POPC   C1A19719   2.794  13.660   8.550
 5744POPC   D2A19720   2.783  13.614   8.250
 5744POPC   C3A19721   2.782  13.642   7.950
 5744POPC   C4A19722   2.730  13.614   7.650
 5744POPC   C1B19723   2.566  13.577   8.550
 5744POPC   C2B19724   2.555  13.556   8.250
 5744POPC   C3B19725   2.550  13.555   7.950
 5744POPC   C4B19726   2.508  13.538   7.650
 5745POPC   NC319727  20.580   5.884   9.450
 5745POPC   PO419728  20.604   5.823   9.150
 5745POPC   GL119729  20.596   5.830   8.850
 5745POPC   GL219730  20.641   5.952   8.850
 5745POPC   C1A19731  20.629   5.918   8.550
 5745POPC   D2A19732  20.591   5.874   8.250
 5745POPC   C3A19733  20.600   5.828   7.950
 5745POPC   C4A19734  20.567   5.909   7.650
 5745POPC   C1B19735  20.699   6.089   8.550
 5745POPC   C2B19736  20.641   6.126   8.250
 5745POPC   C3B19737  20.630   6.098   7.950
 5745POPC   C4B19738  20.671   6.108   7.650
 5746POPC   NC319739  40.003  21.385   9.450
 5746POPC   PO419740  39.993  21.364   9.150
 5746POPC   GL119741  40.023  21.410   8.850
 5746POPC   GL219742  39.894  21.440   8.850
 5746POPC   C1A19743  40.011  21.421   8.550
 5746POPC   D2A19744  40.013  21.383   8.250
 5746POPC   C3A19745  40.025  21.384   7.950
 5746POPC   C4A19746  39.974  21.380   7.650
 5746POPC   C1B19747  39.733  21.412   8.550
 5746POPC   C2B19748  39.731  21.448   8.250
 5746POPC   C3B19749  39.798  21.433   7.950
 5746POPC   C4B19750  39.731  21.441   7.650
 5747POPC   NC319751  12.094   2.770   9.450
 5747POPC   PO419752  12.078   2.810   9.150
 5747POPC   GL119753  12.037   2.753   8.850
 5747POPC   GL219754  12.157   2.673   8.850
 5747POPC   C1A19755  12.055   2.780   8.550
 5747POPC   D2A19756  12.085   2.753   8.250
 5747POPC   C3A19757  12.104   2.788   7.950
 5747POPC   C4A19758  12.036   2.802   7.650
 5747POPC   C1B19759  12.172   2.513   8.550
 5747POPC   C2B19760  12.169   2.550   8.250
 5747POPC   C3B19761  12.186   2.502   7.950
 5747POPC   C4B19762  12.188   2.540   7.650
 5748POPC   NC319763  32.202  23.753   9.450
 5748POPC   PO419764  32.212  23.718   9.150
 5748POPC   GL119765  32.251  23.730   8.850
 5748POPC   GL219766  32.310  23.659   8.850
 5748POPC   C1A19767  32.259  23.761   8.550
 5748POPC   D2A19768  32.295  23.719   8.250
 5748POPC   C3A19769  32.264  23.714   7.950
 5748POPC   C4A19770  32.292  23.691   7.650
 5748POPC   C1B19771  32.448  23.610   8.550
 5748POPC   C2B19772  32.438  23.578   8.250
 5748POPC   C3B19773  32.420  23.574   7.950
 5748POPC   C4B19774  32.472  23.527   7.650
 5749POPC   NC319775   8.172   5.859   9.450
 5749POPC   PO419776   8.193   5.830   9.150
 5749POPC   GL119777   8.201   5.868   8.850
 5749POPC   GL219778   8.067   5.917   8.850
 5749POPC   C1A19779   8.210   5.830   8.550
 5749POPC   D2A19780   8.240   5.836   8.250
 5749POPC   C3A19781   8.214   5.904   7.950
 5749POPC   C4A19782   8.157   5.895   7.650
 5749POPC   C1B19783   7.949   5.983   8.550
 5749POPC   C2B19784   7.955   6.013   8.250
 5749POPC   C3B19785   7.952   5.960   7.950
 5749POPC   C4B19786   8.032   5.994   7.650
 5750POPC   NC319787  27.563  31.453   9.450
 5750POPC   PO419788  27.571  31.426   9.150
 5750POPC   GL119789  27.567  31.520   8.850
 5750POPC   GL219790  27.599  31.371   8.850
 5750POPC   C1A19791  27.597  31.493   8.550
 5750POPC   D2A19792  27.636  31.460   8.250
 5750POPC   C3A19793  27.564  31.468   7.950
 5750POPC   C4A19794  27.580  31.437   7.650
 5750POPC   C1B19795  27.597  31.269   8.550
 5750POPC   C2B19796  27.578  31.269   8.250
 5750POPC   C3B19797  27.598  31.254   7.950
 5750POPC   C4B19798  27.552  31.272   7.650
 5751POPC   NC319799  14.363  27.603   9.450
 5751POPC   PO419800  14.450  27.586   9.150
 5751POPC   GL119801  14.432  27.545   8.850
 5751POPC   GL219802  14.404  27.717   8.850
 5751POPC   C1A19803  14.449  27.579   8.550
 5751POPC   D2A19804  14.375  27.630   8.250
 5751POPC   C3A19805  14.379  27.584   7.950
 5751POPC   C4A19806  14.355  27.545   7.650
 5751POPC   C1B19807  14.392  27.853   8.550
 5751POPC   C2B19808  14.426  27.826   8.250
 5751POPC   C3B19809  14.390  27.805   7.950
 5751POPC   C4B19810  14.415  27.870   7.650
 5752POPC   NC319811  16.771  11.339   9.450
 5752POPC   PO419812  16.757  11.311   9.150
 5752POPC   GL119813  16.732  11.316   8.850
 5752POPC   GL219814  16.841  11.315   8.850
 5752POPC   C1A19815  16.743  11.343   8.550
 5752POPC   D2A19816  16.732  11.290   8.250
 5752POPC   C3A19817  16.729  11.263   7.950
 5752POPC   C4A19818  16.766  11.346   7.650
 5752POPC   C1B19819  16.987  11.285   8.550
 5752POPC   C2B19820  16.959  11.354   8.250
 5752POPC   C3B19821  16.987  11.308   7.950
 5752POPC   C4B19822  16.937  11.316   7.650
 5753POPC   NC319823  37.675  10.550   9.450
 5753POPC   PO419824  37.653  10.517   9.150
 5753POPC   GL119825  37.665  10.547   8.850
 5753POPC   GL219826  37.634  10.432   8.850
 5753POPC   C1A19827  37.713  10.478   8.550
 5753POPC   D2A19828  37.655  10.525   8.250
 5753POPC   C3A19829  37.728  10.574   7.950
 5753POPC   C4A19830  37.657  10.544   7.650
 5753POPC   C1B19831  37.606  10.288   8.550
 5753POPC   C2B19832  37.558  10.288   8.250
 5753POPC   C3B19833  37.587  10.308   7.950
 5753POPC   C4B19834  37.553  10.338   7.650
 5754POPC   NC319835   2.723   4.304   9.450
 5754POPC   PO419836   2.736   4.278   9.150
 5754POPC   GL119837   2.717   4.309   8.850
 5754POPC   GL219838   2.647   4.279   8.850
 5754POPC   C1A19839   2.717   4.363   8.550
 5754POPC   D2A19840   2.759   4.269   8.250
 5754POPC   C3A19841   2.748   4.323   7.950
 5754POPC   C4A19842   2.793   4.271   7.650
 5754POPC   C1B19843   2.580   4.237   8.550
 5754POPC   C2B19844   2.581   4.251   8.250
 5754POPC   C3B19845   2.569   4.216   7.950
 5754POPC   C4B19846   2.565   4.189   7.650
 5755POPC   NC319847  13.645   1.209   9.450
 5755POPC   PO419848  13.608   1.180   9.150
 5755POPC   GL119849  13.589   1.194   8.850
 5755POPC   GL219850  13.675   1.130   8.850
 5755POPC   C1A19851  13.600   1.262   8.550
 5755POPC   D2A19852  13.670   1.228   8.250
 5755POPC   C3A19853  13.587   1.222   7.950
 5755POPC   C4A19854  13.646   1.209   7.650
 5755POPC   C1B19855  13.837   0.998   8.550
 5755POPC   C2B19856  13.825   0.980   8.250
 5755POPC   C3B19857  13.808   1.064   7.950
 5755POPC   C4B19858  13.805   1.059   7.650
 5756POPC   NC319859  41.529  32.252   9.450
 5756POPC   PO419860  41.553  32.218   9.150
 5756POPC   GL119861  41.604  32.286   8.850
 5756POPC   GL219862  41.592  32.361   8.850
 5756POPC   C1A19863  41.543  32.212   8.550
 5756POPC   D2A19864  41.556  32.295   8.250
 5756POPC   C3A19865  41.521  32.266   7.950
 5756POPC   C4A19866  41.589  32.293   7.650
 5756POPC   C1B19867  41.574  32.478   8.550
 5756POPC   C2B19868  41.611  32.481   8.250
 5756POPC   C3B19869  41.541  32.528   7.950
 5756POPC   C4B19870  41.590  32.486   7.650
 5757POPC   NC319871  14.357  25.234   9.450
 5757POPC   PO419872  14.382  25.224   9.150
 5757POPC   GL119873  14.355  25.266   8.850
 5757POPC   GL219874  14.572  25.286   8.850
 5757POPC   C1A19875  14.392  25.246   8.550
 5757POPC   D2A19876  14.444  25.226   8.250
 5757POPC   C3A19877  14.419  25.295   7.950
 5757POPC   C4A19878  14.429  25.305   7.650
 5757POPC   C1B19879  14.602  25.359   8.550
 5757POPC   C2B19880  14.633  25.288   8.250
 5757POPC   C3B19881  14.655  25.361   7.950
 5757POPC   C4B19882  14.620  25.294   7.650
 5758POPC   NC319883  18.233  38.459   9.450
 5758POPC   PO419884  18.276  38.471   9.150
 5758POPC   GL119885  18.275  38.498   8.850
 5758POPC   GL219886  18.130  38.456   8.850
 5758POPC   C1A19887  18.314  38.446   8.550
 5758POPC   D2A19888  18.248  38.418   8.250
 5758POPC   C3A19889  18.253  38.435   7.950
 5758POPC   C4A19890  18.269  38.476   7.650
 5758POPC   C1B19891  18.010  38.384   8.550
 5758POPC   C2B19892  18.068  38.432   8.250
 5758POPC   C3B19893  18.035  38.376   7.950
 5758POPC   C4B19894  18.024  38.474   7.650
 5759POPC   NC319895  29.926   9.002   9.450
 5759POPC   PO419896  29.896   8.947   9.150
 5759POPC   GL119897  29.940   8.991   8.850
 5759POPC   GL219898  30.012   8.966   8.850
 5759POPC   C1A19899  29.910   8.977   8.550
 5759POPC   D2A19900  29.962   8.978   8.250
 5759POPC   C3A19901  29.872   8.979   7.950
 5759POPC   C4A19902  29.884   8.925   7.650
 5759POPC   C1B19903  30.154   8.892   8.550
 5759POPC   C2B19904  30.178   8.897   8.250
 5759POPC   C3B19905  30.213   8.955   7.950
 5759POPC   C4B19906  30.186   8.971   7.650
 5760POPC   NC319907  42.285  44.617   9.450
 5760POPC   PO419908  42.345  44.642   9.150
 5760POPC   GL119909  42.324  44.710   8.850
 5760POPC   GL219910  42.430  44.763   8.850
 5760POPC   C1A19911  42.371  44.621   8.550
 5760POPC   D2A19912  42.355  44.666   8.250
 5760POPC   C3A19913  42.294  44.634   7.950
 5760POPC   C4A19914  42.330  44.701   7.650
 5760POPC   C1B19915  42.579  44.827   8.550
 5760POPC   C2B19916  42.544  44.778   8.250
 5760POPC   C3B19917  42.492  44.791   7.950
 5760POPC   C4B19918  42.518  44.829   7.650
 5761POPC   NC319919  15.149  41.528   9.450
 5761POPC   PO419920  15.204  41.590   9.150
 5761POPC   GL119921  15.228  41.597   8.850
 5761POPC   GL219922  15.210  41.714   8.850
 5761POPC   C1A19923  15.140  41.577   8.550
 5761POPC   D2A19924  15.146  41.519   8.250
 5761POPC   C3A19925  15.170  41.509   7.950
 5761POPC   C4A19926  15.178  41.528   7.650
 5761POPC   C1B19927  15.214  41.768   8.550
 5761POPC   C2B19928  15.249  41.850   8.250
 5761POPC   C3B19929  15.280  41.808   7.950
 5761POPC   C4B19930  15.215  41.762   7.650
 5762POPC   NC319931   0.478  43.110   9.450
 5762POPC   PO419932   0.431  43.145   9.150
 5762POPC   GL119933   0.448  43.068   8.850
 5762POPC   GL219934   0.562  43.180   8.850
 5762POPC   C1A19935   0.417  43.116   8.550
 5762POPC   D2A19936   0.422  43.115   8.250
 5762POPC   C3A19937   0.455  43.078   7.950
 5762POPC   C4A19938   0.441  43.155   7.650
 5762POPC   C1B19939   0.712  43.185   8.550
 5762POPC   C2B19940   0.637  43.192   8.250
 5762POPC   C3B19941   0.669  43.216   7.950
 5762POPC   C4B19942   0.676  43.223   7.650
 5763POPC   NC319943  42.371  39.274   9.450
 5763POPC   PO419944  42.370  39.197   9.150
 5763POPC   GL119945  42.341  39.230   8.850
 5763POPC   GL219946  42.169  39.274   8.850
 5763POPC   C1A19947  42.368  39.219   8.550
 5763POPC   D2A19948  42.313  39.263   8.250
 5763POPC   C3A19949  42.348  39.245   7.950
 5763POPC   C4A19950  42.352  39.264   7.650
 5763POPC   C1B19951  42.141  39.274   8.550
 5763POPC   C2B19952  42.049  39.335   8.250
 5763POPC   C3B19953  42.118  39.268   7.950
 5763POPC   C4B19954  42.129  39.349   7.650
 5764POPC   NC319955  36.147  26.791   9.450
 5764POPC   PO419956  36.161  26.782   9.150
 5764POPC   GL119957  36.094  26.773   8.850
 5764POPC   GL219958  35.994  26.841   8.850
 5764POPC   C1A19959  36.173  26.770   8.550
 5764POPC   D2A19960  36.096  26.821   8.250
 5764POPC   C3A19961  36.133  26.798   7.950
 5764POPC   C4A19962  36.117  26.769   7.650
 5764POPC   C1B19963  35.856  26.882   8.550
 5764POPC   C2B19964  35.876  26.843   8.250
 5764POPC   C3B19965  35.840  26.902   7.950
 5764POPC   C4B19966  35.908  26.909   7.650
 5765POPC   NC319967  10.541  24.485   9.450
 5765POPC   PO419968  10.486  24.489   9.150
 5765POPC   GL119969  10.572  24.502   8.850
 5765POPC   GL219970  10.547  24.330   8.850
 5765POPC   C1A19971  10.539  24.443   8.550
 5765POPC   D2A19972  10.561  24.449   8.250
 5765POPC   C3A19973  10.573  24.499   7.950
 5765POPC   C4A19974  10.492  24.514   7.650
 5765POPC   C1B19975  10.500  24.278   8.550
 5765POPC   C2B19976  10.493  24.201   8.250
 5765POPC   C3B19977  10.445  24.212   7.950
 5765POPC   C4B19978  10.534  24.277   7.650
 5766POPC   NC319979  20.624  21.436   9.450
 5766POPC   PO419980  20.630  21.404   9.150
 5766POPC   GL119981  20.612  21.357   8.850
 5766POPC   GL219982  20.519  21.334   8.850
 5766POPC   C1A19983  20.578  21.352   8.550
 5766POPC   D2A19984  20.570  21.375   8.250
 5766POPC   C3A19985  20.575  21.368   7.950
 5766POPC   C4A19986  20.636  21.377   7.650
 5766POPC   C1B19987  20.433  21.275   8.550
 5766POPC   C2B19988  20.410  21.196   8.250
 5766POPC   C3B19989  20.373  21.231   7.950
 5766POPC   C4B19990  20.393  21.247   7.650
 5767POPC   NC319991  12.041   8.984   9.450
 5767POPC   PO419992  12.069   8.981   9.150
 5767POPC   GL119993  12.104   9.007   8.850
 5767POPC   GL219994  11.986   8.944   8.850
 5767POPC   C1A19995  12.070   9.016   8.550
 5767POPC   D2A19996  12.094   8.982   8.250
 5767POPC   C3A19997  12.085   8.960   7.950
 5767POPC   C4A19998  12.085   9.021   7.650
 5767POPC   C1B19999  11.868   8.889   8.550
 5767POPC   C2B20000  11.813   8.928   8.250
 5767POPC   C3B20001  11.857   8.962   7.950
 5767POPC   C4B20002  11.853   8.898   7.650
 5768POPC   NC320003  25.251   1.968   9.450
 5768POPC   PO420004  25.225   1.952   9.150
 5768POPC   GL120005  25.273   1.982   8.850
 5768POPC   GL220006  25.270   2.107   8.850
 5768POPC   C1A20007  25.230   1.944   8.550
 5768POPC   D2A20008  25.313   1.999   8.250
 5768POPC   C3A20009  25.236   1.999   7.950
 5768POPC   C4A20010  25.276   2.005   7.650
 5768POPC   C1B20011  25.278   2.213   8.550
 5768POPC   C2B20012  25.274   2.272   8.250
 5768POPC   C3B20013  25.204   2.283   7.950
 5768POPC   C4B20014  25.246   2.217   7.650
 5769POPC   NC320015  19.833   5.880   9.450
 5769POPC   PO420016  19.857   5.916   9.150
 5769POPC   GL120017  19.801   5.868   8.850
 5769POPC   GL220018  19.759   5.853   8.850
 5769POPC   C1A20019  19.839   5.856   8.550
 5769POPC   D2A20020  19.790   5.877   8.250
 5769POPC   C3A20021  19.865   5.820   7.950
 5769POPC   C4A20022  19.872   5.895   7.650
 5769POPC   C1B20023  19.627   5.783   8.550
 5769POPC   C2B20024  19.554   5.783   8.250
 5769POPC   C3B20025  19.582   5.790   7.950
 5769POPC   C4B20026  19.621   5.770   7.650
 5770POPC   NC320027  13.593  41.575   9.450
 5770POPC   PO420028  13.584  41.563   9.150
 5770POPC   GL120029  13.632  41.596   8.850
 5770POPC   GL220030  13.677  41.664   8.850
 5770POPC   C1A20031  13.586  41.608   8.550
 5770POPC   D2A20032  13.674  41.598   8.250
 5770POPC   C3A20033  13.647  41.594   7.950
 5770POPC   C4A20034  13.583  41.537   7.650
 5770POPC   C1B20035  13.746  41.755   8.550
 5770POPC   C2B20036  13.769  41.815   8.250
 5770POPC   C3B20037  13.712  41.822   7.950
 5770POPC   C4B20038  13.742  41.783   7.650
 5771POPC   NC320039  27.565   2.765   9.450
 5771POPC   PO420040  27.613   2.775   9.150
 5771POPC   GL120041  27.553   2.731   8.850
 5771POPC   GL220042  27.746   2.814   8.850
 5771POPC   C1A20043  27.641   2.767   8.550
 5771POPC   D2A20044  27.639   2.717   8.250
 5771POPC   C3A20045  27.568   2.767   7.950
 5771POPC   C4A20046  27.587   2.774   7.650
 5771POPC   C1B20047  27.837   2.821   8.550
 5771POPC   C2B20048  27.802   2.814   8.250
 5771POPC   C3B20049  27.868   2.809   7.950
 5771POPC   C4B20050  27.811   2.884   7.650
 5772POPC   NC320051  37.683  38.439   9.450
 5772POPC   PO420052  37.690  38.434   9.150
 5772POPC   GL120053  37.657  38.420   8.850
 5772POPC   GL220054  37.612  38.542   8.850
 5772POPC   C1A20055  37.663  38.474   8.550
 5772POPC   D2A20056  37.691  38.459   8.250
 5772POPC   C3A20057  37.639  38.481   7.950
 5772POPC   C4A20058  37.651  38.485   7.650
 5772POPC   C1B20059  37.488  38.603   8.550
 5772POPC   C2B20060  37.475  38.546   8.250
 5772POPC   C3B20061  37.465  38.589   7.950
 5772POPC   C4B20062  37.450  38.578   7.650
 5773POPC   NC320063   3.535  19.079   9.450
 5773POPC   PO420064   3.547  19.017   9.150
 5773POPC   GL120065   3.509  19.046   8.850
 5773POPC   GL220066   3.532  18.930   8.850
 5773POPC   C1A20067   3.583  19.093   8.550
 5773POPC   D2A20068   3.562  19.059   8.250
 5773POPC   C3A20069   3.573  19.029   7.950
 5773POPC   C4A20070   3.525  19.096   7.650
 5773POPC   C1B20071   3.497  18.848   8.550
 5773POPC   C2B20072   3.494  18.849   8.250
 5773POPC   C3B20073   3.461  18.812   7.950
 5773POPC   C4B20074   3.468  18.767   7.650
 5774POPC   NC320075  15.159   5.851   9.450
 5774POPC   PO420076  15.181   5.878   9.150
 5774POPC   GL120077  15.146   5.912   8.850
 5774POPC   GL220078  15.226   5.806   8.850
 5774POPC   C1A20079  15.195   5.873   8.550
 5774POPC   D2A20080  15.206   5.898   8.250
 5774POPC   C3A20081  15.221   5.890   7.950
 5774POPC   C4A20082  15.182   5.831   7.650
 5774POPC   C1B20083  15.371   5.682   8.550
 5774POPC   C2B20084  15.311   5.691   8.250
 5774POPC   C3B20085  15.288   5.672   7.950
 5774POPC   C4B20086  15.377   5.694   7.650
 5775POPC   NC320087  41.563  40.806   9.450
 5775POPC   PO420088  41.567  40.819   9.150
 5775POPC   GL120089  41.589  40.815   8.850
 5775POPC   GL220090  41.418  40.739   8.850
 5775POPC   C1A20091  41.604  40.794   8.550
 5775POPC   D2A20092  41.569  40.810   8.250
 5775POPC   C3A20093  41.597  40.738   7.950
 5775POPC   C4A20094  41.557  40.768   7.650
 5775POPC   C1B20095  41.354  40.714   8.550
 5775POPC   C2B20096  41.337  40.714   8.250
 5775POPC   C3B20097  41.316  40.801   7.950
 5775POPC   C4B20098  41.277  40.739   7.650
 5776POPC   NC320099  43.146   3.506   9.450
 5776POPC   PO420100  43.120   3.520   9.150
 5776POPC   GL120101  43.152   3.529   8.850
 5776POPC   GL220102  43.255   3.429   8.850
 5776POPC   C1A20103  43.123   3.585   8.550
 5776POPC   D2A20104  43.122   3.581   8.250
 5776POPC   C3A20105  43.152   3.495   7.950
 5776POPC   C4A20106  43.143   3.558   7.650
 5776POPC   C1B20107  43.341   3.382   8.550
 5776POPC   C2B20108  43.364   3.394   8.250
 5776POPC   C3B20109  43.322   3.390   7.950
 5776POPC   C4B20110  43.368   3.390   7.650
 5777POPC   NC320111  29.097   8.962   9.450
 5777POPC   PO420112  29.108   8.997   9.150
 5777POPC   GL120113  29.158   8.992   8.850
 5777POPC   GL220114  29.297   8.973   8.850
 5777POPC   C1A20115  29.104   8.937   8.550
 5777POPC   D2A20116  29.187   8.943   8.250
 5777POPC   C3A20117  29.101   9.008   7.950
 5777POPC   C4A20118  29.179   8.934   7.650
 5777POPC   C1B20119  29.428   8.936   8.550
 5777POPC   C2B20120  29.406   8.909   8.250
 5777POPC   C3B20121  29.399   8.890   7.950
 5777POPC   C4B20122  29.416   8.944   7.650
 5778POPC   NC320123  40.745  16.709   9.450
 5778POPC   PO420124  40.807  16.745   9.150
 5778POPC   GL120125  40.821  16.774   8.850
 5778POPC   GL220126  40.851  16.846   8.850
 5778POPC   C1A20127  40.734  16.736   8.550
 5778POPC   D2A20128  40.790  16.734   8.250
 5778POPC   C3A20129  40.768  16.716   7.950
 5778POPC   C4A20130  40.823  16.738   7.650
 5778POPC   C1B20131  40.999  16.872   8.550
 5778POPC   C2B20132  40.993  16.936   8.250
 5778POPC   C3B20133  40.952  16.950   7.950
 5778POPC   C4B20134  40.957  16.943   7.650
 5779POPC   NC320135  26.059   0.440   9.450
 5779POPC   PO420136  26.050   0.420   9.150
 5779POPC   GL120137  26.066   0.429   8.850
 5779POPC   GL220138  26.017   0.298   8.850
 5779POPC   C1A20139  26.029   0.441   8.550
 5779POPC   D2A20140  26.030   0.434   8.250
 5779POPC   C3A20141  26.060   0.458   7.950
 5779POPC   C4A20142  26.012   0.434   7.650
 5779POPC   C1B20143  26.075   0.193   8.550
 5779POPC   C2B20144  26.049   0.191   8.250
 5779POPC   C3B20145  26.031   0.187   7.950
 5779POPC   C4B20146  25.987   0.200   7.650
 5780POPC   NC320147  29.130  21.353   9.450
 5780POPC   PO420148  29.145  21.403   9.150
 5780POPC   GL120149  29.177  21.347   8.850
 5780POPC   GL220150  29.138  21.294   8.850
 5780POPC   C1A20151  29.135  21.381   8.550
 5780POPC   D2A20152  29.174  21.425   8.250
 5780POPC   C3A20153  29.122  21.343   7.950
 5780POPC   C4A20154  29.159  21.410   7.650
 5780POPC   C1B20155  29.226  21.174   8.550
 5780POPC   C2B20156  29.157  21.184   8.250
 5780POPC   C3B20157  29.197  21.157   7.950
 5780POPC   C4B20158  29.147  21.146   7.650
 5781POPC   NC320159  39.197  35.322   9.450
 5781POPC   PO420160  39.264  35.395   9.150
 5781POPC   GL120161  39.231  35.318   8.850
 5781POPC   GL220162  39.081  35.362   8.850
 5781POPC   C1A20163  39.274  35.330   8.550
 5781POPC   D2A20164  39.202  35.305   8.250
 5781POPC   C3A20165  39.279  35.327   7.950
 5781POPC   C4A20166  39.182  35.366   7.650
 5781POPC   C1B20167  38.987  35.345   8.550
 5781POPC   C2B20168  39.029  35.303   8.250
 5781POPC   C3B20169  38.986  35.320   7.950
 5781POPC   C4B20170  38.963  35.344   7.650
 5782POPC   NC320171  10.497  15.222   9.450
 5782POPC   PO420172  10.537  15.176   9.150
 5782POPC   GL120173  10.511  15.155   8.850
 5782POPC   GL220174  10.508  15.028   8.850
 5782POPC   C1A20175  10.561  15.139   8.550
 5782POPC   D2A20176  10.515  15.142   8.250
 5782POPC   C3A20177  10.550  15.149   7.950
 5782POPC   C4A20178  10.501  15.149   7.650
 5782POPC   C1B20179  10.539  14.887   8.550
 5782POPC   C2B20180  10.496  14.882   8.250
 5782POPC   C3B20181  10.507  14.942   7.950
 5782POPC   C4B20182  10.516  14.946   7.650
 5783POPC   NC320183  42.333  19.853   9.450
 5783POPC   PO420184  42.292  19.837   9.150
 5783POPC   GL120185  42.373  19.826   8.850
 5783POPC   GL220186  42.409  19.765   8.850
 5783POPC   C1A20187  42.341  19.822   8.550
 5783POPC   D2A20188  42.287  19.799   8.250
 5783POPC   C3A20189  42.307  19.851   7.950
 5783POPC   C4A20190  42.381  19.801   7.650
 5783POPC   C1B20191  42.536  19.772   8.550
 5783POPC   C2B20192  42.530  19.764   8.250
 5783POPC   C3B20193  42.613  19.758   7.950
 5783POPC   C4B20194  42.575  19.763   7.650
 5784POPC   NC320195  38.454  22.150   9.450
 5784POPC   PO420196  38.503  22.141   9.150
 5784POPC   GL120197  38.407  22.206   8.850
 5784POPC   GL220198  38.608  22.141   8.850
 5784POPC   C1A20199  38.467  22.189   8.550
 5784POPC   D2A20200  38.416  22.207   8.250
 5784POPC   C3A20201  38.416  22.182   7.950
 5784POPC   C4A20202  38.425  22.134   7.650
 5784POPC   C1B20203  38.725  22.051   8.550
 5784POPC   C2B20204  38.706  22.043   8.250
 5784POPC   C3B20205  38.698  22.085   7.950
 5784POPC   C4B20206  38.652  22.090   7.650
 5785POPC   NC320207  40.006  31.516   9.450
 5785POPC   PO420208  40.038  31.470   9.150
 5785POPC   GL120209  39.994  31.445   8.850
 5785POPC   GL220210  39.912  31.428   8.850
 5785POPC   C1A20211  39.961  31.462   8.550
 5785POPC   D2A20212  40.044  31.513   8.250
 5785POPC   C3A20213  40.053  31.452   7.950
 5785POPC   C4A20214  40.026  31.460   7.650
 5785POPC   C1B20215  39.802  31.359   8.550
 5785POPC   C2B20216  39.851  31.366   8.250
 5785POPC   C3B20217  39.852  31.337   7.950
 5785POPC   C4B20218  39.763  31.359   7.650
 5786POPC   NC320219  12.859   8.959   9.450
 5786POPC   PO420220  12.870   8.967   9.150
 5786POPC   GL120221  12.876   8.954   8.850
 5786POPC   GL220222  13.002   9.001   8.850
 5786POPC   C1A20223  12.807   8.925   8.550
 5786POPC   D2A20224  12.823   8.991   8.250
 5786POPC   C3A20225  12.853   8.955   7.950
 5786POPC   C4A20226  12.835   8.997   7.650
 5786POPC   C1B20227  13.127   9.081   8.550
 5786POPC   C2B20228  13.076   9.059   8.250
 5786POPC   C3B20229  13.065   9.006   7.950
 5786POPC   C4B20230  13.083   9.006   7.650
 5787POPC   NC320231  20.583   5.049   9.450
 5787POPC   PO420232  20.591   5.053   9.150
 5787POPC   GL120233  20.572   5.132   8.850
 5787POPC   GL220234  20.706   5.249   8.850
 5787POPC   C1A20235  20.570   5.076   8.550
 5787POPC   D2A20236  20.579   5.100   8.250
 5787POPC   C3A20237  20.585   5.132   7.950
 5787POPC   C4A20238  20.636   5.102   7.650
 5787POPC   C1B20239  20.737   5.336   8.550
 5787POPC   C2B20240  20.726   5.286   8.250
 5787POPC   C3B20241  20.712   5.312   7.950
 5787POPC   C4B20242  20.704   5.361   7.650
 5788POPC   NC320243  32.272  40.031   9.450
 5788POPC   PO420244  32.297  40.001   9.150
 5788POPC   GL120245  32.272  40.036   8.850
 5788POPC   GL220246  32.136  40.048   8.850
 5788POPC   C1A20247  32.217  39.996   8.550
 5788POPC   D2A20248  32.227  40.045   8.250
 5788POPC   C3A20249  32.295  40.012   7.950
 5788POPC   C4A20250  32.205  39.964   7.650
 5788POPC   C1B20251  32.118  40.135   8.550
 5788POPC   C2B20252  32.086  40.161   8.250
 5788POPC   C3B20253  32.046  40.196   7.950
 5788POPC   C4B20254  32.039  40.148   7.650
 5789POPC   NC320255  43.073  42.359   9.450
 5789POPC   PO420256  43.079  42.325   9.150
 5789POPC   GL120257  43.119  42.365   8.850
 5789POPC   GL220258  43.220  42.273   8.850
 5789POPC   C1A20259  43.079  42.331   8.550
 5789POPC   D2A20260  43.072  42.313   8.250
 5789POPC   C3A20261  43.080  42.296   7.950
 5789POPC   C4A20262  43.154  42.342   7.650
 5789POPC   C1B20263  43.399  42.288   8.550
 5789POPC   C2B20264  43.374  42.264   8.250
 5789POPC   C3B20265  43.403  42.275   7.950
 5789POPC   C4B20266  43.386  42.321   7.650
 5790POPC   NC320267   9.749  22.201   9.450
 5790POPC   PO420268   9.700  22.194   9.150
 5790POPC   GL120269   9.780  22.159   8.850
 5790POPC   GL220270   9.716  22.067   8.850
 5790POPC   C1A20271   9.716  22.199   8.550
 5790POPC   D2A20272   9.746  22.151   8.250
 5790POPC   C3A20273   9.776  22.182   7.950
 5790POPC   C4A20274   9.784  22.158   7.650
 5790POPC   C1B20275   9.753  21.867   8.550
 5790POPC   C2B20276   9.703  21.864   8.250
 5790POPC   C3B20277   9.722  21.940   7.950
 5790POPC   C4B20278   9.758  21.962   7.650
 5791POPC   NC320279   2.033  31.522   9.450
 5791POPC   PO420280   2.001  31.461   9.150
 5791POPC   GL120281   1.964  31.426   8.850
 5791POPC   GL220282   2.024  31.374   8.850
 5791POPC   C1A20283   1.986  31.503   8.550
 5791POPC   D2A20284   1.951  31.470   8.250
 5791POPC   C3A20285   1.971  31.522   7.950
 5791POPC   C4A20286   1.953  31.427   7.650
 5791POPC   C1B20287   1.986  31.263   8.550
 5791POPC   C2B20288   2.045  31.196   8.250
 5791POPC   C3B20289   2.063  31.201   7.950
 5791POPC   C4B20290   2.043  31.177   7.650
 5792POPC   NC320291  11.253   5.895   9.450
 5792POPC   PO420292  11.273   5.829   9.150
 5792POPC   GL120293  11.329   5.915   8.850
 5792POPC   GL220294  11.271   6.014   8.850
 5792POPC   C1A20295  11.303   5.903   8.550
 5792POPC   D2A20296  11.282   5.910   8.250
 5792POPC   C3A20297  11.338   5.829   7.950
 5792POPC   C4A20298  11.274   5.916   7.650
 5792POPC   C1B20299  11.262   6.154   8.550
 5792POPC   C2B20300  11.245   6.132   8.250
 5792POPC   C3B20301  11.273   6.154   7.950
 5792POPC   C4B20302  11.246   6.132   7.650
 5793POPC   NC320303  40.778   1.261   9.450
 5793POPC   PO420304  40.804   1.223   9.150
 5793POPC   GL120305  40.754   1.183   8.850
 5793POPC   GL220306  40.708   1.130   8.850
 5793POPC   C1A20307  40.774   1.187   8.550
 5793POPC   D2A20308  40.765   1.229   8.250
 5793POPC   C3A20309  40.803   1.183   7.950
 5793POPC   C4A20310  40.782   1.213   7.650
 5793POPC   C1B20311  40.742   0.941   8.550
 5793POPC   C2B20312  40.714   0.982   8.250
 5793POPC   C3B20313  40.749   1.010   7.950
 5793POPC   C4B20314  40.705   0.975   7.650
 5794POPC   NC320315  22.187  35.323   9.450
 5794POPC   PO420316  22.202  35.306   9.150
 5794POPC   GL120317  22.185  35.347   8.850
 5794POPC   GL220318  22.129  35.450   8.850
 5794POPC   C1A20319  22.184  35.312   8.550
 5794POPC   D2A20320  22.117  35.338   8.250
 5794POPC   C3A20321  22.209  35.378   7.950
 5794POPC   C4A20322  22.176  35.371   7.650
 5794POPC   C1B20323  22.107  35.625   8.550
 5794POPC   C2B20324  22.096  35.543   8.250
 5794POPC   C3B20325  22.065  35.561   7.950
 5794POPC   C4B20326  22.086  35.608   7.650
 5795POPC   NC320327  29.879  39.989   9.450
 5795POPC   PO420328  29.937  39.958   9.150
 5795POPC   GL120329  29.880  39.981   8.850
 5795POPC   GL220330  29.792  39.962   8.850
 5795POPC   C1A20331  29.874  40.044   8.550
 5795POPC   D2A20332  29.946  40.025   8.250
 5795POPC   C3A20333  29.885  40.029   7.950
 5795POPC   C4A20334  29.873  40.021   7.650
 5795POPC   C1B20335  29.741  39.940   8.550
 5795POPC   C2B20336  29.697  39.940   8.250
 5795POPC   C3B20337  29.665  39.852   7.950
 5795POPC   C4B20338  29.658  39.923   7.650
 5796POPC   NC320339  29.187  19.862   9.450
 5796POPC   PO420340  29.158  19.813   9.150
 5796POPC   GL120341  29.153  19.823   8.850
 5796POPC   GL220342  29.036  19.924   8.850
 5796POPC   C1A20343  29.099  19.794   8.550
 5796POPC   D2A20344  29.167  19.830   8.250
 5796POPC   C3A20345  29.123  19.793   7.950
 5796POPC   C4A20346  29.135  19.816   7.650
 5796POPC   C1B20347  28.954  19.973   8.550
 5796POPC   C2B20348  28.976  20.027   8.250
 5796POPC   C3B20349  28.944  20.039   7.950
 5796POPC   C4B20350  29.010  19.998   7.650
 5797POPC   NC320351  18.277   8.244   9.450
 5797POPC   PO420352  18.249   8.171   9.150
 5797POPC   GL120353  18.235   8.227   8.850
 5797POPC   GL220354  18.171   8.078   8.850
 5797POPC   C1A20355  18.256   8.226   8.550
 5797POPC   D2A20356  18.241   8.221   8.250
 5797POPC   C3A20357  18.315   8.191   7.950
 5797POPC   C4A20358  18.281   8.193   7.650
 5797POPC   C1B20359  18.115   7.955   8.550
 5797POPC   C2B20360  18.180   8.040   8.250
 5797POPC   C3B20361  18.107   7.949   7.950
 5797POPC   C4B20362  18.182   7.950   7.650
 5798POPC   NC320363  21.424   2.033   9.450
 5798POPC   PO420364  21.376   1.959   9.150
 5798POPC   GL120365  21.352   2.039   8.850
 5798POPC   GL220366  21.527   1.948   8.850
 5798POPC   C1A20367  21.353   2.023   8.550
 5798POPC   D2A20368  21.366   1.951   8.250
 5798POPC   C3A20369  21.415   1.996   7.950
 5798POPC   C4A20370  21.365   2.005   7.650
 5798POPC   C1B20371  21.553   1.809   8.550
 5798POPC   C2B20372  21.576   1.846   8.250
 5798POPC   C3B20373  21.569   1.806   7.950
 5798POPC   C4B20374  21.554   1.833   7.650
 5799POPC   NC320375  32.998   9.769   9.450
 5799POPC   PO420376  33.019   9.761   9.150
 5799POPC   GL120377  33.010   9.742   8.850
 5799POPC   GL220378  33.104   9.733   8.850
 5799POPC   C1A20379  33.049   9.701   8.550
 5799POPC   D2A20380  33.034   9.734   8.250
 5799POPC   C3A20381  33.025   9.739   7.950
 5799POPC   C4A20382  33.057   9.791   7.650
 5799POPC   C1B20383  33.310   9.750   8.550
 5799POPC   C2B20384  33.224   9.845   8.250
 5799POPC   C3B20385  33.219   9.824   7.950
 5799POPC   C4B20386  33.223   9.767   7.650
 5800POPC   NC320387  10.567  17.476   9.450
 5800POPC   PO420388  10.488  17.504   9.150
 5800POPC   GL120389  10.505  17.473   8.850
 5800POPC   GL220390  10.456  17.606   8.850
 5800POPC   C1A20391  10.559  17.475   8.550
 5800POPC   D2A20392  10.565  17.534   8.250
 5800POPC   C3A20393  10.565  17.482   7.950
 5800POPC   C4A20394  10.504  17.494   7.650
 5800POPC   C1B20395  10.350  17.668   8.550
 5800POPC   C2B20396  10.341  17.637   8.250
 5800POPC   C3B20397  10.308  17.721   7.950
 5800POPC   C4B20398  10.391  17.690   7.650
 5801POPC   NC320399  36.117  15.944   9.450
 5801POPC   PO420400  36.094  15.956   9.150
 5801POPC   GL120401  36.117  15.967   8.850
 5801POPC   GL220402  36.186  16.065   8.850
 5801POPC   C1A20403  36.167  15.907   8.550
 5801POPC   D2A20404  36.082  15.953   8.250
 5801POPC   C3A20405  36.170  15.907   7.950
 5801POPC   C4A20406  36.137  15.963   7.650
 5801POPC   C1B20407  36.136  16.173   8.550
 5801POPC   C2B20408  36.118  16.164   8.250
 5801POPC   C3B20409  36.170  16.190   7.950
 5801POPC   C4B20410  36.192  16.199   7.650
 5802POPC   NC320411  23.672  13.658   9.450
 5802POPC   PO420412  23.699  13.618   9.150
 5802POPC   GL120413  23.686  13.579   8.850
 5802POPC   GL220414  23.787  13.549   8.850
 5802POPC   C1A20415  23.714  13.655   8.550
 5802POPC   D2A20416  23.738  13.622   8.250
 5802POPC   C3A20417  23.757  13.620   7.950
 5802POPC   C4A20418  23.694  13.648   7.650
 5802POPC   C1B20419  23.900  13.497   8.550
 5802POPC   C2B20420  23.963  13.464   8.250
 5802POPC   C3B20421  23.911  13.515   7.950
 5802POPC   C4B20422  23.916  13.559   7.650
 5803POPC   NC320423   2.731  11.297   9.450
 5803POPC   PO420424   2.748  11.276   9.150
 5803POPC   GL120425   2.755  11.305   8.850
 5803POPC   GL220426   2.682  11.162   8.850
 5803POPC   C1A20427   2.754  11.344   8.550
 5803POPC   D2A20428   2.800  11.269   8.250
 5803POPC   C3A20429   2.798  11.318   7.950
 5803POPC   C4A20430   2.791  11.293   7.650
 5803POPC   C1B20431   2.665  11.108   8.550
 5803POPC   C2B20432   2.650  11.093   8.250
 5803POPC   C3B20433   2.639  11.094   7.950
 5803POPC   C4B20434   2.639  11.065   7.650
 5804POPC   NC320435  33.804  37.674   9.450
 5804POPC   PO420436  33.829  37.692   9.150
 5804POPC   GL120437  33.806  37.633   8.850
 5804POPC   GL220438  33.755  37.839   8.850
 5804POPC   C1A20439  33.795  37.668   8.550
 5804POPC   D2A20440  33.785  37.687   8.250
 5804POPC   C3A20441  33.835  37.631   7.950
 5804POPC   C4A20442  33.760  37.689   7.650
 5804POPC   C1B20443  33.763  37.946   8.550
 5804POPC   C2B20444  33.693  37.883   8.250
 5804POPC   C3B20445  33.745  37.920   7.950
 5804POPC   C4B20446  33.695  37.963   7.650
 5805POPC   NC320447  40.814  43.869   9.450
 5805POPC   PO420448  40.775  43.864   9.150
 5805POPC   GL120449  40.772  43.925   8.850
 5805POPC   GL220450  40.870  43.864   8.850
 5805POPC   C1A20451  40.824  43.922   8.550
 5805POPC   D2A20452  40.819  43.915   8.250
 5805POPC   C3A20453  40.771  43.907   7.950
 5805POPC   C4A20454  40.790  43.845   7.650
 5805POPC   C1B20455  41.034  43.851   8.550
 5805POPC   C2B20456  40.974  43.835   8.250
 5805POPC   C3B20457  40.994  43.835   7.950
 5805POPC   C4B20458  41.043  43.858   7.650
 5806POPC   NC320459  44.677  20.638   9.450
 5806POPC   PO420460  44.652  20.583   9.150
 5806POPC   GL120461  44.706  20.578   8.850
 5806POPC   GL220462  44.722  20.461   8.850
 5806POPC   C1A20463  44.624  20.627   8.550
 5806POPC   D2A20464  44.709  20.654   8.250
 5806POPC   C3A20465  44.692  20.608   7.950
 5806POPC   C4A20466  44.708  20.613   7.650
 5806POPC   C1B20467  44.785  20.417   8.550
 5806POPC   C2B20468  44.791  20.371   8.250
 5806POPC   C3B20469  44.819  20.401   7.950
 5806POPC   C4B20470  44.758  20.399   7.650
 5807POPC   NC320471   5.057   7.416   9.450
 5807POPC   PO420472   5.071   7.397   9.150
 5807POPC   GL120473   5.099   7.403   8.850
 5807POPC   GL220474   5.192   7.392   8.850
 5807POPC   C1A20475   5.131   7.407   8.550
 5807POPC   D2A20476   5.065   7.456   8.250
 5807POPC   C3A20477   5.053   7.398   7.950
 5807POPC   C4A20478   5.112   7.407   7.650
 5807POPC   C1B20479   5.334   7.457   8.550
 5807POPC   C2B20480   5.305   7.495   8.250
 5807POPC   C3B20481   5.377   7.503   7.950
 5807POPC   C4B20482   5.347   7.443   7.650
 5808POPC   NC320483  19.871   2.762   9.450
 5808POPC   PO420484  19.806   2.774   9.150
 5808POPC   GL120485  19.866   2.741   8.850
 5808POPC   GL220486  19.703   2.786   8.850
 5808POPC   C1A20487  19.842   2.745   8.550
 5808POPC   D2A20488  19.879   2.736   8.250
 5808POPC   C3A20489  19.797   2.716   7.950
 5808POPC   C4A20490  19.811   2.743   7.650
 5808POPC   C1B20491  19.621   2.705   8.550
 5808POPC   C2B20492  19.628   2.760   8.250
 5808POPC   C3B20493  19.583   2.741   7.950
 5808POPC   C4B20494  19.574   2.753   7.650
 5809POPC   NC320495  43.066  23.695   9.450
 5809POPC   PO420496  43.088  23.678   9.150
 5809POPC   GL120497  43.072  23.682   8.850
 5809POPC   GL220498  43.204  23.739   8.850
 5809POPC   C1A20499  43.113  23.746   8.550
 5809POPC   D2A20500  43.075  23.757   8.250
 5809POPC   C3A20501  43.096  23.755   7.950
 5809POPC   C4A20502  43.112  23.714   7.650
 5809POPC   C1B20503  43.299  23.890   8.550
 5809POPC   C2B20504  43.275  23.836   8.250
 5809POPC   C3B20505  43.322  23.872   7.950
 5809POPC   C4B20506  43.364  23.855   7.650
 5810POPC   NC320507   3.537  37.698   9.450
 5810POPC   PO420508   3.531  37.689   9.150
 5810POPC   GL120509   3.529  37.653   8.850
 5810POPC   GL220510   3.571  37.759   8.850
 5810POPC   C1A20511   3.555  37.718   8.550
 5810POPC   D2A20512   3.591  37.643   8.250
 5810POPC   C3A20513   3.528  37.681   7.950
 5810POPC   C4A20514   3.553  37.705   7.650
 5810POPC   C1B20515   3.642  37.871   8.550
 5810POPC   C2B20516   3.649  37.929   8.250
 5810POPC   C3B20517   3.624  37.961   7.950
 5810POPC   C4B20518   3.580  37.958   7.650
 5811POPC   NC320519   4.267   6.630   9.450
 5811POPC   PO420520   4.350   6.666   9.150
 5811POPC   GL120521   4.278   6.690   8.850
 5811POPC   GL220522   4.225   6.552   8.850
 5811POPC   C1A20523   4.347   6.614   8.550
 5811POPC   D2A20524   4.311   6.598   8.250
 5811POPC   C3A20525   4.299   6.605   7.950
 5811POPC   C4A20526   4.338   6.668   7.650
 5811POPC   C1B20527   4.104   6.505   8.550
 5811POPC   C2B20528   4.127   6.550   8.250
 5811POPC   C3B20529   4.118   6.536   7.950
 5811POPC   C4B20530   4.160   6.458   7.650
 5812POPC   NC320531  15.998  39.239   9.450
 5812POPC   PO420532  15.946  39.189   9.150
 5812POPC   GL120533  15.964  39.185   8.850
 5812POPC   GL220534  16.046  39.189   8.850
 5812POPC   C1A20535  15.937  39.232   8.550
 5812POPC   D2A20536  15.938  39.268   8.250
 5812POPC   C3A20537  15.953  39.223   7.950
 5812POPC   C4A20538  15.923  39.265   7.650
 5812POPC   C1B20539  16.186  39.083   8.550
 5812POPC   C2B20540  16.218  39.068   8.250
 5812POPC   C3B20541  16.137  39.066   7.950
 5812POPC   C4B20542  16.173  39.108   7.650
 5813POPC   NC320543  18.241  24.505   9.450
 5813POPC   PO420544  18.318  24.442   9.150
 5813POPC   GL120545  18.279  24.520   8.850
 5813POPC   GL220546  18.331  24.641   8.850
 5813POPC   C1A20547  18.267  24.485   8.550
 5813POPC   D2A20548  18.262  24.489   8.250
 5813POPC   C3A20549  18.328  24.507   7.950
 5813POPC   C4A20550  18.322  24.458   7.650
 5813POPC   C1B20551  18.329  24.691   8.550
 5813POPC   C2B20552  18.379  24.691   8.250
 5813POPC   C3B20553  18.329  24.728   7.950
 5813POPC   C4B20554  18.405  24.720   7.650
 5814POPC   NC320555   8.242  14.354   9.450
 5814POPC   PO420556   8.225  14.414   9.150
 5814POPC   GL120557   8.177  14.435   8.850
 5814POPC   GL220558   8.309  14.415   8.850
 5814POPC   C1A20559   8.239  14.403   8.550
 5814POPC   D2A20560   8.234  14.445   8.250
 5814POPC   C3A20561   8.181  14.385   7.950
 5814POPC   C4A20562   8.240  14.404   7.650
 5814POPC   C1B20563   8.411  14.498   8.550
 5814POPC   C2B20564   8.418  14.478   8.250
 5814POPC   C3B20565   8.431  14.475   7.950
 5814POPC   C4B20566   8.387  14.509   7.650
 5815POPC   NC320567  30.707  22.126   9.450
 5815POPC   PO420568  30.674  22.137   9.150
 5815POPC   GL120569  30.731  22.146   8.850
 5815POPC   GL220570  30.558  22.118   8.850
 5815POPC   C1A20571  30.688  22.198   8.550
 5815POPC   D2A20572  30.654  22.208   8.250
 5815POPC   C3A20573  30.673  22.123   7.950
 5815POPC   C4A20574  30.690  22.156   7.650
 5815POPC   C1B20575  30.483  21.993   8.550
 5815POPC   C2B20576  30.543  21.953   8.250
 5815POPC   C3B20577  30.480  22.046   7.950
 5815POPC   C4B20578  30.517  22.005   7.650
 5816POPC   NC320579  26.776  26.089   9.450
 5816POPC   PO420580  26.817  26.064   9.150
 5816POPC   GL120581  26.804  26.046   8.850
 5816POPC   GL220582  26.890  26.081   8.850
 5816POPC   C1A20583  26.780  25.992   8.550
 5816POPC   D2A20584  26.842  26.037   8.250
 5816POPC   C3A20585  26.772  26.089   7.950
 5816POPC   C4A20586  26.846  26.008   7.650
 5816POPC   C1B20587  27.024  26.114   8.550
 5816POPC   C2B20588  27.099  26.097   8.250
 5816POPC   C3B20589  27.074  26.090   7.950
 5816POPC   C4B20590  27.045  26.114   7.650
 5817POPC   NC320591  36.875  12.828   9.450
 5817POPC   PO420592  36.892  12.831   9.150
 5817POPC   GL120593  36.937  12.863   8.850
 5817POPC   GL220594  36.800  12.806   8.850
 5817POPC   C1A20595  36.910  12.840   8.550
 5817POPC   D2A20596  36.892  12.809   8.250
 5817POPC   C3A20597  36.946  12.872   7.950
 5817POPC   C4A20598  36.864  12.831   7.650
 5817POPC   C1B20599  36.700  12.772   8.550
 5817POPC   C2B20600  36.632  12.770   8.250
 5817POPC   C3B20601  36.672  12.793   7.950
 5817POPC   C4B20602  36.655  12.827   7.650
 5818POPC   NC320603   3.494  22.958   9.450
 5818POPC   PO420604   3.514  22.906   9.150
 5818POPC   GL120605   3.497  22.909   8.850
 5818POPC   GL220606   3.696  22.881   8.850
 5818POPC   C1A20607   3.553  22.895   8.550
 5818POPC   D2A20608   3.501  22.897   8.250
 5818POPC   C3A20609   3.499  22.973   7.950
 5818POPC   C4A20610   3.580  22.984   7.650
 5818POPC   C1B20611   3.750  22.944   8.550
 5818POPC   C2B20612   3.761  22.905   8.250
 5818POPC   C3B20613   3.762  22.953   7.950
 5818POPC   C4B20614   3.805  22.911   7.650
 5819POPC   NC320615  33.825  40.011   9.450
 5819POPC   PO420616  33.813  40.005   9.150
 5819POPC   GL120617  33.798  39.974   8.850
 5819POPC   GL220618  33.680  40.009   8.850
 5819POPC   C1A20619  33.768  40.008   8.550
 5819POPC   D2A20620  33.835  39.980   8.250
 5819POPC   C3A20621  33.798  40.010   7.950
 5819POPC   C4A20622  33.813  40.034   7.650
 5819POPC   C1B20623  33.538  40.101   8.550
 5819POPC   C2B20624  33.531  40.064   8.250
 5819POPC   C3B20625  33.525  40.106   7.950
 5819POPC   C4B20626  33.566  40.084   7.650
 5820POPC   NC320627  25.283   1.220   9.450
 5820POPC   PO420628  25.256   1.253   9.150
 5820POPC   GL120629  25.302   1.192   8.850
 5820POPC   GL220630  25.138   1.233   8.850
 5820POPC   C1A20631  25.296   1.232   8.550
 5820POPC   D2A20632  25.221   1.183   8.250
 5820POPC   C3A20633  25.228   1.188   7.950
 5820POPC   C4A20634  25.235   1.211   7.650
 5820POPC   C1B20635  24.974   1.225   8.550
 5820POPC   C2B20636  25.062   1.223   8.250
 5820POPC   C3B20637  25.020   1.230   7.950
 5820POPC   C4B20638  25.003   1.202   7.650
 5821POPC   NC320639  13.611  31.454   9.450
 5821POPC   PO420640  13.602  31.430   9.150
 5821POPC   GL120641  13.632  31.456   8.850
 5821POPC   GL220642  13.532  31.580   8.850
 5821POPC   C1A20643  13.618  31.521   8.550
 5821POPC   D2A20644  13.623  31.476   8.250
 5821POPC   C3A20645  13.595  31.447   7.950
 5821POPC   C4A20646  13.669  31.498   7.650
 5821POPC   C1B20647  13.410  31.648   8.550
 5821POPC   C2B20648  13.433  31.612   8.250
 5821POPC   C3B20649  13.426  31.619   7.950
 5821POPC   C4B20650  13.470  31.593   7.650
 5822POPC   NC320651   5.115   3.588   9.450
 5822POPC   PO420652   5.075   3.551   9.150
 5822POPC   GL120653   5.057   3.540   8.850
 5822POPC   GL220654   5.228   3.625   8.850
 5822POPC   C1A20655   5.103   3.521   8.550
 5822POPC   D2A20656   5.097   3.548   8.250
 5822POPC   C3A20657   5.124   3.576   7.950
 5822POPC   C4A20658   5.135   3.568   7.650
 5822POPC   C1B20659   5.320   3.732   8.550
 5822POPC   C2B20660   5.237   3.664   8.250
 5822POPC   C3B20661   5.293   3.684   7.950
 5822POPC   C4B20662   5.258   3.724   7.650
 5823POPC   NC320663   6.646  37.694   9.450
 5823POPC   PO420664   6.654  37.717   9.150
 5823POPC   GL120665   6.640  37.641   8.850
 5823POPC   GL220666   6.731  37.675   8.850
 5823POPC   C1A20667   6.647  37.713   8.550
 5823POPC   D2A20668   6.607  37.637   8.250
 5823POPC   C3A20669   6.596  37.629   7.950
 5823POPC   C4A20670   6.678  37.679   7.650
 5823POPC   C1B20671   6.889  37.570   8.550
 5823POPC   C2B20672   6.907  37.583   8.250
 5823POPC   C3B20673   6.835  37.659   7.950
 5823POPC   C4B20674   6.919  37.612   7.650
 5824POPC   NC320675  33.035  36.140   9.450
 5824POPC   PO420676  33.022  36.143   9.150
 5824POPC   GL120677  33.052  36.143   8.850
 5824POPC   GL220678  33.030  36.252   8.850
 5824POPC   C1A20679  33.060  36.100   8.550
 5824POPC   D2A20680  33.011  36.164   8.250
 5824POPC   C3A20681  32.993  36.095   7.950
 5824POPC   C4A20682  32.987  36.093   7.650
 5824POPC   C1B20683  33.077  36.356   8.550
 5824POPC   C2B20684  33.151  36.347   8.250
 5824POPC   C3B20685  33.081  36.380   7.950
 5824POPC   C4B20686  33.161  36.390   7.650
 5825POPC   NC320687  22.192  25.255   9.450
 5825POPC   PO420688  22.188  25.279   9.150
 5825POPC   GL120689  22.150  25.285   8.850
 5825POPC   GL220690  22.273  25.237   8.850
 5825POPC   C1A20691  22.129  25.275   8.550
 5825POPC   D2A20692  22.127  25.232   8.250
 5825POPC   C3A20693  22.189  25.279   7.950
 5825POPC   C4A20694  22.138  25.219   7.650
 5825POPC   C1B20695  22.374  25.261   8.550
 5825POPC   C2B20696  22.389  25.196   8.250
 5825POPC   C3B20697  22.414  25.217   7.950
 5825POPC   C4B20698  22.385  25.179   7.650
 5826POPC   NC320699  43.124  17.550   9.450
 5826POPC   PO420700  43.157  17.482   9.150
 5826POPC   GL120701  43.151  17.516   8.850
 5826POPC   GL220702  42.998  17.646   8.850
 5826POPC   C1A20703  43.092  17.522   8.550
 5826POPC   D2A20704  43.073  17.519   8.250
 5826POPC   C3A20705  43.072  17.461   7.950
 5826POPC   C4A20706  43.155  17.507   7.650
 5826POPC   C1B20707  42.924  17.711   8.550
 5826POPC   C2B20708  42.957  17.689   8.250
 5826POPC   C3B20709  42.936  17.740   7.950
 5826POPC   C4B20710  42.998  17.718   7.650
 5827POPC   NC320711  15.165  28.384   9.450
 5827POPC   PO420712  15.196  28.331   9.150
 5827POPC   GL120713  15.191  28.378   8.850
 5827POPC   GL220714  15.205  28.255   8.850
 5827POPC   C1A20715  15.174  28.397   8.550
 5827POPC   D2A20716  15.179  28.338   8.250
 5827POPC   C3A20717  15.145  28.414   7.950
 5827POPC   C4A20718  15.145  28.379   7.650
 5827POPC   C1B20719  15.122  28.165   8.550
 5827POPC   C2B20720  15.158  28.081   8.250
 5827POPC   C3B20721  15.128  28.155   7.950
 5827POPC   C4B20722  15.098  28.090   7.650
 5828POPC   NC320723  10.502  13.628   9.450
 5828POPC   PO420724  10.543  13.598   9.150
 5828POPC   GL120725  10.477  13.604   8.850
 5828POPC   GL220726  10.599  13.531   8.850
 5828POPC   C1A20727  10.529  13.611   8.550
 5828POPC   D2A20728  10.572  13.616   8.250
 5828POPC   C3A20729  10.547  13.592   7.950
 5828POPC   C4A20730  10.510  13.662   7.650
 5828POPC   C1B20731  10.708  13.491   8.550
 5828POPC   C2B20732  10.756  13.503   8.250
 5828POPC   C3B20733  10.704  13.430   7.950
 5828POPC   C4B20734  10.715  13.447   7.650
 5829POPC   NC320735  42.348  21.354   9.450
 5829POPC   PO420736  42.375  21.406   9.150
 5829POPC   GL120737  42.311  21.409   8.850
 5829POPC   GL220738  42.312  21.250   8.850
 5829POPC   C1A20739  42.328  21.428   8.550
 5829POPC   D2A20740  42.338  21.417   8.250
 5829POPC   C3A20741  42.370  21.425   7.950
 5829POPC   C4A20742  42.293  21.355   7.650
 5829POPC   C1B20743  42.304  21.121   8.550
 5829POPC   C2B20744  42.291  21.127   8.250
 5829POPC   C3B20745  42.313  21.127   7.950
 5829POPC   C4B20746  42.332  21.159   7.650
 5830POPC   NC320747  11.258  40.738   9.450
 5830POPC   PO420748  11.279  40.817   9.150
 5830POPC   GL120749  11.279  40.804   8.850
 5830POPC   GL220750  11.219  40.712   8.850
 5830POPC   C1A20751  11.310  40.776   8.550
 5830POPC   D2A20752  11.252  40.793   8.250
 5830POPC   C3A20753  11.253  40.786   7.950
 5830POPC   C4A20754  11.324  40.750   7.650
 5830POPC   C1B20755  11.195  40.591   8.550
 5830POPC   C2B20756  11.185  40.572   8.250
 5830POPC   C3B20757  11.203  40.573   7.950
 5830POPC   C4B20758  11.174  40.527   7.650
 5831POPC   NC320759  42.315  22.944   9.450
 5831POPC   PO420760  42.340  22.984   9.150
 5831POPC   GL120761  42.367  22.924   8.850
 5831POPC   GL220762  42.204  23.005   8.850
 5831POPC   C1A20763  42.327  22.894   8.550
 5831POPC   D2A20764  42.289  22.919   8.250
 5831POPC   C3A20765  42.362  22.939   7.950
 5831POPC   C4A20766  42.303  22.895   7.650
 5831POPC   C1B20767  42.144  23.038   8.550
 5831POPC   C2B20768  42.068  23.011   8.250
 5831POPC   C3B20769  42.075  22.994   7.950
 5831POPC   C4B20770  42.099  23.073   7.650
 5832POPC   NC320771  10.477  30.737   9.450
 5832POPC   PO420772  10.556  30.713   9.150
 5832POPC   GL120773  10.491  30.715   8.850
 5832POPC   GL220774  10.594  30.825   8.850
 5832POPC   C1A20775  10.560  30.733   8.550
 5832POPC   D2A20776  10.516  30.741   8.250
 5832POPC   C3A20777  10.498  30.733   7.950
 5832POPC   C4A20778  10.511  30.691   7.650
 5832POPC   C1B20779  10.682  30.956   8.550
 5832POPC   C2B20780  10.679  30.886   8.250
 5832POPC   C3B20781  10.648  30.879   7.950
 5832POPC   C4B20782  10.661  30.879   7.650
 5833POPC   NC320783  11.250  36.876   9.450
 5833POPC   PO420784  11.294  36.910   9.150
 5833POPC   GL120785  11.260  36.854   8.850
 5833POPC   GL220786  11.447  37.015   8.850
 5833POPC   C1A20787  11.253  36.929   8.550
 5833POPC   D2A20788  11.287  36.934   8.250
 5833POPC   C3A20789  11.302  36.916   7.950
 5833POPC   C4A20790  11.312  36.855   7.650
 5833POPC   C1B20791  11.520  37.076   8.550
 5833POPC   C2B20792  11.515  37.066   8.250
 5833POPC   C3B20793  11.464  36.987   7.950
 5833POPC   C4B20794  11.546  37.030   7.650
 5834POPC   NC320795  16.747  38.461   9.450
 5834POPC   PO420796  16.763  38.458   9.150
 5834POPC   GL120797  16.769  38.416   8.850
 5834POPC   GL220798  16.710  38.352   8.850
 5834POPC   C1A20799  16.699  38.463   8.550
 5834POPC   D2A20800  16.757  38.418   8.250
 5834POPC   C3A20801  16.718  38.436   7.950
 5834POPC   C4A20802  16.693  38.487   7.650
 5834POPC   C1B20803  16.684  38.217   8.550
 5834POPC   C2B20804  16.623  38.178   8.250
 5834POPC   C3B20805  16.663  38.257   7.950
 5834POPC   C4B20806  16.656  38.174   7.650
 5835POPC   NC320807  33.818  35.395   9.450
 5835POPC   PO420808  33.835  35.342   9.150
 5835POPC   GL120809  33.782  35.372   8.850
 5835POPC   GL220810  33.842  35.482   8.850
 5835POPC   C1A20811  33.830  35.400   8.550
 5835POPC   D2A20812  33.759  35.335   8.250
 5835POPC   C3A20813  33.756  35.397   7.950
 5835POPC   C4A20814  33.762  35.381   7.650
 5835POPC   C1B20815  33.967  35.572   8.550
 5835POPC   C2B20816  33.975  35.538   8.250
 5835POPC   C3B20817  33.947  35.528   7.950
 5835POPC   C4B20818  33.979  35.516   7.650
 5836POPC   NC320819  12.854  13.584   9.450
 5836POPC   PO420820  12.804  13.638   9.150
 5836POPC   GL120821  12.879  13.629   8.850
 5836POPC   GL220822  13.012  13.606   8.850
 5836POPC   C1A20823  12.813  13.631   8.550
 5836POPC   D2A20824  12.859  13.597   8.250
 5836POPC   C3A20825  12.869  13.632   7.950
 5836POPC   C4A20826  12.898  13.614   7.650
 5836POPC   C1B20827  13.137  13.566   8.550
 5836POPC   C2B20828  13.052  13.598   8.250
 5836POPC   C3B20829  13.064  13.635   7.950
 5836POPC   C4B20830  13.138  13.614   7.650
 5837POPC   NC320831  28.320  30.714   9.450
 5837POPC   PO420832  28.341  30.660   9.150
 5837POPC   GL120833  28.410  30.735   8.850
 5837POPC   GL220834  28.444  30.605   8.850
 5837POPC   C1A20835  28.383  30.702   8.550
 5837POPC   D2A20836  28.338  30.682   8.250
 5837POPC   C3A20837  28.353  30.648   7.950
 5837POPC   C4A20838  28.412  30.669   7.650
 5837POPC   C1B20839  28.520  30.503   8.550
 5837POPC   C2B20840  28.552  30.496   8.250
 5837POPC   C3B20841  28.546  30.514   7.950
 5837POPC   C4B20842  28.520  30.559   7.650
 5838POPC   NC320843  29.189  43.095   9.450
 5838POPC   PO420844  29.152  43.082   9.150
 5838POPC   GL120845  29.176  43.143   8.850
 5838POPC   GL220846  29.082  43.052   8.850
 5838POPC   C1A20847  29.150  43.069   8.550
 5838POPC   D2A20848  29.104  43.082   8.250
 5838POPC   C3A20849  29.122  43.158   7.950
 5838POPC   C4A20850  29.178  43.134   7.650
 5838POPC   C1B20851  28.933  43.049   8.550
 5838POPC   C2B20852  28.887  43.044   8.250
 5838POPC   C3B20853  28.947  43.033   7.950
 5838POPC   C4B20854  28.910  43.050   7.650
 5839POPC   NC320855  42.332  32.233   9.450
 5839POPC   PO420856  42.321  32.213   9.150
 5839POPC   GL120857  42.354  32.226   8.850
 5839POPC   GL220858  42.238  32.191   8.850
 5839POPC   C1A20859  42.374  32.202   8.550
 5839POPC   D2A20860  42.324  32.203   8.250
 5839POPC   C3A20861  42.336  32.296   7.950
 5839POPC   C4A20862  42.292  32.255   7.650
 5839POPC   C1B20863  42.114  32.129   8.550
 5839POPC   C2B20864  42.090  32.159   8.250
 5839POPC   C3B20865  42.067  32.154   7.950
 5839POPC   C4B20866  42.118  32.082   7.650
 5840POPC   NC320867  42.301  26.003   9.450
 5840POPC   PO420868  42.338  26.082   9.150
 5840POPC   GL120869  42.320  26.038   8.850
 5840POPC   GL220870  42.225  26.092   8.850
 5840POPC   C1A20871  42.289  26.059   8.550
 5840POPC   D2A20872  42.375  26.015   8.250
 5840POPC   C3A20873  42.372  26.059   7.950
 5840POPC   C4A20874  42.327  26.081   7.650
 5840POPC   C1B20875  42.191  26.204   8.550
 5840POPC   C2B20876  42.164  26.186   8.250
 5840POPC   C3B20877  42.156  26.225   7.950
 5840POPC   C4B20878  42.120  26.190   7.650
 5841POPC   NC320879  20.618  20.609   9.450
 5841POPC   PO420880  20.633  20.564   9.150
 5841POPC   GL120881  20.628  20.569   8.850
 5841POPC   GL220882  20.585  20.702   8.850
 5841POPC   C1A20883  20.568  20.593   8.550
 5841POPC   D2A20884  20.651  20.597   8.250
 5841POPC   C3A20885  20.609  20.640   7.950
 5841POPC   C4A20886  20.641  20.628   7.650
 5841POPC   C1B20887  20.500  20.799   8.550
 5841POPC   C2B20888  20.498  20.786   8.250
 5841POPC   C3B20889  20.423  20.828   7.950
 5841POPC   C4B20890  20.463  20.822   7.650
 5842POPC   NC320891  26.035  40.821   9.450
 5842POPC   PO420892  26.004  40.783   9.150
 5842POPC   GL120893  26.011  40.735   8.850
 5842POPC   GL220894  26.013  40.912   8.850
 5842POPC   C1A20895  26.012  40.826   8.550
 5842POPC   D2A20896  26.004  40.740   8.250
 5842POPC   C3A20897  26.011  40.810   7.950
 5842POPC   C4A20898  26.007  40.813   7.650
 5842POPC   C1B20899  25.950  40.994   8.550
 5842POPC   C2B20900  25.956  41.009   8.250
 5842POPC   C3B20901  25.971  41.037   7.950
 5842POPC   C4B20902  25.965  41.060   7.650
 5843POPC   NC320903  28.393  25.293   9.450
 5843POPC   PO420904  28.387  25.226   9.150
 5843POPC   GL120905  28.410  25.293   8.850
 5843POPC   GL220906  28.447  25.196   8.850
 5843POPC   C1A20907  28.359  25.292   8.550
 5843POPC   D2A20908  28.401  25.313   8.250
 5843POPC   C3A20909  28.385  25.216   7.950
 5843POPC   C4A20910  28.338  25.241   7.650
 5843POPC   C1B20911  28.469  25.053   8.550
 5843POPC   C2B20912  28.535  25.055   8.250
 5843POPC   C3B20913  28.516  25.066   7.950
 5843POPC   C4B20914  28.444  25.009   7.650
 5844POPC   NC320915   1.993  19.068   9.450
 5844POPC   PO420916   2.011  19.078   9.150
 5844POPC   GL120917   2.011  19.082   8.850
 5844POPC   GL220918   1.924  18.949   8.850
 5844POPC   C1A20919   2.024  19.041   8.550
 5844POPC   D2A20920   2.009  19.077   8.250
 5844POPC   C3A20921   1.946  19.106   7.950
 5844POPC   C4A20922   1.950  19.066   7.650
 5844POPC   C1B20923   1.813  18.932   8.550
 5844POPC   C2B20924   1.847  18.931   8.250
 5844POPC   C3B20925   1.767  18.843   7.950
 5844POPC   C4B20926   1.812  18.844   7.650
 5845POPC   NC320927   1.229  19.834   9.450
 5845POPC   PO420928   1.194  19.861   9.150
 5845POPC   GL120929   1.196  19.852   8.850
 5845POPC   GL220930   1.140  19.779   8.850
 5845POPC   C1A20931   1.220  19.849   8.550
 5845POPC   D2A20932   1.260  19.825   8.250
 5845POPC   C3A20933   1.215  19.869   7.950
 5845POPC   C4A20934   1.243  19.816   7.650
 5845POPC   C1B20935   1.015  19.718   8.550
 5845POPC   C2B20936   1.012  19.715   8.250
 5845POPC   C3B20937   0.972  19.740   7.950
 5845POPC   C4B20938   0.998  19.679   7.650
 5846POPC   NC320939   5.063  36.098   9.450
 5846POPC   PO420940   5.060  36.154   9.150
 5846POPC   GL120941   5.057  36.117   8.850
 5846POPC   GL220942   5.008  36.219   8.850
 5846POPC   C1A20943   5.069  36.096   8.550
 5846POPC   D2A20944   5.136  36.085   8.250
 5846POPC   C3A20945   5.086  36.127   7.950
 5846POPC   C4A20946   5.065  36.101   7.650
 5846POPC   C1B20947   4.901  36.319   8.550
 5846POPC   C2B20948   4.944  36.275   8.250
 5846POPC   C3B20949   4.908  36.280   7.950
 5846POPC   C4B20950   4.950  36.249   7.650
 5847POPC   NC320951  27.564  21.429   9.450
 5847POPC   PO420952  27.583  21.384   9.150
 5847POPC   GL120953  27.599  21.350   8.850
 5847POPC   GL220954  27.494  21.262   8.850
 5847POPC   C1A20955  27.587  21.425   8.550
 5847POPC   D2A20956  27.635  21.407   8.250
 5847POPC   C3A20957  27.639  21.393   7.950
 5847POPC   C4A20958  27.571  21.346   7.650
 5847POPC   C1B20959  27.456  21.197   8.550
 5847POPC   C2B20960  27.466  21.162   8.250
 5847POPC   C3B20961  27.490  21.216   7.950
 5847POPC   C4B20962  27.486  21.186   7.650
 5848POPC   NC320963   4.330  43.103   9.450
 5848POPC   PO420964   4.283  43.064   9.150
 5848POPC   GL120965   4.346  43.089   8.850
 5848POPC   GL220966   4.240  43.167   8.850
 5848POPC   C1A20967   4.292  43.098   8.550
 5848POPC   D2A20968   4.338  43.072   8.250
 5848POPC   C3A20969   4.342  43.140   7.950
 5848POPC   C4A20970   4.327  43.151   7.650
 5848POPC   C1B20971   4.147  43.313   8.550
 5848POPC   C2B20972   4.154  43.277   8.250
 5848POPC   C3B20973   4.187  43.331   7.950
 5848POPC   C4B20974   4.188  43.331   7.650
 5849POPC   NC320975  22.962  19.855   9.450
 5849POPC   PO420976  22.960  19.868   9.150
 5849POPC   GL120977  22.966  19.785   8.850
 5849POPC   GL220978  23.010  19.937   8.850
 5849POPC   C1A20979  22.938  19.806   8.550
 5849POPC   D2A20980  22.903  19.832   8.250
 5849POPC   C3A20981  22.974  19.858   7.950
 5849POPC   C4A20982  22.972  19.865   7.650
 5849POPC   C1B20983  23.047  20.059   8.550
 5849POPC   C2B20984  23.041  20.028   8.250
 5849POPC   C3B20985  23.038  20.077   7.950
 5849POPC   C4B20986  23.009  20.101   7.650
 5850POPC   NC320987   1.237  40.768   9.450
 5850POPC   PO420988   1.232  40.821   9.150
 5850POPC   GL120989   1.166  40.781   8.850
 5850POPC   GL220990   1.098  40.865   8.850
 5850POPC   C1A20991   1.189  40.823   8.550
 5850POPC   D2A20992   1.183  40.743   8.250
 5850POPC   C3A20993   1.166  40.788   7.950
 5850POPC   C4A20994   1.245  40.750   7.650
 5850POPC   C1B20995   0.992  40.902   8.550
 5850POPC   C2B20996   0.989  40.865   8.250
 5850POPC   C3B20997   0.992  40.895   7.950
 5850POPC   C4B20998   0.959  40.914   7.650
 5851POPC   NC320999   7.382  34.595   9.450
 5851POPC   PO421000   7.412  34.620   9.150
 5851POPC   GL121001   7.405  34.579   8.850
 5851POPC   GL221002   7.317  34.624   8.850
 5851POPC   C1A21003   7.437  34.590   8.550
 5851POPC   D2A21004   7.454  34.586   8.250
 5851POPC   C3A21005   7.372  34.598   7.950
 5851POPC   C4A21006   7.389  34.560   7.650
 5851POPC   C1B21007   7.239  34.718   8.550
 5851POPC   C2B21008   7.212  34.714   8.250
 5851POPC   C3B21009   7.235  34.628   7.950
 5851POPC   C4B21010   7.221  34.635   7.650
 5852POPC   NC321011  19.848  20.590   9.450
 5852POPC   PO421012  19.817  20.579   9.150
 5852POPC   GL121013  19.879  20.569   8.850
 5852POPC   GL221014  19.790  20.460   8.850
 5852POPC   C1A21015  19.884  20.649   8.550
 5852POPC   D2A21016  19.828  20.655   8.250
 5852POPC   C3A21017  19.799  20.601   7.950
 5852POPC   C4A21018  19.829  20.574   7.650
 5852POPC   C1B21019  19.768  20.390   8.550
 5852POPC   C2B21020  19.768  20.332   8.250
 5852POPC   C3B21021  19.774  20.343   7.950
 5852POPC   C4B21022  19.704  20.332   7.650
 5853POPC   NC321023  20.646  23.739   9.450
 5853POPC   PO421024  20.608  23.686   9.150
 5853POPC   GL121025  20.608  23.711   8.850
 5853POPC   GL221026  20.731  23.676   8.850
 5853POPC   C1A21027  20.598  23.730   8.550
 5853POPC   D2A21028  20.614  23.694   8.250
 5853POPC   C3A21029  20.660  23.721   7.950
 5853POPC   C4A21030  20.593  23.756   7.650
 5853POPC   C1B21031  20.887  23.734   8.550
 5853POPC   C2B21032  20.841  23.674   8.250
 5853POPC   C3B21033  20.829  23.672   7.950
 5853POPC   C4B21034  20.857  23.668   7.650
 5854POPC   NC321035   4.361  12.890   9.450
 5854POPC   PO421036   4.277  12.803   9.150
 5854POPC   GL121037   4.274  12.875   8.850
 5854POPC   GL221038   4.228  12.930   8.850
 5854POPC   C1A21039   4.330  12.886   8.550
 5854POPC   D2A21040   4.310  12.871   8.250
 5854POPC   C3A21041   4.272  12.884   7.950
 5854POPC   C4A21042   4.287  12.887   7.650
 5854POPC   C1B21043   4.046  12.921   8.550
 5854POPC   C2B21044   4.129  12.930   8.250
 5854POPC   C3B21045   4.117  12.926   7.950
 5854POPC   C4B21046   4.080  12.949   7.650
 5855POPC   NC321047  12.113  26.798   9.450
 5855POPC   PO421048  12.031  26.800   9.150
 5855POPC   GL121049  12.114  26.829   8.850
 5855POPC   GL221050  11.960  26.729   8.850
 5855POPC   C1A21051  12.058  26.861   8.550
 5855POPC   D2A21052  12.048  26.800   8.250
 5855POPC   C3A21053  12.117  26.855   7.950
 5855POPC   C4A21054  12.104  26.815   7.650
 5855POPC   C1B21055  11.890  26.657   8.550
 5855POPC   C2B21056  11.850  26.734   8.250
 5855POPC   C3B21057  11.843  26.733   7.950
 5855POPC   C4B21058  11.817  26.733   7.650
 5856POPC   NC321059  34.602  17.533   9.450
 5856POPC   PO421060  34.612  17.549   9.150
 5856POPC   GL121061  34.565  17.493   8.850
 5856POPC   GL221062  34.680  17.487   8.850
 5856POPC   C1A21063  34.609  17.474   8.550
 5856POPC   D2A21064  34.611  17.466   8.250
 5856POPC   C3A21065  34.533  17.509   7.950
 5856POPC   C4A21066  34.556  17.506   7.650
 5856POPC   C1B21067  34.875  17.541   8.550
 5856POPC   C2B21068  34.826  17.451   8.250
 5856POPC   C3B21069  34.821  17.478   7.950
 5856POPC   C4B21070  34.838  17.484   7.650
 5857POPC   NC321071  27.615  25.250   9.450
 5857POPC   PO421072  27.548  25.248   9.150
 5857POPC   GL121073  27.572  25.258   8.850
 5857POPC   GL221074  27.629  25.131   8.850
 5857POPC   C1A21075  27.545  25.219   8.550
 5857POPC   D2A21076  27.635  25.243   8.250
 5857POPC   C3A21077  27.642  25.281   7.950
 5857POPC   C4A21078  27.565  25.246   7.650
 5857POPC   C1B21079  27.521  25.033   8.550
 5857POPC   C2B21080  27.588  25.039   8.250
 5857POPC   C3B21081  27.576  25.033   7.950
 5857POPC   C4B21082  27.612  25.049   7.650
 5858POPC   NC321083  44.684  28.378   9.450
 5858POPC   PO421084  44.666  28.411   9.150
 5858POPC   GL121085  44.620  28.336   8.850
 5858POPC   GL221086  44.708  28.503   8.850
 5858POPC   C1A21087  44.626  28.399   8.550
 5858POPC   D2A21088  44.637  28.416   8.250
 5858POPC   C3A21089  44.647  28.399   7.950
 5858POPC   C4A21090  44.657  28.329   7.650
 5858POPC   C1B21091  44.826  28.597   8.550
 5858POPC   C2B21092  44.790  28.616   8.250
 5858POPC   C3B21093  44.820  28.574   7.950
 5858POPC   C4B21094  44.772  28.541   7.650
 5859POPC   NC321095  27.637   7.401   9.450
 5859POPC   PO421096  27.590   7.457   9.150
 5859POPC   GL121097  27.617   7.387   8.850
 5859POPC   GL221098  27.717   7.352   8.850
 5859POPC   C1A21099  27.619   7.429   8.550
 5859POPC   D2A21100  27.611   7.448   8.250
 5859POPC   C3A21101  27.636   7.436   7.950
 5859POPC   C4A21102  27.551   7.438   7.650
 5859POPC   C1B21103  27.841   7.283   8.550
 5859POPC   C2B21104  27.839   7.258   8.250
 5859POPC   C3B21105  27.835   7.280   7.950
 5859POPC   C4B21106  27.783   7.241   7.650
 5860POPC   NC321107   1.999   3.512   9.450
 5860POPC   PO421108   1.974   3.550   9.150
 5860POPC   GL121109   1.941   3.500   8.850
 5860POPC   GL221110   1.927   3.436   8.850
 5860POPC   C1A21111   1.948   3.552   8.550
 5860POPC   D2A21112   2.038   3.496   8.250
 5860POPC   C3A21113   1.983   3.511   7.950
 5860POPC   C4A21114   1.952   3.515   7.650
 5860POPC   C1B21115   1.910   3.351   8.550
 5860POPC   C2B21116   1.862   3.273   8.250
 5860POPC   C3B21117   1.911   3.351   7.950
 5860POPC   C4B21118   1.894   3.299   7.650
 5861POPC   NC321119   2.019  37.634   9.450
 5861POPC   PO421120   2.032  37.723   9.150
 5861POPC   GL121121   1.947  37.671   8.850
 5861POPC   GL221122   1.939  37.553   8.850
 5861POPC   C1A21123   1.999  37.645   8.550
 5861POPC   D2A21124   1.982  37.709   8.250
 5861POPC   C3A21125   1.949  37.703   7.950
 5861POPC   C4A21126   2.010  37.665   7.650
 5861POPC   C1B21127   1.864  37.470   8.550
 5861POPC   C2B21128   1.822  37.490   8.250
 5861POPC   C3B21129   1.816  37.456   7.950
 5861POPC   C4B21130   1.842  37.439   7.650
 5862POPC   NC321131  29.937   8.219   9.450
 5862POPC   PO421132  29.962   8.211   9.150
 5862POPC   GL121133  29.961   8.229   8.850
 5862POPC   GL221134  29.936   8.029   8.850
 5862POPC   C1A21135  29.898   8.170   8.550
 5862POPC   D2A21136  29.939   8.193   8.250
 5862POPC   C3A21137  29.904   8.151   7.950
 5862POPC   C4A21138  29.921   8.222   7.650
 5862POPC   C1B21139  29.983   7.933   8.550
 5862POPC   C2B21140  29.972   7.938   8.250
 5862POPC   C3B21141  29.927   7.983   7.950
 5862POPC   C4B21142  29.945   7.910   7.650
 5863POPC   NC321143  32.243  43.910   9.450
 5863POPC   PO421144  32.218  43.842   9.150
 5863POPC   GL121145  32.295  43.898   8.850
 5863POPC   GL221146  32.302  44.014   8.850
 5863POPC   C1A21147  32.274  43.922   8.550
 5863POPC   D2A21148  32.293  43.875   8.250
 5863POPC   C3A21149  32.288  43.916   7.950
 5863POPC   C4A21150  32.218  43.902   7.650
 5863POPC   C1B21151  32.272  44.172   8.550
 5863POPC   C2B21152  32.251  44.094   8.250
 5863POPC   C3B21153  32.282  44.161   7.950
 5863POPC   C4B21154  32.256  44.096   7.650
 5864POPC   NC321155  12.864   8.184   9.450
 5864POPC   PO421156  12.873   8.228   9.150
 5864POPC   GL121157  12.851   8.193   8.850
 5864POPC   GL221158  12.775   8.066   8.850
 5864POPC   C1A21159  12.807   8.227   8.550
 5864POPC   D2A21160  12.849   8.184   8.250
 5864POPC   C3A21161  12.886   8.203   7.950
 5864POPC   C4A21162  12.822   8.169   7.650
 5864POPC   C1B21163  12.751   7.946   8.550
 5864POPC   C2B21164  12.737   7.957   8.250
 5864POPC   C3B21165  12.795   7.919   7.950
 5864POPC   C4B21166  12.738   7.982   7.650
 5865POPC   NC321167  33.035  33.821   9.450
 5865POPC   PO421168  33.002  33.765   9.150
 5865POPC   GL121169  33.038  33.800   8.850
 5865POPC   GL221170  33.070  33.736   8.850
 5865POPC   C1A21171  33.062  33.767   8.550
 5865POPC   D2A21172  33.071  33.842   8.250
 5865POPC   C3A21173  33.044  33.805   7.950
 5865POPC   C4A21174  33.064  33.805   7.650
 5865POPC   C1B21175  33.123  33.555   8.550
 5865POPC   C2B21176  33.090  33.616   8.250
 5865POPC   C3B21177  33.095  33.538   7.950
 5865POPC   C4B21178  33.099  33.586   7.650
 5866POPC   NC321179  15.920  30.650   9.450
 5866POPC   PO421180  15.940  30.681   9.150
 5866POPC   GL121181  15.929  30.687   8.850
 5866POPC   GL221182  15.827  30.699   8.850
 5866POPC   C1A21183  15.927  30.716   8.550
 5866POPC   D2A21184  16.005  30.721   8.250
 5866POPC   C3A21185  15.958  30.668   7.950
 5866POPC   C4A21186  15.935  30.684   7.650
 5866POPC   C1B21187  15.713  30.637   8.550
 5866POPC   C2B21188  15.660  30.690   8.250
 5866POPC   C3B21189  15.702  30.624   7.950
 5866POPC   C4B21190  15.699  30.652   7.650
 5867POPC   NC321191  38.452  15.990   9.450
 5867POPC   PO421192  38.420  15.965   9.150
 5867POPC   GL121193  38.405  15.914   8.850
 5867POPC   GL221194  38.592  16.022   8.850
 5867POPC   C1A21195  38.453  15.924   8.550
 5867POPC   D2A21196  38.476  15.958   8.250
 5867POPC   C3A21197  38.435  15.937   7.950
 5867POPC   C4A21198  38.411  15.924   7.650
 5867POPC   C1B21199  38.671  16.093   8.550
 5867POPC   C2B21200  38.648  16.030   8.250
 5867POPC   C3B21201  38.666  16.050   7.950
 5867POPC   C4B21202  38.678  16.070   7.650
 5868POPC   NC321203  30.689  29.905   9.450
 5868POPC   PO421204  30.707  29.884   9.150
 5868POPC   GL121205  30.683  29.889   8.850
 5868POPC   GL221206  30.654  29.999   8.850
 5868POPC   C1A21207  30.677  29.905   8.550
 5868POPC   D2A21208  30.684  29.885   8.250
 5868POPC   C3A21209  30.717  29.872   7.950
 5868POPC   C4A21210  30.746  29.873   7.650
 5868POPC   C1B21211  30.622  30.196   8.550
 5868POPC   C2B21212  30.670  30.204   8.250
 5868POPC   C3B21213  30.684  30.191   7.950
 5868POPC   C4B21214  30.701  30.144   7.650
 5869POPC   NC321215  44.634  12.814   9.450
 5869POPC   PO421216  44.692  12.900   9.150
 5869POPC   GL121217  44.627  12.819   8.850
 5869POPC   GL221218  44.712  12.736   8.850
 5869POPC   C1A21219  44.665  12.833   8.550
 5869POPC   D2A21220  44.650  12.851   8.250
 5869POPC   C3A21221  44.633  12.809   7.950
 5869POPC   C4A21222  44.706  12.807   7.650
 5869POPC   C1B21223  44.829  12.630   8.550
 5869POPC   C2B21224  44.879  12.700   8.250
 5869POPC   C3B21225  44.837  12.652   7.950
 5869POPC   C4B21226  44.822  12.674   7.650
 5870POPC   NC321227   5.078   8.233   9.450
 5870POPC   PO421228   5.108   8.168   9.150
 5870POPC   GL121229   5.055   8.241   8.850
 5870POPC   GL221230   5.245   8.202   8.850
 5870POPC   C1A21231   5.067   8.208   8.550
 5870POPC   D2A21232   5.123   8.226   8.250
 5870POPC   C3A21233   5.125   8.235   7.950
 5870POPC   C4A21234   5.089   8.153   7.650
 5870POPC   C1B21235   5.287   8.253   8.550
 5870POPC   C2B21236   5.332   8.321   8.250
 5870POPC   C3B21237   5.285   8.317   7.950
 5870POPC   C4B21238   5.275   8.318   7.650
 5871POPC   NC321239  32.998  18.326   9.450
 5871POPC   PO421240  33.034  18.329   9.150
 5871POPC   GL121241  33.032  18.238   8.850
 5871POPC   GL221242  33.163  18.340   8.850
 5871POPC   C1A21243  33.001  18.273   8.550
 5871POPC   D2A21244  33.050  18.280   8.250
 5871POPC   C3A21245  33.044  18.241   7.950
 5871POPC   C4A21246  33.045  18.242   7.650
 5871POPC   C1B21247  33.263  18.357   8.550
 5871POPC   C2B21248  33.268  18.295   8.250
 5871POPC   C3B21249  33.253  18.322   7.950
 5871POPC   C4B21250  33.281  18.318   7.650
 5872POPC   NC321251  33.802  33.843   9.450
 5872POPC   PO421252  33.769  33.824   9.150
 5872POPC   GL121253  33.779  33.813   8.850
 5872POPC   GL221254  33.810  33.728   8.850
 5872POPC   C1A21255  33.795  33.810   8.550
 5872POPC   D2A21256  33.828  33.837   8.250
 5872POPC   C3A21257  33.815  33.810   7.950
 5872POPC   C4A21258  33.827  33.825   7.650
 5872POPC   C1B21259  33.815  33.601   8.550
 5872POPC   C2B21260  33.906  33.533   8.250
 5872POPC   C3B21261  33.877  33.543   7.950
 5872POPC   C4B21262  33.879  33.595   7.650
 5873POPC   NC321263  16.748  39.190   9.450
 5873POPC   PO421264  16.735  39.257   9.150
 5873POPC   GL121265  16.694  39.191   8.850
 5873POPC   GL221266  16.612  39.216   8.850
 5873POPC   C1A21267  16.686  39.193   8.550
 5873POPC   D2A21268  16.739  39.199   8.250
 5873POPC   C3A21269  16.767  39.262   7.950
 5873POPC   C4A21270  16.747  39.266   7.650
 5873POPC   C1B21271  16.520  39.197   8.550
 5873POPC   C2B21272  16.484  39.207   8.250
 5873POPC   C3B21273  16.450  39.161   7.950
 5873POPC   C4B21274  16.474  39.209   7.650
 5874POPC   NC321275  17.546   2.799   9.450
 5874POPC   PO421276  17.515   2.750   9.150
 5874POPC   GL121277  17.469   2.765   8.850
 5874POPC   GL221278  17.559   2.682   8.850
 5874POPC   C1A21279  17.517   2.735   8.550
 5874POPC   D2A21280  17.490   2.783   8.250
 5874POPC   C3A21281  17.539   2.774   7.950
 5874POPC   C4A21282  17.529   2.742   7.650
 5874POPC   C1B21283  17.580   2.487   8.550
 5874POPC   C2B21284  17.563   2.517   8.250
 5874POPC   C3B21285  17.627   2.486   7.950
 5874POPC   C4B21286  17.579   2.488   7.650
 5875POPC   NC321287  43.064   5.822   9.450
 5875POPC   PO421288  43.077   5.882   9.150
 5875POPC   GL121289  43.116   5.825   8.850
 5875POPC   GL221290  43.104   6.023   8.850
 5875POPC   C1A21291  43.077   5.848   8.550
 5875POPC   D2A21292  43.130   5.888   8.250
 5875POPC   C3A21293  43.129   5.885   7.950
 5875POPC   C4A21294  43.143   5.828   7.650
 5875POPC   C1B21295  43.149   6.159   8.550
 5875POPC   C2B21296  43.177   6.109   8.250
 5875POPC   C3B21297  43.187   6.075   7.950
 5875POPC   C4B21298  43.089   6.147   7.650
 5876POPC   NC321299   5.893  11.251   9.450
 5876POPC   PO421300   5.916  11.322   9.150
 5876POPC   GL121301   5.907  11.296   8.850
 5876POPC   GL221302   5.929  11.413   8.850
 5876POPC   C1A21303   5.835  11.256   8.550
 5876POPC   D2A21304   5.828  11.285   8.250
 5876POPC   C3A21305   5.826  11.256   7.950
 5876POPC   C4A21306   5.888  11.275   7.650
 5876POPC   C1B21307   5.943  11.567   8.550
 5876POPC   C2B21308   5.986  11.510   8.250
 5876POPC   C3B21309   5.937  11.525   7.950
 5876POPC   C4B21310   5.928  11.501   7.650
 5877POPC   NC321311  42.295  37.714   9.450
 5877POPC   PO421312  42.369  37.674   9.150
 5877POPC   GL121313  42.379  37.638   8.850
 5877POPC   GL221314  42.311  37.520   8.850
 5877POPC   C1A21315  42.288  37.681   8.550
 5877POPC   D2A21316  42.323  37.726   8.250
 5877POPC   C3A21317  42.296  37.667   7.950
 5877POPC   C4A21318  42.328  37.714   7.650
 5877POPC   C1B21319  42.257  37.422   8.550
 5877POPC   C2B21320  42.219  37.480   8.250
 5877POPC   C3B21321  42.243  37.480   7.950
 5877POPC   C4B21322  42.187  37.426   7.650
 5878POPC   NC321323  43.887   3.582   9.450
 5878POPC   PO421324  43.866   3.524   9.150
 5878POPC   GL121325  43.882   3.543   8.850
 5878POPC   GL221326  43.959   3.551   8.850
 5878POPC   C1A21327  43.838   3.551   8.550
 5878POPC   D2A21328  43.886   3.589   8.250
 5878POPC   C3A21329  43.855   3.566   7.950
 5878POPC   C4A21330  43.861   3.507   7.650
 5878POPC   C1B21331  44.098   3.644   8.550
 5878POPC   C2B21332  44.111   3.673   8.250
 5878POPC   C3B21333  44.114   3.644   7.950
 5878POPC   C4B21334  44.081   3.639   7.650
 5879POPC   NC321335  32.265   8.216   9.450
 5879POPC   PO421336  32.289   8.221   9.150
 5879POPC   GL121337  32.272   8.245   8.850
 5879POPC   GL221338  32.286   8.272   8.850
 5879POPC   C1A21339  32.207   8.224   8.550
 5879POPC   D2A21340  32.281   8.182   8.250
 5879POPC   C3A21341  32.268   8.198   7.950
 5879POPC   C4A21342  32.257   8.173   7.650
 5879POPC   C1B21343  32.389   8.395   8.550
 5879POPC   C2B21344  32.331   8.462   8.250
 5879POPC   C3B21345  32.325   8.389   7.950
 5879POPC   C4B21346  32.418   8.388   7.650
 5880POPC   NC321347  42.352  26.851   9.450
 5880POPC   PO421348  42.308  26.853   9.150
 5880POPC   GL121349  42.354  26.784   8.850
 5880POPC   GL221350  42.374  26.678   8.850
 5880POPC   C1A21351  42.286  26.801   8.550
 5880POPC   D2A21352  42.366  26.859   8.250
 5880POPC   C3A21353  42.384  26.867   7.950
 5880POPC   C4A21354  42.367  26.814   7.650
 5880POPC   C1B21355  42.319  26.564   8.550
 5880POPC   C2B21356  42.365  26.565   8.250
 5880POPC   C3B21357  42.358  26.551   7.950
 5880POPC   C4B21358  42.283  26.533   7.650
 5881POPC   NC321359  44.669   0.480   9.450
 5881POPC   PO421360  44.680   0.396   9.150
 5881POPC   GL121361  44.711   0.397   8.850
 5881POPC   GL221362  44.740   0.495   8.850
 5881POPC   C1A21363  44.670   0.445   8.550
 5881POPC   D2A21364  44.661   0.454   8.250
 5881POPC   C3A21365  44.613   0.443   7.950
 5881POPC   C4A21366  44.671   0.464   7.650
 5881POPC   C1B21367  44.847   0.596   8.550
 5881POPC   C2B21368  44.818   0.620   8.250
 5881POPC   C3B21369  44.822   0.596   7.950
 5881POPC   C4B21370  44.884   0.593   7.650
 5882POPC   NC321371  35.392  25.218   9.450
 5882POPC   PO421372  35.399  25.294   9.150
 5882POPC   GL121373  35.310  25.304   8.850
 5882POPC   GL221374  35.348  25.094   8.850
 5882POPC   C1A21375  35.343  25.223   8.550
 5882POPC   D2A21376  35.357  25.221   8.250
 5882POPC   C3A21377  35.400  25.279   7.950
 5882POPC   C4A21378  35.351  25.219   7.650
 5882POPC   C1B21379  35.295  25.045   8.550
 5882POPC   C2B21380  35.348  24.991   8.250
 5882POPC   C3B21381  35.355  24.989   7.950
 5882POPC   C4B21382  35.286  25.036   7.650
 5883POPC   NC321383  19.791  34.542   9.450
 5883POPC   PO421384  19.787  34.526   9.150
 5883POPC   GL121385  19.835  34.558   8.850
 5883POPC   GL221386  19.910  34.662   8.850
 5883POPC   C1A21387  19.795  34.574   8.550
 5883POPC   D2A21388  19.844  34.574   8.250
 5883POPC   C3A21389  19.787  34.532   7.950
 5883POPC   C4A21390  19.849  34.542   7.650
 5883POPC   C1B21391  19.995  34.805   8.550
 5883POPC   C2B21392  19.999  34.709   8.250
 5883POPC   C3B21393  19.972  34.771   7.950
 5883POPC   C4B21394  19.986  34.765   7.650
 5884POPC   NC321395   5.823  38.497   9.450
 5884POPC   PO421396   5.855  38.409   9.150
 5884POPC   GL121397   5.896  38.462   8.850
 5884POPC   GL221398   5.720  38.441   8.850
 5884POPC   C1A21399   5.832  38.447   8.550
 5884POPC   D2A21400   5.899  38.441   8.250
 5884POPC   C3A21401   5.852  38.428   7.950
 5884POPC   C4A21402   5.876  38.480   7.650
 5884POPC   C1B21403   5.587  38.411   8.550
 5884POPC   C2B21404   5.596  38.375   8.250
 5884POPC   C3B21405   5.586  38.385   7.950
 5884POPC   C4B21406   5.609  38.443   7.650
 5885POPC   NC321407  22.183  27.617   9.450
 5885POPC   PO421408  22.115  27.622   9.150
 5885POPC   GL121409  22.155  27.623   8.850
 5885POPC   GL221410  22.244  27.651   8.850
 5885POPC   C1A21411  22.210  27.597   8.550
 5885POPC   D2A21412  22.136  27.600   8.250
 5885POPC   C3A21413  22.122  27.562   7.950
 5885POPC   C4A21414  22.172  27.619   7.650
 5885POPC   C1B21415  22.402  27.666   8.550
 5885POPC   C2B21416  22.447  27.690   8.250
 5885POPC   C3B21417  22.408  27.648   7.950
 5885POPC   C4B21418  22.381  27.625   7.650
 5886POPC   NC321419  39.194  22.203   9.450
 5886POPC   PO421420  39.280  22.155   9.150
 5886POPC   GL121421  39.198  22.161   8.850
 5886POPC   GL221422  39.110  22.086   8.850
 5886POPC   C1A21423  39.233  22.155   8.550
 5886POPC   D2A21424  39.207  22.209   8.250
 5886POPC   C3A21425  39.217  22.168   7.950
 5886POPC   C4A21426  39.192  22.143   7.650
 5886POPC   C1B21427  38.962  22.107   8.550
 5886POPC   C2B21428  38.978  22.038   8.250
 5886POPC   C3B21429  38.975  22.101   7.950
 5886POPC   C4B21430  38.964  22.116   7.650
 5887POPC   NC321431  15.966   4.325   9.450
 5887POPC   PO421432  15.973   4.303   9.150
 5887POPC   GL121433  15.980   4.360   8.850
 5887POPC   GL221434  15.900   4.278   8.850
 5887POPC   C1A21435  16.003   4.290   8.550
 5887POPC   D2A21436  15.927   4.292   8.250
 5887POPC   C3A21437  16.001   4.270   7.950
 5887POPC   C4A21438  15.947   4.293   7.650
 5887POPC   C1B21439  15.797   4.178   8.550
 5887POPC   C2B21440  15.722   4.151   8.250
 5887POPC   C3B21441  15.792   4.113   7.950
 5887POPC   C4B21442  15.792   4.148   7.650
 5888POPC   NC321443   9.744  15.178   9.450
 5888POPC   PO421444   9.751  15.158   9.150
 5888POPC   GL121445   9.795  15.138   8.850
 5888POPC   GL221446   9.706  15.046   8.850
 5888POPC   C1A21447   9.724  15.145   8.550
 5888POPC   D2A21448   9.793  15.201   8.250
 5888POPC   C3A21449   9.721  15.143   7.950
 5888POPC   C4A21450   9.760  15.164   7.650
 5888POPC   C1B21451   9.714  14.898   8.550
 5888POPC   C2B21452   9.702  14.977   8.250
 5888POPC   C3B21453   9.719  14.908   7.950
 5888POPC   C4B21454   9.711  14.969   7.650
 5889POPC   NC321455  23.700  32.271   9.450
 5889POPC   PO421456  23.701  32.279   9.150
 5889POPC   GL121457  23.743  32.287   8.850
 5889POPC   GL221458  23.855  32.239   8.850
 5889POPC   C1A21459  23.729  32.268   8.550
 5889POPC   D2A21460  23.715  32.225   8.250
 5889POPC   C3A21461  23.692  32.244   7.950
 5889POPC   C4A21462  23.706  32.283   7.650
 5889POPC   C1B21463  23.995  32.221   8.550
 5889POPC   C2B21464  23.979  32.222   8.250
 5889POPC   C3B21465  23.935  32.209   7.950
 5889POPC   C4B21466  23.981  32.197   7.650
 5890POPC   NC321467  32.212  34.551   9.450
 5890POPC   PO421468  32.290  34.527   9.150
 5890POPC   GL121469  32.265  34.574   8.850
 5890POPC   GL221470  32.384  34.655   8.850
 5890POPC   C1A21471  32.249  34.615   8.550
 5890POPC   D2A21472  32.202  34.608   8.250
 5890POPC   C3A21473  32.208  34.548   7.950
 5890POPC   C4A21474  32.284  34.535   7.650
 5890POPC   C1B21475  32.496  34.687   8.550
 5890POPC   C2B21476  32.441  34.635   8.250
 5890POPC   C3B21477  32.451  34.659   7.950
 5890POPC   C4B21478  32.451  34.680   7.650
 5891POPC   NC321479  35.358  18.291   9.450
 5891POPC   PO421480  35.354  18.243   9.150
 5891POPC   GL121481  35.371  18.262   8.850
 5891POPC   GL221482  35.460  18.331   8.850
 5891POPC   C1A21483  35.384  18.292   8.550
 5891POPC   D2A21484  35.359  18.277   8.250
 5891POPC   C3A21485  35.392  18.318   7.950
 5891POPC   C4A21486  35.343  18.276   7.650
 5891POPC   C1B21487  35.567  18.292   8.550
 5891POPC   C2B21488  35.548  18.284   8.250
 5891POPC   C3B21489  35.550  18.323   7.950
 5891POPC   C4B21490  35.613  18.308   7.650
 5892POPC   NC321491   3.502  32.239   9.450
 5892POPC   PO421492   3.548  32.206   9.150
 5892POPC   GL121493   3.511  32.208   8.850
 5892POPC   GL221494   3.439  32.285   8.850
 5892POPC   C1A21495   3.568  32.212   8.550
 5892POPC   D2A21496   3.552  32.298   8.250
 5892POPC   C3A21497   3.507  32.271   7.950
 5892POPC   C4A21498   3.532  32.233   7.650
 5892POPC   C1B21499   3.272  32.248   8.550
 5892POPC   C2B21500   3.300  32.260   8.250
 5892POPC   C3B21501   3.284  32.299   7.950
 5892POPC   C4B21502   3.341  32.292   7.650
 5893POPC   NC321503  18.319  34.591   9.450
 5893POPC   PO421504  18.274  34.603   9.150
 5893POPC   GL121505  18.301  34.625   8.850
 5893POPC   GL221506  18.366  34.670   8.850
 5893POPC   C1A21507  18.295  34.558   8.550
 5893POPC   D2A21508  18.296  34.557   8.250
 5893POPC   C3A21509  18.329  34.547   7.950
 5893POPC   C4A21510  18.273  34.579   7.650
 5893POPC   C1B21511  18.501  34.741   8.550
 5893POPC   C2B21512  18.488  34.755   8.250
 5893POPC   C3B21513  18.489  34.711   7.950
 5893POPC   C4B21514  18.472  34.762   7.650
 5894POPC   NC321515  18.265  15.994   9.450
 5894POPC   PO421516  18.245  15.921   9.150
 5894POPC   GL121517  18.271  15.922   8.850
 5894POPC   GL221518  18.336  16.050   8.850
 5894POPC   C1A21519  18.275  15.936   8.550
 5894POPC   D2A21520  18.250  15.988   8.250
 5894POPC   C3A21521  18.249  15.916   7.950
 5894POPC   C4A21522  18.247  16.002   7.650
 5894POPC   C1B21523  18.401  16.146   8.550
 5894POPC   C2B21524  18.412  16.158   8.250
 5894POPC   C3B21525  18.419  16.187   7.950
 5894POPC   C4B21526  18.451  16.125   7.650
 5895POPC   NC321527  44.620   5.122   9.450
 5895POPC   PO421528  44.703   5.131   9.150
 5895POPC   GL121529  44.711   5.065   8.850
 5895POPC   GL221530  44.673   4.932   8.850
 5895POPC   C1A21531  44.615   5.053   8.550
 5895POPC   D2A21532  44.699   5.071   8.250
 5895POPC   C3A21533  44.635   5.131   7.950
 5895POPC   C4A21534  44.688   5.064   7.650
 5895POPC   C1B21535  44.760   4.856   8.550
 5895POPC   C2B21536  44.731   4.875   8.250
 5895POPC   C3B21537  44.776   4.876   7.950
 5895POPC   C4B21538  44.711   4.826   7.650
 5896POPC   NC321539  17.526  43.152   9.450
 5896POPC   PO421540  17.486  43.101   9.150
 5896POPC   GL121541  17.541  43.117   8.850
 5896POPC   GL221542  17.484  43.277   8.850
 5896POPC   C1A21543  17.508  43.095   8.550
 5896POPC   D2A21544  17.550  43.152   8.250
 5896POPC   C3A21545  17.516  43.117   7.950
 5896POPC   C4A21546  17.555  43.061   7.650
 5896POPC   C1B21547  17.522  43.311   8.550
 5896POPC   C2B21548  17.540  43.324   8.250
 5896POPC   C3B21549  17.517  43.362   7.950
 5896POPC   C4B21550  17.495  43.365   7.650
 5897POPC   NC321551  10.548  11.317   9.450
 5897POPC   PO421552  10.517  11.324   9.150
 5897POPC   GL121553  10.501  11.311   8.850
 5897POPC   GL221554  10.377  11.339   8.850
 5897POPC   C1A21555  10.496  11.346   8.550
 5897POPC   D2A21556  10.532  11.340   8.250
 5897POPC   C3A21557  10.557  11.262   7.950
 5897POPC   C4A21558  10.510  11.255   7.650
 5897POPC   C1B21559  10.298  11.309   8.550
 5897POPC   C2B21560  10.261  11.341   8.250
 5897POPC   C3B21561  10.281  11.289   7.950
 5897POPC   C4B21562  10.262  11.292   7.650
 5898POPC   NC321563  26.811   6.656   9.450
 5898POPC   PO421564  26.789   6.657   9.150
 5898POPC   GL121565  26.860   6.682   8.850
 5898POPC   GL221566  26.947   6.591   8.850
 5898POPC   C1A21567  26.782   6.625   8.550
 5898POPC   D2A21568  26.803   6.622   8.250
 5898POPC   C3A21569  26.845   6.619   7.950
 5898POPC   C4A21570  26.793   6.685   7.650
 5898POPC   C1B21571  27.084   6.507   8.550
 5898POPC   C2B21572  26.997   6.489   8.250
 5898POPC   C3B21573  27.041   6.536   7.950
 5898POPC   C4B21574  27.013   6.566   7.650
 5899POPC   NC321575  26.823  19.017   9.450
 5899POPC   PO421576  26.777  19.051   9.150
 5899POPC   GL121577  26.782  19.028   8.850
 5899POPC   GL221578  26.891  18.958   8.850
 5899POPC   C1A21579  26.837  19.060   8.550
 5899POPC   D2A21580  26.847  19.068   8.250
 5899POPC   C3A21581  26.861  19.088   7.950
 5899POPC   C4A21582  26.799  19.029   7.650
 5899POPC   C1B21583  26.966  18.838   8.550
 5899POPC   C2B21584  26.893  18.877   8.250
 5899POPC   C3B21585  26.906  18.878   7.950
 5899POPC   C4B21586  26.914  18.861   7.650
 5900POPC   NC321587  36.877   8.225   9.450
 5900POPC   PO421588  36.882   8.195   9.150
 5900POPC   GL121589  36.905   8.201   8.850
 5900POPC   GL221590  36.941   8.310   8.850
 5900POPC   C1A21591  36.933   8.172   8.550
 5900POPC   D2A21592  36.938   8.239   8.250
 5900POPC   C3A21593  36.926   8.166   7.950
 5900POPC   C4A21594  36.886   8.187   7.650
 5900POPC   C1B21595  36.895   8.416   8.550
 5900POPC   C2B21596  36.956   8.427   8.250
 5900POPC   C3B21597  36.985   8.443   7.950
 5900POPC   C4B21598  36.987   8.438   7.650
 5901POPC   NC321599  38.494  31.448   9.450
 5901POPC   PO421600  38.456  31.431   9.150
 5901POPC   GL121601  38.501  31.457   8.850
 5901POPC   GL221602  38.368  31.573   8.850
 5901POPC   C1A21603  38.448  31.513   8.550
 5901POPC   D2A21604  38.490  31.485   8.250
 5901POPC   C3A21605  38.433  31.508   7.950
 5901POPC   C4A21606  38.448  31.468   7.650
 5901POPC   C1B21607  38.257  31.563   8.550
 5901POPC   C2B21608  38.186  31.544   8.250
 5901POPC   C3B21609  38.248  31.578   7.950
 5901POPC   C4B21610  38.186  31.558   7.650
 5902POPC   NC321611  12.050  32.286   9.450
 5902POPC   PO421612  12.035  32.199   9.150
 5902POPC   GL121613  12.048  32.257   8.850
 5902POPC   GL221614  12.211  32.220   8.850
 5902POPC   C1A21615  12.082  32.242   8.550
 5902POPC   D2A21616  12.031  32.199   8.250
 5902POPC   C3A21617  12.089  32.282   7.950
 5902POPC   C4A21618  12.060  32.278   7.650
 5902POPC   C1B21619  12.367  32.254   8.550
 5902POPC   C2B21620  12.352  32.292   8.250
 5902POPC   C3B21621  12.330  32.335   7.950
 5902POPC   C4B21622  12.296  32.339   7.650
 5903POPC   NC321623  36.863  40.012   9.450
 5903POPC   PO421624  36.879  40.042   9.150
 5903POPC   GL121625  36.895  40.053   8.850
 5903POPC   GL221626  36.986  39.921   8.850
 5903POPC   C1A21627  36.895  40.025   8.550
 5903POPC   D2A21628  36.863  40.036   8.250
 5903POPC   C3A21629  36.892  39.989   7.950
 5903POPC   C4A21630  36.895  39.978   7.650
 5903POPC   C1B21631  37.057  39.849   8.550
 5903POPC   C2B21632  37.092  39.841   8.250
 5903POPC   C3B21633  36.999  39.762   7.950
 5903POPC   C4B21634  37.079  39.805   7.650
 5904POPC   NC321635  20.650  22.920   9.450
 5904POPC   PO421636  20.621  22.904   9.150
 5904POPC   GL121637  20.645  22.931   8.850
 5904POPC   GL221638  20.527  22.926   8.850
 5904POPC   C1A21639  20.615  22.969   8.550
 5904POPC   D2A21640  20.630  22.955   8.250
 5904POPC   C3A21641  20.588  22.931   7.950
 5904POPC   C4A21642  20.649  22.971   7.650
 5904POPC   C1B21643  20.361  22.934   8.550
 5904POPC   C2B21644  20.355  22.954   8.250
 5904POPC   C3B21645  20.314  22.916   7.950
 5904POPC   C4B21646  20.360  22.863   7.650
 5905POPC   NC321647  40.782  27.596   9.450
 5905POPC   PO421648  40.827  27.579   9.150
 5905POPC   GL121649  40.766  27.562   8.850
 5905POPC   GL221650  40.851  27.693   8.850
 5905POPC   C1A21651  40.798  27.641   8.550
 5905POPC   D2A21652  40.823  27.607   8.250
 5905POPC   C3A21653  40.746  27.544   7.950
 5905POPC   C4A21654  40.796  27.568   7.650
 5905POPC   C1B21655  40.884  27.809   8.550
 5905POPC   C2B21656  40.837  27.835   8.250
 5905POPC   C3B21657  40.811  27.828   7.950
 5905POPC   C4B21658  40.857  27.789   7.650
 5906POPC   NC321659  19.105   2.808   9.450
 5906POPC   PO421660  19.092   2.739   9.150
 5906POPC   GL121661  19.035   2.785   8.850
 5906POPC   GL221662  19.167   2.811   8.850
 5906POPC   C1A21663  19.011   2.794   8.550
 5906POPC   D2A21664  19.023   2.799   8.250
 5906POPC   C3A21665  19.043   2.796   7.950
 5906POPC   C4A21666  19.064   2.739   7.650
 5906POPC   C1B21667  19.251   2.955   8.550
 5906POPC   C2B21668  19.258   2.969   8.250
 5906POPC   C3B21669  19.197   2.888   7.950
 5906POPC   C4B21670  19.264   2.955   7.650
 5907POPC   NC321671  21.388  43.144   9.450
 5907POPC   PO421672  21.420  43.155   9.150
 5907POPC   GL121673  21.419  43.146   8.850
 5907POPC   GL221674  21.360  43.222   8.850
 5907POPC   C1A21675  21.353  43.088   8.550
 5907POPC   D2A21676  21.420  43.112   8.250
 5907POPC   C3A21677  21.383  43.117   7.950
 5907POPC   C4A21678  21.398  43.108   7.650
 5907POPC   C1B21679  21.384  43.370   8.550
 5907POPC   C2B21680  21.377  43.381   8.250
 5907POPC   C3B21681  21.378  43.402   7.950
 5907POPC   C4B21682  21.391  43.324   7.650
 5908POPC   NC321683   3.495  40.760   9.450
 5908POPC   PO421684   3.546  40.790   9.150
 5908POPC   GL121685   3.591  40.761   8.850
 5908POPC   GL221686   3.597  40.893   8.850
 5908POPC   C1A21687   3.541  40.823   8.550
 5908POPC   D2A21688   3.580  40.812   8.250
 5908POPC   C3A21689   3.575  40.818   7.950
 5908POPC   C4A21690   3.587  40.765   7.650
 5908POPC   C1B21691   3.734  40.909   8.550
 5908POPC   C2B21692   3.762  40.980   8.250
 5908POPC   C3B21693   3.769  40.963   7.950
 5908POPC   C4B21694   3.705  40.927   7.650
 5909POPC   NC321695  43.898  22.914   9.450
 5909POPC   PO421696  43.851  22.961   9.150
 5909POPC   GL121697  43.855  22.980   8.850
 5909POPC   GL221698  44.014  22.865   8.850
 5909POPC   C1A21699  43.863  22.933   8.550
 5909POPC   D2A21700  43.879  22.963   8.250
 5909POPC   C3A21701  43.908  22.948   7.950
 5909POPC   C4A21702  43.889  22.906   7.650
 5909POPC   C1B21703  44.114  22.848   8.550
 5909POPC   C2B21704  44.087  22.873   8.250
 5909POPC   C3B21705  44.100  22.873   7.950
 5909POPC   C4B21706  44.113  22.936   7.650
 5910POPC   NC321707  17.519   5.049   9.450
 5910POPC   PO421708  17.550   5.108   9.150
 5910POPC   GL121709  17.463   5.091   8.850
 5910POPC   GL221710  17.401   4.988   8.850
 5910POPC   C1A21711  17.468   5.073   8.550
 5910POPC   D2A21712  17.512   5.103   8.250
 5910POPC   C3A21713  17.484   5.118   7.950
 5910POPC   C4A21714  17.527   5.065   7.650
 5910POPC   C1B21715  17.377   4.893   8.550
 5910POPC   C2B21716  17.332   4.943   8.250
 5910POPC   C3B21717  17.382   4.921   7.950
 5910POPC   C4B21718  17.371   4.928   7.650
 5911POPC   NC321719  35.385   2.809   9.450
 5911POPC   PO421720  35.305   2.810   9.150
 5911POPC   GL121721  35.371   2.740   8.850
 5911POPC   GL221722  35.414   2.661   8.850
 5911POPC   C1A21723  35.367   2.751   8.550
 5911POPC   D2A21724  35.334   2.762   8.250
 5911POPC   C3A21725  35.385   2.803   7.950
 5911POPC   C4A21726  35.305   2.734   7.650
 5911POPC   C1B21727  35.457   2.540   8.550
 5911POPC   C2B21728  35.401   2.502   8.250
 5911POPC   C3B21729  35.461   2.487   7.950
 5911POPC   C4B21730  35.448   2.482   7.650
 5912POPC   NC321731  23.673  11.273   9.450
 5912POPC   PO421732  23.720  11.252   9.150
 5912POPC   GL121733  23.762  11.263   8.850
 5912POPC   GL221734  23.762  11.140   8.850
 5912POPC   C1A21735  23.691  11.276   8.550
 5912POPC   D2A21736  23.727  11.298   8.250
 5912POPC   C3A21737  23.684  11.322   7.950
 5912POPC   C4A21738  23.706  11.304   7.650
 5912POPC   C1B21739  23.743  11.069   8.550
 5912POPC   C2B21740  23.793  11.033   8.250
 5912POPC   C3B21741  23.804  11.053   7.950
 5912POPC   C4B21742  23.749  11.058   7.650
 5913POPC   NC321743   0.419  36.948   9.450
 5913POPC   PO421744   0.462  36.857   9.150
 5913POPC   GL121745   0.414  36.934   8.850
 5913POPC   GL221746   0.542  36.788   8.850
 5913POPC   C1A21747   0.456  36.855   8.550
 5913POPC   D2A21748   0.469  36.878   8.250
 5913POPC   C3A21749   0.476  36.944   7.950
 5913POPC   C4A21750   0.455  36.869   7.650
 5913POPC   C1B21751   0.676  36.792   8.550
 5913POPC   C2B21752   0.629  36.806   8.250
 5913POPC   C3B21753   0.660  36.777   7.950
 5913POPC   C4B21754   0.619  36.801   7.650
 5914POPC   NC321755  22.967   1.968   9.450
 5914POPC   PO421756  22.943   1.961   9.150
 5914POPC   GL121757  22.958   1.943   8.850
 5914POPC   GL221758  23.030   1.922   8.850
 5914POPC   C1A21759  22.962   2.040   8.550
 5914POPC   D2A21760  22.906   2.028   8.250
 5914POPC   C3A21761  22.978   1.990   7.950
 5914POPC   C4A21762  22.911   1.976   7.650
 5914POPC   C1B21763  23.178   1.917   8.550
 5914POPC   C2B21764  23.164   1.872   8.250
 5914POPC   C3B21765  23.193   1.914   7.950
 5914POPC   C4B21766  23.122   1.885   7.650
 5915POPC   NC321767  18.299   9.002   9.450
 5915POPC   PO421768  18.296   8.926   9.150
 5915POPC   GL121769  18.295   8.939   8.850
 5915POPC   GL221770  18.192   8.911   8.850
 5915POPC   C1A21771  18.301   8.972   8.550
 5915POPC   D2A21772  18.248   8.956   8.250
 5915POPC   C3A21773  18.262   8.971   7.950
 5915POPC   C4A21774  18.307   8.960   7.650
 5915POPC   C1B21775  18.098   8.868   8.550
 5915POPC   C2B21776  18.047   8.833   8.250
 5915POPC   C3B21777  18.080   8.873   7.950
 5915POPC   C4B21778  18.098   8.880   7.650
 5916POPC   NC321779  15.173  40.765   9.450
 5916POPC   PO421780  15.176  40.769   9.150
 5916POPC   GL121781  15.134  40.832   8.850
 5916POPC   GL221782  15.183  40.922   8.850
 5916POPC   C1A21783  15.155  40.764   8.550
 5916POPC   D2A21784  15.214  40.748   8.250
 5916POPC   C3A21785  15.214  40.766   7.950
 5916POPC   C4A21786  15.176  40.763   7.650
 5916POPC   C1B21787  15.150  41.050   8.550
 5916POPC   C2B21788  15.135  41.005   8.250
 5916POPC   C3B21789  15.105  40.986   7.950
 5916POPC   C4B21790  15.088  41.022   7.650
 5917POPC   NC321791  11.267  43.132   9.450
 5917POPC   PO421792  11.309  43.123   9.150
 5917POPC   GL121793  11.259  43.158   8.850
 5917POPC   GL221794  11.227  43.175   8.850
 5917POPC   C1A21795  11.345  43.088   8.550
 5917POPC   D2A21796  11.285  43.138   8.250
 5917POPC   C3A21797  11.276  43.086   7.950
 5917POPC   C4A21798  11.286  43.066   7.650
 5917POPC   C1B21799  11.164  43.337   8.550
 5917POPC   C2B21800  11.184  43.365   8.250
 5917POPC   C3B21801  11.173  43.377   7.950
 5917POPC   C4B21802  11.234  43.347   7.650
 5918POPC   NC321803  20.626  11.319   9.450
 5918POPC   PO421804  20.584  11.314   9.150
 5918POPC   GL121805  20.613  11.340   8.850
 5918POPC   GL221806  20.645  11.441   8.850
 5918POPC   C1A21807  20.589  11.326   8.550
 5918POPC   D2A21808  20.567  11.257   8.250
 5918POPC   C3A21809  20.601  11.330   7.950
 5918POPC   C4A21810  20.628  11.313   7.650
 5918POPC   C1B21811  20.731  11.461   8.550
 5918POPC   C2B21812  20.795  11.476   8.250
 5918POPC   C3B21813  20.731  11.521   7.950
 5918POPC   C4B21814  20.730  11.493   7.650
 5919POPC   NC321815  18.307  26.000   9.450
 5919POPC   PO421816  18.261  26.067   9.150
 5919POPC   GL121817  18.270  25.995   8.850
 5919POPC   GL221818  18.191  26.139   8.850
 5919POPC   C1A21819  18.287  26.006   8.550
 5919POPC   D2A21820  18.292  26.057   8.250
 5919POPC   C3A21821  18.254  26.019   7.950
 5919POPC   C4A21822  18.292  26.068   7.650
 5919POPC   C1B21823  18.059  26.151   8.550
 5919POPC   C2B21824  18.046  26.176   8.250
 5919POPC   C3B21825  18.024  26.205   7.950
 5919POPC   C4B21826  18.043  26.204   7.650
 5920POPC   NC321827   2.736  29.913   9.450
 5920POPC   PO421828   2.737  29.917   9.150
 5920POPC   GL121829   2.739  29.943   8.850
 5920POPC   GL221830   2.636  30.049   8.850
 5920POPC   C1A21831   2.815  29.910   8.550
 5920POPC   D2A21832   2.760  29.871   8.250
 5920POPC   C3A21833   2.781  29.919   7.950
 5920POPC   C4A21834   2.743  29.959   7.650
 5920POPC   C1B21835   2.547  30.095   8.550
 5920POPC   C2B21836   2.621  30.136   8.250
 5920POPC   C3B21837   2.558  30.069   7.950
 5920POPC   C4B21838   2.573  30.048   7.650
 5921POPC   NC321839  33.804  19.860   9.450
 5921POPC   PO421840  33.769  19.815   9.150
 5921POPC   GL121841  33.755  19.883   8.850
 5921POPC   GL221842  33.890  19.816   8.850
 5921POPC   C1A21843  33.772  19.869   8.550
 5921POPC   D2A21844  33.840  19.825   8.250
 5921POPC   C3A21845  33.823  19.869   7.950
 5921POPC   C4A21846  33.788  19.860   7.650
 5921POPC   C1B21847  34.009  19.786   8.550
 5921POPC   C2B21848  34.053  19.709   8.250
 5921POPC   C3B21849  34.014  19.777   7.950
 5921POPC   C4B21850  34.046  19.725   7.650
 5922POPC   NC321851  25.298  15.932   9.450
 5922POPC   PO421852  25.239  15.931   9.150
 5922POPC   GL121853  25.304  15.907   8.850
 5922POPC   GL221854  25.185  16.104   8.850
 5922POPC   C1A21855  25.315  15.952   8.550
 5922POPC   D2A21856  25.300  15.967   8.250
 5922POPC   C3A21857  25.236  15.958   7.950
 5922POPC   C4A21858  25.275  15.924   7.650
 5922POPC   C1B21859  25.132  16.201   8.550
 5922POPC   C2B21860  25.142  16.168   8.250
 5922POPC   C3B21861  25.157  16.194   7.950
 5922POPC   C4B21862  25.184  16.205   7.650
 5923POPC   NC321863  35.326  39.191   9.450
 5923POPC   PO421864  35.367  39.269   9.150
 5923POPC   GL121865  35.364  39.247   8.850
 5923POPC   GL221866  35.491  39.163   8.850
 5923POPC   C1A21867  35.354  39.234   8.550
 5923POPC   D2A21868  35.369  39.205   8.250
 5923POPC   C3A21869  35.371  39.187   7.950
 5923POPC   C4A21870  35.352  39.268   7.650
 5923POPC   C1B21871  35.534  39.116   8.550
 5923POPC   C2B21872  35.611  39.139   8.250
 5923POPC   C3B21873  35.550  39.143   7.950
 5923POPC   C4B21874  35.632  39.144   7.650
 5924POPC   NC321875   3.583  22.137   9.450
 5924POPC   PO421876   3.513  22.146   9.150
 5924POPC   GL121877   3.553  22.137   8.850
 5924POPC   GL221878   3.481  22.245   8.850
 5924POPC   C1A21879   3.512  22.164   8.550
 5924POPC   D2A21880   3.547  22.130   8.250
 5924POPC   C3A21881   3.500  22.202   7.950
 5924POPC   C4A21882   3.550  22.199   7.650
 5924POPC   C1B21883   3.487  22.397   8.550
 5924POPC   C2B21884   3.475  22.422   8.250
 5924POPC   C3B21885   3.479  22.379   7.950
 5924POPC   C4B21886   3.506  22.390   7.650
 5925POPC   NC321887  21.392  19.810   9.450
 5925POPC   PO421888  21.399  19.798   9.150
 5925POPC   GL121889  21.380  19.792   8.850
 5925POPC   GL221890  21.477  19.804   8.850
 5925POPC   C1A21891  21.379  19.872   8.550
 5925POPC   D2A21892  21.405  19.875   8.250
 5925POPC   C3A21893  21.380  19.802   7.950
 5925POPC   C4A21894  21.337  19.858   7.650
 5925POPC   C1B21895  21.613  19.796   8.550
 5925POPC   C2B21896  21.679  19.807   8.250
 5925POPC   C3B21897  21.679  19.884   7.950
 5925POPC   C4B21898  21.658  19.842   7.650
 5926POPC   NC321899  40.791   8.169   9.450
 5926POPC   PO421900  40.741   8.167   9.150
 5926POPC   GL121901  40.829   8.223   8.850
 5926POPC   GL221902  40.746   8.366   8.850
 5926POPC   C1A21903  40.810   8.174   8.550
 5926POPC   D2A21904  40.743   8.205   8.250
 5926POPC   C3A21905  40.809   8.168   7.950
 5926POPC   C4A21906  40.765   8.223   7.650
 5926POPC   C1B21907  40.748   8.447   8.550
 5926POPC   C2B21908  40.774   8.465   8.250
 5926POPC   C3B21909  40.777   8.488   7.950
 5926POPC   C4B21910  40.824   8.496   7.650
 5927POPC   NC321911  26.811  28.331   9.450
 5927POPC   PO421912  26.783  28.323   9.150
 5927POPC   GL121913  26.857  28.325   8.850
 5927POPC   GL221914  26.667  28.393   8.850
 5927POPC   C1A21915  26.783  28.359   8.550
 5927POPC   D2A21916  26.790  28.406   8.250
 5927POPC   C3A21917  26.787  28.328   7.950
 5927POPC   C4A21918  26.804  28.336   7.650
 5927POPC   C1B21919  26.609  28.509   8.550
 5927POPC   C2B21920  26.566  28.484   8.250
 5927POPC   C3B21921  26.617  28.473   7.950
 5927POPC   C4B21922  26.589  28.482   7.650
 5928POPC   NC321923  29.114   5.835   9.450
 5928POPC   PO421924  29.185   5.853   9.150
 5928POPC   GL121925  29.156   5.826   8.850
 5928POPC   GL221926  29.127   5.725   8.850
 5928POPC   C1A21927  29.114   5.878   8.550
 5928POPC   D2A21928  29.137   5.821   8.250
 5928POPC   C3A21929  29.140   5.907   7.950
 5928POPC   C4A21930  29.175   5.833   7.650
 5928POPC   C1B21931  29.057   5.623   8.550
 5928POPC   C2B21932  29.115   5.589   8.250
 5928POPC   C3B21933  29.083   5.622   7.950
 5928POPC   C4B21934  29.090   5.590   7.650
 5929POPC   NC321935  31.465  36.896   9.450
 5929POPC   PO421936  31.461  36.937   9.150
 5929POPC   GL121937  31.468  36.947   8.850
 5929POPC   GL221938  31.493  37.058   8.850
 5929POPC   C1A21939  31.493  36.885   8.550
 5929POPC   D2A21940  31.444  36.880   8.250
 5929POPC   C3A21941  31.479  36.880   7.950
 5929POPC   C4A21942  31.502  36.873   7.650
 5929POPC   C1B21943  31.498  37.149   8.550
 5929POPC   C2B21944  31.504  37.118   8.250
 5929POPC   C3B21945  31.497  37.124   7.950
 5929POPC   C4B21946  31.422  37.141   7.650
 5930POPC   NC321947   2.814  36.167   9.450
 5930POPC   PO421948   2.766  36.164   9.150
 5930POPC   GL121949   2.723  36.117   8.850
 5930POPC   GL221950   2.688  36.238   8.850
 5930POPC   C1A21951   2.765  36.118   8.550
 5930POPC   D2A21952   2.775  36.138   8.250
 5930POPC   C3A21953   2.754  36.165   7.950
 5930POPC   C4A21954   2.786  36.092   7.650
 5930POPC   C1B21955   2.564  36.356   8.550
 5930POPC   C2B21956   2.593  36.262   8.250
 5930POPC   C3B21957   2.589  36.296   7.950
 5930POPC   C4B21958   2.564  36.360   7.650
 5931POPC   NC321959  16.751   2.746   9.450
 5931POPC   PO421960  16.731   2.728   9.150
 5931POPC   GL121961  16.740   2.759   8.850
 5931POPC   GL221962  16.632   2.705   8.850
 5931POPC   C1A21963  16.706   2.778   8.550
 5931POPC   D2A21964  16.707   2.760   8.250
 5931POPC   C3A21965  16.715   2.772   7.950
 5931POPC   C4A21966  16.718   2.720   7.650
 5931POPC   C1B21967  16.612   2.572   8.550
 5931POPC   C2B21968  16.572   2.593   8.250
 5931POPC   C3B21969  16.530   2.552   7.950
 5931POPC   C4B21970  16.533   2.564   7.650
 5932POPC   NC321971  19.863   6.614   9.450
 5932POPC   PO421972  19.808   6.647   9.150
 5932POPC   GL121973  19.796   6.663   8.850
 5932POPC   GL221974  19.668   6.644   8.850
 5932POPC   C1A21975  19.868   6.680   8.550
 5932POPC   D2A21976  19.836   6.652   8.250
 5932POPC   C3A21977  19.854   6.627   7.950
 5932POPC   C4A21978  19.881   6.606   7.650
 5932POPC   C1B21979  19.600   6.760   8.550
 5932POPC   C2B21980  19.605   6.683   8.250
 5932POPC   C3B21981  19.633   6.681   7.950
 5932POPC   C4B21982  19.589   6.723   7.650
 5933POPC   NC321983  11.324  13.641   9.450
 5933POPC   PO421984  11.256  13.671   9.150
 5933POPC   GL121985  11.297  13.646   8.850
 5933POPC   GL221986  11.252  13.706   8.850
 5933POPC   C1A21987  11.288  13.663   8.550
 5933POPC   D2A21988  11.311  13.642   8.250
 5933POPC   C3A21989  11.273  13.622   7.950
 5933POPC   C4A21990  11.274  13.640   7.650
 5933POPC   C1B21991  11.239  13.854   8.550
 5933POPC   C2B21992  11.271  13.840   8.250
 5933POPC   C3B21993  11.250  13.859   7.950
 5933POPC   C4B21994  11.202  13.824   7.650
 5934POPC   NC321995   3.568  25.281   9.450
 5934POPC   PO421996   3.585  25.260   9.150
 5934POPC   GL121997   3.558  25.235   8.850
 5934POPC   GL221998   3.528  25.172   8.850
 5934POPC   C1A21999   3.552  25.234   8.550
 5934POPC   D2A22000   3.502  25.300   8.250
 5934POPC   C3A22001   3.544  25.284   7.950
 5934POPC   C4A22002   3.494  25.280   7.650
 5934POPC   C1B22003   3.421  24.998   8.550
 5934POPC   C2B22004   3.438  25.044   8.250
 5934POPC   C3B22005   3.449  24.992   7.950
 5934POPC   C4B22006   3.491  25.037   7.650
 5935POPC   NC322007  28.339  40.770   9.450
 5935POPC   PO422008  28.386  40.751   9.150
 5935POPC   GL122009  28.413  40.812   8.850
 5935POPC   GL222010  28.441  40.721   8.850
 5935POPC   C1A22011  28.325  40.783   8.550
 5935POPC   D2A22012  28.415  40.733   8.250
 5935POPC   C3A22013  28.396  40.813   7.950
 5935POPC   C4A22014  28.380  40.780   7.650
 5935POPC   C1B22015  28.516  40.584   8.550
 5935POPC   C2B22016  28.456  40.529   8.250
 5935POPC   C3B22017  28.485  40.525   7.950
 5935POPC   C4B22018  28.519  40.594   7.650
 5936POPC   NC322019  33.839   3.557   9.450
 5936POPC   PO422020  33.845   3.512   9.150
 5936POPC   GL122021  33.771   3.500   8.850
 5936POPC   GL222022  33.737   3.686   8.850
 5936POPC   C1A22023  33.846   3.508   8.550
 5936POPC   D2A22024  33.793   3.537   8.250
 5936POPC   C3A22025  33.798   3.493   7.950
 5936POPC   C4A22026  33.824   3.513   7.650
 5936POPC   C1B22027  33.617   3.779   8.550
 5936POPC   C2B22028  33.676   3.752   8.250
 5936POPC   C3B22029  33.680   3.751   7.950
 5936POPC   C4B22030  33.693   3.755   7.650
 5937POPC   NC322031   5.055  37.716   9.450
 5937POPC   PO422032   5.068  37.711   9.150
 5937POPC   GL122033   5.103  37.634   8.850
 5937POPC   GL222034   5.235  37.723   8.850
 5937POPC   C1A22035   5.120  37.638   8.550
 5937POPC   D2A22036   5.083  37.647   8.250
 5937POPC   C3A22037   5.061  37.687   7.950
 5937POPC   C4A22038   5.109  37.657   7.650
 5937POPC   C1B22039   5.335  37.779   8.550
 5937POPC   C2B22040   5.309  37.703   8.250
 5937POPC   C3B22041   5.376  37.736   7.950
 5937POPC   C4B22042   5.327  37.685   7.650
 5938POPC   NC322043  23.705   4.314   9.450
 5938POPC   PO422044  23.729   4.332   9.150
 5938POPC   GL122045  23.670   4.311   8.850
 5938POPC   GL222046  23.714   4.439   8.850
 5938POPC   C1A22047  23.708   4.325   8.550
 5938POPC   D2A22048  23.734   4.330   8.250
 5938POPC   C3A22049  23.754   4.300   7.950
 5938POPC   C4A22050  23.672   4.348   7.650
 5938POPC   C1B22051  23.660   4.515   8.550
 5938POPC   C2B22052  23.683   4.534   8.250
 5938POPC   C3B22053  23.659   4.546   7.950
 5938POPC   C4B22054  23.664   4.546   7.650
 5939POPC   NC322055   1.194  23.677   9.450
 5939POPC   PO422056   1.248  23.692   9.150
 5939POPC   GL122057   1.258  23.705   8.850
 5939POPC   GL222058   1.080  23.665   8.850
 5939POPC   C1A22059   1.228  23.691   8.550
 5939POPC   D2A22060   1.179  23.673   8.250
 5939POPC   C3A22061   1.212  23.752   7.950
 5939POPC   C4A22062   1.244  23.701   7.650
 5939POPC   C1B22063   0.932  23.718   8.550
 5939POPC   C2B22064   0.940  23.717   8.250
 5939POPC   C3B22065   1.014  23.688   7.950
 5939POPC   C4B22066   0.946  23.744   7.650
 5940POPC   NC322067   4.271  33.756   9.450
 5940POPC   PO422068   4.331  33.845   9.150
 5940POPC   GL122069   4.276  33.767   8.850
 5940POPC   GL222070   4.373  33.905   8.850
 5940POPC   C1A22071   4.345  33.832   8.550
 5940POPC   D2A22072   4.303  33.799   8.250
 5940POPC   C3A22073   4.311  33.799   7.950
 5940POPC   C4A22074   4.333  33.822   7.650
 5940POPC   C1B22075   4.487  34.011   8.550
 5940POPC   C2B22076   4.493  33.946   8.250
 5940POPC   C3B22077   4.461  33.970   7.950
 5940POPC   C4B22078   4.452  33.999   7.650
 5941POPC   NC322079  26.771  26.849   9.450
 5941POPC   PO422080  26.783  26.835   9.150
 5941POPC   GL122081  26.836  26.840   8.850
 5941POPC   GL222082  26.851  26.927   8.850
 5941POPC   C1A22083  26.825  26.770   8.550
 5941POPC   D2A22084  26.834  26.769   8.250
 5941POPC   C3A22085  26.842  26.828   7.950
 5941POPC   C4A22086  26.833  26.776   7.650
 5941POPC   C1B22087  26.963  27.027   8.550
 5941POPC   C2B22088  26.953  27.069   8.250
 5941POPC   C3B22089  26.877  27.058   7.950
 5941POPC   C4B22090  26.928  27.022   7.650
 5942POPC   NC322091  41.579  26.007   9.450
 5942POPC   PO422092  41.534  26.001   9.150
 5942POPC   GL122093  41.533  26.045   8.850
 5942POPC   GL222094  41.565  25.952   8.850
 5942POPC   C1A22095  41.599  26.001   8.550
 5942POPC   D2A22096  41.523  26.028   8.250
 5942POPC   C3A22097  41.542  26.045   7.950
 5942POPC   C4A22098  41.566  25.995   7.650
 5942POPC   C1B22099  41.472  25.792   8.550
 5942POPC   C2B22100  41.533  25.781   8.250
 5942POPC   C3B22101  41.483  25.834   7.950
 5942POPC   C4B22102  41.479  25.826   7.650
 5943POPC   NC322103  39.260  37.633   9.450
 5943POPC   PO422104  39.238  37.697   9.150
 5943POPC   GL122105  39.206  37.703   8.850
 5943POPC   GL222106  39.238  37.768   8.850
 5943POPC   C1A22107  39.206  37.704   8.550
 5943POPC   D2A22108  39.258  37.663   8.250
 5943POPC   C3A22109  39.243  37.667   7.950
 5943POPC   C4A22110  39.236  37.654   7.650
 5943POPC   C1B22111  39.358  37.880   8.550
 5943POPC   C2B22112  39.296  37.950   8.250
 5943POPC   C3B22113  39.300  37.955   7.950
 5943POPC   C4B22114  39.320  37.898   7.650
 5944POPC   NC322115   7.426  43.138   9.450
 5944POPC   PO422116   7.399  43.127   9.150
 5944POPC   GL122117   7.465  43.143   8.850
 5944POPC   GL222118   7.364  43.169   8.850
 5944POPC   C1A22119   7.406  43.082   8.550
 5944POPC   D2A22120   7.458  43.089   8.250
 5944POPC   C3A22121   7.430  43.069   7.950
 5944POPC   C4A22122   7.411  43.095   7.650
 5944POPC   C1B22123   7.229  43.333   8.550
 5944POPC   C2B22124   7.274  43.333   8.250
 5944POPC   C3B22125   7.309  43.359   7.950
 5944POPC   C4B22126   7.239  43.264   7.650
 5945POPC   NC322127  13.628  39.973   9.450
 5945POPC   PO422128  13.617  39.973   9.150
 5945POPC   GL122129  13.618  40.022   8.850
 5945POPC   GL222130  13.512  39.927   8.850
 5945POPC   C1A22131  13.637  40.014   8.550
 5945POPC   D2A22132  13.649  39.958   8.250
 5945POPC   C3A22133  13.676  40.030   7.950
 5945POPC   C4A22134  13.624  39.966   7.650
 5945POPC   C1B22135  13.341  39.894   8.550
 5945POPC   C2B22136  13.388  39.935   8.250
 5945POPC   C3B22137  13.358  39.931   7.950
 5945POPC   C4B22138  13.389  39.981   7.650
 5946POPC   NC322139  16.763  41.595   9.450
 5946POPC   PO422140  16.768  41.534   9.150
 5946POPC   GL122141  16.739  41.558   8.850
 5946POPC   GL222142  16.638  41.410   8.850
 5946POPC   C1A22143  16.772  41.537   8.550
 5946POPC   D2A22144  16.708  41.608   8.250
 5946POPC   C3A22145  16.703  41.558   7.950
 5946POPC   C4A22146  16.716  41.552   7.650
 5946POPC   C1B22147  16.608  41.367   8.550
 5946POPC   C2B22148  16.615  41.376   8.250
 5946POPC   C3B22149  16.570  41.333   7.950
 5946POPC   C4B22150  16.599  41.331   7.650
 5947POPC   NC322151  38.496  11.280   9.450
 5947POPC   PO422152  38.480  11.347   9.150
 5947POPC   GL122153  38.490  11.313   8.850
 5947POPC   GL222154  38.556  11.188   8.850
 5947POPC   C1A22155  38.462  11.326   8.550
 5947POPC   D2A22156  38.489  11.282   8.250
 5947POPC   C3A22157  38.446  11.283   7.950
 5947POPC   C4A22158  38.496  11.276   7.650
 5947POPC   C1B22159  38.583  11.162   8.550
 5947POPC   C2B22160  38.671  11.152   8.250
 5947POPC   C3B22161  38.591  11.144   7.950
 5947POPC   C4B22162  38.626  11.160   7.650
 5948POPC   NC322163  38.445   5.851   9.450
 5948POPC   PO422164  38.414   5.917   9.150
 5948POPC   GL122165  38.431   5.910   8.850
 5948POPC   GL222166  38.541   5.758   8.850
 5948POPC   C1A22167  38.442   5.863   8.550
 5948POPC   D2A22168  38.419   5.823   8.250
 5948POPC   C3A22169  38.496   5.837   7.950
 5948POPC   C4A22170  38.466   5.826   7.650
 5948POPC   C1B22171  38.612   5.697   8.550
 5948POPC   C2B22172  38.603   5.692   8.250
 5948POPC   C3B22173  38.615   5.673   7.950
 5948POPC   C4B22174  38.673   5.692   7.650
 5949POPC   NC322175  20.635  31.426   9.450
 5949POPC   PO422176  20.624  31.467   9.150
 5949POPC   GL122177  20.603  31.516   8.850
 5949POPC   GL222178  20.443  31.433   8.850
 5949POPC   C1A22179  20.591  31.515   8.550
 5949POPC   D2A22180  20.647  31.444   8.250
 5949POPC   C3A22181  20.654  31.462   7.950
 5949POPC   C4A22182  20.571  31.423   7.650
 5949POPC   C1B22183  20.381  31.481   8.550
 5949POPC   C2B22184  20.339  31.441   8.250
 5949POPC   C3B22185  20.353  31.425   7.950
 5949POPC   C4B22186  20.352  31.454   7.650
 5950POPC   NC322187  26.818  43.879   9.450
 5950POPC   PO422188  26.811  43.883   9.150
 5950POPC   GL122189  26.779  43.848   8.850
 5950POPC   GL222190  26.686  43.763   8.850
 5950POPC   C1A22191  26.836  43.906   8.550
 5950POPC   D2A22192  26.854  43.843   8.250
 5950POPC   C3A22193  26.811  43.863   7.950
 5950POPC   C4A22194  26.808  43.898   7.650
 5950POPC   C1B22195  26.646  43.673   8.550
 5950POPC   C2B22196  26.682  43.692   8.250
 5950POPC   C3B22197  26.632  43.714   7.950
 5950POPC   C4B22198  26.602  43.748   7.650
 5951POPC   NC322199   8.925  38.496   9.450
 5951POPC   PO422200   8.926  38.442   9.150
 5951POPC   GL122201   8.937  38.410   8.850
 5951POPC   GL222202   9.013  38.622   8.850
 5951POPC   C1A22203   9.018  38.422   8.550
 5951POPC   D2A22204   9.019  38.466   8.250
 5951POPC   C3A22205   8.979  38.486   7.950
 5951POPC   C4A22206   8.931  38.503   7.650
 5951POPC   C1B22207   9.012  38.715   8.550
 5951POPC   C2B22208   8.939  38.662   8.250
 5951POPC   C3B22209   8.974  38.661   7.950
 5951POPC   C4B22210   8.944  38.711   7.650
 5952POPC   NC322211  35.322   9.796   9.450
 5952POPC   PO422212  35.335   9.781   9.150
 5952POPC   GL122213  35.339   9.746   8.850
 5952POPC   GL222214  35.303   9.816   8.850
 5952POPC   C1A22215  35.391   9.699   8.550
 5952POPC   D2A22216  35.306   9.766   8.250
 5952POPC   C3A22217  35.399   9.767   7.950
 5952POPC   C4A22218  35.344   9.714   7.650
 5952POPC   C1B22219  35.185   9.942   8.550
 5952POPC   C2B22220  35.160   9.981   8.250
 5952POPC   C3B22221  35.236   9.989   7.950
 5952POPC   C4B22222  35.153   9.967   7.650
 5953POPC   NC322223  30.693  36.940   9.450
 5953POPC   PO422224  30.744  36.872   9.150
 5953POPC   GL122225  30.688  36.858   8.850
 5953POPC   GL222226  30.668  36.770   8.850
 5953POPC   C1A22227  30.692  36.906   8.550
 5953POPC   D2A22228  30.736  36.911   8.250
 5953POPC   C3A22229  30.697  36.917   7.950
 5953POPC   C4A22230  30.744  36.874   7.650
 5953POPC   C1B22231  30.568  36.716   8.550
 5953POPC   C2B22232  30.565  36.703   8.250
 5953POPC   C3B22233  30.560  36.670   7.950
 5953POPC   C4B22234  30.509  36.665   7.650
 5954POPC   NC322235  38.492  18.331   9.450
 5954POPC   PO422236  38.461  18.257   9.150
 5954POPC   GL122237  38.430  18.251   8.850
 5954POPC   GL222238  38.518  18.436   8.850
 5954POPC   C1A22239  38.498  18.236   8.550
 5954POPC   D2A22240  38.468  18.310   8.250
 5954POPC   C3A22241  38.443  18.301   7.950
 5954POPC   C4A22242  38.452  18.239   7.650
 5954POPC   C1B22243  38.455  18.555   8.550
 5954POPC   C2B22244  38.495  18.481   8.250
 5954POPC   C3B22245  38.471  18.484   7.950
 5954POPC   C4B22246  38.517  18.529   7.650
 5955POPC   NC322247  18.293  12.871   9.450
 5955POPC   PO422248  18.233  12.875   9.150
 5955POPC   GL122249  18.285  12.808   8.850
 5955POPC   GL222250  18.429  12.862   8.850
 5955POPC   C1A22251  18.242  12.823   8.550
 5955POPC   D2A22252  18.328  12.848   8.250
 5955POPC   C3A22253  18.241  12.811   7.950
 5955POPC   C4A22254  18.272  12.803   7.650
 5955POPC   C1B22255  18.500  12.891   8.550
 5955POPC   C2B22256  18.488  12.937   8.250
 5955POPC   C3B22257  18.518  12.848   7.950
 5955POPC   C4B22258  18.544  12.891   7.650
 5956POPC   NC322259  36.158  11.259   9.450
 5956POPC   PO422260  36.085  11.269   9.150
 5956POPC   GL122261  36.165  11.287   8.850
 5956POPC   GL222262  36.024  11.221   8.850
 5956POPC   C1A22263  36.117  11.346   8.550
 5956POPC   D2A22264  36.150  11.279   8.250
 5956POPC   C3A22265  36.096  11.299   7.950
 5956POPC   C4A22266  36.175  11.253   7.650
 5956POPC   C1B22267  35.898  11.120   8.550
 5956POPC   C2B22268  35.922  11.096   8.250
 5956POPC   C3B22269  35.902  11.164   7.950
 5956POPC   C4B22270  35.972  11.117   7.650
 5957POPC   NC322271  19.816  32.999   9.450
 5957POPC   PO422272  19.855  32.988   9.150
 5957POPC   GL122273  19.785  32.985   8.850
 5957POPC   GL222274  19.794  33.195   8.850
 5957POPC   C1A22275  19.803  33.026   8.550
 5957POPC   D2A22276  19.841  32.988   8.250
 5957POPC   C3A22277  19.822  33.034   7.950
 5957POPC   C4A22278  19.792  33.072   7.650
 5957POPC   C1B22279  19.773  33.235   8.550
 5957POPC   C2B22280  19.790  33.289   8.250
 5957POPC   C3B22281  19.773  33.302   7.950
 5957POPC   C4B22282  19.799  33.312   7.650
 5958POPC   NC322283   1.230  28.392   9.450
 5958POPC   PO422284   1.187  28.375   9.150
 5958POPC   GL122285   1.228  28.389   8.850
 5958POPC   GL222286   1.286  28.467   8.850
 5958POPC   C1A22287   1.228  28.356   8.550
 5958POPC   D2A22288   1.220  28.334   8.250
 5958POPC   C3A22289   1.182  28.407   7.950
 5958POPC   C4A22290   1.198  28.341   7.650
 5958POPC   C1B22291   1.388  28.554   8.550
 5958POPC   C2B22292   1.404  28.575   8.250
 5958POPC   C3B22293   1.360  28.521   7.950
 5958POPC   C4B22294   1.361  28.581   7.650
 5959POPC   NC322295  39.277  19.842   9.450
 5959POPC   PO422296  39.278  19.830   9.150
 5959POPC   GL122297  39.232  19.830   8.850
 5959POPC   GL222298  39.290  19.943   8.850
 5959POPC   C1A22299  39.222  19.852   8.550
 5959POPC   D2A22300  39.251  19.792   8.250
 5959POPC   C3A22301  39.237  19.838   7.950
 5959POPC   C4A22302  39.260  19.844   7.650
 5959POPC   C1B22303  39.206  20.113   8.550
 5959POPC   C2B22304  39.235  20.076   8.250
 5959POPC   C3B22305  39.270  20.037   7.950
 5959POPC   C4B22306  39.252  20.077   7.650
 5960POPC   NC322307   8.218  24.531   9.450
 5960POPC   PO422308   8.214  24.479   9.150
 5960POPC   GL122309   8.227  24.486   8.850
 5960POPC   GL222310   8.070  24.454   8.850
 5960POPC   C1A22311   8.229  24.500   8.550
 5960POPC   D2A22312   8.197  24.461   8.250
 5960POPC   C3A22313   8.192  24.502   7.950
 5960POPC   C4A22314   8.201  24.461   7.650
 5960POPC   C1B22315   7.958  24.291   8.550
 5960POPC   C2B22316   8.057  24.338   8.250
 5960POPC   C3B22317   8.009  24.280   7.950
 5960POPC   C4B22318   8.044  24.297   7.650
 5961POPC   NC322319   8.220   2.030   9.450
 5961POPC   PO422320   8.245   1.998   9.150
 5961POPC   GL122321   8.221   2.028   8.850
 5961POPC   GL222322   8.309   1.884   8.850
 5961POPC   C1A22323   8.184   2.028   8.550
 5961POPC   D2A22324   8.212   2.010   8.250
 5961POPC   C3A22325   8.207   1.961   7.950
 5961POPC   C4A22326   8.182   1.992   7.650
 5961POPC   C1B22327   8.296   1.821   8.550
 5961POPC   C2B22328   8.290   1.731   8.250
 5961POPC   C3B22329   8.323   1.768   7.950
 5961POPC   C4B22330   8.293   1.790   7.650
 5962POPC   NC322331  29.120  24.461   9.450
 5962POPC   PO422332  29.175  24.464   9.150
 5962POPC   GL122333  29.189  24.446   8.850
 5962POPC   GL222334  29.266  24.456   8.850
 5962POPC   C1A22335  29.163  24.532   8.550
 5962POPC   D2A22336  29.188  24.503   8.250
 5962POPC   C3A22337  29.128  24.485   7.950
 5962POPC   C4A22338  29.127  24.484   7.650
 5962POPC   C1B22339  29.384  24.318   8.550
 5962POPC   C2B22340  29.401  24.335   8.250
 5962POPC   C3B22341  29.318  24.304   7.950
 5962POPC   C4B22342  29.393  24.315   7.650
 5963POPC   NC322343   6.633  29.878   9.450
 5963POPC   PO422344   6.660  29.948   9.150
 5963POPC   GL122345   6.642  29.880   8.850
 5963POPC   GL222346   6.632  29.783   8.850
 5963POPC   C1A22347   6.679  29.903   8.550
 5963POPC   D2A22348   6.682  29.930   8.250
 5963POPC   C3A22349   6.662  29.883   7.950
 5963POPC   C4A22350   6.632  29.913   7.650
 5963POPC   C1B22351   6.551  29.715   8.550
 5963POPC   C2B22352   6.509  29.718   8.250
 5963POPC   C3B22353   6.513  29.657   7.950
 5963POPC   C4B22354   6.525  29.751   7.650
 5964POPC   NC322355  12.839  24.450   9.450
 5964POPC   PO422356  12.868  24.469   9.150
 5964POPC   GL122357  12.821  24.509   8.850
 5964POPC   GL222358  12.780  24.628   8.850
 5964POPC   C1A22359  12.891  24.534   8.550
 5964POPC   D2A22360  12.883  24.524   8.250
 5964POPC   C3A22361  12.876  24.464   7.950
 5964POPC   C4A22362  12.884  24.441   7.650
 5964POPC   C1B22363  12.722  24.692   8.550
 5964POPC   C2B22364  12.663  24.664   8.250
 5964POPC   C3B22365  12.740  24.723   7.950
 5964POPC   C4B22366  12.672  24.676   7.650
 5965POPC   NC322367  13.610  14.411   9.450
 5965POPC   PO422368  13.643  14.447   9.150
 5965POPC   GL122369  13.652  14.384   8.850
 5965POPC   GL222370  13.588  14.459   8.850
 5965POPC   C1A22371  13.629  14.441   8.550
 5965POPC   D2A22372  13.591  14.446   8.250
 5965POPC   C3A22373  13.579  14.368   7.950
 5965POPC   C4A22374  13.610  14.374   7.650
 5965POPC   C1B22375  13.476  14.570   8.550
 5965POPC   C2B22376  13.459  14.648   8.250
 5965POPC   C3B22377  13.444  14.596   7.950
 5965POPC   C4B22378  13.485  14.589   7.650
 5966POPC   NC322379  39.185  30.687   9.450
 5966POPC   PO422380  39.246  30.664   9.150
 5966POPC   GL122381  39.195  30.708   8.850
 5966POPC   GL222382  39.327  30.705   8.850
 5966POPC   C1A22383  39.226  30.657   8.550
 5966POPC   D2A22384  39.186  30.687   8.250
 5966POPC   C3A22385  39.189  30.739   7.950
 5966POPC   C4A22386  39.256  30.685   7.650
 5966POPC   C1B22387  39.522  30.678   8.550
 5966POPC   C2B22388  39.460  30.717   8.250
 5966POPC   C3B22389  39.430  30.734   7.950
 5966POPC   C4B22390  39.507  30.758   7.650
 5967POPC   NC322391  39.975   2.757   9.450
 5967POPC   PO422392  39.959   2.778   9.150
 5967POPC   GL122393  39.987   2.721   8.850
 5967POPC   GL222394  40.006   2.632   8.850
 5967POPC   C1A22395  40.051   2.793   8.550
 5967POPC   D2A22396  39.976   2.807   8.250
 5967POPC   C3A22397  39.964   2.810   7.950
 5967POPC   C4A22398  39.978   2.802   7.650
 5967POPC   C1B22399  40.025   2.473   8.550
 5967POPC   C2B22400  39.979   2.515   8.250
 5967POPC   C3B22401  39.986   2.528   7.950
 5967POPC   C4B22402  39.951   2.498   7.650
 5968POPC   NC322403  30.725  10.487   9.450
 5968POPC   PO422404  30.670  10.478   9.150
 5968POPC   GL122405  30.739  10.550   8.850
 5968POPC   GL222406  30.613  10.376   8.850
 5968POPC   C1A22407  30.648  10.553   8.550
 5968POPC   D2A22408  30.710  10.562   8.250
 5968POPC   C3A22409  30.697  10.486   7.950
 5968POPC   C4A22410  30.677  10.509   7.650
 5968POPC   C1B22411  30.611  10.317   8.550
 5968POPC   C2B22412  30.522  10.343   8.250
 5968POPC   C3B22413  30.618  10.279   7.950
 5968POPC   C4B22414  30.598  10.290   7.650
 5969POPC   NC322415   2.039  39.965   9.450
 5969POPC   PO422416   2.026  39.976   9.150
 5969POPC   GL122417   2.020  39.978   8.850
 5969POPC   GL222418   2.014  39.874   8.850
 5969POPC   C1A22419   2.015  40.030   8.550
 5969POPC   D2A22420   1.958  39.994   8.250
 5969POPC   C3A22421   2.000  39.962   7.950
 5969POPC   C4A22422   1.983  39.992   7.650
 5969POPC   C1B22423   2.077  39.735   8.550
 5969POPC   C2B22424   2.034  39.719   8.250
 5969POPC   C3B22425   2.043  39.781   7.950
 5969POPC   C4B22426   2.008  39.723   7.650
 5970POPC   NC322427  24.493  17.474   9.450
 5970POPC   PO422428  24.455  17.517   9.150
 5970POPC   GL122429  24.529  17.457   8.850
 5970POPC   GL222430  24.398  17.501   8.850
 5970POPC   C1A22431  24.537  17.494   8.550
 5970POPC   D2A22432  24.470  17.463   8.250
 5970POPC   C3A22433  24.443  17.501   7.950
 5970POPC   C4A22434  24.506  17.491   7.650
 5970POPC   C1B22435  24.287  17.473   8.550
 5970POPC   C2B22436  24.214  17.514   8.250
 5970POPC   C3B22437  24.216  17.504   7.950
 5970POPC   C4B22438  24.228  17.515   7.650
 5971POPC   NC322439   7.419  44.658   9.450
 5971POPC   PO422440   7.448  44.677   9.150
 5971POPC   GL122441   7.401  44.695   8.850
 5971POPC   GL222442   7.281  44.643   8.850
 5971POPC   C1A22443   7.423  44.642   8.550
 5971POPC   D2A22444   7.402  44.630   8.250
 5971POPC   C3A22445   7.379  44.697   7.950
 5971POPC   C4A22446   7.439  44.684   7.650
 5971POPC   C1B22447   7.186  44.623   8.550
 5971POPC   C2B22448   7.174  44.683   8.250
 5971POPC   C3B22449   7.121  44.659   7.950
 5971POPC   C4B22450   7.156  44.617   7.650
 5972POPC   NC322451  19.792  26.022   9.450
 5972POPC   PO422452  19.851  25.995   9.150
 5972POPC   GL122453  19.794  25.993   8.850
 5972POPC   GL222454  19.948  26.190   8.850
 5972POPC   C1A22455  19.794  26.002   8.550
 5972POPC   D2A22456  19.811  26.042   8.250
 5972POPC   C3A22457  19.791  26.039   7.950
 5972POPC   C4A22458  19.869  25.995   7.650
 5972POPC   C1B22459  19.985  26.227   8.550
 5972POPC   C2B22460  19.953  26.281   8.250
 5972POPC   C3B22461  19.963  26.221   7.950
 5972POPC   C4B22462  19.934  26.225   7.650
 5973POPC   NC322463  12.807  40.770   9.450
 5973POPC   PO422464  12.836  40.805   9.150
 5973POPC   GL122465  12.866  40.770   8.850
 5973POPC   GL222466  12.971  40.865   8.850
 5973POPC   C1A22467  12.861  40.806   8.550
 5973POPC   D2A22468  12.833  40.738   8.250
 5973POPC   C3A22469  12.835  40.736   7.950
 5973POPC   C4A22470  12.857  40.801   7.650
 5973POPC   C1B22471  12.994  41.022   8.550
 5973POPC   C2B22472  12.961  40.990   8.250
 5973POPC   C3B22473  13.023  40.987   7.950
 5973POPC   C4B22474  13.036  40.992   7.650
 5974POPC   NC322475  29.899  40.796   9.450
 5974POPC   PO422476  29.902  40.748   9.150
 5974POPC   GL122477  29.906  40.821   8.850
 5974POPC   GL222478  29.983  40.941   8.850
 5974POPC   C1A22479  29.900  40.831   8.550
 5974POPC   D2A22480  29.936  40.794   8.250
 5974POPC   C3A22481  29.949  40.768   7.950
 5974POPC   C4A22482  29.900  40.809   7.650
 5974POPC   C1B22483  30.051  40.985   8.550
 5974POPC   C2B22484  30.073  41.012   8.250
 5974POPC   C3B22485  30.030  40.982   7.950
 5974POPC   C4B22486  29.984  41.030   7.650
 5975POPC   NC322487  19.068  20.596   9.450
 5975POPC   PO422488  19.057  20.629   9.150
 5975POPC   GL122489  19.068  20.620   8.850
 5975POPC   GL222490  19.046  20.480   8.850
 5975POPC   C1A22491  19.055  20.576   8.550
 5975POPC   D2A22492  19.100  20.644   8.250
 5975POPC   C3A22493  19.039  20.561   7.950
 5975POPC   C4A22494  19.070  20.612   7.650
 5975POPC   C1B22495  19.024  20.407   8.550
 5975POPC   C2B22496  19.020  20.400   8.250
 5975POPC   C3B22497  18.971  20.375   7.950
 5975POPC   C4B22498  18.998  20.346   7.650
 5976POPC   NC322499  36.937  29.919   9.450
 5976POPC   PO422500  36.905  29.896   9.150
 5976POPC   GL122501  36.950  29.959   8.850
 5976POPC   GL222502  36.897  29.838   8.850
 5976POPC   C1A22503  36.894  29.930   8.550
 5976POPC   D2A22504  36.943  29.905   8.250
 5976POPC   C3A22505  36.937  29.909   7.950
 5976POPC   C4A22506  36.932  29.927   7.650
 5976POPC   C1B22507  36.929  29.645   8.550
 5976POPC   C2B22508  36.959  29.688   8.250
 5976POPC   C3B22509  36.958  29.701   7.950
 5976POPC   C4B22510  36.939  29.716   7.650
 5977POPC   NC322511  41.562  29.919   9.450
 5977POPC   PO422512  41.538  29.907   9.150
 5977POPC   GL122513  41.534  29.894   8.850
 5977POPC   GL222514  41.441  29.980   8.850
 5977POPC   C1A22515  41.600  29.885   8.550
 5977POPC   D2A22516  41.566  29.916   8.250
 5977POPC   C3A22517  41.555  29.887   7.950
 5977POPC   C4A22518  41.514  29.962   7.650
 5977POPC   C1B22519  41.436  30.125   8.550
 5977POPC   C2B22520  41.429  30.103   8.250
 5977POPC   C3B22521  41.419  30.132   7.950
 5977POPC   C4B22522  41.373  30.078   7.650
 5978POPC   NC322523  36.110  14.433   9.450
 5978POPC   PO422524  36.143  14.407   9.150
 5978POPC   GL122525  36.169  14.445   8.850
 5978POPC   GL222526  36.089  14.564   8.850
 5978POPC   C1A22527  36.082  14.440   8.550
 5978POPC   D2A22528  36.135  14.395   8.250
 5978POPC   C3A22529  36.115  14.364   7.950
 5978POPC   C4A22530  36.100  14.401   7.650
 5978POPC   C1B22531  36.051  14.623   8.550
 5978POPC   C2B22532  36.001  14.598   8.250
 5978POPC   C3B22533  36.064  14.664   7.950
 5978POPC   C4B22534  36.031  14.662   7.650
 5979POPC   NC322535   0.479  17.472   9.450
 5979POPC   PO422536   0.463  17.554   9.150
 5979POPC   GL122537   0.483  17.476   8.850
 5979POPC   GL222538   0.320  17.620   8.850
 5979POPC   C1A22539   0.478  17.548   8.550
 5979POPC   D2A22540   0.429  17.490   8.250
 5979POPC   C3A22541   0.488  17.495   7.950
 5979POPC   C4A22542   0.423  17.464   7.650
 5979POPC   C1B22543   0.290  17.736   8.550
 5979POPC   C2B22544   0.272  17.673   8.250
 5979POPC   C3B22545   0.305  17.736   7.950
 5979POPC   C4B22546   0.275  17.733   7.650
 5980POPC   NC322547   3.499  43.137   9.450
 5980POPC   PO422548   3.497  43.145   9.150
 5980POPC   GL122549   3.550  43.067   8.850
 5980POPC   GL222550   3.438  43.040   8.850
 5980POPC   C1A22551   3.569  43.140   8.550
 5980POPC   D2A22552   3.558  43.105   8.250
 5980POPC   C3A22553   3.550  43.133   7.950
 5980POPC   C4A22554   3.562  43.093   7.650
 5980POPC   C1B22555   3.449  42.932   8.550
 5980POPC   C2B22556   3.409  42.852   8.250
 5980POPC   C3B22557   3.402  42.839   7.950
 5980POPC   C4B22558   3.476  42.877   7.650
 5981POPC   NC322559  12.055  29.876   9.450
 5981POPC   PO422560  12.064  29.960   9.150
 5981POPC   GL122561  12.043  29.938   8.850
 5981POPC   GL222562  11.998  29.964   8.850
 5981POPC   C1A22563  12.117  29.913   8.550
 5981POPC   D2A22564  12.068  29.923   8.250
 5981POPC   C3A22565  12.028  29.956   7.950
 5981POPC   C4A22566  12.034  29.926   7.650
 5981POPC   C1B22567  11.834  29.963   8.550
 5981POPC   C2B22568  11.842  29.996   8.250
 5981POPC   C3B22569  11.838  30.038   7.950
 5981POPC   C4B22570  11.889  30.009   7.650
 5982POPC   NC322571  26.781   5.080   9.450
 5982POPC   PO422572  26.865   5.099   9.150
 5982POPC   GL122573  26.784   5.130   8.850
 5982POPC   GL222574  26.694   5.062   8.850
 5982POPC   C1A22575  26.813   5.044   8.550
 5982POPC   D2A22576  26.835   5.069   8.250
 5982POPC   C3A22577  26.812   5.115   7.950
 5982POPC   C4A22578  26.854   5.064   7.650
 5982POPC   C1B22579  26.595   5.026   8.550
 5982POPC   C2B22580  26.526   5.011   8.250
 5982POPC   C3B22581  26.558   5.015   7.950
 5982POPC   C4B22582  26.611   5.008   7.650
 5983POPC   NC322583  15.960  32.279   9.450
 5983POPC   PO422584  15.938  32.222   9.150
 5983POPC   GL122585  16.003  32.266   8.850
 5983POPC   GL222586  15.926  32.361   8.850
 5983POPC   C1A22587  15.979  32.244   8.550
 5983POPC   D2A22588  15.976  32.237   8.250
 5983POPC   C3A22589  15.933  32.276   7.950
 5983POPC   C4A22590  15.910  32.285   7.650
 5983POPC   C1B22591  15.871  32.444   8.550
 5983POPC   C2B22592  15.817  32.445   8.250
 5983POPC   C3B22593  15.860  32.482   7.950
 5983POPC   C4B22594  15.862  32.464   7.650
 5984POPC   NC322595  11.267  30.656   9.450
 5984POPC   PO422596  11.285  30.720   9.150
 5984POPC   GL122597  11.278  30.655   8.850
 5984POPC   GL222598  11.322  30.858   8.850
 5984POPC   C1A22599  11.320  30.706   8.550
 5984POPC   D2A22600  11.332  30.740   8.250
 5984POPC   C3A22601  11.276  30.741   7.950
 5984POPC   C4A22602  11.267  30.664   7.650
 5984POPC   C1B22603  11.359  30.915   8.550
 5984POPC   C2B22604  11.390  30.971   8.250
 5984POPC   C3B22605  11.415  30.930   7.950
 5984POPC   C4B22606  11.426  30.906   7.650
 5985POPC   NC322607   8.217  12.045   9.450
 5985POPC   PO422608   8.181  12.094   9.150
 5985POPC   GL122609   8.226  12.105   8.850
 5985POPC   GL222610   8.274  12.152   8.850
 5985POPC   C1A22611   8.160  12.059   8.550
 5985POPC   D2A22612   8.202  12.042   8.250
 5985POPC   C3A22613   8.190  12.048   7.950
 5985POPC   C4A22614   8.169  12.096   7.650
 5985POPC   C1B22615   8.306  12.316   8.550
 5985POPC   C2B22616   8.334  12.255   8.250
 5985POPC   C3B22617   8.293  12.327   7.950
 5985POPC   C4B22618   8.323  12.242   7.650
 5986POPC   NC322619   0.429  38.498   9.450
 5986POPC   PO422620   0.441  38.498   9.150
 5986POPC   GL122621   0.482  38.481   8.850
 5986POPC   GL222622   0.476  38.353   8.850
 5986POPC   C1A22623   0.450  38.470   8.550
 5986POPC   D2A22624   0.468  38.438   8.250
 5986POPC   C3A22625   0.394  38.440   7.950
 5986POPC   C4A22626   0.464  38.505   7.650
 5986POPC   C1B22627   0.526  38.172   8.550
 5986POPC   C2B22628   0.457  38.171   8.250
 5986POPC   C3B22629   0.511  38.222   7.950
 5986POPC   C4B22630   0.468  38.172   7.650
 5987POPC   NC322631  30.713  17.501   9.450
 5987POPC   PO422632  30.692  17.465   9.150
 5987POPC   GL122633  30.650  17.539   8.850
 5987POPC   GL222634  30.817  17.535   8.850
 5987POPC   C1A22635  30.736  17.492   8.550
 5987POPC   D2A22636  30.705  17.484   8.250
 5987POPC   C3A22637  30.666  17.550   7.950
 5987POPC   C4A22638  30.674  17.543   7.650
 5987POPC   C1B22639  30.953  17.531   8.550
 5987POPC   C2B22640  30.903  17.595   8.250
 5987POPC   C3B22641  30.953  17.602   7.950
 5987POPC   C4B22642  30.965  17.542   7.650
 5988POPC   NC322643  37.669  24.462   9.450
 5988POPC   PO422644  37.661  24.520   9.150
 5988POPC   GL122645  37.637  24.456   8.850
 5988POPC   GL222646  37.644  24.316   8.850
 5988POPC   C1A22647  37.665  24.486   8.550
 5988POPC   D2A22648  37.676  24.469   8.250
 5988POPC   C3A22649  37.689  24.488   7.950
 5988POPC   C4A22650  37.714  24.497   7.650
 5988POPC   C1B22651  37.619  24.287   8.550
 5988POPC   C2B22652  37.684  24.261   8.250
 5988POPC   C3B22653  37.691  24.266   7.950
 5988POPC   C4B22654  37.658  24.271   7.650
 5989POPC   NC322655   8.965  36.172   9.450
 5989POPC   PO422656   9.003  36.112   9.150
 5989POPC   GL122657   8.948  36.172   8.850
 5989POPC   GL222658   8.849  36.276   8.850
 5989POPC   C1A22659   8.942  36.106   8.550
 5989POPC   D2A22660   8.985  36.136   8.250
 5989POPC   C3A22661   8.984  36.135   7.950
 5989POPC   C4A22662   8.951  36.079   7.650
 5989POPC   C1B22663   8.778  36.346   8.550
 5989POPC   C2B22664   8.851  36.364   8.250
 5989POPC   C3B22665   8.847  36.335   7.950
 5989POPC   C4B22666   8.866  36.303   7.650
 5990POPC   NC322667   5.910  22.914   9.450
 5990POPC   PO422668   5.877  22.938   9.150
 5990POPC   GL122669   5.873  22.895   8.850
 5990POPC   GL222670   5.919  23.016   8.850
 5990POPC   C1A22671   5.822  22.888   8.550
 5990POPC   D2A22672   5.879  22.959   8.250
 5990POPC   C3A22673   5.847  22.964   7.950
 5990POPC   C4A22674   5.863  22.945   7.650
 5990POPC   C1B22675   5.924  23.211   8.550
 5990POPC   C2B22676   5.982  23.207   8.250
 5990POPC   C3B22677   5.916  23.179   7.950
 5990POPC   C4B22678   5.916  23.129   7.650
 5991POPC   NC322679  20.650  32.226   9.450
 5991POPC   PO422680  20.615  32.279   9.150
 5991POPC   GL122681  20.593  32.285   8.850
 5991POPC   GL222682  20.707  32.091   8.850
 5991POPC   C1A22683  20.602  32.228   8.550
 5991POPC   D2A22684  20.577  32.220   8.250
 5991POPC   C3A22685  20.602  32.284   7.950
 5991POPC   C4A22686  20.655  32.238   7.650
 5991POPC   C1B22687  20.674  32.061   8.550
 5991POPC   C2B22688  20.744  32.002   8.250
 5991POPC   C3B22689  20.690  32.014   7.950
 5991POPC   C4B22690  20.720  32.037   7.650
 5992POPC   NC322691  37.685  32.228   9.450
 5992POPC   PO422692  37.669  32.252   9.150
 5992POPC   GL122693  37.722  32.203   8.850
 5992POPC   GL222694  37.513  32.295   8.850
 5992POPC   C1A22695  37.711  32.206   8.550
 5992POPC   D2A22696  37.637  32.261   8.250
 5992POPC   C3A22697  37.655  32.241   7.950
 5992POPC   C4A22698  37.698  32.250   7.650
 5992POPC   C1B22699  37.391  32.210   8.550
 5992POPC   C2B22700  37.447  32.281   8.250
 5992POPC   C3B22701  37.455  32.292   7.950
 5992POPC   C4B22702  37.387  32.252   7.650
 5993POPC   NC322703  43.110   2.032   9.450
 5993POPC   PO422704  43.136   2.008   9.150
 5993POPC   GL122705  43.118   2.006   8.850
 5993POPC   GL222706  43.081   2.147   8.850
 5993POPC   C1A22707  43.125   1.988   8.550
 5993POPC   D2A22708  43.146   1.941   8.250
 5993POPC   C3A22709  43.133   2.000   7.950
 5993POPC   C4A22710  43.071   2.006   7.650
 5993POPC   C1B22711  42.984   2.254   8.550
 5993POPC   C2B22712  42.974   2.253   8.250
 5993POPC   C3B22713  43.043   2.219   7.950
 5993POPC   C4B22714  43.025   2.243   7.650
 5994POPC   NC322715  37.633  15.913   9.450
 5994POPC   PO422716  37.690  15.937   9.150
 5994POPC   GL122717  37.650  15.971   8.850
 5994POPC   GL222718  37.598  15.980   8.850
 5994POPC   C1A22719  37.649  15.945   8.550
 5994POPC   D2A22720  37.701  15.954   8.250
 5994POPC   C3A22721  37.688  15.950   7.950
 5994POPC   C4A22722  37.724  15.972   7.650
 5994POPC   C1B22723  37.402  15.989   8.550
 5994POPC   C2B22724  37.466  15.962   8.250
 5994POPC   C3B22725  37.475  15.984   7.950
 5994POPC   C4B22726  37.458  16.004   7.650
 5995POPC   NC322727  24.512  10.503   9.450
 5995POPC   PO422728  24.535  10.564   9.150
 5995POPC   GL122729  24.498  10.476   8.850
 5995POPC   GL222730  24.344  10.617   8.850
 5995POPC   C1A22731  24.456  10.542   8.550
 5995POPC   D2A22732  24.484  10.569   8.250
 5995POPC   C3A22733  24.465  10.530   7.950
 5995POPC   C4A22734  24.529  10.544   7.650
 5995POPC   C1B22735  24.313  10.708   8.550
 5995POPC   C2B22736  24.280  10.688   8.250
 5995POPC   C3B22737  24.237  10.713   7.950
 5995POPC   C4B22738  24.307  10.688   7.650
 5996POPC   NC322739  24.481  37.641   9.450
 5996POPC   PO422740  24.487  37.659   9.150
 5996POPC   GL122741  24.513  37.673   8.850
 5996POPC   GL222742  24.353  37.619   8.850
 5996POPC   C1A22743  24.496  37.701   8.550
 5996POPC   D2A22744  24.495  37.634   8.250
 5996POPC   C3A22745  24.445  37.655   7.950
 5996POPC   C4A22746  24.468  37.727   7.650
 5996POPC   C1B22747  24.244  37.601   8.550
 5996POPC   C2B22748  24.254  37.611   8.250
 5996POPC   C3B22749  24.211  37.600   7.950
 5996POPC   C4B22750  24.226  37.563   7.650
 5997POPC   NC322751  23.695  33.807   9.450
 5997POPC   PO422752  23.756  33.780   9.150
 5997POPC   GL122753  23.713  33.825   8.850
 5997POPC   GL222754  23.649  33.900   8.850
 5997POPC   C1A22755  23.709  33.815   8.550
 5997POPC   D2A22756  23.761  33.753   8.250
 5997POPC   C3A22757  23.692  33.828   7.950
 5997POPC   C4A22758  23.697  33.773   7.650
 5997POPC   C1B22759  23.594  34.073   8.550
 5997POPC   C2B22760  23.678  34.085   8.250
 5997POPC   C3B22761  23.603  34.081   7.950
 5997POPC   C4B22762  23.676  34.017   7.650
 5998POPC   NC322763  19.017  14.451   9.450
 5998POPC   PO422764  19.060  14.393   9.150
 5998POPC   GL122765  19.040  14.451   8.850
 5998POPC   GL222766  18.913  14.423   8.850
 5998POPC   C1A22767  19.091  14.435   8.550
 5998POPC   D2A22768  19.079  14.387   8.250
 5998POPC   C3A22769  19.042  14.365   7.950
 5998POPC   C4A22770  19.082  14.373   7.650
 5998POPC   C1B22771  18.840  14.501   8.550
 5998POPC   C2B22772  18.800  14.465   8.250
 5998POPC   C3B22773  18.855  14.496   7.950
 5998POPC   C4B22774  18.831  14.500   7.650
 5999POPC   NC322775   2.038  22.920   9.450
 5999POPC   PO422776   2.003  22.958   9.150
 5999POPC   GL122777   1.997  22.975   8.850
 5999POPC   GL222778   2.019  22.864   8.850
 5999POPC   C1A22779   1.940  22.966   8.550
 5999POPC   D2A22780   1.990  22.986   8.250
 5999POPC   C3A22781   1.964  22.921   7.950
 5999POPC   C4A22782   1.999  22.975   7.650
 5999POPC   C1B22783   2.106  22.728   8.550
 5999POPC   C2B22784   2.111  22.688   8.250
 5999POPC   C3B22785   2.100  22.688   7.950
 5999POPC   C4B22786   2.104  22.703   7.650
 6000POPC   NC322787  25.295  21.352   9.450
 6000POPC   PO422788  25.287  21.377   9.150
 6000POPC   GL122789  25.291  21.366   8.850
 6000POPC   GL222790  25.256  21.260   8.850
 6000POPC   C1A22791  25.240  21.398   8.550
 6000POPC   D2A22792  25.278  21.347   8.250
 6000POPC   C3A22793  25.258  21.395   7.950
 6000POPC   C4A22794  25.274  21.353   7.650
 6000POPC   C1B22795  25.213  21.107   8.550
 6000POPC   C2B22796  25.274  21.096   8.250
 6000POPC   C3B22797  25.179  21.098   7.950
 6000POPC   C4B22798  25.219  21.177   7.650
 6001POPC   NC322799   3.500   3.526   9.450
 6001POPC   PO422800   3.563   3.585   9.150
 6001POPC   GL122801   3.590   3.582   8.850
 6001POPC   GL222802   3.579   3.602   8.850
 6001POPC   C1A22803   3.491   3.563   8.550
 6001POPC   D2A22804   3.513   3.559   8.250
 6001POPC   C3A22805   3.554   3.501   7.950
 6001POPC   C4A22806   3.588   3.499   7.650
 6001POPC   C1B22807   3.745   3.727   8.550
 6001POPC   C2B22808   3.727   3.781   8.250
 6001POPC   C3B22809   3.733   3.756   7.950
 6001POPC   C4B22810   3.701   3.761   7.650
 6002POPC   NC322811  13.608   3.534   9.450
 6002POPC   PO422812  13.608   3.505   9.150
 6002POPC   GL122813  13.624   3.543   8.850
 6002POPC   GL222814  13.581   3.703   8.850
 6002POPC   C1A22815  13.625   3.575   8.550
 6002POPC   D2A22816  13.629   3.530   8.250
 6002POPC   C3A22817  13.674   3.568   7.950
 6002POPC   C4A22818  13.608   3.535   7.650
 6002POPC   C1B22819  13.596   3.782   8.550
 6002POPC   C2B22820  13.549   3.789   8.250
 6002POPC   C3B22821  13.548   3.759   7.950
 6002POPC   C4B22822  13.536   3.771   7.650
 6003POPC   NC322823  15.229  42.346   9.450
 6003POPC   PO422824  15.192  42.354   9.150
 6003POPC   GL122825  15.149  42.328   8.850
 6003POPC   GL222826  15.279  42.224   8.850
 6003POPC   C1A22827  15.196  42.359   8.550
 6003POPC   D2A22828  15.199  42.289   8.250
 6003POPC   C3A22829  15.226  42.335   7.950
 6003POPC   C4A22830  15.160  42.323   7.650
 6003POPC   C1B22831  15.407  42.187   8.550
 6003POPC   C2B22832  15.422  42.212   8.250
 6003POPC   C3B22833  15.341  42.163   7.950
 6003POPC   C4B22834  15.362  42.202   7.650
 6004POPC   NC322835   0.444  20.622   9.450
 6004POPC   PO422836   0.415  20.621   9.150
 6004POPC   GL122837   0.453  20.625   8.850
 6004POPC   GL222838   0.341  20.540   8.850
 6004POPC   C1A22839   0.440  20.590   8.550
 6004POPC   D2A22840   0.476  20.639   8.250
 6004POPC   C3A22841   0.478  20.633   7.950
 6004POPC   C4A22842   0.442  20.642   7.650
 6004POPC   C1B22843   0.253  20.461   8.550
 6004POPC   C2B22844   0.314  20.428   8.250
 6004POPC   C3B22845   0.282  20.383   7.950
 6004POPC   C4B22846   0.245  20.398   7.650
 6005POPC   NC322847  19.108   6.607   9.450
 6005POPC   PO422848  19.084   6.648   9.150
 6005POPC   GL122849  19.017   6.615   8.850
 6005POPC   GL222850  19.060   6.763   8.850
 6005POPC   C1A22851  19.071   6.601   8.550
 6005POPC   D2A22852  19.038   6.693   8.250
 6005POPC   C3A22853  19.027   6.693   7.950
 6005POPC   C4A22854  19.027   6.689   7.650
 6005POPC   C1B22855  19.187   6.857   8.550
 6005POPC   C2B22856  19.186   6.909   8.250
 6005POPC   C3B22857  19.208   6.922   7.950
 6005POPC   C4B22858  19.134   6.862   7.650
 6006POPC   NC322859  36.123   2.796   9.450
 6006POPC   PO422860  36.104   2.716   9.150
 6006POPC   GL122861  36.116   2.756   8.850
 6006POPC   GL222862  35.988   2.771   8.850
 6006POPC   C1A22863  36.096   2.720   8.550
 6006POPC   D2A22864  36.145   2.815   8.250
 6006POPC   C3A22865  36.129   2.783   7.950
 6006POPC   C4A22866  36.095   2.795   7.650
 6006POPC   C1B22867  35.861   2.771   8.550
 6006POPC   C2B22868  35.831   2.845   8.250
 6006POPC   C3B22869  35.900   2.814   7.950
 6006POPC   C4B22870  35.880   2.752   7.650
 6007POPC   NC322871  13.669  35.348   9.450
 6007POPC   PO422872  13.631  35.358   9.150
 6007POPC   GL122873  13.671  35.319   8.850
 6007POPC   GL222874  13.739  35.205   8.850
 6007POPC   C1A22875  13.677  35.334   8.550
 6007POPC   D2A22876  13.605  35.303   8.250
 6007POPC   C3A22877  13.649  35.389   7.950
 6007POPC   C4A22878  13.666  35.401   7.650
 6007POPC   C1B22879  13.805  35.133   8.550
 6007POPC   C2B22880  13.782  35.147   8.250
 6007POPC   C3B22881  13.734  35.184   7.950
 6007POPC   C4B22882  13.740  35.175   7.650
 6008POPC   NC322883  35.347  35.331   9.450
 6008POPC   PO422884  35.374  35.305   9.150
 6008POPC   GL122885  35.306  35.369   8.850
 6008POPC   GL222886  35.297  35.271   8.850
 6008POPC   C1A22887  35.327  35.343   8.550
 6008POPC   D2A22888  35.361  35.378   8.250
 6008POPC   C3A22889  35.343  35.305   7.950
 6008POPC   C4A22890  35.340  35.375   7.650
 6008POPC   C1B22891  35.213  35.107   8.550
 6008POPC   C2B22892  35.212  35.199   8.250
 6008POPC   C3B22893  35.200  35.158   7.950
 6008POPC   C4B22894  35.197  35.191   7.650
 6009POPC   NC322895  12.107  19.024   9.450
 6009POPC   PO422896  12.053  19.014   9.150
 6009POPC   GL122897  12.060  19.011   8.850
 6009POPC   GL222898  12.108  19.222   8.850
 6009POPC   C1A22899  12.029  19.096   8.550
 6009POPC   D2A22900  12.107  19.091   8.250
 6009POPC   C3A22901  12.080  19.031   7.950
 6009POPC   C4A22902  12.088  19.102   7.650
 6009POPC   C1B22903  12.096  19.289   8.550
 6009POPC   C2B22904  12.104  19.302   8.250
 6009POPC   C3B22905  12.023  19.343   7.950
 6009POPC   C4B22906  12.097  19.278   7.650
 6010POPC   NC322907  19.873   9.792   9.450
 6010POPC   PO422908  19.847   9.745   9.150
 6010POPC   GL122909  19.787   9.732   8.850
 6010POPC   GL222910  19.786   9.921   8.850
 6010POPC   C1A22911  19.816   9.775   8.550
 6010POPC   D2A22912  19.826   9.742   8.250
 6010POPC   C3A22913  19.861   9.741   7.950
 6010POPC   C4A22914  19.833   9.752   7.650
 6010POPC   C1B22915  19.809  10.044   8.550
 6010POPC   C2B22916  19.818  10.006   8.250
 6010POPC   C3B22917  19.802  10.044   7.950
 6010POPC   C4B22918  19.846  10.021   7.650
 6011POPC   NC322919  30.732   7.453   9.450
 6011POPC   PO422920  30.664   7.403   9.150
 6011POPC   GL122921  30.714   7.441   8.850
 6011POPC   GL222922  30.861   7.454   8.850
 6011POPC   C1A22923  30.674   7.418   8.550
 6011POPC   D2A22924  30.713   7.371   8.250
 6011POPC   C3A22925  30.740   7.394   7.950
 6011POPC   C4A22926  30.686   7.452   7.650
 6011POPC   C1B22927  30.879   7.551   8.550
 6011POPC   C2B22928  30.919   7.470   8.250
 6011POPC   C3B22929  30.884   7.484   7.950
 6011POPC   C4B22930  30.886   7.477   7.650
 6012POPC   NC322931  15.944  39.979   9.450
 6012POPC   PO422932  15.917  40.038   9.150
 6012POPC   GL122933  15.976  40.033   8.850
 6012POPC   GL222934  16.050  40.017   8.850
 6012POPC   C1A22935  16.003  40.044   8.550
 6012POPC   D2A22936  15.913  40.056   8.250
 6012POPC   C3A22937  15.906  40.033   7.950
 6012POPC   C4A22938  15.962  40.055   7.650
 6012POPC   C1B22939  16.209  40.018   8.550
 6012POPC   C2B22940  16.241  40.015   8.250
 6012POPC   C3B22941  16.210  40.005   7.950
 6012POPC   C4B22942  16.200  39.978   7.650
 6013POPC   NC322943  43.837  29.187   9.450
 6013POPC   PO422944  43.878  29.177   9.150
 6013POPC   GL122945  43.841  29.117   8.850
 6013POPC   GL222946  43.823  29.003   8.850
 6013POPC   C1A22947  43.853  29.141   8.550
 6013POPC   D2A22948  43.857  29.161   8.250
 6013POPC   C3A22949  43.886  29.181   7.950
 6013POPC   C4A22950  43.899  29.106   7.650
 6013POPC   C1B22951  43.860  28.934   8.550
 6013POPC   C2B22952  43.829  28.888   8.250
 6013POPC   C3B22953  43.890  28.925   7.950
 6013POPC   C4B22954  43.821  28.908   7.650
 6014POPC   NC322955  10.550  37.668   9.450
 6014POPC   PO422956  10.549  37.713   9.150
 6014POPC   GL122957  10.529  37.725   8.850
 6014POPC   GL222958  10.380  37.708   8.850
 6014POPC   C1A22959  10.571  37.712   8.550
 6014POPC   D2A22960  10.492  37.632   8.250
 6014POPC   C3A22961  10.562  37.649   7.950
 6014POPC   C4A22962  10.541  37.693   7.650
 6014POPC   C1B22963  10.344  37.806   8.550
 6014POPC   C2B22964  10.270  37.836   8.250
 6014POPC   C3B22965  10.251  37.822   7.950
 6014POPC   C4B22966  10.321  37.742   7.650
 6015POPC   NC322967  34.530   7.430   9.450
 6015POPC   PO422968  34.584   7.462   9.150
 6015POPC   GL122969  34.606   7.399   8.850
 6015POPC   GL222970  34.672   7.548   8.850
 6015POPC   C1A22971  34.615   7.471   8.550
 6015POPC   D2A22972  34.567   7.390   8.250
 6015POPC   C3A22973  34.582   7.411   7.950
 6015POPC   C4A22974  34.555   7.464   7.650
 6015POPC   C1B22975  34.775   7.620   8.550
 6015POPC   C2B22976  34.791   7.631   8.250
 6015POPC   C3B22977  34.761   7.540   7.950
 6015POPC   C4B22978  34.796   7.557   7.650
 6016POPC   NC322979  39.221   4.316   9.450
 6016POPC   PO422980  39.238   4.334   9.150
 6016POPC   GL122981  39.231   4.346   8.850
 6016POPC   GL222982  39.252   4.398   8.850
 6016POPC   C1A22983  39.192   4.326   8.550
 6016POPC   D2A22984  39.277   4.351   8.250
 6016POPC   C3A22985  39.230   4.290   7.950
 6016POPC   C4A22986  39.232   4.327   7.650
 6016POPC   C1B22987  39.315   4.500   8.550
 6016POPC   C2B22988  39.334   4.506   8.250
 6016POPC   C3B22989  39.308   4.560   7.950
 6016POPC   C4B22990  39.304   4.531   7.650
 6017POPC   NC322991  36.171  38.459   9.450
 6017POPC   PO422992  36.177  38.412   9.150
 6017POPC   GL122993  36.128  38.446   8.850
 6017POPC   GL222994  36.205  38.419   8.850
 6017POPC   C1A22995  36.172  38.428   8.550
 6017POPC   D2A22996  36.130  38.477   8.250
 6017POPC   C3A22997  36.169  38.486   7.950
 6017POPC   C4A22998  36.089  38.460   7.650
 6017POPC   C1B22999  36.385  38.326   8.550
 6017POPC   C2B23000  36.383  38.392   8.250
 6017POPC   C3B23001  36.367  38.365   7.950
 6017POPC   C4B23002  36.317  38.352   7.650
 6018POPC   NC323003  42.356   1.945   9.450
 6018POPC   PO423004  42.350   1.998   9.150
 6018POPC   GL123005  42.296   2.039   8.850
 6018POPC   GL223006  42.272   2.060   8.850
 6018POPC   C1A23007  42.371   1.959   8.550
 6018POPC   D2A23008  42.374   2.001   8.250
 6018POPC   C3A23009  42.337   1.950   7.950
 6018POPC   C4A23010  42.351   1.989   7.650
 6018POPC   C1B23011  42.167   2.173   8.550
 6018POPC   C2B23012  42.174   2.131   8.250
 6018POPC   C3B23013  42.188   2.188   7.950
 6018POPC   C4B23014  42.158   2.164   7.650
 6019POPC   NC323015  39.274  17.504   9.450
 6019POPC   PO423016  39.270  17.515   9.150
 6019POPC   GL123017  39.230  17.544   8.850
 6019POPC   GL223018  39.140  17.428   8.850
 6019POPC   C1A23019  39.240  17.554   8.550
 6019POPC   D2A23020  39.277  17.502   8.250
 6019POPC   C3A23021  39.215  17.553   7.950
 6019POPC   C4A23022  39.239  17.495   7.650
 6019POPC   C1B23023  39.126  17.278   8.550
 6019POPC   C2B23024  39.137  17.324   8.250
 6019POPC   C3B23025  39.134  17.259   7.950
 6019POPC   C4B23026  39.072  17.257   7.650
 6020POPC   NC323027   2.719   5.830   9.450
 6020POPC   PO423028   2.813   5.906   9.150
 6020POPC   GL123029   2.774   5.878   8.850
 6020POPC   GL223030   2.915   5.902   8.850
 6020POPC   C1A23031   2.810   5.883   8.550
 6020POPC   D2A23032   2.813   5.853   8.250
 6020POPC   C3A23033   2.766   5.821   7.950
 6020POPC   C4A23034   2.750   5.856   7.650
 6020POPC   C1B23035   2.979   5.921   8.550
 6020POPC   C2B23036   3.013   5.875   8.250
 6020POPC   C3B23037   3.055   5.916   7.950
 6020POPC   C4B23038   3.049   5.867   7.650
 6021POPC   NC323039  25.279  37.668   9.450
 6021POPC   PO423040  25.220  37.638   9.150
 6021POPC   GL123041  25.288  37.697   8.850
 6021POPC   GL223042  25.153  37.670   8.850
 6021POPC   C1A23043  25.263  37.706   8.550
 6021POPC   D2A23044  25.240  37.658   8.250
 6021POPC   C3A23045  25.287  37.646   7.950
 6021POPC   C4A23046  25.221  37.689   7.650
 6021POPC   C1B23047  24.999  37.774   8.550
 6021POPC   C2B23048  25.064  37.723   8.250
 6021POPC   C3B23049  25.005  37.768   7.950
 6021POPC   C4B23050  25.048  37.695   7.650
 6022POPC   NC323051  33.780  43.076   9.450
 6022POPC   PO423052  33.813  43.078   9.150
 6022POPC   GL123053  33.816  43.128   8.850
 6022POPC   GL223054  33.741  43.182   8.850
 6022POPC   C1A23055  33.821  43.145   8.550
 6022POPC   D2A23056  33.770  43.130   8.250
 6022POPC   C3A23057  33.768  43.074   7.950
 6022POPC   C4A23058  33.756  43.132   7.650
 6022POPC   C1B23059  33.625  43.240   8.550
 6022POPC   C2B23060  33.573  43.289   8.250
 6022POPC   C3B23061  33.667  43.278   7.950
 6022POPC   C4B23062  33.662  43.258   7.650
 6023POPC   NC323063  36.164  31.427   9.450
 6023POPC   PO423064  36.122  31.468   9.150
 6023POPC   GL123065  36.141  31.440   8.850
 6023POPC   GL223066  35.963  31.428   8.850
 6023POPC   C1A23067  36.102  31.511   8.550
 6023POPC   D2A23068  36.083  31.428   8.250
 6023POPC   C3A23069  36.115  31.455   7.950
 6023POPC   C4A23070  36.084  31.433   7.650
 6023POPC   C1B23071  35.908  31.387   8.550
 6023POPC   C2B23072  35.842  31.412   8.250
 6023POPC   C3B23073  35.855  31.391   7.950
 6023POPC   C4B23074  35.919  31.403   7.650
 6024POPC   NC323075  40.017  23.691   9.450
 6024POPC   PO423076  40.020  23.725   9.150
 6024POPC   GL123077  40.032  23.745   8.850
 6024POPC   GL223078  39.897  23.586   8.850
 6024POPC   C1A23079  40.020  23.682   8.550
 6024POPC   D2A23080  39.977  23.742   8.250
 6024POPC   C3A23081  40.024  23.731   7.950
 6024POPC   C4A23082  40.016  23.760   7.650
 6024POPC   C1B23083  39.930  23.489   8.550
 6024POPC   C2B23084  39.835  23.450   8.250
 6024POPC   C3B23085  39.875  23.473   7.950
 6024POPC   C4B23086  39.906  23.511   7.650
 6025POPC   NC323087   1.182  11.264   9.450
 6025POPC   PO423088   1.200  11.285   9.150
 6025POPC   GL123089   1.211  11.331   8.850
 6025POPC   GL223090   1.071  11.299   8.850
 6025POPC   C1A23091   1.224  11.252   8.550
 6025POPC   D2A23092   1.178  11.274   8.250
 6025POPC   C3A23093   1.172  11.250   7.950
 6025POPC   C4A23094   1.241  11.255   7.650
 6025POPC   C1B23095   1.004  11.346   8.550
 6025POPC   C2B23096   0.956  11.371   8.250
 6025POPC   C3B23097   0.962  11.386   7.950
 6025POPC   C4B23098   0.992  11.401   7.650
 6026POPC   NC323099  38.442   2.770   9.450
 6026POPC   PO423100  38.498   2.773   9.150
 6026POPC   GL123101  38.447   2.741   8.850
 6026POPC   GL223102  38.425   2.867   8.850
 6026POPC   C1A23103  38.497   2.789   8.550
 6026POPC   D2A23104  38.503   2.801   8.250
 6026POPC   C3A23105  38.408   2.747   7.950
 6026POPC   C4A23106  38.426   2.797   7.650
 6026POPC   C1B23107  38.411   2.970   8.550
 6026POPC   C2B23108  38.405   3.051   8.250
 6026POPC   C3B23109  38.424   3.036   7.950
 6026POPC   C4B23110  38.376   2.999   7.650
 6027POPC   NC323111  27.634  43.928   9.450
 6027POPC   PO423112  27.546  43.850   9.150
 6027POPC   GL123113  27.627  43.868   8.850
 6027POPC   GL223114  27.467  43.850   8.850
 6027POPC   C1A23115  27.608  43.853   8.550
 6027POPC   D2A23116  27.572  43.879   8.250
 6027POPC   C3A23117  27.599  43.920   7.950
 6027POPC   C4A23118  27.638  43.878   7.650
 6027POPC   C1B23119  27.411  43.750   8.550
 6027POPC   C2B23120  27.319  43.773   8.250
 6027POPC   C3B23121  27.374  43.793   7.950
 6027POPC   C4B23122  27.396  43.813   7.650
 6028POPC   NC323123  37.676  39.998   9.450
 6028POPC   PO423124  37.701  40.045   9.150
 6028POPC   GL123125  37.637  40.038   8.850
 6028POPC   GL223126  37.631  40.104   8.850
 6028POPC   C1A23127  37.681  40.048   8.550
 6028POPC   D2A23128  37.723  40.009   8.250
 6028POPC   C3A23129  37.705  39.968   7.950
 6028POPC   C4A23130  37.663  39.978   7.650
 6028POPC   C1B23131  37.553  40.213   8.550
 6028POPC   C2B23132  37.493  40.200   8.250
 6028POPC   C3B23133  37.503  40.194   7.950
 6028POPC   C4B23134  37.513  40.245   7.650
 6029POPC   NC323135   2.749  14.401   9.450
 6029POPC   PO423136   2.794  14.369   9.150
 6029POPC   GL123137   2.768  14.355   8.850
 6029POPC   GL223138   2.823  14.453   8.850
 6029POPC   C1A23139   2.799  14.363   8.550
 6029POPC   D2A23140   2.800  14.437   8.250
 6029POPC   C3A23141   2.757  14.405   7.950
 6029POPC   C4A23142   2.732  14.382   7.650
 6029POPC   C1B23143   2.995  14.509   8.550
 6029POPC   C2B23144   3.008  14.592   8.250
 6029POPC   C3B23145   2.934  14.602   7.950
 6029POPC   C4B23146   3.009  14.551   7.650
 6030POPC   NC323147  42.381   5.092   9.450
 6030POPC   PO423148  42.330   5.099   9.150
 6030POPC   GL123149  42.300   5.139   8.850
 6030POPC   GL223150  42.472   5.103   8.850
 6030POPC   C1A23151  42.302   5.137   8.550
 6030POPC   D2A23152  42.376   5.064   8.250
 6030POPC   C3A23153  42.332   5.079   7.950
 6030POPC   C4A23154  42.359   5.132   7.650
 6030POPC   C1B23155  42.597   5.245   8.550
 6030POPC   C2B23156  42.515   5.176   8.250
 6030POPC   C3B23157  42.511   5.244   7.950
 6030POPC   C4B23158  42.517   5.228   7.650
 6031POPC   NC323159  40.816  13.605   9.450
 6031POPC   PO423160  40.773  13.582   9.150
 6031POPC   GL123161  40.742  13.656   8.850
 6031POPC   GL223162  40.869  13.551   8.850
 6031POPC   C1A23163  40.766  13.605   8.550
 6031POPC   D2A23164  40.794  13.599   8.250
 6031POPC   C3A23165  40.814  13.655   7.950
 6031POPC   C4A23166  40.782  13.612   7.650
 6031POPC   C1B23167  40.972  13.459   8.550
 6031POPC   C2B23168  40.991  13.460   8.250
 6031POPC   C3B23169  41.041  13.545   7.950
 6031POPC   C4B23170  40.957  13.454   7.650
 6032POPC   NC323171  15.145  15.934   9.450
 6032POPC   PO423172  15.171  15.925   9.150
 6032POPC   GL123173  15.176  15.941   8.850
 6032POPC   GL223174  15.114  15.876   8.850
 6032POPC   C1A23175  15.143  15.918   8.550
 6032POPC   D2A23176  15.177  15.999   8.250
 6032POPC   C3A23177  15.178  15.923   7.950
 6032POPC   C4A23178  15.200  15.951   7.650
 6032POPC   C1B23179  15.038  15.694   8.550
 6032POPC   C2B23180  15.068  15.739   8.250
 6032POPC   C3B23181  15.062  15.681   7.950
 6032POPC   C4B23182  15.046  15.681   7.650
 6033POPC   NC323183   5.112   4.333   9.450
 6033POPC   PO423184   5.099   4.291   9.150
 6033POPC   GL123185   5.063   4.305   8.850
 6033POPC   GL223186   5.170   4.440   8.850
 6033POPC   C1A23187   5.047   4.285   8.550
 6033POPC   D2A23188   5.091   4.351   8.250
 6033POPC   C3A23189   5.083   4.310   7.950
 6033POPC   C4A23190   5.106   4.275   7.650
 6033POPC   C1B23191   5.275   4.548   8.550
 6033POPC   C2B23192   5.237   4.554   8.250
 6033POPC   C3B23193   5.273   4.508   7.950
 6033POPC   C4B23194   5.292   4.485   7.650
 6034POPC   NC323195  18.314  41.587   9.450
 6034POPC   PO423196  18.243  41.589   9.150
 6034POPC   GL123197  18.273  41.598   8.850
 6034POPC   GL223198  18.237  41.480   8.850
 6034POPC   C1A23199  18.247  41.543   8.550
 6034POPC   D2A23200  18.302  41.604   8.250
 6034POPC   C3A23201  18.244  41.546   7.950
 6034POPC   C4A23202  18.283  41.512   7.650
 6034POPC   C1B23203  18.266  41.286   8.550
 6034POPC   C2B23204  18.267  41.260   8.250
 6034POPC   C3B23205  18.223  41.307   7.950
 6034POPC   C4B23206  18.261  41.306   7.650
 6035POPC   NC323207  28.396   9.701   9.450
 6035POPC   PO423208  28.357   9.793   9.150
 6035POPC   GL123209  28.367   9.712   8.850
 6035POPC   GL223210  28.205   9.787   8.850
 6035POPC   C1A23211  28.331   9.788   8.550
 6035POPC   D2A23212  28.401   9.732   8.250
 6035POPC   C3A23213  28.387   9.768   7.950
 6035POPC   C4A23214  28.377   9.773   7.650
 6035POPC   C1B23215  28.091   9.835   8.550
 6035POPC   C2B23216  28.098   9.873   8.250
 6035POPC   C3B23217  28.187   9.822   7.950
 6035POPC   C4B23218  28.145   9.830   7.650
 6036POPC   NC323219  12.072  29.185   9.450
 6036POPC   PO423220  12.102  29.158   9.150
 6036POPC   GL123221  12.028  29.184   8.850
 6036POPC   GL223222  12.195  29.090   8.850
 6036POPC   C1A23223  12.085  29.140   8.550
 6036POPC   D2A23224  12.043  29.131   8.250
 6036POPC   C3A23225  12.086  29.127   7.950
 6036POPC   C4A23226  12.026  29.176   7.650
 6036POPC   C1B23227  12.288  29.079   8.550
 6036POPC   C2B23228  12.357  29.094   8.250
 6036POPC   C3B23229  12.364  29.084   7.950
 6036POPC   C4B23230  12.350  29.058   7.650
 6037POPC   NC323231  27.545  36.152   9.450
 6037POPC   PO423232  27.594  36.078   9.150
 6037POPC   GL123233  27.615  36.177   8.850
 6037POPC   GL223234  27.590  36.212   8.850
 6037POPC   C1A23235  27.580  36.135   8.550
 6037POPC   D2A23236  27.627  36.114   8.250
 6037POPC   C3A23237  27.548  36.158   7.950
 6037POPC   C4A23238  27.602  36.128   7.650
 6037POPC   C1B23239  27.547  36.383   8.550
 6037POPC   C2B23240  27.512  36.389   8.250
 6037POPC   C3B23241  27.491  36.317   7.950
 6037POPC   C4B23242  27.494  36.407   7.650
 6038POPC   NC323243   8.212  23.665   9.450
 6038POPC   PO423244   8.210  23.746   9.150
 6038POPC   GL123245   8.191  23.686   8.850
 6038POPC   GL223246   8.129  23.781   8.850
 6038POPC   C1A23247   8.188  23.666   8.550
 6038POPC   D2A23248   8.179  23.688   8.250
 6038POPC   C3A23249   8.227  23.702   7.950
 6038POPC   C4A23250   8.176  23.763   7.650
 6038POPC   C1B23251   7.999  23.794   8.550
 6038POPC   C2B23252   8.013  23.805   8.250
 6038POPC   C3B23253   7.941  23.802   7.950
 6038POPC   C4B23254   7.965  23.819   7.650
 6039POPC   NC323255  11.322  22.178   9.450
 6039POPC   PO423256  11.291  22.112   9.150
 6039POPC   GL123257  11.268  22.186   8.850
 6039POPC   GL223258  11.232  22.136   8.850
 6039POPC   C1A23259  11.299  22.175   8.550
 6039POPC   D2A23260  11.282  22.202   8.250
 6039POPC   C3A23261  11.282  22.136   7.950
 6039POPC   C4A23262  11.311  22.123   7.650
 6039POPC   C1B23263  11.061  22.025   8.550
 6039POPC   C2B23264  11.127  22.025   8.250
 6039POPC   C3B23265  11.039  22.033   7.950
 6039POPC   C4B23266  11.104  22.027   7.650
 6040POPC   NC323267  26.035   7.461   9.450
 6040POPC   PO423268  26.013   7.384   9.150
 6040POPC   GL123269  26.001   7.382   8.850
 6040POPC   GL223270  25.903   7.553   8.850
 6040POPC   C1A23271  26.003   7.426   8.550
 6040POPC   D2A23272  26.022   7.405   8.250
 6040POPC   C3A23273  26.000   7.449   7.950
 6040POPC   C4A23274  26.053   7.453   7.650
 6040POPC   C1B23275  25.856   7.627   8.550
 6040POPC   C2B23276  25.835   7.618   8.250
 6040POPC   C3B23277  25.863   7.542   7.950
 6040POPC   C4B23278  25.882   7.630   7.650
 6041POPC   NC323279  39.970   3.519   9.450
 6041POPC   PO423280  39.959   3.545   9.150
 6041POPC   GL123281  39.987   3.566   8.850
 6041POPC   GL223282  39.935   3.440   8.850
 6041POPC   C1A23283  40.027   3.570   8.550
 6041POPC   D2A23284  40.022   3.494   8.250
 6041POPC   C3A23285  39.968   3.537   7.950
 6041POPC   C4A23286  39.986   3.497   7.650
 6041POPC   C1B23287  39.925   3.333   8.550
 6041POPC   C2B23288  39.884   3.296   8.250
 6041POPC   C3B23289  39.947   3.342   7.950
 6041POPC   C4B23290  39.938   3.351   7.650
 6042POPC   NC323291  36.941  13.630   9.450
 6042POPC   PO423292  36.952  13.612   9.150
 6042POPC   GL123293  36.876  13.612   8.850
 6042POPC   GL223294  36.940  13.524   8.850
 6042POPC   C1A23295  36.949  13.669   8.550
 6042POPC   D2A23296  36.893  13.618   8.250
 6042POPC   C3A23297  36.925  13.633   7.950
 6042POPC   C4A23298  36.863  13.658   7.650
 6042POPC   C1B23299  36.997  13.375   8.550
 6042POPC   C2B23300  36.999  13.355   8.250
 6042POPC   C3B23301  36.926  13.353   7.950
 6042POPC   C4B23302  36.948  13.382   7.650
 6043POPC   NC323303  12.076  26.019   9.450
 6043POPC   PO423304  12.042  26.084   9.150
 6043POPC   GL123305  12.045  26.073   8.850
 6043POPC   GL223306  12.111  26.141   8.850
 6043POPC   C1A23307  12.111  26.058   8.550
 6043POPC   D2A23308  12.035  26.004   8.250
 6043POPC   C3A23309  12.114  26.080   7.950
 6043POPC   C4A23310  12.119  26.016   7.650
 6043POPC   C1B23311  12.071  26.295   8.550
 6043POPC   C2B23312  12.038  26.248   8.250
 6043POPC   C3B23313  12.040  26.311   7.950
 6043POPC   C4B23314  12.114  26.302   7.650
 6044POPC   NC323315  42.351  25.254   9.450
 6044POPC   PO423316  42.289  25.237   9.150
 6044POPC   GL123317  42.322  25.239   8.850
 6044POPC   GL223318  42.408  25.209   8.850
 6044POPC   C1A23319  42.344  25.237   8.550
 6044POPC   D2A23320  42.369  25.276   8.250
 6044POPC   C3A23321  42.344  25.290   7.950
 6044POPC   C4A23322  42.299  25.226   7.650
 6044POPC   C1B23323  42.508  25.091   8.550
 6044POPC   C2B23324  42.447  25.068   8.250
 6044POPC   C3B23325  42.512  25.072   7.950
 6044POPC   C4B23326  42.460  25.036   7.650
 6045POPC   NC323327  26.829  23.708   9.450
 6045POPC   PO423328  26.787  23.755   9.150
 6045POPC   GL123329  26.863  23.728   8.850
 6045POPC   GL223330  26.974  23.804   8.850
 6045POPC   C1A23331  26.812  23.699   8.550
 6045POPC   D2A23332  26.851  23.688   8.250
 6045POPC   C3A23333  26.856  23.755   7.950
 6045POPC   C4A23334  26.863  23.723   7.650
 6045POPC   C1B23335  27.089  23.837   8.550
 6045POPC   C2B23336  27.014  23.840   8.250
 6045POPC   C3B23337  27.087  23.842   7.950
 6045POPC   C4B23338  27.003  23.809   7.650
 6046POPC   NC323339  37.652  12.853   9.450
 6046POPC   PO423340  37.700  12.901   9.150
 6046POPC   GL123341  37.649  12.863   8.850
 6046POPC   GL223342  37.569  12.760   8.850
 6046POPC   C1A23343  37.669  12.890   8.550
 6046POPC   D2A23344  37.665  12.825   8.250
 6046POPC   C3A23345  37.703  12.824   7.950
 6046POPC   C4A23346  37.643  12.809   7.650
 6046POPC   C1B23347  37.458  12.687   8.550
 6046POPC   C2B23348  37.437  12.673   8.250
 6046POPC   C3B23349  37.513  12.769   7.950
 6046POPC   C4B23350  37.492  12.765   7.650
 6047POPC   NC323351  32.295  31.521   9.450
 6047POPC   PO423352  32.255  31.466   9.150
 6047POPC   GL123353  32.265  31.493   8.850
 6047POPC   GL223354  32.166  31.622   8.850
 6047POPC   C1A23355  32.256  31.445   8.550
 6047POPC   D2A23356  32.290  31.432   8.250
 6047POPC   C3A23357  32.215  31.478   7.950
 6047POPC   C4A23358  32.205  31.426   7.650
 6047POPC   C1B23359  32.149  31.728   8.550
 6047POPC   C2B23360  32.192  31.690   8.250
 6047POPC   C3B23361  32.151  31.696   7.950
 6047POPC   C4B23362  32.200  31.747   7.650
 6048POPC   NC323363   3.559  44.640   9.450
 6048POPC   PO423364   3.570  44.673   9.150
 6048POPC   GL123365   3.534  44.659   8.850
 6048POPC   GL223366   3.617  44.743   8.850
 6048POPC   C1A23367   3.503  44.639   8.550
 6048POPC   D2A23368   3.492  44.637   8.250
 6048POPC   C3A23369   3.517  44.642   7.950
 6048POPC   C4A23370   3.511  44.660   7.650
 6048POPC   C1B23371   3.756  44.813   8.550
 6048POPC   C2B23372   3.790  44.777   8.250
 6048POPC   C3B23373   3.783  44.829   7.950
 6048POPC   C4B23374   3.752  44.736   7.650
 6049POPC   NC323375  44.673  25.228   9.450
 6049POPC   PO423376  44.646  25.304   9.150
 6049POPC   GL123377  44.699  25.279   8.850
 6049POPC   GL223378  44.617  25.213   8.850
 6049POPC   C1A23379  44.640  25.302   8.550
 6049POPC   D2A23380  44.681  25.299   8.250
 6049POPC   C3A23381  44.659  25.260   7.950
 6049POPC   C4A23382  44.695  25.287   7.650
 6049POPC   C1B23383  44.512  25.087   8.550
 6049POPC   C2B23384  44.551  25.106   8.250
 6049POPC   C3B23385  44.519  25.116   7.950
 6049POPC   C4B23386  44.543  25.020   7.650
 6050POPC   NC323387  17.539  26.802   9.450
 6050POPC   PO423388  17.527  26.825   9.150
 6050POPC   GL123389  17.472  26.826   8.850
 6050POPC   GL223390  17.580  26.728   8.850
 6050POPC   C1A23391  17.483  26.855   8.550
 6050POPC   D2A23392  17.474  26.778   8.250
 6050POPC   C3A23393  17.513  26.818   7.950
 6050POPC   C4A23394  17.503  26.774   7.650
 6050POPC   C1B23395  17.695  26.710   8.550
 6050POPC   C2B23396  17.698  26.702   8.250
 6050POPC   C3B23397  17.683  26.633   7.950
 6050POPC   C4B23398  17.683  26.715   7.650
 6051POPC   NC323399  32.266  33.796   9.450
 6051POPC   PO423400  32.250  33.800   9.150
 6051POPC   GL123401  32.234  33.755   8.850
 6051POPC   GL223402  32.271  33.626   8.850
 6051POPC   C1A23403  32.258  33.763   8.550
 6051POPC   D2A23404  32.260  33.787   8.250
 6051POPC   C3A23405  32.298  33.775   7.950
 6051POPC   C4A23406  32.237  33.754   7.650
 6051POPC   C1B23407  32.301  33.565   8.550
 6051POPC   C2B23408  32.268  33.551   8.250
 6051POPC   C3B23409  32.208  33.573   7.950
 6051POPC   C4B23410  32.275  33.537   7.650
 6052POPC   NC323411   1.203   3.561   9.450
 6052POPC   PO423412   1.213   3.587   9.150
 6052POPC   GL123413   1.203   3.562   8.850
 6052POPC   GL223414   1.284   3.630   8.850
 6052POPC   C1A23415   1.231   3.546   8.550
 6052POPC   D2A23416   1.191   3.495   8.250
 6052POPC   C3A23417   1.185   3.508   7.950
 6052POPC   C4A23418   1.202   3.590   7.650
 6052POPC   C1B23419   1.319   3.789   8.550
 6052POPC   C2B23420   1.344   3.749   8.250
 6052POPC   C3B23421   1.347   3.759   7.950
 6052POPC   C4B23422   1.339   3.769   7.650
 6053POPC   NC323423   4.363  33.020   9.450
 6053POPC   PO423424   4.283  33.055   9.150
 6053POPC   GL123425   4.355  33.074   8.850
 6053POPC   GL223426   4.393  33.166   8.850
 6053POPC   C1A23427   4.317  33.008   8.550
 6053POPC   D2A23428   4.356  33.020   8.250
 6053POPC   C3A23429   4.269  33.014   7.950
 6053POPC   C4A23430   4.313  33.040   7.650
 6053POPC   C1B23431   4.443  33.195   8.550
 6053POPC   C2B23432   4.460  33.256   8.250
 6053POPC   C3B23433   4.463  33.234   7.950
 6053POPC   C4B23434   4.497  33.243   7.650
 6054POPC   NC323435  44.685  42.380   9.450
 6054POPC   PO423436  44.636  42.343   9.150
 6054POPC   GL123437  44.667  42.294   8.850
 6054POPC   GL223438  44.724  42.476   8.850
 6054POPC   C1A23439  44.688  42.337   8.550
 6054POPC   D2A23440  44.647  42.362   8.250
 6054POPC   C3A23441  44.698  42.305   7.950
 6054POPC   C4A23442  44.657  42.384   7.650
 6054POPC   C1B23443  44.740  42.612   8.550
 6054POPC   C2B23444  44.703  42.591   8.250
 6054POPC   C3B23445  44.678  42.622   7.950
 6054POPC   C4B23446  44.750  42.597   7.650
 6055POPC   NC323447  33.797   5.106   9.450
 6055POPC   PO423448  33.829   5.094   9.150
 6055POPC   GL123449  33.765   5.066   8.850
 6055POPC   GL223450  33.731   4.995   8.850
 6055POPC   C1A23451  33.847   5.114   8.550
 6055POPC   D2A23452  33.775   5.128   8.250
 6055POPC   C3A23453  33.808   5.109   7.950
 6055POPC   C4A23454  33.802   5.057   7.650
 6055POPC   C1B23455  33.791   4.844   8.550
 6055POPC   C2B23456  33.712   4.822   8.250
 6055POPC   C3B23457  33.768   4.871   7.950
 6055POPC   C4B23458  33.742   4.844   7.650
 6056POPC   NC323459  26.825  36.888   9.450
 6056POPC   PO423460  26.774  36.861   9.150
 6056POPC   GL123461  26.811  36.864   8.850
 6056POPC   GL223462  26.726  36.960   8.850
 6056POPC   C1A23463  26.778  36.913   8.550
 6056POPC   D2A23464  26.786  36.944   8.250
 6056POPC   C3A23465  26.775  36.879   7.950
 6056POPC   C4A23466  26.851  36.858   7.650
 6056POPC   C1B23467  26.530  36.924   8.550
 6056POPC   C2B23468  26.608  36.948   8.250
 6056POPC   C3B23469  26.539  36.935   7.950
 6056POPC   C4B23470  26.580  36.956   7.650
 6057POPC   NC323471  12.085  32.991   9.450
 6057POPC   PO423472  12.107  32.991   9.150
 6057POPC   GL123473  12.124  33.068   8.850
 6057POPC   GL223474  11.965  32.977   8.850
 6057POPC   C1A23475  12.059  33.041   8.550
 6057POPC   D2A23476  12.111  33.005   8.250
 6057POPC   C3A23477  12.044  33.056   7.950
 6057POPC   C4A23478  12.050  32.988   7.650
 6057POPC   C1B23479  11.862  32.871   8.550
 6057POPC   C2B23480  11.831  32.847   8.250
 6057POPC   C3B23481  11.848  32.915   7.950
 6057POPC   C4B23482  11.918  32.894   7.650
 6058POPC   NC323483  38.430  13.652   9.450
 6058POPC   PO423484  38.421  13.599   9.150
 6058POPC   GL123485  38.473  13.650   8.850
 6058POPC   GL223486  38.383  13.763   8.850
 6058POPC   C1A23487  38.422  13.622   8.550
 6058POPC   D2A23488  38.424  13.669   8.250
 6058POPC   C3A23489  38.457  13.586   7.950
 6058POPC   C4A23490  38.439  13.638   7.650
 6058POPC   C1B23491  38.343  13.793   8.550
 6058POPC   C2B23492  38.334  13.823   8.250
 6058POPC   C3B23493  38.324  13.804   7.950
 6058POPC   C4B23494  38.281  13.833   7.650
 6059POPC   NC323495   6.674   4.271   9.450
 6059POPC   PO423496   6.626   4.334   9.150
 6059POPC   GL123497   6.609   4.319   8.850
 6059POPC   GL223498   6.778   4.392   8.850
 6059POPC   C1A23499   6.599   4.330   8.550
 6059POPC   D2A23500   6.596   4.295   8.250
 6059POPC   C3A23501   6.605   4.338   7.950
 6059POPC   C4A23502   6.685   4.296   7.650
 6059POPC   C1B23503   6.843   4.369   8.550
 6059POPC   C2B23504   6.888   4.429   8.250
 6059POPC   C3B23505   6.857   4.402   7.950
 6059POPC   C4B23506   6.911   4.373   7.650
 6060POPC   NC323507  20.593   4.365   9.450
 6060POPC   PO423508  20.640   4.275   9.150
 6060POPC   GL123509  20.634   4.347   8.850
 6060POPC   GL223510  20.529   4.291   8.850
 6060POPC   C1A23511  20.623   4.352   8.550
 6060POPC   D2A23512  20.636   4.311   8.250
 6060POPC   C3A23513  20.564   4.312   7.950
 6060POPC   C4A23514  20.595   4.327   7.650
 6060POPC   C1B23515  20.352   4.277   8.550
 6060POPC   C2B23516  20.383   4.262   8.250
 6060POPC   C3B23517  20.419   4.211   7.950
 6060POPC   C4B23518  20.402   4.205   7.650
 6061POPC   NC323519   7.456   8.955   9.450
 6061POPC   PO423520   7.455   8.965   9.150
 6061POPC   GL123521   7.427   8.982   8.850
 6061POPC   GL223522   7.471   9.130   8.850
 6061POPC   C1A23523   7.396   8.991   8.550
 6061POPC   D2A23524   7.460   8.926   8.250
 6061POPC   C3A23525   7.444   8.992   7.950
 6061POPC   C4A23526   7.456   8.958   7.650
 6061POPC   C1B23527   7.544   9.180   8.550
 6061POPC   C2B23528   7.543   9.158   8.250
 6061POPC   C3B23529   7.502   9.217   7.950
 6061POPC   C4B23530   7.542   9.200   7.650
 6062POPC   NC323531  19.840  42.338   9.450
 6062POPC   PO423532  19.884  42.287   9.150
 6062POPC   GL123533  19.799  42.342   8.850
 6062POPC   GL223534  19.787  42.256   8.850
 6062POPC   C1A23535  19.820  42.331   8.550
 6062POPC   D2A23536  19.869  42.346   8.250
 6062POPC   C3A23537  19.843  42.367   7.950
 6062POPC   C4A23538  19.850  42.356   7.650
 6062POPC   C1B23539  19.709  42.150   8.550
 6062POPC   C2B23540  19.679  42.154   8.250
 6062POPC   C3B23541  19.672  42.093   7.950
 6062POPC   C4B23542  19.728  42.169   7.650
 6063POPC   NC323543   8.993  34.545   9.450
 6063POPC   PO423544   8.930  34.541   9.150
 6063POPC   GL123545   8.959  34.548   8.850
 6063POPC   GL223546   8.875  34.521   8.850
 6063POPC   C1A23547   8.974  34.580   8.550
 6063POPC   D2A23548   8.951  34.620   8.250
 6063POPC   C3A23549   8.974  34.533   7.950
 6063POPC   C4A23550   8.950  34.579   7.650
 6063POPC   C1B23551   8.871  34.380   8.550
 6063POPC   C2B23552   8.847  34.406   8.250
 6063POPC   C3B23553   8.851  34.412   7.950
 6063POPC   C4B23554   8.789  34.399   7.650
 6064POPC   NC323555  31.434  42.320   9.450
 6064POPC   PO423556  31.471  42.373   9.150
 6064POPC   GL123557  31.495  42.303   8.850
 6064POPC   GL223558  31.506  42.206   8.850
 6064POPC   C1A23559  31.441  42.288   8.550
 6064POPC   D2A23560  31.453  42.347   8.250
 6064POPC   C3A23561  31.478  42.296   7.950
 6064POPC   C4A23562  31.485  42.323   7.650
 6064POPC   C1B23563  31.529  42.125   8.550
 6064POPC   C2B23564  31.488  42.051   8.250
 6064POPC   C3B23565  31.544  42.081   7.950
 6064POPC   C4B23566  31.565  42.092   7.650
 6065POPC   NC323567  43.917   1.204   9.450
 6065POPC   PO423568  43.936   1.217   9.150
 6065POPC   GL123569  43.856   1.242   8.850
 6065POPC   GL223570  43.838   1.109   8.850
 6065POPC   C1A23571  43.908   1.195   8.550
 6065POPC   D2A23572  43.913   1.177   8.250
 6065POPC   C3A23573  43.927   1.185   7.950
 6065POPC   C4A23574  43.877   1.262   7.650
 6065POPC   C1B23575  43.848   0.983   8.550
 6065POPC   C2B23576  43.868   1.017   8.250
 6065POPC   C3B23577  43.796   0.927   7.950
 6065POPC   C4B23578  43.829   0.945   7.650
 6066POPC   NC323579   6.656  22.906   9.450
 6066POPC   PO423580   6.637  22.918   9.150
 6066POPC   GL123581   6.602  22.976   8.850
 6066POPC   GL223582   6.693  22.864   8.850
 6066POPC   C1A23583   6.623  22.914   8.550
 6066POPC   D2A23584   6.648  22.898   8.250
 6066POPC   C3A23585   6.689  22.953   7.950
 6066POPC   C4A23586   6.644  22.945   7.650
 6066POPC   C1B23587   6.833  22.763   8.550
 6066POPC   C2B23588   6.794  22.708   8.250
 6066POPC   C3B23589   6.842  22.720   7.950
 6066POPC   C4B23590   6.810  22.771   7.650
 6067POPC   NC323591  13.596  40.751   9.450
 6067POPC   PO423592  13.640  40.742   9.150
 6067POPC   GL123593  13.593  40.782   8.850
 6067POPC   GL223594  13.653  40.683   8.850
 6067POPC   C1A23595  13.605  40.736   8.550
 6067POPC   D2A23596  13.667  40.815   8.250
 6067POPC   C3A23597  13.616  40.822   7.950
 6067POPC   C4A23598  13.603  40.761   7.650
 6067POPC   C1B23599  13.792  40.564   8.550
 6067POPC   C2B23600  13.735  40.571   8.250
 6067POPC   C3B23601  13.743  40.597   7.950
 6067POPC   C4B23602  13.722  40.567   7.650
 6068POPC   NC323603  15.178   3.553   9.450
 6068POPC   PO423604  15.190   3.567   9.150
 6068POPC   GL123605  15.130   3.525   8.850
 6068POPC   GL223606  15.273   3.495   8.850
 6068POPC   C1A23607  15.219   3.560   8.550
 6068POPC   D2A23608  15.203   3.529   8.250
 6068POPC   C3A23609  15.218   3.577   7.950
 6068POPC   C4A23610  15.176   3.553   7.650
 6068POPC   C1B23611  15.414   3.441   8.550
 6068POPC   C2B23612  15.378   3.462   8.250
 6068POPC   C3B23613  15.415   3.439   7.950
 6068POPC   C4B23614  15.451   3.443   7.650
 6069POPC   NC323615  33.838  17.533   9.450
 6069POPC   PO423616  33.820  17.510   9.150
 6069POPC   GL123617  33.763  17.536   8.850
 6069POPC   GL223618  33.850  17.589   8.850
 6069POPC   C1A23619  33.785  17.485   8.550
 6069POPC   D2A23620  33.761  17.553   8.250
 6069POPC   C3A23621  33.789  17.536   7.950
 6069POPC   C4A23622  33.762  17.499   7.650
 6069POPC   C1B23623  33.807  17.789   8.550
 6069POPC   C2B23624  33.873  17.733   8.250
 6069POPC   C3B23625  33.861  17.766   7.950
 6069POPC   C4B23626  33.827  17.770   7.650
 6070POPC   NC323627   8.155   8.147   9.450
 6070POPC   PO423628   8.243   8.223   9.150
 6070POPC   GL123629   8.210   8.161   8.850
 6070POPC   GL223630   8.192   8.280   8.850
 6070POPC   C1A23631   8.152   8.151   8.550
 6070POPC   D2A23632   8.237   8.210   8.250
 6070POPC   C3A23633   8.198   8.206   7.950
 6070POPC   C4A23634   8.240   8.176   7.650
 6070POPC   C1B23635   8.137   8.478   8.550
 6070POPC   C2B23636   8.199   8.434   8.250
 6070POPC   C3B23637   8.180   8.479   7.950
 6070POPC   C4B23638   8.132   8.435   7.650
 6071POPC   NC323639  39.243   6.685   9.450
 6071POPC   PO423640  39.259   6.690   9.150
 6071POPC   GL123641  39.197   6.684   8.850
 6071POPC   GL223642  39.156   6.691   8.850
 6071POPC   C1A23643  39.277   6.596   8.550
 6071POPC   D2A23644  39.254   6.602   8.250
 6071POPC   C3A23645  39.189   6.603   7.950
 6071POPC   C4A23646  39.278   6.627   7.650
 6071POPC   C1B23647  39.010   6.766   8.550
 6071POPC   C2B23648  38.995   6.774   8.250
 6071POPC   C3B23649  38.975   6.710   7.950
 6071POPC   C4B23650  39.053   6.739   7.650
 6072POPC   NC323651  36.134  24.475   9.450
 6072POPC   PO423652  36.167  24.535   9.150
 6072POPC   GL123653  36.165  24.506   8.850
 6072POPC   GL223654  36.119  24.391   8.850
 6072POPC   C1A23655  36.172  24.442   8.550
 6072POPC   D2A23656  36.178  24.523   8.250
 6072POPC   C3A23657  36.107  24.517   7.950
 6072POPC   C4A23658  36.092  24.502   7.650
 6072POPC   C1B23659  36.062  24.284   8.550
 6072POPC   C2B23660  36.030  24.199   8.250
 6072POPC   C3B23661  36.033  24.241   7.950
 6072POPC   C4B23662  36.051  24.254   7.650
 6073POPC   NC323663  29.123  10.536   9.450
 6073POPC   PO423664  29.118  10.494   9.150
 6073POPC   GL123665  29.148  10.483   8.850
 6073POPC   GL223666  29.275  10.493   8.850
 6073POPC   C1A23667  29.123  10.570   8.550
 6073POPC   D2A23668  29.186  10.528   8.250
 6073POPC   C3A23669  29.130  10.490   7.950
 6073POPC   C4A23670  29.128  10.566   7.650
 6073POPC   C1B23671  29.441  10.572   8.550
 6073POPC   C2B23672  29.424  10.547   8.250
 6073POPC   C3B23673  29.369  10.570   7.950
 6073POPC   C4B23674  29.430  10.553   7.650
 6074POPC   NC323675   7.459  13.653   9.450
 6074POPC   PO423676   7.468  13.644   9.150
 6074POPC   GL123677   7.446  13.614   8.850
 6074POPC   GL223678   7.267  13.601   8.850
 6074POPC   C1A23679   7.377  13.640   8.550
 6074POPC   D2A23680   7.409  13.599   8.250
 6074POPC   C3A23681   7.467  13.671   7.950
 6074POPC   C4A23682   7.373  13.668   7.650
 6074POPC   C1B23683   7.167  13.476   8.550
 6074POPC   C2B23684   7.227  13.525   8.250
 6074POPC   C3B23685   7.197  13.518   7.950
 6074POPC   C4B23686   7.174  13.508   7.650
 6075POPC   NC323687  24.451  43.861   9.450
 6075POPC   PO423688  24.456  43.843   9.150
 6075POPC   GL123689  24.493  43.866   8.850
 6075POPC   GL223690  24.407  43.807   8.850
 6075POPC   C1A23691  24.532  43.876   8.550
 6075POPC   D2A23692  24.489  43.910   8.250
 6075POPC   C3A23693  24.511  43.869   7.950
 6075POPC   C4A23694  24.442  43.880   7.650
 6075POPC   C1B23695  24.235  43.776   8.550
 6075POPC   C2B23696  24.302  43.793   8.250
 6075POPC   C3B23697  24.246  43.722   7.950
 6075POPC   C4B23698  24.285  43.800   7.650
 6076POPC   NC323699  41.597  22.936   9.450
 6076POPC   PO423700  41.592  22.967   9.150
 6076POPC   GL123701  41.582  22.888   8.850
 6076POPC   GL223702  41.674  22.824   8.850
 6076POPC   C1A23703  41.576  22.907   8.550
 6076POPC   D2A23704  41.527  22.950   8.250
 6076POPC   C3A23705  41.596  22.969   7.950
 6076POPC   C4A23706  41.558  22.936   7.650
 6076POPC   C1B23707  41.790  22.772   8.550
 6076POPC   C2B23708  41.803  22.784   8.250
 6076POPC   C3B23709  41.773  22.797   7.950
 6076POPC   C4B23710  41.809  22.801   7.650
 6077POPC   NC323711  43.915  32.212   9.450
 6077POPC   PO423712  43.845  32.278   9.150
 6077POPC   GL123713  43.896  32.298   8.850
 6077POPC   GL223714  43.736  32.223   8.850
 6077POPC   C1A23715  43.872  32.267   8.550
 6077POPC   D2A23716  43.852  32.221   8.250
 6077POPC   C3A23717  43.914  32.250   7.950
 6077POPC   C4A23718  43.845  32.243   7.650
 6077POPC   C1B23719  43.612  32.127   8.550
 6077POPC   C2B23720  43.694  32.199   8.250
 6077POPC   C3B23721  43.633  32.208   7.950
 6077POPC   C4B23722  43.698  32.146   7.650
 6078POPC   NC323723  16.750  14.377   9.450
 6078POPC   PO423724  16.747  14.373   9.150
 6078POPC   GL123725  16.730  14.375   8.850
 6078POPC   GL223726  16.697  14.547   8.850
 6078POPC   C1A23727  16.766  14.443   8.550
 6078POPC   D2A23728  16.756  14.380   8.250
 6078POPC   C3A23729  16.766  14.442   7.950
 6078POPC   C4A23730  16.769  14.367   7.650
 6078POPC   C1B23731  16.651  14.668   8.550
 6078POPC   C2B23732  16.638  14.643   8.250
 6078POPC   C3B23733  16.628  14.681   7.950
 6078POPC   C4B23734  16.628  14.600   7.650
 6079POPC   NC323735  12.829   9.709   9.450
 6079POPC   PO423736  12.835   9.728   9.150
 6079POPC   GL123737  12.822   9.738   8.850
 6079POPC   GL223738  12.719   9.720   8.850
 6079POPC   C1A23739  12.854   9.777   8.550
 6079POPC   D2A23740  12.898   9.781   8.250
 6079POPC   C3A23741  12.820   9.726   7.950
 6079POPC   C4A23742  12.843   9.759   7.650
 6079POPC   C1B23743  12.645   9.688   8.550
 6079POPC   C2B23744  12.598   9.732   8.250
 6079POPC   C3B23745  12.651   9.679   7.950
 6079POPC   C4B23746  12.597   9.657   7.650
 6080POPC   NC323747   0.455   5.072   9.450
 6080POPC   PO423748   0.431   5.064   9.150
 6080POPC   GL123749   0.456   5.108   8.850
 6080POPC   GL223750   0.431   4.958   8.850
 6080POPC   C1A23751   0.392   5.136   8.550
 6080POPC   D2A23752   0.427   5.051   8.250
 6080POPC   C3A23753   0.459   5.066   7.950
 6080POPC   C4A23754   0.445   5.126   7.650
 6080POPC   C1B23755   0.286   4.861   8.550
 6080POPC   C2B23756   0.340   4.902   8.250
 6080POPC   C3B23757   0.372   4.903   7.950
 6080POPC   C4B23758   0.286   4.885   7.650
 6081POPC   NC323759   9.003  24.533   9.450
 6081POPC   PO423760   9.006  24.526   9.150
 6081POPC   GL123761   8.949  24.526   8.850
 6081POPC   GL223762   8.851  24.344   8.850
 6081POPC   C1A23763   8.984  24.507   8.550
 6081POPC   D2A23764   8.970  24.526   8.250
 6081POPC   C3A23765   8.960  24.469   7.950
 6081POPC   C4A23766   8.988  24.457   7.650
 6081POPC   C1B23767   8.834  24.265   8.550
 6081POPC   C2B23768   8.782  24.280   8.250
 6081POPC   C3B23769   8.807  24.269   7.950
 6081POPC   C4B23770   8.776  24.261   7.650
 6082POPC   NC323771  23.725  33.056   9.450
 6082POPC   PO423772  23.669  33.012   9.150
 6082POPC   GL123773  23.696  33.032   8.850
 6082POPC   GL223774  23.809  33.100   8.850
 6082POPC   C1A23775  23.674  33.039   8.550
 6082POPC   D2A23776  23.760  33.021   8.250
 6082POPC   C3A23777  23.736  33.047   7.950
 6082POPC   C4A23778  23.692  33.049   7.650
 6082POPC   C1B23779  23.928  33.236   8.550
 6082POPC   C2B23780  23.883  33.229   8.250
 6082POPC   C3B23781  23.858  33.194   7.950
 6082POPC   C4B23782  23.898  33.252   7.650
 6083POPC   NC323783   1.985  26.014   9.450
 6083POPC   PO423784   1.985  26.040   9.150
 6083POPC   GL123785   2.011  26.068   8.850
 6083POPC   GL223786   2.063  26.172   8.850
 6083POPC   C1A23787   2.020  26.020   8.550
 6083POPC   D2A23788   1.980  26.000   8.250
 6083POPC   C3A23789   1.940  26.033   7.950
 6083POPC   C4A23790   2.023  26.026   7.650
 6083POPC   C1B23791   2.138  26.239   8.550
 6083POPC   C2B23792   2.153  26.281   8.250
 6083POPC   C3B23793   2.106  26.242   7.950
 6083POPC   C4B23794   2.102  26.233   7.650
 6084POPC   NC323795  16.760  43.150   9.450
 6084POPC   PO423796  16.744  43.107   9.150
 6084POPC   GL123797  16.769  43.152   8.850
 6084POPC   GL223798  16.786  43.243   8.850
 6084POPC   C1A23799  16.768  43.117   8.550
 6084POPC   D2A23800  16.707  43.142   8.250
 6084POPC   C3A23801  16.761  43.079   7.950
 6084POPC   C4A23802  16.739  43.093   7.650
 6084POPC   C1B23803  16.783  43.344   8.550
 6084POPC   C2B23804  16.804  43.322   8.250
 6084POPC   C3B23805  16.743  43.383   7.950
 6084POPC   C4B23806  16.776  43.322   7.650
 6085POPC   NC323807  31.465  43.929   9.450
 6085POPC   PO423808  31.499  43.900   9.150
 6085POPC   GL123809  31.499  43.869   8.850
 6085POPC   GL223810  31.546  43.756   8.850
 6085POPC   C1A23811  31.517  43.922   8.550
 6085POPC   D2A23812  31.427  43.907   8.250
 6085POPC   C3A23813  31.450  43.936   7.950
 6085POPC   C4A23814  31.476  43.903   7.650
 6085POPC   C1B23815  31.569  43.657   8.550
 6085POPC   C2B23816  31.570  43.664   8.250
 6085POPC   C3B23817  31.632  43.633   7.950
 6085POPC   C4B23818  31.566  43.673   7.650
 6086POPC   NC323819   3.498   9.014   9.450
 6086POPC   PO423820   3.542   9.001   9.150
 6086POPC   GL123821   3.552   9.005   8.850
 6086POPC   GL223822   3.560   9.093   8.850
 6086POPC   C1A23823   3.518   8.950   8.550
 6086POPC   D2A23824   3.525   8.926   8.250
 6086POPC   C3A23825   3.492   8.933   7.950
 6086POPC   C4A23826   3.500   9.022   7.650
 6086POPC   C1B23827   3.676   9.245   8.550
 6086POPC   C2B23828   3.686   9.202   8.250
 6086POPC   C3B23829   3.622   9.183   7.950
 6086POPC   C4B23830   3.687   9.238   7.650
 6087POPC   NC323831  21.377  29.168   9.450
 6087POPC   PO423832  21.367  29.122   9.150
 6087POPC   GL123833  21.358  29.096   8.850
 6087POPC   GL223834  21.279  29.233   8.850
 6087POPC   C1A23835  21.428  29.140   8.550
 6087POPC   D2A23836  21.416  29.137   8.250
 6087POPC   C3A23837  21.393  29.135   7.950
 6087POPC   C4A23838  21.429  29.136   7.650
 6087POPC   C1B23839  21.224  29.314   8.550
 6087POPC   C2B23840  21.199  29.291   8.250
 6087POPC   C3B23841  21.217  29.373   7.950
 6087POPC   C4B23842  21.182  29.284   7.650
 6088POPC   NC323843  36.867  40.806   9.450
 6088POPC   PO423844  36.862  40.736   9.150
 6088POPC   GL123845  36.923  40.771   8.850
 6088POPC   GL223846  36.951  40.899   8.850
 6088POPC   C1A23847  36.937  40.769   8.550
 6088POPC   D2A23848  36.953  40.745   8.250
 6088POPC   C3A23849  36.877  40.745   7.950
 6088POPC   C4A23850  36.931  40.780   7.650
 6088POPC   C1B23851  36.915  41.065   8.550
 6088POPC   C2B23852  36.977  41.064   8.250
 6088POPC   C3B23853  36.921  41.031   7.950
 6088POPC   C4B23854  36.946  40.993   7.650
 6089POPC   NC323855  13.643  42.318   9.450
 6089POPC   PO423856  13.619  42.317   9.150
 6089POPC   GL123857  13.673  42.295   8.850
 6089POPC   GL223858  13.714  42.283   8.850
 6089POPC   C1A23859  13.617  42.374   8.550
 6089POPC   D2A23860  13.674  42.303   8.250
 6089POPC   C3A23861  13.616  42.371   7.950
 6089POPC   C4A23862  13.620  42.332   7.650
 6089POPC   C1B23863  13.876  42.166   8.550
 6089POPC   C2B23864  13.846  42.141   8.250
 6089POPC   C3B23865  13.824  42.157   7.950
 6089POPC   C4B23866  13.865  42.218   7.650
 6090POPC   NC323867  12.084  39.986   9.450
 6090POPC   PO423868  12.120  39.970   9.150
 6090POPC   GL123869  12.082  39.975   8.850
 6090POPC   GL223870  12.161  39.919   8.850
 6090POPC   C1A23871  12.083  40.018   8.550
 6090POPC   D2A23872  12.089  40.017   8.250
 6090POPC   C3A23873  12.105  40.002   7.950
 6090POPC   C4A23874  12.057  39.976   7.650
 6090POPC   C1B23875  12.257  39.847   8.550
 6090POPC   C2B23876  12.229  39.809   8.250
 6090POPC   C3B23877  12.260  39.850   7.950
 6090POPC   C4B23878  12.211  39.866   7.650
 6091POPC   NC323879   4.294  36.857   9.450
 6091POPC   PO423880   4.268  36.880   9.150
 6091POPC   GL123881   4.363  36.890   8.850
 6091POPC   GL223882   4.352  36.827   8.850
 6091POPC   C1A23883   4.354  36.886   8.550
 6091POPC   D2A23884   4.287  36.883   8.250
 6091POPC   C3A23885   4.360  36.878   7.950
 6091POPC   C4A23886   4.346  36.911   7.650
 6091POPC   C1B23887   4.400  36.714   8.550
 6091POPC   C2B23888   4.442  36.702   8.250
 6091POPC   C3B23889   4.403  36.717   7.950
 6091POPC   C4B23890   4.416  36.634   7.650
 6092POPC   NC323891  24.475   9.707   9.450
 6092POPC   PO423892  24.444   9.765   9.150
 6092POPC   GL123893  24.440   9.780   8.850
 6092POPC   GL223894  24.452   9.887   8.850
 6092POPC   C1A23895  24.518   9.702   8.550
 6092POPC   D2A23896  24.519   9.741   8.250
 6092POPC   C3A23897  24.509   9.772   7.950
 6092POPC   C4A23898  24.478   9.725   7.650
 6092POPC   C1B23899  24.395   9.983   8.550
 6092POPC   C2B23900  24.388   9.993   8.250
 6092POPC   C3B23901  24.388   9.971   7.950
 6092POPC   C4B23902  24.348   9.953   7.650
 6093POPC   NC323903  24.440  31.471   9.450
 6093POPC   PO423904  24.511  31.451   9.150
 6093POPC   GL123905  24.455  31.430   8.850
 6093POPC   GL223906  24.518  31.633   8.850
 6093POPC   C1A23907  24.453  31.506   8.550
 6093POPC   D2A23908  24.466  31.480   8.250
 6093POPC   C3A23909  24.519  31.498   7.950
 6093POPC   C4A23910  24.484  31.511   7.650
 6093POPC   C1B23911  24.561  31.724   8.550
 6093POPC   C2B23912  24.638  31.707   8.250
 6093POPC   C3B23913  24.636  31.686   7.950
 6093POPC   C4B23914  24.585  31.727   7.650
 6094POPC   NC323915  44.699  43.846   9.450
 6094POPC   PO423916  44.673  43.839   9.150
 6094POPC   GL123917  44.669  43.897   8.850
 6094POPC   GL223918  44.515  43.966   8.850
 6094POPC   C1A23919  44.695  43.878   8.550
 6094POPC   D2A23920  44.671  43.867   8.250
 6094POPC   C3A23921  44.664  43.920   7.950
 6094POPC   C4A23922  44.653  43.897   7.650
 6094POPC   C1B23923  44.463  44.050   8.550
 6094POPC   C2B23924  44.429  44.066   8.250
 6094POPC   C3B23925  44.498  43.987   7.950
 6094POPC   C4B23926  44.492  44.050   7.650
 6095POPC   NC323927   9.733  36.156   9.450
 6095POPC   PO423928   9.770  36.112   9.150
 6095POPC   GL123929   9.788  36.082   8.850
 6095POPC   GL223930   9.799  36.035   8.850
 6095POPC   C1A23931   9.771  36.083   8.550
 6095POPC   D2A23932   9.794  36.107   8.250
 6095POPC   C3A23933   9.711  36.174   7.950
 6095POPC   C4A23934   9.743  36.118   7.650
 6095POPC   C1B23935   9.767  35.864   8.550
 6095POPC   C2B23936   9.737  35.853   8.250
 6095POPC   C3B23937   9.747  35.896   7.950
 6095POPC   C4B23938   9.738  35.913   7.650
 6096POPC   NC323939  10.484   8.149   9.450
 6096POPC   PO423940  10.524   8.170   9.150
 6096POPC   GL123941  10.564   8.241   8.850
 6096POPC   GL223942  10.686   8.233   8.850
 6096POPC   C1A23943  10.561   8.193   8.550
 6096POPC   D2A23944  10.483   8.179   8.250
 6096POPC   C3A23945  10.548   8.231   7.950
 6096POPC   C4A23946  10.556   8.205   7.650
 6096POPC   C1B23947  10.808   8.298   8.550
 6096POPC   C2B23948  10.768   8.286   8.250
 6096POPC   C3B23949  10.757   8.256   7.950
 6096POPC   C4B23950  10.750   8.288   7.650
 6097POPC   NC323951   2.802   0.394   9.450
 6097POPC   PO423952   2.718   0.403   9.150
 6097POPC   GL123953   2.796   0.429   8.850
 6097POPC   GL223954   2.773   0.302   8.850
 6097POPC   C1A23955   2.797   0.481   8.550
 6097POPC   D2A23956   2.762   0.406   8.250
 6097POPC   C3A23957   2.749   0.433   7.950
 6097POPC   C4A23958   2.784   0.413   7.650
 6097POPC   C1B23959   2.800   0.228   8.550
 6097POPC   C2B23960   2.882   0.185   8.250
 6097POPC   C3B23961   2.830   0.181   7.950
 6097POPC   C4B23962   2.812   0.238   7.650
 6098POPC   NC323963  41.510  35.376   9.450
 6098POPC   PO423964  41.599  35.308   9.150
 6098POPC   GL123965  41.606  35.331   8.850
 6098POPC   GL223966  41.503  35.426   8.850
 6098POPC   C1A23967  41.552  35.367   8.550
 6098POPC   D2A23968  41.602  35.329   8.250
 6098POPC   C3A23969  41.576  35.318   7.950
 6098POPC   C4A23970  41.586  35.303   7.650
 6098POPC   C1B23971  41.496  35.645   8.550
 6098POPC   C2B23972  41.480  35.562   8.250
 6098POPC   C3B23973  41.480  35.594   7.950
 6098POPC   C4B23974  41.506  35.564   7.650
 6099POPC   NC323975  34.592  33.059   9.450
 6099POPC   PO423976  34.559  33.059   9.150
 6099POPC   GL123977  34.536  33.059   8.850
 6099POPC   GL223978  34.666  33.086   8.850
 6099POPC   C1A23979  34.620  33.068   8.550
 6099POPC   D2A23980  34.579  33.017   8.250
 6099POPC   C3A23981  34.618  33.011   7.950
 6099POPC   C4A23982  34.598  33.048   7.650
 6099POPC   C1B23983  34.749  33.103   8.550
 6099POPC   C2B23984  34.789  33.098   8.250
 6099POPC   C3B23985  34.789  33.097   7.950
 6099POPC   C4B23986  34.753  33.127   7.650
 6100POPC   NC323987  15.148  24.524   9.450
 6100POPC   PO423988  15.209  24.454   9.150
 6100POPC   GL123989  15.159  24.472   8.850
 6100POPC   GL223990  15.317  24.425   8.850
 6100POPC   C1A23991  15.222  24.448   8.550
 6100POPC   D2A23992  15.205  24.531   8.250
 6100POPC   C3A23993  15.190  24.472   7.950
 6100POPC   C4A23994  15.138  24.458   7.650
 6100POPC   C1B23995  15.389  24.380   8.550
 6100POPC   C2B23996  15.440  24.388   8.250
 6100POPC   C3B23997  15.421  24.330   7.950
 6100POPC   C4B23998  15.402  24.380   7.650
 6101POPC   NC323999  23.720  34.602   9.450
 6101POPC   PO424000  23.669  34.606   9.150
 6101POPC   GL124001  23.713  34.558   8.850
 6101POPC   GL224002  23.788  34.522   8.850
 6101POPC   C1A24003  23.681  34.582   8.550
 6101POPC   D2A24004  23.761  34.597   8.250
 6101POPC   C3A24005  23.674  34.616   7.950
 6101POPC   C4A24006  23.733  34.557   7.650
 6101POPC   C1B24007  23.971  34.503   8.550
 6101POPC   C2B24008  23.978  34.521   8.250
 6101POPC   C3B24009  23.909  34.460   7.950
 6101POPC   C4B24010  23.933  34.433   7.650
 6102POPC   NC324011   9.788  37.684   9.450
 6102POPC   PO424012   9.719  37.701   9.150
 6102POPC   GL124013   9.729  37.646   8.850
 6102POPC   GL224014   9.679  37.731   8.850
 6102POPC   C1A24015   9.750  37.692   8.550
 6102POPC   D2A24016   9.737  37.666   8.250
 6102POPC   C3A24017   9.766  37.716   7.950
 6102POPC   C4A24018   9.746  37.663   7.650
 6102POPC   C1B24019   9.589  37.800   8.550
 6102POPC   C2B24020   9.516  37.882   8.250
 6102POPC   C3B24021   9.573  37.870   7.950
 6102POPC   C4B24022   9.526  37.870   7.650
 6103POPC   NC324023   3.521  41.585   9.450
 6103POPC   PO424024   3.513  41.602   9.150
 6103POPC   GL124025   3.510  41.567   8.850
 6103POPC   GL224026   3.551  41.454   8.850
 6103POPC   C1A24027   3.543  41.540   8.550
 6103POPC   D2A24028   3.563  41.547   8.250
 6103POPC   C3A24029   3.522  41.512   7.950
 6103POPC   C4A24030   3.590  41.604   7.650
 6103POPC   C1B24031   3.610  41.364   8.550
 6103POPC   C2B24032   3.565  41.274   8.250
 6103POPC   C3B24033   3.639  41.344   7.950
 6103POPC   C4B24034   3.644  41.297   7.650
 6104POPC   NC324035  44.687  39.958   9.450
 6104POPC   PO424036  44.675  39.992   9.150
 6104POPC   GL124037  44.695  39.973   8.850
 6104POPC   GL224038  44.576  39.992   8.850
 6104POPC   C1A24039  44.628  40.020   8.550
 6104POPC   D2A24040  44.675  40.021   8.250
 6104POPC   C3A24041  44.666  40.028   7.950
 6104POPC   C4A24042  44.613  40.044   7.650
 6104POPC   C1B24043  44.408  40.089   8.550
 6104POPC   C2B24044  44.424  40.107   8.250
 6104POPC   C3B24045  44.465  40.061   7.950
 6104POPC   C4B24046  44.418  40.100   7.650
 6105POPC   NC324047  37.681  14.419   9.450
 6105POPC   PO424048  37.682  14.401   9.150
 6105POPC   GL124049  37.633  14.451   8.850
 6105POPC   GL224050  37.765  14.474   8.850
 6105POPC   C1A24051  37.665  14.420   8.550
 6105POPC   D2A24052  37.660  14.422   8.250
 6105POPC   C3A24053  37.635  14.430   7.950
 6105POPC   C4A24054  37.648  14.437   7.650
 6105POPC   C1B24055  37.944  14.414   8.550
 6105POPC   C2B24056  37.947  14.407   8.250
 6105POPC   C3B24057  37.923  14.438   7.950
 6105POPC   C4B24058  37.878  14.454   7.650
 6106POPC   NC324059  36.079  41.533   9.450
 6106POPC   PO424060  36.102  41.557   9.150
 6106POPC   GL124061  36.163  41.581   8.850
 6106POPC   GL224062  36.062  41.697   8.850
 6106POPC   C1A24063  36.127  41.538   8.550
 6106POPC   D2A24064  36.092  41.552   8.250
 6106POPC   C3A24065  36.169  41.515   7.950
 6106POPC   C4A24066  36.135  41.542   7.650
 6106POPC   C1B24067  36.008  41.742   8.550
 6106POPC   C2B24068  36.002  41.736   8.250
 6106POPC   C3B24069  35.967  41.811   7.950
 6106POPC   C4B24070  36.020  41.764   7.650
 6107POPC   NC324071   1.247  13.676   9.450
 6107POPC   PO424072   1.203  13.598   9.150
 6107POPC   GL124073   1.203  13.661   8.850
 6107POPC   GL224074   1.187  13.502   8.850
 6107POPC   C1A24075   1.188  13.598   8.550
 6107POPC   D2A24076   1.182  13.598   8.250
 6107POPC   C3A24077   1.228  13.614   7.950
 6107POPC   C4A24078   1.204  13.671   7.650
 6107POPC   C1B24079   1.111  13.363   8.550
 6107POPC   C2B24080   1.074  13.375   8.250
 6107POPC   C3B24081   1.085  13.392   7.950
 6107POPC   C4B24082   1.142  13.434   7.650
 6108POPC   NC324083  40.004   1.246   9.450
 6108POPC   PO424084  40.050   1.239   9.150
 6108POPC   GL124085  40.030   1.220   8.850
 6108POPC   GL224086  40.038   1.284   8.850
 6108POPC   C1A24087  40.055   1.197   8.550
 6108POPC   D2A24088  40.005   1.241   8.250
 6108POPC   C3A24089  40.024   1.216   7.950
 6108POPC   C4A24090  40.045   1.227   7.650
 6108POPC   C1B24091  40.135   1.494   8.550
 6108POPC   C2B24092  40.096   1.483   8.250
 6108POPC   C3B24093  40.137   1.444   7.950
 6108POPC   C4B24094  40.053   1.418   7.650
 6109POPC   NC324095  25.230  36.162   9.450
 6109POPC   PO424096  25.287  36.127   9.150
 6109POPC   GL124097  25.306  36.126   8.850
 6109POPC   GL224098  25.176  36.008   8.850
 6109POPC   C1A24099  25.268  36.175   8.550
 6109POPC   D2A24100  25.229  36.121   8.250
 6109POPC   C3A24101  25.239  36.128   7.950
 6109POPC   C4A24102  25.240  36.132   7.650
 6109POPC   C1B24103  25.056  35.944   8.550
 6109POPC   C2B24104  25.101  35.962   8.250
 6109POPC   C3B24105  25.131  35.990   7.950
 6109POPC   C4B24106  25.056  35.951   7.650
 6110POPC   NC324107   5.839   0.448   9.450
 6110POPC   PO424108   5.903   0.409   9.150
 6110POPC   GL124109   5.913   0.428   8.850
 6110POPC   GL224110   5.786   0.415   8.850
 6110POPC   C1A24111   5.869   0.447   8.550
 6110POPC   D2A24112   5.879   0.423   8.250
 6110POPC   C3A24113   5.826   0.481   7.950
 6110POPC   C4A24114   5.842   0.409   7.650
 6110POPC   C1B24115   5.696   0.329   8.550
 6110POPC   C2B24116   5.695   0.292   8.250
 6110POPC   C3B24117   5.638   0.319   7.950
 6110POPC   C4B24118   5.680   0.356   7.650
 6111POPC   NC324119  26.018  17.515   9.450
 6111POPC   PO424120  26.046  17.530   9.150
 6111POPC   GL124121  26.066  17.531   8.850
 6111POPC   GL224122  26.150  17.567   8.850
 6111POPC   C1A24123  26.034  17.518   8.550
 6111POPC   D2A24124  26.051  17.504   8.250
 6111POPC   C3A24125  26.026  17.522   7.950
 6111POPC   C4A24126  26.062  17.463   7.650
 6111POPC   C1B24127  26.304  17.574   8.550
 6111POPC   C2B24128  26.223  17.606   8.250
 6111POPC   C3B24129  26.312  17.648   7.950
 6111POPC   C4B24130  26.275  17.601   7.650
 6112POPC   NC324131  33.805  36.921   9.450
 6112POPC   PO424132  33.752  36.878   9.150
 6112POPC   GL124133  33.792  36.920   8.850
 6112POPC   GL224134  33.770  36.999   8.850
 6112POPC   C1A24135  33.784  36.900   8.550
 6112POPC   D2A24136  33.759  36.865   8.250
 6112POPC   C3A24137  33.839  36.868   7.950
 6112POPC   C4A24138  33.829  36.868   7.650
 6112POPC   C1B24139  33.630  37.129   8.550
 6112POPC   C2B24140  33.661  37.072   8.250
 6112POPC   C3B24141  33.689  37.134   7.950
 6112POPC   C4B24142  33.698  37.150   7.650
 6113POPC   NC324143   5.069  23.688   9.450
 6113POPC   PO424144   5.093  23.740   9.150
 6113POPC   GL124145   5.053  23.722   8.850
 6113POPC   GL224146   5.048  23.657   8.850
 6113POPC   C1A24147   5.116  23.745   8.550
 6113POPC   D2A24148   5.103  23.716   8.250
 6113POPC   C3A24149   5.098  23.761   7.950
 6113POPC   C4A24150   5.072  23.670   7.650
 6113POPC   C1B24151   4.939  23.472   8.550
 6113POPC   C2B24152   4.943  23.528   8.250
 6113POPC   C3B24153   4.991  23.507   7.950
 6113POPC   C4B24154   4.961  23.512   7.650
 6114POPC   NC324155  34.618  19.103   9.450
 6114POPC   PO424156  34.532  19.067   9.150
 6114POPC   GL124157  34.594  19.073   8.850
 6114POPC   GL224158  34.750  19.058   8.850
 6114POPC   C1A24159  34.534  19.035   8.550
 6114POPC   D2A24160  34.621  19.076   8.250
 6114POPC   C3A24161  34.601  19.038   7.950
 6114POPC   C4A24162  34.539  19.011   7.650
 6114POPC   C1B24163  34.871  19.088   8.550
 6114POPC   C2B24164  34.798  19.011   8.250
 6114POPC   C3B24165  34.817  19.044   7.950
 6114POPC   C4B24166  34.795  19.066   7.650
 6115POPC   NC324167   1.242   9.723   9.450
 6115POPC   PO424168   1.246   9.788   9.150
 6115POPC   GL124169   1.214   9.796   8.850
 6115POPC   GL224170   1.219   9.831   8.850
 6115POPC   C1A24171   1.247   9.720   8.550
 6115POPC   D2A24172   1.165   9.782   8.250
 6115POPC   C3A24173   1.196   9.784   7.950
 6115POPC   C4A24174   1.238   9.792   7.650
 6115POPC   C1B24175   1.170   9.988   8.550
 6115POPC   C2B24176   1.217   9.971   8.250
 6115POPC   C3B24177   1.247   9.994   7.950
 6115POPC   C4B24178   1.227  10.045   7.650
 6116POPC   NC324179  28.371  10.489   9.450
 6116POPC   PO424180  28.371  10.558   9.150
 6116POPC   GL124181  28.369  10.476   8.850
 6116POPC   GL224182  28.443  10.635   8.850
 6116POPC   C1A24183  28.355  10.529   8.550
 6116POPC   D2A24184  28.365  10.544   8.250
 6116POPC   C3A24185  28.412  10.487   7.950
 6116POPC   C4A24186  28.321  10.561   7.650
 6116POPC   C1B24187  28.553  10.746   8.550
 6116POPC   C2B24188  28.574  10.686   8.250
 6116POPC   C3B24189  28.539  10.729   7.950
 6116POPC   C4B24190  28.501  10.694   7.650
 6117POPC   NC324191  33.025   4.316   9.450
 6117POPC   PO424192  33.065   4.277   9.150
 6117POPC   GL124193  33.013   4.336   8.850
 6117POPC   GL224194  33.190   4.346   8.850
 6117POPC   C1A24195  32.989   4.288   8.550
 6117POPC   D2A24196  32.978   4.273   8.250
 6117POPC   C3A24197  33.045   4.284   7.950
 6117POPC   C4A24198  32.999   4.347   7.650
 6117POPC   C1B24199  33.285   4.324   8.550
 6117POPC   C2B24200  33.223   4.358   8.250
 6117POPC   C3B24201  33.281   4.387   7.950
 6117POPC   C4B24202  33.276   4.381   7.650
 6118POPC   NC324203  18.254  42.299   9.450
 6118POPC   PO424204  18.316  42.304   9.150
 6118POPC   GL124205  18.242  42.335   8.850
 6118POPC   GL224206  18.299  42.189   8.850
 6118POPC   C1A24207  18.249  42.367   8.550
 6118POPC   D2A24208  18.262  42.317   8.250
 6118POPC   C3A24209  18.325  42.343   7.950
 6118POPC   C4A24210  18.311  42.355   7.650
 6118POPC   C1B24211  18.222  42.122   8.550
 6118POPC   C2B24212  18.229  42.098   8.250
 6118POPC   C3B24213  18.232  42.094   7.950
 6118POPC   C4B24214  18.261  42.135   7.650
 6119POPC   NC324215  26.858   1.968   9.450
 6119POPC   PO424216  26.866   1.952   9.150
 6119POPC   GL124217  26.838   2.000   8.850
 6119POPC   GL224218  26.924   1.970   8.850
 6119POPC   C1A24219  26.784   2.024   8.550
 6119POPC   D2A24220  26.790   1.963   8.250
 6119POPC   C3A24221  26.817   2.018   7.950
 6119POPC   C4A24222  26.775   2.038   7.650
 6119POPC   C1B24223  27.104   1.990   8.550
 6119POPC   C2B24224  27.033   2.008   8.250
 6119POPC   C3B24225  27.045   1.953   7.950
 6119POPC   C4B24226  27.018   2.015   7.650
 6120POPC   NC324227   1.174   8.945   9.450
 6120POPC   PO424228   1.204   8.985   9.150
 6120POPC   GL124229   1.250   9.004   8.850
 6120POPC   GL224230   1.323   9.054   8.850
 6120POPC   C1A24231   1.230   8.977   8.550
 6120POPC   D2A24232   1.260   8.940   8.250
 6120POPC   C3A24233   1.247   8.948   7.950
 6120POPC   C4A24234   1.198   8.977   7.650
 6120POPC   C1B24235   1.301   9.215   8.550
 6120POPC   C2B24236   1.297   9.156   8.250
 6120POPC   C3B24237   1.313   9.187   7.950
 6120POPC   C4B24238   1.372   9.203   7.650
 6121POPC   NC324239  38.489   8.188   9.450
 6121POPC   PO424240  38.495   8.170   9.150
 6121POPC   GL124241  38.430   8.182   8.850
 6121POPC   GL224242  38.625   8.195   8.850
 6121POPC   C1A24243  38.410   8.208   8.550
 6121POPC   D2A24244  38.475   8.174   8.250
 6121POPC   C3A24245  38.461   8.150   7.950
 6121POPC   C4A24246  38.446   8.159   7.650
 6121POPC   C1B24247  38.704   8.190   8.550
 6121POPC   C2B24248  38.739   8.210   8.250
 6121POPC   C3B24249  38.671   8.186   7.950
 6121POPC   C4B24250  38.697   8.129   7.650
 6122POPC   NC324251   2.735  16.001   9.450
 6122POPC   PO424252   2.799  15.983   9.150
 6122POPC   GL124253   2.736  16.004   8.850
 6122POPC   GL224254   2.647  15.948   8.850
 6122POPC   C1A24255   2.791  15.961   8.550
 6122POPC   D2A24256   2.755  15.975   8.250
 6122POPC   C3A24257   2.784  16.005   7.950
 6122POPC   C4A24258   2.721  15.908   7.650
 6122POPC   C1B24259   2.527  15.949   8.550
 6122POPC   C2B24260   2.513  15.930   8.250
 6122POPC   C3B24261   2.531  15.986   7.950
 6122POPC   C4B24262   2.528  15.975   7.650
 6123POPC   NC324263  18.240   5.122   9.450
 6123POPC   PO424264  18.316   5.107   9.150
 6123POPC   GL124265  18.268   5.101   8.850
 6123POPC   GL224266  18.201   5.127   8.850
 6123POPC   C1A24267  18.286   5.139   8.550
 6123POPC   D2A24268  18.250   5.120   8.250
 6123POPC   C3A24269  18.282   5.092   7.950
 6123POPC   C4A24270  18.322   5.123   7.650
 6123POPC   C1B24271  18.080   5.213   8.550
 6123POPC   C2B24272  18.119   5.207   8.250
 6123POPC   C3B24273  18.117   5.199   7.950
 6123POPC   C4B24274  18.061   5.230   7.650
 6124POPC   NC324275   8.204  43.073   9.450
 6124POPC   PO424276   8.241  43.149   9.150
 6124POPC   GL124277   8.169  43.157   8.850
 6124POPC   GL224278   8.268  42.968   8.850
 6124POPC   C1A24279   8.152  43.129   8.550
 6124POPC   D2A24280   8.179  43.071   8.250
 6124POPC   C3A24281   8.150  43.087   7.950
 6124POPC   C4A24282   8.200  43.080   7.650
 6124POPC   C1B24283   8.301  42.861   8.550
 6124POPC   C2B24284   8.286  42.833   8.250
 6124POPC   C3B24285   8.234  42.898   7.950
 6124POPC   C4B24286   8.325  42.896   7.650
 6125POPC   NC324287   7.395  37.648   9.450
 6125POPC   PO424288   7.391  37.647   9.150
 6125POPC   GL124289   7.371  37.662   8.850
 6125POPC   GL224290   7.557  37.652   8.850
 6125POPC   C1A24291   7.432  37.687   8.550
 6125POPC   D2A24292   7.386  37.699   8.250
 6125POPC   C3A24293   7.386  37.697   7.950
 6125POPC   C4A24294   7.414  37.680   7.650
 6125POPC   C1B24295   7.688  37.675   8.550
 6125POPC   C2B24296   7.659  37.710   8.250
 6125POPC   C3B24297   7.682  37.708   7.950
 6125POPC   C4B24298   7.717  37.719   7.650
 6126POPC   NC324299  19.076   4.301   9.450
 6126POPC   PO424300  19.023   4.349   9.150
 6126POPC   GL124301  19.093   4.283   8.850
 6126POPC   GL224302  19.189   4.417   8.850
 6126POPC   C1A24303  19.064   4.323   8.550
 6126POPC   D2A24304  19.013   4.329   8.250
 6126POPC   C3A24305  19.099   4.300   7.950
 6126POPC   C4A24306  19.085   4.313   7.650
 6126POPC   C1B24307  19.320   4.422   8.550
 6126POPC   C2B24308  19.267   4.458   8.250
 6126POPC   C3B24309  19.252   4.429   7.950
 6126POPC   C4B24310  19.321   4.441   7.650
 6127POPC   NC324311  14.407   1.961   9.450
 6127POPC   PO424312  14.376   2.020   9.150
 6127POPC   GL124313  14.438   2.004   8.850
 6127POPC   GL224314  14.490   1.982   8.850
 6127POPC   C1A24315  14.359   2.035   8.550
 6127POPC   D2A24316  14.388   1.997   8.250
 6127POPC   C3A24317  14.430   1.981   7.950
 6127POPC   C4A24318  14.361   1.985   7.650
 6127POPC   C1B24319  14.634   2.047   8.550
 6127POPC   C2B24320  14.687   2.032   8.250
 6127POPC   C3B24321  14.670   2.094   7.950
 6127POPC   C4B24322  14.695   2.089   7.650
 6128POPC   NC324323  16.710  37.698   9.450
 6128POPC   PO424324  16.687  37.661   9.150
 6128POPC   GL124325  16.694  37.669   8.850
 6128POPC   GL224326  16.624  37.766   8.850
 6128POPC   C1A24327  16.778  37.696   8.550
 6128POPC   D2A24328  16.694  37.643   8.250
 6128POPC   C3A24329  16.695  37.654   7.950
 6128POPC   C4A24330  16.682  37.667   7.650
 6128POPC   C1B24331  16.512  37.860   8.550
 6128POPC   C2B24332  16.492  37.848   8.250
 6128POPC   C3B24333  16.538  37.804   7.950
 6128POPC   C4B24334  16.533  37.776   7.650
 6129POPC   NC324335  35.373  44.679   9.450
 6129POPC   PO424336  35.398  44.702   9.150
 6129POPC   GL124337  35.369  44.680   8.850
 6129POPC   GL224338  35.484  44.651   8.850
 6129POPC   C1A24339  35.324  44.625   8.550
 6129POPC   D2A24340  35.316  44.632   8.250
 6129POPC   C3A24341  35.332  44.698   7.950
 6129POPC   C4A24342  35.383  44.656   7.650
 6129POPC   C1B24343  35.621  44.565   8.550
 6129POPC   C2B24344  35.603  44.558   8.250
 6129POPC   C3B24345  35.614  44.607   7.950
 6129POPC   C4B24346  35.607  44.571   7.650
 6130POPC   NC324347  20.572  41.530   9.450
 6130POPC   PO424348  20.623  41.543   9.150
 6130POPC   GL124349  20.580  41.599   8.850
 6130POPC   GL224350  20.696  41.578   8.850
 6130POPC   C1A24351  20.594  41.567   8.550
 6130POPC   D2A24352  20.610  41.538   8.250
 6130POPC   C3A24353  20.615  41.585   7.950
 6130POPC   C4A24354  20.630  41.549   7.650
 6130POPC   C1B24355  20.882  41.534   8.550
 6130POPC   C2B24356  20.818  41.496   8.250
 6130POPC   C3B24357  20.869  41.526   7.950
 6130POPC   C4B24358  20.888  41.507   7.650
 6131POPC   NC324359   3.572  36.943   9.450
 6131POPC   PO424360   3.502  36.877   9.150
 6131POPC   GL124361   3.562  36.905   8.850
 6131POPC   GL224362   3.663  36.846   8.850
 6131POPC   C1A24363   3.523  36.918   8.550
 6131POPC   D2A24364   3.507  36.884   8.250
 6131POPC   C3A24365   3.497  36.947   7.950
 6131POPC   C4A24366   3.554  36.909   7.650
 6131POPC   C1B24367   3.776  36.856   8.550
 6131POPC   C2B24368   3.759  36.896   8.250
 6131POPC   C3B24369   3.738  36.838   7.950
 6131POPC   C4B24370   3.795  36.879   7.650
 6132POPC   NC324371  39.210  20.645   9.450
 6132POPC   PO424372  39.209  20.609   9.150
 6132POPC   GL124373  39.275  20.658   8.850
 6132POPC   GL224374  39.187  20.460   8.850
 6132POPC   C1A24375  39.270  20.567   8.550
 6132POPC   D2A24376  39.274  20.565   8.250
 6132POPC   C3A24377  39.212  20.641   7.950
 6132POPC   C4A24378  39.261  20.654   7.650
 6132POPC   C1B24379  39.122  20.376   8.550
 6132POPC   C2B24380  39.132  20.367   8.250
 6132POPC   C3B24381  39.090  20.394   7.950
 6132POPC   C4B24382  39.074  20.375   7.650
 6133POPC   NC324383  18.272  22.937   9.450
 6133POPC   PO424384  18.312  22.914   9.150
 6133POPC   GL124385  18.309  22.939   8.850
 6133POPC   GL224386  18.359  22.834   8.850
 6133POPC   C1A24387  18.320  22.979   8.550
 6133POPC   D2A24388  18.320  22.940   8.250
 6133POPC   C3A24389  18.298  22.985   7.950
 6133POPC   C4A24390  18.318  22.939   7.650
 6133POPC   C1B24391  18.483  22.755   8.550
 6133POPC   C2B24392  18.467  22.827   8.250
 6133POPC   C3B24393  18.495  22.769   7.950
 6133POPC   C4B24394  18.465  22.783   7.650
 6134POPC   NC324395  38.496  39.989   9.450
 6134POPC   PO424396  38.420  39.967   9.150
 6134POPC   GL124397  38.417  40.025   8.850
 6134POPC   GL224398  38.324  40.099   8.850
 6134POPC   C1A24399  38.460  39.965   8.550
 6134POPC   D2A24400  38.503  40.024   8.250
 6134POPC   C3A24401  38.495  40.007   7.950
 6134POPC   C4A24402  38.490  40.019   7.650
 6134POPC   C1B24403  38.250  40.094   8.550
 6134POPC   C2B24404  38.235  40.120   8.250
 6134POPC   C3B24405  38.232  40.104   7.950
 6134POPC   C4B24406  38.235  40.111   7.650
 6135POPC   NC324407  37.637  34.601   9.450
 6135POPC   PO424408  37.653  34.535   9.150
 6135POPC   GL124409  37.680  34.614   8.850
 6135POPC   GL224410  37.794  34.489   8.850
 6135POPC   C1A24411  37.726  34.620   8.550
 6135POPC   D2A24412  37.685  34.590   8.250
 6135POPC   C3A24413  37.631  34.563   7.950
 6135POPC   C4A24414  37.717  34.624   7.650
 6135POPC   C1B24415  37.887  34.516   8.550
 6135POPC   C2B24416  37.921  34.457   8.250
 6135POPC   C3B24417  37.907  34.457   7.950
 6135POPC   C4B24418  37.944  34.465   7.650
 6136POPC   NC324419  25.224  22.160   9.450
 6136POPC   PO424420  25.247  22.206   9.150
 6136POPC   GL124421  25.216  22.117   8.850
 6136POPC   GL224422  25.143  22.051   8.850
 6136POPC   C1A24423  25.290  22.128   8.550
 6136POPC   D2A24424  25.253  22.181   8.250
 6136POPC   C3A24425  25.230  22.142   7.950
 6136POPC   C4A24426  25.269  22.193   7.650
 6136POPC   C1B24427  25.128  22.012   8.550
 6136POPC   C2B24428  25.150  22.014   8.250
 6136POPC   C3B24429  25.135  21.957   7.950
 6136POPC   C4B24430  25.112  21.982   7.650
 6137POPC   NC324431  42.357  36.929   9.450
 6137POPC   PO424432  42.299  36.855   9.150
 6137POPC   GL124433  42.349  36.868   8.850
 6137POPC   GL224434  42.394  37.007   8.850
 6137POPC   C1A24435  42.326  36.890   8.550
 6137POPC   D2A24436  42.381  36.870   8.250
 6137POPC   C3A24437  42.358  36.870   7.950
 6137POPC   C4A24438  42.371  36.905   7.650
 6137POPC   C1B24439  42.384  37.158   8.550
 6137POPC   C2B24440  42.370  37.119   8.250
 6137POPC   C3B24441  42.385  37.148   7.950
 6137POPC   C4B24442  42.371  37.127   7.650
 6138POPC   NC324443  10.502  12.085   9.450
 6138POPC   PO424444  10.509  12.069   9.150
 6138POPC   GL124445  10.563  12.120   8.850
 6138POPC   GL224446  10.529  11.906   8.850
 6138POPC   C1A24447  10.555  12.035   8.550
 6138POPC   D2A24448  10.510  12.080   8.250
 6138POPC   C3A24449  10.529  12.100   7.950
 6138POPC   C4A24450  10.566  12.028   7.650
 6138POPC   C1B24451  10.588  11.807   8.550
 6138POPC   C2B24452  10.576  11.811   8.250
 6138POPC   C3B24453  10.624  11.851   7.950
 6138POPC   C4B24454  10.556  11.844   7.650
 6139POPC   NC324455  25.288  11.306   9.450
 6139POPC   PO424456  25.268  11.264   9.150
 6139POPC   GL124457  25.239  11.317   8.850
 6139POPC   GL224458  25.198  11.196   8.850
 6139POPC   C1A24459  25.254  11.333   8.550
 6139POPC   D2A24460  25.309  11.279   8.250
 6139POPC   C3A24461  25.305  11.342   7.950
 6139POPC   C4A24462  25.313  11.303   7.650
 6139POPC   C1B24463  25.161  11.139   8.550
 6139POPC   C2B24464  25.127  11.084   8.250
 6139POPC   C3B24465  25.119  11.050   7.950
 6139POPC   C4B24466  25.156  11.050   7.650
 6140POPC   NC324467  36.944   5.048   9.450
 6140POPC   PO424468  36.876   5.086   9.150
 6140POPC   GL124469  36.920   5.110   8.850
 6140POPC   GL224470  36.853   5.250   8.850
 6140POPC   C1A24471  36.931   5.133   8.550
 6140POPC   D2A24472  36.883   5.137   8.250
 6140POPC   C3A24473  36.877   5.124   7.950
 6140POPC   C4A24474  36.868   5.077   7.650
 6140POPC   C1B24475  36.869   5.355   8.550
 6140POPC   C2B24476  36.808   5.307   8.250
 6140POPC   C3B24477  36.814   5.357   7.950
 6140POPC   C4B24478  36.875   5.345   7.650
 6141POPC   NC324479  34.564   5.918   9.450
 6141POPC   PO424480  34.570   5.820   9.150
 6141POPC   GL124481  34.594   5.901   8.850
 6141POPC   GL224482  34.496   5.865   8.850
 6141POPC   C1A24483  34.577   5.916   8.550
 6141POPC   D2A24484  34.600   5.883   8.250
 6141POPC   C3A24485  34.591   5.907   7.950
 6141POPC   C4A24486  34.527   5.902   7.650
 6141POPC   C1B24487  34.327   5.871   8.550
 6141POPC   C2B24488  34.346   5.870   8.250
 6141POPC   C3B24489  34.354   5.888   7.950
 6141POPC   C4B24490  34.355   5.875   7.650
 6142POPC   NC324491  19.815   7.438   9.450
 6142POPC   PO424492  19.826   7.414   9.150
 6142POPC   GL124493  19.855   7.408   8.850
 6142POPC   GL224494  19.852   7.295   8.850
 6142POPC   C1A24495  19.815   7.425   8.550
 6142POPC   D2A24496  19.802   7.376   8.250
 6142POPC   C3A24497  19.847   7.399   7.950
 6142POPC   C4A24498  19.835   7.435   7.650
 6142POPC   C1B24499  19.790   7.164   8.550
 6142POPC   C2B24500  19.843   7.207   8.250
 6142POPC   C3B24501  19.807   7.148   7.950
 6142POPC   C4B24502  19.796   7.174   7.650
 6143POPC   NC324503  42.312   5.852   9.450
 6143POPC   PO424504  42.375   5.838   9.150
 6143POPC   GL124505  42.334   5.895   8.850
 6143POPC   GL224506  42.182   5.903   8.850
 6143POPC   C1A24507  42.373   5.915   8.550
 6143POPC   D2A24508  42.297   5.853   8.250
 6143POPC   C3A24509  42.378   5.882   7.950
 6143POPC   C4A24510  42.323   5.834   7.650
 6143POPC   C1B24511  42.090   5.946   8.550
 6143POPC   C2B24512  42.086   5.907   8.250
 6143POPC   C3B24513  42.072   5.973   7.950
 6143POPC   C4B24514  42.124   5.931   7.650
 6144POPC   NC324515  36.890   1.211   9.450
 6144POPC   PO424516  36.950   1.207   9.150
 6144POPC   GL124517  36.911   1.180   8.850
 6144POPC   GL224518  36.966   1.272   8.850
 6144POPC   C1A24519  36.875   1.189   8.550
 6144POPC   D2A24520  36.904   1.206   8.250
 6144POPC   C3A24521  36.879   1.256   7.950
 6144POPC   C4A24522  36.873   1.250   7.650
 6144POPC   C1B24523  37.128   1.328   8.550
 6144POPC   C2B24524  37.100   1.417   8.250
 6144POPC   C3B24525  37.132   1.329   7.950
 6144POPC   C4B24526  37.117   1.323   7.650
 6145POPC   NC324527   8.943   5.080   9.450
 6145POPC   PO424528   8.946   5.078   9.150
 6145POPC   GL124529   8.941   5.110   8.850
 6145POPC   GL224530   8.867   4.980   8.850
 6145POPC   C1A24531   8.941   5.094   8.550
 6145POPC   D2A24532   9.001   5.091   8.250
 6145POPC   C3A24533   9.006   5.054   7.950
 6145POPC   C4A24534   9.016   5.101   7.650
 6145POPC   C1B24535   8.742   4.947   8.550
 6145POPC   C2B24536   8.736   4.952   8.250
 6145POPC   C3B24537   8.748   4.980   7.950
 6145POPC   C4B24538   8.736   4.967   7.650
 6146POPC   NC324539  43.102  44.681   9.450
 6146POPC   PO424540  43.129  44.616   9.150
 6146POPC   GL124541  43.113  44.698   8.850
 6146POPC   GL224542  43.003  44.608   8.850
 6146POPC   C1A24543  43.086  44.698   8.550
 6146POPC   D2A24544  43.149  44.694   8.250
 6146POPC   C3A24545  43.123  44.612   7.950
 6146POPC   C4A24546  43.097  44.651   7.650
 6146POPC   C1B24547  42.943  44.481   8.550
 6146POPC   C2B24548  42.868  44.561   8.250
 6146POPC   C3B24549  42.910  44.523   7.950
 6146POPC   C4B24550  42.871  44.499   7.650
 6147POPC   NC324551  11.341  35.343   9.450
 6147POPC   PO424552  11.294  35.305   9.150
 6147POPC   GL124553  11.276  35.308   8.850
 6147POPC   GL224554  11.193  35.396   8.850
 6147POPC   C1A24555  11.261  35.355   8.550
 6147POPC   D2A24556  11.305  35.328   8.250
 6147POPC   C3A24557  11.324  35.378   7.950
 6147POPC   C4A24558  11.345  35.322   7.650
 6147POPC   C1B24559  11.109  35.488   8.550
 6147POPC   C2B24560  11.138  35.503   8.250
 6147POPC   C3B24561  11.161  35.569   7.950
 6147POPC   C4B24562  11.141  35.554   7.650
 6148POPC   NC324563  33.000   3.526   9.450
 6148POPC   PO424564  33.054   3.513   9.150
 6148POPC   GL124565  33.060   3.551   8.850
 6148POPC   GL224566  33.046   3.458   8.850
 6148POPC   C1A24567  32.998   3.590   8.550
 6148POPC   D2A24568  33.036   3.563   8.250
 6148POPC   C3A24569  33.025   3.522   7.950
 6148POPC   C4A24570  33.071   3.502   7.650
 6148POPC   C1B24571  33.148   3.378   8.550
 6148POPC   C2B24572  33.196   3.338   8.250
 6148POPC   C3B24573  33.144   3.336   7.950
 6148POPC   C4B24574  33.114   3.340   7.650
 6149POPC   NC324575   5.862  24.508   9.450
 6149POPC   PO424576   5.839  24.483   9.150
 6149POPC   GL124577   5.844  24.535   8.850
 6149POPC   GL224578   5.896  24.634   8.850
 6149POPC   C1A24579   5.906  24.441   8.550
 6149POPC   D2A24580   5.877  24.456   8.250
 6149POPC   C3A24581   5.890  24.472   7.950
 6149POPC   C4A24582   5.870  24.506   7.650
 6149POPC   C1B24583   5.857  24.759   8.550
 6149POPC   C2B24584   5.851  24.730   8.250
 6149POPC   C3B24585   5.855  24.714   7.950
 6149POPC   C4B24586   5.938  24.744   7.650
 6150POPC   NC324587  35.364  43.119   9.450
 6150POPC   PO424588  35.309  43.087   9.150
 6150POPC   GL124589  35.345  43.124   8.850
 6150POPC   GL224590  35.431  43.045   8.850
 6150POPC   C1A24591  35.326  43.158   8.550
 6150POPC   D2A24592  35.371  43.086   8.250
 6150POPC   C3A24593  35.375  43.143   7.950
 6150POPC   C4A24594  35.350  43.130   7.650
 6150POPC   C1B24595  35.541  42.969   8.550
 6150POPC   C2B24596  35.548  43.038   8.250
 6150POPC   C3B24597  35.549  42.953   7.950
 6150POPC   C4B24598  35.563  42.956   7.650
 6151POPC   NC324599  40.045  15.156   9.450
 6151POPC   PO424600  40.029  15.227   9.150
 6151POPC   GL124601  40.035  15.152   8.850
 6151POPC   GL224602  40.059  15.081   8.850
 6151POPC   C1A24603  40.039  15.138   8.550
 6151POPC   D2A24604  39.995  15.199   8.250
 6151POPC   C3A24605  39.992  15.182   7.950
 6151POPC   C4A24606  40.021  15.161   7.650
 6151POPC   C1B24607  40.081  14.974   8.550
 6151POPC   C2B24608  40.020  14.944   8.250
 6151POPC   C3B24609  40.004  14.924   7.950
 6151POPC   C4B24610  40.019  14.968   7.650
 6152POPC   NC324611  22.122  30.721   9.450
 6152POPC   PO424612  22.163  30.659   9.150
 6152POPC   GL124613  22.144  30.731   8.850
 6152POPC   GL224614  22.279  30.576   8.850
 6152POPC   C1A24615  22.206  30.710   8.550
 6152POPC   D2A24616  22.132  30.677   8.250
 6152POPC   C3A24617  22.208  30.730   7.950
 6152POPC   C4A24618  22.189  30.705   7.650
 6152POPC   C1B24619  22.288  30.528   8.550
 6152POPC   C2B24620  22.352  30.479   8.250
 6152POPC   C3B24621  22.286  30.512   7.950
 6152POPC   C4B24622  22.373  30.511   7.650
 6153POPC   NC324623  22.891  23.703   9.450
 6153POPC   PO424624  22.959  23.672   9.150
 6153POPC   GL124625  22.912  23.763   8.850
 6153POPC   GL224626  22.972  23.624   8.850
 6153POPC   C1A24627  22.913  23.762   8.550
 6153POPC   D2A24628  22.987  23.695   8.250
 6153POPC   C3A24629  22.945  23.694   7.950
 6153POPC   C4A24630  22.908  23.675   7.650
 6153POPC   C1B24631  22.919  23.421   8.550
 6153POPC   C2B24632  22.949  23.498   8.250
 6153POPC   C3B24633  22.957  23.477   7.950
 6153POPC   C4B24634  22.988  23.428   7.650
 6154POPC   NC324635  15.971  15.212   9.450
 6154POPC   PO424636  15.929  15.171   9.150
 6154POPC   GL124637  15.912  15.175   8.850
 6154POPC   GL224638  16.053  15.170   8.850
 6154POPC   C1A24639  15.977  15.227   8.550
 6154POPC   D2A24640  15.978  15.146   8.250
 6154POPC   C3A24641  15.948  15.215   7.950
 6154POPC   C4A24642  15.947  15.147   7.650
 6154POPC   C1B24643  16.241  15.176   8.550
 6154POPC   C2B24644  16.152  15.088   8.250
 6154POPC   C3B24645  16.212  15.179   7.950
 6154POPC   C4B24646  16.209  15.132   7.650
 6155POPC   NC324647  39.274  22.954   9.450
 6155POPC   PO424648  39.186  22.912   9.150
 6155POPC   GL124649  39.202  22.937   8.850
 6155POPC   GL224650  39.344  22.910   8.850
 6155POPC   C1A24651  39.198  22.907   8.550
 6155POPC   D2A24652  39.209  22.914   8.250
 6155POPC   C3A24653  39.201  22.915   7.950
 6155POPC   C4A24654  39.271  22.942   7.650
 6155POPC   C1B24655  39.410  22.760   8.550
 6155POPC   C2B24656  39.414  22.749   8.250
 6155POPC   C3B24657  39.381  22.788   7.950
 6155POPC   C4B24658  39.417  22.761   7.650
 6156POPC   NC324659  42.360  43.148   9.450
 6156POPC   PO424660  42.359  43.112   9.150
 6156POPC   GL124661  42.339  43.117   8.850
 6156POPC   GL224662  42.396  43.051   8.850
 6156POPC   C1A24663  42.302  43.099   8.550
 6156POPC   D2A24664  42.328  43.075   8.250
 6156POPC   C3A24665  42.354  43.119   7.950
 6156POPC   C4A24666  42.367  43.111   7.650
 6156POPC   C1B24667  42.475  42.885   8.550
 6156POPC   C2B24668  42.504  42.890   8.250
 6156POPC   C3B24669  42.528  42.887   7.950
 6156POPC   C4B24670  42.478  42.944   7.650
 6157POPC   NC324671  38.473   5.133   9.450
 6157POPC   PO424672  38.469   5.128   9.150
 6157POPC   GL124673  38.431   5.076   8.850
 6157POPC   GL224674  38.396   4.965   8.850
 6157POPC   C1A24675  38.502   5.113   8.550
 6157POPC   D2A24676  38.488   5.070   8.250
 6157POPC   C3A24677  38.435   5.112   7.950
 6157POPC   C4A24678  38.490   5.084   7.650
 6157POPC   C1B24679  38.412   4.836   8.550
 6157POPC   C2B24680  38.342   4.905   8.250
 6157POPC   C3B24681  38.412   4.902   7.950
 6157POPC   C4B24682  38.390   4.862   7.650
 6158POPC   NC324683  21.350  33.026   9.450
 6158POPC   PO424684  21.408  32.991   9.150
 6158POPC   GL124685  21.430  33.019   8.850
 6158POPC   GL224686  21.242  33.036   8.850
 6158POPC   C1A24687  21.426  33.065   8.550
 6158POPC   D2A24688  21.366  33.029   8.250
 6158POPC   C3A24689  21.434  33.052   7.950
 6158POPC   C4A24690  21.344  33.002   7.650
 6158POPC   C1B24691  21.164  33.035   8.550
 6158POPC   C2B24692  21.097  33.003   8.250
 6158POPC   C3B24693  21.123  32.979   7.950
 6158POPC   C4B24694  21.117  33.059   7.650
 6159POPC   NC324695  21.369  15.914   9.450
 6159POPC   PO424696  21.365  15.937   9.150
 6159POPC   GL124697  21.382  15.912   8.850
 6159POPC   GL224698  21.362  15.886   8.850
 6159POPC   C1A24699  21.376  15.950   8.550
 6159POPC   D2A24700  21.430  15.909   8.250
 6159POPC   C3A24701  21.415  15.989   7.950
 6159POPC   C4A24702  21.358  15.964   7.650
 6159POPC   C1B24703  21.220  15.710   8.550
 6159POPC   C2B24704  21.302  15.733   8.250
 6159POPC   C3B24705  21.258  15.709   7.950
 6159POPC   C4B24706  21.218  15.698   7.650
 6160POPC   NC324707  19.815  24.499   9.450
 6160POPC   PO424708  19.880  24.463   9.150
 6160POPC   GL124709  19.795  24.457   8.850
 6160POPC   GL224710  19.717  24.493   8.850
 6160POPC   C1A24711  19.864  24.518   8.550
 6160POPC   D2A24712  19.795  24.495   8.250
 6160POPC   C3A24713  19.826  24.507   7.950
 6160POPC   C4A24714  19.804  24.482   7.650
 6160POPC   C1B24715  19.553  24.529   8.550
 6160POPC   C2B24716  19.574  24.464   8.250
 6160POPC   C3B24717  19.564  24.542   7.950
 6160POPC   C4B24718  19.540  24.528   7.650
 6161POPC   NC324719  22.970  31.510   9.450
 6161POPC   PO424720  22.899  31.459   9.150
 6161POPC   GL124721  22.924  31.445   8.850
 6161POPC   GL224722  22.869  31.350   8.850
 6161POPC   C1A24723  22.908  31.521   8.550
 6161POPC   D2A24724  22.889  31.507   8.250
 6161POPC   C3A24725  22.925  31.488   7.950
 6161POPC   C4A24726  22.973  31.454   7.650
 6161POPC   C1B24727  22.801  31.275   8.550
 6161POPC   C2B24728  22.794  31.277   8.250
 6161POPC   C3B24729  22.787  31.284   7.950
 6161POPC   C4B24730  22.819  31.296   7.650
 6162POPC   NC324731  37.663  42.358   9.450
 6162POPC   PO424732  37.696  42.328   9.150
 6162POPC   GL124733  37.648  42.358   8.850
 6162POPC   GL224734  37.623  42.411   8.850
 6162POPC   C1A24735  37.699  42.302   8.550
 6162POPC   D2A24736  37.671  42.298   8.250
 6162POPC   C3A24737  37.686  42.327   7.950
 6162POPC   C4A24738  37.695  42.317   7.650
 6162POPC   C1B24739  37.593  42.535   8.550
 6162POPC   C2B24740  37.603  42.609   8.250
 6162POPC   C3B24741  37.655  42.622   7.950
 6162POPC   C4B24742  37.646  42.606   7.650
 6163POPC   NC324743  36.881  19.013   9.450
 6163POPC   PO424744  36.865  19.098   9.150
 6163POPC   GL124745  36.895  19.096   8.850
 6163POPC   GL224746  37.009  19.057   8.850
 6163POPC   C1A24747  36.927  19.055   8.550
 6163POPC   D2A24748  36.909  19.049   8.250
 6163POPC   C3A24749  36.945  19.046   7.950
 6163POPC   C4A24750  36.908  19.096   7.650
 6163POPC   C1B24751  37.188  19.106   8.550
 6163POPC   C2B24752  37.142  19.091   8.250
 6163POPC   C3B24753  37.129  19.123   7.950
 6163POPC   C4B24754  37.184  19.119   7.650
 6164POPC   NC324755   5.848  29.115   9.450
 6164POPC   PO424756   5.869  29.113   9.150
 6164POPC   GL124757   5.861  29.099   8.850
 6164POPC   GL224758   5.869  29.281   8.850
 6164POPC   C1A24759   5.892  29.118   8.550
 6164POPC   D2A24760   5.831  29.145   8.250
 6164POPC   C3A24761   5.885  29.149   7.950
 6164POPC   C4A24762   5.868  29.139   7.650
 6164POPC   C1B24763   5.905  29.438   8.550
 6164POPC   C2B24764   5.833  29.422   8.250
 6164POPC   C3B24765   5.814  29.395   7.950
 6164POPC   C4B24766   5.826  29.375   7.650
 6165POPC   NC324767   7.404  33.007   9.450
 6165POPC   PO424768   7.432  33.012   9.150
 6165POPC   GL124769   7.433  32.990   8.850
 6165POPC   GL224770   7.529  32.900   8.850
 6165POPC   C1A24771   7.401  32.989   8.550
 6165POPC   D2A24772   7.450  32.992   8.250
 6165POPC   C3A24773   7.430  33.043   7.950
 6165POPC   C4A24774   7.419  32.986   7.650
 6165POPC   C1B24775   7.595  32.815   8.550
 6165POPC   C2B24776   7.598  32.877   8.250
 6165POPC   C3B24777   7.545  32.804   7.950
 6165POPC   C4B24778   7.590  32.853   7.650
 6166POPC   NC324779  17.529  18.323   9.450
 6166POPC   PO424780  17.463  18.239   9.150
 6166POPC   GL124781  17.512  18.269   8.850
 6166POPC   GL224782  17.566  18.165   8.850
 6166POPC   C1A24783  17.472  18.316   8.550
 6166POPC   D2A24784  17.522  18.270   8.250
 6166POPC   C3A24785  17.494  18.274   7.950
 6166POPC   C4A24786  17.497  18.310   7.650
 6166POPC   C1B24787  17.572  18.014   8.550
 6166POPC   C2B24788  17.499  18.061   8.250
 6166POPC   C3B24789  17.591  18.035   7.950
 6166POPC   C4B24790  17.562  17.990   7.650
 6167POPC   NC324791  11.327  19.049   9.450
 6167POPC   PO424792  11.342  19.088   9.150
 6167POPC   GL124793  11.273  19.050   8.850
 6167POPC   GL224794  11.172  19.082   8.850
 6167POPC   C1A24795  11.273  19.087   8.550
 6167POPC   D2A24796  11.311  19.075   8.250
 6167POPC   C3A24797  11.304  19.084   7.950
 6167POPC   C4A24798  11.275  19.103   7.650
 6167POPC   C1B24799  11.044  19.156   8.550
 6167POPC   C2B24800  11.046  19.077   8.250
 6167POPC   C3B24801  11.077  19.078   7.950
 6167POPC   C4B24802  11.098  19.097   7.650
 6168POPC   NC324803  21.431  20.606   9.450
 6168POPC   PO424804  21.339  20.638   9.150
 6168POPC   GL124805  21.410  20.583   8.850
 6168POPC   GL224806  21.413  20.526   8.850
 6168POPC   C1A24807  21.380  20.629   8.550
 6168POPC   D2A24808  21.435  20.570   8.250
 6168POPC   C3A24809  21.371  20.592   7.950
 6168POPC   C4A24810  21.404  20.641   7.650
 6168POPC   C1B24811  21.350  20.318   8.550
 6168POPC   C2B24812  21.372  20.378   8.250
 6168POPC   C3B24813  21.430  20.403   7.950
 6168POPC   C4B24814  21.368  20.328   7.650
 6169POPC   NC324815   4.269  25.231   9.450
 6169POPC   PO424816   4.293  25.221   9.150
 6169POPC   GL124817   4.305  25.246   8.850
 6169POPC   GL224818   4.409  25.173   8.850
 6169POPC   C1A24819   4.341  25.233   8.550
 6169POPC   D2A24820   4.297  25.312   8.250
 6169POPC   C3A24821   4.297  25.247   7.950
 6169POPC   C4A24822   4.353  25.239   7.650
 6169POPC   C1B24823   4.468  25.079   8.550
 6169POPC   C2B24824   4.498  25.123   8.250
 6169POPC   C3B24825   4.500  25.071   7.950
 6169POPC   C4B24826   4.450  25.114   7.650
 6170POPC   NC324827   5.843   4.316   9.450
 6170POPC   PO424828   5.910   4.312   9.150
 6170POPC   GL124829   5.900   4.359   8.850
 6170POPC   GL224830   5.924   4.172   8.850
 6170POPC   C1A24831   5.882   4.343   8.550
 6170POPC   D2A24832   5.886   4.313   8.250
 6170POPC   C3A24833   5.865   4.324   7.950
 6170POPC   C4A24834   5.893   4.339   7.650
 6170POPC   C1B24835   5.898   4.068   8.550
 6170POPC   C2B24836   5.966   4.062   8.250
 6170POPC   C3B24837   5.931   4.107   7.950
 6170POPC   C4B24838   5.924   4.055   7.650
 6171POPC   NC324839  17.480  36.948   9.450
 6171POPC   PO424840  17.519  36.913   9.150
 6171POPC   GL124841  17.525  36.890   8.850
 6171POPC   GL224842  17.402  36.878   8.850
 6171POPC   C1A24843  17.553  36.888   8.550
 6171POPC   D2A24844  17.549  36.900   8.250
 6171POPC   C3A24845  17.555  36.915   7.950
 6171POPC   C4A24846  17.531  36.939   7.650
 6171POPC   C1B24847  17.309  36.934   8.550
 6171POPC   C2B24848  17.244  36.907   8.250
 6171POPC   C3B24849  17.279  36.953   7.950
 6171POPC   C4B24850  17.257  36.960   7.650
 6172POPC   NC324851  34.535  15.139   9.450
 6172POPC   PO424852  34.611  15.222   9.150
 6172POPC   GL124853  34.614  15.143   8.850
 6172POPC   GL224854  34.470  15.108   8.850
 6172POPC   C1A24855  34.594  15.174   8.550
 6172POPC   D2A24856  34.528  15.194   8.250
 6172POPC   C3A24857  34.560  15.137   7.950
 6172POPC   C4A24858  34.526  15.221   7.650
 6172POPC   C1B24859  34.310  15.035   8.550
 6172POPC   C2B24860  34.329  15.031   8.250
 6172POPC   C3B24861  34.350  15.054   7.950
 6172POPC   C4B24862  34.391  15.015   7.650
 6173POPC   NC324863  26.792  22.894   9.450
 6173POPC   PO424864  26.786  22.931   9.150
 6173POPC   GL124865  26.834  22.960   8.850
 6173POPC   GL224866  26.969  22.908   8.850
 6173POPC   C1A24867  26.790  22.982   8.550
 6173POPC   D2A24868  26.779  22.926   8.250
 6173POPC   C3A24869  26.841  22.944   7.950
 6173POPC   C4A24870  26.864  22.900   7.650
 6173POPC   C1B24871  27.032  22.898   8.550
 6173POPC   C2B24872  27.074  22.887   8.250
 6173POPC   C3B24873  27.056  22.936   7.950
 6173POPC   C4B24874  27.084  22.907   7.650
 6174POPC   NC324875  19.858  15.171   9.450
 6174POPC   PO424876  19.821  15.136   9.150
 6174POPC   GL124877  19.792  15.201   8.850
 6174POPC   GL224878  19.734  15.316   8.850
 6174POPC   C1A24879  19.817  15.214   8.550
 6174POPC   D2A24880  19.880  15.150   8.250
 6174POPC   C3A24881  19.845  15.178   7.950
 6174POPC   C4A24882  19.855  15.147   7.650
 6174POPC   C1B24883  19.751  15.449   8.550
 6174POPC   C2B24884  19.696  15.454   8.250
 6174POPC   C3B24885  19.683  15.393   7.950
 6174POPC   C4B24886  19.722  15.396   7.650
 6175POPC   NC324887  19.801  32.217   9.450
 6175POPC   PO424888  19.810  32.273   9.150
 6175POPC   GL124889  19.855  32.260   8.850
 6175POPC   GL224890  19.956  32.163   8.850
 6175POPC   C1A24891  19.868  32.241   8.550
 6175POPC   D2A24892  19.882  32.298   8.250
 6175POPC   C3A24893  19.795  32.209   7.950
 6175POPC   C4A24894  19.825  32.243   7.650
 6175POPC   C1B24895  19.999  32.099   8.550
 6175POPC   C2B24896  20.044  32.067   8.250
 6175POPC   C3B24897  20.023  32.094   7.950
 6175POPC   C4B24898  19.965  32.054   7.650
 6176POPC   NC324899  38.473   9.720   9.450
 6176POPC   PO424900  38.412   9.782   9.150
 6176POPC   GL124901  38.486   9.798   8.850
 6176POPC   GL224902  38.423   9.879   8.850
 6176POPC   C1A24903  38.485   9.709   8.550
 6176POPC   D2A24904  38.460   9.720   8.250
 6176POPC   C3A24905  38.409   9.704   7.950
 6176POPC   C4A24906  38.500   9.725   7.650
 6176POPC   C1B24907  38.271   9.916   8.550
 6176POPC   C2B24908  38.274   9.936   8.250
 6176POPC   C3B24909  38.272   9.992   7.950
 6176POPC   C4B24910  38.318   9.972   7.650
 6177POPC   NC324911  35.327  26.028   9.450
 6177POPC   PO424912  35.312  26.080   9.150
 6177POPC   GL124913  35.328  26.090   8.850
 6177POPC   GL224914  35.403  26.139   8.850
 6177POPC   C1A24915  35.357  26.034   8.550
 6177POPC   D2A24916  35.319  26.028   8.250
 6177POPC   C3A24917  35.377  26.077   7.950
 6177POPC   C4A24918  35.394  26.088   7.650
 6177POPC   C1B24919  35.523  26.266   8.550
 6177POPC   C2B24920  35.466  26.233   8.250
 6177POPC   C3B24921  35.477  26.273   7.950
 6177POPC   C4B24922  35.508  26.216   7.650
 6178POPC   NC324923   9.771  34.566   9.450
 6178POPC   PO424924   9.738  34.574   9.150
 6178POPC   GL124925   9.722  34.617   8.850
 6178POPC   GL224926   9.804  34.449   8.850
 6178POPC   C1A24927   9.763  34.610   8.550
 6178POPC   D2A24928   9.766  34.559   8.250
 6178POPC   C3A24929   9.792  34.613   7.950
 6178POPC   C4A24930   9.752  34.539   7.650
 6178POPC   C1B24931   9.880  34.357   8.550
 6178POPC   C2B24932   9.938  34.379   8.250
 6178POPC   C3B24933   9.914  34.380   7.950
 6178POPC   C4B24934   9.958  34.365   7.650
 6179POPC   NC324935  17.493  22.965   9.450
 6179POPC   PO424936  17.489  22.894   9.150
 6179POPC   GL124937  17.511  22.926   8.850
 6179POPC   GL224938  17.596  22.903   8.850
 6179POPC   C1A24939  17.528  22.911   8.550
 6179POPC   D2A24940  17.528  22.923   8.250
 6179POPC   C3A24941  17.479  22.975   7.950
 6179POPC   C4A24942  17.543  22.931   7.650
 6179POPC   C1B24943  17.677  22.817   8.550
 6179POPC   C2B24944  17.723  22.724   8.250
 6179POPC   C3B24945  17.684  22.761   7.950
 6179POPC   C4B24946  17.682  22.788   7.650
 6180POPC   NC324947  37.718   1.184   9.450
 6180POPC   PO424948  37.652   1.231   9.150
 6180POPC   GL124949  37.637   1.183   8.850
 6180POPC   GL224950  37.532   1.207   8.850
 6180POPC   C1A24951  37.697   1.219   8.550
 6180POPC   D2A24952  37.705   1.249   8.250
 6180POPC   C3A24953  37.700   1.184   7.950
 6180POPC   C4A24954  37.645   1.239   7.650
 6180POPC   C1B24955  37.406   1.223   8.550
 6180POPC   C2B24956  37.424   1.203   8.250
 6180POPC   C3B24957  37.441   1.192   7.950
 6180POPC   C4B24958  37.406   1.210   7.650
 6181POPC   NC324959  40.029  22.918   9.450
 6181POPC   PO424960  40.046  22.974   9.150
 6181POPC   GL124961  39.971  22.918   8.850
 6181POPC   GL224962  39.948  22.876   8.850
 6181POPC   C1A24963  39.963  22.939   8.550
 6181POPC   D2A24964  39.968  22.951   8.250
 6181POPC   C3A24965  40.014  22.896   7.950
 6181POPC   C4A24966  39.982  22.925   7.650
 6181POPC   C1B24967  39.786  22.795   8.550
 6181POPC   C2B24968  39.786  22.754   8.250
 6181POPC   C3B24969  39.766  22.744   7.950
 6181POPC   C4B24970  39.831  22.810   7.650
 6182POPC   NC324971  35.307   5.135   9.450
 6182POPC   PO424972  35.329   5.068   9.150
 6182POPC   GL124973  35.306   5.120   8.850
 6182POPC   GL224974  35.435   5.128   8.850
 6182POPC   C1A24975  35.332   5.072   8.550
 6182POPC   D2A24976  35.374   5.122   8.250
 6182POPC   C3A24977  35.378   5.070   7.950
 6182POPC   C4A24978  35.326   5.062   7.650
 6182POPC   C1B24979  35.534   5.170   8.550
 6182POPC   C2B24980  35.544   5.249   8.250
 6182POPC   C3B24981  35.579   5.213   7.950
 6182POPC   C4B24982  35.601   5.160   7.650
 6183POPC   NC324983   8.951  12.894   9.450
 6183POPC   PO424984   8.956  12.879   9.150
 6183POPC   GL124985   8.990  12.827   8.850
 6183POPC   GL224986   9.085  12.980   8.850
 6183POPC   C1A24987   8.985  12.836   8.550
 6183POPC   D2A24988   9.008  12.806   8.250
 6183POPC   C3A24989   9.019  12.806   7.950
 6183POPC   C4A24990   9.011  12.868   7.650
 6183POPC   C1B24991   9.127  13.072   8.550
 6183POPC   C2B24992   9.165  13.041   8.250
 6183POPC   C3B24993   9.143  13.017   7.950
 6183POPC   C4B24994   9.130  13.029   7.650
 6184POPC   NC324995  12.102  36.937   9.450
 6184POPC   PO424996  12.061  36.858   9.150
 6184POPC   GL124997  12.049  36.944   8.850
 6184POPC   GL224998  12.042  37.011   8.850
 6184POPC   C1A24999  12.111  36.950   8.550
 6184POPC   D2A25000  12.050  36.946   8.250
 6184POPC   C3A25001  12.093  36.904   7.950
 6184POPC   C4A25002  12.042  36.932   7.650
 6184POPC   C1B25003  11.982  37.165   8.550
 6184POPC   C2B25004  12.054  37.150   8.250
 6184POPC   C3B25005  12.039  37.173   7.950
 6184POPC   C4B25006  12.011  37.093   7.650
 6185POPC   NC325007  37.651  27.611   9.450
 6185POPC   PO425008  37.706  27.550   9.150
 6185POPC   GL125009  37.726  27.569   8.850
 6185POPC   GL225010  37.769  27.657   8.850
 6185POPC   C1A25011  37.684  27.549   8.550
 6185POPC   D2A25012  37.649  27.592   8.250
 6185POPC   C3A25013  37.690  27.576   7.950
 6185POPC   C4A25014  37.649  27.613   7.650
 6185POPC   C1B25015  37.897  27.803   8.550
 6185POPC   C2B25016  37.880  27.811   8.250
 6185POPC   C3B25017  37.835  27.732   7.950
 6185POPC   C4B25018  37.879  27.727   7.650
 6186POPC   NC325019  12.828  16.682   9.450
 6186POPC   PO425020  12.881  16.703   9.150
 6186POPC   GL125021  12.896  16.726   8.850
 6186POPC   GL225022  12.950  16.688   8.850
 6186POPC   C1A25023  12.891  16.720   8.550
 6186POPC   D2A25024  12.869  16.723   8.250
 6186POPC   C3A25025  12.884  16.733   7.950
 6186POPC   C4A25026  12.822  16.709   7.650
 6186POPC   C1B25027  13.054  16.543   8.550
 6186POPC   C2B25028  13.047  16.546   8.250
 6186POPC   C3B25029  13.056  16.549   7.950
 6186POPC   C4B25030  13.011  16.563   7.650
 6187POPC   NC325031  39.275  42.288   9.450
 6187POPC   PO425032  39.236  42.338   9.150
 6187POPC   GL125033  39.243  42.356   8.850
 6187POPC   GL225034  39.342  42.272   8.850
 6187POPC   C1A25035  39.212  42.362   8.550
 6187POPC   D2A25036  39.182  42.350   8.250
 6187POPC   C3A25037  39.216  42.337   7.950
 6187POPC   C4A25038  39.250  42.371   7.650
 6187POPC   C1B25039  39.481  42.262   8.550
 6187POPC   C2B25040  39.464  42.261   8.250
 6187POPC   C3B25041  39.476  42.211   7.950
 6187POPC   C4B25042  39.498  42.280   7.650
 6188POPC   NC325043  15.982  25.281   9.450
 6188POPC   PO425044  15.973  25.273   9.150
 6188POPC   GL125045  15.933  25.271   8.850
 6188POPC   GL225046  15.980  25.336   8.850
 6188POPC   C1A25047  15.972  25.218   8.550
 6188POPC   D2A25048  15.999  25.237   8.250
 6188POPC   C3A25049  15.979  25.290   7.950
 6188POPC   C4A25050  15.962  25.244   7.650
 6188POPC   C1B25051  16.046  25.458   8.550
 6188POPC   C2B25052  16.029  25.508   8.250
 6188POPC   C3B25053  16.018  25.535   7.950
 6188POPC   C4B25054  16.079  25.453   7.650
 6189POPC   NC325055  35.383  34.553   9.450
 6189POPC   PO425056  35.345  34.603   9.150
 6189POPC   GL125057  35.314  34.542   8.850
 6189POPC   GL225058  35.259  34.530   8.850
 6189POPC   C1A25059  35.395  34.537   8.550
 6189POPC   D2A25060  35.327  34.583   8.250
 6189POPC   C3A25061  35.363  34.533   7.950
 6189POPC   C4A25062  35.384  34.543   7.650
 6189POPC   C1B25063  35.100  34.553   8.550
 6189POPC   C2B25064  35.094  34.489   8.250
 6189POPC   C3B25065  35.109  34.516   7.950
 6189POPC   C4B25066  35.083  34.513   7.650
 6190POPC   NC325067  22.957  36.864   9.450
 6190POPC   PO425068  22.919  36.948   9.150
 6190POPC   GL125069  22.911  36.865   8.850
 6190POPC   GL225070  22.893  36.805   8.850
 6190POPC   C1A25071  22.955  36.929   8.550
 6190POPC   D2A25072  22.894  36.895   8.250
 6190POPC   C3A25073  22.983  36.888   7.950
 6190POPC   C4A25074  22.913  36.936   7.650
 6190POPC   C1B25075  22.898  36.668   8.550
 6190POPC   C2B25076  22.899  36.633   8.250
 6190POPC   C3B25077  22.883  36.623   7.950
 6190POPC   C4B25078  22.918  36.614   7.650
 6191POPC   NC325079  34.615  25.234   9.450
 6191POPC   PO425080  34.569  25.273   9.150
 6191POPC   GL125081  34.604  25.284   8.850
 6191POPC   GL225082  34.662  25.220   8.850
 6191POPC   C1A25083  34.616  25.267   8.550
 6191POPC   D2A25084  34.534  25.315   8.250
 6191POPC   C3A25085  34.542  25.224   7.950
 6191POPC   C4A25086  34.530  25.220   7.650
 6191POPC   C1B25087  34.839  25.246   8.550
 6191POPC   C2B25088  34.851  25.296   8.250
 6191POPC   C3B25089  34.846  25.252   7.950
 6191POPC   C4B25090  34.865  25.265   7.650
 6192POPC   NC325091  17.549  44.628   9.450
 6192POPC   PO425092  17.520  44.707   9.150
 6192POPC   GL125093  17.544  44.644   8.850
 6192POPC   GL225094  17.637  44.726   8.850
 6192POPC   C1A25095  17.529  44.621   8.550
 6192POPC   D2A25096  17.489  44.711   8.250
 6192POPC   C3A25097  17.557  44.642   7.950
 6192POPC   C4A25098  17.474  44.684   7.650
 6192POPC   C1B25099  17.763  44.704   8.550
 6192POPC   C2B25100  17.792  44.690   8.250
 6192POPC   C3B25101  17.707  44.683   7.950
 6192POPC   C4B25102  17.792  44.697   7.650
 6193POPC   NC325103  27.572   4.367   9.450
 6193POPC   PO425104  27.546   4.317   9.150
 6193POPC   GL125105  27.621   4.289   8.850
 6193POPC   GL225106  27.426   4.324   8.850
 6193POPC   C1A25107  27.637   4.364   8.550
 6193POPC   D2A25108  27.561   4.277   8.250
 6193POPC   C3A25109  27.566   4.327   7.950
 6193POPC   C4A25110  27.594   4.366   7.650
 6193POPC   C1B25111  27.380   4.311   8.550
 6193POPC   C2B25112  27.304   4.338   8.250
 6193POPC   C3B25113  27.386   4.373   7.950
 6193POPC   C4B25114  27.328   4.353   7.650
 6194POPC   NC325115  27.566   5.820   9.450
 6194POPC   PO425116  27.606   5.830   9.150
 6194POPC   GL125117  27.564   5.868   8.850
 6194POPC   GL225118  27.499   5.802   8.850
 6194POPC   C1A25119  27.571   5.861   8.550
 6194POPC   D2A25120  27.552   5.839   8.250
 6194POPC   C3A25121  27.593   5.828   7.950
 6194POPC   C4A25122  27.614   5.832   7.650
 6194POPC   C1B25123  27.382   5.804   8.550
 6194POPC   C2B25124  27.398   5.764   8.250
 6194POPC   C3B25125  27.384   5.793   7.950
 6194POPC   C4B25126  27.356   5.753   7.650
 6195POPC   NC325127  17.525  37.728   9.450
 6195POPC   PO425128  17.484  37.647   9.150
 6195POPC   GL125129  17.479  37.705   8.850
 6195POPC   GL225130  17.658  37.714   8.850
 6195POPC   C1A25131  17.503  37.725   8.550
 6195POPC   D2A25132  17.490  37.646   8.250
 6195POPC   C3A25133  17.540  37.716   7.950
 6195POPC   C4A25134  17.545  37.684   7.650
 6195POPC   C1B25135  17.718  37.808   8.550
 6195POPC   C2B25136  17.772  37.774   8.250
 6195POPC   C3B25137  17.750  37.764   7.950
 6195POPC   C4B25138  17.768  37.732   7.650
 6196POPC   NC325139  24.496  32.983   9.450
 6196POPC   PO425140  24.483  33.048   9.150
 6196POPC   GL125141  24.463  33.042   8.850
 6196POPC   GL225142  24.495  32.872   8.850
 6196POPC   C1A25143  24.454  33.020   8.550
 6196POPC   D2A25144  24.477  33.069   8.250
 6196POPC   C3A25145  24.514  33.013   7.950
 6196POPC   C4A25146  24.496  33.047   7.650
 6196POPC   C1B25147  24.566  32.791   8.550
 6196POPC   C2B25148  24.631  32.754   8.250
 6196POPC   C3B25149  24.591  32.794   7.950
 6196POPC   C4B25150  24.606  32.804   7.650
 6197POPC   NC325151  38.426   9.019   9.450
 6197POPC   PO425152  38.429   8.937   9.150
 6197POPC   GL125153  38.426   8.963   8.850
 6197POPC   GL225154  38.568   8.877   8.850
 6197POPC   C1A25155  38.422   8.993   8.550
 6197POPC   D2A25156  38.430   8.925   8.250
 6197POPC   C3A25157  38.446   8.937   7.950
 6197POPC   C4A25158  38.461   9.011   7.650
 6197POPC   C1B25159  38.628   8.747   8.550
 6197POPC   C2B25160  38.565   8.775   8.250
 6197POPC   C3B25161  38.556   8.734   7.950
 6197POPC   C4B25162  38.555   8.767   7.650
 6198POPC   NC325163  23.716  40.040   9.450
 6198POPC   PO425164  23.667  39.961   9.150
 6198POPC   GL125165  23.749  39.979   8.850
 6198POPC   GL225166  23.613  40.013   8.850
 6198POPC   C1A25167  23.731  40.034   8.550
 6198POPC   D2A25168  23.751  40.030   8.250
 6198POPC   C3A25169  23.759  39.968   7.950
 6198POPC   C4A25170  23.683  40.018   7.650
 6198POPC   C1B25171  23.493  39.997   8.550
 6198POPC   C2B25172  23.455  40.032   8.250
 6198POPC   C3B25173  23.428  40.024   7.950
 6198POPC   C4B25174  23.457  39.959   7.650
 6199POPC   NC325175  39.203  39.213   9.450
 6199POPC   PO425176  39.188  39.261   9.150
 6199POPC   GL125177  39.195  39.224   8.850
 6199POPC   GL225178  39.309  39.372   8.850
 6199POPC   C1A25179  39.208  39.276   8.550
 6199POPC   D2A25180  39.227  39.242   8.250
 6199POPC   C3A25181  39.260  39.191   7.950
 6199POPC   C4A25182  39.269  39.198   7.650
 6199POPC   C1B25183  39.386  39.430   8.550
 6199POPC   C2B25184  39.305  39.433   8.250
 6199POPC   C3B25185  39.381  39.421   7.950
 6199POPC   C4B25186  39.332  39.478   7.650
 6200POPC   NC325187  41.550  15.220   9.450
 6200POPC   PO425188  41.588  15.164   9.150
 6200POPC   GL125189  41.548  15.227   8.850
 6200POPC   GL225190  41.551  15.038   8.850
 6200POPC   C1A25191  41.543  15.153   8.550
 6200POPC   D2A25192  41.537  15.227   8.250
 6200POPC   C3A25193  41.522  15.198   7.950
 6200POPC   C4A25194  41.557  15.223   7.650
 6200POPC   C1B25195  41.487  14.920   8.550
 6200POPC   C2B25196  41.509  14.975   8.250
 6200POPC   C3B25197  41.475  14.912   7.950
 6200POPC   C4B25198  41.506  14.956   7.650
 6201POPC   NC325199   1.191   5.865   9.450
 6201POPC   PO425200   1.227   5.917   9.150
 6201POPC   GL125201   1.172   5.890   8.850
 6201POPC   GL225202   1.197   5.982   8.850
 6201POPC   C1A25203   1.188   5.821   8.550
 6201POPC   D2A25204   1.222   5.888   8.250
 6201POPC   C3A25205   1.260   5.906   7.950
 6201POPC   C4A25206   1.211   5.878   7.650
 6201POPC   C1B25207   1.095   6.123   8.550
 6201POPC   C2B25208   1.190   6.106   8.250
 6201POPC   C3B25209   1.183   6.102   7.950
 6201POPC   C4B25210   1.107   6.157   7.650
 6202POPC   NC325211   9.782  38.500   9.450
 6202POPC   PO425212   9.740  38.489   9.150
 6202POPC   GL125213   9.741  38.502   8.850
 6202POPC   GL225214   9.748  38.350   8.850
 6202POPC   C1A25215   9.716  38.438   8.550
 6202POPC   D2A25216   9.756  38.417   8.250
 6202POPC   C3A25217   9.776  38.472   7.950
 6202POPC   C4A25218   9.795  38.468   7.650
 6202POPC   C1B25219   9.653  38.180   8.550
 6202POPC   C2B25220   9.636  38.246   8.250
 6202POPC   C3B25221   9.665  38.211   7.950
 6202POPC   C4B25222   9.672  38.254   7.650
 6203POPC   NC325223  43.862  12.896   9.450
 6203POPC   PO425224  43.890  12.852   9.150
 6203POPC   GL125225  43.888  12.808   8.850
 6203POPC   GL225226  44.006  12.764   8.850
 6203POPC   C1A25227  43.883  12.873   8.550
 6203POPC   D2A25228  43.862  12.835   8.250
 6203POPC   C3A25229  43.845  12.870   7.950
 6203POPC   C4A25230  43.868  12.868   7.650
 6203POPC   C1B25231  44.093  12.680   8.550
 6203POPC   C2B25232  44.046  12.750   8.250
 6203POPC   C3B25233  44.041  12.744   7.950
 6203POPC   C4B25234  44.128  12.737   7.650
 6204POPC   NC325235  29.187  39.966   9.450
 6204POPC   PO425236  29.170  39.965   9.150
 6204POPC   GL125237  29.142  40.000   8.850
 6204POPC   GL225238  29.131  40.142   8.850
 6204POPC   C1A25239  29.167  39.998   8.550
 6204POPC   D2A25240  29.128  40.045   8.250
 6204POPC   C3A25241  29.099  40.021   7.950
 6204POPC   C4A25242  29.176  39.974   7.650
 6204POPC   C1B25243  29.206  40.304   8.550
 6204POPC   C2B25244  29.197  40.213   8.250
 6204POPC   C3B25245  29.173  40.228   7.950
 6204POPC   C4B25246  29.174  40.250   7.650
 6205POPC   NC325247   5.910  27.563   9.450
 6205POPC   PO425248   5.855  27.604   9.150
 6205POPC   GL125249   5.846  27.590   8.850
 6205POPC   GL225250   5.773  27.689   8.850
 6205POPC   C1A25251   5.831  27.602   8.550
 6205POPC   D2A25252   5.830  27.630   8.250
 6205POPC   C3A25253   5.910  27.545   7.950
 6205POPC   C4A25254   5.859  27.635   7.650
 6205POPC   C1B25255   5.769  27.840   8.550
 6205POPC   C2B25256   5.737  27.835   8.250
 6205POPC   C3B25257   5.777  27.773   7.950
 6205POPC   C4B25258   5.696  27.776   7.650
 6206POPC   NC325259  24.459  26.073   9.450
 6206POPC   PO425260  24.495  26.014   9.150
 6206POPC   GL125261  24.507  26.053   8.850
 6206POPC   GL225262  24.643  26.071   8.850
 6206POPC   C1A25263  24.495  26.016   8.550
 6206POPC   D2A25264  24.517  26.038   8.250
 6206POPC   C3A25265  24.528  26.055   7.950
 6206POPC   C4A25266  24.480  26.022   7.650
 6206POPC   C1B25267  24.747  26.130   8.550
 6206POPC   C2B25268  24.716  26.170   8.250
 6206POPC   C3B25269  24.713  26.200   7.950
 6206POPC   C4B25270  24.665  26.189   7.650
 6207POPC   NC325271   5.132   0.422   9.450
 6207POPC   PO425272   5.139   0.433   9.150
 6207POPC   GL125273   5.111   0.443   8.850
 6207POPC   GL225274   5.152   0.509   8.850
 6207POPC   C1A25275   5.052   0.458   8.550
 6207POPC   D2A25276   5.079   0.397   8.250
 6207POPC   C3A25277   5.124   0.405   7.950
 6207POPC   C4A25278   5.120   0.392   7.650
 6207POPC   C1B25279   5.309   0.630   8.550
 6207POPC   C2B25280   5.290   0.561   8.250
 6207POPC   C3B25281   5.298   0.609   7.950
 6207POPC   C4B25282   5.281   0.535   7.650
 6208POPC   NC325283   2.017  22.197   9.450
 6208POPC   PO425284   2.038  22.185   9.150
 6208POPC   GL125285   1.999  22.132   8.850
 6208POPC   GL225286   1.968  22.280   8.850
 6208POPC   C1A25287   2.016  22.162   8.550
 6208POPC   D2A25288   1.949  22.145   8.250
 6208POPC   C3A25289   2.039  22.124   7.950
 6208POPC   C4A25290   1.954  22.142   7.650
 6208POPC   C1B25291   1.858  22.357   8.550
 6208POPC   C2B25292   1.856  22.383   8.250
 6208POPC   C3B25293   1.921  22.376   7.950
 6208POPC   C4B25294   1.884  22.346   7.650
 6209POPC   NC325295  23.725   1.252   9.450
 6209POPC   PO425296  23.746   1.196   9.150
 6209POPC   GL125297  23.758   1.185   8.850
 6209POPC   GL225298  23.693   1.107   8.850
 6209POPC   C1A25299  23.669   1.177   8.550
 6209POPC   D2A25300  23.717   1.203   8.250
 6209POPC   C3A25301  23.671   1.238   7.950
 6209POPC   C4A25302  23.731   1.246   7.650
 6209POPC   C1B25303  23.654   1.036   8.550
 6209POPC   C2B25304  23.621   1.000   8.250
 6209POPC   C3B25305  23.657   0.995   7.950
 6209POPC   C4B25306  23.605   0.942   7.650
 6210POPC   NC325307  18.327   3.549   9.450
 6210POPC   PO425308  18.292   3.540   9.150
 6210POPC   GL125309  18.290   3.578   8.850
 6210POPC   GL225310  18.178   3.601   8.850
 6210POPC   C1A25311  18.302   3.544   8.550
 6210POPC   D2A25312  18.244   3.517   8.250
 6210POPC   C3A25313  18.333   3.558   7.950
 6210POPC   C4A25314  18.280   3.496   7.650
 6210POPC   C1B25315  18.087   3.780   8.550
 6210POPC   C2B25316  18.176   3.711   8.250
 6210POPC   C3B25317  18.127   3.697   7.950
 6210POPC   C4B25318  18.162   3.708   7.650
 6211POPC   NC325319  12.042   8.232   9.450
 6211POPC   PO425320  12.045   8.208   9.150
 6211POPC   GL125321  12.044   8.220   8.850
 6211POPC   GL225322  12.024   8.292   8.850
 6211POPC   C1A25323  12.077   8.202   8.550
 6211POPC   D2A25324  12.032   8.170   8.250
 6211POPC   C3A25325  12.041   8.241   7.950
 6211POPC   C4A25326  12.078   8.204   7.650
 6211POPC   C1B25327  11.972   8.427   8.550
 6211POPC   C2B25328  11.934   8.426   8.250
 6211POPC   C3B25329  11.987   8.370   7.950
 6211POPC   C4B25330  11.995   8.404   7.650
 6212POPC   NC325331  36.928   1.975   9.450
 6212POPC   PO425332  36.899   2.021   9.150
 6212POPC   GL125333  36.921   2.015   8.850
 6212POPC   GL225334  36.739   1.998   8.850
 6212POPC   C1A25335  36.865   1.942   8.550
 6212POPC   D2A25336  36.874   2.001   8.250
 6212POPC   C3A25337  36.908   1.971   7.950
 6212POPC   C4A25338  36.926   1.990   7.650
 6212POPC   C1B25339  36.692   2.080   8.550
 6212POPC   C2B25340  36.640   2.094   8.250
 6212POPC   C3B25341  36.674   2.074   7.950
 6212POPC   C4B25342  36.661   2.079   7.650
 6213POPC   NC325343  31.434  43.157   9.450
 6213POPC   PO425344  31.457  43.068   9.150
 6213POPC   GL125345  31.510  43.087   8.850
 6213POPC   GL225346  31.361  43.002   8.850
 6213POPC   C1A25347  31.519  43.063   8.550
 6213POPC   D2A25348  31.459  43.063   8.250
 6213POPC   C3A25349  31.504  43.137   7.950
 6213POPC   C4A25350  31.453  43.122   7.650
 6213POPC   C1B25351  31.300  42.969   8.550
 6213POPC   C2B25352  31.325  42.933   8.250
 6213POPC   C3B25353  31.229  42.951   7.950
 6213POPC   C4B25354  31.320  42.923   7.650
 6214POPC   NC325355   1.983  12.051   9.450
 6214POPC   PO425356   2.006  12.067   9.150
 6214POPC   GL125357   1.967  12.034   8.850
 6214POPC   GL225358   1.955  12.203   8.850
 6214POPC   C1A25359   1.974  12.123   8.550
 6214POPC   D2A25360   1.959  12.090   8.250
 6214POPC   C3A25361   1.984  12.120   7.950
 6214POPC   C4A25362   2.010  12.078   7.650
 6214POPC   C1B25363   1.942  12.319   8.550
 6214POPC   C2B25364   1.978  12.276   8.250
 6214POPC   C3B25365   2.014  12.295   7.950
 6214POPC   C4B25366   1.992  12.342   7.650
 6215POPC   NC325367   5.117  25.270   9.450
 6215POPC   PO425368   5.055  25.246   9.150
 6215POPC   GL125369   5.119  25.225   8.850
 6215POPC   GL225370   5.234  25.291   8.850
 6215POPC   C1A25371   5.097  25.288   8.550
 6215POPC   D2A25372   5.125  25.299   8.250
 6215POPC   C3A25373   5.080  25.272   7.950
 6215POPC   C4A25374   5.067  25.283   7.650
 6215POPC   C1B25375   5.324  25.400   8.550
 6215POPC   C2B25376   5.324  25.317   8.250
 6215POPC   C3B25377   5.299  25.399   7.950
 6215POPC   C4B25378   5.298  25.386   7.650
 6216POPC   NC325379  26.039  12.038   9.450
 6216POPC   PO425380  26.045  12.077   9.150
 6216POPC   GL125381  26.019  12.109   8.850
 6216POPC   GL225382  26.080  11.942   8.850
 6216POPC   C1A25383  26.059  12.095   8.550
 6216POPC   D2A25384  26.041  12.070   8.250
 6216POPC   C3A25385  26.070  12.040   7.950
 6216POPC   C4A25386  26.049  12.088   7.650
 6216POPC   C1B25387  26.137  11.828   8.550
 6216POPC   C2B25388  26.168  11.864   8.250
 6216POPC   C3B25389  26.145  11.826   7.950
 6216POPC   C4B25390  26.199  11.850   7.650
 6217POPC   NC325391  43.097  25.242   9.450
 6217POPC   PO425392  43.109  25.272   9.150
 6217POPC   GL125393  43.080  25.293   8.850
 6217POPC   GL225394  43.245  25.240   8.850
 6217POPC   C1A25395  43.132  25.280   8.550
 6217POPC   D2A25396  43.138  25.307   8.250
 6217POPC   C3A25397  43.096  25.258   7.950
 6217POPC   C4A25398  43.147  25.225   7.650
 6217POPC   C1B25399  43.374  25.303   8.550
 6217POPC   C2B25400  43.385  25.324   8.250
 6217POPC   C3B25401  43.325  25.312   7.950
 6217POPC   C4B25402  43.394  25.240   7.650
 6218POPC   NC325403  36.127  32.227   9.450
 6218POPC   PO425404  36.173  32.223   9.150
 6218POPC   GL125405  36.102  32.198   8.850
 6218POPC   GL225406  35.954  32.292   8.850
 6218POPC   C1A25407  36.099  32.257   8.550
 6218POPC   D2A25408  36.177  32.230   8.250
 6218POPC   C3A25409  36.147  32.225   7.950
 6218POPC   C4A25410  36.175  32.210   7.650
 6218POPC   C1B25411  35.845  32.208   8.550
 6218POPC   C2B25412  35.865  32.279   8.250
 6218POPC   C3B25413  35.873  32.294   7.950
 6218POPC   C4B25414  35.866  32.245   7.650
 6219POPC   NC325415  32.242  21.406   9.450
 6219POPC   PO425416  32.228  21.372   9.150
 6219POPC   GL125417  32.225  21.370   8.850
 6219POPC   GL225418  32.231  21.235   8.850
 6219POPC   C1A25419  32.248  21.382   8.550
 6219POPC   D2A25420  32.220  21.434   8.250
 6219POPC   C3A25421  32.205  21.414   7.950
 6219POPC   C4A25422  32.243  21.362   7.650
 6219POPC   C1B25423  32.311  21.149   8.550
 6219POPC   C2B25424  32.307  21.154   8.250
 6219POPC   C3B25425  32.284  21.104   7.950
 6219POPC   C4B25426  32.277  21.093   7.650
 6220POPC   NC325427  33.764  21.408   9.450
 6220POPC   PO425428  33.821  21.418   9.150
 6220POPC   GL125429  33.835  21.356   8.850
 6220POPC   GL225430  33.701  21.462   8.850
 6220POPC   C1A25431  33.816  21.427   8.550
 6220POPC   D2A25432  33.841  21.373   8.250
 6220POPC   C3A25433  33.828  21.389   7.950
 6220POPC   C4A25434  33.836  21.419   7.650
 6220POPC   C1B25435  33.572  21.475   8.550
 6220POPC   C2B25436  33.587  21.406   8.250
 6220POPC   C3B25437  33.555  21.436   7.950
 6220POPC   C4B25438  33.532  21.446   7.650
 6221POPC   NC325439  10.561  32.991   9.450
 6221POPC   PO425440  10.558  33.049   9.150
 6221POPC   GL125441  10.492  33.066   8.850
 6221POPC   GL225442  10.573  32.857   8.850
 6221POPC   C1A25443  10.569  33.070   8.550
 6221POPC   D2A25444  10.504  33.052   8.250
 6221POPC   C3A25445  10.530  32.995   7.950
 6221POPC   C4A25446  10.567  32.977   7.650
 6221POPC   C1B25447  10.532  32.777   8.550
 6221POPC   C2B25448  10.529  32.781   8.250
 6221POPC   C3B25449  10.581  32.819   7.950
 6221POPC   C4B25450  10.551  32.766   7.650
 6222POPC   NC325451  12.830   7.458   9.450
 6222POPC   PO425452  12.883   7.403   9.150
 6222POPC   GL125453  12.865   7.405   8.850
 6222POPC   GL225454  12.755   7.408   8.850
 6222POPC   C1A25455  12.833   7.462   8.550
 6222POPC   D2A25456  12.841   7.464   8.250
 6222POPC   C3A25457  12.855   7.448   7.950
 6222POPC   C4A25458  12.804   7.433   7.650
 6222POPC   C1B25459  12.612   7.443   8.550
 6222POPC   C2B25460  12.580   7.378   8.250
 6222POPC   C3B25461  12.571   7.366   7.950
 6222POPC   C4B25462  12.646   7.438   7.650
 6223POPC   NC325463  14.441  15.217   9.450
 6223POPC   PO425464  14.389  15.150   9.150
 6223POPC   GL125465  14.397  15.187   8.850
 6223POPC   GL225466  14.360  15.050   8.850
 6223POPC   C1A25467  14.359  15.202   8.550
 6223POPC   D2A25468  14.443  15.216   8.250
 6223POPC   C3A25469  14.408  15.193   7.950
 6223POPC   C4A25470  14.370  15.210   7.650
 6223POPC   C1B25471  14.463  14.888   8.550
 6223POPC   C2B25472  14.398  14.969   8.250
 6223POPC   C3B25473  14.371  14.893   7.950
 6223POPC   C4B25474  14.394  14.956   7.650
 6224POPC   NC325475  26.045   9.004   9.450
 6224POPC   PO425476  26.055   8.989   9.150
 6224POPC   GL125477  26.016   8.948   8.850
 6224POPC   GL225478  26.070   9.074   8.850
 6224POPC   C1A25479  26.017   8.993   8.550
 6224POPC   D2A25480  26.040   8.976   8.250
 6224POPC   C3A25481  26.071   9.019   7.950
 6224POPC   C4A25482  25.995   8.945   7.650
 6224POPC   C1B25483  26.124   9.257   8.550
 6224POPC   C2B25484  26.085   9.227   8.250
 6224POPC   C3B25485  26.127   9.182   7.950
 6224POPC   C4B25486  26.117   9.185   7.650
 6225POPC   NC325487   1.994   8.221   9.450
 6225POPC   PO425488   2.039   8.223   9.150
 6225POPC   GL125489   1.946   8.233   8.850
 6225POPC   GL225490   2.084   8.296   8.850
 6225POPC   C1A25491   1.987   8.244   8.550
 6225POPC   D2A25492   1.986   8.195   8.250
 6225POPC   C3A25493   1.989   8.195   7.950
 6225POPC   C4A25494   1.968   8.190   7.650
 6225POPC   C1B25495   2.100   8.406   8.550
 6225POPC   C2B25496   2.082   8.388   8.250
 6225POPC   C3B25497   2.164   8.450   7.950
 6225POPC   C4B25498   2.078   8.386   7.650
 6226POPC   NC325499  23.759   5.862   9.450
 6226POPC   PO425500  23.752   5.819   9.150
 6226POPC   GL125501  23.749   5.883   8.850
 6226POPC   GL225502  23.807   5.876   8.850
 6226POPC   C1A25503  23.752   5.838   8.550
 6226POPC   D2A25504  23.724   5.830   8.250
 6226POPC   C3A25505  23.735   5.861   7.950
 6226POPC   C4A25506  23.740   5.858   7.650
 6226POPC   C1B25507  23.980   5.972   8.550
 6226POPC   C2B25508  23.987   5.945   8.250
 6226POPC   C3B25509  23.961   5.932   7.950
 6226POPC   C4B25510  23.972   5.971   7.650
 6227POPC   NC325511   1.941  29.963   9.450
 6227POPC   PO425512   2.008  29.903   9.150
 6227POPC   GL125513   1.954  29.904   8.850
 6227POPC   GL225514   1.951  30.031   8.850
 6227POPC   C1A25515   2.017  29.871   8.550
 6227POPC   D2A25516   1.970  29.904   8.250
 6227POPC   C3A25517   1.972  29.967   7.950
 6227POPC   C4A25518   1.952  29.905   7.650
 6227POPC   C1B25519   1.980  30.203   8.550
 6227POPC   C2B25520   2.003  30.202   8.250
 6227POPC   C3B25521   1.951  30.196   7.950
 6227POPC   C4B25522   1.906  30.175   7.650
 6228POPC   NC325523  30.732  41.588   9.450
 6228POPC   PO425524  30.660  41.587   9.150
 6228POPC   GL125525  30.687  41.597   8.850
 6228POPC   GL225526  30.636  41.677   8.850
 6228POPC   C1A25527  30.700  41.594   8.550
 6228POPC   D2A25528  30.658  41.565   8.250
 6228POPC   C3A25529  30.671  41.605   7.950
 6228POPC   C4A25530  30.658  41.596   7.650
 6228POPC   C1B25531  30.608  41.827   8.550
 6228POPC   C2B25532  30.592  41.764   8.250
 6228POPC   C3B25533  30.593  41.818   7.950
 6228POPC   C4B25534  30.582  41.798   7.650
 6229POPC   NC325535   2.732  40.000   9.450
 6229POPC   PO425536   2.767  39.957   9.150
 6229POPC   GL125537   2.762  40.022   8.850
 6229POPC   GL225538   2.787  40.150   8.850
 6229POPC   C1A25539   2.734  40.035   8.550
 6229POPC   D2A25540   2.789  40.044   8.250
 6229POPC   C3A25541   2.727  39.960   7.950
 6229POPC   C4A25542   2.745  40.043   7.650
 6229POPC   C1B25543   2.804  40.219   8.550
 6229POPC   C2B25544   2.825  40.241   8.250
 6229POPC   C3B25545   2.816  40.281   7.950
 6229POPC   C4B25546   2.764  40.230   7.650
 6230POPC   NC325547  39.204  23.699   9.450
 6230POPC   PO425548  39.206  23.707   9.150
 6230POPC   GL125549  39.261  23.721   8.850
 6230POPC   GL225550  39.376  23.747   8.850
 6230POPC   C1A25551  39.198  23.689   8.550
 6230POPC   D2A25552  39.267  23.745   8.250
 6230POPC   C3A25553  39.190  23.671   7.950
 6230POPC   C4A25554  39.264  23.733   7.650
 6230POPC   C1B25555  39.481  23.761   8.550
 6230POPC   C2B25556  39.460  23.780   8.250
 6230POPC   C3B25557  39.517  23.754   7.950
 6230POPC   C4B25558  39.521  23.767   7.650
 6231POPC   NC325559   1.949   1.184   9.450
 6231POPC   PO425560   2.011   1.165   9.150
 6231POPC   GL125561   2.018   1.254   8.850
 6231POPC   GL225562   2.087   1.301   8.850
 6231POPC   C1A25563   1.999   1.193   8.550
 6231POPC   D2A25564   1.971   1.164   8.250
 6231POPC   C3A25565   1.943   1.197   7.950
 6231POPC   C4A25566   1.964   1.241   7.650
 6231POPC   C1B25567   2.132   1.450   8.550
 6231POPC   C2B25568   2.173   1.427   8.250
 6231POPC   C3B25569   2.123   1.395   7.950
 6231POPC   C4B25570   2.183   1.369   7.650
 6232POPC   NC325571  36.103  29.105   9.450
 6232POPC   PO425572  36.159  29.122   9.150
 6232POPC   GL125573  36.116  29.104   8.850
 6232POPC   GL225574  36.226  29.133   8.850
 6232POPC   C1A25575  36.109  29.108   8.550
 6232POPC   D2A25576  36.103  29.153   8.250
 6232POPC   C3A25577  36.118  29.150   7.950
 6232POPC   C4A25578  36.124  29.138   7.650
 6232POPC   C1B25579  36.339  29.124   8.550
 6232POPC   C2B25580  36.345  29.108   8.250
 6232POPC   C3B25581  36.326  29.073   7.950
 6232POPC   C4B25582  36.376  29.112   7.650
 6233POPC   NC325583   6.638  29.186   9.450
 6233POPC   PO425584   6.667  29.119   9.150
 6233POPC   GL125585   6.616  29.124   8.850
 6233POPC   GL225586   6.780  29.177   8.850
 6233POPC   C1A25587   6.618  29.166   8.550
 6233POPC   D2A25588   6.679  29.113   8.250
 6233POPC   C3A25589   6.645  29.099   7.950
 6233POPC   C4A25590   6.607  29.184   7.650
 6233POPC   C1B25591   6.874  29.235   8.550
 6233POPC   C2B25592   6.889  29.211   8.250
 6233POPC   C3B25593   6.903  29.232   7.950
 6233POPC   C4B25594   6.917  29.221   7.650
 6234POPC   NC325595  37.690  25.242   9.450
 6234POPC   PO425596  37.695  25.279   9.150
 6234POPC   GL125597  37.712  25.287   8.850
 6234POPC   GL225598  37.552  25.237   8.850
 6234POPC   C1A25599  37.666  25.242   8.550
 6234POPC   D2A25600  37.655  25.273   8.250
 6234POPC   C3A25601  37.705  25.278   7.950
 6234POPC   C4A25602  37.637  25.249   7.650
 6234POPC   C1B25603  37.443  25.150   8.550
 6234POPC   C2B25604  37.459  25.138   8.250
 6234POPC   C3B25605  37.417  25.173   7.950
 6234POPC   C4B25606  37.478  25.193   7.650
 6235POPC   NC325607  10.560  20.567   9.450
 6235POPC   PO425608  10.536  20.626   9.150
 6235POPC   GL125609  10.480  20.615   8.850
 6235POPC   GL225610  10.417  20.527   8.850
 6235POPC   C1A25611  10.479  20.602   8.550
 6235POPC   D2A25612  10.541  20.616   8.250
 6235POPC   C3A25613  10.508  20.595   7.950
 6235POPC   C4A25614  10.503  20.560   7.650
 6235POPC   C1B25615  10.455  20.414   8.550
 6235POPC   C2B25616  10.387  20.386   8.250
 6235POPC   C3B25617  10.358  20.407   7.950
 6235POPC   C4B25618  10.424  20.343   7.650
 6236POPC   NC325619  31.479   1.988   9.450
 6236POPC   PO425620  31.465   1.952   9.150
 6236POPC   GL125621  31.496   2.014   8.850
 6236POPC   GL225622  31.429   2.146   8.850
 6236POPC   C1A25623  31.479   1.988   8.550
 6236POPC   D2A25624  31.434   2.015   8.250
 6236POPC   C3A25625  31.458   2.016   7.950
 6236POPC   C4A25626  31.430   1.966   7.650
 6236POPC   C1B25627  31.339   2.250   8.550
 6236POPC   C2B25628  31.364   2.202   8.250
 6236POPC   C3B25629  31.340   2.187   7.950
 6236POPC   C4B25630  31.374   2.242   7.650
 6237POPC   NC325631  32.296  20.566   9.450
 6237POPC   PO425632  32.208  20.601   9.150
 6237POPC   GL125633  32.200  20.652   8.850
 6237POPC   GL225634  32.205  20.706   8.850
 6237POPC   C1A25635  32.272  20.594   8.550
 6237POPC   D2A25636  32.243  20.614   8.250
 6237POPC   C3A25637  32.270  20.582   7.950
 6237POPC   C4A25638  32.201  20.567   7.650
 6237POPC   C1B25639  32.173  20.824   8.550
 6237POPC   C2B25640  32.206  20.832   8.250
 6237POPC   C3B25641  32.177  20.825   7.950
 6237POPC   C4B25642  32.236  20.867   7.650
 6238POPC   NC325643  29.158   2.740   9.450
 6238POPC   PO425644  29.176   2.728   9.150
 6238POPC   GL125645  29.138   2.765   8.850
 6238POPC   GL225646  29.234   2.659   8.850
 6238POPC   C1A25647  29.179   2.749   8.550
 6238POPC   D2A25648  29.123   2.787   8.250
 6238POPC   C3A25649  29.174   2.783   7.950
 6238POPC   C4A25650  29.134   2.783   7.650
 6238POPC   C1B25651  29.330   2.618   8.550
 6238POPC   C2B25652  29.307   2.548   8.250
 6238POPC   C3B25653  29.309   2.606   7.950
 6238POPC   C4B25654  29.349   2.560   7.650
 6239POPC   NC325655  31.492   5.918   9.450
 6239POPC   PO425656  31.452   5.876   9.150
 6239POPC   GL125657  31.475   5.915   8.850
 6239POPC   GL225658  31.554   5.967   8.850
 6239POPC   C1A25659  31.446   5.849   8.550
 6239POPC   D2A25660  31.428   5.896   8.250
 6239POPC   C3A25661  31.445   5.911   7.950
 6239POPC   C4A25662  31.441   5.868   7.650
 6239POPC   C1B25663  31.627   6.053   8.550
 6239POPC   C2B25664  31.656   6.001   8.250
 6239POPC   C3B25665  31.664   6.005   7.950
 6239POPC   C4B25666  31.685   6.009   7.650
 6240POPC   NC325667  17.535   6.638   9.450
 6240POPC   PO425668  17.488   6.610   9.150
 6240POPC   GL125669  17.552   6.628   8.850
 6240POPC   GL225670  17.459   6.816   8.850
 6240POPC   C1A25671  17.473   6.650   8.550
 6240POPC   D2A25672  17.541   6.605   8.250
 6240POPC   C3A25673  17.541   6.613   7.950
 6240POPC   C4A25674  17.542   6.603   7.650
 6240POPC   C1B25675  17.420   6.909   8.550
 6240POPC   C2B25676  17.418   6.889   8.250
 6240POPC   C3B25677  17.487   6.903   7.950
 6240POPC   C4B25678  17.435   6.862   7.650
 6241POPC   NC325679  41.548  23.721   9.450
 6241POPC   PO425680  41.522  23.724   9.150
 6241POPC   GL125681  41.539  23.679   8.850
 6241POPC   GL225682  41.434  23.640   8.850
 6241POPC   C1A25683  41.546  23.708   8.550
 6241POPC   D2A25684  41.537  23.756   8.250
 6241POPC   C3A25685  41.561  23.739   7.950
 6241POPC   C4A25686  41.576  23.691   7.650
 6241POPC   C1B25687  41.285  23.652   8.550
 6241POPC   C2B25688  41.277  23.608   8.250
 6241POPC   C3B25689  41.288  23.640   7.950
 6241POPC   C4B25690  41.310  23.648   7.650
 6242POPC   NC325691  28.361  12.079   9.450
 6242POPC   PO425692  28.350  12.114   9.150
 6242POPC   GL125693  28.414  12.125   8.850
 6242POPC   GL225694  28.476  12.110   8.850
 6242POPC   C1A25695  28.348  12.117   8.550
 6242POPC   D2A25696  28.415  12.044   8.250
 6242POPC   C3A25697  28.374  12.072   7.950
 6242POPC   C4A25698  28.362  12.089   7.650
 6242POPC   C1B25699  28.615  12.045   8.550
 6242POPC   C2B25700  28.636  12.117   8.250
 6242POPC   C3B25701  28.625  12.128   7.950
 6242POPC   C4B25702  28.587  12.098   7.650
 6243POPC   NC325703   2.000  11.261   9.450
 6243POPC   PO425704   1.949  11.308   9.150
 6243POPC   GL125705   1.975  11.328   8.850
 6243POPC   GL225706   1.833  11.347   8.850
 6243POPC   C1A25707   1.985  11.343   8.550
 6243POPC   D2A25708   1.985  11.307   8.250
 6243POPC   C3A25709   1.959  11.310   7.950
 6243POPC   C4A25710   1.989  11.280   7.650
 6243POPC   C1B25711   1.731  11.352   8.550
 6243POPC   C2B25712   1.742  11.400   8.250
 6243POPC   C3B25713   1.714  11.417   7.950
 6243POPC   C4B25714   1.741  11.414   7.650
 6244POPC   NC325715  39.201   2.795   9.450
 6244POPC   PO425716  39.245   2.808   9.150
 6244POPC   GL125717  39.235   2.741   8.850
 6244POPC   GL225718  39.091   2.754   8.850
 6244POPC   C1A25719  39.214   2.802   8.550
 6244POPC   D2A25720  39.182   2.808   8.250
 6244POPC   C3A25721  39.208   2.724   7.950
 6244POPC   C4A25722  39.275   2.784   7.650
 6244POPC   C1B25723  38.942   2.791   8.550
 6244POPC   C2B25724  38.977   2.797   8.250
 6244POPC   C3B25725  39.009   2.794   7.950
 6244POPC   C4B25726  38.985   2.770   7.650
 6245POPC   NC325727  43.928  24.524   9.450
 6245POPC   PO425728  43.841  24.520   9.150
 6245POPC   GL125729  43.879  24.504   8.850
 6245POPC   GL225730  43.923  24.378   8.850
 6245POPC   C1A25731  43.857  24.454   8.550
 6245POPC   D2A25732  43.882  24.472   8.250
 6245POPC   C3A25733  43.869  24.443   7.950
 6245POPC   C4A25734  43.838  24.482   7.650
 6245POPC   C1B25735  43.968  24.253   8.550
 6245POPC   C2B25736  44.059  24.278   8.250
 6245POPC   C3B25737  43.974  24.274   7.950
 6245POPC   C4B25738  43.974  24.251   7.650
 6246POPC   NC325739  44.690  19.071   9.450
 6246POPC   PO425740  44.664  19.076   9.150
 6246POPC   GL125741  44.617  19.088   8.850
 6246POPC   GL225742  44.823  19.096   8.850
 6246POPC   C1A25743  44.666  19.060   8.550
 6246POPC   D2A25744  44.647  19.074   8.250
 6246POPC   C3A25745  44.649  19.020   7.950
 6246POPC   C4A25746  44.657  19.034   7.650
 6246POPC   C1B25747  44.858  19.125   8.550
 6246POPC   C2B25748  44.922  19.118   8.250
 6246POPC   C3B25749  44.925  19.117   7.950
 6246POPC   C4B25750  44.923  19.195   7.650
 6247POPC   NC325751  39.276  16.731   9.450
 6247POPC   PO425752  39.274  16.716   9.150
 6247POPC   GL125753  39.194  16.695   8.850
 6247POPC   GL225754  39.315  16.690   8.850
 6247POPC   C1A25755  39.234  16.727   8.550
 6247POPC   D2A25756  39.187  16.773   8.250
 6247POPC   C3A25757  39.227  16.727   7.950
 6247POPC   C4A25758  39.193  16.763   7.650
 6247POPC   C1B25759  39.443  16.662   8.550
 6247POPC   C2B25760  39.485  16.709   8.250
 6247POPC   C3B25761  39.433  16.706   7.950
 6247POPC   C4B25762  39.473  16.699   7.650
 6248POPC   NC325763  12.870  19.083   9.450
 6248POPC   PO425764  12.898  19.054   9.150
 6248POPC   GL125765  12.842  19.025   8.850
 6248POPC   GL225766  12.831  19.179   8.850
 6248POPC   C1A25767  12.902  19.105   8.550
 6248POPC   D2A25768  12.887  19.081   8.250
 6248POPC   C3A25769  12.864  19.015   7.950
 6248POPC   C4A25770  12.807  19.053   7.650
 6248POPC   C1B25771  12.825  19.286   8.550
 6248POPC   C2B25772  12.851  19.318   8.250
 6248POPC   C3B25773  12.797  19.304   7.950
 6248POPC   C4B25774  12.801  19.331   7.650
 6249POPC   NC325775   2.785  20.574   9.450
 6249POPC   PO425776   2.740  20.620   9.150
 6249POPC   GL125777   2.788  20.569   8.850
 6249POPC   GL225778   2.696  20.647   8.850
 6249POPC   C1A25779   2.726  20.611   8.550
 6249POPC   D2A25780   2.807  20.654   8.250
 6249POPC   C3A25781   2.730  20.587   7.950
 6249POPC   C4A25782   2.736  20.630   7.650
 6249POPC   C1B25783   2.554  20.792   8.550
 6249POPC   C2B25784   2.538  20.741   8.250
 6249POPC   C3B25785   2.565  20.717   7.950
 6249POPC   C4B25786   2.513  20.778   7.650
 6250POPC   NC325787  19.864  23.736   9.450
 6250POPC   PO425788  19.856  23.705   9.150
 6250POPC   GL125789  19.850  23.713   8.850
 6250POPC   GL225790  19.963  23.729   8.850
 6250POPC   C1A25791  19.809  23.720   8.550
 6250POPC   D2A25792  19.845  23.671   8.250
 6250POPC   C3A25793  19.794  23.759   7.950
 6250POPC   C4A25794  19.817  23.675   7.650
 6250POPC   C1B25795  20.068  23.713   8.550
 6250POPC   C2B25796  20.096  23.733   8.250
 6250POPC   C3B25797  20.125  23.663   7.950
 6250POPC   C4B25798  20.114  23.693   7.650
 6251POPC   NC325799  40.752  11.328   9.450
 6251POPC   PO425800  40.792  11.337   9.150
 6251POPC   GL125801  40.752  11.280   8.850
 6251POPC   GL225802  40.714  11.424   8.850
 6251POPC   C1A25803  40.771  11.337   8.550
 6251POPC   D2A25804  40.770  11.318   8.250
 6251POPC   C3A25805  40.821  11.334   7.950
 6251POPC   C4A25806  40.758  11.288   7.650
 6251POPC   C1B25807  40.646  11.456   8.550
 6251POPC   C2B25808  40.634  11.472   8.250
 6251POPC   C3B25809  40.605  11.462   7.950
 6251POPC   C4B25810  40.654  11.455   7.650
 6252POPC   NC325811  40.767  36.884   9.450
 6252POPC   PO425812  40.807  36.884   9.150
 6252POPC   GL125813  40.740  36.884   8.850
 6252POPC   GL225814  40.882  36.817   8.850
 6252POPC   C1A25815  40.817  36.933   8.550
 6252POPC   D2A25816  40.801  36.878   8.250
 6252POPC   C3A25817  40.769  36.867   7.950
 6252POPC   C4A25818  40.797  36.901   7.650
 6252POPC   C1B25819  40.939  36.687   8.550
 6252POPC   C2B25820  40.873  36.711   8.250
 6252POPC   C3B25821  40.959  36.657   7.950
 6252POPC   C4B25822  40.933  36.683   7.650
 6253POPC   NC325823  38.458  20.571   9.450
 6253POPC   PO425824  38.416  20.604   9.150
 6253POPC   GL125825  38.466  20.575   8.850
 6253POPC   GL225826  38.354  20.550   8.850
 6253POPC   C1A25827  38.452  20.572   8.550
 6253POPC   D2A25828  38.493  20.656   8.250
 6253POPC   C3A25829  38.490  20.639   7.950
 6253POPC   C4A25830  38.480  20.631   7.650
 6253POPC   C1B25831  38.210  20.536   8.550
 6253POPC   C2B25832  38.261  20.473   8.250
 6253POPC   C3B25833  38.253  20.528   7.950
 6253POPC   C4B25834  38.266  20.448   7.650
 6254POPC   NC325835  37.670   2.781   9.450
 6254POPC   PO425836  37.723   2.803   9.150
 6254POPC   GL125837  37.669   2.748   8.850
 6254POPC   GL225838  37.772   2.788   8.850
 6254POPC   C1A25839  37.657   2.789   8.550
 6254POPC   D2A25840  37.713   2.732   8.250
 6254POPC   C3A25841  37.688   2.815   7.950
 6254POPC   C4A25842  37.693   2.800   7.650
 6254POPC   C1B25843  37.871   2.882   8.550
 6254POPC   C2B25844  37.877   2.812   8.250
 6254POPC   C3B25845  37.947   2.833   7.950
 6254POPC   C4B25846  37.908   2.812   7.650
 6255POPC   NC325847  12.824  12.088   9.450
 6255POPC   PO425848  12.868  12.059   9.150
 6255POPC   GL125849  12.828  12.096   8.850
 6255POPC   GL225850  12.774  11.958   8.850
 6255POPC   C1A25851  12.880  12.065   8.550
 6255POPC   D2A25852  12.887  12.069   8.250
 6255POPC   C3A25853  12.804  12.104   7.950
 6255POPC   C4A25854  12.808  12.048   7.650
 6255POPC   C1B25855  12.735  11.906   8.550
 6255POPC   C2B25856  12.698  11.887   8.250
 6255POPC   C3B25857  12.710  11.852   7.950
 6255POPC   C4B25858  12.734  11.870   7.650
 6256POPC   NC325859  15.977  33.009   9.450
 6256POPC   PO425860  15.960  33.055   9.150
 6256POPC   GL125861  15.949  33.003   8.850
 6256POPC   GL225862  16.072  32.925   8.850
 6256POPC   C1A25863  15.907  33.023   8.550
 6256POPC   D2A25864  15.916  33.021   8.250
 6256POPC   C3A25865  15.998  33.068   7.950
 6256POPC   C4A25866  15.923  33.036   7.650
 6256POPC   C1B25867  16.189  32.822   8.550
 6256POPC   C2B25868  16.114  32.867   8.250
 6256POPC   C3B25869  16.144  32.814   7.950
 6256POPC   C4B25870  16.136  32.824   7.650
 6257POPC   NC325871   5.076  26.047   9.450
 6257POPC   PO425872   5.053  26.082   9.150
 6257POPC   GL125873   5.069  26.018   8.850
 6257POPC   GL225874   4.997  25.949   8.850
 6257POPC   C1A25875   5.067  26.065   8.550
 6257POPC   D2A25876   5.087  26.081   8.250
 6257POPC   C3A25877   5.111  26.077   7.950
 6257POPC   C4A25878   5.093  26.049   7.650
 6257POPC   C1B25879   4.865  25.864   8.550
 6257POPC   C2B25880   4.889  25.867   8.250
 6257POPC   C3B25881   4.894  25.950   7.950
 6257POPC   C4B25882   4.915  25.932   7.650
 6258POPC   NC325883  38.470  25.305   9.450
 6258POPC   PO425884  38.477  25.217   9.150
 6258POPC   GL125885  38.408  25.237   8.850
 6258POPC   GL225886  38.347  25.142   8.850
 6258POPC   C1A25887  38.466  25.266   8.550
 6258POPC   D2A25888  38.469  25.220   8.250
 6258POPC   C3A25889  38.434  25.296   7.950
 6258POPC   C4A25890  38.472  25.299   7.650
 6258POPC   C1B25891  38.305  25.136   8.550
 6258POPC   C2B25892  38.221  25.115   8.250
 6258POPC   C3B25893  38.307  25.147   7.950
 6258POPC   C4B25894  38.244  25.159   7.650
 6259POPC   NC325895  22.158  26.053   9.450
 6259POPC   PO425896  22.118  26.008   9.150
 6259POPC   GL125897  22.190  25.992   8.850
 6259POPC   GL225898  22.312  26.070   8.850
 6259POPC   C1A25899  22.177  26.078   8.550
 6259POPC   D2A25900  22.149  26.027   8.250
 6259POPC   C3A25901  22.190  26.017   7.950
 6259POPC   C4A25902  22.139  26.082   7.650
 6259POPC   C1B25903  22.386  26.152   8.550
 6259POPC   C2B25904  22.440  26.094   8.250
 6259POPC   C3B25905  22.367  26.154   7.950
 6259POPC   C4B25906  22.421  26.128   7.650
 6260POPC   NC325907   9.019  14.371   9.450
 6260POPC   PO425908   8.953  14.381   9.150
 6260POPC   GL125909   8.932  14.419   8.850
 6260POPC   GL225910   8.846  14.413   8.850
 6260POPC   C1A25911   9.003  14.369   8.550
 6260POPC   D2A25912   8.952  14.384   8.250
 6260POPC   C3A25913   9.005  14.358   7.950
 6260POPC   C4A25914   8.977  14.395   7.650
 6260POPC   C1B25915   8.732  14.348   8.550
 6260POPC   C2B25916   8.688  14.358   8.250
 6260POPC   C3B25917   8.680  14.373   7.950
 6260POPC   C4B25918   8.740  14.427   7.650
 6261POPC   NC325919  29.183  38.444   9.450
 6261POPC   PO425920  29.115  38.460   9.150
 6261POPC   GL125921  29.098  38.432   8.850
 6261POPC   GL225922  28.979  38.425   8.850
 6261POPC   C1A25923  29.112  38.442   8.550
 6261POPC   D2A25924  29.110  38.431   8.250
 6261POPC   C3A25925  29.149  38.455   7.950
 6261POPC   C4A25926  29.184  38.432   7.650
 6261POPC   C1B25927  28.883  38.424   8.550
 6261POPC   C2B25928  28.869  38.452   8.250
 6261POPC   C3B25929  28.876  38.477   7.950
 6261POPC   C4B25930  28.924  38.413   7.650
 6262POPC   NC325931  15.933   5.115   9.450
 6262POPC   PO425932  15.996   5.126   9.150
 6262POPC   GL125933  15.958   5.120   8.850
 6262POPC   GL225934  15.977   4.984   8.850
 6262POPC   C1A25935  16.005   5.067   8.550
 6262POPC   D2A25936  15.908   5.076   8.250
 6262POPC   C3A25937  15.989   5.115   7.950
 6262POPC   C4A25938  15.946   5.110   7.650
 6262POPC   C1B25939  16.036   4.894   8.550
 6262POPC   C2B25940  16.007   4.818   8.250
 6262POPC   C3B25941  16.026   4.858   7.950
 6262POPC   C4B25942  16.043   4.873   7.650
 6263POPC   NC325943  21.382  10.479   9.450
 6263POPC   PO425944  21.366  10.482   9.150
 6263POPC   GL125945  21.346  10.534   8.850
 6263POPC   GL225946  21.308  10.473   8.850
 6263POPC   C1A25947  21.344  10.570   8.550
 6263POPC   D2A25948  21.369  10.550   8.250
 6263POPC   C3A25949  21.417  10.521   7.950
 6263POPC   C4A25950  21.421  10.520   7.650
 6263POPC   C1B25951  21.282  10.321   8.550
 6263POPC   C2B25952  21.238  10.300   8.250
 6263POPC   C3B25953  21.217  10.343   7.950
 6263POPC   C4B25954  21.198  10.282   7.650
 6264POPC   NC325955  12.026  40.782   9.450
 6264POPC   PO425956  12.029  40.819   9.150
 6264POPC   GL125957  12.110  40.766   8.850
 6264POPC   GL225958  12.052  40.681   8.850
 6264POPC   C1A25959  12.039  40.817   8.550
 6264POPC   D2A25960  12.075  40.773   8.250
 6264POPC   C3A25961  12.068  40.820   7.950
 6264POPC   C4A25962  12.063  40.806   7.650
 6264POPC   C1B25963  12.096  40.493   8.550
 6264POPC   C2B25964  12.057  40.583   8.250
 6264POPC   C3B25965  12.066  40.531   7.950
 6264POPC   C4B25966  12.066  40.568   7.650
 6265POPC   NC325967  25.276  38.486   9.450
 6265POPC   PO425968  25.311  38.483   9.150
 6265POPC   GL125969  25.304  38.432   8.850
 6265POPC   GL225970  25.346  38.497   8.850
 6265POPC   C1A25971  25.266  38.428   8.550
 6265POPC   D2A25972  25.291  38.497   8.250
 6265POPC   C3A25973  25.298  38.443   7.950
 6265POPC   C4A25974  25.274  38.451   7.650
 6265POPC   C1B25975  25.504  38.453   8.550
 6265POPC   C2B25976  25.474  38.451   8.250
 6265POPC   C3B25977  25.482  38.466   7.950
 6265POPC   C4B25978  25.506  38.506   7.650
 6266POPC   NC325979  41.541  36.924   9.450
 6266POPC   PO425980  41.607  36.909   9.150
 6266POPC   GL125981  41.521  36.919   8.850
 6266POPC   GL225982  41.542  36.777   8.850
 6266POPC   C1A25983  41.590  36.857   8.550
 6266POPC   D2A25984  41.582  36.893   8.250
 6266POPC   C3A25985  41.545  36.886   7.950
 6266POPC   C4A25986  41.510  36.893   7.650
 6266POPC   C1B25987  41.609  36.675   8.550
 6266POPC   C2B25988  41.579  36.698   8.250
 6266POPC   C3B25989  41.590  36.661   7.950
 6266POPC   C4B25990  41.604  36.692   7.650
 6267POPC   NC325991  14.369  26.865   9.450
 6267POPC   PO425992  14.362  26.804   9.150
 6267POPC   GL125993  14.406  26.829   8.850
 6267POPC   GL225994  14.454  26.907   8.850
 6267POPC   C1A25995  14.414  26.817   8.550
 6267POPC   D2A25996  14.411  26.787   8.250
 6267POPC   C3A25997  14.356  26.775   7.950
 6267POPC   C4A25998  14.384  26.819   7.650
 6267POPC   C1B25999  14.514  27.016   8.550
 6267POPC   C2B26000  14.497  27.024   8.250
 6267POPC   C3B26001  14.474  26.997   7.950
 6267POPC   C4B26002  14.494  27.015   7.650
 6268POPC   NC326003   1.217   1.947   9.450
 6268POPC   PO426004   1.213   1.948   9.150
 6268POPC   GL126005   1.183   1.997   8.850
 6268POPC   GL226006   1.283   2.143   8.850
 6268POPC   C1A26007   1.216   2.030   8.550
 6268POPC   D2A26008   1.245   2.023   8.250
 6268POPC   C3A26009   1.216   2.027   7.950
 6268POPC   C4A26010   1.245   2.038   7.650
 6268POPC   C1B26011   1.325   2.185   8.550
 6268POPC   C2B26012   1.353   2.171   8.250
 6268POPC   C3B26013   1.314   2.244   7.950
 6268POPC   C4B26014   1.345   2.264   7.650
 6269POPC   NC326015  35.331  24.454   9.450
 6269POPC   PO426016  35.367  24.492   9.150
 6269POPC   GL126017  35.349  24.502   8.850
 6269POPC   GL226018  35.319  24.389   8.850
 6269POPC   C1A26019  35.383  24.462   8.550
 6269POPC   D2A26020  35.329  24.503   8.250
 6269POPC   C3A26021  35.365  24.469   7.950
 6269POPC   C4A26022  35.397  24.460   7.650
 6269POPC   C1B26023  35.266  24.314   8.550
 6269POPC   C2B26024  35.221  24.218   8.250
 6269POPC   C3B26025  35.191  24.288   7.950
 6269POPC   C4B26026  35.194  24.314   7.650
 6270POPC   NC326027  41.532   8.151   9.450
 6270POPC   PO426028  41.605   8.227   9.150
 6270POPC   GL126029  41.597   8.170   8.850
 6270POPC   GL226030  41.631   8.226   8.850
 6270POPC   C1A26031  41.509   8.177   8.550
 6270POPC   D2A26032  41.590   8.160   8.250
 6270POPC   C3A26033  41.526   8.217   7.950
 6270POPC   C4A26034  41.547   8.214   7.650
 6270POPC   C1B26035  41.819   8.280   8.550
 6270POPC   C2B26036  41.778   8.242   8.250
 6270POPC   C3B26037  41.771   8.305   7.950
 6270POPC   C4B26038  41.794   8.316   7.650
 6271POPC   NC326039  28.376   8.958   9.450
 6271POPC   PO426040  28.381   8.954   9.150
 6271POPC   GL126041  28.374   9.012   8.850
 6271POPC   GL226042  28.402   9.049   8.850
 6271POPC   C1A26043  28.386   9.013   8.550
 6271POPC   D2A26044  28.366   8.999   8.250
 6271POPC   C3A26045  28.373   8.927   7.950
 6271POPC   C4A26046  28.387   8.939   7.650
 6271POPC   C1B26047  28.521   9.245   8.550
 6271POPC   C2B26048  28.427   9.222   8.250
 6271POPC   C3B26049  28.484   9.223   7.950
 6271POPC   C4B26050  28.507   9.237   7.650
 6272POPC   NC326051  10.520  27.569   9.450
 6272POPC   PO426052  10.547  27.546   9.150
 6272POPC   GL126053  10.542  27.612   8.850
 6272POPC   GL226054  10.414  27.516   8.850
 6272POPC   C1A26055  10.556  27.580   8.550
 6272POPC   D2A26056  10.563  27.624   8.250
 6272POPC   C3A26057  10.571  27.603   7.950
 6272POPC   C4A26058  10.560  27.617   7.650
 6272POPC   C1B26059  10.332  27.421   8.550
 6272POPC   C2B26060  10.322  27.484   8.250
 6272POPC   C3B26061  10.348  27.415   7.950
 6272POPC   C4B26062  10.355  27.507   7.650
 6273POPC   NC326063  13.628  44.688   9.450
 6273POPC   PO426064  13.598  44.653   9.150
 6273POPC   GL126065  13.652  44.633   8.850
 6273POPC   GL226066  13.728  44.667   8.850
 6273POPC   C1A26067  13.644  44.701   8.550
 6273POPC   D2A26068  13.641  44.712   8.250
 6273POPC   C3A26069  13.616  44.672   7.950
 6273POPC   C4A26070  13.659  44.695   7.650
 6273POPC   C1B26071  13.900  44.626   8.550
 6273POPC   C2B26072  13.896  44.550   8.250
 6273POPC   C3B26073  13.911  44.605   7.950
 6273POPC   C4B26074  13.836  44.611   7.650
 6274POPC   NC326075  36.118  12.853   9.450
 6274POPC   PO426076  36.095  12.804   9.150
 6274POPC   GL126077  36.168  12.858   8.850
 6274POPC   GL226078  36.118  12.682   8.850
 6274POPC   C1A26079  36.144  12.889   8.550
 6274POPC   D2A26080  36.134  12.819   8.250
 6274POPC   C3A26081  36.097  12.876   7.950
 6274POPC   C4A26082  36.154  12.849   7.650
 6274POPC   C1B26083  36.136  12.601   8.550
 6274POPC   C2B26084  36.073  12.574   8.250
 6274POPC   C3B26085  36.118  12.626   7.950
 6274POPC   C4B26086  36.137  12.559   7.650
 6275POPC   NC326087   9.789  19.101   9.450
 6275POPC   PO426088   9.726  19.101   9.150
 6275POPC   GL126089   9.709  19.066   8.850
 6275POPC   GL226090   9.852  19.038   8.850
 6275POPC   C1A26091   9.708  19.083   8.550
 6275POPC   D2A26092   9.726  19.059   8.250
 6275POPC   C3A26093   9.731  19.035   7.950
 6275POPC   C4A26094   9.771  19.079   7.650
 6275POPC   C1B26095   9.950  19.079   8.550
 6275POPC   C2B26096   9.970  19.086   8.250
 6275POPC   C3B26097  10.022  19.122   7.950
 6275POPC   C4B26098   9.956  19.130   7.650
 6276POPC   NC326099  28.337  28.340   9.450
 6276POPC   PO426100  28.334  28.380   9.150
 6276POPC   GL126101  28.350  28.351   8.850
 6276POPC   GL226102  28.390  28.267   8.850
 6276POPC   C1A26103  28.393  28.366   8.550
 6276POPC   D2A26104  28.335  28.367   8.250
 6276POPC   C3A26105  28.414  28.413   7.950
 6276POPC   C4A26106  28.331  28.344   7.650
 6276POPC   C1B26107  28.332  28.083   8.550
 6276POPC   C2B26108  28.397  28.083   8.250
 6276POPC   C3B26109  28.338  28.168   7.950
 6276POPC   C4B26110  28.367  28.127   7.650
 6277POPC   NC326111  11.334  15.137   9.450
 6277POPC   PO426112  11.254  15.185   9.150
 6277POPC   GL126113  11.347  15.134   8.850
 6277POPC   GL226114  11.225  15.116   8.850
 6277POPC   C1A26115  11.315  15.226   8.550
 6277POPC   D2A26116  11.291  15.134   8.250
 6277POPC   C3A26117  11.300  15.225   7.950
 6277POPC   C4A26118  11.317  15.185   7.650
 6277POPC   C1B26119  11.115  14.982   8.550
 6277POPC   C2B26120  11.104  15.070   8.250
 6277POPC   C3B26121  11.138  14.975   7.950
 6277POPC   C4B26122  11.067  15.036   7.650
 6278POPC   NC326123  35.385   0.459   9.450
 6278POPC   PO426124  35.352   0.442   9.150
 6278POPC   GL126125  35.372   0.459   8.850
 6278POPC   GL226126  35.211   0.483   8.850
 6278POPC   C1A26127  35.332   0.401   8.550
 6278POPC   D2A26128  35.307   0.455   8.250
 6278POPC   C3A26129  35.329   0.428   7.950
 6278POPC   C4A26130  35.346   0.452   7.650
 6278POPC   C1B26131  35.089   0.515   8.550
 6278POPC   C2B26132  35.109   0.534   8.250
 6278POPC   C3B26133  35.085   0.509   7.950
 6278POPC   C4B26134  35.083   0.498   7.650
 6279POPC   NC326135  14.389  26.019   9.450
 6279POPC   PO426136  14.364  26.089   9.150
 6279POPC   GL126137  14.453  26.073   8.850
 6279POPC   GL226138  14.503  26.020   8.850
 6279POPC   C1A26139  14.403  26.024   8.550
 6279POPC   D2A26140  14.361  26.000   8.250
 6279POPC   C3A26141  14.422  26.003   7.950
 6279POPC   C4A26142  14.422  26.000   7.650
 6279POPC   C1B26143  14.677  25.924   8.550
 6279POPC   C2B26144  14.607  25.960   8.250
 6279POPC   C3B26145  14.617  25.948   7.950
 6279POPC   C4B26146  14.651  25.968   7.650
 6280POPC   NC326147  24.509   8.204   9.450
 6280POPC   PO426148  24.460   8.173   9.150
 6280POPC   GL126149  24.464   8.176   8.850
 6280POPC   GL226150  24.427   8.315   8.850
 6280POPC   C1A26151  24.464   8.188   8.550
 6280POPC   D2A26152  24.529   8.180   8.250
 6280POPC   C3A26153  24.456   8.179   7.950
 6280POPC   C4A26154  24.447   8.182   7.650
 6280POPC   C1B26155  24.309   8.416   8.550
 6280POPC   C2B26156  24.377   8.394   8.250
 6280POPC   C3B26157  24.281   8.413   7.950
 6280POPC   C4B26158  24.361   8.395   7.650
 6281POPC   NC326159   9.702   9.726   9.450
 6281POPC   PO426160   9.723   9.741   9.150
 6281POPC   GL126161   9.727   9.739   8.850
 6281POPC   GL226162   9.743   9.594   8.850
 6281POPC   C1A26163   9.723   9.754   8.550
 6281POPC   D2A26164   9.734   9.711   8.250
 6281POPC   C3A26165   9.700   9.767   7.950
 6281POPC   C4A26166   9.798   9.781   7.650
 6281POPC   C1B26167   9.815   9.563   8.550
 6281POPC   C2B26168   9.830   9.472   8.250
 6281POPC   C3B26169   9.869   9.506   7.950
 6281POPC   C4B26170   9.832   9.515   7.650
 6282POPC   NC326171  40.002  37.638   9.450
 6282POPC   PO426172  40.024  37.664   9.150
 6282POPC   GL126173  40.010  37.698   8.850
 6282POPC   GL226174  39.927  37.789   8.850
 6282POPC   C1A26175  40.003  37.716   8.550
 6282POPC   D2A26176  39.996  37.675   8.250
 6282POPC   C3A26177  40.037  37.709   7.950
 6282POPC   C4A26178  40.003  37.707   7.650
 6282POPC   C1B26179  39.920  37.932   8.550
 6282POPC   C2B26180  39.927  37.919   8.250
 6282POPC   C3B26181  39.928  37.943   7.950
 6282POPC   C4B26182  39.896  37.851   7.650
 6283POPC   NC326183  31.503  16.745   9.450
 6283POPC   PO426184  31.487  16.699   9.150
 6283POPC   GL126185  31.471  16.764   8.850
 6283POPC   GL226186  31.333  16.790   8.850
 6283POPC   C1A26187  31.506  16.746   8.550
 6283POPC   D2A26188  31.519  16.723   8.250
 6283POPC   C3A26189  31.491  16.734   7.950
 6283POPC   C4A26190  31.435  16.719   7.650
 6283POPC   C1B26191  31.284  16.870   8.550
 6283POPC   C2B26192  31.228  16.811   8.250
 6283POPC   C3B26193  31.230  16.783   7.950
 6283POPC   C4B26194  31.200  16.842   7.650
 6284POPC   NC326195   6.670  14.379   9.450
 6284POPC   PO426196   6.611  14.411   9.150
 6284POPC   GL126197   6.660  14.356   8.850
 6284POPC   GL226198   6.516  14.335   8.850
 6284POPC   C1A26199   6.612  14.453   8.550
 6284POPC   D2A26200   6.656  14.413   8.250
 6284POPC   C3A26201   6.633  14.435   7.950
 6284POPC   C4A26202   6.642  14.367   7.650
 6284POPC   C1B26203   6.435  14.256   8.550
 6284POPC   C2B26204   6.374  14.295   8.250
 6284POPC   C3B26205   6.417  14.291   7.950
 6284POPC   C4B26206   6.455  14.300   7.650
 6285POPC   NC326207  20.573  36.953   9.450
 6285POPC   PO426208  20.646  36.942   9.150
 6285POPC   GL126209  20.564  36.887   8.850
 6285POPC   GL226210  20.442  36.902   8.850
 6285POPC   C1A26211  20.573  36.868   8.550
 6285POPC   D2A26212  20.619  36.873   8.250
 6285POPC   C3A26213  20.571  36.916   7.950
 6285POPC   C4A26214  20.649  36.929   7.650
 6285POPC   C1B26215  20.368  36.951   8.550
 6285POPC   C2B26216  20.375  36.884   8.250
 6285POPC   C3B26217  20.383  36.867   7.950
 6285POPC   C4B26218  20.374  36.911   7.650
 6286POPC   NC326219  33.043  31.489   9.450
 6286POPC   PO426220  32.999  31.430   9.150
 6286POPC   GL126221  32.987  31.424   8.850
 6286POPC   GL226222  33.057  31.345   8.850
 6286POPC   C1A26223  32.991  31.457   8.550
 6286POPC   D2A26224  33.062  31.438   8.250
 6286POPC   C3A26225  32.997  31.457   7.950
 6286POPC   C4A26226  33.020  31.468   7.650
 6286POPC   C1B26227  33.025  31.182   8.550
 6286POPC   C2B26228  32.991  31.231   8.250
 6286POPC   C3B26229  33.036  31.196   7.950
 6286POPC   C4B26230  32.974  31.233   7.650
 6287POPC   NC326231  17.479   0.404   9.450
 6287POPC   PO426232  17.536   0.422   9.150
 6287POPC   GL126233  17.513   0.457   8.850
 6287POPC   GL226234  17.619   0.391   8.850
 6287POPC   C1A26235  17.511   0.481   8.550
 6287POPC   D2A26236  17.461   0.461   8.250
 6287POPC   C3A26237  17.461   0.459   7.950
 6287POPC   C4A26238  17.465   0.423   7.650
 6287POPC   C1B26239  17.655   0.286   8.550
 6287POPC   C2B26240  17.701   0.244   8.250
 6287POPC   C3B26241  17.729   0.238   7.950
 6287POPC   C4B26242  17.647   0.227   7.650
 6288POPC   NC326243  25.314  41.595   9.450
 6288POPC   PO426244  25.264  41.523   9.150
 6288POPC   GL126245  25.224  41.527   8.850
 6288POPC   GL226246  25.111  41.565   8.850
 6288POPC   C1A26247  25.269  41.582   8.550
 6288POPC   D2A26248  25.263  41.579   8.250
 6288POPC   C3A26249  25.301  41.587   7.950
 6288POPC   C4A26250  25.309  41.604   7.650
 6288POPC   C1B26251  25.055  41.447   8.550
 6288POPC   C2B26252  25.010  41.504   8.250
 6288POPC   C3B26253  25.045  41.518   7.950
 6288POPC   C4B26254  24.978  41.523   7.650
 6289POPC   NC326255  23.751  36.937   9.450
 6289POPC   PO426256  23.690  36.861   9.150
 6289POPC   GL126257  23.704  36.873   8.850
 6289POPC   GL226258  23.861  36.894   8.850
 6289POPC   C1A26259  23.730  36.924   8.550
 6289POPC   D2A26260  23.728  36.877   8.250
 6289POPC   C3A26261  23.667  36.855   7.950
 6289POPC   C4A26262  23.684  36.883   7.650
 6289POPC   C1B26263  23.963  37.004   8.550
 6289POPC   C2B26264  23.936  36.966   8.250
 6289POPC   C3B26265  23.922  37.010   7.950
 6289POPC   C4B26266  23.912  36.952   7.650
 6290POPC   NC326267   3.493  38.492   9.450
 6290POPC   PO426268   3.509  38.432   9.150
 6290POPC   GL126269   3.566  38.471   8.850
 6290POPC   GL226270   3.483  38.362   8.850
 6290POPC   C1A26271   3.567  38.446   8.550
 6290POPC   D2A26272   3.558  38.415   8.250
 6290POPC   C3A26273   3.549  38.475   7.950
 6290POPC   C4A26274   3.569  38.417   7.650
 6290POPC   C1B26275   3.327  38.278   8.550
 6290POPC   C2B26276   3.344  38.294   8.250
 6290POPC   C3B26277   3.311  38.333   7.950
 6290POPC   C4B26278   3.335  38.303   7.650
 6291POPC   NC326279  44.617  43.071   9.450
 6291POPC   PO426280  44.651  43.069   9.150
 6291POPC   GL126281  44.669  43.124   8.850
 6291POPC   GL226282  44.575  43.152   8.850
 6291POPC   C1A26283  44.636  43.079   8.550
 6291POPC   D2A26284  44.684  43.150   8.250
 6291POPC   C3A26285  44.650  43.109   7.950
 6291POPC   C4A26286  44.669  43.139   7.650
 6291POPC   C1B26287  44.424  43.245   8.550
 6291POPC   C2B26288  44.428  43.247   8.250
 6291POPC   C3B26289  44.466  43.257   7.950
 6291POPC   C4B26290  44.392  43.216   7.650
 6292POPC   NC326291  15.200  44.640   9.450
 6292POPC   PO426292  15.219  44.652   9.150
 6292POPC   GL126293  15.162  44.683   8.850
 6292POPC   GL226294  15.212  44.740   8.850
 6292POPC   C1A26295  15.157  44.617   8.550
 6292POPC   D2A26296  15.208  44.634   8.250
 6292POPC   C3A26297  15.210  44.669   7.950
 6292POPC   C4A26298  15.148  44.667   7.650
 6292POPC   C1B26299  15.300  44.861   8.550
 6292POPC   C2B26300  15.308  44.896   8.250
 6292POPC   C3B26301  15.302  44.867   7.950
 6292POPC   C4B26302  15.309  44.893   7.650
 6293POPC   NC326303   1.954   0.482   9.450
 6293POPC   PO426304   1.941   0.462   9.150
 6293POPC   GL126305   2.024   0.476   8.850
 6293POPC   GL226306   1.959   0.285   8.850
 6293POPC   C1A26307   2.000   0.476   8.550
 6293POPC   D2A26308   1.992   0.421   8.250
 6293POPC   C3A26309   1.996   0.468   7.950
 6293POPC   C4A26310   1.941   0.409   7.650
 6293POPC   C1B26311   1.904   0.229   8.550
 6293POPC   C2B26312   1.837   0.183   8.250
 6293POPC   C3B26313   1.908   0.174   7.950
 6293POPC   C4B26314   1.871   0.204   7.650
 6294POPC   NC326315  34.616  15.992   9.450
 6294POPC   PO426316  34.581  15.973   9.150
 6294POPC   GL126317  34.579  15.948   8.850
 6294POPC   GL226318  34.725  15.989   8.850
 6294POPC   C1A26319  34.585  15.946   8.550
 6294POPC   D2A26320  34.549  15.976   8.250
 6294POPC   C3A26321  34.539  15.976   7.950
 6294POPC   C4A26322  34.562  15.972   7.650
 6294POPC   C1B26323  34.820  15.960   8.550
 6294POPC   C2B26324  34.827  15.922   8.250
 6294POPC   C3B26325  34.845  15.953   7.950
 6294POPC   C4B26326  34.841  15.968   7.650
 6295POPC   NC326327  34.579  20.609   9.450
 6295POPC   PO426328  34.540  20.571   9.150
 6295POPC   GL126329  34.608  20.565   8.850
 6295POPC   GL226330  34.578  20.468   8.850
 6295POPC   C1A26331  34.538  20.649   8.550
 6295POPC   D2A26332  34.547  20.598   8.250
 6295POPC   C3A26333  34.566  20.603   7.950
 6295POPC   C4A26334  34.574  20.627   7.650
 6295POPC   C1B26335  34.645  20.349   8.550
 6295POPC   C2B26336  34.659  20.392   8.250
 6295POPC   C3B26337  34.599  20.326   7.950
 6295POPC   C4B26338  34.621  20.365   7.650
 6296POPC   NC326339  14.374  24.485   9.450
 6296POPC   PO426340  14.361  24.528   9.150
 6296POPC   GL126341  14.430  24.530   8.850
 6296POPC   GL226342  14.266  24.592   8.850
 6296POPC   C1A26343  14.430  24.477   8.550
 6296POPC   D2A26344  14.357  24.523   8.250
 6296POPC   C3A26345  14.420  24.516   7.950
 6296POPC   C4A26346  14.363  24.516   7.650
 6296POPC   C1B26347  14.150  24.563   8.550
 6296POPC   C2B26348  14.135  24.647   8.250
 6296POPC   C3B26349  14.164  24.655   7.950
 6296POPC   C4B26350  14.189  24.658   7.650
 6297POPC   NC326351  26.050  11.276   9.450
 6297POPC   PO426352  26.064  11.275   9.150
 6297POPC   GL126353  26.069  11.264   8.850
 6297POPC   GL226354  26.171  11.311   8.850
 6297POPC   C1A26355  26.072  11.277   8.550
 6297POPC   D2A26356  26.070  11.267   8.250
 6297POPC   C3A26357  26.084  11.263   7.950
 6297POPC   C4A26358  26.091  11.311   7.650
 6297POPC   C1B26359  26.272  11.369   8.550
 6297POPC   C2B26360  26.301  11.385   8.250
 6297POPC   C3B26361  26.253  11.351   7.950
 6297POPC   C4B26362  26.244  11.379   7.650
 6298POPC   NC326363  21.436  17.470   9.450
 6298POPC   PO426364  21.396  17.490   9.150
 6298POPC   GL126365  21.403  17.543   8.850
 6298POPC   GL226366  21.472  17.439   8.850
 6298POPC   C1A26367  21.419  17.553   8.550
 6298POPC   D2A26368  21.370  17.486   8.250
 6298POPC   C3A26369  21.374  17.493   7.950
 6298POPC   C4A26370  21.364  17.466   7.650
 6298POPC   C1B26371  21.596  17.439   8.550
 6298POPC   C2B26372  21.633  17.409   8.250
 6298POPC   C3B26373  21.677  17.453   7.950
 6298POPC   C4B26374  21.623  17.426   7.650
 6299POPC   NC326375  44.704   1.207   9.450
 6299POPC   PO426376  44.665   1.228   9.150
 6299POPC   GL126377  44.659   1.259   8.850
 6299POPC   GL226378  44.539   1.281   8.850
 6299POPC   C1A26379  44.655   1.204   8.550
 6299POPC   D2A26380  44.689   1.224   8.250
 6299POPC   C3A26381  44.699   1.211   7.950
 6299POPC   C4A26382  44.703   1.259   7.650
 6299POPC   C1B26383  44.561   1.391   8.550
 6299POPC   C2B26384  44.506   1.450   8.250
 6299POPC   C3B26385  44.494   1.411   7.950
 6299POPC   C4B26386  44.552   1.400   7.650
 6300POPC   NC326387  32.284  44.646   9.450
 6300POPC   PO426388  32.223  44.615   9.150
 6300POPC   GL126389  32.257  44.671   8.850
 6300POPC   GL226390  32.184  44.762   8.850
 6300POPC   C1A26391  32.233  44.624   8.550
 6300POPC   D2A26392  32.269  44.669   8.250
 6300POPC   C3A26393  32.269  44.621   7.950
 6300POPC   C4A26394  32.205  44.680   7.650
 6300POPC   C1B26395  32.108  44.859   8.550
 6300POPC   C2B26396  32.122  44.820   8.250
 6300POPC   C3B26397  32.032  44.798   7.950
 6300POPC   C4B26398  32.088  44.822   7.650
 6301POPC   NC326399  12.077  10.546   9.450
 6301POPC   PO426400  12.122  10.475   9.150
 6301POPC   GL126401  12.052  10.538   8.850
 6301POPC   GL226402  12.199  10.506   8.850
 6301POPC   C1A26403  12.033  10.498   8.550
 6301POPC   D2A26404  12.034  10.560   8.250
 6301POPC   C3A26405  12.076  10.513   7.950
 6301POPC   C4A26406  12.046  10.531   7.650
 6301POPC   C1B26407  12.308  10.557   8.550
 6301POPC   C2B26408  12.282  10.527   8.250
 6301POPC   C3B26409  12.327  10.510   7.950
 6301POPC   C4B26410  12.296  10.579   7.650
 6302POPC   NC326411  37.694  36.929   9.450
 6302POPC   PO426412  37.637  36.923   9.150
 6302POPC   GL126413  37.714  36.917   8.850
 6302POPC   GL226414  37.619  36.976   8.850
 6302POPC   C1A26415  37.684  36.908   8.550
 6302POPC   D2A26416  37.721  36.919   8.250
 6302POPC   C3A26417  37.636  36.936   7.950
 6302POPC   C4A26418  37.673  36.895   7.650
 6302POPC   C1B26419  37.464  37.042   8.550
 6302POPC   C2B26420  37.503  37.110   8.250
 6302POPC   C3B26421  37.539  37.096   7.950
 6302POPC   C4B26422  37.482  37.072   7.650
 6303POPC   NC326423  15.951  14.390   9.450
 6303POPC   PO426424  15.971  14.424   9.150
 6303POPC   GL126425  15.982  14.424   8.850
 6303POPC   GL226426  16.001  14.527   8.850
 6303POPC   C1A26427  15.916  14.436   8.550
 6303POPC   D2A26428  15.934  14.383   8.250
 6303POPC   C3A26429  15.983  14.433   7.950
 6303POPC   C4A26430  16.005  14.364   7.650
 6303POPC   C1B26431  16.094  14.534   8.550
 6303POPC   C2B26432  16.101  14.573   8.250
 6303POPC   C3B26433  16.114  14.540   7.950
 6303POPC   C4B26434  16.100  14.561   7.650
 6304POPC   NC326435  30.735   6.651   9.450
 6304POPC   PO426436  30.745   6.656   9.150
 6304POPC   GL126437  30.687   6.651   8.850
 6304POPC   GL226438  30.749   6.763   8.850
 6304POPC   C1A26439  30.674   6.624   8.550
 6304POPC   D2A26440  30.705   6.688   8.250
 6304POPC   C3A26441  30.689   6.664   7.950
 6304POPC   C4A26442  30.733   6.598   7.650
 6304POPC   C1B26443  30.889   6.774   8.550
 6304POPC   C2B26444  30.937   6.802   8.250
 6304POPC   C3B26445  30.865   6.780   7.950
 6304POPC   C4B26446  30.936   6.745   7.650
 6305POPC   NC326447  43.848  10.541   9.450
 6305POPC   PO426448  43.896  10.551   9.150
 6305POPC   GL126449  43.922  10.475   8.850
 6305POPC   GL226450  43.905  10.391   8.850
 6305POPC   C1A26451  43.839  10.548   8.550
 6305POPC   D2A26452  43.923  10.550   8.250
 6305POPC   C3A26453  43.889  10.501   7.950
 6305POPC   C4A26454  43.922  10.474   7.650
 6305POPC   C1B26455  44.058  10.305   8.550
 6305POPC   C2B26456  44.011  10.351   8.250
 6305POPC   C3B26457  43.977  10.313   7.950
 6305POPC   C4B26458  43.971  10.330   7.650
 6306POPC   NC326459  32.223   4.343   9.450
 6306POPC   PO426460  32.219   4.365   9.150
 6306POPC   GL126461  32.263   4.348   8.850
 6306POPC   GL226462  32.377   4.269   8.850
 6306POPC   C1A26463  32.233   4.317   8.550
 6306POPC   D2A26464  32.243   4.316   8.250
 6306POPC   C3A26465  32.213   4.298   7.950
 6306POPC   C4A26466  32.297   4.299   7.650
 6306POPC   C1B26467  32.464   4.151   8.550
 6306POPC   C2B26468  32.458   4.211   8.250
 6306POPC   C3B26469  32.417   4.224   7.950
 6306POPC   C4B26470  32.496   4.200   7.650
 6307POPC   NC326471  42.314  36.129   9.450
 6307POPC   PO426472  42.352  36.143   9.150
 6307POPC   GL126473  42.335  36.168   8.850
 6307POPC   GL226474  42.260  36.066   8.850
 6307POPC   C1A26475  42.345  36.109   8.550
 6307POPC   D2A26476  42.366  36.158   8.250
 6307POPC   C3A26477  42.361  36.146   7.950
 6307POPC   C4A26478  42.308  36.119   7.650
 6307POPC   C1B26479  42.044  36.068   8.550
 6307POPC   C2B26480  42.106  36.019   8.250
 6307POPC   C3B26481  42.054  36.078   7.950
 6307POPC   C4B26482  42.058  36.070   7.650
 6308POPC   NC326483  39.966  17.486   9.450
 6308POPC   PO426484  39.998  17.474   9.150
 6308POPC   GL126485  40.025  17.476   8.850
 6308POPC   GL226486  40.055  17.602   8.850
 6308POPC   C1A26487  40.033  17.555   8.550
 6308POPC   D2A26488  40.008  17.463   8.250
 6308POPC   C3A26489  39.999  17.458   7.950
 6308POPC   C4A26490  40.042  17.476   7.650
 6308POPC   C1B26491  40.135  17.708   8.550
 6308POPC   C2B26492  40.165  17.721   8.250
 6308POPC   C3B26493  40.100  17.773   7.950
 6308POPC   C4B26494  40.124  17.756   7.650
 6309POPC   NC326495  39.225  13.586   9.450
 6309POPC   PO426496  39.189  13.601   9.150
 6309POPC   GL126497  39.238  13.630   8.850
 6309POPC   GL226498  39.078  13.606   8.850
 6309POPC   C1A26499  39.217  13.618   8.550
 6309POPC   D2A26500  39.199  13.639   8.250
 6309POPC   C3A26501  39.195  13.665   7.950
 6309POPC   C4A26502  39.203  13.607   7.650
 6309POPC   C1B26503  39.055  13.491   8.550
 6309POPC   C2B26504  39.008  13.519   8.250
 6309POPC   C3B26505  39.019  13.492   7.950
 6309POPC   C4B26506  38.992  13.533   7.650
 6310POPC   NC326507  30.709   5.890   9.450
 6310POPC   PO426508  30.744   5.879   9.150
 6310POPC   GL126509  30.686   5.828   8.850
 6310POPC   GL226510  30.859   5.835   8.850
 6310POPC   C1A26511  30.742   5.844   8.550
 6310POPC   D2A26512  30.734   5.916   8.250
 6310POPC   C3A26513  30.698   5.900   7.950
 6310POPC   C4A26514  30.719   5.906   7.650
 6310POPC   C1B26515  30.972   5.824   8.550
 6310POPC   C2B26516  30.913   5.830   8.250
 6310POPC   C3B26517  30.906   5.818   7.950
 6310POPC   C4B26518  30.947   5.782   7.650
 6311POPC   NC326519  30.667  19.847   9.450
 6311POPC   PO426520  30.695  19.785   9.150
 6311POPC   GL126521  30.678  19.856   8.850
 6311POPC   GL226522  30.685  19.997   8.850
 6311POPC   C1A26523  30.677  19.817   8.550
 6311POPC   D2A26524  30.699  19.834   8.250
 6311POPC   C3A26525  30.735  19.869   7.950
 6311POPC   C4A26526  30.705  19.868   7.650
 6311POPC   C1B26527  30.723  20.092   8.550
 6311POPC   C2B26528  30.695  20.127   8.250
 6311POPC   C3B26529  30.745  20.108   7.950
 6311POPC   C4B26530  30.658  20.039   7.650
 6312POPC   NC326531  19.031   0.439   9.450
 6312POPC   PO426532  19.080   0.434   9.150
 6312POPC   GL126533  19.046   0.428   8.850
 6312POPC   GL226534  19.041   0.292   8.850
 6312POPC   C1A26535  19.102   0.458   8.550
 6312POPC   D2A26536  19.047   0.465   8.250
 6312POPC   C3A26537  19.009   0.405   7.950
 6312POPC   C4A26538  19.102   0.417   7.650
 6312POPC   C1B26539  18.915   0.185   8.550
 6312POPC   C2B26540  18.967   0.225   8.250
 6312POPC   C3B26541  18.941   0.230   7.950
 6312POPC   C4B26542  18.953   0.218   7.650
 6313POPC   NC326543  21.394   3.494   9.450
 6313POPC   PO426544  21.369   3.530   9.150
 6313POPC   GL126545  21.387   3.524   8.850
 6313POPC   GL226546  21.477   3.514   8.850
 6313POPC   C1A26547  21.339   3.517   8.550
 6313POPC   D2A26548  21.376   3.527   8.250
 6313POPC   C3A26549  21.433   3.549   7.950
 6313POPC   C4A26550  21.385   3.502   7.650
 6313POPC   C1B26551  21.641   3.583   8.550
 6313POPC   C2B26552  21.656   3.603   8.250
 6313POPC   C3B26553  21.597   3.556   7.950
 6313POPC   C4B26554  21.633   3.560   7.650
 6314POPC   NC326555  42.289  43.931   9.450
 6314POPC   PO426556  42.344  43.933   9.150
 6314POPC   GL126557  42.328  43.881   8.850
 6314POPC   GL226558  42.397  43.784   8.850
 6314POPC   C1A26559  42.303  43.839   8.550
 6314POPC   D2A26560  42.327  43.903   8.250
 6314POPC   C3A26561  42.300  43.847   7.950
 6314POPC   C4A26562  42.335  43.899   7.650
 6314POPC   C1B26563  42.539  43.717   8.550
 6314POPC   C2B26564  42.569  43.679   8.250
 6314POPC   C3B26565  42.535  43.723   7.950
 6314POPC   C4B26566  42.514  43.693   7.650
 6315POPC   NC326567  20.627  43.927   9.450
 6315POPC   PO426568  20.660  43.879   9.150
 6315POPC   GL126569  20.571  43.889   8.850
 6315POPC   GL226570  20.481  43.968   8.850
 6315POPC   C1A26571  20.628  43.932   8.550
 6315POPC   D2A26572  20.580  43.915   8.250
 6315POPC   C3A26573  20.597  43.840   7.950
 6315POPC   C4A26574  20.640  43.879   7.650
 6315POPC   C1B26575  20.388  44.024   8.550
 6315POPC   C2B26576  20.465  44.021   8.250
 6315POPC   C3B26577  20.407  44.029   7.950
 6315POPC   C4B26578  20.447  44.009   7.650
 6316POPC   NC326579  40.809  29.949   9.450
 6316POPC   PO426580  40.811  29.966   9.150
 6316POPC   GL126581  40.793  29.967   8.850
 6316POPC   GL226582  40.665  29.882   8.850
 6316POPC   C1A26583  40.781  29.965   8.550
 6316POPC   D2A26584  40.795  29.954   8.250
 6316POPC   C3A26585  40.787  29.921   7.950
 6316POPC   C4A26586  40.744  29.933   7.650
 6316POPC   C1B26587  40.634  29.751   8.550
 6316POPC   C2B26588  40.619  29.806   8.250
 6316POPC   C3B26589  40.588  29.753   7.950
 6316POPC   C4B26590  40.618  29.733   7.650
 6317POPC   NC326591  36.114  18.244   9.450
 6317POPC   PO426592  36.145  18.327   9.150
 6317POPC   GL126593  36.095  18.305   8.850
 6317POPC   GL226594  36.019  18.195   8.850
 6317POPC   C1A26595  36.113  18.322   8.550
 6317POPC   D2A26596  36.090  18.297   8.250
 6317POPC   C3A26597  36.142  18.283   7.950
 6317POPC   C4A26598  36.136  18.240   7.650
 6317POPC   C1B26599  35.923  18.232   8.550
 6317POPC   C2B26600  35.925  18.182   8.250
 6317POPC   C3B26601  35.893  18.223   7.950
 6317POPC   C4B26602  35.928  18.158   7.650
 6318POPC   NC326603  33.760  40.776   9.450
 6318POPC   PO426604  33.757  40.764   9.150
 6318POPC   GL126605  33.798  40.740   8.850
 6318POPC   GL226606  33.683  40.737   8.850
 6318POPC   C1A26607  33.758  40.766   8.550
 6318POPC   D2A26608  33.825  40.787   8.250
 6318POPC   C3A26609  33.750  40.744   7.950
 6318POPC   C4A26610  33.796  40.760   7.650
 6318POPC   C1B26611  33.529  40.734   8.550
 6318POPC   C2B26612  33.534  40.733   8.250
 6318POPC   C3B26613  33.579  40.740   7.950
 6318POPC   C4B26614  33.599  40.693   7.650
 6319POPC   NC326615  25.295   2.813   9.450
 6319POPC   PO426616  25.298   2.716   9.150
 6319POPC   GL126617  25.275   2.731   8.850
 6319POPC   GL226618  25.191   2.613   8.850
 6319POPC   C1A26619  25.269   2.774   8.550
 6319POPC   D2A26620  25.281   2.719   8.250
 6319POPC   C3A26621  25.301   2.800   7.950
 6319POPC   C4A26622  25.305   2.741   7.650
 6319POPC   C1B26623  25.088   2.539   8.550
 6319POPC   C2B26624  25.170   2.602   8.250
 6319POPC   C3B26625  25.090   2.535   7.950
 6319POPC   C4B26626  25.159   2.602   7.650
 6320POPC   NC326627   1.980  29.175   9.450
 6320POPC   PO426628   1.942  29.121   9.150
 6320POPC   GL126629   1.997  29.110   8.850
 6320POPC   GL226630   2.128  29.065   8.850
 6320POPC   C1A26631   1.957  29.127   8.550
 6320POPC   D2A26632   2.010  29.128   8.250
 6320POPC   C3A26633   1.998  29.149   7.950
 6320POPC   C4A26634   2.037  29.099   7.650
 6320POPC   C1B26635   2.185  29.025   8.550
 6320POPC   C2B26636   2.210  29.102   8.250
 6320POPC   C3B26637   2.175  29.051   7.950
 6320POPC   C4B26638   2.213  29.062   7.650
 6321POPC   NC326639   9.719   4.347   9.450
 6321POPC   PO426640   9.719   4.358   9.150
 6321POPC   GL126641   9.750   4.296   8.850
 6321POPC   GL226642   9.913   4.323   8.850
 6321POPC   C1A26643   9.726   4.320   8.550
 6321POPC   D2A26644   9.714   4.335   8.250
 6321POPC   C3A26645   9.714   4.324   7.950
 6321POPC   C4A26646   9.731   4.278   7.650
 6321POPC   C1B26647  10.003   4.280   8.550
 6321POPC   C2B26648  10.030   4.201   8.250
 6321POPC   C3B26649   9.968   4.198   7.950
 6321POPC   C4B26650   9.972   4.229   7.650
 6322POPC   NC326651  42.378  31.505   9.450
 6322POPC   PO426652  42.359  31.426   9.150
 6322POPC   GL126653  42.301  31.423   8.850
 6322POPC   GL226654  42.294  31.313   8.850
 6322POPC   C1A26655  42.285  31.497   8.550
 6322POPC   D2A26656  42.341  31.436   8.250
 6322POPC   C3A26657  42.309  31.515   7.950
 6322POPC   C4A26658  42.378  31.498   7.650
 6322POPC   C1B26659  42.218  31.193   8.550
 6322POPC   C2B26660  42.221  31.210   8.250
 6322POPC   C3B26661  42.298  31.254   7.950
 6322POPC   C4B26662  42.287  31.218   7.650
 6323POPC   NC326663   4.330  26.069   9.450
 6323POPC   PO426664   4.290  26.004   9.150
 6323POPC   GL126665   4.363  26.008   8.850
 6323POPC   GL226666   4.417  26.121   8.850
 6323POPC   C1A26667   4.312  26.080   8.550
 6323POPC   D2A26668   4.303  26.027   8.250
 6323POPC   C3A26669   4.287  26.041   7.950
 6323POPC   C4A26670   4.329  26.011   7.650
 6323POPC   C1B26671   4.480  26.245   8.550
 6323POPC   C2B26672   4.506  26.172   8.250
 6323POPC   C3B26673   4.510  26.245   7.950
 6323POPC   C4B26674   4.491  26.213   7.650
 6324POPC   NC326675  36.176  26.028   9.450
 6324POPC   PO426676  36.143  26.050   9.150
 6324POPC   GL126677  36.103  26.035   8.850
 6324POPC   GL226678  36.243  25.924   8.850
 6324POPC   C1A26679  36.140  26.083   8.550
 6324POPC   D2A26680  36.117  26.063   8.250
 6324POPC   C3A26681  36.151  26.050   7.950
 6324POPC   C4A26682  36.129  26.069   7.650
 6324POPC   C1B26683  36.383  25.899   8.550
 6324POPC   C2B26684  36.289  25.892   8.250
 6324POPC   C3B26685  36.365  25.870   7.950
 6324POPC   C4B26686  36.372  25.894   7.650
 6325POPC   NC326687  36.854  20.653   9.450
 6325POPC   PO426688  36.925  20.616   9.150
 6325POPC   GL126689  36.890  20.634   8.850
 6325POPC   GL226690  36.940  20.713   8.850
 6325POPC   C1A26691  36.936  20.630   8.550
 6325POPC   D2A26692  36.860  20.623   8.250
 6325POPC   C3A26693  36.915  20.648   7.950
 6325POPC   C4A26694  36.925  20.570   7.650
 6325POPC   C1B26695  37.045  20.803   8.550
 6325POPC   C2B26696  37.085  20.817   8.250
 6325POPC   C3B26697  37.023  20.844   7.950
 6325POPC   C4B26698  37.008  20.857   7.650
 6326POPC   NC326699  43.885  39.221   9.450
 6326POPC   PO426700  43.913  39.199   9.150
 6326POPC   GL126701  43.935  39.182   8.850
 6326POPC   GL226702  43.967  39.076   8.850
 6326POPC   C1A26703  43.881  39.278   8.550
 6326POPC   D2A26704  43.900  39.215   8.250
 6326POPC   C3A26705  43.879  39.275   7.950
 6326POPC   C4A26706  43.920  39.235   7.650
 6326POPC   C1B26707  44.020  38.964   8.550
 6326POPC   C2B26708  43.936  38.997   8.250
 6326POPC   C3B26709  43.959  39.035   7.950
 6326POPC   C4B26710  44.006  38.956   7.650
 6327POPC   NC326711  11.265  32.280   9.450
 6327POPC   PO426712  11.307  32.226   9.150
 6327POPC   GL126713  11.320  32.219   8.850
 6327POPC   GL226714  11.226  32.202   8.850
 6327POPC   C1A26715  11.280  32.231   8.550
 6327POPC   D2A26716  11.338  32.268   8.250
 6327POPC   C3A26717  11.280  32.290   7.950
 6327POPC   C4A26718  11.277  32.293   7.650
 6327POPC   C1B26719  11.082  32.205   8.550
 6327POPC   C2B26720  11.040  32.204   8.250
 6327POPC   C3B26721  11.073  32.147   7.950
 6327POPC   C4B26722  11.064  32.161   7.650
 6328POPC   NC326723  27.571  43.127   9.450
 6328POPC   PO426724  27.546  43.111   9.150
 6328POPC   GL126725  27.609  43.117   8.850
 6328POPC   GL226726  27.701  43.087   8.850
 6328POPC   C1A26727  27.565  43.082   8.550
 6328POPC   D2A26728  27.600  43.154   8.250
 6328POPC   C3A26729  27.561  43.121   7.950
 6328POPC   C4A26730  27.556  43.143   7.650
 6328POPC   C1B26731  27.792  43.115   8.550
 6328POPC   C2B26732  27.811  43.031   8.250
 6328POPC   C3B26733  27.811  43.034   7.950
 6328POPC   C4B26734  27.849  43.105   7.650
 6329POPC   NC326735  29.122  41.548   9.450
 6329POPC   PO426736  29.117  41.535   9.150
 6329POPC   GL126737  29.108  41.528   8.850
 6329POPC   GL226738  29.171  41.420   8.850
 6329POPC   C1A26739  29.153  41.578   8.550
 6329POPC   D2A26740  29.167  41.605   8.250
 6329POPC   C3A26741  29.165  41.509   7.950
 6329POPC   C4A26742  29.186  41.522   7.650
 6329POPC   C1B26743  29.307  41.377   8.550
 6329POPC   C2B26744  29.308  41.345   8.250
 6329POPC   C3B26745  29.229  41.332   7.950
 6329POPC   C4B26746  29.260  41.346   7.650
 6330POPC   NC326747  35.366   5.864   9.450
 6330POPC   PO426748  35.304   5.841   9.150
 6330POPC   GL126749  35.327   5.894   8.850
 6330POPC   GL226750  35.408   5.917   8.850
 6330POPC   C1A26751  35.383   5.884   8.550
 6330POPC   D2A26752  35.322   5.911   8.250
 6330POPC   C3A26753  35.333   5.883   7.950
 6330POPC   C4A26754  35.325   5.900   7.650
 6330POPC   C1B26755  35.549   6.008   8.550
 6330POPC   C2B26756  35.543   6.055   8.250
 6330POPC   C3B26757  35.583   6.007   7.950
 6330POPC   C4B26758  35.503   6.027   7.650
 6331POPC   NC326759   7.457  36.177   9.450
 6331POPC   PO426760   7.456  36.112   9.150
 6331POPC   GL126761   7.412  36.122   8.850
 6331POPC   GL226762   7.410  35.963   8.850
 6331POPC   C1A26763   7.414  36.092   8.550
 6331POPC   D2A26764   7.436  36.081   8.250
 6331POPC   C3A26765   7.391  36.137   7.950
 6331POPC   C4A26766   7.418  36.131   7.650
 6331POPC   C1B26767   7.527  35.868   8.550
 6331POPC   C2B26768   7.440  35.845   8.250
 6331POPC   C3B26769   7.450  35.883   7.950
 6331POPC   C4B26770   7.496  35.871   7.650
 6332POPC   NC326771  38.439  38.476   9.450
 6332POPC   PO426772  38.467  38.488   9.150
 6332POPC   GL126773  38.459  38.465   8.850
 6332POPC   GL226774  38.365  38.355   8.850
 6332POPC   C1A26775  38.429  38.439   8.550
 6332POPC   D2A26776  38.494  38.465   8.250
 6332POPC   C3A26777  38.449  38.428   7.950
 6332POPC   C4A26778  38.420  38.495   7.650
 6332POPC   C1B26779  38.358  38.278   8.550
 6332POPC   C2B26780  38.329  38.289   8.250
 6332POPC   C3B26781  38.324  38.216   7.950
 6332POPC   C4B26782  38.278  38.231   7.650
 6333POPC   NC326783  33.774   6.649   9.450
 6333POPC   PO426784  33.814   6.630   9.150
 6333POPC   GL126785  33.837   6.667   8.850
 6333POPC   GL226786  33.737   6.545   8.850
 6333POPC   C1A26787  33.830   6.608   8.550
 6333POPC   D2A26788  33.820   6.602   8.250
 6333POPC   C3A26789  33.834   6.679   7.950
 6333POPC   C4A26790  33.836   6.600   7.650
 6333POPC   C1B26791  33.722   6.391   8.550
 6333POPC   C2B26792  33.812   6.357   8.250
 6333POPC   C3B26793  33.721   6.399   7.950
 6333POPC   C4B26794  33.769   6.374   7.650
 6334POPC   NC326795  35.309  36.928   9.450
 6334POPC   PO426796  35.302  36.914   9.150
 6334POPC   GL126797  35.320  36.917   8.850
 6334POPC   GL226798  35.220  36.882   8.850
 6334POPC   C1A26799  35.379  36.896   8.550
 6334POPC   D2A26800  35.322  36.873   8.250
 6334POPC   C3A26801  35.331  36.883   7.950
 6334POPC   C4A26802  35.385  36.904   7.650
 6334POPC   C1B26803  35.104  36.714   8.550
 6334POPC   C2B26804  35.158  36.749   8.250
 6334POPC   C3B26805  35.181  36.791   7.950
 6334POPC   C4B26806  35.128  36.728   7.650
 6335POPC   NC326807  41.601  31.516   9.450
 6335POPC   PO426808  41.578  31.492   9.150
 6335POPC   GL126809  41.584  31.490   8.850
 6335POPC   GL226810  41.590  31.324   8.850
 6335POPC   C1A26811  41.551  31.517   8.550
 6335POPC   D2A26812  41.513  31.470   8.250
 6335POPC   C3A26813  41.515  31.508   7.950
 6335POPC   C4A26814  41.605  31.490   7.650
 6335POPC   C1B26815  41.603  31.272   8.550
 6335POPC   C2B26816  41.598  31.181   8.250
 6335POPC   C3B26817  41.568  31.173   7.950
 6335POPC   C4B26818  41.567  31.228   7.650
 6336POPC   NC326819  38.492  33.756   9.450
 6336POPC   PO426820  38.469  33.762   9.150
 6336POPC   GL126821  38.474  33.817   8.850
 6336POPC   GL226822  38.490  33.715   8.850
 6336POPC   C1A26823  38.410  33.794   8.550
 6336POPC   D2A26824  38.472  33.804   8.250
 6336POPC   C3A26825  38.455  33.815   7.950
 6336POPC   C4A26826  38.451  33.782   7.650
 6336POPC   C1B26827  38.604  33.552   8.550
 6336POPC   C2B26828  38.553  33.603   8.250
 6336POPC   C3B26829  38.600  33.602   7.950
 6336POPC   C4B26830  38.572  33.611   7.650
 6337POPC   NC326831  32.235  36.083   9.450
 6337POPC   PO426832  32.294  36.110   9.150
 6337POPC   GL126833  32.295  36.155   8.850
 6337POPC   GL226834  32.273  36.009   8.850
 6337POPC   C1A26835  32.282  36.085   8.550
 6337POPC   D2A26836  32.281  36.143   8.250
 6337POPC   C3A26837  32.200  36.083   7.950
 6337POPC   C4A26838  32.279  36.087   7.650
 6337POPC   C1B26839  32.178  35.875   8.550
 6337POPC   C2B26840  32.191  35.869   8.250
 6337POPC   C3B26841  32.227  35.841   7.950
 6337POPC   C4B26842  32.185  35.877   7.650
 6338POPC   NC326843   5.099  13.581   9.450
 6338POPC   PO426844   5.095  13.625   9.150
 6338POPC   GL126845   5.124  13.662   8.850
 6338POPC   GL226846   5.145  13.722   8.850
 6338POPC   C1A26847   5.123  13.580   8.550
 6338POPC   D2A26848   5.140  13.591   8.250
 6338POPC   C3A26849   5.062  13.670   7.950
 6338POPC   C4A26850   5.128  13.628   7.650
 6338POPC   C1B26851   5.207  13.871   8.550
 6338POPC   C2B26852   5.178  13.895   8.250
 6338POPC   C3B26853   5.146  13.895   7.950
 6338POPC   C4B26854   5.136  13.872   7.650
 6339POPC   NC326855  19.096  10.513   9.450
 6339POPC   PO426856  19.086  10.547   9.150
 6339POPC   GL126857  19.104  10.492   8.850
 6339POPC   GL226858  18.946  10.595   8.850
 6339POPC   C1A26859  19.083  10.503   8.550
 6339POPC   D2A26860  19.091  10.495   8.250
 6339POPC   C3A26861  19.052  10.477   7.950
 6339POPC   C4A26862  19.014  10.553   7.650
 6339POPC   C1B26863  18.864  10.678   8.550
 6339POPC   C2B26864  18.924  10.752   8.250
 6339POPC   C3B26865  18.950  10.669   7.950
 6339POPC   C4B26866  18.901  10.750   7.650
 6340POPC   NC326867  39.966   6.693   9.450
 6340POPC   PO426868  40.005   6.675   9.150
 6340POPC   GL126869  40.005   6.610   8.850
 6340POPC   GL226870  40.108   6.716   8.850
 6340POPC   C1A26871  40.022   6.634   8.550
 6340POPC   D2A26872  40.016   6.685   8.250
 6340POPC   C3A26873  40.034   6.636   7.950
 6340POPC   C4A26874  39.960   6.604   7.650
 6340POPC   C1B26875  40.230   6.766   8.550
 6340POPC   C2B26876  40.195   6.737   8.250
 6340POPC   C3B26877  40.195   6.791   7.950
 6340POPC   C4B26878  40.269   6.797   7.650
 6341POPC   NC326879  43.841   8.170   9.450
 6341POPC   PO426880  43.840   8.211   9.150
 6341POPC   GL126881  43.864   8.157   8.850
 6341POPC   GL226882  44.040   8.162   8.850
 6341POPC   C1A26883  43.875   8.220   8.550
 6341POPC   D2A26884  43.869   8.187   8.250
 6341POPC   C3A26885  43.888   8.207   7.950
 6341POPC   C4A26886  43.911   8.233   7.650
 6341POPC   C1B26887  44.158   8.124   8.550
 6341POPC   C2B26888  44.115   8.045   8.250
 6341POPC   C3B26889  44.084   8.069   7.950
 6341POPC   C4B26890  44.098   8.051   7.650
 6342POPC   NC326891  12.868  41.524   9.450
 6342POPC   PO426892  12.834  41.594   9.150
 6342POPC   GL126893  12.835  41.558   8.850
 6342POPC   GL226894  12.821  41.444   8.850
 6342POPC   C1A26895  12.829  41.575   8.550
 6342POPC   D2A26896  12.891  41.531   8.250
 6342POPC   C3A26897  12.830  41.603   7.950
 6342POPC   C4A26898  12.859  41.522   7.650
 6342POPC   C1B26899  12.751  41.332   8.550
 6342POPC   C2B26900  12.805  41.314   8.250
 6342POPC   C3B26901  12.751  41.323   7.950
 6342POPC   C4B26902  12.735  41.319   7.650
 6343POPC   NC326903  21.374  43.906   9.450
 6343POPC   PO426904  21.414  43.904   9.150
 6343POPC   GL126905  21.373  43.853   8.850
 6343POPC   GL226906  21.445  43.819   8.850
 6343POPC   C1A26907  21.383  43.859   8.550
 6343POPC   D2A26908  21.425  43.874   8.250
 6343POPC   C3A26909  21.435  43.865   7.950
 6343POPC   C4A26910  21.376  43.840   7.650
 6343POPC   C1B26911  21.465  43.655   8.550
 6343POPC   C2B26912  21.480  43.641   8.250
 6343POPC   C3B26913  21.551  43.655   7.950
 6343POPC   C4B26914  21.543  43.680   7.650
 6344POPC   NC326915  29.927  36.925   9.450
 6344POPC   PO426916  29.902  36.891   9.150
 6344POPC   GL126917  29.928  36.948   8.850
 6344POPC   GL226918  29.761  36.964   8.850
 6344POPC   C1A26919  29.902  36.950   8.550
 6344POPC   D2A26920  29.932  36.892   8.250
 6344POPC   C3A26921  29.901  36.904   7.950
 6344POPC   C4A26922  29.911  36.868   7.650
 6344POPC   C1B26923  29.714  36.983   8.550
 6344POPC   C2B26924  29.652  37.032   8.250
 6344POPC   C3B26925  29.733  37.006   7.950
 6344POPC   C4B26926  29.659  36.977   7.650
 6345POPC   NC326927   2.781  25.246   9.450
 6345POPC   PO426928   2.775  25.239   9.150
 6345POPC   GL126929   2.775  25.274   8.850
 6345POPC   GL226930   2.777  25.179   8.850
 6345POPC   C1A26931   2.796  25.304   8.550
 6345POPC   D2A26932   2.753  25.281   8.250
 6345POPC   C3A26933   2.772  25.308   7.950
 6345POPC   C4A26934   2.733  25.249   7.650
 6345POPC   C1B26935   2.771  24.971   8.550
 6345POPC   C2B26936   2.746  25.029   8.250
 6345POPC   C3B26937   2.810  25.009   7.950
 6345POPC   C4B26938   2.744  24.967   7.650
 6346POPC   NC326939   9.737  35.344   9.450
 6346POPC   PO426940   9.727  35.388   9.150
 6346POPC   GL126941   9.740  35.314   8.850
 6346POPC   GL226942   9.846  35.413   8.850
 6346POPC   C1A26943   9.790  35.387   8.550
 6346POPC   D2A26944   9.753  35.355   8.250
 6346POPC   C3A26945   9.760  35.341   7.950
 6346POPC   C4A26946   9.741  35.335   7.650
 6346POPC   C1B26947   9.867  35.564   8.550
 6346POPC   C2B26948   9.914  35.595   8.250
 6346POPC   C3B26949   9.839  35.560   7.950
 6346POPC   C4B26950   9.896  35.602   7.650
 6347POPC   NC326951  21.425  29.943   9.450
 6347POPC   PO426952  21.435  29.956   9.150
 6347POPC   GL126953  21.435  29.934   8.850
 6347POPC   GL226954  21.461  29.852   8.850
 6347POPC   C1A26955  21.408  29.941   8.550
 6347POPC   D2A26956  21.395  29.969   8.250
 6347POPC   C3A26957  21.425  29.962   7.950
 6347POPC   C4A26958  21.399  29.923   7.650
 6347POPC   C1B26959  21.512  29.697   8.550
 6347POPC   C2B26960  21.454  29.691   8.250
 6347POPC   C3B26961  21.511  29.663   7.950
 6347POPC   C4B26962  21.481  29.719   7.650
 6348POPC   NC326963  29.875  22.984   9.450
 6348POPC   PO426964  29.892  22.926   9.150
 6348POPC   GL126965  29.871  22.950   8.850
 6348POPC   GL226966  30.077  22.936   8.850
 6348POPC   C1A26967  29.941  22.897   8.550
 6348POPC   D2A26968  29.912  22.909   8.250
 6348POPC   C3A26969  29.883  22.922   7.950
 6348POPC   C4A26970  29.897  22.924   7.650
 6348POPC   C1B26971  30.143  23.005   8.550
 6348POPC   C2B26972  30.154  22.947   8.250
 6348POPC   C3B26973  30.199  22.939   7.950
 6348POPC   C4B26974  30.154  22.942   7.650
 6349POPC   NC326975   8.986  43.100   9.450
 6349POPC   PO426976   8.996  43.065   9.150
 6349POPC   GL126977   8.994  43.110   8.850
 6349POPC   GL226978   9.063  43.183   8.850
 6349POPC   C1A26979   8.970  43.066   8.550
 6349POPC   D2A26980   8.996  43.085   8.250
 6349POPC   C3A26981   8.935  43.090   7.950
 6349POPC   C4A26982   8.974  43.088   7.650
 6349POPC   C1B26983   9.162  43.270   8.550
 6349POPC   C2B26984   9.134  43.284   8.250
 6349POPC   C3B26985   9.136  43.299   7.950
 6349POPC   C4B26986   9.135  43.256   7.650
 6350POPC   NC326987  15.190  30.700   9.450
 6350POPC   PO426988  15.216  30.696   9.150
 6350POPC   GL126989  15.182  30.647   8.850
 6350POPC   GL226990  15.146  30.572   8.850
 6350POPC   C1A26991  15.196  30.732   8.550
 6350POPC   D2A26992  15.157  30.743   8.250
 6350POPC   C3A26993  15.209  30.685   7.950
 6350POPC   C4A26994  15.147  30.736   7.650
 6350POPC   C1B26995  15.216  30.468   8.550
 6350POPC   C2B26996  15.188  30.475   8.250
 6350POPC   C3B26997  15.219  30.442   7.950
 6350POPC   C4B26998  15.243  30.442   7.650
 6351POPC   NC326999  13.603  18.330   9.450
 6351POPC   PO427000  13.658  18.299   9.150
 6351POPC   GL127001  13.596  18.296   8.850
 6351POPC   GL227002  13.585  18.358   8.850
 6351POPC   C1A27003  13.597  18.277   8.550
 6351POPC   D2A27004  13.606  18.314   8.250
 6351POPC   C3A27005  13.625  18.326   7.950
 6351POPC   C4A27006  13.627  18.292   7.650
 6351POPC   C1B27007  13.582  18.491   8.550
 6351POPC   C2B27008  13.572  18.495   8.250
 6351POPC   C3B27009  13.604  18.521   7.950
 6351POPC   C4B27010  13.611  18.493   7.650
 6352POPC   NC327011  12.108   6.680   9.450
 6352POPC   PO427012  12.046   6.663   9.150
 6352POPC   GL127013  12.100   6.649   8.850
 6352POPC   GL227014  11.973   6.693   8.850
 6352POPC   C1A27015  12.100   6.680   8.550
 6352POPC   D2A27016  12.040   6.672   8.250
 6352POPC   C3A27017  12.097   6.623   7.950
 6352POPC   C4A27018  12.097   6.620   7.650
 6352POPC   C1B27019  11.842   6.762   8.550
 6352POPC   C2B27020  11.897   6.845   8.250
 6352POPC   C3B27021  11.860   6.799   7.950
 6352POPC   C4B27022  11.884   6.758   7.650
 6353POPC   NC327023   6.654   1.984   9.450
 6353POPC   PO427024   6.608   1.960   9.150
 6353POPC   GL127025   6.688   2.002   8.850
 6353POPC   GL227026   6.594   1.908   8.850
 6353POPC   C1A27027   6.650   1.968   8.550
 6353POPC   D2A27028   6.599   2.000   8.250
 6353POPC   C3A27029   6.604   2.024   7.950
 6353POPC   C4A27030   6.645   2.012   7.650
 6353POPC   C1B27031   6.537   1.714   8.550
 6353POPC   C2B27032   6.585   1.781   8.250
 6353POPC   C3B27033   6.533   1.770   7.950
 6353POPC   C4B27034   6.569   1.802   7.650
 6354POPC   NC327035   6.692  13.677   9.450
 6354POPC   PO427036   6.677  13.616   9.150
 6354POPC   GL127037   6.623  13.667   8.850
 6354POPC   GL227038   6.559  13.556   8.850
 6354POPC   C1A27039   6.636  13.591   8.550
 6354POPC   D2A27040   6.604  13.670   8.250
 6354POPC   C3A27041   6.628  13.600   7.950
 6354POPC   C4A27042   6.606  13.618   7.650
 6354POPC   C1B27043   6.526  13.377   8.550
 6354POPC   C2B27044   6.487  13.379   8.250
 6354POPC   C3B27045   6.541  13.378   7.950
 6354POPC   C4B27046   6.476  13.369   7.650
 6355POPC   NC327047  27.614  27.633   9.450
 6355POPC   PO427048  27.557  27.618   9.150
 6355POPC   GL127049  27.614  27.596   8.850
 6355POPC   GL227050  27.674  27.488   8.850
 6355POPC   C1A27051  27.598  27.572   8.550
 6355POPC   D2A27052  27.572  27.596   8.250
 6355POPC   C3A27053  27.642  27.571   7.950
 6355POPC   C4A27054  27.553  27.544   7.650
 6355POPC   C1B27055  27.797  27.449   8.550
 6355POPC   C2B27056  27.783  27.355   8.250
 6355POPC   C3B27057  27.729  27.447   7.950
 6355POPC   C4B27058  27.779  27.377   7.650
 6356POPC   NC327059  22.136  22.189   9.450
 6356POPC   PO427060  22.164  22.142   9.150
 6356POPC   GL127061  22.156  22.174   8.850
 6356POPC   GL227062  22.188  22.293   8.850
 6356POPC   C1A27063  22.200  22.193   8.550
 6356POPC   D2A27064  22.139  22.154   8.250
 6356POPC   C3A27065  22.208  22.122   7.950
 6356POPC   C4A27066  22.127  22.173   7.650
 6356POPC   C1B27067  22.225  22.416   8.550
 6356POPC   C2B27068  22.239  22.344   8.250
 6356POPC   C3B27069  22.245  22.350   7.950
 6356POPC   C4B27070  22.295  22.392   7.650
 6357POPC   NC327071  19.057  15.977   9.450
 6357POPC   PO427072  19.044  15.934   9.150
 6357POPC   GL127073  19.017  15.931   8.850
 6357POPC   GL227074  19.128  16.088   8.850
 6357POPC   C1A27075  19.078  15.974   8.550
 6357POPC   D2A27076  19.107  15.993   8.250
 6357POPC   C3A27077  19.047  16.003   7.950
 6357POPC   C4A27078  19.015  15.985   7.650
 6357POPC   C1B27079  19.215  16.187   8.550
 6357POPC   C2B27080  19.198  16.213   8.250
 6357POPC   C3B27081  19.228  16.210   7.950
 6357POPC   C4B27082  19.183  16.128   7.650
 6358POPC   NC327083  34.528   0.391   9.450
 6358POPC   PO427084  34.571   0.419   9.150
 6358POPC   GL127085  34.528   0.400   8.850
 6358POPC   GL227086  34.411   0.437   8.850
 6358POPC   C1A27087  34.608   0.484   8.550
 6358POPC   D2A27088  34.573   0.479   8.250
 6358POPC   C3A27089  34.607   0.429   7.950
 6358POPC   C4A27090  34.581   0.445   7.650
 6358POPC   C1B27091  34.341   0.416   8.550
 6358POPC   C2B27092  34.354   0.444   8.250
 6358POPC   C3B27093  34.316   0.387   7.950
 6358POPC   C4B27094  34.313   0.435   7.650
 6359POPC   NC327095   5.910  23.705   9.450
 6359POPC   PO427096   5.916  23.715   9.150
 6359POPC   GL127097   5.851  23.712   8.850
 6359POPC   GL227098   5.901  23.568   8.850
 6359POPC   C1A27099   5.907  23.704   8.550
 6359POPC   D2A27100   5.857  23.756   8.250
 6359POPC   C3A27101   5.840  23.674   7.950
 6359POPC   C4A27102   5.911  23.721   7.650
 6359POPC   C1B27103   6.050  23.530   8.550
 6359POPC   C2B27104   5.979  23.496   8.250
 6359POPC   C3B27105   5.973  23.496   7.950
 6359POPC   C4B27106   6.008  23.528   7.650
 6360POPC   NC327107   8.228  36.157   9.450
 6360POPC   PO427108   8.231  36.080   9.150
 6360POPC   GL127109   8.158  36.131   8.850
 6360POPC   GL227110   8.240  36.205   8.850
 6360POPC   C1A27111   8.220  36.090   8.550
 6360POPC   D2A27112   8.220  36.173   8.250
 6360POPC   C3A27113   8.155  36.115   7.950
 6360POPC   C4A27114   8.179  36.088   7.650
 6360POPC   C1B27115   8.331  36.346   8.550
 6360POPC   C2B27116   8.354  36.338   8.250
 6360POPC   C3B27117   8.372  36.288   7.950
 6360POPC   C4B27118   8.378  36.328   7.650
 6361POPC   NC327119  13.612   5.870   9.450
 6361POPC   PO427120  13.619   5.859   9.150
 6361POPC   GL127121  13.599   5.864   8.850
 6361POPC   GL227122  13.527   5.869   8.850
 6361POPC   C1A27123  13.626   5.831   8.550
 6361POPC   D2A27124  13.599   5.828   8.250
 6361POPC   C3A27125  13.664   5.844   7.950
 6361POPC   C4A27126  13.677   5.844   7.650
 6361POPC   C1B27127  13.342   5.931   8.550
 6361POPC   C2B27128  13.407   5.919   8.250
 6361POPC   C3B27129  13.348   5.901   7.950
 6361POPC   C4B27130  13.374   5.856   7.650
 6362POPC   NC327131  26.007  13.592   9.450
 6362POPC   PO427132  26.060  13.614   9.150
 6362POPC   GL127133  26.027  13.617   8.850
 6362POPC   GL227134  26.050  13.559   8.850
 6362POPC   C1A27135  26.010  13.671   8.550
 6362POPC   D2A27136  26.067  13.601   8.250
 6362POPC   C3A27137  26.028  13.596   7.950
 6362POPC   C4A27138  25.996  13.634   7.650
 6362POPC   C1B27139  26.092  13.442   8.550
 6362POPC   C2B27140  26.163  13.408   8.250
 6362POPC   C3B27141  26.144  13.427   7.950
 6362POPC   C4B27142  26.148  13.364   7.650
 6363POPC   NC327143  16.758   0.441   9.450
 6363POPC   PO427144  16.714   0.416   9.150
 6363POPC   GL127145  16.702   0.445   8.850
 6363POPC   GL227146  16.833   0.509   8.850
 6363POPC   C1A27147  16.725   0.392   8.550
 6363POPC   D2A27148  16.725   0.402   8.250
 6363POPC   C3A27149  16.742   0.429   7.950
 6363POPC   C4A27150  16.685   0.442   7.650
 6363POPC   C1B27151  16.994   0.583   8.550
 6363POPC   C2B27152  16.964   0.588   8.250
 6363POPC   C3B27153  16.918   0.575   7.950
 6363POPC   C4B27154  16.907   0.533   7.650
 6364POPC   NC327155  22.948  24.498   9.450
 6364POPC   PO427156  22.915  24.450   9.150
 6364POPC   GL127157  22.962  24.451   8.850
 6364POPC   GL227158  23.002  24.546   8.850
 6364POPC   C1A27159  22.973  24.479   8.550
 6364POPC   D2A27160  22.972  24.528   8.250
 6364POPC   C3A27161  22.933  24.494   7.950
 6364POPC   C4A27162  22.895  24.525   7.650
 6364POPC   C1B27163  23.120  24.624   8.550
 6364POPC   C2B27164  23.170  24.618   8.250
 6364POPC   C3B27165  23.157  24.646   7.950
 6364POPC   C4B27166  23.136  24.589   7.650
 6365POPC   NC327167  43.129   9.007   9.450
 6365POPC   PO427168  43.152   8.950   9.150
 6365POPC   GL127169  43.132   8.995   8.850
 6365POPC   GL227170  43.092   9.074   8.850
 6365POPC   C1A27171  43.134   8.997   8.550
 6365POPC   D2A27172  43.098   8.981   8.250
 6365POPC   C3A27173  43.065   9.009   7.950
 6365POPC   C4A27174  43.156   8.939   7.650
 6365POPC   C1B27175  43.119   9.203   8.550
 6365POPC   C2B27176  43.107   9.217   8.250
 6365POPC   C3B27177  43.092   9.210   7.950
 6365POPC   C4B27178  43.192   9.256   7.650
 6366POPC   NC327179  43.887  43.063   9.450
 6366POPC   PO427180  43.857  43.075   9.150
 6366POPC   GL127181  43.843  43.112   8.850
 6366POPC   GL227182  44.020  43.042   8.850
 6366POPC   C1A27183  43.864  43.127   8.550
 6366POPC   D2A27184  43.928  43.067   8.250
 6366POPC   C3A27185  43.843  43.147   7.950
 6366POPC   C4A27186  43.884  43.067   7.650
 6366POPC   C1B27187  44.139  42.950   8.550
 6366POPC   C2B27188  44.118  42.953   8.250
 6366POPC   C3B27189  44.144  43.015   7.950
 6366POPC   C4B27190  44.091  42.933   7.650
 6367POPC   NC327191  15.140  43.868   9.450
 6367POPC   PO427192  15.149  43.928   9.150
 6367POPC   GL127193  15.201  43.894   8.850
 6367POPC   GL227194  15.221  43.816   8.850
 6367POPC   C1A27195  15.211  43.853   8.550
 6367POPC   D2A27196  15.166  43.907   8.250
 6367POPC   C3A27197  15.130  43.885   7.950
 6367POPC   C4A27198  15.131  43.857   7.650
 6367POPC   C1B27199  15.383  43.660   8.550
 6367POPC   C2B27200  15.349  43.652   8.250
 6367POPC   C3B27201  15.294  43.645   7.950
 6367POPC   C4B27202  15.377  43.661   7.650
 6368POPC   NC327203  27.634  29.113   9.450
 6368POPC   PO427204  27.624  29.128   9.150
 6368POPC   GL127205  27.566  29.134   8.850
 6368POPC   GL227206  27.442  29.167   8.850
 6368POPC   C1A27207  27.586  29.126   8.550
 6368POPC   D2A27208  27.570  29.146   8.250
 6368POPC   C3A27209  27.637  29.126   7.950
 6368POPC   C4A27210  27.568  29.147   7.650
 6368POPC   C1B27211  27.347  29.263   8.550
 6368POPC   C2B27212  27.346  29.276   8.250
 6368POPC   C3B27213  27.428  29.296   7.950
 6368POPC   C4B27214  27.407  29.259   7.650
 6369POPC   NC327215   8.236  30.740   9.450
 6369POPC   PO427216   8.234  30.729   9.150
 6369POPC   GL127217   8.186  30.681   8.850
 6369POPC   GL227218   8.265  30.764   8.850
 6369POPC   C1A27219   8.193  30.681   8.550
 6369POPC   D2A27220   8.202  30.714   8.250
 6369POPC   C3A27221   8.148  30.731   7.950
 6369POPC   C4A27222   8.147  30.725   7.650
 6369POPC   C1B27223   8.379  30.880   8.550
 6369POPC   C2B27224   8.340  30.882   8.250
 6369POPC   C3B27225   8.291  30.955   7.950
 6369POPC   C4B27226   8.294  30.873   7.650
 6370POPC   NC327227  26.001  43.888   9.450
 6370POPC   PO427228  26.081  43.880   9.150
 6370POPC   GL127229  26.029  43.884   8.850
 6370POPC   GL227230  26.078  44.002   8.850
 6370POPC   C1A27231  26.038  43.926   8.550
 6370POPC   D2A27232  26.049  43.839   8.250
 6370POPC   C3A27233  26.083  43.894   7.950
 6370POPC   C4A27234  25.994  43.899   7.650
 6370POPC   C1B27235  26.012  44.116   8.550
 6370POPC   C2B27236  26.090  44.087   8.250
 6370POPC   C3B27237  26.044  44.121   7.950
 6370POPC   C4B27238  26.044  44.140   7.650
 6371POPC   NC327239  15.985  40.773   9.450
 6371POPC   PO427240  15.949  40.743   9.150
 6371POPC   GL127241  15.990  40.819   8.850
 6371POPC   GL227242  16.034  40.875   8.850
 6371POPC   C1A27243  15.974  40.760   8.550
 6371POPC   D2A27244  15.909  40.791   8.250
 6371POPC   C3A27245  15.930  40.784   7.950
 6371POPC   C4A27246  15.957  40.819   7.650
 6371POPC   C1B27247  16.126  40.899   8.550
 6371POPC   C2B27248  16.130  40.982   8.250
 6371POPC   C3B27249  16.109  40.971   7.950
 6371POPC   C4B27250  16.114  40.956   7.650
 6372POPC   NC327251  40.013  16.739   9.450
 6372POPC   PO427252  39.991  16.744   9.150
 6372POPC   GL127253  40.000  16.766   8.850
 6372POPC   GL227254  39.977  16.866   8.850
 6372POPC   C1A27255  39.995  16.725   8.550
 6372POPC   D2A27256  39.962  16.781   8.250
 6372POPC   C3A27257  40.018  16.717   7.950
 6372POPC   C4A27258  39.985  16.717   7.650
 6372POPC   C1B27259  39.966  16.936   8.550
 6372POPC   C2B27260  39.969  16.932   8.250
 6372POPC   C3B27261  39.981  16.932   7.950
 6372POPC   C4B27262  39.999  16.997   7.650
 6373POPC   NC327263  29.169  39.255   9.450
 6373POPC   PO427264  29.170  39.182   9.150
 6373POPC   GL127265  29.151  39.201   8.850
 6373POPC   GL227266  29.187  39.070   8.850
 6373POPC   C1A27267  29.149  39.197   8.550
 6373POPC   D2A27268  29.166  39.236   8.250
 6373POPC   C3A27269  29.144  39.188   7.950
 6373POPC   C4A27270  29.125  39.191   7.650
 6373POPC   C1B27271  29.121  38.972   8.550
 6373POPC   C2B27272  29.120  38.980   8.250
 6373POPC   C3B27273  29.176  38.931   7.950
 6373POPC   C4B27274  29.157  38.960   7.650
 6374POPC   NC327275  37.675   2.007   9.450
 6374POPC   PO427276  37.654   1.981   9.150
 6374POPC   GL127277  37.663   1.966   8.850
 6374POPC   GL227278  37.599   2.115   8.850
 6374POPC   C1A27279  37.723   1.971   8.550
 6374POPC   D2A27280  37.647   1.973   8.250
 6374POPC   C3A27281  37.649   2.029   7.950
 6374POPC   C4A27282  37.701   2.013   7.650
 6374POPC   C1B27283  37.649   2.231   8.550
 6374POPC   C2B27284  37.655   2.234   8.250
 6374POPC   C3B27285  37.580   2.243   7.950
 6374POPC   C4B27286  37.583   2.190   7.650
 6375POPC   NC327287  21.414   7.386   9.450
 6375POPC   PO427288  21.370   7.425   9.150
 6375POPC   GL127289  21.436   7.387   8.850
 6375POPC   GL227290  21.243   7.402   8.850
 6375POPC   C1A27291  21.374   7.418   8.550
 6375POPC   D2A27292  21.344   7.428   8.250
 6375POPC   C3A27293  21.401   7.457   7.950
 6375POPC   C4A27294  21.342   7.383   7.650
 6375POPC   C1B27295  21.193   7.286   8.550
 6375POPC   C2B27296  21.197   7.329   8.250
 6375POPC   C3B27297  21.144   7.299   7.950
 6375POPC   C4B27298  21.165   7.369   7.650
 6376POPC   NC327299  35.333  11.335   9.450
 6376POPC   PO427300  35.379  11.316   9.150
 6376POPC   GL127301  35.315  11.321   8.850
 6376POPC   GL227302  35.334  11.133   8.850
 6376POPC   C1A27303  35.367  11.281   8.550
 6376POPC   D2A27304  35.399  11.258   8.250
 6376POPC   C3A27305  35.321  11.301   7.950
 6376POPC   C4A27306  35.317  11.319   7.650
 6376POPC   C1B27307  35.399  11.005   8.550
 6376POPC   C2B27308  35.400  11.090   8.250
 6376POPC   C3B27309  35.383  11.010   7.950
 6376POPC   C4B27310  35.414  11.010   7.650
 6377POPC   NC327311   9.003  43.936   9.450
 6377POPC   PO427312   8.949  43.877   9.150
 6377POPC   GL127313   8.961  43.903   8.850
 6377POPC   GL227314   8.966  43.715   8.850
 6377POPC   C1A27315   8.927  43.868   8.550
 6377POPC   D2A27316   8.940  43.874   8.250
 6377POPC   C3A27317   8.966  43.887   7.950
 6377POPC   C4A27318   8.983  43.925   7.650
 6377POPC   C1B27319   8.936  43.631   8.550
 6377POPC   C2B27320   8.965  43.676   8.250
 6377POPC   C3B27321   8.889  43.650   7.950
 6377POPC   C4B27322   8.898  43.682   7.650
 6378POPC   NC327323  40.008  22.170   9.450
 6378POPC   PO427324  40.041  22.183   9.150
 6378POPC   GL127325  40.000  22.161   8.850
 6378POPC   GL227326  39.903  22.105   8.850
 6378POPC   C1A27327  40.004  22.212   8.550
 6378POPC   D2A27328  40.046  22.131   8.250
 6378POPC   C3A27329  40.021  22.209   7.950
 6378POPC   C4A27330  39.977  22.142   7.650
 6378POPC   C1B27331  39.845  22.027   8.550
 6378POPC   C2B27332  39.755  22.017   8.250
 6378POPC   C3B27333  39.804  22.013   7.950
 6378POPC   C4B27334  39.800  22.024   7.650
 6379POPC   NC327335  22.923  10.512   9.450
 6379POPC   PO427336  22.910  10.535   9.150
 6379POPC   GL127337  22.956  10.566   8.850
 6379POPC   GL227338  23.011  10.470   8.850
 6379POPC   C1A27339  22.967  10.573   8.550
 6379POPC   D2A27340  22.943  10.547   8.250
 6379POPC   C3A27341  22.930  10.517   7.950
 6379POPC   C4A27342  22.918  10.483   7.650
 6379POPC   C1B27343  23.148  10.424   8.550
 6379POPC   C2B27344  23.183  10.452   8.250
 6379POPC   C3B27345  23.211  10.513   7.950
 6379POPC   C4B27346  23.191  10.510   7.650
 6380POPC   NC327347  12.105  41.564   9.450
 6380POPC   PO427348  12.123  41.540   9.150
 6380POPC   GL127349  12.027  41.512   8.850
 6380POPC   GL227350  12.023  41.467   8.850
 6380POPC   C1A27351  12.120  41.577   8.550
 6380POPC   D2A27352  12.070  41.527   8.250
 6380POPC   C3A27353  12.105  41.585   7.950
 6380POPC   C4A27354  12.079  41.557   7.650
 6380POPC   C1B27355  12.021  41.327   8.550
 6380POPC   C2B27356  12.021  41.291   8.250
 6380POPC   C3B27357  11.985  41.281   7.950
 6380POPC   C4B27358  12.003  41.300   7.650
 6381POPC   NC327359  33.762  18.310   9.450
 6381POPC   PO427360  33.754  18.286   9.150
 6381POPC   GL127361  33.820  18.276   8.850
 6381POPC   GL227362  33.665  18.296   8.850
 6381POPC   C1A27363  33.795  18.307   8.550
 6381POPC   D2A27364  33.827  18.278   8.250
 6381POPC   C3A27365  33.762  18.304   7.950
 6381POPC   C4A27366  33.784  18.286   7.650
 6381POPC   C1B27367  33.572  18.327   8.550
 6381POPC   C2B27368  33.574  18.290   8.250
 6381POPC   C3B27369  33.525  18.296   7.950
 6381POPC   C4B27370  33.595  18.361   7.650
 6382POPC   NC327371  12.889  33.825   9.450
 6382POPC   PO427372  12.889  33.752   9.150
 6382POPC   GL127373  12.864  33.819   8.850
 6382POPC   GL227374  12.774  33.700   8.850
 6382POPC   C1A27375  12.829  33.822   8.550
 6382POPC   D2A27376  12.867  33.835   8.250
 6382POPC   C3A27377  12.819  33.817   7.950
 6382POPC   C4A27378  12.825  33.823   7.650
 6382POPC   C1B27379  12.743  33.556   8.550
 6382POPC   C2B27380  12.791  33.547   8.250
 6382POPC   C3B27381  12.745  33.550   7.950
 6382POPC   C4B27382  12.809  33.519   7.650
 6383POPC   NC327383   2.008  10.518   9.450
 6383POPC   PO427384   1.988  10.493   9.150
 6383POPC   GL127385   2.010  10.498   8.850
 6383POPC   GL227386   1.895  10.550   8.850
 6383POPC   C1A27387   1.949  10.503   8.550
 6383POPC   D2A27388   1.977  10.553   8.250
 6383POPC   C3A27389   1.982  10.565   7.950
 6383POPC   C4A27390   2.020  10.548   7.650
 6383POPC   C1B27391   1.772  10.560   8.550
 6383POPC   C2B27392   1.770  10.593   8.250
 6383POPC   C3B27393   1.758  10.566   7.950
 6383POPC   C4B27394   1.725  10.592   7.650
 6384POPC   NC327395  23.694  20.606   9.450
 6384POPC   PO427396  23.719  20.588   9.150
 6384POPC   GL127397  23.750  20.595   8.850
 6384POPC   GL227398  23.786  20.497   8.850
 6384POPC   C1A27399  23.751  20.660   8.550
 6384POPC   D2A27400  23.737  20.652   8.250
 6384POPC   C3A27401  23.709  20.645   7.950
 6384POPC   C4A27402  23.726  20.629   7.650
 6384POPC   C1B27403  23.860  20.368   8.550
 6384POPC   C2B27404  23.815  20.354   8.250
 6384POPC   C3B27405  23.809  20.369   7.950
 6384POPC   C4B27406  23.783  20.380   7.650
 6385POPC   NC327407  34.563  27.608   9.450
 6385POPC   PO427408  34.616  27.584   9.150
 6385POPC   GL127409  34.573  27.580   8.850
 6385POPC   GL227410  34.550  27.425   8.850
 6385POPC   C1A27411  34.547  27.567   8.550
 6385POPC   D2A27412  34.549  27.550   8.250
 6385POPC   C3A27413  34.554  27.592   7.950
 6385POPC   C4A27414  34.529  27.588   7.650
 6385POPC   C1B27415  34.520  27.325   8.550
 6385POPC   C2B27416  34.551  27.358   8.250
 6385POPC   C3B27417  34.465  27.306   7.950
 6385POPC   C4B27418  34.472  27.383   7.650
 6386POPC   NC327419  25.257  43.921   9.450
 6386POPC   PO427420  25.228  43.851   9.150
 6386POPC   GL127421  25.300  43.874   8.850
 6386POPC   GL227422  25.228  43.983   8.850
 6386POPC   C1A27423  25.240  43.857   8.550
 6386POPC   D2A27424  25.217  43.886   8.250
 6386POPC   C3A27425  25.241  43.856   7.950
 6386POPC   C4A27426  25.252  43.848   7.650
 6386POPC   C1B27427  25.194  44.118   8.550
 6386POPC   C2B27428  25.189  44.107   8.250
 6386POPC   C3B27429  25.195  44.175   7.950
 6386POPC   C4B27430  25.238  44.140   7.650
 6387POPC   NC327431  40.006  26.028   9.450
 6387POPC   PO427432  40.006  26.081   9.150
 6387POPC   GL127433  40.027  26.014   8.850
 6387POPC   GL227434  39.896  25.987   8.850
 6387POPC   C1A27435  40.005  26.085   8.550
 6387POPC   D2A27436  39.974  26.014   8.250
 6387POPC   C3A27437  40.004  26.067   7.950
 6387POPC   C4A27438  39.994  26.071   7.650
 6387POPC   C1B27439  39.801  25.946   8.550
 6387POPC   C2B27440  39.802  25.891   8.250
 6387POPC   C3B27441  39.796  25.951   7.950
 6387POPC   C4B27442  39.778  25.939   7.650
 6388POPC   NC327443   8.198  12.883   9.450
 6388POPC   PO427444   8.155  12.806   9.150
 6388POPC   GL127445   8.162  12.875   8.850
 6388POPC   GL227446   8.354  12.855   8.850
 6388POPC   C1A27447   8.163  12.843   8.550
 6388POPC   D2A27448   8.215  12.872   8.250
 6388POPC   C3A27449   8.203  12.807   7.950
 6388POPC   C4A27450   8.234  12.887   7.650
 6388POPC   C1B27451   8.406  12.793   8.550
 6388POPC   C2B27452   8.410  12.829   8.250
 6388POPC   C3B27453   8.434  12.804   7.950
 6388POPC   C4B27454   8.476  12.818   7.650
 6389POPC   NC327455  26.795  40.032   9.450
 6389POPC   PO427456  26.838  40.039   9.150
 6389POPC   GL127457  26.851  40.056   8.850
 6389POPC   GL227458  26.857  39.916   8.850
 6389POPC   C1A27459  26.818  40.006   8.550
 6389POPC   D2A27460  26.782  39.968   8.250
 6389POPC   C3A27461  26.777  40.041   7.950
 6389POPC   C4A27462  26.790  40.011   7.650
 6389POPC   C1B27463  26.935  39.765   8.550
 6389POPC   C2B27464  26.850  39.817   8.250
 6389POPC   C3B27465  26.886  39.763   7.950
 6389POPC   C4B27466  26.914  39.756   7.650
 6390POPC   NC327467  36.079   0.444   9.450
 6390POPC   PO427468  36.095   0.430   9.150
 6390POPC   GL127469  36.132   0.424   8.850
 6390POPC   GL227470  36.178   0.551   8.850
 6390POPC   C1A27471  36.081   0.415   8.550
 6390POPC   D2A27472  36.148   0.440   8.250
 6390POPC   C3A27473  36.169   0.456   7.950
 6390POPC   C4A27474  36.116   0.470   7.650
 6390POPC   C1B27475  36.262   0.601   8.550
 6390POPC   C2B27476  36.309   0.658   8.250
 6390POPC   C3B27477  36.329   0.601   7.950
 6390POPC   C4B27478  36.327   0.598   7.650
 6391POPC   NC327479  14.399   5.106   9.450
 6391POPC   PO427480  14.432   5.104   9.150
 6391POPC   GL127481  14.377   5.060   8.850
 6391POPC   GL227482  14.370   5.189   8.850
 6391POPC   C1A27483  14.402   5.091   8.550
 6391POPC   D2A27484  14.403   5.049   8.250
 6391POPC   C3A27485  14.414   5.102   7.950
 6391POPC   C4A27486  14.419   5.092   7.650
 6391POPC   C1B27487  14.370   5.304   8.550
 6391POPC   C2B27488  14.302   5.300   8.250
 6391POPC   C3B27489  14.346   5.354   7.950
 6391POPC   C4B27490  14.370   5.361   7.650
 6392POPC   NC327491  24.442  27.590   9.450
 6392POPC   PO427492  24.444  27.601   9.150
 6392POPC   GL127493  24.511  27.572   8.850
 6392POPC   GL227494  24.446  27.500   8.850
 6392POPC   C1A27495  24.483  27.593   8.550
 6392POPC   D2A27496  24.529  27.567   8.250
 6392POPC   C3A27497  24.477  27.584   7.950
 6392POPC   C4A27498  24.502  27.587   7.650
 6392POPC   C1B27499  24.295  27.377   8.550
 6392POPC   C2B27500  24.319  27.447   8.250
 6392POPC   C3B27501  24.319  27.389   7.950
 6392POPC   C4B27502  24.336  27.395   7.650
 6393POPC   NC327503  22.944   5.867   9.450
 6393POPC   PO427504  22.970   5.849   9.150
 6393POPC   GL127505  22.892   5.828   8.850
 6393POPC   GL227506  23.038   5.881   8.850
 6393POPC   C1A27507  22.944   5.861   8.550
 6393POPC   D2A27508  22.938   5.906   8.250
 6393POPC   C3A27509  22.947   5.901   7.950
 6393POPC   C4A27510  22.972   5.899   7.650
 6393POPC   C1B27511  23.177   5.959   8.550
 6393POPC   C2B27512  23.150   5.903   8.250
 6393POPC   C3B27513  23.142   5.932   7.950
 6393POPC   C4B27514  23.167   5.953   7.650
 6394POPC   NC327515  14.392  34.618   9.450
 6394POPC   PO427516  14.433  34.557   9.150
 6394POPC   GL127517  14.433  34.561   8.850
 6394POPC   GL227518  14.252  34.533   8.850
 6394POPC   C1A27519  14.385  34.576   8.550
 6394POPC   D2A27520  14.383  34.541   8.250
 6394POPC   C3A27521  14.424  34.609   7.950
 6394POPC   C4A27522  14.403  34.542   7.650
 6394POPC   C1B27523  14.196  34.523   8.550
 6394POPC   C2B27524  14.195  34.510   8.250
 6394POPC   C3B27525  14.196  34.475   7.950
 6394POPC   C4B27526  14.190  34.544   7.650
 6395POPC   NC327527  36.131  36.141   9.450
 6395POPC   PO427528  36.091  36.146   9.150
 6395POPC   GL127529  36.118  36.106   8.850
 6395POPC   GL227530  36.036  36.200   8.850
 6395POPC   C1A27531  36.083  36.083   8.550
 6395POPC   D2A27532  36.097  36.104   8.250
 6395POPC   C3A27533  36.104  36.124   7.950
 6395POPC   C4A27534  36.135  36.088   7.650
 6395POPC   C1B27535  35.999  36.304   8.550
 6395POPC   C2B27536  35.996  36.266   8.250
 6395POPC   C3B27537  35.939  36.303   7.950
 6395POPC   C4B27538  35.978  36.300   7.650
 6396POPC   NC327539  29.900  29.119   9.450
 6396POPC   PO427540  29.929  29.162   9.150
 6396POPC   GL127541  29.905  29.179   8.850
 6396POPC   GL227542  29.943  29.043   8.850
 6396POPC   C1A27543  29.961  29.174   8.550
 6396POPC   D2A27544  29.878  29.106   8.250
 6396POPC   C3A27545  29.951  29.104   7.950
 6396POPC   C4A27546  29.907  29.183   7.650
 6396POPC   C1B27547  30.097  28.922   8.550
 6396POPC   C2B27548  30.069  28.888   8.250
 6396POPC   C3B27549  30.099  28.954   7.950
 6396POPC   C4B27550  30.050  28.959   7.650
 6397POPC   NC327551   1.946  13.591   9.450
 6397POPC   PO427552   1.978  13.671   9.150
 6397POPC   GL127553   1.993  13.623   8.850
 6397POPC   GL227554   2.133  13.635   8.850
 6397POPC   C1A27555   1.962  13.652   8.550
 6397POPC   D2A27556   1.987  13.600   8.250
 6397POPC   C3A27557   2.006  13.617   7.950
 6397POPC   C4A27558   2.034  13.602   7.650
 6397POPC   C1B27559   2.223  13.714   8.550
 6397POPC   C2B27560   2.218  13.696   8.250
 6397POPC   C3B27561   2.250  13.670   7.950
 6397POPC   C4B27562   2.191  13.686   7.650
 6398POPC   NC327563  10.540  10.489   9.450
 6398POPC   PO427564  10.509  10.563   9.150
 6398POPC   GL127565  10.538  10.567   8.850
 6398POPC   GL227566  10.667  10.562   8.850
 6398POPC   C1A27567  10.504  10.474   8.550
 6398POPC   D2A27568  10.549  10.511   8.250
 6398POPC   C3A27569  10.546  10.505   7.950
 6398POPC   C4A27570  10.513  10.492   7.650
 6398POPC   C1B27571  10.671  10.680   8.550
 6398POPC   C2B27572  10.693  10.676   8.250
 6398POPC   C3B27573  10.763  10.683   7.950
 6398POPC   C4B27574  10.704  10.727   7.650
 6399POPC   NC327575   8.163  33.061   9.450
 6399POPC   PO427576   8.213  32.981   9.150
 6399POPC   GL127577   8.209  33.058   8.850
 6399POPC   GL227578   8.082  33.011   8.850
 6399POPC   C1A27579   8.223  33.023   8.550
 6399POPC   D2A27580   8.221  32.979   8.250
 6399POPC   C3A27581   8.175  33.010   7.950
 6399POPC   C4A27582   8.202  33.073   7.650
 6399POPC   C1B27583   7.952  32.979   8.550
 6399POPC   C2B27584   7.922  32.954   8.250
 6399POPC   C3B27585   7.960  32.948   7.950
 6399POPC   C4B27586   7.987  32.936   7.650
 6400POPC   NC327587  19.016  37.631   9.450
 6400POPC   PO427588  19.055  37.688   9.150
 6400POPC   GL127589  19.093  37.675   8.850
 6400POPC   GL227590  18.955  37.680   8.850
 6400POPC   C1A27591  19.106  37.671   8.550
 6400POPC   D2A27592  19.025  37.674   8.250
 6400POPC   C3A27593  19.091  37.705   7.950
 6400POPC   C4A27594  19.044  37.632   7.650
 6400POPC   C1B27595  18.776  37.688   8.550
 6400POPC   C2B27596  18.801  37.747   8.250
 6400POPC   C3B27597  18.842  37.747   7.950
 6400POPC   C4B27598  18.827  37.723   7.650
 6401POPC   NC327599  23.667  10.496   9.450
 6401POPC   PO427600  23.731  10.531   9.150
 6401POPC   GL127601  23.698  10.528   8.850
 6401POPC   GL227602  23.676  10.435   8.850
 6401POPC   C1A27603  23.714  10.499   8.550
 6401POPC   D2A27604  23.715  10.519   8.250
 6401POPC   C3A27605  23.708  10.503   7.950
 6401POPC   C4A27606  23.707  10.573   7.650
 6401POPC   C1B27607  23.657  10.289   8.550
 6401POPC   C2B27608  23.589  10.299   8.250
 6401POPC   C3B27609  23.664  10.293   7.950
 6401POPC   C4B27610  23.679  10.237   7.650
 6402POPC   NC327611   0.437  37.635   9.450
 6402POPC   PO427612   0.427  37.636   9.150
 6402POPC   GL127613   0.450  37.667   8.850
 6402POPC   GL227614   0.402  37.813   8.850
 6402POPC   C1A27615   0.428  37.691   8.550
 6402POPC   D2A27616   0.413  37.689   8.250
 6402POPC   C3A27617   0.401  37.698   7.950
 6402POPC   C4A27618   0.404  37.651   7.650
 6402POPC   C1B27619   0.413  37.940   8.550
 6402POPC   C2B27620   0.370  37.889   8.250
 6402POPC   C3B27621   0.428  37.961   7.950
 6402POPC   C4B27622   0.430  37.937   7.650
 6403POPC   NC327623  16.755  34.552   9.450
 6403POPC   PO427624  16.683  34.561   9.150
 6403POPC   GL127625  16.759  34.552   8.850
 6403POPC   GL227626  16.706  34.728   8.850
 6403POPC   C1A27627  16.767  34.565   8.550
 6403POPC   D2A27628  16.708  34.565   8.250
 6403POPC   C3A27629  16.766  34.534   7.950
 6403POPC   C4A27630  16.688  34.582   7.650
 6403POPC   C1B27631  16.726  34.867   8.550
 6403POPC   C2B27632  16.717  34.842   8.250
 6403POPC   C3B27633  16.729  34.860   7.950
 6403POPC   C4B27634  16.783  34.849   7.650
 6404POPC   NC327635   1.262  42.319   9.450
 6404POPC   PO427636   1.201  42.292   9.150
 6404POPC   GL127637   1.193  42.304   8.850
 6404POPC   GL227638   1.212  42.406   8.850
 6404POPC   C1A27639   1.224  42.345   8.550
 6404POPC   D2A27640   1.190  42.374   8.250
 6404POPC   C3A27641   1.229  42.302   7.950
 6404POPC   C4A27642   1.234  42.356   7.650
 6404POPC   C1B27643   1.230  42.563   8.550
 6404POPC   C2B27644   1.325  42.601   8.250
 6404POPC   C3B27645   1.324  42.547   7.950
 6404POPC   C4B27646   1.300  42.573   7.650
 6405POPC   NC327647  15.211  34.597   9.450
 6405POPC   PO427648  15.154  34.564   9.150
 6405POPC   GL127649  15.178  34.572   8.850
 6405POPC   GL227650  15.212  34.665   8.850
 6405POPC   C1A27651  15.186  34.624   8.550
 6405POPC   D2A27652  15.193  34.604   8.250
 6405POPC   C3A27653  15.133  34.532   7.950
 6405POPC   C4A27654  15.135  34.580   7.650
 6405POPC   C1B27655  15.169  34.867   8.550
 6405POPC   C2B27656  15.209  34.817   8.250
 6405POPC   C3B27657  15.202  34.783   7.950
 6405POPC   C4B27658  15.171  34.825   7.650
 6406POPC   NC327659  40.746  10.500   9.450
 6406POPC   PO427660  40.781  10.551   9.150
 6406POPC   GL127661  40.755  10.524   8.850
 6406POPC   GL227662  40.756  10.631   8.850
 6406POPC   C1A27663  40.793  10.491   8.550
 6406POPC   D2A27664  40.784  10.482   8.250
 6406POPC   C3A27665  40.784  10.494   7.950
 6406POPC   C4A27666  40.754  10.509   7.650
 6406POPC   C1B27667  40.624  10.753   8.550
 6406POPC   C2B27668  40.707  10.783   8.250
 6406POPC   C3B27669  40.658  10.752   7.950
 6406POPC   C4B27670  40.637  10.773   7.650
 6407POPC   NC327671  15.146  27.602   9.450
 6407POPC   PO427672  15.173  27.642   9.150
 6407POPC   GL127673  15.146  27.550   8.850
 6407POPC   GL227674  15.063  27.542   8.850
 6407POPC   C1A27675  15.184  27.618   8.550
 6407POPC   D2A27676  15.201  27.620   8.250
 6407POPC   C3A27677  15.166  27.588   7.950
 6407POPC   C4A27678  15.178  27.600   7.650
 6407POPC   C1B27679  14.984  27.390   8.550
 6407POPC   C2B27680  15.036  27.409   8.250
 6407POPC   C3B27681  15.034  27.419   7.950
 6407POPC   C4B27682  14.997  27.421   7.650
 6408POPC   NC327683  22.133   8.998   9.450
 6408POPC   PO427684  22.173   8.997   9.150
 6408POPC   GL127685  22.211   8.944   8.850
 6408POPC   GL227686  22.241   8.999   8.850
 6408POPC   C1A27687  22.200   9.008   8.550
 6408POPC   D2A27688  22.155   8.943   8.250
 6408POPC   C3A27689  22.162   8.988   7.950
 6408POPC   C4A27690  22.176   8.931   7.650
 6408POPC   C1B27691  22.331   9.078   8.550
 6408POPC   C2B27692  22.389   9.170   8.250
 6408POPC   C3B27693  22.368   9.126   7.950
 6408POPC   C4B27694  22.356   9.125   7.650
 6409POPC   NC327695  11.348  22.892   9.450
 6409POPC   PO427696  11.308  22.928   9.150
 6409POPC   GL127697  11.288  22.903   8.850
 6409POPC   GL227698  11.270  23.075   8.850
 6409POPC   C1A27699  11.338  22.944   8.550
 6409POPC   D2A27700  11.338  22.914   8.250
 6409POPC   C3A27701  11.311  22.958   7.950
 6409POPC   C4A27702  11.314  22.926   7.650
 6409POPC   C1B27703  11.349  23.213   8.550
 6409POPC   C2B27704  11.347  23.226   8.250
 6409POPC   C3B27705  11.269  23.220   7.950
 6409POPC   C4B27706  11.273  23.205   7.650
 6410POPC   NC327707  43.155  22.209   9.450
 6410POPC   PO427708  43.142  22.129   9.150
 6410POPC   GL127709  43.130  22.184   8.850
 6410POPC   GL227710  43.147  22.236   8.850
 6410POPC   C1A27711  43.151  22.182   8.550
 6410POPC   D2A27712  43.080  22.184   8.250
 6410POPC   C3A27713  43.099  22.165   7.950
 6410POPC   C4A27714  43.149  22.165   7.650
 6410POPC   C1B27715  43.138  22.413   8.550
 6410POPC   C2B27716  43.216  22.401   8.250
 6410POPC   C3B27717  43.165  22.370   7.950
 6410POPC   C4B27718  43.170  22.446   7.650
 6411POPC   NC327719  24.482   6.616   9.450
 6411POPC   PO427720  24.496   6.668   9.150
 6411POPC   GL127721  24.442   6.680   8.850
 6411POPC   GL227722  24.402   6.626   8.850
 6411POPC   C1A27723  24.517   6.651   8.550
 6411POPC   D2A27724  24.461   6.638   8.250
 6411POPC   C3A27725  24.489   6.648   7.950
 6411POPC   C4A27726  24.453   6.604   7.650
 6411POPC   C1B27727  24.225   6.641   8.550
 6411POPC   C2B27728  24.264   6.592   8.250
 6411POPC   C3B27729  24.227   6.636   7.950
 6411POPC   C4B27730  24.271   6.605   7.650
 6412POPC   NC327731   8.224   8.934   9.450
 6412POPC   PO427732   8.238   8.942   9.150
 6412POPC   GL127733   8.149   8.933   8.850
 6412POPC   GL227734   8.310   8.866   8.850
 6412POPC   C1A27735   8.149   9.007   8.550
 6412POPC   D2A27736   8.220   8.976   8.250
 6412POPC   C3A27737   8.208   8.983   7.950
 6412POPC   C4A27738   8.203   9.021   7.650
 6412POPC   C1B27739   8.375   8.792   8.550
 6412POPC   C2B27740   8.439   8.804   8.250
 6412POPC   C3B27741   8.426   8.783   7.950
 6412POPC   C4B27742   8.390   8.851   7.650
 6413POPC   NC327743  34.605  36.176   9.450
 6413POPC   PO427744  34.583  36.106   9.150
 6413POPC   GL127745  34.543  36.096   8.850
 6413POPC   GL227746  34.454  36.248   8.850
 6413POPC   C1A27747  34.617  36.097   8.550
 6413POPC   D2A27748  34.550  36.138   8.250
 6413POPC   C3A27749  34.619  36.133   7.950
 6413POPC   C4A27750  34.575  36.156   7.650
 6413POPC   C1B27751  34.402  36.287   8.550
 6413POPC   C2B27752  34.384  36.323   8.250
 6413POPC   C3B27753  34.385  36.244   7.950
 6413POPC   C4B27754  34.403  36.225   7.650
 6414POPC   NC327755  41.576  33.786   9.450
 6414POPC   PO427756  41.558  33.792   9.150
 6414POPC   GL127757  41.591  33.786   8.850
 6414POPC   GL227758  41.593  33.664   8.850
 6414POPC   C1A27759  41.515  33.834   8.550
 6414POPC   D2A27760  41.562  33.791   8.250
 6414POPC   C3A27761  41.568  33.762   7.950
 6414POPC   C4A27762  41.599  33.779   7.650
 6414POPC   C1B27763  41.654  33.590   8.550
 6414POPC   C2B27764  41.642  33.608   8.250
 6414POPC   C3B27765  41.696  33.535   7.950
 6414POPC   C4B27766  41.636  33.547   7.650
 6415POPC   NC327767   5.137  32.227   9.450
 6415POPC   PO427768   5.140  32.249   9.150
 6415POPC   GL127769   5.101  32.228   8.850
 6415POPC   GL227770   5.184  32.193   8.850
 6415POPC   C1A27771   5.052  32.205   8.550
 6415POPC   D2A27772   5.121  32.204   8.250
 6415POPC   C3A27773   5.058  32.237   7.950
 6415POPC   C4A27774   5.069  32.221   7.650
 6415POPC   C1B27775   5.360  32.182   8.550
 6415POPC   C2B27776   5.381  32.189   8.250
 6415POPC   C3B27777   5.364  32.147   7.950
 6415POPC   C4B27778   5.362  32.145   7.650
 6416POPC   NC327779   8.941  32.272   9.450
 6416POPC   PO427780   8.929  32.203   9.150
 6416POPC   GL127781   8.934  32.275   8.850
 6416POPC   GL227782   8.920  32.122   8.850
 6416POPC   C1A27783   8.952  32.250   8.550
 6416POPC   D2A27784   8.927  32.259   8.250
 6416POPC   C3A27785   8.946  32.253   7.950
 6416POPC   C4A27786   9.011  32.206   7.650
 6416POPC   C1B27787   8.977  32.017   8.550
 6416POPC   C2B27788   8.930  31.982   8.250
 6416POPC   C3B27789   8.968  32.048   7.950
 6416POPC   C4B27790   8.949  31.957   7.650
 6417POPC   NC327791   7.448   9.797   9.450
 6417POPC   PO427792   7.393   9.783   9.150
 6417POPC   GL127793   7.421   9.706   8.850
 6417POPC   GL227794   7.532   9.705   8.850
 6417POPC   C1A27795   7.466   9.776   8.550
 6417POPC   D2A27796   7.427   9.702   8.250
 6417POPC   C3A27797   7.372   9.746   7.950
 6417POPC   C4A27798   7.413   9.725   7.650
 6417POPC   C1B27799   7.668   9.728   8.550
 6417POPC   C2B27800   7.638   9.719   8.250
 6417POPC   C3B27801   7.632   9.738   7.950
 6417POPC   C4B27802   7.686   9.668   7.650
 6418POPC   NC327803  33.846  41.562   9.450
 6418POPC   PO427804  33.762  41.568   9.150
 6418POPC   GL127805  33.764  41.596   8.850
 6418POPC   GL227806  33.667  41.477   8.850
 6418POPC   C1A27807  33.838  41.595   8.550
 6418POPC   D2A27808  33.757  41.601   8.250
 6418POPC   C3A27809  33.757  41.515   7.950
 6418POPC   C4A27810  33.802  41.562   7.650
 6418POPC   C1B27811  33.631  41.411   8.550
 6418POPC   C2B27812  33.561  41.428   8.250
 6418POPC   C3B27813  33.594  41.448   7.950
 6418POPC   C4B27814  33.615  41.414   7.650
 6419POPC   NC327815  26.859  10.484   9.450
 6419POPC   PO427816  26.844  10.512   9.150
 6419POPC   GL127817  26.790  10.527   8.850
 6419POPC   GL227818  26.690  10.451   8.850
 6419POPC   C1A27819  26.811  10.515   8.550
 6419POPC   D2A27820  26.835  10.483   8.250
 6419POPC   C3A27821  26.855  10.546   7.950
 6419POPC   C4A27822  26.812  10.565   7.650
 6419POPC   C1B27823  26.540  10.506   8.550
 6419POPC   C2B27824  26.559  10.511   8.250
 6419POPC   C3B27825  26.567  10.419   7.950
 6419POPC   C4B27826  26.537  10.473   7.650
 6420POPC   NC327827   1.959  20.572   9.450
 6420POPC   PO427828   2.010  20.593   9.150
 6420POPC   GL127829   1.975  20.574   8.850
 6420POPC   GL227830   2.051  20.718   8.850
 6420POPC   C1A27831   1.952  20.629   8.550
 6420POPC   D2A27832   1.999  20.582   8.250
 6420POPC   C3A27833   1.944  20.625   7.950
 6420POPC   C4A27834   1.964  20.591   7.650
 6420POPC   C1B27835   2.121  20.887   8.550
 6420POPC   C2B27836   2.055  20.856   8.250
 6420POPC   C3B27837   2.083  20.813   7.950
 6420POPC   C4B27838   2.118  20.841   7.650
 6421POPC   NC327839   1.992  12.833   9.450
 6421POPC   PO427840   1.961  12.823   9.150
 6421POPC   GL127841   1.956  12.861   8.850
 6421POPC   GL227842   1.847  12.748   8.850
 6421POPC   C1A27843   2.026  12.890   8.550
 6421POPC   D2A27844   1.946  12.848   8.250
 6421POPC   C3A27845   1.965  12.879   7.950
 6421POPC   C4A27846   1.958  12.885   7.650
 6421POPC   C1B27847   1.754  12.694   8.550
 6421POPC   C2B27848   1.726  12.701   8.250
 6421POPC   C3B27849   1.777  12.729   7.950
 6421POPC   C4B27850   1.758  12.769   7.650
 6422POPC   NC327851  34.620  19.836   9.450
 6422POPC   PO427852  34.587  19.870   9.150
 6422POPC   GL127853  34.566  19.822   8.850
 6422POPC   GL227854  34.606  19.668   8.850
 6422POPC   C1A27855  34.534  19.868   8.550
 6422POPC   D2A27856  34.604  19.848   8.250
 6422POPC   C3A27857  34.623  19.840   7.950
 6422POPC   C4A27858  34.549  19.871   7.650
 6422POPC   C1B27859  34.657  19.613   8.550
 6422POPC   C2B27860  34.634  19.548   8.250
 6422POPC   C3B27861  34.675  19.602   7.950
 6422POPC   C4B27862  34.649  19.641   7.650
 6423POPC   NC327863  36.950  43.132   9.450
 6423POPC   PO427864  36.856  43.146   9.150
 6423POPC   GL127865  36.952  43.101   8.850
 6423POPC   GL227866  36.888  42.949   8.850
 6423POPC   C1A27867  36.914  43.105   8.550
 6423POPC   D2A27868  36.949  43.086   8.250
 6423POPC   C3A27869  36.894  43.130   7.950
 6423POPC   C4A27870  36.902  43.111   7.650
 6423POPC   C1B27871  36.914  42.821   8.550
 6423POPC   C2B27872  36.989  42.839   8.250
 6423POPC   C3B27873  36.946  42.832   7.950
 6423POPC   C4B27874  36.997  42.854   7.650
 6424POPC   NC327875   8.165  41.596   9.450
 6424POPC   PO427876   8.190  41.550   9.150
 6424POPC   GL127877   8.177  41.549   8.850
 6424POPC   GL227878   8.152  41.682   8.850
 6424POPC   C1A27879   8.234  41.549   8.550
 6424POPC   D2A27880   8.204  41.570   8.250
 6424POPC   C3A27881   8.193  41.593   7.950
 6424POPC   C4A27882   8.179  41.550   7.650
 6424POPC   C1B27883   8.058  41.747   8.550
 6424POPC   C2B27884   8.004  41.714   8.250
 6424POPC   C3B27885   8.021  41.756   7.950
 6424POPC   C4B27886   8.002  41.742   7.650
 6425POPC   NC327887  18.316  25.259   9.450
 6425POPC   PO427888  18.328  25.307   9.150
 6425POPC   GL127889  18.319  25.258   8.850
 6425POPC   GL227890  18.371  25.185   8.850
 6425POPC   C1A27891  18.243  25.255   8.550
 6425POPC   D2A27892  18.239  25.273   8.250
 6425POPC   C3A27893  18.301  25.235   7.950
 6425POPC   C4A27894  18.266  25.254   7.650
 6425POPC   C1B27895  18.551  25.152   8.550
 6425POPC   C2B27896  18.463  25.203   8.250
 6425POPC   C3B27897  18.468  25.196   7.950
 6425POPC   C4B27898  18.472  25.115   7.650
 6426POPC   NC327899   7.442  39.233   9.450
 6426POPC   PO427900   7.424  39.251   9.150
 6426POPC   GL127901   7.375  39.233   8.850
 6426POPC   GL227902   7.327  39.283   8.850
 6426POPC   C1A27903   7.430  39.266   8.550
 6426POPC   D2A27904   7.427  39.209   8.250
 6426POPC   C3A27905   7.416  39.181   7.950
 6426POPC   C4A27906   7.450  39.226   7.650
 6426POPC   C1B27907   7.154  39.250   8.550
 6426POPC   C2B27908   7.173  39.290   8.250
 6426POPC   C3B27909   7.155  39.318   7.950
 6426POPC   C4B27910   7.142  39.333   7.650
 6427POPC   NC327911  28.397  29.898   9.450
 6427POPC   PO427912  28.408  29.933   9.150
 6427POPC   GL127913  28.389  29.944   8.850
 6427POPC   GL227914  28.284  29.906   8.850
 6427POPC   C1A27915  28.403  29.892   8.550
 6427POPC   D2A27916  28.333  29.949   8.250
 6427POPC   C3A27917  28.410  29.938   7.950
 6427POPC   C4A27918  28.374  29.945   7.650
 6427POPC   C1B27919  28.149  29.935   8.550
 6427POPC   C2B27920  28.144  29.911   8.250
 6427POPC   C3B27921  28.112  29.990   7.950
 6427POPC   C4B27922  28.150  29.957   7.650
 6428POPC   NC327923  14.386  33.021   9.450
 6428POPC   PO427924  14.410  33.053   9.150
 6428POPC   GL127925  14.397  33.053   8.850
 6428POPC   GL227926  14.319  32.918   8.850
 6428POPC   C1A27927  14.406  32.990   8.550
 6428POPC   D2A27928  14.355  33.009   8.250
 6428POPC   C3A27929  14.442  33.047   7.950
 6428POPC   C4A27930  14.418  32.997   7.650
 6428POPC   C1B27931  14.171  32.871   8.550
 6428POPC   C2B27932  14.228  32.870   8.250
 6428POPC   C3B27933  14.185  32.886   7.950
 6428POPC   C4B27934  14.188  32.910   7.650
 6429POPC   NC327935   3.588  20.648   9.450
 6429POPC   PO427936   3.516  20.650   9.150
 6429POPC   GL127937   3.577  20.646   8.850
 6429POPC   GL227938   3.657  20.667   8.850
 6429POPC   C1A27939   3.579  20.571   8.550
 6429POPC   D2A27940   3.514  20.618   8.250
 6429POPC   C3A27941   3.552  20.603   7.950
 6429POPC   C4A27942   3.515  20.635   7.650
 6429POPC   C1B27943   3.780  20.797   8.550
 6429POPC   C2B27944   3.755  20.715   8.250
 6429POPC   C3B27945   3.735  20.727   7.950
 6429POPC   C4B27946   3.756  20.748   7.650
 6430POPC   NC327947  15.207  33.793   9.450
 6430POPC   PO427948  15.148  33.788   9.150
 6430POPC   GL127949  15.198  33.818   8.850
 6430POPC   GL227950  15.176  33.891   8.850
 6430POPC   C1A27951  15.152  33.786   8.550
 6430POPC   D2A27952  15.152  33.837   8.250
 6430POPC   C3A27953  15.141  33.768   7.950
 6430POPC   C4A27954  15.178  33.835   7.650
 6430POPC   C1B27955  15.083  34.052   8.550
 6430POPC   C2B27956  15.129  34.058   8.250
 6430POPC   C3B27957  15.126  34.009   7.950
 6430POPC   C4B27958  15.113  34.054   7.650
 6431POPC   NC327959  30.681  28.355   9.450
 6431POPC   PO427960  30.735  28.366   9.150
 6431POPC   GL127961  30.677  28.409   8.850
 6431POPC   GL227962  30.851  28.374   8.850
 6431POPC   C1A27963  30.678  28.321   8.550
 6431POPC   D2A27964  30.738  28.395   8.250
 6431POPC   C3A27965  30.736  28.350   7.950
 6431POPC   C4A27966  30.677  28.326   7.650
 6431POPC   C1B27967  30.960  28.451   8.550
 6431POPC   C2B27968  30.967  28.444   8.250
 6431POPC   C3B27969  30.937  28.409   7.950
 6431POPC   C4B27970  30.948  28.399   7.650
 6432POPC   NC327971  28.367  37.651   9.450
 6432POPC   PO427972  28.322  37.679   9.150
 6432POPC   GL127973  28.343  37.722   8.850
 6432POPC   GL227974  28.303  37.754   8.850
 6432POPC   C1A27975  28.416  37.631   8.550
 6432POPC   D2A27976  28.392  37.702   8.250
 6432POPC   C3A27977  28.328  37.683   7.950
 6432POPC   C4A27978  28.346  37.678   7.650
 6432POPC   C1B27979  28.172  37.858   8.550
 6432POPC   C2B27980  28.195  37.845   8.250
 6432POPC   C3B27981  28.227  37.883   7.950
 6432POPC   C4B27982  28.163  37.844   7.650
 6433POPC   NC327983  26.079  39.960   9.450
 6433POPC   PO427984  26.003  39.976   9.150
 6433POPC   GL127985  26.021  40.043   8.850
 6433POPC   GL227986  26.134  39.949   8.850
 6433POPC   C1A27987  26.076  40.028   8.550
 6433POPC   D2A27988  26.045  40.000   8.250
 6433POPC   C3A27989  25.993  39.964   7.950
 6433POPC   C4A27990  26.091  40.031   7.650
 6433POPC   C1B27991  26.199  39.823   8.550
 6433POPC   C2B27992  26.205  39.759   8.250
 6433POPC   C3B27993  26.235  39.760   7.950
 6433POPC   C4B27994  26.193  39.766   7.650
 6434POPC   NC327995  10.524  42.378   9.450
 6434POPC   PO427996  10.478  42.319   9.150
 6434POPC   GL127997  10.544  42.306   8.850
 6434POPC   GL227998  10.388  42.348   8.850
 6434POPC   C1A27999  10.552  42.304   8.550
 6434POPC   D2A28000  10.519  42.306   8.250
 6434POPC   C3A28001  10.498  42.335   7.950
 6434POPC   C4A28002  10.549  42.296   7.650
 6434POPC   C1B28003  10.234  42.361   8.550
 6434POPC   C2B28004  10.231  42.337   8.250
 6434POPC   C3B28005  10.316  42.378   7.950
 6434POPC   C4B28006  10.283  42.330   7.650
 6435POPC   NC328007   4.343   3.584   9.450
 6435POPC   PO428008   4.275   3.552   9.150
 6435POPC   GL128009   4.325   3.538   8.850
 6435POPC   GL228010   4.197   3.517   8.850
 6435POPC   C1A28011   4.297   3.522   8.550
 6435POPC   D2A28012   4.287   3.580   8.250
 6435POPC   C3A28013   4.314   3.494   7.950
 6435POPC   C4A28014   4.317   3.562   7.650
 6435POPC   C1B28015   4.103   3.543   8.550
 6435POPC   C2B28016   4.080   3.549   8.250
 6435POPC   C3B28017   4.062   3.516   7.950
 6435POPC   C4B28018   4.115   3.511   7.650
 6436POPC   NC328019  15.948   3.505   9.450
 6436POPC   PO428020  15.966   3.517   9.150
 6436POPC   GL128021  15.948   3.590   8.850
 6436POPC   GL228022  16.058   3.647   8.850
 6436POPC   C1A28023  15.918   3.524   8.550
 6436POPC   D2A28024  15.925   3.563   8.250
 6436POPC   C3A28025  16.003   3.546   7.950
 6436POPC   C4A28026  15.985   3.542   7.650
 6436POPC   C1B28027  16.127   3.764   8.550
 6436POPC   C2B28028  16.078   3.746   8.250
 6436POPC   C3B28029  16.082   3.689   7.950
 6436POPC   C4B28030  16.079   3.698   7.650
 6437POPC   NC328031  43.857  40.817   9.450
 6437POPC   PO428032  43.918  40.822   9.150
 6437POPC   GL128033  43.887  40.779   8.850
 6437POPC   GL228034  43.902  40.878   8.850
 6437POPC   C1A28035  43.929  40.769   8.550
 6437POPC   D2A28036  43.856  40.826   8.250
 6437POPC   C3A28037  43.933  40.751   7.950
 6437POPC   C4A28038  43.896  40.825   7.650
 6437POPC   C1B28039  43.928  41.011   8.550
 6437POPC   C2B28040  43.910  41.031   8.250
 6437POPC   C3B28041  43.915  41.028   7.950
 6437POPC   C4B28042  43.972  41.044   7.650
 6438POPC   NC328043  29.147  40.780   9.450
 6438POPC   PO428044  29.108  40.812   9.150
 6438POPC   GL128045  29.164  40.780   8.850
 6438POPC   GL228046  29.115  40.940   8.850
 6438POPC   C1A28047  29.113  40.740   8.550
 6438POPC   D2A28048  29.123  40.753   8.250
 6438POPC   C3A28049  29.173  40.820   7.950
 6438POPC   C4A28050  29.149  40.777   7.650
 6438POPC   C1B28051  29.064  41.045   8.550
 6438POPC   C2B28052  29.123  41.039   8.250
 6438POPC   C3B28053  29.107  41.067   7.950
 6438POPC   C4B28054  29.100  40.976   7.650
 6439POPC   NC328055  33.767  13.654   9.450
 6439POPC   PO428056  33.786  13.602   9.150
 6439POPC   GL128057  33.818  13.664   8.850
 6439POPC   GL228058  33.895  13.713   8.850
 6439POPC   C1A28059  33.825  13.620   8.550
 6439POPC   D2A28060  33.751  13.627   8.250
 6439POPC   C3A28061  33.779  13.633   7.950
 6439POPC   C4A28062  33.830  13.585   7.650
 6439POPC   C1B28063  33.892  13.879   8.550
 6439POPC   C2B28064  33.891  13.884   8.250
 6439POPC   C3B28065  33.915  13.898   7.950
 6439POPC   C4B28066  33.851  13.897   7.650
 6440POPC   NC328067  39.222  34.540   9.450
 6440POPC   PO428068  39.250  34.619   9.150
 6440POPC   GL128069  39.209  34.567   8.850
 6440POPC   GL228070  39.141  34.442   8.850
 6440POPC   C1A28071  39.259  34.531   8.550
 6440POPC   D2A28072  39.251  34.617   8.250
 6440POPC   C3A28073  39.263  34.575   7.950
 6440POPC   C4A28074  39.235  34.604   7.650
 6440POPC   C1B28075  39.042  34.342   8.550
 6440POPC   C2B28076  39.060  34.383   8.250
 6440POPC   C3B28077  39.115  34.399   7.950
 6440POPC   C4B28078  39.062  34.357   7.650
 6441POPC   NC328079   8.153  22.149   9.450
 6441POPC   PO428080   8.231  22.116   9.150
 6441POPC   GL128081   8.150  22.122   8.850
 6441POPC   GL228082   8.200  22.287   8.850
 6441POPC   C1A28083   8.234  22.113   8.550
 6441POPC   D2A28084   8.217  22.192   8.250
 6441POPC   C3A28085   8.174  22.187   7.950
 6441POPC   C4A28086   8.148  22.191   7.650
 6441POPC   C1B28087   8.337  22.370   8.550
 6441POPC   C2B28088   8.266  22.370   8.250
 6441POPC   C3B28089   8.295  22.378   7.950
 6441POPC   C4B28090   8.311  22.366   7.650
 6442POPC   NC328091  18.307  19.049   9.450
 6442POPC   PO428092  18.323  19.076   9.150
 6442POPC   GL128093  18.297  19.042   8.850
 6442POPC   GL228094  18.336  19.155   8.850
 6442POPC   C1A28095  18.271  19.066   8.550
 6442POPC   D2A28096  18.294  19.080   8.250
 6442POPC   C3A28097  18.237  19.069   7.950
 6442POPC   C4A28098  18.248  19.037   7.650
 6442POPC   C1B28099  18.402  19.274   8.550
 6442POPC   C2B28100  18.382  19.276   8.250
 6442POPC   C3B28101  18.431  19.289   7.950
 6442POPC   C4B28102  18.440  19.224   7.650
 6443POPC   NC328103  12.089  12.034   9.450
 6443POPC   PO428104  12.062  12.082   9.150
 6443POPC   GL128105  12.120  12.039   8.850
 6443POPC   GL228106  11.944  12.043   8.850
 6443POPC   C1A28107  12.065  12.105   8.550
 6443POPC   D2A28108  12.061  12.036   8.250
 6443POPC   C3A28109  12.115  12.096   7.950
 6443POPC   C4A28110  12.103  12.082   7.650
 6443POPC   C1B28111  11.863  12.062   8.550
 6443POPC   C2B28112  11.840  12.108   8.250
 6443POPC   C3B28113  11.828  12.037   7.950
 6443POPC   C4B28114  11.870  12.075   7.650
 6444POPC   NC328115   3.550  12.027   9.450
 6444POPC   PO428116   3.569  12.102   9.150
 6444POPC   GL128117   3.518  12.096   8.850
 6444POPC   GL228118   3.461  12.000   8.850
 6444POPC   C1A28119   3.518  12.114   8.550
 6444POPC   D2A28120   3.541  12.081   8.250
 6444POPC   C3A28121   3.527  12.095   7.950
 6444POPC   C4A28122   3.505  12.102   7.650
 6444POPC   C1B28123   3.300  11.907   8.550
 6444POPC   C2B28124   3.360  11.933   8.250
 6444POPC   C3B28125   3.361  11.976   7.950
 6444POPC   C4B28126   3.321  11.969   7.650
 6445POPC   NC328127  24.448  36.879   9.450
 6445POPC   PO428128  24.468  36.908   9.150
 6445POPC   GL128129  24.482  36.948   8.850
 6445POPC   GL228130  24.502  36.788   8.850
 6445POPC   C1A28131  24.512  36.867   8.550
 6445POPC   D2A28132  24.499  36.885   8.250
 6445POPC   C3A28133  24.501  36.889   7.950
 6445POPC   C4A28134  24.465  36.952   7.650
 6445POPC   C1B28135  24.592  36.710   8.550
 6445POPC   C2B28136  24.590  36.663   8.250
 6445POPC   C3B28137  24.591  36.679   7.950
 6445POPC   C4B28138  24.558  36.714   7.650
 6446POPC   NC328139  39.253  15.170   9.450
 6446POPC   PO428140  39.216  15.173   9.150
 6446POPC   GL128141  39.207  15.196   8.850
 6446POPC   GL228142  39.118  15.078   8.850
 6446POPC   C1A28143  39.194  15.213   8.550
 6446POPC   D2A28144  39.256  15.208   8.250
 6446POPC   C3A28145  39.210  15.135   7.950
 6446POPC   C4A28146  39.236  15.175   7.650
 6446POPC   C1B28147  38.963  15.076   8.550
 6446POPC   C2B28148  38.997  15.031   8.250
 6446POPC   C3B28149  39.055  15.077   7.950
 6446POPC   C4B28150  39.049  15.067   7.650
 6447POPC   NC328151  27.584   1.994   9.450
 6447POPC   PO428152  27.577   2.005   9.150
 6447POPC   GL128153  27.594   2.027   8.850
 6447POPC   GL228154  27.683   2.156   8.850
 6447POPC   C1A28155  27.575   1.997   8.550
 6447POPC   D2A28156  27.606   1.969   8.250
 6447POPC   C3A28157  27.579   1.959   7.950
 6447POPC   C4A28158  27.554   1.967   7.650
 6447POPC   C1B28159  27.677   2.249   8.550
 6447POPC   C2B28160  27.644   2.273   8.250
 6447POPC   C3B28161  27.674   2.220   7.950
 6447POPC   C4B28162  27.719   2.201   7.650
 6448POPC   NC328163  34.558  44.631   9.450
 6448POPC   PO428164  34.603  44.675   9.150
 6448POPC   GL128165  34.583  44.707   8.850
 6448POPC   GL228166  34.644  44.767   8.850
 6448POPC   C1A28167  34.603  44.639   8.550
 6448POPC   D2A28168  34.585  44.702   8.250
 6448POPC   C3A28169  34.583  44.679   7.950
 6448POPC   C4A28170  34.624  44.632   7.650
 6448POPC   C1B28171  34.619  44.928   8.550
 6448POPC   C2B28172  34.632  44.930   8.250
 6448POPC   C3B28173  34.694  44.951   7.950
 6448POPC   C4B28174  34.642  44.880   7.650
 6449POPC   NC328175  33.023  41.549   9.450
 6449POPC   PO428176  33.053  41.608   9.150
 6449POPC   GL128177  33.014  41.544   8.850
 6449POPC   GL228178  32.877  41.532   8.850
 6449POPC   C1A28179  32.988  41.605   8.550
 6449POPC   D2A28180  33.001  41.600   8.250
 6449POPC   C3A28181  33.044  41.543   7.950
 6449POPC   C4A28182  33.005  41.519   7.650
 6449POPC   C1B28183  32.824  41.619   8.550
 6449POPC   C2B28184  32.810  41.551   8.250
 6449POPC   C3B28185  32.768  41.623   7.950
 6449POPC   C4B28186  32.798  41.595   7.650
 6450POPC   NC328187  27.576  38.443   9.450
 6450POPC   PO428188  27.638  38.416   9.150
 6450POPC   GL128189  27.562  38.445   8.850
 6450POPC   GL228190  27.684  38.509   8.850
 6450POPC   C1A28191  27.640  38.483   8.550
 6450POPC   D2A28192  27.638  38.491   8.250
 6450POPC   C3A28193  27.549  38.470   7.950
 6450POPC   C4A28194  27.620  38.410   7.650
 6450POPC   C1B28195  27.877  38.438   8.550
 6450POPC   C2B28196  27.850  38.461   8.250
 6450POPC   C3B28197  27.872  38.460   7.950
 6450POPC   C4B28198  27.868  38.507   7.650
 6451POPC   NC328199   5.094  11.327   9.450
 6451POPC   PO428200   5.081  11.327   9.150
 6451POPC   GL128201   5.069  11.276   8.850
 6451POPC   GL228202   5.209  11.189   8.850
 6451POPC   C1A28203   5.080  11.288   8.550
 6451POPC   D2A28204   5.075  11.320   8.250
 6451POPC   C3A28205   5.060  11.265   7.950
 6451POPC   C4A28206   5.050  11.258   7.650
 6451POPC   C1B28207   5.285  11.221   8.550
 6451POPC   C2B28208   5.323  11.130   8.250
 6451POPC   C3B28209   5.330  11.212   7.950
 6451POPC   C4B28210   5.348  11.173   7.650
 6452POPC   NC328211  20.659  43.126   9.450
 6452POPC   PO428212  20.632  43.117   9.150
 6452POPC   GL128213  20.611  43.118   8.850
 6452POPC   GL228214  20.666  42.993   8.850
 6452POPC   C1A28215  20.650  43.071   8.550
 6452POPC   D2A28216  20.582  43.124   8.250
 6452POPC   C3A28217  20.634  43.124   7.950
 6452POPC   C4A28218  20.607  43.134   7.650
 6452POPC   C1B28219  20.796  42.943   8.550
 6452POPC   C2B28220  20.782  42.974   8.250
 6452POPC   C3B28221  20.847  42.956   7.950
 6452POPC   C4B28222  20.841  42.942   7.650
 6453POPC   NC328223  22.913  13.657   9.450
 6453POPC   PO428224  22.897  13.615   9.150
 6453POPC   GL128225  22.897  13.654   8.850
 6453POPC   GL228226  22.818  13.596   8.850
 6453POPC   C1A28227  22.938  13.662   8.550
 6453POPC   D2A28228  22.956  13.662   8.250
 6453POPC   C3A28229  22.924  13.617   7.950
 6453POPC   C4A28230  22.928  13.675   7.650
 6453POPC   C1B28231  22.731  13.483   8.550
 6453POPC   C2B28232  22.711  13.526   8.250
 6453POPC   C3B28233  22.702  13.468   7.950
 6453POPC   C4B28234  22.746  13.536   7.650
 6454POPC   NC328235  14.399  33.848   9.450
 6454POPC   PO428236  14.412  33.760   9.150
 6454POPC   GL128237  14.390  33.766   8.850
 6454POPC   GL228238  14.325  33.698   8.850
 6454POPC   C1A28239  14.358  33.789   8.550
 6454POPC   D2A28240  14.408  33.807   8.250
 6454POPC   C3A28241  14.357  33.758   7.950
 6454POPC   C4A28242  14.421  33.768   7.650
 6454POPC   C1B28243  14.281  33.573   8.550
 6454POPC   C2B28244  14.318  33.563   8.250
 6454POPC   C3B28245  14.316  33.580   7.950
 6454POPC   C4B28246  14.346  33.564   7.650
 6455POPC   NC328247  12.862  15.920   9.450
 6455POPC   PO428248  12.876  15.987   9.150
 6455POPC   GL128249  12.875  15.938   8.850
 6455POPC   GL228250  12.956  16.023   8.850
 6455POPC   C1A28251  12.892  15.985   8.550
 6455POPC   D2A28252  12.878  15.954   8.250
 6455POPC   C3A28253  12.892  15.976   7.950
 6455POPC   C4A28254  12.865  15.908   7.650
 6455POPC   C1B28255  13.031  16.186   8.550
 6455POPC   C2B28256  13.025  16.121   8.250
 6455POPC   C3B28257  13.034  16.114   7.950
 6455POPC   C4B28258  12.952  16.194   7.650
 6456POPC   NC328259  40.013  43.855   9.450
 6456POPC   PO428260  39.981  43.864   9.150
 6456POPC   GL128261  39.965  43.851   8.850
 6456POPC   GL228262  40.045  43.770   8.850
 6456POPC   C1A28263  39.998  43.848   8.550
 6456POPC   D2A28264  39.965  43.906   8.250
 6456POPC   C3A28265  39.992  43.859   7.950
 6456POPC   C4A28266  39.991  43.916   7.650
 6456POPC   C1B28267  40.189  43.724   8.550
 6456POPC   C2B28268  40.172  43.668   8.250
 6456POPC   C3B28269  40.188  43.640   7.950
 6456POPC   C4B28270  40.162  43.638   7.650
 6457POPC   NC328271   8.162  28.395   9.450
 6457POPC   PO428272   8.165  28.396   9.150
 6457POPC   GL128273   8.148  28.406   8.850
 6457POPC   GL228274   8.054  28.290   8.850
 6457POPC   C1A28275   8.176  28.406   8.550
 6457POPC   D2A28276   8.207  28.396   8.250
 6457POPC   C3A28277   8.162  28.407   7.950
 6457POPC   C4A28278   8.175  28.332   7.650
 6457POPC   C1B28279   8.001  28.234   8.550
 6457POPC   C2B28280   7.966  28.237   8.250
 6457POPC   C3B28281   7.996  28.246   7.950
 6457POPC   C4B28282   7.987  28.256   7.650
 6458POPC   NC328283  16.758   1.251   9.450
 6458POPC   PO428284  16.746   1.165   9.150
 6458POPC   GL128285  16.763   1.244   8.850
 6458POPC   GL228286  16.835   1.272   8.850
 6458POPC   C1A28287  16.720   1.175   8.550
 6458POPC   D2A28288  16.683   1.205   8.250
 6458POPC   C3A28289  16.776   1.234   7.950
 6458POPC   C4A28290  16.769   1.239   7.650
 6458POPC   C1B28291  16.949   1.438   8.550
 6458POPC   C2B28292  16.910   1.409   8.250
 6458POPC   C3B28293  16.883   1.389   7.950
 6458POPC   C4B28294  16.910   1.418   7.650
 6459POPC   NC328295  40.821   5.844   9.450
 6459POPC   PO428296  40.832   5.918   9.150
 6459POPC   GL128297  40.824   5.872   8.850
 6459POPC   GL228298  40.913   5.841   8.850
 6459POPC   C1A28299  40.808   5.900   8.550
 6459POPC   D2A28300  40.812   5.855   8.250
 6459POPC   C3A28301  40.736   5.832   7.950
 6459POPC   C4A28302  40.785   5.913   7.650
 6459POPC   C1B28303  41.067   5.859   8.550
 6459POPC   C2B28304  41.031   5.787   8.250
 6459POPC   C3B28305  40.984   5.793   7.950
 6459POPC   C4B28306  40.986   5.784   7.650
 6460POPC   NC328307  36.104  28.378   9.450
 6460POPC   PO428308  36.151  28.386   9.150
 6460POPC   GL128309  36.126  28.411   8.850
 6460POPC   GL228310  36.210  28.367   8.850
 6460POPC   C1A28311  36.110  28.370   8.550
 6460POPC   D2A28312  36.085  28.360   8.250
 6460POPC   C3A28313  36.134  28.356   7.950
 6460POPC   C4A28314  36.152  28.351   7.650
 6460POPC   C1B28315  36.417  28.342   8.550
 6460POPC   C2B28316  36.416  28.329   8.250
 6460POPC   C3B28317  36.419  28.393   7.950
 6460POPC   C4B28318  36.404  28.349   7.650
 6461POPC   NC328319  44.707  41.584   9.450
 6461POPC   PO428320  44.635  41.598   9.150
 6461POPC   GL128321  44.656  41.523   8.850
 6461POPC   GL228322  44.772  41.670   8.850
 6461POPC   C1A28323  44.669  41.548   8.550
 6461POPC   D2A28324  44.619  41.536   8.250
 6461POPC   C3A28325  44.696  41.601   7.950
 6461POPC   C4A28326  44.695  41.556   7.650
 6461POPC   C1B28327  44.883  41.740   8.550
 6461POPC   C2B28328  44.890  41.720   8.250
 6461POPC   C3B28329  44.826  41.758   7.950
 6461POPC   C4B28330  44.890  41.698   7.650
 6462POPC   NC328331  18.316  40.025   9.450
 6462POPC   PO428332  18.311  39.979   9.150
 6462POPC   GL128333  18.238  39.971   8.850
 6462POPC   GL228334  18.214  39.848   8.850
 6462POPC   C1A28335  18.295  40.025   8.550
 6462POPC   D2A28336  18.316  39.994   8.250
 6462POPC   C3A28337  18.292  40.050   7.950
 6462POPC   C4A28338  18.294  39.963   7.650
 6462POPC   C1B28339  18.256  39.801   8.550
 6462POPC   C2B28340  18.204  39.789   8.250
 6462POPC   C3B28341  18.193  39.729   7.950
 6462POPC   C4B28342  18.217  39.805   7.650
 6463POPC   NC328343  10.567  26.086   9.450
 6463POPC   PO428344  10.549  26.007   9.150
 6463POPC   GL128345  10.477  26.072   8.850
 6463POPC   GL228346  10.455  25.930   8.850
 6463POPC   C1A28347  10.526  26.065   8.550
 6463POPC   D2A28348  10.525  25.998   8.250
 6463POPC   C3A28349  10.508  26.083   7.950
 6463POPC   C4A28350  10.519  26.085   7.650
 6463POPC   C1B28351  10.396  25.857   8.550
 6463POPC   C2B28352  10.453  25.864   8.250
 6463POPC   C3B28353  10.381  25.784   7.950
 6463POPC   C4B28354  10.435  25.802   7.650
 6464POPC   NC328355  22.193  43.091   9.450
 6464POPC   PO428356  22.134  43.151   9.150
 6464POPC   GL128357  22.162  43.118   8.850
 6464POPC   GL228358  22.084  43.051   8.850
 6464POPC   C1A28359  22.206  43.113   8.550
 6464POPC   D2A28360  22.138  43.065   8.250
 6464POPC   C3A28361  22.149  43.106   7.950
 6464POPC   C4A28362  22.127  43.116   7.650
 6464POPC   C1B28363  21.922  43.044   8.550
 6464POPC   C2B28364  21.932  43.042   8.250
 6464POPC   C3B28365  21.894  43.035   7.950
 6464POPC   C4B28366  21.966  43.025   7.650
 6465POPC   NC328367  31.509   1.170   9.450
 6465POPC   PO428368  31.484   1.233   9.150
 6465POPC   GL128369  31.469   1.165   8.850
 6465POPC   GL228370  31.534   1.136   8.850
 6465POPC   C1A28371  31.501   1.169   8.550
 6465POPC   D2A28372  31.438   1.197   8.250
 6465POPC   C3A28373  31.473   1.263   7.950
 6465POPC   C4A28374  31.512   1.261   7.650
 6465POPC   C1B28375  31.634   1.030   8.550
 6465POPC   C2B28376  31.544   1.015   8.250
 6465POPC   C3B28377  31.539   1.028   7.950
 6465POPC   C4B28378  31.603   0.994   7.650
 6466POPC   NC328379   9.712  15.921   9.450
 6466POPC   PO428380   9.798  15.948   9.150
 6466POPC   GL128381   9.712  15.932   8.850
 6466POPC   GL228382   9.739  15.841   8.850
 6466POPC   C1A28383   9.770  15.968   8.550
 6466POPC   D2A28384   9.726  15.998   8.250
 6466POPC   C3A28385   9.764  15.922   7.950
 6466POPC   C4A28386   9.761  15.910   7.650
 6466POPC   C1B28387   9.685  15.774   8.550
 6466POPC   C2B28388   9.615  15.696   8.250
 6466POPC   C3B28389   9.644  15.758   7.950
 6466POPC   C4B28390   9.654  15.689   7.650
 6467POPC   NC328391  26.040  33.751   9.450
 6467POPC   PO428392  25.994  33.752   9.150
 6467POPC   GL128393  26.044  33.837   8.850
 6467POPC   GL228394  25.994  33.879   8.850
 6467POPC   C1A28395  26.080  33.830   8.550
 6467POPC   D2A28396  26.021  33.775   8.250
 6467POPC   C3A28397  26.069  33.809   7.950
 6467POPC   C4A28398  26.081  33.832   7.650
 6467POPC   C1B28399  26.047  34.048   8.550
 6467POPC   C2B28400  26.045  34.092   8.250
 6467POPC   C3B28401  26.033  34.079   7.950
 6467POPC   C4B28402  26.037  34.013   7.650
 6468POPC   NC328403  41.539  30.704   9.450
 6468POPC   PO428404  41.604  30.741   9.150
 6468POPC   GL128405  41.527  30.689   8.850
 6468POPC   GL228406  41.636  30.758   8.850
 6468POPC   C1A28407  41.582  30.715   8.550
 6468POPC   D2A28408  41.560  30.690   8.250
 6468POPC   C3A28409  41.518  30.701   7.950
 6468POPC   C4A28410  41.598  30.664   7.650
 6468POPC   C1B28411  41.821  30.773   8.550
 6468POPC   C2B28412  41.815  30.747   8.250
 6468POPC   C3B28413  41.761  30.765   7.950
 6468POPC   C4B28414  41.786  30.819   7.650
 6469POPC   NC328415   5.104  43.921   9.450
 6469POPC   PO428416   5.063  43.841   9.150
 6469POPC   GL128417   5.141  43.895   8.850
 6469POPC   GL228418   5.016  43.962   8.850
 6469POPC   C1A28419   5.102  43.893   8.550
 6469POPC   D2A28420   5.095  43.890   8.250
 6469POPC   C3A28421   5.113  43.919   7.950
 6469POPC   C4A28422   5.115  43.919   7.650
 6469POPC   C1B28423   4.994  44.162   8.550
 6469POPC   C2B28424   5.075  44.095   8.250
 6469POPC   C3B28425   5.018  44.126   7.950
 6469POPC   C4B28426   5.032  44.152   7.650
 6470POPC   NC328427  22.944  19.057   9.450
 6470POPC   PO428428  22.916  19.061   9.150
 6470POPC   GL128429  22.970  19.024   8.850
 6470POPC   GL228430  23.013  18.993   8.850
 6470POPC   C1A28431  22.985  19.054   8.550
 6470POPC   D2A28432  22.953  19.061   8.250
 6470POPC   C3A28433  22.954  19.088   7.950
 6470POPC   C4A28434  22.966  19.058   7.650
 6470POPC   C1B28435  23.177  18.993   8.550
 6470POPC   C2B28436  23.204  18.998   8.250
 6470POPC   C3B28437  23.145  19.051   7.950
 6470POPC   C4B28438  23.134  18.973   7.650
 6471POPC   NC328439  32.986  44.615   9.450
 6471POPC   PO428440  33.063  44.617   9.150
 6471POPC   GL128441  33.011  44.614   8.850
 6471POPC   GL228442  33.047  44.792   8.850
 6471POPC   C1A28443  33.054  44.627   8.550
 6471POPC   D2A28444  33.057  44.677   8.250
 6471POPC   C3A28445  33.017  44.667   7.950
 6471POPC   C4A28446  33.044  44.695   7.650
 6471POPC   C1B28447  33.194  44.843   8.550
 6471POPC   C2B28448  33.110  44.895   8.250
 6471POPC   C3B28449  33.195  44.879   7.950
 6471POPC   C4B28450  33.099  44.876   7.650
 6472POPC   NC328451  13.660  15.159   9.450
 6472POPC   PO428452  13.582  15.207   9.150
 6472POPC   GL128453  13.624  15.200   8.850
 6472POPC   GL228454  13.725  15.084   8.850
 6472POPC   C1A28455  13.656  15.226   8.550
 6472POPC   D2A28456  13.668  15.134   8.250
 6472POPC   C3A28457  13.629  15.207   7.950
 6472POPC   C4A28458  13.579  15.215   7.650
 6472POPC   C1B28459  13.850  14.978   8.550
 6472POPC   C2B28460  13.762  14.984   8.250
 6472POPC   C3B28461  13.811  15.036   7.950
 6472POPC   C4B28462  13.851  15.030   7.650
 6473POPC   NC328463  22.913  20.599   9.450
 6473POPC   PO428464  22.938  20.576   9.150
 6473POPC   GL128465  22.918  20.599   8.850
 6473POPC   GL228466  22.889  20.670   8.850
 6473POPC   C1A28467  22.908  20.574   8.550
 6473POPC   D2A28468  22.924  20.580   8.250
 6473POPC   C3A28469  22.923  20.618   7.950
 6473POPC   C4A28470  22.967  20.615   7.650
 6473POPC   C1B28471  22.796  20.838   8.550
 6473POPC   C2B28472  22.823  20.814   8.250
 6473POPC   C3B28473  22.781  20.795   7.950
 6473POPC   C4B28474  22.832  20.821   7.650
 6474POPC   NC328475  38.434  44.708   9.450
 6474POPC   PO428476  38.482  44.650   9.150
 6474POPC   GL128477  38.440  44.661   8.850
 6474POPC   GL228478  38.371  44.576   8.850
 6474POPC   C1A28479  38.493  44.697   8.550
 6474POPC   D2A28480  38.415  44.653   8.250
 6474POPC   C3A28481  38.417  44.616   7.950
 6474POPC   C4A28482  38.473  44.690   7.650
 6474POPC   C1B28483  38.253  44.587   8.550
 6474POPC   C2B28484  38.271  44.591   8.250
 6474POPC   C3B28485  38.201  44.510   7.950
 6474POPC   C4B28486  38.194  44.504   7.650
 6475POPC   NC328487   2.032   6.624   9.450
 6475POPC   PO428488   2.004   6.613   9.150
 6475POPC   GL128489   2.007   6.676   8.850
 6475POPC   GL228490   2.069   6.555   8.850
 6475POPC   C1A28491   1.973   6.663   8.550
 6475POPC   D2A28492   1.979   6.636   8.250
 6475POPC   C3A28493   1.961   6.618   7.950
 6475POPC   C4A28494   2.007   6.598   7.650
 6475POPC   C1B28495   2.233   6.527   8.550
 6475POPC   C2B28496   2.164   6.550   8.250
 6475POPC   C3B28497   2.243   6.504   7.950
 6475POPC   C4B28498   2.232   6.542   7.650
 6476POPC   NC328499   5.918  29.929   9.450
 6476POPC   PO428500   5.905  29.897   9.150
 6476POPC   GL128501   5.845  29.876   8.850
 6476POPC   GL228502   5.946  29.804   8.850
 6476POPC   C1A28503   5.878  29.919   8.550
 6476POPC   D2A28504   5.881  29.898   8.250
 6476POPC   C3A28505   5.832  29.903   7.950
 6476POPC   C4A28506   5.859  29.924   7.650
 6476POPC   C1B28507   5.937  29.693   8.550
 6476POPC   C2B28508   6.027  29.705   8.250
 6476POPC   C3B28509   6.012  29.684   7.950
 6476POPC   C4B28510   5.953  29.724   7.650
 6477POPC   NC328511  33.812  10.574   9.450
 6477POPC   PO428512  33.755  10.497   9.150
 6477POPC   GL128513  33.789  10.496   8.850
 6477POPC   GL228514  33.934  10.489   8.850
 6477POPC   C1A28515  33.759  10.569   8.550
 6477POPC   D2A28516  33.773  10.498   8.250
 6477POPC   C3A28517  33.797  10.544   7.950
 6477POPC   C4A28518  33.838  10.537   7.650
 6477POPC   C1B28519  34.040  10.446   8.550
 6477POPC   C2B28520  34.015  10.436   8.250
 6477POPC   C3B28521  34.022  10.415   7.950
 6477POPC   C4B28522  34.011  10.450   7.650
 6478POPC   NC328523   2.798  27.573   9.450
 6478POPC   PO428524   2.722  27.557   9.150
 6478POPC   GL128525   2.772  27.610   8.850
 6478POPC   GL228526   2.677  27.504   8.850
 6478POPC   C1A28527   2.751  27.621   8.550
 6478POPC   D2A28528   2.749  27.574   8.250
 6478POPC   C3A28529   2.791  27.622   7.950
 6478POPC   C4A28530   2.728  27.602   7.650
 6478POPC   C1B28531   2.573  27.492   8.550
 6478POPC   C2B28532   2.545  27.425   8.250
 6478POPC   C3B28533   2.602  27.407   7.950
 6478POPC   C4B28534   2.581  27.462   7.650
 6479POPC   NC328535  36.141  34.611   9.450
 6479POPC   PO428536  36.143  34.569   9.150
 6479POPC   GL128537  36.177  34.604   8.850
 6479POPC   GL228538  36.075  34.461   8.850
 6479POPC   C1A28539  36.097  34.558   8.550
 6479POPC   D2A28540  36.163  34.569   8.250
 6479POPC   C3A28541  36.111  34.585   7.950
 6479POPC   C4A28542  36.085  34.567   7.650
 6479POPC   C1B28543  36.018  34.344   8.550
 6479POPC   C2B28544  36.016  34.353   8.250
 6479POPC   C3B28545  36.015  34.322   7.950
 6479POPC   C4B28546  36.024  34.334   7.650
 6480POPC   NC328547  43.129  33.802   9.450
 6480POPC   PO428548  43.083  33.801   9.150
 6480POPC   GL128549  43.150  33.814   8.850
 6480POPC   GL228550  42.987  33.773   8.850
 6480POPC   C1A28551  43.095  33.849   8.550
 6480POPC   D2A28552  43.065  33.809   8.250
 6480POPC   C3A28553  43.067  33.761   7.950
 6480POPC   C4A28554  43.090  33.804   7.650
 6480POPC   C1B28555  42.884  33.748   8.550
 6480POPC   C2B28556  42.858  33.779   8.250
 6480POPC   C3B28557  42.858  33.770   7.950
 6480POPC   C4B28558  42.862  33.731   7.650
 6481POPC   NC328559  20.617   1.942   9.450
 6481POPC   PO428560  20.622   1.989   9.150
 6481POPC   GL128561  20.618   1.958   8.850
 6481POPC   GL228562  20.589   1.902   8.850
 6481POPC   C1A28563  20.643   2.005   8.550
 6481POPC   D2A28564  20.640   1.959   8.250
 6481POPC   C3A28565  20.660   1.989   7.950
 6481POPC   C4A28566  20.589   2.020   7.650
 6481POPC   C1B28567  20.664   1.751   8.550
 6481POPC   C2B28568  20.628   1.757   8.250
 6481POPC   C3B28569  20.612   1.779   7.950
 6481POPC   C4B28570  20.595   1.727   7.650
 6482POPC   NC328571  40.770   2.742   9.450
 6482POPC   PO428572  40.816   2.740   9.150
 6482POPC   GL128573  40.795   2.795   8.850
 6482POPC   GL228574  40.901   2.873   8.850
 6482POPC   C1A28575  40.821   2.731   8.550
 6482POPC   D2A28576  40.776   2.726   8.250
 6482POPC   C3A28577  40.787   2.778   7.950
 6482POPC   C4A28578  40.817   2.738   7.650
 6482POPC   C1B28579  40.998   2.910   8.550
 6482POPC   C2B28580  40.982   2.924   8.250
 6482POPC   C3B28581  41.015   2.950   7.950
 6482POPC   C4B28582  40.992   2.972   7.650
 6483POPC   NC328583   8.938  26.059   9.450
 6483POPC   PO428584   8.956  26.084   9.150
 6483POPC   GL128585   8.954  26.027   8.850
 6483POPC   GL228586   9.050  25.961   8.850
 6483POPC   C1A28587   8.976  26.050   8.550
 6483POPC   D2A28588   8.930  26.079   8.250
 6483POPC   C3A28589   8.974  26.023   7.950
 6483POPC   C4A28590   8.973  26.041   7.650
 6483POPC   C1B28591   9.231  25.964   8.550
 6483POPC   C2B28592   9.158  25.972   8.250
 6483POPC   C3B28593   9.244  25.917   7.950
 6483POPC   C4B28594   9.230  25.960   7.650
 6484POPC   NC328595   0.420  16.728   9.450
 6484POPC   PO428596   0.417  16.702   9.150
 6484POPC   GL128597   0.432  16.774   8.850
 6484POPC   GL228598   0.514  16.639   8.850
 6484POPC   C1A28599   0.462  16.765   8.550
 6484POPC   D2A28600   0.447  16.755   8.250
 6484POPC   C3A28601   0.471  16.707   7.950
 6484POPC   C4A28602   0.423  16.725   7.650
 6484POPC   C1B28603   0.663  16.609   8.550
 6484POPC   C2B28604   0.659  16.563   8.250
 6484POPC   C3B28605   0.627  16.588   7.950
 6484POPC   C4B28606   0.604  16.619   7.650
 6485POPC   NC328607  37.674  20.567   9.450
 6485POPC   PO428608  37.677  20.659   9.150
 6485POPC   GL128609  37.672  20.568   8.850
 6485POPC   GL228610  37.667  20.689   8.850
 6485POPC   C1A28611  37.700  20.580   8.550
 6485POPC   D2A28612  37.680  20.614   8.250
 6485POPC   C3A28613  37.716  20.573   7.950
 6485POPC   C4A28614  37.722  20.620   7.650
 6485POPC   C1B28615  37.588  20.804   8.550
 6485POPC   C2B28616  37.562  20.860   8.250
 6485POPC   C3B28617  37.562  20.870   7.950
 6485POPC   C4B28618  37.600  20.854   7.650
 6486POPC   NC328619  42.300   8.200   9.450
 6486POPC   PO428620  42.306   8.148   9.150
 6486POPC   GL128621  42.362   8.173   8.850
 6486POPC   GL228622  42.409   8.105   8.850
 6486POPC   C1A28623  42.350   8.238   8.550
 6486POPC   D2A28624  42.310   8.226   8.250
 6486POPC   C3A28625  42.285   8.150   7.950
 6486POPC   C4A28626  42.365   8.155   7.650
 6486POPC   C1B28627  42.585   8.151   8.550
 6486POPC   C2B28628  42.598   8.074   8.250
 6486POPC   C3B28629  42.594   8.156   7.950
 6486POPC   C4B28630  42.529   8.080   7.650
 6487POPC   NC328631  16.717   3.503   9.450
 6487POPC   PO428632  16.734   3.586   9.150
 6487POPC   GL128633  16.767   3.537   8.850
 6487POPC   GL228634  16.606   3.499   8.850
 6487POPC   C1A28635  16.688   3.573   8.550
 6487POPC   D2A28636  16.709   3.563   8.250
 6487POPC   C3A28637  16.763   3.506   7.950
 6487POPC   C4A28638  16.716   3.581   7.650
 6487POPC   C1B28639  16.553   3.365   8.550
 6487POPC   C2B28640  16.547   3.426   8.250
 6487POPC   C3B28641  16.547   3.431   7.950
 6487POPC   C4B28642  16.520   3.361   7.650
 6488POPC   NC328643   0.455  15.982   9.450
 6488POPC   PO428644   0.473  15.913   9.150
 6488POPC   GL128645   0.440  15.964   8.850
 6488POPC   GL228646   0.427  16.115   8.850
 6488POPC   C1A28647   0.483  15.992   8.550
 6488POPC   D2A28648   0.487  15.961   8.250
 6488POPC   C3A28649   0.393  15.963   7.950
 6488POPC   C4A28650   0.484  16.002   7.650
 6488POPC   C1B28651   0.348  16.209   8.550
 6488POPC   C2B28652   0.391  16.175   8.250
 6488POPC   C3B28653   0.399  16.149   7.950
 6488POPC   C4B28654   0.371  16.230   7.650
 6489POPC   NC328655   7.392  42.331   9.450
 6489POPC   PO428656   7.430  42.362   9.150
 6489POPC   GL128657   7.384  42.342   8.850
 6489POPC   GL228658   7.351  42.490   8.850
 6489POPC   C1A28659   7.374  42.335   8.550
 6489POPC   D2A28660   7.397  42.381   8.250
 6489POPC   C3A28661   7.432  42.321   7.950
 6489POPC   C4A28662   7.403  42.352   7.650
 6489POPC   C1B28663   7.285  42.574   8.550
 6489POPC   C2B28664   7.255  42.528   8.250
 6489POPC   C3B28665   7.295  42.576   7.950
 6489POPC   C4B28666   7.318  42.598   7.650
 6490POPC   NC328667  12.044  39.203   9.450
 6490POPC   PO428668  12.034  39.242   9.150
 6490POPC   GL128669  12.110  39.246   8.850
 6490POPC   GL228670  12.151  39.295   8.850
 6490POPC   C1A28671  12.058  39.281   8.550
 6490POPC   D2A28672  12.029  39.222   8.250
 6490POPC   C3A28673  12.029  39.277   7.950
 6490POPC   C4A28674  12.115  39.260   7.650
 6490POPC   C1B28675  12.230  39.375   8.550
 6490POPC   C2B28676  12.286  39.390   8.250
 6490POPC   C3B28677  12.296  39.402   7.950
 6490POPC   C4B28678  12.269  39.402   7.650
 6491POPC   NC328679  14.379  23.664   9.450
 6491POPC   PO428680  14.367  23.755   9.150
 6491POPC   GL128681  14.367  23.675   8.850
 6491POPC   GL228682  14.512  23.660   8.850
 6491POPC   C1A28683  14.421  23.740   8.550
 6491POPC   D2A28684  14.424  23.687   8.250
 6491POPC   C3A28685  14.425  23.728   7.950
 6491POPC   C4A28686  14.359  23.701   7.650
 6491POPC   C1B28687  14.603  23.539   8.550
 6491POPC   C2B28688  14.561  23.551   8.250
 6491POPC   C3B28689  14.596  23.587   7.950
 6491POPC   C4B28690  14.584  23.594   7.650
 6492POPC   NC328691  14.449  36.900   9.450
 6492POPC   PO428692  14.451  36.897   9.150
 6492POPC   GL128693  14.440  36.890   8.850
 6492POPC   GL228694  14.536  36.783   8.850
 6492POPC   C1A28695  14.448  36.867   8.550
 6492POPC   D2A28696  14.422  36.911   8.250
 6492POPC   C3A28697  14.386  36.869   7.950
 6492POPC   C4A28698  14.391  36.919   7.650
 6492POPC   C1B28699  14.561  36.690   8.550
 6492POPC   C2B28700  14.579  36.771   8.250
 6492POPC   C3B28701  14.555  36.737   7.950
 6492POPC   C4B28702  14.623  36.766   7.650
 6493POPC   NC328703  12.083   4.294   9.450
 6493POPC   PO428704  12.103   4.310   9.150
 6493POPC   GL128705  12.098   4.331   8.850
 6493POPC   GL228706  12.115   4.160   8.850
 6493POPC   C1A28707  12.110   4.333   8.550
 6493POPC   D2A28708  12.071   4.316   8.250
 6493POPC   C3A28709  12.079   4.331   7.950
 6493POPC   C4A28710  12.078   4.365   7.650
 6493POPC   C1B28711  12.065   4.064   8.550
 6493POPC   C2B28712  12.071   4.063   8.250
 6493POPC   C3B28713  12.119   4.061   7.950
 6493POPC   C4B28714  12.106   4.038   7.650
 6494POPC   NC328715  29.951   7.442   9.450
 6494POPC   PO428716  29.926   7.378   9.150
 6494POPC   GL128717  29.921   7.371   8.850
 6494POPC   GL228718  29.765   7.428   8.850
 6494POPC   C1A28719  29.971   7.406   8.550
 6494POPC   D2A28720  29.933   7.457   8.250
 6494POPC   C3A28721  29.916   7.373   7.950
 6494POPC   C4A28722  29.878   7.442   7.650
 6494POPC   C1B28723  29.658   7.460   8.550
 6494POPC   C2B28724  29.675   7.476   8.250
 6494POPC   C3B28725  29.709   7.486   7.950
 6494POPC   C4B28726  29.651   7.513   7.650
 6495POPC   NC328727  29.944  17.496   9.450
 6495POPC   PO428728  29.962  17.505   9.150
 6495POPC   GL128729  29.926  17.481   8.850
 6495POPC   GL228730  30.026  17.581   8.850
 6495POPC   C1A28731  29.916  17.499   8.550
 6495POPC   D2A28732  29.967  17.483   8.250
 6495POPC   C3A28733  29.933  17.467   7.950
 6495POPC   C4A28734  29.920  17.555   7.650
 6495POPC   C1B28735  30.064  17.694   8.550
 6495POPC   C2B28736  30.078  17.741   8.250
 6495POPC   C3B28737  29.992  17.757   7.950
 6495POPC   C4B28738  30.076  17.720   7.650
 6496POPC   NC328739  43.160  18.233   9.450
 6496POPC   PO428740  43.149  18.290   9.150
 6496POPC   GL128741  43.133  18.286   8.850
 6496POPC   GL228742  43.207  18.333   8.850
 6496POPC   C1A28743  43.103  18.282   8.550
 6496POPC   D2A28744  43.112  18.259   8.250
 6496POPC   C3A28745  43.131  18.249   7.950
 6496POPC   C4A28746  43.143  18.282   7.650
 6496POPC   C1B28747  43.295  18.415   8.550
 6496POPC   C2B28748  43.360  18.415   8.250
 6496POPC   C3B28749  43.284  18.364   7.950
 6496POPC   C4B28750  43.321  18.389   7.650
 6497POPC   NC328751  17.503  16.759   9.450
 6497POPC   PO428752  17.513  16.749   9.150
 6497POPC   GL128753  17.517  16.691   8.850
 6497POPC   GL228754  17.374  16.797   8.850
 6497POPC   C1A28755  17.518  16.762   8.550
 6497POPC   D2A28756  17.551  16.707   8.250
 6497POPC   C3A28757  17.501  16.776   7.950
 6497POPC   C4A28758  17.488  16.763   7.650
 6497POPC   C1B28759  17.324  16.854   8.550
 6497POPC   C2B28760  17.351  16.896   8.250
 6497POPC   C3B28761  17.340  16.869   7.950
 6497POPC   C4B28762  17.344  16.866   7.650
 6498POPC   NC328763  40.757  22.194   9.450
 6498POPC   PO428764  40.828  22.128   9.150
 6498POPC   GL128765  40.808  22.194   8.850
 6498POPC   GL228766  40.794  22.051   8.850
 6498POPC   C1A28767  40.750  22.114   8.550
 6498POPC   D2A28768  40.759  22.186   8.250
 6498POPC   C3A28769  40.783  22.175   7.950
 6498POPC   C4A28770  40.779  22.158   7.650
 6498POPC   C1B28771  40.892  21.954   8.550
 6498POPC   C2B28772  40.816  21.928   8.250
 6498POPC   C3B28773  40.894  21.892   7.950
 6498POPC   C4B28774  40.826  21.918   7.650
 6499POPC   NC328775   0.434  22.958   9.450
 6499POPC   PO428776   0.465  22.902   9.150
 6499POPC   GL128777   0.430  22.946   8.850
 6499POPC   GL228778   0.494  23.056   8.850
 6499POPC   C1A28779   0.442  22.945   8.550
 6499POPC   D2A28780   0.419  22.942   8.250
 6499POPC   C3A28781   0.460  22.900   7.950
 6499POPC   C4A28782   0.467  22.952   7.650
 6499POPC   C1B28783   0.604  23.116   8.550
 6499POPC   C2B28784   0.595  23.043   8.250
 6499POPC   C3B28785   0.656  23.037   7.950
 6499POPC   C4B28786   0.672  23.049   7.650
 6500POPC   NC328787   9.787  27.629   9.450
 6500POPC   PO428788   9.787  27.628   9.150
 6500POPC   GL128789   9.742  27.589   8.850
 6500POPC   GL228790   9.683  27.655   8.850
 6500POPC   C1A28791   9.773  27.553   8.550
 6500POPC   D2A28792   9.776  27.547   8.250
 6500POPC   C3A28793   9.751  27.550   7.950
 6500POPC   C4A28794   9.700  27.569   7.650
 6500POPC   C1B28795   9.546  27.765   8.550
 6500POPC   C2B28796   9.585  27.774   8.250
 6500POPC   C3B28797   9.540  27.736   7.950
 6500POPC   C4B28798   9.524  27.806   7.650
 6501POPC   NC328799  40.738  34.623   9.450
 6501POPC   PO428800  40.769  34.547   9.150
 6501POPC   GL128801  40.743  34.592   8.850
 6501POPC   GL228802  40.686  34.602   8.850
 6501POPC   C1A28803  40.737  34.536   8.550
 6501POPC   D2A28804  40.748  34.566   8.250
 6501POPC   C3A28805  40.765  34.540   7.950
 6501POPC   C4A28806  40.811  34.534   7.650
 6501POPC   C1B28807  40.592  34.739   8.550
 6501POPC   C2B28808  40.561  34.713   8.250
 6501POPC   C3B28809  40.595  34.719   7.950
 6501POPC   C4B28810  40.536  34.700   7.650
 6502POPC   NC328811  25.241  42.286   9.450
 6502POPC   PO428812  25.267  42.299   9.150
 6502POPC   GL128813  25.282  42.286   8.850
 6502POPC   GL228814  25.196  42.449   8.850
 6502POPC   C1A28815  25.251  42.314   8.550
 6502POPC   D2A28816  25.263  42.334   8.250
 6502POPC   C3A28817  25.224  42.371   7.950
 6502POPC   C4A28818  25.303  42.360   7.650
 6502POPC   C1B28819  25.148  42.525   8.550
 6502POPC   C2B28820  25.132  42.554   8.250
 6502POPC   C3B28821  25.112  42.515   7.950
 6502POPC   C4B28822  25.147  42.498   7.650
 6503POPC   NC328823  37.699   4.281   9.450
 6503POPC   PO428824  37.659   4.272   9.150
 6503POPC   GL128825  37.707   4.338   8.850
 6503POPC   GL228826  37.839   4.324   8.850
 6503POPC   C1A28827  37.639   4.309   8.550
 6503POPC   D2A28828  37.658   4.301   8.250
 6503POPC   C3A28829  37.724   4.285   7.950
 6503POPC   C4A28830  37.636   4.274   7.650
 6503POPC   C1B28831  37.889   4.362   8.550
 6503POPC   C2B28832  37.957   4.311   8.250
 6503POPC   C3B28833  37.914   4.351   7.950
 6503POPC   C4B28834  37.973   4.297   7.650
 6504POPC   NC328835   5.089  43.071   9.450
 6504POPC   PO428836   5.060  43.105   9.150
 6504POPC   GL128837   5.104  43.108   8.850
 6504POPC   GL228838   5.004  43.036   8.850
 6504POPC   C1A28839   5.067  43.118   8.550
 6504POPC   D2A28840   5.081  43.138   8.250
 6504POPC   C3A28841   5.108  43.143   7.950
 6504POPC   C4A28842   5.104  43.085   7.650
 6504POPC   C1B28843   4.976  42.842   8.550
 6504POPC   C2B28844   5.032  42.828   8.250
 6504POPC   C3B28845   5.029  42.866   7.950
 6504POPC   C4B28846   4.960  42.838   7.650
 6505POPC   NC328847  18.295  11.283   9.450
 6505POPC   PO428848  18.251  11.311   9.150
 6505POPC   GL128849  18.327  11.333   8.850
 6505POPC   GL228850  18.187  11.163   8.850
 6505POPC   C1A28851  18.321  11.256   8.550
 6505POPC   D2A28852  18.323  11.303   8.250
 6505POPC   C3A28853  18.282  11.314   7.950
 6505POPC   C4A28854  18.264  11.343   7.650
 6505POPC   C1B28855  18.162  11.081   8.550
 6505POPC   C2B28856  18.193  11.032   8.250
 6505POPC   C3B28857  18.204  11.028   7.950
 6505POPC   C4B28858  18.217  11.078   7.650
 6506POPC   NC328859  33.847  38.461   9.450
 6506POPC   PO428860  33.848  38.427   9.150
 6506POPC   GL128861  33.753  38.491   8.850
 6506POPC   GL228862  33.849  38.336   8.850
 6506POPC   C1A28863  33.811  38.481   8.550
 6506POPC   D2A28864  33.827  38.424   8.250
 6506POPC   C3A28865  33.799  38.476   7.950
 6506POPC   C4A28866  33.781  38.471   7.650
 6506POPC   C1B28867  33.871  38.184   8.550
 6506POPC   C2B28868  33.868  38.202   8.250
 6506POPC   C3B28869  33.861  38.240   7.950
 6506POPC   C4B28870  33.869  38.253   7.650
 6507POPC   NC328871  35.315  15.942   9.450
 6507POPC   PO428872  35.349  15.927   9.150
 6507POPC   GL128873  35.386  15.956   8.850
 6507POPC   GL228874  35.325  16.047   8.850
 6507POPC   C1A28875  35.307  15.966   8.550
 6507POPC   D2A28876  35.316  15.907   8.250
 6507POPC   C3A28877  35.313  16.000   7.950
 6507POPC   C4A28878  35.368  15.981   7.650
 6507POPC   C1B28879  35.324  16.213   8.550
 6507POPC   C2B28880  35.332  16.200   8.250
 6507POPC   C3B28881  35.360  16.192   7.950
 6507POPC   C4B28882  35.334  16.199   7.650
 6508POPC   NC328883   4.338  34.545   9.450
 6508POPC   PO428884   4.272  34.605   9.150
 6508POPC   GL128885   4.344  34.610   8.850
 6508POPC   GL228886   4.244  34.631   8.850
 6508POPC   C1A28887   4.367  34.591   8.550
 6508POPC   D2A28888   4.313  34.556   8.250
 6508POPC   C3A28889   4.270  34.623   7.950
 6508POPC   C4A28890   4.286  34.621   7.650
 6508POPC   C1B28891   4.140  34.760   8.550
 6508POPC   C2B28892   4.119  34.700   8.250
 6508POPC   C3B28893   4.150  34.741   7.950
 6508POPC   C4B28894   4.078  34.711   7.650
 6509POPC   NC328895  34.541  40.808   9.450
 6509POPC   PO428896  34.624  40.801   9.150
 6509POPC   GL128897  34.594  40.807   8.850
 6509POPC   GL228898  34.670  40.788   8.850
 6509POPC   C1A28899  34.605  40.757   8.550
 6509POPC   D2A28900  34.547  40.818   8.250
 6509POPC   C3A28901  34.560  40.826   7.950
 6509POPC   C4A28902  34.609  40.743   7.650
 6509POPC   C1B28903  34.825  40.700   8.550
 6509POPC   C2B28904  34.787  40.754   8.250
 6509POPC   C3B28905  34.786  40.772   7.950
 6509POPC   C4B28906  34.776  40.700   7.650
 6510POPC   NC328907  40.019  36.144   9.450
 6510POPC   PO428908  39.966  36.166   9.150
 6510POPC   GL128909  40.023  36.164   8.850
 6510POPC   GL228910  40.065  36.017   8.850
 6510POPC   C1A28911  39.968  36.134   8.550
 6510POPC   D2A28912  39.965  36.125   8.250
 6510POPC   C3A28913  39.967  36.083   7.950
 6510POPC   C4A28914  40.011  36.143   7.650
 6510POPC   C1B28915  40.096  35.866   8.550
 6510POPC   C2B28916  40.080  35.932   8.250
 6510POPC   C3B28917  40.034  35.869   7.950
 6510POPC   C4B28918  40.121  35.890   7.650
 6511POPC   NC328919  15.182  37.723   9.450
 6511POPC   PO428920  15.216  37.690   9.150
 6511POPC   GL128921  15.141  37.658   8.850
 6511POPC   GL228922  15.201  37.548   8.850
 6511POPC   C1A28923  15.161  37.632   8.550
 6511POPC   D2A28924  15.160  37.641   8.250
 6511POPC   C3A28925  15.201  37.700   7.950
 6511POPC   C4A28926  15.161  37.693   7.650
 6511POPC   C1B28927  15.237  37.426   8.550
 6511POPC   C2B28928  15.247  37.395   8.250
 6511POPC   C3B28929  15.206  37.400   7.950
 6511POPC   C4B28930  15.278  37.403   7.650
 6512POPC   NC328931  29.177  43.934   9.450
 6512POPC   PO428932  29.116  43.883   9.150
 6512POPC   GL128933  29.152  43.848   8.850
 6512POPC   GL228934  29.150  43.802   8.850
 6512POPC   C1A28935  29.181  43.920   8.550
 6512POPC   D2A28936  29.168  43.885   8.250
 6512POPC   C3A28937  29.173  43.886   7.950
 6512POPC   C4A28938  29.110  43.848   7.650
 6512POPC   C1B28939  29.112  43.612   8.550
 6512POPC   C2B28940  29.147  43.668   8.250
 6512POPC   C3B28941  29.124  43.640   7.950
 6512POPC   C4B28942  29.146  43.616   7.650
 6513POPC   NC328943  33.845  30.686   9.450
 6513POPC   PO428944  33.803  30.695   9.150
 6513POPC   GL128945  33.844  30.707   8.850
 6513POPC   GL228946  33.742  30.562   8.850
 6513POPC   C1A28947  33.798  30.714   8.550
 6513POPC   D2A28948  33.827  30.722   8.250
 6513POPC   C3A28949  33.764  30.683   7.950
 6513POPC   C4A28950  33.844  30.662   7.650
 6513POPC   C1B28951  33.617  30.506   8.550
 6513POPC   C2B28952  33.672  30.527   8.250
 6513POPC   C3B28953  33.636  30.492   7.950
 6513POPC   C4B28954  33.651  30.512   7.650
 6514POPC   NC328955  44.656  13.673   9.450
 6514POPC   PO428956  44.666  13.629   9.150
 6514POPC   GL128957  44.694  13.649   8.850
 6514POPC   GL228958  44.509  13.696   8.850
 6514POPC   C1A28959  44.701  13.592   8.550
 6514POPC   D2A28960  44.640  13.582   8.250
 6514POPC   C3A28961  44.622  13.639   7.950
 6514POPC   C4A28962  44.681  13.613   7.650
 6514POPC   C1B28963  44.421  13.644   8.550
 6514POPC   C2B28964  44.433  13.671   8.250
 6514POPC   C3B28965  44.437  13.676   7.950
 6514POPC   C4B28966  44.437  13.669   7.650
 6515POPC   NC328967  40.818  18.324   9.450
 6515POPC   PO428968  40.751  18.271   9.150
 6515POPC   GL128969  40.809  18.264   8.850
 6515POPC   GL228970  40.661  18.276   8.850
 6515POPC   C1A28971  40.780  18.250   8.550
 6515POPC   D2A28972  40.781  18.295   8.250
 6515POPC   C3A28973  40.744  18.306   7.950
 6515POPC   C4A28974  40.819  18.267   7.650
 6515POPC   C1B28975  40.533  18.157   8.550
 6515POPC   C2B28976  40.595  18.219   8.250
 6515POPC   C3B28977  40.512  18.158   7.950
 6515POPC   C4B28978  40.596  18.221   7.650
 6516POPC   NC328979   1.948   5.869   9.450
 6516POPC   PO428980   2.003   5.836   9.150
 6516POPC   GL128981   1.991   5.917   8.850
 6516POPC   GL228982   1.974   5.955   8.850
 6516POPC   C1A28983   1.963   5.865   8.550
 6516POPC   D2A28984   1.967   5.912   8.250
 6516POPC   C3A28985   1.943   5.859   7.950
 6516POPC   C4A28986   2.036   5.859   7.650
 6516POPC   C1B28987   1.953   6.149   8.550
 6516POPC   C2B28988   1.988   6.106   8.250
 6516POPC   C3B28989   1.945   6.115   7.950
 6516POPC   C4B28990   1.986   6.150   7.650
 6517POPC   NC328991  42.354   7.389   9.450
 6517POPC   PO428992  42.295   7.383   9.150
 6517POPC   GL128993  42.333   7.434   8.850
 6517POPC   GL228994  42.212   7.324   8.850
 6517POPC   C1A28995  42.338   7.385   8.550
 6517POPC   D2A28996  42.349   7.382   8.250
 6517POPC   C3A28997  42.358   7.403   7.950
 6517POPC   C4A28998  42.309   7.385   7.650
 6517POPC   C1B28999  42.139   7.240   8.550
 6517POPC   C2B29000  42.150   7.289   8.250
 6517POPC   C3B29001  42.150   7.311   7.950
 6517POPC   C4B29002  42.132   7.284   7.650
 6518POPC   NC329003  26.848   3.578   9.450
 6518POPC   PO429004  26.851   3.591   9.150
 6518POPC   GL129005  26.774   3.505   8.850
 6518POPC   GL229006  26.660   3.539   8.850
 6518POPC   C1A29007  26.793   3.546   8.550
 6518POPC   D2A29008  26.822   3.570   8.250
 6518POPC   C3A29009  26.833   3.500   7.950
 6518POPC   C4A29010  26.785   3.547   7.650
 6518POPC   C1B29011  26.559   3.537   8.550
 6518POPC   C2B29012  26.612   3.531   8.250
 6518POPC   C3B29013  26.581   3.505   7.950
 6518POPC   C4B29014  26.602   3.523   7.650
 6519POPC   NC329015  38.475   7.396   9.450
 6519POPC   PO429016  38.460   7.380   9.150
 6519POPC   GL129017  38.493   7.423   8.850
 6519POPC   GL229018  38.563   7.538   8.850
 6519POPC   C1A29019  38.477   7.383   8.550
 6519POPC   D2A29020  38.429   7.454   8.250
 6519POPC   C3A29021  38.409   7.469   7.950
 6519POPC   C4A29022  38.497   7.470   7.650
 6519POPC   C1B29023  38.688   7.544   8.550
 6519POPC   C2B29024  38.614   7.517   8.250
 6519POPC   C3B29025  38.655   7.573   7.950
 6519POPC   C4B29026  38.697   7.571   7.650
 6520POPC   NC329027  44.635  26.023   9.450
 6520POPC   PO429028  44.649  26.066   9.150
 6520POPC   GL129029  44.632  26.021   8.850
 6520POPC   GL229030  44.822  25.977   8.850
 6520POPC   C1A29031  44.685  26.069   8.550
 6520POPC   D2A29032  44.624  26.018   8.250
 6520POPC   C3A29033  44.628  26.018   7.950
 6520POPC   C4A29034  44.667  26.005   7.650
 6520POPC   C1B29035  44.860  25.982   8.550
 6520POPC   C2B29036  44.867  25.987   8.250
 6520POPC   C3B29037  44.848  25.901   7.950
 6520POPC   C4B29038  44.913  25.943   7.650
 6521POPC   NC329039  29.097  36.953   9.450
 6521POPC   PO429040  29.130  36.895   9.150
 6521POPC   GL129041  29.169  36.894   8.850
 6521POPC   GL229042  29.005  36.935   8.850
 6521POPC   C1A29043  29.189  36.874   8.550
 6521POPC   D2A29044  29.175  36.927   8.250
 6521POPC   C3A29045  29.182  36.953   7.950
 6521POPC   C4A29046  29.124  36.903   7.650
 6521POPC   C1B29047  28.866  36.954   8.550
 6521POPC   C2B29048  28.949  36.982   8.250
 6521POPC   C3B29049  28.882  36.937   7.950
 6521POPC   C4B29050  28.897  36.952   7.650
 6522POPC   NC329051  44.677  22.938   9.450
 6522POPC   PO429052  44.658  22.912   9.150
 6522POPC   GL129053  44.691  22.961   8.850
 6522POPC   GL229054  44.763  23.018   8.850
 6522POPC   C1A29055  44.635  22.899   8.550
 6522POPC   D2A29056  44.622  22.950   8.250
 6522POPC   C3A29057  44.681  22.891   7.950
 6522POPC   C4A29058  44.712  22.985   7.650
 6522POPC   C1B29059  44.776  23.094   8.550
 6522POPC   C2B29060  44.803  23.131   8.250
 6522POPC   C3B29061  44.763  23.087   7.950
 6522POPC   C4B29062  44.805  23.163   7.650
 6523POPC   NC329063  27.600  19.823   9.450
 6523POPC   PO429064  27.642  19.866   9.150
 6523POPC   GL129065  27.546  19.797   8.850
 6523POPC   GL229066  27.481  19.869   8.850
 6523POPC   C1A29067  27.556  19.839   8.550
 6523POPC   D2A29068  27.565  19.790   8.250
 6523POPC   C3A29069  27.556  19.805   7.950
 6523POPC   C4A29070  27.608  19.810   7.650
 6523POPC   C1B29071  27.313  19.782   8.550
 6523POPC   C2B29072  27.362  19.862   8.250
 6523POPC   C3B29073  27.331  19.810   7.950
 6523POPC   C4B29074  27.343  19.765   7.650
 6524POPC   NC329075  17.543  40.040   9.450
 6524POPC   PO429076  17.457  39.972   9.150
 6524POPC   GL129077  17.490  40.023   8.850
 6524POPC   GL229078  17.428  39.972   8.850
 6524POPC   C1A29079  17.461  40.003   8.550
 6524POPC   D2A29080  17.495  40.044   8.250
 6524POPC   C3A29081  17.553  39.975   7.950
 6524POPC   C4A29082  17.536  40.023   7.650
 6524POPC   C1B29083  17.303  39.942   8.550
 6524POPC   C2B29084  17.263  39.901   8.250
 6524POPC   C3B29085  17.258  39.925   7.950
 6524POPC   C4B29086  17.295  39.880   7.650
 6525POPC   NC329087  35.373  21.427   9.450
 6525POPC   PO429088  35.376  21.413   9.150
 6525POPC   GL129089  35.369  21.349   8.850
 6525POPC   GL229090  35.375  21.239   8.850
 6525POPC   C1A29091  35.351  21.422   8.550
 6525POPC   D2A29092  35.385  21.434   8.250
 6525POPC   C3A29093  35.367  21.403   7.950
 6525POPC   C4A29094  35.348  21.361   7.650
 6525POPC   C1B29095  35.409  21.091   8.550
 6525POPC   C2B29096  35.428  21.104   8.250
 6525POPC   C3B29097  35.349  21.128   7.950
 6525POPC   C4B29098  35.435  21.123   7.650
 6526POPC   NC329099  31.436  19.878   9.450
 6526POPC   PO429100  31.513  19.827   9.150
 6526POPC   GL129101  31.451  19.858   8.850
 6526POPC   GL229102  31.465  19.930   8.850
 6526POPC   C1A29103  31.452  19.786   8.550
 6526POPC   D2A29104  31.509  19.837   8.250
 6526POPC   C3A29105  31.424  19.864   7.950
 6526POPC   C4A29106  31.517  19.809   7.650
 6526POPC   C1B29107  31.523  20.034   8.550
 6526POPC   C2B29108  31.546  20.075   8.250
 6526POPC   C3B29109  31.476  20.041   7.950
 6526POPC   C4B29110  31.506  20.097   7.650
 6527POPC   NC329111  39.225  43.144   9.450
 6527POPC   PO429112  39.258  43.127   9.150
 6527POPC   GL129113  39.258  43.137   8.850
 6527POPC   GL229114  39.154  43.029   8.850
 6527POPC   C1A29115  39.182  43.091   8.550
 6527POPC   D2A29116  39.239  43.083   8.250
 6527POPC   C3A29117  39.278  43.069   7.950
 6527POPC   C4A29118  39.239  43.157   7.650
 6527POPC   C1B29119  38.964  42.998   8.550
 6527POPC   C2B29120  38.967  42.982   8.250
 6527POPC   C3B29121  39.003  43.015   7.950
 6527POPC   C4B29122  38.994  42.998   7.650
 6528POPC   NC329123  33.810  22.911   9.450
 6528POPC   PO429124  33.846  22.985   9.150
 6528POPC   GL129125  33.788  22.917   8.850
 6528POPC   GL229126  33.679  22.923   8.850
 6528POPC   C1A29127  33.797  22.963   8.550
 6528POPC   D2A29128  33.812  22.966   8.250
 6528POPC   C3A29129  33.806  22.978   7.950
 6528POPC   C4A29130  33.842  22.900   7.650
 6528POPC   C1B29131  33.615  22.788   8.550
 6528POPC   C2B29132  33.609  22.779   8.250
 6528POPC   C3B29133  33.538  22.838   7.950
 6528POPC   C4B29134  33.582  22.786   7.650
 6529POPC   NC329135  17.502  14.393   9.450
 6529POPC   PO429136  17.530  14.376   9.150
 6529POPC   GL129137  17.507  14.446   8.850
 6529POPC   GL229138  17.593  14.523   8.850
 6529POPC   C1A29139  17.554  14.439   8.550
 6529POPC   D2A29140  17.520  14.432   8.250
 6529POPC   C3A29141  17.543  14.359   7.950
 6529POPC   C4A29142  17.553  14.419   7.650
 6529POPC   C1B29143  17.611  14.588   8.550
 6529POPC   C2B29144  17.644  14.618   8.250
 6529POPC   C3B29145  17.607  14.645   7.950
 6529POPC   C4B29146  17.616  14.646   7.650
 6530POPC   NC329147  40.042   4.307   9.450
 6530POPC   PO429148  40.044   4.340   9.150
 6530POPC   GL129149  39.968   4.321   8.850
 6530POPC   GL229150  40.091   4.361   8.850
 6530POPC   C1A29151  40.042   4.273   8.550
 6530POPC   D2A29152  40.009   4.329   8.250
 6530POPC   C3A29153  39.978   4.354   7.950
 6530POPC   C4A29154  39.990   4.307   7.650
 6530POPC   C1B29155  40.222   4.456   8.550
 6530POPC   C2B29156  40.158   4.530   8.250
 6530POPC   C3B29157  40.214   4.530   7.950
 6530POPC   C4B29158  40.189   4.457   7.650
 6531POPC   NC329159  10.548  38.464   9.450
 6531POPC   PO429160  10.491  38.486   9.150
 6531POPC   GL129161  10.517  38.426   8.850
 6531POPC   GL229162  10.447  38.574   8.850
 6531POPC   C1A29163  10.486  38.406   8.550
 6531POPC   D2A29164  10.487  38.463   8.250
 6531POPC   C3A29165  10.544  38.496   7.950
 6531POPC   C4A29166  10.569  38.471   7.650
 6531POPC   C1B29167  10.359  38.574   8.550
 6531POPC   C2B29168  10.350  38.571   8.250
 6531POPC   C3B29169  10.338  38.655   7.950
 6531POPC   C4B29170  10.368  38.629   7.650
 6532POPC   NC329171  36.121  27.598   9.450
 6532POPC   PO429172  36.096  27.610   9.150
 6532POPC   GL129173  36.176  27.634   8.850
 6532POPC   GL229174  36.286  27.572   8.850
 6532POPC   C1A29175  36.165  27.620   8.550
 6532POPC   D2A29176  36.106  27.635   8.250
 6532POPC   C3A29177  36.117  27.560   7.950
 6532POPC   C4A29178  36.144  27.629   7.650
 6532POPC   C1B29179  36.368  27.680   8.550
 6532POPC   C2B29180  36.411  27.650   8.250
 6532POPC   C3B29181  36.388  27.645   7.950
 6532POPC   C4B29182  36.384  27.626   7.650
 6533POPC   NC329183  22.114  19.069   9.450
 6533POPC   PO429184  22.206  19.054   9.150
 6533POPC   GL129185  22.135  19.036   8.850
 6533POPC   GL229186  22.251  19.140   8.850
 6533POPC   C1A29187  22.124  19.103   8.550
 6533POPC   D2A29188  22.164  19.044   8.250
 6533POPC   C3A29189  22.165  19.103   7.950
 6533POPC   C4A29190  22.114  19.091   7.650
 6533POPC   C1B29191  22.278  19.286   8.550
 6533POPC   C2B29192  22.243  19.339   8.250
 6533POPC   C3B29193  22.244  19.336   7.950
 6533POPC   C4B29194  22.245  19.303   7.650
 6534POPC   NC329195  23.738   7.470   9.450
 6534POPC   PO429196  23.754   7.414   9.150
 6534POPC   GL129197  23.754   7.425   8.850
 6534POPC   GL229198  23.665   7.563   8.850
 6534POPC   C1A29199  23.701   7.393   8.550
 6534POPC   D2A29200  23.671   7.377   8.250
 6534POPC   C3A29201  23.748   7.466   7.950
 6534POPC   C4A29202  23.732   7.418   7.650
 6534POPC   C1B29203  23.577   7.650   8.550
 6534POPC   C2B29204  23.591   7.594   8.250
 6534POPC   C3B29205  23.551   7.594   7.950
 6534POPC   C4B29206  23.581   7.593   7.650
 6535POPC   NC329207  43.150  10.537   9.450
 6535POPC   PO429208  43.115  10.562   9.150
 6535POPC   GL129209  43.107  10.519   8.850
 6535POPC   GL229210  42.992  10.572   8.850
 6535POPC   C1A29211  43.119  10.540   8.550
 6535POPC   D2A29212  43.069  10.505   8.250
 6535POPC   C3A29213  43.096  10.510   7.950
 6535POPC   C4A29214  43.138  10.542   7.650
 6535POPC   C1B29215  42.948  10.685   8.550
 6535POPC   C2B29216  42.921  10.712   8.250
 6535POPC   C3B29217  42.891  10.685   7.950
 6535POPC   C4B29218  42.928  10.698   7.650
 6536POPC   NC329219  16.000  44.670   9.450
 6536POPC   PO429220  15.987  44.645   9.150
 6536POPC   GL129221  15.946  44.693   8.850
 6536POPC   GL229222  16.072  44.684   8.850
 6536POPC   C1A29223  15.940  44.649   8.550
 6536POPC   D2A29224  15.928  44.619   8.250
 6536POPC   C3A29225  16.005  44.626   7.950
 6536POPC   C4A29226  15.954  44.672   7.650
 6536POPC   C1B29227  16.182  44.723   8.550
 6536POPC   C2B29228  16.186  44.705   8.250
 6536POPC   C3B29229  16.233  44.759   7.950
 6536POPC   C4B29230  16.157  44.707   7.650
 6537POPC   NC329231  34.553  10.506   9.450
 6537POPC   PO429232  34.532  10.531   9.150
 6537POPC   GL129233  34.548  10.489   8.850
 6537POPC   GL229234  34.454  10.582   8.850
 6537POPC   C1A29235  34.625  10.556   8.550
 6537POPC   D2A29236  34.569  10.475   8.250
 6537POPC   C3A29237  34.572  10.564   7.950
 6537POPC   C4A29238  34.570  10.480   7.650
 6537POPC   C1B29239  34.349  10.583   8.550
 6537POPC   C2B29240  34.378  10.660   8.250
 6537POPC   C3B29241  34.343  10.650   7.950
 6537POPC   C4B29242  34.349  10.655   7.650
 6538POPC   NC329243  43.086  21.396   9.450
 6538POPC   PO429244  43.080  21.401   9.150
 6538POPC   GL129245  43.067  21.404   8.850
 6538POPC   GL229246  42.981  21.318   8.850
 6538POPC   C1A29247  43.120  21.432   8.550
 6538POPC   D2A29248  43.150  21.382   8.250
 6538POPC   C3A29249  43.085  21.353   7.950
 6538POPC   C4A29250  43.093  21.340   7.650
 6538POPC   C1B29251  42.896  21.287   8.550
 6538POPC   C2B29252  42.905  21.332   8.250
 6538POPC   C3B29253  42.904  21.351   7.950
 6538POPC   C4B29254  42.829  21.333   7.650
 6539POPC   NC329255  15.965  37.714   9.450
 6539POPC   PO429256  15.920  37.645   9.150
 6539POPC   GL129257  15.915  37.682   8.850
 6539POPC   GL229258  16.032  37.601   8.850
 6539POPC   C1A29259  15.912  37.652   8.550
 6539POPC   D2A29260  15.951  37.685   8.250
 6539POPC   C3A29261  15.930  37.725   7.950
 6539POPC   C4A29262  15.952  37.630   7.650
 6539POPC   C1B29263  16.113  37.507   8.550
 6539POPC   C2B29264  16.078  37.495   8.250
 6539POPC   C3B29265  16.150  37.514   7.950
 6539POPC   C4B29266  16.105  37.517   7.650
 6540POPC   NC329267   4.331  12.037   9.450
 6540POPC   PO429268   4.301  12.075   9.150
 6540POPC   GL129269   4.279  12.035   8.850
 6540POPC   GL229270   4.369  12.181   8.850
 6540POPC   C1A29271   4.303  12.043   8.550
 6540POPC   D2A29272   4.324  12.051   8.250
 6540POPC   C3A29273   4.313  12.030   7.950
 6540POPC   C4A29274   4.291  12.070   7.650
 6540POPC   C1B29275   4.473  12.258   8.550
 6540POPC   C2B29276   4.506  12.254   8.250
 6540POPC   C3B29277   4.522  12.265   7.950
 6540POPC   C4B29278   4.457  12.297   7.650
 6541POPC   NC329279  36.098   1.954   9.450
 6541POPC   PO429280  36.102   1.970   9.150
 6541POPC   GL129281  36.132   1.971   8.850
 6541POPC   GL229282  36.061   1.982   8.850
 6541POPC   C1A29283  36.089   2.026   8.550
 6541POPC   D2A29284  36.085   2.018   8.250
 6541POPC   C3A29285  36.134   1.944   7.950
 6541POPC   C4A29286  36.086   1.980   7.650
 6541POPC   C1B29287  35.877   1.933   8.550
 6541POPC   C2B29288  35.911   1.882   8.250
 6541POPC   C3B29289  35.914   1.934   7.950
 6541POPC   C4B29290  35.877   1.908   7.650
 6542POPC   NC329291  25.224  28.401   9.450
 6542POPC   PO429292  25.247  28.394   9.150
 6542POPC   GL129293  25.238  28.366   8.850
 6542POPC   GL229294  25.290  28.276   8.850
 6542POPC   C1A29295  25.272  28.418   8.550
 6542POPC   D2A29296  25.291  28.376   8.250
 6542POPC   C3A29297  25.288  28.360   7.950
 6542POPC   C4A29298  25.310  28.379   7.650
 6542POPC   C1B29299  25.310  28.101   8.550
 6542POPC   C2B29300  25.316  28.086   8.250
 6542POPC   C3B29301  25.276  28.142   7.950
 6542POPC   C4B29302  25.313  28.148   7.650
 6543POPC   NC329303  41.604   4.351   9.450
 6543POPC   PO429304  41.552   4.355   9.150
 6543POPC   GL129305  41.539   4.304   8.850
 6543POPC   GL229306  41.483   4.183   8.850
 6543POPC   C1A29307  41.587   4.289   8.550
 6543POPC   D2A29308  41.582   4.335   8.250
 6543POPC   C3A29309  41.535   4.289   7.950
 6543POPC   C4A29310  41.578   4.272   7.650
 6543POPC   C1B29311  41.465   4.060   8.550
 6543POPC   C2B29312  41.483   4.096   8.250
 6543POPC   C3B29313  41.488   4.045   7.950
 6543POPC   C4B29314  41.469   4.131   7.650
 6544POPC   NC329315   9.776  41.541   9.450
 6544POPC   PO429316   9.786  41.607   9.150
 6544POPC   GL129317   9.774  41.585   8.850
 6544POPC   GL229318   9.712  41.416   8.850
 6544POPC   C1A29319   9.709  41.582   8.550
 6544POPC   D2A29320   9.797  41.577   8.250
 6544POPC   C3A29321   9.736  41.530   7.950
 6544POPC   C4A29322   9.744  41.576   7.650
 6544POPC   C1B29323   9.655  41.327   8.550
 6544POPC   C2B29324   9.644  41.351   8.250
 6544POPC   C3B29325   9.592  41.305   7.950
 6544POPC   C4B29326   9.630  41.380   7.650
 6545POPC   NC329327  19.045  35.398   9.450
 6545POPC   PO429328  19.053  35.376   9.150
 6545POPC   GL129329  19.018  35.385   8.850
 6545POPC   GL229330  18.959  35.462   8.850
 6545POPC   C1A29331  19.081  35.333   8.550
 6545POPC   D2A29332  19.020  35.389   8.250
 6545POPC   C3A29333  19.039  35.352   7.950
 6545POPC   C4A29334  19.062  35.365   7.650
 6545POPC   C1B29335  18.863  35.502   8.550
 6545POPC   C2B29336  18.872  35.527   8.250
 6545POPC   C3B29337  18.850  35.549   7.950
 6545POPC   C4B29338  18.829  35.476   7.650
 6546POPC   NC329339   8.153  15.940   9.450
 6546POPC   PO429340   8.191  15.935   9.150
 6546POPC   GL129341   8.213  15.927   8.850
 6546POPC   GL229342   8.094  15.801   8.850
 6546POPC   C1A29343   8.234  15.930   8.550
 6546POPC   D2A29344   8.232  15.952   8.250
 6546POPC   C3A29345   8.214  15.956   7.950
 6546POPC   C4A29346   8.244  15.966   7.650
 6546POPC   C1B29347   8.019  15.779   8.550
 6546POPC   C2B29348   8.111  15.749   8.250
 6546POPC   C3B29349   8.030  15.780   7.950
 6546POPC   C4B29350   8.026  15.739   7.650
 6547POPC   NC329351  26.776  13.653   9.450
 6547POPC   PO429352  26.792  13.661   9.150
 6547POPC   GL129353  26.789  13.648   8.850
 6547POPC   GL229354  26.909  13.550   8.850
 6547POPC   C1A29355  26.800  13.595   8.550
 6547POPC   D2A29356  26.801  13.646   8.250
 6547POPC   C3A29357  26.862  13.632   7.950
 6547POPC   C4A29358  26.791  13.664   7.650
 6547POPC   C1B29359  26.950  13.409   8.550
 6547POPC   C2B29360  26.997  13.455   8.250
 6547POPC   C3B29361  26.921  13.465   7.950
 6547POPC   C4B29362  26.922  13.398   7.650
 6548POPC   NC329363  29.943   5.066   9.450
 6548POPC   PO429364  29.881   5.137   9.150
 6548POPC   GL129365  29.923   5.083   8.850
 6548POPC   GL229366  29.870   5.191   8.850
 6548POPC   C1A29367  29.883   5.088   8.550
 6548POPC   D2A29368  29.918   5.070   8.250
 6548POPC   C3A29369  29.932   5.076   7.950
 6548POPC   C4A29370  29.911   5.045   7.650
 6548POPC   C1B29371  29.705   5.249   8.550
 6548POPC   C2B29372  29.779   5.305   8.250
 6548POPC   C3B29373  29.707   5.291   7.950
 6548POPC   C4B29374  29.730   5.221   7.650
 6549POPC   NC329375  41.593  28.342   9.450
 6549POPC   PO429376  41.535  28.378   9.150
 6549POPC   GL129377  41.563  28.390   8.850
 6549POPC   GL229378  41.465  28.454   8.850
 6549POPC   C1A29379  41.516  28.399   8.550
 6549POPC   D2A29380  41.539  28.335   8.250
 6549POPC   C3A29381  41.524  28.338   7.950
 6549POPC   C4A29382  41.510  28.378   7.650
 6549POPC   C1B29383  41.413  28.600   8.550
 6549POPC   C2B29384  41.362  28.620   8.250
 6549POPC   C3B29385  41.423  28.560   7.950
 6549POPC   C4B29386  41.434  28.542   7.650
 6550POPC   NC329387  39.252   1.949   9.450
 6550POPC   PO429388  39.250   1.970   9.150
 6550POPC   GL129389  39.184   2.003   8.850
 6550POPC   GL229390  39.132   1.980   8.850
 6550POPC   C1A29391  39.193   2.035   8.550
 6550POPC   D2A29392  39.202   2.005   8.250
 6550POPC   C3A29393  39.265   1.968   7.950
 6550POPC   C4A29394  39.240   1.943   7.650
 6550POPC   C1B29395  39.004   1.979   8.550
 6550POPC   C2B29396  38.981   1.919   8.250
 6550POPC   C3B29397  38.998   1.966   7.950
 6550POPC   C4B29398  38.968   1.967   7.650
 6551POPC   NC329399  36.155  19.072   9.450
 6551POPC   PO429400  36.085  19.014   9.150
 6551POPC   GL129401  36.114  19.099   8.850
 6551POPC   GL229402  36.100  18.894   8.850
 6551POPC   C1A29403  36.126  19.100   8.550
 6551POPC   D2A29404  36.165  19.096   8.250
 6551POPC   C3A29405  36.138  19.060   7.950
 6551POPC   C4A29406  36.132  19.068   7.650
 6551POPC   C1B29407  36.028  18.873   8.550
 6551POPC   C2B29408  36.016  18.837   8.250
 6551POPC   C3B29409  35.989  18.873   7.950
 6551POPC   C4B29410  35.988  18.823   7.650
 6552POPC   NC329411  36.148  32.988   9.450
 6552POPC   PO429412  36.105  33.001   9.150
 6552POPC   GL129413  36.150  32.983   8.850
 6552POPC   GL229414  36.211  32.887   8.850
 6552POPC   C1A29415  36.174  33.021   8.550
 6552POPC   D2A29416  36.111  32.990   8.250
 6552POPC   C3A29417  36.098  32.977   7.950
 6552POPC   C4A29418  36.138  33.004   7.650
 6552POPC   C1B29419  36.193  32.802   8.550
 6552POPC   C2B29420  36.259  32.837   8.250
 6552POPC   C3B29421  36.236  32.751   7.950
 6552POPC   C4B29422  36.192  32.754   7.650
 6553POPC   NC329423   5.887  12.088   9.450
 6553POPC   PO429424   5.875  12.047   9.150
 6553POPC   GL129425   5.862  12.110   8.850
 6553POPC   GL229426   5.778  12.037   8.850
 6553POPC   C1A29427   5.868  12.056   8.550
 6553POPC   D2A29428   5.883  12.079   8.250
 6553POPC   C3A29429   5.832  12.071   7.950
 6553POPC   C4A29430   5.898  12.065   7.650
 6553POPC   C1B29431   5.611  12.076   8.550
 6553POPC   C2B29432   5.604  12.087   8.250
 6553POPC   C3B29433   5.609  12.058   7.950
 6553POPC   C4B29434   5.612  12.093   7.650
 6554POPC   NC329435   5.820  13.589   9.450
 6554POPC   PO429436   5.847  13.612   9.150
 6554POPC   GL129437   5.871  13.613   8.850
 6554POPC   GL229438   5.854  13.705   8.850
 6554POPC   C1A29439   5.854  13.601   8.550
 6554POPC   D2A29440   5.873  13.592   8.250
 6554POPC   C3A29441   5.865  13.618   7.950
 6554POPC   C4A29442   5.885  13.591   7.650
 6554POPC   C1B29443   5.884  13.857   8.550
 6554POPC   C2B29444   5.836  13.916   8.250
 6554POPC   C3B29445   5.918  13.881   7.950
 6554POPC   C4B29446   5.844  13.927   7.650
 6555POPC   NC329447  41.566  20.600   9.450
 6555POPC   PO429448  41.533  20.574   9.150
 6555POPC   GL129449  41.551  20.655   8.850
 6555POPC   GL229450  41.725  20.576   8.850
 6555POPC   C1A29451  41.517  20.563   8.550
 6555POPC   D2A29452  41.537  20.582   8.250
 6555POPC   C3A29453  41.605  20.570   7.950
 6555POPC   C4A29454  41.566  20.645   7.650
 6555POPC   C1B29455  41.815  20.644   8.550
 6555POPC   C2B29456  41.814  20.555   8.250
 6555POPC   C3B29457  41.785  20.571   7.950
 6555POPC   C4B29458  41.813  20.594   7.650
 6556POPC   NC329459  27.557  24.447   9.450
 6556POPC   PO429460  27.609  24.533   9.150
 6556POPC   GL129461  27.546  24.520   8.850
 6556POPC   GL229462  27.686  24.363   8.850
 6556POPC   C1A29463  27.575  24.469   8.550
 6556POPC   D2A29464  27.639  24.495   8.250
 6556POPC   C3A29465  27.562  24.484   7.950
 6556POPC   C4A29466  27.584  24.505   7.650
 6556POPC   C1B29467  27.739  24.302   8.550
 6556POPC   C2B29468  27.738  24.357   8.250
 6556POPC   C3B29469  27.766  24.356   7.950
 6556POPC   C4B29470  27.749  24.348   7.650
 6557POPC   NC329471  36.129   3.558   9.450
 6557POPC   PO429472  36.147   3.524   9.150
 6557POPC   GL129473  36.089   3.585   8.850
 6557POPC   GL229474  36.101   3.633   8.850
 6557POPC   C1A29475  36.098   3.493   8.550
 6557POPC   D2A29476  36.099   3.589   8.250
 6557POPC   C3A29477  36.110   3.575   7.950
 6557POPC   C4A29478  36.147   3.496   7.650
 6557POPC   C1B29479  35.986   3.741   8.550
 6557POPC   C2B29480  36.000   3.783   8.250
 6557POPC   C3B29481  36.047   3.759   7.950
 6557POPC   C4B29482  36.025   3.797   7.650
 6558POPC   NC329483   3.573  23.726   9.450
 6558POPC   PO429484   3.516  23.698   9.150
 6558POPC   GL129485   3.524  23.681   8.850
 6558POPC   GL229486   3.496  23.646   8.850
 6558POPC   C1A29487   3.523  23.705   8.550
 6558POPC   D2A29488   3.582  23.711   8.250
 6558POPC   C3A29489   3.573  23.740   7.950
 6558POPC   C4A29490   3.567  23.684   7.650
 6558POPC   C1B29491   3.385  23.514   8.550
 6558POPC   C2B29492   3.321  23.557   8.250
 6558POPC   C3B29493   3.397  23.564   7.950
 6558POPC   C4B29494   3.337  23.552   7.650
 6559POPC   NC329495  19.091   8.196   9.450
 6559POPC   PO429496  19.036   8.166   9.150
 6559POPC   GL129497  19.035   8.206   8.850
 6559POPC   GL229498  19.139   8.269   8.850
 6559POPC   C1A29499  19.036   8.148   8.550
 6559POPC   D2A29500  19.093   8.205   8.250
 6559POPC   C3A29501  19.040   8.189   7.950
 6559POPC   C4A29502  19.040   8.168   7.650
 6559POPC   C1B29503  19.271   8.407   8.550
 6559POPC   C2B29504  19.245   8.359   8.250
 6559POPC   C3B29505  19.248   8.398   7.950
 6559POPC   C4B29506  19.182   8.401   7.650
 6560POPC   NC329507  41.524  11.254   9.450
 6560POPC   PO429508  41.518  11.338   9.150
 6560POPC   GL129509  41.532  11.348   8.850
 6560POPC   GL229510  41.450  11.187   8.850
 6560POPC   C1A29511  41.543  11.257   8.550
 6560POPC   D2A29512  41.565  11.315   8.250
 6560POPC   C3A29513  41.584  11.252   7.950
 6560POPC   C4A29514  41.575  11.266   7.650
 6560POPC   C1B29515  41.320  11.163   8.550
 6560POPC   C2B29516  41.300  11.138   8.250
 6560POPC   C3B29517  41.350  11.209   7.950
 6560POPC   C4B29518  41.368  11.134   7.650
 6561POPC   NC329519  34.532   9.770   9.450
 6561POPC   PO429520  34.547   9.758   9.150
 6561POPC   GL129521  34.536   9.792   8.850
 6561POPC   GL229522  34.670   9.607   8.850
 6561POPC   C1A29523  34.590   9.706   8.550
 6561POPC   D2A29524  34.537   9.707   8.250
 6561POPC   C3A29525  34.557   9.763   7.950
 6561POPC   C4A29526  34.586   9.728   7.650
 6561POPC   C1B29527  34.693   9.586   8.550
 6561POPC   C2B29528  34.726   9.573   8.250
 6561POPC   C3B29529  34.736   9.576   7.950
 6561POPC   C4B29530  34.755   9.535   7.650
 6562POPC   NC329531  33.767  16.747   9.450
 6562POPC   PO429532  33.810  16.761   9.150
 6562POPC   GL129533  33.785  16.740   8.850
 6562POPC   GL229534  33.954  16.745   8.850
 6562POPC   C1A29535  33.813  16.685   8.550
 6562POPC   D2A29536  33.816  16.767   8.250
 6562POPC   C3A29537  33.807  16.700   7.950
 6562POPC   C4A29538  33.772  16.686   7.650
 6562POPC   C1B29539  34.086  16.781   8.550
 6562POPC   C2B29540  34.020  16.860   8.250
 6562POPC   C3B29541  34.086  16.859   7.950
 6562POPC   C4B29542  34.017  16.802   7.650
 6563POPC   NC329543   5.853   1.985   9.450
 6563POPC   PO429544   5.847   2.008   9.150
 6563POPC   GL129545   5.827   2.028   8.850
 6563POPC   GL229546   5.844   1.857   8.850
 6563POPC   C1A29547   5.827   1.980   8.550
 6563POPC   D2A29548   5.844   1.997   8.250
 6563POPC   C3A29549   5.871   2.010   7.950
 6563POPC   C4A29550   5.870   1.980   7.650
 6563POPC   C1B29551   5.696   1.729   8.550
 6563POPC   C2B29552   5.710   1.776   8.250
 6563POPC   C3B29553   5.736   1.772   7.950
 6563POPC   C4B29554   5.771   1.753   7.650
 6564POPC   NC329555  15.222  12.820   9.450
 6564POPC   PO429556  15.211  12.851   9.150
 6564POPC   GL129557  15.153  12.870   8.850
 6564POPC   GL229558  15.324  12.765   8.850
 6564POPC   C1A29559  15.181  12.878   8.550
 6564POPC   D2A29560  15.211  12.846   8.250
 6564POPC   C3A29561  15.155  12.824   7.950
 6564POPC   C4A29562  15.197  12.814   7.650
 6564POPC   C1B29563  15.400  12.738   8.550
 6564POPC   C2B29564  15.462  12.767   8.250
 6564POPC   C3B29565  15.406  12.800   7.950
 6564POPC   C4B29566  15.439  12.742   7.650
 6565POPC   NC329567  10.558  16.001   9.450
 6565POPC   PO429568  10.480  15.912   9.150
 6565POPC   GL129569  10.574  15.992   8.850
 6565POPC   GL229570  10.508  16.109   8.850
 6565POPC   C1A29571  10.548  15.962   8.550
 6565POPC   D2A29572  10.555  15.957   8.250
 6565POPC   C3A29573  10.483  15.936   7.950
 6565POPC   C4A29574  10.498  15.924   7.650
 6565POPC   C1B29575  10.408  16.234   8.550
 6565POPC   C2B29576  10.483  16.174   8.250
 6565POPC   C3B29577  10.410  16.190   7.950
 6565POPC   C4B29578  10.500  16.215   7.650
 6566POPC   NC329579  17.549  33.010   9.450
 6566POPC   PO429580  17.474  33.061   9.150
 6566POPC   GL129581  17.531  33.044   8.850
 6566POPC   GL229582  17.568  32.922   8.850
 6566POPC   C1A29583  17.487  32.980   8.550
 6566POPC   D2A29584  17.554  33.020   8.250
 6566POPC   C3A29585  17.530  33.004   7.950
 6566POPC   C4A29586  17.541  33.001   7.650
 6566POPC   C1B29587  17.679  32.844   8.550
 6566POPC   C2B29588  17.625  32.782   8.250
 6566POPC   C3B29589  17.690  32.811   7.950
 6566POPC   C4B29590  17.678  32.778   7.650
 6567POPC   NC329591  41.592  42.377   9.450
 6567POPC   PO429592  41.511  42.322   9.150
 6567POPC   GL129593  41.576  42.354   8.850
 6567POPC   GL229594  41.500  42.172   8.850
 6567POPC   C1A29595  41.584  42.351   8.550
 6567POPC   D2A29596  41.524  42.326   8.250
 6567POPC   C3A29597  41.530  42.325   7.950
 6567POPC   C4A29598  41.597  42.376   7.650
 6567POPC   C1B29599  41.543  42.112   8.550
 6567POPC   C2B29600  41.543  42.076   8.250
 6567POPC   C3B29601  41.523  42.122   7.950
 6567POPC   C4B29602  41.534  42.083   7.650
 6568POPC   NC329603   7.421  30.695   9.450
 6568POPC   PO429604   7.379  30.706   9.150
 6568POPC   GL129605   7.373  30.736   8.850
 6568POPC   GL229606   7.507  30.791   8.850
 6568POPC   C1A29607   7.424  30.718   8.550
 6568POPC   D2A29608   7.435  30.686   8.250
 6568POPC   C3A29609   7.412  30.674   7.950
 6568POPC   C4A29610   7.467  30.668   7.650
 6568POPC   C1B29611   7.601  30.812   8.550
 6568POPC   C2B29612   7.604  30.826   8.250
 6568POPC   C3B29613   7.646  30.822   7.950
 6568POPC   C4B29614   7.632  30.831   7.650
 6569POPC   NC329615  23.736   2.778   9.450
 6569POPC   PO429616  23.676   2.815   9.150
 6569POPC   GL129617  23.708   2.773   8.850
 6569POPC   GL229618  23.852   2.695   8.850
 6569POPC   C1A29619  23.751   2.801   8.550
 6569POPC   D2A29620  23.759   2.745   8.250
 6569POPC   C3A29621  23.692   2.755   7.950
 6569POPC   C4A29622  23.744   2.753   7.650
 6569POPC   C1B29623  23.880   2.658   8.550
 6569POPC   C2B29624  23.892   2.611   8.250
 6569POPC   C3B29625  23.926   2.597   7.950
 6569POPC   C4B29626  23.965   2.638   7.650
 6570POPC   NC329627   8.934  32.991   9.450
 6570POPC   PO429628   8.965  33.043   9.150
 6570POPC   GL129629   9.002  33.027   8.850
 6570POPC   GL229630   8.873  33.138   8.850
 6570POPC   C1A29631   8.950  33.068   8.550
 6570POPC   D2A29632   8.954  33.010   8.250
 6570POPC   C3A29633   8.931  33.004   7.950
 6570POPC   C4A29634   8.954  32.992   7.650
 6570POPC   C1B29635   8.729  33.184   8.550
 6570POPC   C2B29636   8.783  33.177   8.250
 6570POPC   C3B29637   8.813  33.155   7.950
 6570POPC   C4B29638   8.767  33.167   7.650
 6571POPC   NC329639  12.872  26.069   9.450
 6571POPC   PO429640  12.850  26.070   9.150
 6571POPC   GL129641  12.843  26.073   8.850
 6571POPC   GL229642  12.872  25.962   8.850
 6571POPC   C1A29643  12.900  26.036   8.550
 6571POPC   D2A29644  12.900  25.995   8.250
 6571POPC   C3A29645  12.896  26.009   7.950
 6571POPC   C4A29646  12.864  26.010   7.650
 6571POPC   C1B29647  12.851  25.808   8.550
 6571POPC   C2B29648  12.829  25.779   8.250
 6571POPC   C3B29649  12.864  25.775   7.950
 6571POPC   C4B29650  12.833  25.836   7.650
 6572POPC   NC329651  35.338  37.697   9.450
 6572POPC   PO429652  35.357  37.692   9.150
 6572POPC   GL129653  35.391  37.716   8.850
 6572POPC   GL229654  35.448  37.769   8.850
 6572POPC   C1A29655  35.387  37.671   8.550
 6572POPC   D2A29656  35.393  37.685   8.250
 6572POPC   C3A29657  35.386  37.704   7.950
 6572POPC   C4A29658  35.316  37.657   7.650
 6572POPC   C1B29659  35.560  37.773   8.550
 6572POPC   C2B29660  35.567  37.739   8.250
 6572POPC   C3B29661  35.572  37.785   7.950
 6572POPC   C4B29662  35.590  37.777   7.650
 6573POPC   NC329663  41.511  18.314   9.450
 6573POPC   PO429664  41.601  18.306   9.150
 6573POPC   GL129665  41.598  18.308   8.850
 6573POPC   GL229666  41.606  18.353   8.850
 6573POPC   C1A29667  41.530  18.287   8.550
 6573POPC   D2A29668  41.567  18.275   8.250
 6573POPC   C3A29669  41.578  18.308   7.950
 6573POPC   C4A29670  41.576  18.329   7.650
 6573POPC   C1B29671  41.699  18.491   8.550
 6573POPC   C2B29672  41.646  18.499   8.250
 6573POPC   C3B29673  41.717  18.492   7.950
 6573POPC   C4B29674  41.640  18.467   7.650
 6574POPC   NC329675   0.461   4.272   9.450
 6574POPC   PO429676   0.462   4.323   9.150
 6574POPC   GL129677   0.469   4.298   8.850
 6574POPC   GL229678   0.357   4.234   8.850
 6574POPC   C1A29679   0.434   4.352   8.550
 6574POPC   D2A29680   0.412   4.341   8.250
 6574POPC   C3A29681   0.433   4.315   7.950
 6574POPC   C4A29682   0.479   4.362   7.650
 6574POPC   C1B29683   0.321   4.120   8.550
 6574POPC   C2B29684   0.287   4.147   8.250
 6574POPC   C3B29685   0.267   4.076   7.950
 6574POPC   C4B29686   0.270   4.128   7.650
 6575POPC   NC329687  43.859  16.000   9.450
 6575POPC   PO429688  43.911  15.954   9.150
 6575POPC   GL129689  43.894  16.005   8.850
 6575POPC   GL229690  43.751  15.980   8.850
 6575POPC   C1A29691  43.889  15.955   8.550
 6575POPC   D2A29692  43.856  15.928   8.250
 6575POPC   C3A29693  43.914  15.989   7.950
 6575POPC   C4A29694  43.892  15.970   7.650
 6575POPC   C1B29695  43.608  15.977   8.550
 6575POPC   C2B29696  43.665  15.999   8.250
 6575POPC   C3B29697  43.592  15.967   7.950
 6575POPC   C4B29698  43.647  15.960   7.650
 6576POPC   NC329699   1.979   9.736   9.450
 6576POPC   PO429700   2.014   9.778   9.150
 6576POPC   GL129701   1.967   9.749   8.850
 6576POPC   GL229702   1.929   9.865   8.850
 6576POPC   C1A29703   1.990   9.771   8.550
 6576POPC   D2A29704   2.011   9.786   8.250
 6576POPC   C3A29705   1.987   9.788   7.950
 6576POPC   C4A29706   2.015   9.750   7.650
 6576POPC   C1B29707   1.972   9.947   8.550
 6576POPC   C2B29708   1.919   9.967   8.250
 6576POPC   C3B29709   1.962   9.993   7.950
 6576POPC   C4B29710   1.980   9.988   7.650
 6577POPC   NC329711  23.735  22.157   9.450
 6577POPC   PO429712  23.700  22.173   9.150
 6577POPC   GL129713  23.696  22.210   8.850
 6577POPC   GL229714  23.763  22.258   8.850
 6577POPC   C1A29715  23.739  22.116   8.550
 6577POPC   D2A29716  23.691  22.133   8.250
 6577POPC   C3A29717  23.692  22.195   7.950
 6577POPC   C4A29718  23.736  22.157   7.650
 6577POPC   C1B29719  23.756  22.449   8.550
 6577POPC   C2B29720  23.755  22.446   8.250
 6577POPC   C3B29721  23.731  22.400   7.950
 6577POPC   C4B29722  23.760  22.390   7.650
 6578POPC   NC329723   5.123  14.451   9.450
 6578POPC   PO429724   5.111  14.376   9.150
 6578POPC   GL129725   5.084  14.423   8.850
 6578POPC   GL229726   5.093  14.569   8.850
 6578POPC   C1A29727   5.115  14.447   8.550
 6578POPC   D2A29728   5.108  14.449   8.250
 6578POPC   C3A29729   5.133  14.443   7.950
 6578POPC   C4A29730   5.056  14.361   7.650
 6578POPC   C1B29731   5.102  14.649   8.550
 6578POPC   C2B29732   5.177  14.683   8.250
 6578POPC   C3B29733   5.140  14.667   7.950
 6578POPC   C4B29734   5.164  14.693   7.650
 6579POPC   NC329735  26.075  26.073   9.450
 6579POPC   PO429736  26.040  26.030   9.150
 6579POPC   GL129737  26.033  26.089   8.850
 6579POPC   GL229738  26.115  26.168   8.850
 6579POPC   C1A29739  26.060  26.056   8.550
 6579POPC   D2A29740  26.014  26.005   8.250
 6579POPC   C3A29741  26.017  26.012   7.950
 6579POPC   C4A29742  26.081  26.046   7.650
 6579POPC   C1B29743  26.176  26.194   8.550
 6579POPC   C2B29744  26.198  26.168   8.250
 6579POPC   C3B29745  26.265  26.224   7.950
 6579POPC   C4B29746  26.234  26.182   7.650
 6580POPC   NC329747  39.961  19.874   9.450
 6580POPC   PO429748  40.015  19.881   9.150
 6580POPC   GL129749  39.987  19.850   8.850
 6580POPC   GL229750  39.889  19.893   8.850
 6580POPC   C1A29751  40.019  19.821   8.550
 6580POPC   D2A29752  40.021  19.846   8.250
 6580POPC   C3A29753  39.967  19.880   7.950
 6580POPC   C4A29754  40.014  19.839   7.650
 6580POPC   C1B29755  39.781  19.933   8.550
 6580POPC   C2B29756  39.808  19.939   8.250
 6580POPC   C3B29757  39.824  20.005   7.950
 6580POPC   C4B29758  39.753  19.968   7.650
 6581POPC   NC329759   7.422  36.906   9.450
 6581POPC   PO429760   7.392  36.922   9.150
 6581POPC   GL129761   7.462  36.894   8.850
 6581POPC   GL229762   7.301  36.989   8.850
 6581POPC   C1A29763   7.386  36.876   8.550
 6581POPC   D2A29764   7.434  36.893   8.250
 6581POPC   C3A29765   7.455  36.916   7.950
 6581POPC   C4A29766   7.446  36.942   7.650
 6581POPC   C1B29767   7.155  36.948   8.550
 6581POPC   C2B29768   7.204  36.975   8.250
 6581POPC   C3B29769   7.210  36.984   7.950
 6581POPC   C4B29770   7.162  36.961   7.650
 6582POPC   NC329771  29.936  43.848   9.450
 6582POPC   PO429772  29.905  43.925   9.150
 6582POPC   GL129773  29.939  43.865   8.850
 6582POPC   GL229774  29.987  43.962   8.850
 6582POPC   C1A29775  29.925  43.902   8.550
 6582POPC   D2A29776  29.924  43.856   8.250
 6582POPC   C3A29777  29.933  43.867   7.950
 6582POPC   C4A29778  29.920  43.928   7.650
 6582POPC   C1B29779  30.104  44.124   8.550
 6582POPC   C2B29780  30.067  44.039   8.250
 6582POPC   C3B29781  30.052  44.112   7.950
 6582POPC   C4B29782  30.114  44.105   7.650
 6583POPC   NC329783  38.497  27.583   9.450
 6583POPC   PO429784  38.437  27.551   9.150
 6583POPC   GL129785  38.490  27.618   8.850
 6583POPC   GL229786  38.430  27.479   8.850
 6583POPC   C1A29787  38.489  27.594   8.550
 6583POPC   D2A29788  38.463  27.608   8.250
 6583POPC   C3A29789  38.504  27.567   7.950
 6583POPC   C4A29790  38.487  27.595   7.650
 6583POPC   C1B29791  38.499  27.300   8.550
 6583POPC   C2B29792  38.465  27.316   8.250
 6583POPC   C3B29793  38.523  27.316   7.950
 6583POPC   C4B29794  38.535  27.372   7.650
 6584POPC   NC329795  11.272  27.616   9.450
 6584POPC   PO429796  11.321  27.622   9.150
 6584POPC   GL129797  11.329  27.582   8.850
 6584POPC   GL229798  11.224  27.625   8.850
 6584POPC   C1A29799  11.317  27.545   8.550
 6584POPC   D2A29800  11.294  27.608   8.250
 6584POPC   C3A29801  11.256  27.628   7.950
 6584POPC   C4A29802  11.257  27.597   7.650
 6584POPC   C1B29803  11.047  27.694   8.550
 6584POPC   C2B29804  11.107  27.687   8.250
 6584POPC   C3B29805  11.022  27.683   7.950
 6584POPC   C4B29806  11.021  27.615   7.650
 6585POPC   NC329807  28.375  42.306   9.450
 6585POPC   PO429808  28.372  42.370   9.150
 6585POPC   GL129809  28.343  42.361   8.850
 6585POPC   GL229810  28.357  42.463   8.850
 6585POPC   C1A29811  28.354  42.305   8.550
 6585POPC   D2A29812  28.356  42.317   8.250
 6585POPC   C3A29813  28.386  42.356   7.950
 6585POPC   C4A29814  28.344  42.380   7.650
 6585POPC   C1B29815  28.414  42.595   8.550
 6585POPC   C2B29816  28.463  42.624   8.250
 6585POPC   C3B29817  28.402  42.538   7.950
 6585POPC   C4B29818  28.459  42.595   7.650
 6586POPC   NC329819   8.170  36.865   9.450
 6586POPC   PO429820   8.242  36.883   9.150
 6586POPC   GL129821   8.164  36.948   8.850
 6586POPC   GL229822   8.032  36.951   8.850
 6586POPC   C1A29823   8.186  36.942   8.550
 6586POPC   D2A29824   8.160  36.920   8.250
 6586POPC   C3A29825   8.190  36.928   7.950
 6586POPC   C4A29826   8.243  36.949   7.650
 6586POPC   C1B29827   7.958  36.976   8.550
 6586POPC   C2B29828   7.994  36.965   8.250
 6586POPC   C3B29829   7.906  36.981   7.950
 6586POPC   C4B29830   7.997  36.953   7.650
 6587POPC   NC329831  16.759  15.959   9.450
 6587POPC   PO429832  16.725  15.909   9.150
 6587POPC   GL129833  16.762  15.975   8.850
 6587POPC   GL229834  16.566  15.913   8.850
 6587POPC   C1A29835  16.774  16.000   8.550
 6587POPC   D2A29836  16.725  15.927   8.250
 6587POPC   C3A29837  16.753  15.912   7.950
 6587POPC   C4A29838  16.767  15.956   7.650
 6587POPC   C1B29839  16.492  15.981   8.550
 6587POPC   C2B29840  16.475  15.945   8.250
 6587POPC   C3B29841  16.505  16.014   7.950
 6587POPC   C4B29842  16.517  15.927   7.650
 6588POPC   NC329843  34.541   2.753   9.450
 6588POPC   PO429844  34.541   2.772   9.150
 6588POPC   GL129845  34.618   2.785   8.850
 6588POPC   GL229846  34.447   2.808   8.850
 6588POPC   C1A29847  34.530   2.763   8.550
 6588POPC   D2A29848  34.540   2.751   8.250
 6588POPC   C3A29849  34.548   2.729   7.950
 6588POPC   C4A29850  34.543   2.806   7.650
 6588POPC   C1B29851  34.437   2.930   8.550
 6588POPC   C2B29852  34.444   2.974   8.250
 6588POPC   C3B29853  34.392   2.919   7.950
 6588POPC   C4B29854  34.353   2.932   7.650
 6589POPC   NC329855  12.900  21.422   9.450
 6589POPC   PO429856  12.892  21.349   9.150
 6589POPC   GL129857  12.894  21.369   8.850
 6589POPC   GL229858  12.770  21.299   8.850
 6589POPC   C1A29859  12.822  21.389   8.550
 6589POPC   D2A29860  12.872  21.418   8.250
 6589POPC   C3A29861  12.827  21.387   7.950
 6589POPC   C4A29862  12.896  21.426   7.650
 6589POPC   C1B29863  12.756  21.167   8.550
 6589POPC   C2B29864  12.801  21.130   8.250
 6589POPC   C3B29865  12.827  21.113   7.950
 6589POPC   C4B29866  12.812  21.123   7.650
 6590POPC   NC329867  29.136   9.702   9.450
 6590POPC   PO429868  29.169   9.735   9.150
 6590POPC   GL129869  29.173   9.755   8.850
 6590POPC   GL229870  29.225   9.729   8.850
 6590POPC   C1A29871  29.108   9.719   8.550
 6590POPC   D2A29872  29.108   9.765   8.250
 6590POPC   C3A29873  29.127   9.726   7.950
 6590POPC   C4A29874  29.183   9.736   7.650
 6590POPC   C1B29875  29.411   9.624   8.550
 6590POPC   C2B29876  29.373   9.681   8.250
 6590POPC   C3B29877  29.353   9.628   7.950
 6590POPC   C4B29878  29.389   9.646   7.650
 6591POPC   NC329879  22.913  26.811   9.450
 6591POPC   PO429880  22.986  26.801   9.150
 6591POPC   GL129881  22.942  26.845   8.850
 6591POPC   GL229882  22.989  26.728   8.850
 6591POPC   C1A29883  22.960  26.779   8.550
 6591POPC   D2A29884  22.951  26.811   8.250
 6591POPC   C3A29885  22.947  26.855   7.950
 6591POPC   C4A29886  22.932  26.770   7.650
 6591POPC   C1B29887  23.026  26.600   8.550
 6591POPC   C2B29888  23.075  26.607   8.250
 6591POPC   C3B29889  23.057  26.541   7.950
 6591POPC   C4B29890  23.053  26.568   7.650
 6592POPC   NC329891  35.336  31.461   9.450
 6592POPC   PO429892  35.396  31.471   9.150
 6592POPC   GL129893  35.357  31.505   8.850
 6592POPC   GL229894  35.204  31.540   8.850
 6592POPC   C1A29895  35.303  31.489   8.550
 6592POPC   D2A29896  35.365  31.515   8.250
 6592POPC   C3A29897  35.315  31.510   7.950
 6592POPC   C4A29898  35.341  31.451   7.650
 6592POPC   C1B29899  35.128  31.594   8.550
 6592POPC   C2B29900  35.151  31.542   8.250
 6592POPC   C3B29901  35.128  31.567   7.950
 6592POPC   C4B29902  35.120  31.630   7.650
 6593POPC   NC329903   5.913  25.262   9.450
 6593POPC   PO429904   5.891  25.314   9.150
 6593POPC   GL129905   5.857  25.286   8.850
 6593POPC   GL229906   6.037  25.321   8.850
 6593POPC   C1A29907   5.869  25.266   8.550
 6593POPC   D2A29908   5.834  25.240   8.250
 6593POPC   C3A29909   5.885  25.231   7.950
 6593POPC   C4A29910   5.899  25.216   7.650
 6593POPC   C1B29911   6.099  25.312   8.550
 6593POPC   C2B29912   6.073  25.344   8.250
 6593POPC   C3B29913   6.113  25.305   7.950
 6593POPC   C4B29914   6.156  25.341   7.650
 6594POPC   NC329915  43.099  35.339   9.450
 6594POPC   PO429916  43.124  35.327   9.150
 6594POPC   GL129917  43.143  35.348   8.850
 6594POPC   GL229918  43.181  35.467   8.850
 6594POPC   C1A29919  43.096  35.399   8.550
 6594POPC   D2A29920  43.148  35.364   8.250
 6594POPC   C3A29921  43.132  35.348   7.950
 6594POPC   C4A29922  43.070  35.306   7.650
 6594POPC   C1B29923  43.224  35.557   8.550
 6594POPC   C2B29924  43.198  35.617   8.250
 6594POPC   C3B29925  43.193  35.569   7.950
 6594POPC   C4B29926  43.141  35.577   7.650
 6595POPC   NC329927  18.264   4.342   9.450
 6595POPC   PO429928  18.309   4.288   9.150
 6595POPC   GL129929  18.320   4.335   8.850
 6595POPC   GL229930  18.352   4.272   8.850
 6595POPC   C1A29931  18.331   4.272   8.550
 6595POPC   D2A29932  18.240   4.338   8.250
 6595POPC   C3A29933  18.295   4.279   7.950
 6595POPC   C4A29934  18.323   4.286   7.650
 6595POPC   C1B29935  18.484   4.143   8.550
 6595POPC   C2B29936  18.448   4.099   8.250
 6595POPC   C3B29937  18.457   4.097   7.950
 6595POPC   C4B29938  18.447   4.112   7.650
 6596POPC   NC329939  33.809  14.431   9.450
 6596POPC   PO429940  33.764  14.441   9.150
 6596POPC   GL129941  33.756  14.355   8.850
 6596POPC   GL229942  33.703  14.278   8.850
 6596POPC   C1A29943  33.808  14.355   8.550
 6596POPC   D2A29944  33.847  14.435   8.250
 6596POPC   C3A29945  33.846  14.359   7.950
 6596POPC   C4A29946  33.804  14.429   7.650
 6596POPC   C1B29947  33.722  14.216   8.550
 6596POPC   C2B29948  33.714  14.200   8.250
 6596POPC   C3B29949  33.749  14.180   7.950
 6596POPC   C4B29950  33.681  14.221   7.650
 6597POPC   NC329951  22.905  39.187   9.450
 6597POPC   PO429952  22.923  39.228   9.150
 6597POPC   GL129953  22.933  39.189   8.850
 6597POPC   GL229954  22.839  39.171   8.850
 6597POPC   C1A29955  22.918  39.238   8.550
 6597POPC   D2A29956  22.918  39.263   8.250
 6597POPC   C3A29957  22.985  39.228   7.950
 6597POPC   C4A29958  22.895  39.185   7.650
 6597POPC   C1B29959  22.758  39.037   8.550
 6597POPC   C2B29960  22.779  39.005   8.250
 6597POPC   C3B29961  22.825  39.059   7.950
 6597POPC   C4B29962  22.840  38.976   7.650
 6598POPC   NC329963   6.618   0.416   9.450
 6598POPC   PO429964   6.663   0.419   9.150
 6598POPC   GL129965   6.664   0.438   8.850
 6598POPC   GL229966   6.514   0.513   8.850
 6598POPC   C1A29967   6.626   0.449   8.550
 6598POPC   D2A29968   6.628   0.461   8.250
 6598POPC   C3A29969   6.638   0.472   7.950
 6598POPC   C4A29970   6.600   0.429   7.650
 6598POPC   C1B29971   6.448   0.628   8.550
 6598POPC   C2B29972   6.500   0.629   8.250
 6598POPC   C3B29973   6.463   0.565   7.950
 6598POPC   C4B29974   6.481   0.636   7.650
 6599POPC   NC329975   8.956   9.725   9.450
 6599POPC   PO429976   8.974   9.747   9.150
 6599POPC   GL129977   9.003   9.716   8.850
 6599POPC   GL229978   8.857   9.629   8.850
 6599POPC   C1A29979   9.009   9.731   8.550
 6599POPC   D2A29980   8.968   9.783   8.250
 6599POPC   C3A29981   8.985   9.704   7.950
 6599POPC   C4A29982   9.021   9.703   7.650
 6599POPC   C1B29983   8.803   9.492   8.550
 6599POPC   C2B29984   8.834   9.505   8.250
 6599POPC   C3B29985   8.864   9.571   7.950
 6599POPC   C4B29986   8.785   9.580   7.650
 6600POPC   NC329987   5.846   7.425   9.450
 6600POPC   PO429988   5.911   7.444   9.150
 6600POPC   GL129989   5.820   7.397   8.850
 6600POPC   GL229990   5.968   7.437   8.850
 6600POPC   C1A29991   5.896   7.412   8.550
 6600POPC   D2A29992   5.840   7.451   8.250
 6600POPC   C3A29993   5.908   7.461   7.950
 6600POPC   C4A29994   5.835   7.436   7.650
 6600POPC   C1B29995   6.093   7.436   8.550
 6600POPC   C2B29996   6.115   7.439   8.250
 6600POPC   C3B29997   6.148   7.499   7.950
 6600POPC   C4B29998   6.079   7.485   7.650
 6601POPC   NC329999   0.478  41.514   9.450
 6601POPC   PO430000   0.481  41.529   9.150
 6601POPC   GL130001   0.396  41.535   8.850
 6601POPC   GL230002   0.363  41.637   8.850
 6601POPC   C1A30003   0.420  41.513   8.550
 6601POPC   D2A30004   0.459  41.600   8.250
 6601POPC   C3A30005   0.416  41.562   7.950
 6601POPC   C4A30006   0.408  41.606   7.650
 6601POPC   C1B30007   0.262  41.701   8.550
 6601POPC   C2B30008   0.194  41.706   8.250
 6601POPC   C3B30009   0.227  41.711   7.950
 6601POPC   C4B30010   0.206  41.677   7.650
 6602POPC   NC330011  35.376  36.105   9.450
 6602POPC   PO430012  35.336  36.090   9.150
 6602POPC   GL130013  35.381  36.167   8.850
 6602POPC   GL230014  35.368  36.205   8.850
 6602POPC   C1A30015  35.310  36.098   8.550
 6602POPC   D2A30016  35.334  36.146   8.250
 6602POPC   C3A30017  35.388  36.104   7.950
 6602POPC   C4A30018  35.359  36.129   7.650
 6602POPC   C1B30019  35.382  36.376   8.550
 6602POPC   C2B30020  35.385  36.369   8.250
 6602POPC   C3B30021  35.398  36.338   7.950
 6602POPC   C4B30022  35.418  36.376   7.650
 6603POPC   NC330023  31.494  20.618   9.450
 6603POPC   PO430024  31.503  20.582   9.150
 6603POPC   GL130025  31.515  20.604   8.850
 6603POPC   GL230026  31.335  20.537   8.850
 6603POPC   C1A30027  31.465  20.563   8.550
 6603POPC   D2A30028  31.491  20.581   8.250
 6603POPC   C3A30029  31.512  20.604   7.950
 6603POPC   C4A30030  31.448  20.632   7.650
 6603POPC   C1B30031  31.283  20.445   8.550
 6603POPC   C2B30032  31.271  20.387   8.250
 6603POPC   C3B30033  31.271  20.409   7.950
 6603POPC   C4B30034  31.285  20.402   7.650
 6604POPC   NC330035  14.445  44.660   9.450
 6604POPC   PO430036  14.405  44.695   9.150
 6604POPC   GL130037  14.358  44.630   8.850
 6604POPC   GL230038  14.329  44.752   8.850
 6604POPC   C1A30039  14.411  44.677   8.550
 6604POPC   D2A30040  14.431  44.673   8.250
 6604POPC   C3A30041  14.435  44.684   7.950
 6604POPC   C4A30042  14.378  44.698   7.650
 6604POPC   C1B30043  14.228  44.842   8.550
 6604POPC   C2B30044  14.155  44.774   8.250
 6604POPC   C3B30045  14.166  44.782   7.950
 6604POPC   C4B30046  14.208  44.775   7.650
 6605POPC   NC330047   8.227  21.356   9.450
 6605POPC   PO430048   8.246  21.366   9.150
 6605POPC   GL130049   8.182  21.418   8.850
 6605POPC   GL230050   8.171  21.314   8.850
 6605POPC   C1A30051   8.233  21.357   8.550
 6605POPC   D2A30052   8.191  21.426   8.250
 6605POPC   C3A30053   8.194  21.409   7.950
 6605POPC   C4A30054   8.205  21.370   7.650
 6605POPC   C1B30055   8.115  21.133   8.550
 6605POPC   C2B30056   8.138  21.165   8.250
 6605POPC   C3B30057   8.148  21.158   7.950
 6605POPC   C4B30058   8.074  21.143   7.650
 6606POPC   NC330059   6.674   8.985   9.450
 6606POPC   PO430060   6.641   8.924   9.150
 6606POPC   GL130061   6.606   8.993   8.850
 6606POPC   GL230062   6.793   9.063   8.850
 6606POPC   C1A30063   6.663   8.927   8.550
 6606POPC   D2A30064   6.599   9.016   8.250
 6606POPC   C3A30065   6.632   8.939   7.950
 6606POPC   C4A30066   6.695   8.947   7.650
 6606POPC   C1B30067   6.834   9.054   8.550
 6606POPC   C2B30068   6.891   9.114   8.250
 6606POPC   C3B30069   6.860   9.106   7.950
 6606POPC   C4B30070   6.913   9.041   7.650
 6607POPC   NC330071  40.821  26.843   9.450
 6607POPC   PO430072  40.756  26.831   9.150
 6607POPC   GL130073  40.798  26.774   8.850
 6607POPC   GL230074  40.934  26.811   8.850
 6607POPC   C1A30075  40.794  26.843   8.550
 6607POPC   D2A30076  40.768  26.840   8.250
 6607POPC   C3A30077  40.748  26.848   7.950
 6607POPC   C4A30078  40.805  26.772   7.650
 6607POPC   C1B30079  41.005  26.920   8.550
 6607POPC   C2B30080  41.043  26.907   8.250
 6607POPC   C3B30081  41.031  26.877   7.950
 6607POPC   C4B30082  41.056  26.881   7.650
 6608POPC   NC330083   5.111  26.859   9.450
 6608POPC   PO430084   5.141  26.824   9.150
 6608POPC   GL130085   5.124  26.807   8.850
 6608POPC   GL230086   4.946  26.826   8.850
 6608POPC   C1A30087   5.057  26.841   8.550
 6608POPC   D2A30088   5.128  26.772   8.250
 6608POPC   C3A30089   5.079  26.828   7.950
 6608POPC   C4A30090   5.047  26.811   7.650
 6608POPC   C1B30091   4.884  26.720   8.550
 6608POPC   C2B30092   4.853  26.778   8.250
 6608POPC   C3B30093   4.865  26.711   7.950
 6608POPC   C4B30094   4.875  26.738   7.650
 6609POPC   NC330095  19.021  31.478   9.450
 6609POPC   PO430096  19.098  31.467   9.150
 6609POPC   GL130097  19.074  31.468   8.850
 6609POPC   GL230098  19.138  31.439   8.850
 6609POPC   C1A30099  19.097  31.437   8.550
 6609POPC   D2A30100  19.051  31.444   8.250
 6609POPC   C3A30101  19.032  31.496   7.950
 6609POPC   C4A30102  19.057  31.425   7.650
 6609POPC   C1B30103  19.227  31.306   8.550
 6609POPC   C2B30104  19.323  31.326   8.250
 6609POPC   C3B30105  19.253  31.355   7.950
 6609POPC   C4B30106  19.321  31.358   7.650
 6610POPC   NC330107  15.175  29.876   9.450
 6610POPC   PO430108  15.159  29.876   9.150
 6610POPC   GL130109  15.210  29.948   8.850
 6610POPC   GL230110  15.246  29.900   8.850
 6610POPC   C1A30111  15.185  29.924   8.550
 6610POPC   D2A30112  15.141  29.921   8.250
 6610POPC   C3A30113  15.153  29.952   7.950
 6610POPC   C4A30114  15.161  29.873   7.650
 6610POPC   C1B30115  15.407  29.834   8.550
 6610POPC   C2B30116  15.431  29.826   8.250
 6610POPC   C3B30117  15.433  29.832   7.950
 6610POPC   C4B30118  15.443  29.770   7.650
 6611POPC   NC330119  44.674  36.933   9.450
 6611POPC   PO430120  44.668  36.934   9.150
 6611POPC   GL130121  44.628  36.943   8.850
 6611POPC   GL230122  44.665  37.057   8.850
 6611POPC   C1A30123  44.703  36.943   8.550
 6611POPC   D2A30124  44.657  36.941   8.250
 6611POPC   C3A30125  44.653  36.856   7.950
 6611POPC   C4A30126  44.663  36.869   7.650
 6611POPC   C1B30127  44.764  37.105   8.550
 6611POPC   C2B30128  44.772  37.165   8.250
 6611POPC   C3B30129  44.742  37.162   7.950
 6611POPC   C4B30130  44.728  37.149   7.650
 6612POPC   NC330131  41.577  43.890   9.450
 6612POPC   PO430132  41.516  43.913   9.150
 6612POPC   GL130133  41.575  43.891   8.850
 6612POPC   GL230134  41.620  44.018   8.850
 6612POPC   C1A30135  41.539  43.865   8.550
 6612POPC   D2A30136  41.533  43.878   8.250
 6612POPC   C3A30137  41.575  43.909   7.950
 6612POPC   C4A30138  41.570  43.922   7.650
 6612POPC   C1B30139  41.688  44.068   8.550
 6612POPC   C2B30140  41.654  44.083   8.250
 6612POPC   C3B30141  41.708  44.073   7.950
 6612POPC   C4B30142  41.733  44.063   7.650
 6613POPC   NC330143   4.318  11.273   9.450
 6613POPC   PO430144   4.307  11.327   9.150
 6613POPC   GL130145   4.298  11.272   8.850
 6613POPC   GL230146   4.419  11.323   8.850
 6613POPC   C1A30147   4.348  11.343   8.550
 6613POPC   D2A30148   4.360  11.304   8.250
 6613POPC   C3A30149   4.355  11.289   7.950
 6613POPC   C4A30150   4.366  11.292   7.650
 6613POPC   C1B30151   4.607  11.313   8.550
 6613POPC   C2B30152   4.516  11.362   8.250
 6613POPC   C3B30153   4.589  11.342   7.950
 6613POPC   C4B30154   4.597  11.352   7.650
 6614POPC   NC330155  13.653  32.982   9.450
 6614POPC   PO430156  13.664  33.070   9.150
 6614POPC   GL130157  13.605  33.058   8.850
 6614POPC   GL230158  13.458  33.015   8.850
 6614POPC   C1A30159  13.642  33.038   8.550
 6614POPC   D2A30160  13.586  33.016   8.250
 6614POPC   C3A30161  13.600  32.987   7.950
 6614POPC   C4A30162  13.664  32.989   7.650
 6614POPC   C1B30163  13.348  32.994   8.550
 6614POPC   C2B30164  13.403  33.029   8.250
 6614POPC   C3B30165  13.401  33.050   7.950
 6614POPC   C4B30166  13.360  33.027   7.650
 6615POPC   NC330167  42.360  33.759   9.450
 6615POPC   PO430168  42.358  33.832   9.150
 6615POPC   GL130169  42.369  33.843   8.850
 6615POPC   GL230170  42.263  33.875   8.850
 6615POPC   C1A30171  42.383  33.761   8.550
 6615POPC   D2A30172  42.354  33.808   8.250
 6615POPC   C3A30173  42.337  33.757   7.950
 6615POPC   C4A30174  42.292  33.827   7.650
 6615POPC   C1B30175  42.063  33.892   8.550
 6615POPC   C2B30176  42.129  33.910   8.250
 6615POPC   C3B30177  42.080  33.880   7.950
 6615POPC   C4B30178  42.079  33.899   7.650
 6616POPC   NC330179  19.042  19.029   9.450
 6616POPC   PO430180  19.077  19.035   9.150
 6616POPC   GL130181  19.075  19.064   8.850
 6616POPC   GL230182  19.183  19.023   8.850
 6616POPC   C1A30183  19.101  19.080   8.550
 6616POPC   D2A30184  19.012  19.016   8.250
 6616POPC   C3A30185  19.012  19.090   7.950
 6616POPC   C4A30186  19.089  19.094   7.650
 6616POPC   C1B30187  19.314  19.107   8.550
 6616POPC   C2B30188  19.305  19.074   8.250
 6616POPC   C3B30189  19.260  19.105   7.950
 6616POPC   C4B30190  19.319  19.076   7.650
 6617POPC   NC330191  16.713   2.004   9.450
 6617POPC   PO430192  16.749   2.004   9.150
 6617POPC   GL130193  16.733   1.994   8.850
 6617POPC   GL230194  16.669   2.155   8.850
 6617POPC   C1A30195  16.718   2.023   8.550
 6617POPC   D2A30196  16.686   2.009   8.250
 6617POPC   C3A30197  16.744   2.008   7.950
 6617POPC   C4A30198  16.738   1.996   7.650
 6617POPC   C1B30199  16.678   2.281   8.550
 6617POPC   C2B30200  16.639   2.253   8.250
 6617POPC   C3B30201  16.636   2.187   7.950
 6617POPC   C4B30202  16.721   2.267   7.650
 6618POPC   NC330203  12.841  29.967   9.450
 6618POPC   PO430204  12.818  29.880   9.150
 6618POPC   GL130205  12.880  29.873   8.850
 6618POPC   GL230206  12.971  29.865   8.850
 6618POPC   C1A30207  12.898  29.967   8.550
 6618POPC   D2A30208  12.815  29.892   8.250
 6618POPC   C3A30209  12.860  29.904   7.950
 6618POPC   C4A30210  12.883  29.898   7.650
 6618POPC   C1B30211  13.140  29.830   8.550
 6618POPC   C2B30212  13.049  29.864   8.250
 6618POPC   C3B30213  13.066  29.813   7.950
 6618POPC   C4B30214  13.071  29.907   7.650
 6619POPC   NC330215  40.010  15.982   9.450
 6619POPC   PO430216  39.973  15.910   9.150
 6619POPC   GL130217  39.958  15.958   8.850
 6619POPC   GL230218  39.868  15.918   8.850
 6619POPC   C1A30219  40.013  15.963   8.550
 6619POPC   D2A30220  40.020  15.941   8.250
 6619POPC   C3A30221  40.039  15.996   7.950
 6619POPC   C4A30222  39.965  15.986   7.650
 6619POPC   C1B30223  39.790  16.006   8.550
 6619POPC   C2B30224  39.801  15.970   8.250
 6619POPC   C3B30225  39.732  15.959   7.950
 6619POPC   C4B30226  39.799  15.953   7.650
 6620POPC   NC330227  33.009  15.205   9.450
 6620POPC   PO430228  33.042  15.132   9.150
 6620POPC   GL130229  33.052  15.155   8.850
 6620POPC   GL230230  32.969  15.072   8.850
 6620POPC   C1A30231  33.032  15.217   8.550
 6620POPC   D2A30232  33.019  15.201   8.250
 6620POPC   C3A30233  33.041  15.206   7.950
 6620POPC   C4A30234  33.055  15.185   7.650
 6620POPC   C1B30235  33.009  14.949   8.550
 6620POPC   C2B30236  32.997  14.924   8.250
 6620POPC   C3B30237  33.033  14.972   7.950
 6620POPC   C4B30238  32.972  14.963   7.650
 6621POPC   NC330239  22.933  11.265   9.450
 6621POPC   PO430240  22.959  11.279   9.150
 6621POPC   GL130241  22.968  11.252   8.850
 6621POPC   GL230242  22.964  11.202   8.850
 6621POPC   C1A30243  22.922  11.288   8.550
 6621POPC   D2A30244  22.906  11.336   8.250
 6621POPC   C3A30245  22.899  11.310   7.950
 6621POPC   C4A30246  22.956  11.257   7.650
 6621POPC   C1B30247  23.073  11.077   8.550
 6621POPC   C2B30248  23.087  11.072   8.250
 6621POPC   C3B30249  22.998  11.025   7.950
 6621POPC   C4B30250  23.025  11.050   7.650
 6622POPC   NC330251  43.887  36.912   9.450
 6622POPC   PO430252  43.839  36.860   9.150
 6622POPC   GL130253  43.862  36.910   8.850
 6622POPC   GL230254  43.728  36.935   8.850
 6622POPC   C1A30255  43.857  36.894   8.550
 6622POPC   D2A30256  43.931  36.914   8.250
 6622POPC   C3A30257  43.853  36.902   7.950
 6622POPC   C4A30258  43.869  36.943   7.650
 6622POPC   C1B30259  43.653  36.936   8.550
 6622POPC   C2B30260  43.682  36.900   8.250
 6622POPC   C3B30261  43.594  36.936   7.950
 6622POPC   C4B30262  43.622  36.961   7.650
 6623POPC   NC330263  26.031   5.097   9.450
 6623POPC   PO430264  26.045   5.088   9.150
 6623POPC   GL130265  26.047   5.122   8.850
 6623POPC   GL230266  25.956   5.093   8.850
 6623POPC   C1A30267  26.020   5.117   8.550
 6623POPC   D2A30268  26.045   5.048   8.250
 6623POPC   C3A30269  26.053   5.085   7.950
 6623POPC   C4A30270  26.047   5.139   7.650
 6623POPC   C1B30271  25.800   4.983   8.550
 6623POPC   C2B30272  25.823   5.047   8.250
 6623POPC   C3B30273  25.829   4.994   7.950
 6623POPC   C4B30274  25.813   4.953   7.650
 6624POPC   NC330275  15.174  25.316   9.450
 6624POPC   PO430276  15.136  25.263   9.150
 6624POPC   GL130277  15.153  25.299   8.850
 6624POPC   GL230278  15.158  25.367   8.850
 6624POPC   C1A30279  15.134  25.296   8.550
 6624POPC   D2A30280  15.206  25.285   8.250
 6624POPC   C3A30281  15.166  25.261   7.950
 6624POPC   C4A30282  15.217  25.313   7.650
 6624POPC   C1B30283  15.099  25.508   8.550
 6624POPC   C2B30284  15.014  25.474   8.250
 6624POPC   C3B30285  15.094  25.493   7.950
 6624POPC   C4B30286  15.035  25.522   7.650
 6625POPC   NC330287  19.825  44.691   9.450
 6625POPC   PO430288  19.875  44.668   9.150
 6625POPC   GL130289  19.861  44.689   8.850
 6625POPC   GL230290  19.774  44.774   8.850
 6625POPC   C1A30291  19.868  44.620   8.550
 6625POPC   D2A30292  19.794  44.619   8.250
 6625POPC   C3A30293  19.807  44.670   7.950
 6625POPC   C4A30294  19.850  44.622   7.650
 6625POPC   C1B30295  19.651  44.867   8.550
 6625POPC   C2B30296  19.644  44.811   8.250
 6625POPC   C3B30297  19.684  44.848   7.950
 6625POPC   C4B30298  19.716  44.878   7.650
 6626POPC   NC330299  32.273  38.431   9.450
 6626POPC   PO430300  32.246  38.490   9.150
 6626POPC   GL130301  32.241  38.490   8.850
 6626POPC   GL230302  32.208  38.337   8.850
 6626POPC   C1A30303  32.218  38.411   8.550
 6626POPC   D2A30304  32.258  38.475   8.250
 6626POPC   C3A30305  32.276  38.492   7.950
 6626POPC   C4A30306  32.264  38.500   7.650
 6626POPC   C1B30307  32.076  38.254   8.550
 6626POPC   C2B30308  32.053  38.307   8.250
 6626POPC   C3B30309  32.051  38.237   7.950
 6626POPC   C4B30310  32.034  38.270   7.650
 6627POPC   NC330311  24.536   1.952   9.450
 6627POPC   PO430312  24.482   1.980   9.150
 6627POPC   GL130313  24.448   1.993   8.850
 6627POPC   GL230314  24.505   1.907   8.850
 6627POPC   C1A30315  24.529   1.957   8.550
 6627POPC   D2A30316  24.512   1.991   8.250
 6627POPC   C3A30317  24.442   1.973   7.950
 6627POPC   C4A30318  24.479   1.952   7.650
 6627POPC   C1B30319  24.532   1.704   8.550
 6627POPC   C2B30320  24.511   1.784   8.250
 6627POPC   C3B30321  24.534   1.768   7.950
 6627POPC   C4B30322  24.562   1.740   7.650
 6628POPC   NC330323  31.457  36.105   9.450
 6628POPC   PO430324  31.497  36.133   9.150
 6628POPC   GL130325  31.492  36.131   8.850
 6628POPC   GL230326  31.624  36.182   8.850
 6628POPC   C1A30327  31.438  36.097   8.550
 6628POPC   D2A30328  31.430  36.114   8.250
 6628POPC   C3A30329  31.438  36.086   7.950
 6628POPC   C4A30330  31.491  36.078   7.650
 6628POPC   C1B30331  31.711  36.259   8.550
 6628POPC   C2B30332  31.703  36.275   8.250
 6628POPC   C3B30333  31.663  36.268   7.950
 6628POPC   C4B30334  31.659  36.250   7.650
 6629POPC   NC330335  40.749  21.374   9.450
 6629POPC   PO430336  40.822  21.436   9.150
 6629POPC   GL130337  40.796  21.390   8.850
 6629POPC   GL230338  40.740  21.505   8.850
 6629POPC   C1A30339  40.827  21.382   8.550
 6629POPC   D2A30340  40.756  21.429   8.250
 6629POPC   C3A30341  40.812  21.406   7.950
 6629POPC   C4A30342  40.824  21.436   7.650
 6629POPC   C1B30343  40.612  21.613   8.550
 6629POPC   C2B30344  40.592  21.602   8.250
 6629POPC   C3B30345  40.688  21.553   7.950
 6629POPC   C4B30346  40.691  21.625   7.650
 6630POPC   NC330347  29.932  18.326   9.450
 6630POPC   PO430348  29.944  18.328   9.150
 6630POPC   GL130349  29.954  18.320   8.850
 6630POPC   GL230350  29.811  18.180   8.850
 6630POPC   C1A30351  29.933  18.291   8.550
 6630POPC   D2A30352  29.889  18.296   8.250
 6630POPC   C3A30353  29.873  18.292   7.950
 6630POPC   C4A30354  29.884  18.235   7.650
 6630POPC   C1B30355  29.756  18.038   8.550
 6630POPC   C2B30356  29.808  18.116   8.250
 6630POPC   C3B30357  29.754  18.090   7.950
 6630POPC   C4B30358  29.753  18.093   7.650
 6631POPC   NC330359  12.872  36.884   9.450
 6631POPC   PO430360  12.872  36.940   9.150
 6631POPC   GL130361  12.879  36.951   8.850
 6631POPC   GL230362  12.739  36.913   8.850
 6631POPC   C1A30363  12.901  36.943   8.550
 6631POPC   D2A30364  12.888  36.939   8.250
 6631POPC   C3A30365  12.831  36.865   7.950
 6631POPC   C4A30366  12.857  36.934   7.650
 6631POPC   C1B30367  12.636  36.919   8.550
 6631POPC   C2B30368  12.566  36.937   8.250
 6631POPC   C3B30369  12.610  36.944   7.950
 6631POPC   C4B30370  12.636  36.894   7.650
 6632POPC   NC330371  22.906  32.202   9.450
 6632POPC   PO430372  22.967  32.212   9.150
 6632POPC   GL130373  22.945  32.230   8.850
 6632POPC   GL230374  22.818  32.158   8.850
 6632POPC   C1A30375  22.926  32.215   8.550
 6632POPC   D2A30376  22.922  32.283   8.250
 6632POPC   C3A30377  22.945  32.267   7.950
 6632POPC   C4A30378  22.928  32.249   7.650
 6632POPC   C1B30379  22.767  32.081   8.550
 6632POPC   C2B30380  22.741  32.057   8.250
 6632POPC   C3B30381  22.746  32.107   7.950
 6632POPC   C4B30382  22.728  32.144   7.650
 6633POPC   NC330383  44.661  29.889   9.450
 6633POPC   PO430384  44.704  29.896   9.150
 6633POPC   GL130385  44.671  29.894   8.850
 6633POPC   GL230386  44.583  29.969   8.850
 6633POPC   C1A30387  44.613  29.949   8.550
 6633POPC   D2A30388  44.702  29.919   8.250
 6633POPC   C3A30389  44.689  29.880   7.950
 6633POPC   C4A30390  44.680  29.922   7.650
 6633POPC   C1B30391  44.406  30.018   8.550
 6633POPC   C2B30392  44.426  30.018   8.250
 6633POPC   C3B30393  44.423  30.041   7.950
 6633POPC   C4B30394  44.385  29.981   7.650
 6634POPC   NC330395  11.264  34.566   9.450
 6634POPC   PO430396  11.349  34.537   9.150
 6634POPC   GL130397  11.323  34.559   8.850
 6634POPC   GL230398  11.468  34.554   8.850
 6634POPC   C1A30399  11.309  34.603   8.550
 6634POPC   D2A30400  11.343  34.591   8.250
 6634POPC   C3A30401  11.339  34.609   7.950
 6634POPC   C4A30402  11.339  34.614   7.650
 6634POPC   C1B30403  11.502  34.610   8.550
 6634POPC   C2B30404  11.597  34.584   8.250
 6634POPC   C3B30405  11.586  34.591   7.950
 6634POPC   C4B30406  11.557  34.562   7.650
 6635POPC   NC330407  28.352  14.431   9.450
 6635POPC   PO430408  28.376  14.374   9.150
 6635POPC   GL130409  28.325  14.430   8.850
 6635POPC   GL230410  28.431  14.271   8.850
 6635POPC   C1A30411  28.411  14.421   8.550
 6635POPC   D2A30412  28.398  14.439   8.250
 6635POPC   C3A30413  28.401  14.387   7.950
 6635POPC   C4A30414  28.349  14.383   7.650
 6635POPC   C1B30415  28.379  14.197   8.550
 6635POPC   C2B30416  28.393  14.192   8.250
 6635POPC   C3B30417  28.428  14.198   7.950
 6635POPC   C4B30418  28.441  14.121   7.650
 6636POPC   NC330419   8.236  43.902   9.450
 6636POPC   PO430420   8.224  43.900   9.150
 6636POPC   GL130421   8.150  43.905   8.850
 6636POPC   GL230422   8.261  43.934   8.850
 6636POPC   C1A30423   8.245  43.927   8.550
 6636POPC   D2A30424   8.162  43.868   8.250
 6636POPC   C3A30425   8.229  43.840   7.950
 6636POPC   C4A30426   8.154  43.847   7.650
 6636POPC   C1B30427   8.392  43.980   8.550
 6636POPC   C2B30428   8.419  44.038   8.250
 6636POPC   C3B30429   8.411  44.003   7.950
 6636POPC   C4B30430   8.405  44.006   7.650
 6637POPC   NC330431  36.115  39.207   9.450
 6637POPC   PO430432  36.109  39.200   9.150
 6637POPC   GL130433  36.125  39.233   8.850
 6637POPC   GL230434  36.234  39.248   8.850
 6637POPC   C1A30435  36.081  39.226   8.550
 6637POPC   D2A30436  36.146  39.236   8.250
 6637POPC   C3A30437  36.112  39.260   7.950
 6637POPC   C4A30438  36.165  39.218   7.650
 6637POPC   C1B30439  36.303  39.390   8.550
 6637POPC   C2B30440  36.341  39.373   8.250
 6637POPC   C3B30441  36.320  39.380   7.950
 6637POPC   C4B30442  36.357  39.334   7.650
 6638POPC   NC330443  24.473   5.115   9.450
 6638POPC   PO430444  24.440   5.089   9.150
 6638POPC   GL130445  24.443   5.078   8.850
 6638POPC   GL230446  24.553   5.176   8.850
 6638POPC   C1A30447  24.533   5.127   8.550
 6638POPC   D2A30448  24.498   5.061   8.250
 6638POPC   C3A30449  24.533   5.049   7.950
 6638POPC   C4A30450  24.512   5.051   7.650
 6638POPC   C1B30451  24.644   5.194   8.550
 6638POPC   C2B30452  24.710   5.257   8.250
 6638POPC   C3B30453  24.718   5.260   7.950
 6638POPC   C4B30454  24.700   5.277   7.650
 6639POPC   NC330455  13.648  43.096   9.450
 6639POPC   PO430456  13.587  43.136   9.150
 6639POPC   GL130457  13.669  43.125   8.850
 6639POPC   GL230458  13.670  43.228   8.850
 6639POPC   C1A30459  13.642  43.080   8.550
 6639POPC   D2A30460  13.602  43.151   8.250
 6639POPC   C3A30461  13.667  43.128   7.950
 6639POPC   C4A30462  13.636  43.061   7.650
 6639POPC   C1B30463  13.729  43.367   8.550
 6639POPC   C2B30464  13.767  43.367   8.250
 6639POPC   C3B30465  13.717  43.372   7.950
 6639POPC   C4B30466  13.696  43.306   7.650
 6640POPC   NC330467  13.654  23.728   9.450
 6640POPC   PO430468  13.658  23.754   9.150
 6640POPC   GL130469  13.620  23.759   8.850
 6640POPC   GL230470  13.521  23.823   8.850
 6640POPC   C1A30471  13.669  23.669   8.550
 6640POPC   D2A30472  13.651  23.666   8.250
 6640POPC   C3A30473  13.675  23.751   7.950
 6640POPC   C4A30474  13.624  23.665   7.650
 6640POPC   C1B30475  13.531  23.927   8.550
 6640POPC   C2B30476  13.486  23.941   8.250
 6640POPC   C3B30477  13.488  23.889   7.950
 6640POPC   C4B30478  13.488  23.950   7.650
 6641POPC   NC330479  19.074  42.325   9.450
 6641POPC   PO430480  19.027  42.372   9.150
 6641POPC   GL130481  19.033  42.375   8.850
 6641POPC   GL230482  18.915  42.330   8.850
 6641POPC   C1A30483  19.057  42.331   8.550
 6641POPC   D2A30484  19.088  42.306   8.250
 6641POPC   C3A30485  19.098  42.341   7.950
 6641POPC   C4A30486  19.069  42.373   7.650
 6641POPC   C1B30487  18.803  42.310   8.550
 6641POPC   C2B30488  18.775  42.330   8.250
 6641POPC   C3B30489  18.838  42.340   7.950
 6641POPC   C4B30490  18.765  42.325   7.650
 6642POPC   NC330491  16.718  12.120   9.450
 6642POPC   PO430492  16.682  12.027   9.150
 6642POPC   GL130493  16.765  12.085   8.850
 6642POPC   GL230494  16.736  12.217   8.850
 6642POPC   C1A30495  16.723  12.058   8.550
 6642POPC   D2A30496  16.767  12.113   8.250
 6642POPC   C3A30497  16.683  12.029   7.950
 6642POPC   C4A30498  16.685  12.050   7.650
 6642POPC   C1B30499  16.836  12.315   8.550
 6642POPC   C2B30500  16.792  12.329   8.250
 6642POPC   C3B30501  16.846  12.274   7.950
 6642POPC   C4B30502  16.824  12.252   7.650
 6643POPC   NC330503  31.490  22.185   9.450
 6643POPC   PO430504  31.467  22.209   9.150
 6643POPC   GL130505  31.445  22.155   8.850
 6643POPC   GL230506  31.539  22.271   8.850
 6643POPC   C1A30507  31.427  22.116   8.550
 6643POPC   D2A30508  31.464  22.196   8.250
 6643POPC   C3A30509  31.426  22.149   7.950
 6643POPC   C4A30510  31.494  22.197   7.650
 6643POPC   C1B30511  31.509  22.352   8.550
 6643POPC   C2B30512  31.516  22.358   8.250
 6643POPC   C3B30513  31.586  22.412   7.950
 6643POPC   C4B30514  31.527  22.448   7.650
 6644POPC   NC330515   8.157  27.626   9.450
 6644POPC   PO430516   8.203  27.590   9.150
 6644POPC   GL130517   8.180  27.570   8.850
 6644POPC   GL230518   8.103  27.673   8.850
 6644POPC   C1A30519   8.150  27.561   8.550
 6644POPC   D2A30520   8.233  27.592   8.250
 6644POPC   C3A30521   8.183  27.617   7.950
 6644POPC   C4A30522   8.243  27.611   7.650
 6644POPC   C1B30523   7.952  27.762   8.550
 6644POPC   C2B30524   8.034  27.779   8.250
 6644POPC   C3B30525   8.034  27.762   7.950
 6644POPC   C4B30526   8.026  27.792   7.650
 6645POPC   NC330527  17.469  17.462   9.450
 6645POPC   PO430528  17.457  17.522   9.150
 6645POPC   GL130529  17.498  17.537   8.850
 6645POPC   GL230530  17.428  17.402   8.850
 6645POPC   C1A30531  17.474  17.508   8.550
 6645POPC   D2A30532  17.473  17.474   8.250
 6645POPC   C3A30533  17.511  17.534   7.950
 6645POPC   C4A30534  17.509  17.512   7.650
 6645POPC   C1B30535  17.461  17.232   8.550
 6645POPC   C2B30536  17.457  17.276   8.250
 6645POPC   C3B30537  17.463  17.263   7.950
 6645POPC   C4B30538  17.459  17.285   7.650
 6646POPC   NC330539  24.535  29.111   9.450
 6646POPC   PO430540  24.478  29.106   9.150
 6646POPC   GL130541  24.518  29.137   8.850
 6646POPC   GL230542  24.595  29.255   8.850
 6646POPC   C1A30543  24.518  29.097   8.550
 6646POPC   D2A30544  24.505  29.146   8.250
 6646POPC   C3A30545  24.506  29.145   7.950
 6646POPC   C4A30546  24.443  29.160   7.650
 6646POPC   C1B30547  24.595  29.322   8.550
 6646POPC   C2B30548  24.563  29.315   8.250
 6646POPC   C3B30549  24.607  29.406   7.950
 6646POPC   C4B30550  24.568  29.409   7.650
 6647POPC   NC330551  32.230  32.228   9.450
 6647POPC   PO430552  32.201  32.210   9.150
 6647POPC   GL130553  32.222  32.267   8.850
 6647POPC   GL230554  32.321  32.353   8.850
 6647POPC   C1A30555  32.269  32.241   8.550
 6647POPC   D2A30556  32.258  32.227   8.250
 6647POPC   C3A30557  32.235  32.232   7.950
 6647POPC   C4A30558  32.293  32.294   7.650
 6647POPC   C1B30559  32.332  32.524   8.550
 6647POPC   C2B30560  32.320  32.473   8.250
 6647POPC   C3B30561  32.365  32.497   7.950
 6647POPC   C4B30562  32.365  32.494   7.650
 6648POPC   NC330563  26.785  42.302   9.450
 6648POPC   PO430564  26.776  42.347   9.150
 6648POPC   GL130565  26.850  42.346   8.850
 6648POPC   GL230566  26.701  42.310   8.850
 6648POPC   C1A30567  26.847  42.375   8.550
 6648POPC   D2A30568  26.827  42.327   8.250
 6648POPC   C3A30569  26.814  42.364   7.950
 6648POPC   C4A30570  26.808  42.368   7.650
 6648POPC   C1B30571  26.601  42.204   8.550
 6648POPC   C2B30572  26.593  42.189   8.250
 6648POPC   C3B30573  26.651  42.187   7.950
 6648POPC   C4B30574  26.596  42.199   7.650
 6649POPC   NC330575  33.064  34.574   9.450
 6649POPC   PO430576  33.013  34.569   9.150
 6649POPC   GL130577  32.976  34.604   8.850
 6649POPC   GL230578  32.930  34.540   8.850
 6649POPC   C1A30579  33.022  34.617   8.550
 6649POPC   D2A30580  33.027  34.568   8.250
 6649POPC   C3A30581  33.006  34.532   7.950
 6649POPC   C4A30582  32.991  34.587   7.650
 6649POPC   C1B30583  32.753  34.595   8.550
 6649POPC   C2B30584  32.735  34.552   8.250
 6649POPC   C3B30585  32.761  34.604   7.950
 6649POPC   C4B30586  32.823  34.551   7.650
 6650POPC   NC330587   5.882   5.099   9.450
 6650POPC   PO430588   5.912   5.049   9.150
 6650POPC   GL130589   5.865   5.129   8.850
 6650POPC   GL230590   5.825   5.206   8.850
 6650POPC   C1A30591   5.863   5.079   8.550
 6650POPC   D2A30592   5.840   5.101   8.250
 6650POPC   C3A30593   5.848   5.122   7.950
 6650POPC   C4A30594   5.832   5.057   7.650
 6650POPC   C1B30595   5.923   5.328   8.550
 6650POPC   C2B30596   5.909   5.357   8.250
 6650POPC   C3B30597   5.842   5.305   7.950
 6650POPC   C4B30598   5.836   5.376   7.650
 6651POPC   NC330599   3.576  42.300   9.450
 6651POPC   PO430600   3.521  42.326   9.150
 6651POPC   GL130601   3.549  42.302   8.850
 6651POPC   GL230602   3.621  42.440   8.850
 6651POPC   C1A30603   3.517  42.327   8.550
 6651POPC   D2A30604   3.567  42.323   8.250
 6651POPC   C3A30605   3.558  42.379   7.950
 6651POPC   C4A30606   3.505  42.334   7.650
 6651POPC   C1B30607   3.620  42.569   8.550
 6651POPC   C2B30608   3.647  42.555   8.250
 6651POPC   C3B30609   3.657  42.542   7.950
 6651POPC   C4B30610   3.615  42.569   7.650
 6652POPC   NC330611  27.570  41.606   9.450
 6652POPC   PO430612  27.615  41.552   9.150
 6652POPC   GL130613  27.594  41.559   8.850
 6652POPC   GL230614  27.469  41.441   8.850
 6652POPC   C1A30615  27.599  41.523   8.550
 6652POPC   D2A30616  27.605  41.526   8.250
 6652POPC   C3A30617  27.603  41.529   7.950
 6652POPC   C4A30618  27.567  41.608   7.650
 6652POPC   C1B30619  27.456  41.412   8.550
 6652POPC   C2B30620  27.387  41.374   8.250
 6652POPC   C3B30621  27.400  41.381   7.950
 6652POPC   C4B30622  27.438  41.331   7.650
 6653POPC   NC330623  26.050  20.589   9.450
 6653POPC   PO430624  26.027  20.566   9.150
 6653POPC   GL130625  26.003  20.641   8.850
 6653POPC   GL230626  26.093  20.749   8.850
 6653POPC   C1A30627  26.062  20.639   8.550
 6653POPC   D2A30628  25.992  20.604   8.250
 6653POPC   C3A30629  26.009  20.629   7.950
 6653POPC   C4A30630  26.054  20.622   7.650
 6653POPC   C1B30631  26.063  20.827   8.550
 6653POPC   C2B30632  26.030  20.875   8.250
 6653POPC   C3B30633  26.066  20.848   7.950
 6653POPC   C4B30634  26.017  20.849   7.650
 6654POPC   NC330635  33.836  15.185   9.450
 6654POPC   PO430636  33.788  15.186   9.150
 6654POPC   GL130637  33.782  15.159   8.850
 6654POPC   GL230638  33.834  15.299   8.850
 6654POPC   C1A30639  33.814  15.183   8.550
 6654POPC   D2A30640  33.791  15.203   8.250
 6654POPC   C3A30641  33.833  15.144   7.950
 6654POPC   C4A30642  33.763  15.226   7.650
 6654POPC   C1B30643  33.915  15.358   8.550
 6654POPC   C2B30644  33.887  15.439   8.250
 6654POPC   C3B30645  33.943  15.385   7.950
 6654POPC   C4B30646  33.933  15.421   7.650
 6655POPC   NC330647  31.452   2.772   9.450
 6655POPC   PO430648  31.479   2.784   9.150
 6655POPC   GL130649  31.467   2.811   8.850
 6655POPC   GL230650  31.314   2.688   8.850
 6655POPC   C1A30651  31.455   2.737   8.550
 6655POPC   D2A30652  31.519   2.738   8.250
 6655POPC   C3A30653  31.455   2.794   7.950
 6655POPC   C4A30654  31.451   2.771   7.650
 6655POPC   C1B30655  31.195   2.655   8.550
 6655POPC   C2B30656  31.196   2.701   8.250
 6655POPC   C3B30657  31.263   2.717   7.950
 6655POPC   C4B30658  31.184   2.675   7.650
 6656POPC   NC330659   0.455  28.337   9.450
 6656POPC   PO430660   0.483  28.346   9.150
 6656POPC   GL130661   0.424  28.412   8.850
 6656POPC   GL230662   0.362  28.356   8.850
 6656POPC   C1A30663   0.469  28.333   8.550
 6656POPC   D2A30664   0.428  28.389   8.250
 6656POPC   C3A30665   0.412  28.408   7.950
 6656POPC   C4A30666   0.461  28.363   7.650
 6656POPC   C1B30667   0.205  28.371   8.550
 6656POPC   C2B30668   0.145  28.366   8.250
 6656POPC   C3B30669   0.211  28.291   7.950
 6656POPC   C4B30670   0.233  28.376   7.650
 6657POPC   NC330671  36.946  31.457   9.450
 6657POPC   PO430672  36.903  31.442   9.150
 6657POPC   GL130673  36.948  31.437   8.850
 6657POPC   GL230674  36.770  31.529   8.850
 6657POPC   C1A30675  36.864  31.471   8.550
 6657POPC   D2A30676  36.869  31.517   8.250
 6657POPC   C3A30677  36.906  31.493   7.950
 6657POPC   C4A30678  36.893  31.454   7.650
 6657POPC   C1B30679  36.671  31.494   8.550
 6657POPC   C2B30680  36.652  31.514   8.250
 6657POPC   C3B30681  36.608  31.564   7.950
 6657POPC   C4B30682  36.662  31.562   7.650
 6658POPC   NC330683  25.232   3.503   9.450
 6658POPC   PO430684  25.304   3.495   9.150
 6658POPC   GL130685  25.292   3.551   8.850
 6658POPC   GL230686  25.156   3.577   8.850
 6658POPC   C1A30687  25.272   3.493   8.550
 6658POPC   D2A30688  25.261   3.531   8.250
 6658POPC   C3A30689  25.276   3.562   7.950
 6658POPC   C4A30690  25.313   3.501   7.650
 6658POPC   C1B30691  25.022   3.617   8.550
 6658POPC   C2B30692  25.035   3.633   8.250
 6658POPC   C3B30693  24.993   3.619   7.950
 6658POPC   C4B30694  25.065   3.622   7.650
 6659POPC   NC330695   9.017   2.778   9.450
 6659POPC   PO430696   8.995   2.737   9.150
 6659POPC   GL130697   8.925   2.734   8.850
 6659POPC   GL230698   9.062   2.702   8.850
 6659POPC   C1A30699   8.944   2.720   8.550
 6659POPC   D2A30700   8.990   2.787   8.250
 6659POPC   C3A30701   8.947   2.733   7.950
 6659POPC   C4A30702   8.962   2.736   7.650
 6659POPC   C1B30703   9.198   2.705   8.550
 6659POPC   C2B30704   9.231   2.754   8.250
 6659POPC   C3B30705   9.223   2.728   7.950
 6659POPC   C4B30706   9.236   2.697   7.650
 6660POPC   NC330707   9.763  13.646   9.450
 6660POPC   PO430708   9.773  13.662   9.150
 6660POPC   GL130709   9.758  13.677   8.850
 6660POPC   GL230710   9.806  13.765   8.850
 6660POPC   C1A30711   9.734  13.588   8.550
 6660POPC   D2A30712   9.731  13.655   8.250
 6660POPC   C3A30713   9.703  13.603   7.950
 6660POPC   C4A30714   9.766  13.673   7.650
 6660POPC   C1B30715   9.953  13.792   8.550
 6660POPC   C2B30716   9.958  13.815   8.250
 6660POPC   C3B30717   9.913  13.846   7.950
 6660POPC   C4B30718   9.876  13.806   7.650
 6661POPC   NC330719  33.809   0.471   9.450
 6661POPC   PO430720  33.781   0.450   9.150
 6661POPC   GL130721  33.789   0.442   8.850
 6661POPC   GL230722  33.714   0.364   8.850
 6661POPC   C1A30723  33.823   0.479   8.550
 6661POPC   D2A30724  33.827   0.440   8.250
 6661POPC   C3A30725  33.783   0.401   7.950
 6661POPC   C4A30726  33.784   0.457   7.650
 6661POPC   C1B30727  33.678   0.205   8.550
 6661POPC   C2B30728  33.642   0.185   8.250
 6661POPC   C3B30729  33.690   0.182   7.950
 6661POPC   C4B30730  33.702   0.198   7.650
 6662POPC   NC330731  36.148  36.857   9.450
 6662POPC   PO430732  36.159  36.906   9.150
 6662POPC   GL130733  36.091  36.914   8.850
 6662POPC   GL230734  36.014  37.028   8.850
 6662POPC   C1A30735  36.124  36.886   8.550
 6662POPC   D2A30736  36.171  36.873   8.250
 6662POPC   C3A30737  36.123  36.894   7.950
 6662POPC   C4A30738  36.141  36.949   7.650
 6662POPC   C1B30739  35.941  37.100   8.550
 6662POPC   C2B30740  35.921  37.091   8.250
 6662POPC   C3B30741  35.980  37.122   7.950
 6662POPC   C4B30742  35.949  37.086   7.650
 6663POPC   NC330743  19.037  26.829   9.450
 6663POPC   PO430744  19.086  26.834   9.150
 6663POPC   GL130745  19.020  26.864   8.850
 6663POPC   GL230746  19.045  26.717   8.850
 6663POPC   C1A30747  19.106  26.866   8.550
 6663POPC   D2A30748  19.057  26.838   8.250
 6663POPC   C3A30749  19.036  26.859   7.950
 6663POPC   C4A30750  19.087  26.843   7.650
 6663POPC   C1B30751  19.134  26.598   8.550
 6663POPC   C2B30752  19.095  26.559   8.250
 6663POPC   C3B30753  19.102  26.584   7.950
 6663POPC   C4B30754  19.144  26.565   7.650
 6664POPC   NC330755  12.095   5.055   9.450
 6664POPC   PO430756  12.100   5.061   9.150
 6664POPC   GL130757  12.063   5.089   8.850
 6664POPC   GL230758  12.212   5.139   8.850
 6664POPC   C1A30759  12.029   5.055   8.550
 6664POPC   D2A30760  12.115   5.095   8.250
 6664POPC   C3A30761  12.027   5.118   7.950
 6664POPC   C4A30762  12.062   5.098   7.650
 6664POPC   C1B30763  12.269   5.177   8.550
 6664POPC   C2B30764  12.303   5.205   8.250
 6664POPC   C3B30765  12.316   5.185   7.950
 6664POPC   C4B30766  12.277   5.176   7.650
 6665POPC   NC330767   3.502   2.801   9.450
 6665POPC   PO430768   3.495   2.777   9.150
 6665POPC   GL130769   3.578   2.795   8.850
 6665POPC   GL230770   3.523   2.663   8.850
 6665POPC   C1A30771   3.555   2.806   8.550
 6665POPC   D2A30772   3.589   2.739   8.250
 6665POPC   C3A30773   3.587   2.744   7.950
 6665POPC   C4A30774   3.533   2.780   7.650
 6665POPC   C1B30775   3.488   2.483   8.550
 6665POPC   C2B30776   3.481   2.533   8.250
 6665POPC   C3B30777   3.478   2.529   7.950
 6665POPC   C4B30778   3.499   2.518   7.650
 6666POPC   NC330779  33.027   2.728   9.450
 6666POPC   PO430780  33.009   2.717   9.150
 6666POPC   GL130781  33.025   2.726   8.850
 6666POPC   GL230782  33.129   2.814   8.850
 6666POPC   C1A30783  33.006   2.773   8.550
 6666POPC   D2A30784  33.056   2.756   8.250
 6666POPC   C3A30785  33.071   2.733   7.950
 6666POPC   C4A30786  33.012   2.733   7.650
 6666POPC   C1B30787  33.202   2.939   8.550
 6666POPC   C2B30788  33.231   2.875   8.250
 6666POPC   C3B30789  33.213   2.876   7.950
 6666POPC   C4B30790  33.264   2.939   7.650
 6667POPC   NC330791  39.199  32.979   9.450
 6667POPC   PO430792  39.201  33.069   9.150
 6667POPC   GL130793  39.185  33.016   8.850
 6667POPC   GL230794  39.297  33.145   8.850
 6667POPC   C1A30795  39.228  33.015   8.550
 6667POPC   D2A30796  39.269  32.997   8.250
 6667POPC   C3A30797  39.257  32.993   7.950
 6667POPC   C4A30798  39.259  33.029   7.650
 6667POPC   C1B30799  39.361  33.247   8.550
 6667POPC   C2B30800  39.311  33.251   8.250
 6667POPC   C3B30801  39.307  33.287   7.950
 6667POPC   C4B30802  39.339  33.255   7.650
 6668POPC   NC330803  25.307  40.035   9.450
 6668POPC   PO430804  25.311  39.986   9.150
 6668POPC   GL130805  25.273  40.014   8.850
 6668POPC   GL230806  25.130  39.953   8.850
 6668POPC   C1A30807  25.302  40.052   8.550
 6668POPC   D2A30808  25.285  39.998   8.250
 6668POPC   C3A30809  25.230  40.008   7.950
 6668POPC   C4A30810  25.242  40.004   7.650
 6668POPC   C1B30811  25.050  39.969   8.550
 6668POPC   C2B30812  25.020  39.911   8.250
 6668POPC   C3B30813  25.059  39.938   7.950
 6668POPC   C4B30814  24.982  39.914   7.650
 6669POPC   NC330815  30.662  18.287   9.450
 6669POPC   PO430816  30.720  18.263   9.150
 6669POPC   GL130817  30.735  18.316   8.850
 6669POPC   GL230818  30.776  18.441   8.850
 6669POPC   C1A30819  30.737  18.268   8.550
 6669POPC   D2A30820  30.677  18.248   8.250
 6669POPC   C3A30821  30.674  18.291   7.950
 6669POPC   C4A30822  30.743  18.324   7.650
 6669POPC   C1B30823  30.810  18.514   8.550
 6669POPC   C2B30824  30.786  18.547   8.250
 6669POPC   C3B30825  30.764  18.552   7.950
 6669POPC   C4B30826  30.777  18.536   7.650
 6670POPC   NC330827  10.559  19.084   9.450
 6670POPC   PO430828  10.563  19.010   9.150
 6670POPC   GL130829  10.539  19.099   8.850
 6670POPC   GL230830  10.646  19.032   8.850
 6670POPC   C1A30831  10.553  19.087   8.550
 6670POPC   D2A30832  10.487  19.061   8.250
 6670POPC   C3A30833  10.503  19.063   7.950
 6670POPC   C4A30834  10.557  19.045   7.650
 6670POPC   C1B30835  10.727  19.013   8.550
 6670POPC   C2B30836  10.792  19.089   8.250
 6670POPC   C3B30837  10.810  19.100   7.950
 6670POPC   C4B30838  10.754  19.088   7.650
 6671POPC   NC330839   5.820   8.173   9.450
 6671POPC   PO430840   5.868   8.204   9.150
 6671POPC   GL130841   5.830   8.147   8.850
 6671POPC   GL230842   5.872   8.029   8.850
 6671POPC   C1A30843   5.867   8.157   8.550
 6671POPC   D2A30844   5.890   8.200   8.250
 6671POPC   C3A30845   5.843   8.176   7.950
 6671POPC   C4A30846   5.837   8.160   7.650
 6671POPC   C1B30847   5.849   7.917   8.550
 6671POPC   C2B30848   5.758   7.960   8.250
 6671POPC   C3B30849   5.812   7.924   7.950
 6671POPC   C4B30850   5.793   7.912   7.650
 6672POPC   NC330851   5.088   6.669   9.450
 6672POPC   PO430852   5.073   6.632   9.150
 6672POPC   GL130853   5.115   6.679   8.850
 6672POPC   GL230854   4.948   6.602   8.850
 6672POPC   C1A30855   5.103   6.685   8.550
 6672POPC   D2A30856   5.119   6.621   8.250
 6672POPC   C3A30857   5.097   6.634   7.950
 6672POPC   C4A30858   5.135   6.685   7.650
 6672POPC   C1B30859   4.842   6.474   8.550
 6672POPC   C2B30860   4.871   6.525   8.250
 6672POPC   C3B30861   4.931   6.491   7.950
 6672POPC   C4B30862   4.901   6.528   7.650
 6673POPC   NC330863  43.090  12.852   9.450
 6673POPC   PO430864  43.159  12.878   9.150
 6673POPC   GL130865  43.147  12.878   8.850
 6673POPC   GL230866  43.213  12.817   8.850
 6673POPC   C1A30867  43.156  12.873   8.550
 6673POPC   D2A30868  43.158  12.862   8.250
 6673POPC   C3A30869  43.125  12.895   7.950
 6673POPC   C4A30870  43.147  12.864   7.650
 6673POPC   C1B30871  43.332  12.721   8.550
 6673POPC   C2B30872  43.323  12.662   8.250
 6673POPC   C3B30873  43.339  12.658   7.950
 6673POPC   C4B30874  43.253  12.673   7.650
 6674POPC   NC330875  42.310  18.262   9.450
 6674POPC   PO430876  42.285  18.328   9.150
 6674POPC   GL130877  42.316  18.250   8.850
 6674POPC   GL230878  42.177  18.192   8.850
 6674POPC   C1A30879  42.381  18.241   8.550
 6674POPC   D2A30880  42.296  18.270   8.250
 6674POPC   C3A30881  42.326  18.239   7.950
 6674POPC   C4A30882  42.366  18.238   7.650
 6674POPC   C1B30883  42.063  18.150   8.550
 6674POPC   C2B30884  42.111  18.177   8.250
 6674POPC   C3B30885  42.091  18.142   7.950
 6674POPC   C4B30886  42.075  18.198   7.650
 6675POPC   NC330887  36.923   9.010   9.450
 6675POPC   PO430888  36.888   8.942   9.150
 6675POPC   GL130889  36.929   8.999   8.850
 6675POPC   GL230890  36.934   9.118   8.850
 6675POPC   C1A30891  36.865   8.968   8.550
 6675POPC   D2A30892  36.862   9.007   8.250
 6675POPC   C3A30893  36.889   8.951   7.950
 6675POPC   C4A30894  36.880   8.941   7.650
 6675POPC   C1B30895  37.077   9.158   8.550
 6675POPC   C2B30896  37.055   9.187   8.250
 6675POPC   C3B30897  37.052   9.191   7.950
 6675POPC   C4B30898  37.011   9.141   7.650
 6676POPC   NC330899  36.881  25.290   9.450
 6676POPC   PO430900  36.856  25.294   9.150
 6676POPC   GL130901  36.911  25.228   8.850
 6676POPC   GL230902  36.998  25.415   8.850
 6676POPC   C1A30903  36.942  25.289   8.550
 6676POPC   D2A30904  36.887  25.225   8.250
 6676POPC   C3A30905  36.933  25.274   7.950
 6676POPC   C4A30906  36.904  25.250   7.650
 6676POPC   C1B30907  37.032  25.474   8.550
 6676POPC   C2B30908  36.998  25.526   8.250
 6676POPC   C3B30909  37.040  25.459   7.950
 6676POPC   C4B30910  36.990  25.519   7.650
 6677POPC   NC330911   0.465  15.154   9.450
 6677POPC   PO430912   0.442  15.138   9.150
 6677POPC   GL130913   0.417  15.212   8.850
 6677POPC   GL230914   0.490  15.267   8.850
 6677POPC   C1A30915   0.481  15.224   8.550
 6677POPC   D2A30916   0.453  15.225   8.250
 6677POPC   C3A30917   0.446  15.185   7.950
 6677POPC   C4A30918   0.486  15.197   7.650
 6677POPC   C1B30919   0.462  15.406   8.550
 6677POPC   C2B30920   0.546  15.382   8.250
 6677POPC   C3B30921   0.535  15.438   7.950
 6677POPC   C4B30922   0.529  15.447   7.650
 6678POPC   NC330923  18.327   7.455   9.450
 6678POPC   PO430924  18.237   7.418   9.150
 6678POPC   GL130925  18.274   7.408   8.850
 6678POPC   GL230926  18.422   7.452   8.850
 6678POPC   C1A30927  18.298   7.389   8.550
 6678POPC   D2A30928  18.235   7.407   8.250
 6678POPC   C3A30929  18.308   7.377   7.950
 6678POPC   C4A30930  18.289   7.437   7.650
 6678POPC   C1B30931  18.517   7.466   8.550
 6678POPC   C2B30932  18.572   7.454   8.250
 6678POPC   C3B30933  18.530   7.419   7.950
 6678POPC   C4B30934  18.526   7.427   7.650
 6679POPC   NC330935  25.250  34.623   9.450
 6679POPC   PO430936  25.275  34.588   9.150
 6679POPC   GL130937  25.244  34.592   8.850
 6679POPC   GL230938  25.166  34.490   8.850
 6679POPC   C1A30939  25.285  34.619   8.550
 6679POPC   D2A30940  25.267  34.567   8.250
 6679POPC   C3A30941  25.241  34.614   7.950
 6679POPC   C4A30942  25.251  34.604   7.650
 6679POPC   C1B30943  25.004  34.436   8.550
 6679POPC   C2B30944  25.071  34.496   8.250
 6679POPC   C3B30945  25.081  34.461   7.950
 6679POPC   C4B30946  24.997  34.507   7.650
 6680POPC   NC330947  13.581  15.987   9.450
 6680POPC   PO430948  13.603  15.907   9.150
 6680POPC   GL130949  13.640  15.957   8.850
 6680POPC   GL230950  13.764  15.968   8.850
 6680POPC   C1A30951  13.636  15.934   8.550
 6680POPC   D2A30952  13.585  15.951   8.250
 6680POPC   C3A30953  13.649  15.918   7.950
 6680POPC   C4A30954  13.663  15.932   7.650
 6680POPC   C1B30955  13.892  15.861   8.550
 6680POPC   C2B30956  13.842  15.891   8.250
 6680POPC   C3B30957  13.826  15.897   7.950
 6680POPC   C4B30958  13.911  15.935   7.650
 6681POPC   NC330959   1.978  36.943   9.450
 6681POPC   PO430960   1.951  36.872   9.150
 6681POPC   GL130961   1.996  36.926   8.850
 6681POPC   GL230962   2.001  36.764   8.850
 6681POPC   C1A30963   1.963  36.883   8.550
 6681POPC   D2A30964   2.009  36.945   8.250
 6681POPC   C3A30965   2.023  36.920   7.950
 6681POPC   C4A30966   2.035  36.951   7.650
 6681POPC   C1B30967   2.143  36.628   8.550
 6681POPC   C2B30968   2.135  36.697   8.250
 6681POPC   C3B30969   2.094  36.705   7.950
 6681POPC   C4B30970   2.103  36.690   7.650
 6682POPC   NC330971  18.284  43.090   9.450
 6682POPC   PO430972  18.245  43.154   9.150
 6682POPC   GL130973  18.278  43.108   8.850
 6682POPC   GL230974  18.401  43.157   8.850
 6682POPC   C1A30975  18.256  43.086   8.550
 6682POPC   D2A30976  18.256  43.139   8.250
 6682POPC   C3A30977  18.316  43.075   7.950
 6682POPC   C4A30978  18.263  43.137   7.650
 6682POPC   C1B30979  18.491  43.246   8.550
 6682POPC   C2B30980  18.427  43.324   8.250
 6682POPC   C3B30981  18.482  43.317   7.950
 6682POPC   C4B30982  18.456  43.295   7.650
 6683POPC   NC330983   6.609   3.495   9.450
 6683POPC   PO430984   6.675   3.551   9.150
 6683POPC   GL130985   6.663   3.577   8.850
 6683POPC   GL230986   6.640   3.421   8.850
 6683POPC   C1A30987   6.657   3.511   8.550
 6683POPC   D2A30988   6.685   3.492   8.250
 6683POPC   C3A30989   6.667   3.497   7.950
 6683POPC   C4A30990   6.664   3.570   7.650
 6683POPC   C1B30991   6.544   3.356   8.550
 6683POPC   C2B30992   6.498   3.264   8.250
 6683POPC   C3B30993   6.574   3.335   7.950
 6683POPC   C4B30994   6.594   3.340   7.650
 6684POPC   NC330995   0.451  12.093   9.450
 6684POPC   PO430996   0.451  12.110   9.150
 6684POPC   GL130997   0.400  12.030   8.850
 6684POPC   GL230998   0.536  12.065   8.850
 6684POPC   C1A30999   0.411  12.074   8.550
 6684POPC   D2A31000   0.417  12.047   8.250
 6684POPC   C3A31001   0.474  12.104   7.950
 6684POPC   C4A31002   0.398  12.055   7.650
 6684POPC   C1B31003   0.650  11.982   8.550
 6684POPC   C2B31004   0.629  12.010   8.250
 6684POPC   C3B31005   0.699  12.019   7.950
 6684POPC   C4B31006   0.692  12.027   7.650
 6685POPC   NC331007  18.269   6.666   9.450
 6685POPC   PO431008  18.268   6.690   9.150
 6685POPC   GL131009  18.237   6.659   8.850
 6685POPC   GL231010  18.232   6.761   8.850
 6685POPC   C1A31011  18.305   6.670   8.550
 6685POPC   D2A31012  18.262   6.663   8.250
 6685POPC   C3A31013  18.233   6.630   7.950
 6685POPC   C4A31014  18.265   6.655   7.650
 6685POPC   C1B31015  18.111   6.838   8.550
 6685POPC   C2B31016  18.088   6.774   8.250
 6685POPC   C3B31017  18.060   6.814   7.950
 6685POPC   C4B31018  18.103   6.817   7.650
 6686POPC   NC331019   5.853   2.801   9.450
 6686POPC   PO431020   5.846   2.747   9.150
 6686POPC   GL131021   5.836   2.744   8.850
 6686POPC   GL231022   5.759   2.796   8.850
 6686POPC   C1A31023   5.873   2.785   8.550
 6686POPC   D2A31024   5.853   2.754   8.250
 6686POPC   C3A31025   5.859   2.744   7.950
 6686POPC   C4A31026   5.885   2.802   7.650
 6686POPC   C1B31027   5.594   2.844   8.550
 6686POPC   C2B31028   5.637   2.912   8.250
 6686POPC   C3B31029   5.650   2.883   7.950
 6686POPC   C4B31030   5.610   2.898   7.650
 6687POPC   NC331031  44.623  30.742   9.450
 6687POPC   PO431032  44.613  30.728   9.150
 6687POPC   GL131033  44.618  30.677   8.850
 6687POPC   GL231034  44.717  30.574   8.850
 6687POPC   C1A31035  44.638  30.660   8.550
 6687POPC   D2A31036  44.697  30.741   8.250
 6687POPC   C3A31037  44.622  30.716   7.950
 6687POPC   C4A31038  44.636  30.735   7.650
 6687POPC   C1B31039  44.708  30.466   8.550
 6687POPC   C2B31040  44.699  30.476   8.250
 6687POPC   C3B31041  44.667  30.449   7.950
 6687POPC   C4B31042  44.693  30.420   7.650
 6688POPC   NC331043  25.258   9.702   9.450
 6688POPC   PO431044  25.298   9.793   9.150
 6688POPC   GL131045  25.223   9.732   8.850
 6688POPC   GL231046  25.194   9.638   8.850
 6688POPC   C1A31047  25.274   9.795   8.550
 6688POPC   D2A31048  25.228   9.729   8.250
 6688POPC   C3A31049  25.278   9.796   7.950
 6688POPC   C4A31050  25.269   9.738   7.650
 6688POPC   C1B31051  25.077   9.600   8.550
 6688POPC   C2B31052  25.117   9.546   8.250
 6688POPC   C3B31053  25.100   9.570   7.950
 6688POPC   C4B31054  25.044   9.558   7.650
 6689POPC   NC331055  22.149  13.613   9.450
 6689POPC   PO431056  22.187  13.659   9.150
 6689POPC   GL131057  22.170  13.609   8.850
 6689POPC   GL231058  22.162  13.761   8.850
 6689POPC   C1A31059  22.147  13.593   8.550
 6689POPC   D2A31060  22.209  13.652   8.250
 6689POPC   C3A31061  22.171  13.629   7.950
 6689POPC   C4A31062  22.129  13.614   7.650
 6689POPC   C1B31063  22.236  13.881   8.550
 6689POPC   C2B31064  22.187  13.906   8.250
 6689POPC   C3B31065  22.180  13.888   7.950
 6689POPC   C4B31066  22.216  13.886   7.650
 6690POPC   NC331067  11.323   5.133   9.450
 6690POPC   PO431068  11.270   5.071   9.150
 6690POPC   GL131069  11.254   5.079   8.850
 6690POPC   GL231070  11.350   5.250   8.850
 6690POPC   C1A31071  11.297   5.133   8.550
 6690POPC   D2A31072  11.323   5.046   8.250
 6690POPC   C3A31073  11.325   5.116   7.950
 6690POPC   C4A31074  11.259   5.048   7.650
 6690POPC   C1B31075  11.354   5.275   8.550
 6690POPC   C2B31076  11.390   5.285   8.250
 6690POPC   C3B31077  11.425   5.348   7.950
 6690POPC   C4B31078  11.376   5.366   7.650
 6691POPC   NC331079   5.104  41.564   9.450
 6691POPC   PO431080   5.046  41.533   9.150
 6691POPC   GL131081   5.052  41.522   8.850
 6691POPC   GL231082   4.932  41.464   8.850
 6691POPC   C1A31083   5.047  41.583   8.550
 6691POPC   D2A31084   5.132  41.595   8.250
 6691POPC   C3A31085   5.136  41.583   7.950
 6691POPC   C4A31086   5.061  41.559   7.650
 6691POPC   C1B31087   4.919  41.424   8.550
 6691POPC   C2B31088   4.857  41.409   8.250
 6691POPC   C3B31089   4.864  41.454   7.950
 6691POPC   C4B31090   4.883  41.476   7.650
 6692POPC   NC331091   3.495  15.180   9.450
 6692POPC   PO431092   3.561  15.156   9.150
 6692POPC   GL131093   3.588  15.211   8.850
 6692POPC   GL231094   3.488  15.320   8.850
 6692POPC   C1A31095   3.522  15.160   8.550
 6692POPC   D2A31096   3.492  15.136   8.250
 6692POPC   C3A31097   3.550  15.145   7.950
 6692POPC   C4A31098   3.527  15.187   7.650
 6692POPC   C1B31099   3.454  15.423   8.550
 6692POPC   C2B31100   3.511  15.394   8.250
 6692POPC   C3B31101   3.510  15.390   7.950
 6692POPC   C4B31102   3.523  15.476   7.650
 6693POPC   NC331103  40.034  19.032   9.450
 6693POPC   PO431104  40.039  19.064   9.150
 6693POPC   GL131105  39.974  19.104   8.850
 6693POPC   GL231106  40.071  18.961   8.850
 6693POPC   C1A31107  39.970  19.048   8.550
 6693POPC   D2A31108  40.016  19.062   8.250
 6693POPC   C3A31109  39.963  19.099   7.950
 6693POPC   C4A31110  40.038  19.023   7.650
 6693POPC   C1B31111  40.142  18.829   8.550
 6693POPC   C2B31112  40.138  18.862   8.250
 6693POPC   C3B31113  40.113  18.806   7.950
 6693POPC   C4B31114  40.114  18.871   7.650
 6694POPC   NC331115  26.839   2.762   9.450
 6694POPC   PO431116  26.836   2.731   9.150
 6694POPC   GL131117  26.846   2.796   8.850
 6694POPC   GL231118  26.850   2.701   8.850
 6694POPC   C1A31119  26.795   2.720   8.550
 6694POPC   D2A31120  26.813   2.782   8.250
 6694POPC   C3A31121  26.833   2.759   7.950
 6694POPC   C4A31122  26.867   2.719   7.650
 6694POPC   C1B31123  26.877   2.511   8.550
 6694POPC   C2B31124  26.919   2.534   8.250
 6694POPC   C3B31125  26.964   2.572   7.950
 6694POPC   C4B31126  26.924   2.575   7.650
 6695POPC   NC331127  22.120  12.034   9.450
 6695POPC   PO431128  22.132  12.125   9.150
 6695POPC   GL131129  22.120  12.101   8.850
 6695POPC   GL231130  22.216  12.194   8.850
 6695POPC   C1A31131  22.171  12.095   8.550
 6695POPC   D2A31132  22.192  12.115   8.250
 6695POPC   C3A31133  22.165  12.039   7.950
 6695POPC   C4A31134  22.203  12.088   7.650
 6695POPC   C1B31135  22.268  12.300   8.550
 6695POPC   C2B31136  22.261  12.294   8.250
 6695POPC   C3B31137  22.268  12.290   7.950
 6695POPC   C4B31138  22.236  12.347   7.650
 6696POPC   NC331139  21.399  19.037   9.450
 6696POPC   PO431140  21.418  19.015   9.150
 6696POPC   GL131141  21.387  19.030   8.850
 6696POPC   GL231142  21.279  19.203   8.850
 6696POPC   C1A31143  21.419  19.074   8.550
 6696POPC   D2A31144  21.343  19.012   8.250
 6696POPC   C3A31145  21.346  19.108   7.950
 6696POPC   C4A31146  21.423  19.017   7.650
 6696POPC   C1B31147  21.213  19.273   8.550
 6696POPC   C2B31148  21.272  19.291   8.250
 6696POPC   C3B31149  21.234  19.298   7.950
 6696POPC   C4B31150  21.204  19.293   7.650
 6697POPC   NC331151  36.153   9.699   9.450
 6697POPC   PO431152  36.110   9.780   9.150
 6697POPC   GL131153  36.146   9.713   8.850
 6697POPC   GL231154  36.061   9.660   8.850
 6697POPC   C1A31155  36.161   9.702   8.550
 6697POPC   D2A31156  36.119   9.715   8.250
 6697POPC   C3A31157  36.130   9.753   7.950
 6697POPC   C4A31158  36.147   9.707   7.650
 6697POPC   C1B31159  36.065   9.526   8.550
 6697POPC   C2B31160  36.026   9.545   8.250
 6697POPC   C3B31161  36.016   9.525   7.950
 6697POPC   C4B31162  36.062   9.552   7.650
 6698POPC   NC331163  42.329  32.982   9.450
 6698POPC   PO431164  42.380  33.005   9.150
 6698POPC   GL131165  42.345  33.072   8.850
 6698POPC   GL231166  42.206  33.141   8.850
 6698POPC   C1A31167  42.324  33.056   8.550
 6698POPC   D2A31168  42.310  33.023   8.250
 6698POPC   C3A31169  42.314  33.011   7.950
 6698POPC   C4A31170  42.341  33.059   7.650
 6698POPC   C1B31171  42.172  33.206   8.550
 6698POPC   C2B31172  42.117  33.189   8.250
 6698POPC   C3B31173  42.112  33.157   7.950
 6698POPC   C4B31174  42.131  33.245   7.650
 6699POPC   NC331175  44.702   9.782   9.450
 6699POPC   PO431176  44.638   9.726   9.150
 6699POPC   GL131177  44.685   9.753   8.850
 6699POPC   GL231178  44.500   9.796   8.850
 6699POPC   C1A31179  44.677   9.699   8.550
 6699POPC   D2A31180  44.695   9.703   8.250
 6699POPC   C3A31181  44.613   9.780   7.950
 6699POPC   C4A31182  44.693   9.754   7.650
 6699POPC   C1B31183  44.423   9.788   8.550
 6699POPC   C2B31184  44.417   9.843   8.250
 6699POPC   C3B31185  44.417   9.850   7.950
 6699POPC   C4B31186  44.437   9.851   7.650
 6700POPC   NC331187  14.431  37.718   9.450
 6700POPC   PO431188  14.384  37.655   9.150
 6700POPC   GL131189  14.438  37.667   8.850
 6700POPC   GL231190  14.437  37.763   8.850
 6700POPC   C1A31191  14.378  37.656   8.550
 6700POPC   D2A31192  14.391  37.729   8.250
 6700POPC   C3A31193  14.411  37.638   7.950
 6700POPC   C4A31194  14.433  37.659   7.650
 6700POPC   C1B31195  14.450  37.901   8.550
 6700POPC   C2B31196  14.523  37.888   8.250
 6700POPC   C3B31197  14.458  37.902   7.950
 6700POPC   C4B31198  14.543  37.895   7.650
 6701POPC   NC331199  38.413   2.023   9.450
 6701POPC   PO431200  38.412   1.956   9.150
 6701POPC   GL131201  38.427   2.011   8.850
 6701POPC   GL231202  38.341   2.038   8.850
 6701POPC   C1A31203  38.437   1.980   8.550
 6701POPC   D2A31204  38.436   1.943   8.250
 6701POPC   C3A31205  38.484   2.032   7.950
 6701POPC   C4A31206  38.489   1.969   7.650
 6701POPC   C1B31207  38.227   2.096   8.550
 6701POPC   C2B31208  38.220   2.112   8.250
 6701POPC   C3B31209  38.243   2.088   7.950
 6701POPC   C4B31210  38.216   2.056   7.650
 6702POPC   NC331211  44.663   9.007   9.450
 6702POPC   PO431212  44.623   8.962   9.150
 6702POPC   GL131213  44.652   9.007   8.850
 6702POPC   GL231214  44.562   8.962   8.850
 6702POPC   C1A31215  44.701   8.935   8.550
 6702POPC   D2A31216  44.702   8.928   8.250
 6702POPC   C3A31217  44.615   8.953   7.950
 6702POPC   C4A31218  44.659   9.012   7.650
 6702POPC   C1B31219  44.439   8.888   8.550
 6702POPC   C2B31220  44.443   8.887   8.250
 6702POPC   C3B31221  44.452   8.943   7.950
 6702POPC   C4B31222  44.411   8.922   7.650
 6703POPC   NC331223  38.444  35.366   9.450
 6703POPC   PO431224  38.406  35.340   9.150
 6703POPC   GL131225  38.476  35.340   8.850
 6703POPC   GL231226  38.341  35.472   8.850
 6703POPC   C1A31227  38.478  35.389   8.550
 6703POPC   D2A31228  38.411  35.349   8.250
 6703POPC   C3A31229  38.480  35.351   7.950
 6703POPC   C4A31230  38.500  35.395   7.650
 6703POPC   C1B31231  38.343  35.579   8.550
 6703POPC   C2B31232  38.284  35.603   8.250
 6703POPC   C3B31233  38.293  35.574   7.950
 6703POPC   C4B31234  38.360  35.608   7.650
 6704POPC   NC331235  21.395  16.699   9.450
 6704POPC   PO431236  21.356  16.763   9.150
 6704POPC   GL131237  21.418  16.764   8.850
 6704POPC   GL231238  21.276  16.759   8.850
 6704POPC   C1A31239  21.344  16.737   8.550
 6704POPC   D2A31240  21.374  16.696   8.250
 6704POPC   C3A31241  21.366  16.742   7.950
 6704POPC   C4A31242  21.373  16.721   7.650
 6704POPC   C1B31243  21.194  16.859   8.550
 6704POPC   C2B31244  21.206  16.857   8.250
 6704POPC   C3B31245  21.197  16.831   7.950
 6704POPC   C4B31246  21.208  16.864   7.650
 6705POPC   NC331247  39.224  36.910   9.450
 6705POPC   PO431248  39.238  36.930   9.150
 6705POPC   GL131249  39.217  36.896   8.850
 6705POPC   GL231250  39.129  36.902   8.850
 6705POPC   C1A31251  39.228  36.900   8.550
 6705POPC   D2A31252  39.261  36.882   8.250
 6705POPC   C3A31253  39.273  36.866   7.950
 6705POPC   C4A31254  39.189  36.881   7.650
 6705POPC   C1B31255  39.006  36.887   8.550
 6705POPC   C2B31256  39.014  36.810   8.250
 6705POPC   C3B31257  39.014  36.805   7.950
 6705POPC   C4B31258  39.010  36.831   7.650
 6706POPC   NC331259  26.831   8.987   9.450
 6706POPC   PO431260  26.783   8.969   9.150
 6706POPC   GL131261  26.812   8.983   8.850
 6706POPC   GL231262  26.917   8.915   8.850
 6706POPC   C1A31263  26.772   9.020   8.550
 6706POPC   D2A31264  26.837   8.943   8.250
 6706POPC   C3A31265  26.806   8.971   7.950
 6706POPC   C4A31266  26.773   8.966   7.650
 6706POPC   C1B31267  26.999   8.855   8.550
 6706POPC   C2B31268  27.045   8.871   8.250
 6706POPC   C3B31269  27.027   8.880   7.950
 6706POPC   C4B31270  27.032   8.865   7.650
 6707POPC   NC331271  26.788  19.805   9.450
 6707POPC   PO431272  26.772  19.814   9.150
 6707POPC   GL131273  26.826  19.884   8.850
 6707POPC   GL231274  26.846  19.756   8.850
 6707POPC   C1A31275  26.831  19.826   8.550
 6707POPC   D2A31276  26.778  19.801   8.250
 6707POPC   C3A31277  26.828  19.852   7.950
 6707POPC   C4A31278  26.777  19.812   7.650
 6707POPC   C1B31279  26.876  19.582   8.550
 6707POPC   C2B31280  26.915  19.561   8.250
 6707POPC   C3B31281  26.919  19.602   7.950
 6707POPC   C4B31282  26.845  19.561   7.650
 6708POPC   NC331283   7.398   5.826   9.450
 6708POPC   PO431284   7.456   5.881   9.150
 6708POPC   GL131285   7.408   5.835   8.850
 6708POPC   GL231286   7.535   5.821   8.850
 6708POPC   C1A31287   7.389   5.892   8.550
 6708POPC   D2A31288   7.459   5.908   8.250
 6708POPC   C3A31289   7.406   5.871   7.950
 6708POPC   C4A31290   7.458   5.850   7.650
 6708POPC   C1B31291   7.646   5.803   8.550
 6708POPC   C2B31292   7.662   5.773   8.250
 6708POPC   C3B31293   7.616   5.809   7.950
 6708POPC   C4B31294   7.668   5.818   7.650
 6709POPC   NC331295  15.976  42.285   9.450
 6709POPC   PO431296  15.906  42.329   9.150
 6709POPC   GL131297  15.993  42.379   8.850
 6709POPC   GL231298  15.920  42.475   8.850
 6709POPC   C1A31299  15.944  42.296   8.550
 6709POPC   D2A31300  15.949  42.312   8.250
 6709POPC   C3A31301  15.998  42.322   7.950
 6709POPC   C4A31302  15.986  42.318   7.650
 6709POPC   C1B31303  15.897  42.547   8.550
 6709POPC   C2B31304  15.923  42.628   8.250
 6709POPC   C3B31305  15.929  42.594   7.950
 6709POPC   C4B31306  15.945  42.620   7.650
 6710POPC   NC331307  17.461   3.511   9.450
 6710POPC   PO431308  17.542   3.560   9.150
 6710POPC   GL131309  17.481   3.538   8.850
 6710POPC   GL231310  17.596   3.489   8.850
 6710POPC   C1A31311  17.487   3.524   8.550
 6710POPC   D2A31312  17.478   3.548   8.250
 6710POPC   C3A31313  17.470   3.554   7.950
 6710POPC   C4A31314  17.514   3.540   7.650
 6710POPC   C1B31315  17.709   3.356   8.550
 6710POPC   C2B31316  17.720   3.398   8.250
 6710POPC   C3B31317  17.664   3.347   7.950
 6710POPC   C4B31318  17.657   3.359   7.650
 6711POPC   NC331319  39.994   5.067   9.450
 6711POPC   PO431320  39.979   5.093   9.150
 6711POPC   GL131321  40.016   5.054   8.850
 6711POPC   GL231322  40.038   4.994   8.850
 6711POPC   C1A31323  40.027   5.129   8.550
 6711POPC   D2A31324  40.040   5.055   8.250
 6711POPC   C3A31325  39.963   5.131   7.950
 6711POPC   C4A31326  39.981   5.125   7.650
 6711POPC   C1B31327  40.076   4.816   8.550
 6711POPC   C2B31328  40.083   4.842   8.250
 6711POPC   C3B31329  40.113   4.845   7.950
 6711POPC   C4B31330  40.138   4.867   7.650
 6712POPC   NC331331  19.067  26.044   9.450
 6712POPC   PO431332  19.032  26.082   9.150
 6712POPC   GL131333  19.048  26.068   8.850
 6712POPC   GL231334  19.183  26.074   8.850
 6712POPC   C1A31335  19.053  26.071   8.550
 6712POPC   D2A31336  19.080  26.074   8.250
 6712POPC   C3A31337  19.084  26.075   7.950
 6712POPC   C4A31338  19.079  26.068   7.650
 6712POPC   C1B31339  19.336  26.099   8.550
 6712POPC   C2B31340  19.316  26.059   8.250
 6712POPC   C3B31341  19.288  26.022   7.950
 6712POPC   C4B31342  19.303  26.066   7.650
 6713POPC   NC331343  18.306  36.874   9.450
 6713POPC   PO431344  18.242  36.871   9.150
 6713POPC   GL131345  18.303  36.904   8.850
 6713POPC   GL231346  18.423  36.966   8.850
 6713POPC   C1A31347  18.240  36.943   8.550
 6713POPC   D2A31348  18.265  36.937   8.250
 6713POPC   C3A31349  18.282  36.950   7.950
 6713POPC   C4A31350  18.332  36.865   7.650
 6713POPC   C1B31351  18.470  37.010   8.550
 6713POPC   C2B31352  18.446  37.017   8.250
 6713POPC   C3B31353  18.452  37.007   7.950
 6713POPC   C4B31354  18.451  37.057   7.650
 6714POPC   NC331355  19.787  26.832   9.450
 6714POPC   PO431356  19.839  26.782   9.150
 6714POPC   GL131357  19.813  26.863   8.850
 6714POPC   GL231358  19.732  26.847   8.850
 6714POPC   C1A31359  19.829  26.812   8.550
 6714POPC   D2A31360  19.849  26.846   8.250
 6714POPC   C3A31361  19.793  26.860   7.950
 6714POPC   C4A31362  19.879  26.785   7.650
 6714POPC   C1B31363  19.625  26.884   8.550
 6714POPC   C2B31364  19.579  26.837   8.250
 6714POPC   C3B31365  19.599  26.830   7.950
 6714POPC   C4B31366  19.554  26.836   7.650
 6715POPC   NC331367   9.743   5.075   9.450
 6715POPC   PO431368   9.738   5.117   9.150
 6715POPC   GL131369   9.715   5.091   8.850
 6715POPC   GL231370   9.678   5.002   8.850
 6715POPC   C1A31371   9.763   5.086   8.550
 6715POPC   D2A31372   9.732   5.104   8.250
 6715POPC   C3A31373   9.715   5.051   7.950
 6715POPC   C4A31374   9.797   5.065   7.650
 6715POPC   C1B31375   9.629   4.868   8.550
 6715POPC   C2B31376   9.591   4.888   8.250
 6715POPC   C3B31377   9.549   4.850   7.950
 6715POPC   C4B31378   9.622   4.930   7.650
 6716POPC   NC331379  13.597  19.874   9.450
 6716POPC   PO431380  13.603  19.847   9.150
 6716POPC   GL131381  13.587  19.862   8.850
 6716POPC   GL231382  13.754  19.821   8.850
 6716POPC   C1A31383  13.624  19.882   8.550
 6716POPC   D2A31384  13.651  19.833   8.250
 6716POPC   C3A31385  13.645  19.785   7.950
 6716POPC   C4A31386  13.621  19.796   7.650
 6716POPC   C1B31387  13.846  19.894   8.550
 6716POPC   C2B31388  13.824  19.906   8.250
 6716POPC   C3B31389  13.892  19.889   7.950
 6716POPC   C4B31390  13.838  19.913   7.650
 6717POPC   NC331391  44.703  17.459   9.450
 6717POPC   PO431392  44.667  17.476   9.150
 6717POPC   GL131393  44.643  17.469   8.850
 6717POPC   GL231394  44.559  17.404   8.850
 6717POPC   C1A31395  44.613  17.492   8.550
 6717POPC   D2A31396  44.618  17.531   8.250
 6717POPC   C3A31397  44.688  17.523   7.950
 6717POPC   C4A31398  44.670  17.523   7.650
 6717POPC   C1B31399  44.424  17.347   8.550
 6717POPC   C2B31400  44.455  17.367   8.250
 6717POPC   C3B31401  44.445  17.338   7.950
 6717POPC   C4B31402  44.431  17.346   7.650
 6718POPC   NC331403  35.396  41.563   9.450
 6718POPC   PO431404  35.343  41.560   9.150
 6718POPC   GL131405  35.349  41.532   8.850
 6718POPC   GL231406  35.514  41.564   8.850
 6718POPC   C1A31407  35.358  41.523   8.550
 6718POPC   D2A31408  35.330  41.537   8.250
 6718POPC   C3A31409  35.371  41.587   7.950
 6718POPC   C4A31410  35.384  41.512   7.650
 6718POPC   C1B31411  35.564  41.604   8.550
 6718POPC   C2B31412  35.589  41.634   8.250
 6718POPC   C3B31413  35.640  41.576   7.950
 6718POPC   C4B31414  35.641  41.647   7.650
 6719POPC   NC331415  10.540  39.220   9.450
 6719POPC   PO431416  10.549  39.226   9.150
 6719POPC   GL131417  10.554  39.271   8.850
 6719POPC   GL231418  10.611  39.140   8.850
 6719POPC   C1A31419  10.546  39.253   8.550
 6719POPC   D2A31420  10.515  39.195   8.250
 6719POPC   C3A31421  10.538  39.263   7.950
 6719POPC   C4A31422  10.563  39.254   7.650
 6719POPC   C1B31423  10.668  39.015   8.550
 6719POPC   C2B31424  10.633  39.067   8.250
 6719POPC   C3B31425  10.709  39.073   7.950
 6719POPC   C4B31426  10.677  39.053   7.650
 6720POPC   NC331427  25.250  32.253   9.450
 6720POPC   PO431428  25.283  32.242   9.150
 6720POPC   GL131429  25.282  32.268   8.850
 6720POPC   GL231430  25.154  32.200   8.850
 6720POPC   C1A31431  25.220  32.261   8.550
 6720POPC   D2A31432  25.262  32.242   8.250
 6720POPC   C3A31433  25.220  32.261   7.950
 6720POPC   C4A31434  25.270  32.296   7.650
 6720POPC   C1B31435  25.072  32.127   8.550
 6720POPC   C2B31436  25.064  32.061   8.250
 6720POPC   C3B31437  25.080  32.118   7.950
 6720POPC   C4B31438  25.119  32.078   7.650
 6721POPC   NC331439  15.974  36.123   9.450
 6721POPC   PO431440  15.914  36.150   9.150
 6721POPC   GL131441  15.917  36.102   8.850
 6721POPC   GL231442  16.086  36.049   8.850
 6721POPC   C1A31443  15.949  36.125   8.550
 6721POPC   D2A31444  15.980  36.146   8.250
 6721POPC   C3A31445  15.996  36.087   7.950
 6721POPC   C4A31446  15.961  36.080   7.650
 6721POPC   C1B31447  16.115  35.975   8.550
 6721POPC   C2B31448  16.154  35.989   8.250
 6721POPC   C3B31449  16.133  35.961   7.950
 6721POPC   C4B31450  16.103  35.989   7.650
 6722POPC   NC331451  31.432  10.478   9.450
 6722POPC   PO431452  31.506  10.527   9.150
 6722POPC   GL131453  31.514  10.486   8.850
 6722POPC   GL231454  31.538  10.434   8.850
 6722POPC   C1A31455  31.483  10.536   8.550
 6722POPC   D2A31456  31.437  10.498   8.250
 6722POPC   C3A31457  31.425  10.486   7.950
 6722POPC   C4A31458  31.503  10.524   7.650
 6722POPC   C1B31459  31.537  10.254   8.550
 6722POPC   C2B31460  31.595  10.329   8.250
 6722POPC   C3B31461  31.612  10.310   7.950
 6722POPC   C4B31462  31.566  10.244   7.650
 6723POPC   NC331463   2.009  35.308   9.450
 6723POPC   PO431464   1.953  35.312   9.150
 6723POPC   GL131465   2.024  35.386   8.850
 6723POPC   GL231466   2.044  35.231   8.850
 6723POPC   C1A31467   2.018  35.388   8.550
 6723POPC   D2A31468   2.029  35.357   8.250
 6723POPC   C3A31469   2.028  35.351   7.950
 6723POPC   C4A31470   1.945  35.359   7.650
 6723POPC   C1B31471   2.177  35.181   8.550
 6723POPC   C2B31472   2.168  35.164   8.250
 6723POPC   C3B31473   2.158  35.219   7.950
 6723POPC   C4B31474   2.119  35.155   7.650
 6724POPC   NC331475  36.935  43.854   9.450
 6724POPC   PO431476  36.856  43.847   9.150
 6724POPC   GL131477  36.875  43.935   8.850
 6724POPC   GL231478  36.810  43.952   8.850
 6724POPC   C1A31479  36.941  43.891   8.550
 6724POPC   D2A31480  36.880  43.842   8.250
 6724POPC   C3A31481  36.942  43.899   7.950
 6724POPC   C4A31482  36.924  43.879   7.650
 6724POPC   C1B31483  36.818  44.066   8.550
 6724POPC   C2B31484  36.774  44.137   8.250
 6724POPC   C3B31485  36.767  44.098   7.950
 6724POPC   C4B31486  36.773  44.075   7.650
 6725POPC   NC331487  12.877  27.582   9.450
 6725POPC   PO431488  12.891  27.586   9.150
 6725POPC   GL131489  12.865  27.600   8.850
 6725POPC   GL231490  12.871  27.463   8.850
 6725POPC   C1A31491  12.849  27.633   8.550
 6725POPC   D2A31492  12.871  27.594   8.250
 6725POPC   C3A31493  12.875  27.557   7.950
 6725POPC   C4A31494  12.855  27.555   7.650
 6725POPC   C1B31495  12.843  27.311   8.550
 6725POPC   C2B31496  12.838  27.334   8.250
 6725POPC   C3B31497  12.835  27.365   7.950
 6725POPC   C4B31498  12.833  27.321   7.650
 6726POPC   NC331499  14.374  31.456   9.450
 6726POPC   PO431500  14.434  31.518   9.150
 6726POPC   GL131501  14.381  31.500   8.850
 6726POPC   GL231502  14.312  31.349   8.850
 6726POPC   C1A31503  14.388  31.438   8.550
 6726POPC   D2A31504  14.407  31.509   8.250
 6726POPC   C3A31505  14.355  31.462   7.950
 6726POPC   C4A31506  14.373  31.518   7.650
 6726POPC   C1B31507  14.265  31.267   8.550
 6726POPC   C2B31508  14.206  31.280   8.250
 6726POPC   C3B31509  14.194  31.270   7.950
 6726POPC   C4B31510  14.254  31.293   7.650
 6727POPC   NC331511  32.249   6.627   9.450
 6727POPC   PO431512  32.207   6.691   9.150
 6727POPC   GL131513  32.233   6.596   8.850
 6727POPC   GL231514  32.223   6.509   8.850
 6727POPC   C1A31515  32.231   6.648   8.550
 6727POPC   D2A31516  32.202   6.608   8.250
 6727POPC   C3A31517  32.251   6.672   7.950
 6727POPC   C4A31518  32.233   6.682   7.650
 6727POPC   C1B31519  32.130   6.413   8.550
 6727POPC   C2B31520  32.184   6.454   8.250
 6727POPC   C3B31521  32.177   6.410   7.950
 6727POPC   C4B31522  32.165   6.389   7.650
 6728POPC   NC331523  36.138  21.422   9.450
 6728POPC   PO431524  36.164  21.422   9.150
 6728POPC   GL131525  36.100  21.390   8.850
 6728POPC   GL231526  36.172  21.315   8.850
 6728POPC   C1A31527  36.152  21.371   8.550
 6728POPC   D2A31528  36.148  21.373   8.250
 6728POPC   C3A31529  36.120  21.433   7.950
 6728POPC   C4A31530  36.112  21.353   7.650
 6728POPC   C1B31531  36.207  21.189   8.550
 6728POPC   C2B31532  36.179  21.107   8.250
 6728POPC   C3B31533  36.169  21.106   7.950
 6728POPC   C4B31534  36.223  21.162   7.650
 6729POPC   NC331535  35.372   8.928   9.450
 6729POPC   PO431536  35.353   8.964   9.150
 6729POPC   GL131537  35.398   8.963   8.850
 6729POPC   GL231538  35.233   9.099   8.850
 6729POPC   C1A31539  35.375   9.012   8.550
 6729POPC   D2A31540  35.381   9.001   8.250
 6729POPC   C3A31541  35.398   8.998   7.950
 6729POPC   C4A31542  35.388   9.021   7.650
 6729POPC   C1B31543  35.122   9.090   8.550
 6729POPC   C2B31544  35.172   9.140   8.250
 6729POPC   C3B31545  35.122   9.166   7.950
 6729POPC   C4B31546  35.166   9.138   7.650
 6730POPC   NC331547  21.341  22.976   9.450
 6730POPC   PO431548  21.350  22.964   9.150
 6730POPC   GL131549  21.400  22.916   8.850
 6730POPC   GL231550  21.289  23.037   8.850
 6730POPC   C1A31551  21.388  22.984   8.550
 6730POPC   D2A31552  21.377  22.932   8.250
 6730POPC   C3A31553  21.410  22.959   7.950
 6730POPC   C4A31554  21.393  22.966   7.650
 6730POPC   C1B31555  21.188  23.085   8.550
 6730POPC   C2B31556  21.178  23.070   8.250
 6730POPC   C3B31557  21.218  23.110   7.950
 6730POPC   C4B31558  21.134  23.033   7.650
 6731POPC   NC331559  28.414  41.530   9.450
 6731POPC   PO431560  28.346  41.594   9.150
 6731POPC   GL131561  28.411  41.529   8.850
 6731POPC   GL231562  28.348  41.641   8.850
 6731POPC   C1A31563  28.341  41.591   8.550
 6731POPC   D2A31564  28.413  41.534   8.250
 6731POPC   C3A31565  28.344  41.593   7.950
 6731POPC   C4A31566  28.395  41.575   7.650
 6731POPC   C1B31567  28.236  41.742   8.550
 6731POPC   C2B31568  28.215  41.808   8.250
 6731POPC   C3B31569  28.207  41.826   7.950
 6731POPC   C4B31570  28.223  41.751   7.650
 6732POPC   NC331571  11.347  21.369   9.450
 6732POPC   PO431572  11.339  21.415   9.150
 6732POPC   GL131573  11.291  21.407   8.850
 6732POPC   GL231574  11.298  21.555   8.850
 6732POPC   C1A31575  11.298  21.374   8.550
 6732POPC   D2A31576  11.271  21.434   8.250
 6732POPC   C3A31577  11.276  21.419   7.950
 6732POPC   C4A31578  11.325  21.412   7.650
 6732POPC   C1B31579  11.262  21.640   8.550
 6732POPC   C2B31580  11.220  21.613   8.250
 6732POPC   C3B31581  11.256  21.671   7.950
 6732POPC   C4B31582  11.254  21.597   7.650
 6733POPC   NC331583  19.093  40.044   9.450
 6733POPC   PO431584  19.087  40.039   9.150
 6733POPC   GL131585  19.082  39.965   8.850
 6733POPC   GL231586  18.931  40.088   8.850
 6733POPC   C1A31587  19.029  39.961   8.550
 6733POPC   D2A31588  19.072  39.975   8.250
 6733POPC   C3A31589  19.071  40.019   7.950
 6733POPC   C4A31590  19.020  40.008   7.650
 6733POPC   C1B31591  18.878  40.199   8.550
 6733POPC   C2B31592  18.908  40.127   8.250
 6733POPC   C3B31593  18.825  40.141   7.950
 6733POPC   C4B31594  18.912  40.224   7.650
 6734POPC   NC331595   1.181  10.541   9.450
 6734POPC   PO431596   1.190  10.525   9.150
 6734POPC   GL131597   1.247  10.493   8.850
 6734POPC   GL231598   1.097  10.575   8.850
 6734POPC   C1A31599   1.214  10.564   8.550
 6734POPC   D2A31600   1.230  10.537   8.250
 6734POPC   C3A31601   1.199  10.550   7.950
 6734POPC   C4A31602   1.229  10.509   7.650
 6734POPC   C1B31603   1.033  10.713   8.550
 6734POPC   C2B31604   1.040  10.690   8.250
 6734POPC   C3B31605   1.076  10.719   7.950
 6734POPC   C4B31606   1.027  10.693   7.650
 6735POPC   NC331607  43.848   5.072   9.450
 6735POPC   PO431608  43.931   5.140   9.150
 6735POPC   GL131609  43.851   5.108   8.850
 6735POPC   GL231610  43.923   5.224   8.850
 6735POPC   C1A31611  43.878   5.118   8.550
 6735POPC   D2A31612  43.930   5.098   8.250
 6735POPC   C3A31613  43.836   5.051   7.950
 6735POPC   C4A31614  43.839   5.061   7.650
 6735POPC   C1B31615  43.941   5.357   8.550
 6735POPC   C2B31616  43.946   5.366   8.250
 6735POPC   C3B31617  43.930   5.310   7.950
 6735POPC   C4B31618  43.872   5.368   7.650
 6736POPC   NC331619  22.116  22.947   9.450
 6736POPC   PO431620  22.150  22.915   9.150
 6736POPC   GL131621  22.161  22.907   8.850
 6736POPC   GL231622  22.009  23.035   8.850
 6736POPC   C1A31623  22.144  22.981   8.550
 6736POPC   D2A31624  22.202  22.982   8.250
 6736POPC   C3A31625  22.139  22.906   7.950
 6736POPC   C4A31626  22.165  22.952   7.650
 6736POPC   C1B31627  21.966  23.054   8.550
 6736POPC   C2B31628  21.927  23.000   8.250
 6736POPC   C3B31629  21.965  23.092   7.950
 6736POPC   C4B31630  21.946  23.030   7.650
 6737POPC   NC331631  24.441  22.188   9.450
 6737POPC   PO431632  24.519  22.205   9.150
 6737POPC   GL131633  24.512  22.119   8.850
 6737POPC   GL231634  24.504  22.294   8.850
 6737POPC   C1A31635  24.516  22.182   8.550
 6737POPC   D2A31636  24.533  22.133   8.250
 6737POPC   C3A31637  24.508  22.171   7.950
 6737POPC   C4A31638  24.452  22.186   7.650
 6737POPC   C1B31639  24.473  22.377   8.550
 6737POPC   C2B31640  24.481  22.398   8.250
 6737POPC   C3B31641  24.422  22.421   7.950
 6737POPC   C4B31642  24.455  22.384   7.650
 6738POPC   NC331643  26.061  18.309   9.450
 6738POPC   PO431644  26.027  18.329   9.150
 6738POPC   GL131645  25.999  18.305   8.850
 6738POPC   GL231646  26.137  18.279   8.850
 6738POPC   C1A31647  26.083  18.252   8.550
 6738POPC   D2A31648  26.021  18.310   8.250
 6738POPC   C3A31649  25.999  18.266   7.950
 6738POPC   C4A31650  26.032  18.260   7.650
 6738POPC   C1B31651  26.267  18.192   8.550
 6738POPC   C2B31652  26.291  18.248   8.250
 6738POPC   C3B31653  26.320  18.223   7.950
 6738POPC   C4B31654  26.276  18.213   7.650
 6739POPC   NC331655  29.872   6.679   9.450
 6739POPC   PO431656  29.875   6.631   9.150
 6739POPC   GL131657  29.933   6.664   8.850
 6739POPC   GL231658  29.810   6.612   8.850
 6739POPC   C1A31659  29.964   6.666   8.550
 6739POPC   D2A31660  29.938   6.692   8.250
 6739POPC   C3A31661  29.880   6.680   7.950
 6739POPC   C4A31662  29.969   6.642   7.650
 6739POPC   C1B31663  29.644   6.699   8.550
 6739POPC   C2B31664  29.667   6.690   8.250
 6739POPC   C3B31665  29.672   6.707   7.950
 6739POPC   C4B31666  29.712   6.632   7.650
 6740POPC   NC331667  39.266  38.485   9.450
 6740POPC   PO431668  39.281  38.432   9.150
 6740POPC   GL131669  39.271  38.473   8.850
 6740POPC   GL231670  39.060  38.437   8.850
 6740POPC   C1A31671  39.230  38.460   8.550
 6740POPC   D2A31672  39.198  38.418   8.250
 6740POPC   C3A31673  39.183  38.490   7.950
 6740POPC   C4A31674  39.264  38.457   7.650
 6740POPC   C1B31675  38.961  38.414   8.550
 6740POPC   C2B31676  39.011  38.425   8.250
 6740POPC   C3B31677  38.984  38.445   7.950
 6740POPC   C4B31678  38.974  38.404   7.650
 6741POPC   NC331679  36.861  29.161   9.450
 6741POPC   PO431680  36.950  29.105   9.150
 6741POPC   GL131681  36.924  29.191   8.850
 6741POPC   GL231682  36.822  29.157   8.850
 6741POPC   C1A31683  36.934  29.191   8.550
 6741POPC   D2A31684  36.917  29.145   8.250
 6741POPC   C3A31685  36.929  29.171   7.950
 6741POPC   C4A31686  36.919  29.146   7.650
 6741POPC   C1B31687  36.630  29.212   8.550
 6741POPC   C2B31688  36.605  29.200   8.250
 6741POPC   C3B31689  36.669  29.136   7.950
 6741POPC   C4B31690  36.672  29.171   7.650
 6742POPC   NC331691   7.442  24.449   9.450
 6742POPC   PO431692   7.402  24.454   9.150
 6742POPC   GL131693   7.442  24.440   8.850
 6742POPC   GL231694   7.487  24.564   8.850
 6742POPC   C1A31695   7.415  24.517   8.550
 6742POPC   D2A31696   7.380  24.514   8.250
 6742POPC   C3A31697   7.407  24.486   7.950
 6742POPC   C4A31698   7.409  24.509   7.650
 6742POPC   C1B31699   7.508  24.718   8.550
 6742POPC   C2B31700   7.495  24.682   8.250
 6742POPC   C3B31701   7.527  24.675   7.950
 6742POPC   C4B31702   7.482  24.734   7.650
 6743POPC   NC331703   5.116  44.647   9.450
 6743POPC   PO431704   5.111  44.705   9.150
 6743POPC   GL131705   5.052  44.708   8.850
 6743POPC   GL231706   5.207  44.561   8.850
 6743POPC   C1A31707   5.121  44.636   8.550
 6743POPC   D2A31708   5.124  44.630   8.250
 6743POPC   C3A31709   5.091  44.633   7.950
 6743POPC   C4A31710   5.107  44.693   7.650
 6743POPC   C1B31711   5.317  44.551   8.550
 6743POPC   C2B31712   5.294  44.517   8.250
 6743POPC   C3B31713   5.335  44.551   7.950
 6743POPC   C4B31714   5.303  44.506   7.650
 6744POPC   NC331715  40.050  24.522   9.450
 6744POPC   PO431716  39.981  24.469   9.150
 6744POPC   GL131717  40.026  24.440   8.850
 6744POPC   GL231718  39.925  24.446   8.850
 6744POPC   C1A31719  40.007  24.522   8.550
 6744POPC   D2A31720  39.982  24.524   8.250
 6744POPC   C3A31721  40.004  24.470   7.950
 6744POPC   C4A31722  40.034  24.503   7.650
 6744POPC   C1B31723  39.877  24.291   8.550
 6744POPC   C2B31724  39.866  24.308   8.250
 6744POPC   C3B31725  39.877  24.338   7.950
 6744POPC   C4B31726  39.870  24.320   7.650
 6745POPC   NC331727  26.004  24.472   9.450
 6745POPC   PO431728  26.060  24.452   9.150
 6745POPC   GL131729  26.036  24.496   8.850
 6745POPC   GL231730  26.010  24.343   8.850
 6745POPC   C1A31731  26.081  24.504   8.550
 6745POPC   D2A31732  26.011  24.440   8.250
 6745POPC   C3A31733  26.075  24.529   7.950
 6745POPC   C4A31734  26.044  24.443   7.650
 6745POPC   C1B31735  26.029  24.227   8.550
 6745POPC   C2B31736  26.084  24.278   8.250
 6745POPC   C3B31737  26.077  24.191   7.950
 6745POPC   C4B31738  26.068  24.242   7.650
 6746POPC   NC331739  43.877  30.746   9.450
 6746POPC   PO431740  43.848  30.721   9.150
 6746POPC   GL131741  43.902  30.687   8.850
 6746POPC   GL231742  43.918  30.565   8.850
 6746POPC   C1A31743  43.891  30.727   8.550
 6746POPC   D2A31744  43.882  30.653   8.250
 6746POPC   C3A31745  43.919  30.723   7.950
 6746POPC   C4A31746  43.855  30.721   7.650
 6746POPC   C1B31747  43.990  30.500   8.550
 6746POPC   C2B31748  43.944  30.436   8.250
 6746POPC   C3B31749  44.000  30.462   7.950
 6746POPC   C4B31750  43.973  30.428   7.650
 6747POPC   NC331751  32.983  12.082   9.450
 6747POPC   PO431752  33.022  12.116   9.150
 6747POPC   GL131753  33.009  12.030   8.850
 6747POPC   GL231754  33.115  12.173   8.850
 6747POPC   C1A31755  33.064  12.115   8.550
 6747POPC   D2A31756  33.072  12.107   8.250
 6747POPC   C3A31757  33.006  12.065   7.950
 6747POPC   C4A31758  32.999  12.124   7.650
 6747POPC   C1B31759  33.230  12.197   8.550
 6747POPC   C2B31760  33.208  12.197   8.250
 6747POPC   C3B31761  33.205  12.152   7.950
 6747POPC   C4B31762  33.240  12.176   7.650
 6748POPC   NC331763  23.734  19.857   9.450
 6748POPC   PO431764  23.721  19.875   9.150
 6748POPC   GL131765  23.666  19.810   8.850
 6748POPC   GL231766  23.798  19.911   8.850
 6748POPC   C1A31767  23.713  19.827   8.550
 6748POPC   D2A31768  23.733  19.789   8.250
 6748POPC   C3A31769  23.745  19.848   7.950
 6748POPC   C4A31770  23.728  19.818   7.650
 6748POPC   C1B31771  23.921  19.980   8.550
 6748POPC   C2B31772  23.914  20.009   8.250
 6748POPC   C3B31773  23.900  19.932   7.950
 6748POPC   C4B31774  23.927  19.948   7.650
 6749POPC   NC331775   2.799  19.838   9.450
 6749POPC   PO431776   2.785  19.876   9.150
 6749POPC   GL131777   2.740  19.870   8.850
 6749POPC   GL231778   2.610  19.876   8.850
 6749POPC   C1A31779   2.733  19.880   8.550
 6749POPC   D2A31780   2.748  19.797   8.250
 6749POPC   C3A31781   2.798  19.844   7.950
 6749POPC   C4A31782   2.808  19.823   7.650
 6749POPC   C1B31783   2.540  19.861   8.550
 6749POPC   C2B31784   2.516  19.883   8.250
 6749POPC   C3B31785   2.561  19.866   7.950
 6749POPC   C4B31786   2.532  19.906   7.650
 6750POPC   NC331787  11.301  24.500   9.450
 6750POPC   PO431788  11.330  24.532   9.150
 6750POPC   GL131789  11.278  24.519   8.850
 6750POPC   GL231790  11.454  24.527   8.850
 6750POPC   C1A31791  11.273  24.451   8.550
 6750POPC   D2A31792  11.251  24.492   8.250
 6750POPC   C3A31793  11.272  24.465   7.950
 6750POPC   C4A31794  11.338  24.480   7.650
 6750POPC   C1B31795  11.492  24.547   8.550
 6750POPC   C2B31796  11.526  24.532   8.250
 6750POPC   C3B31797  11.513  24.537   7.950
 6750POPC   C4B31798  11.556  24.563   7.650
 6751POPC   NC331799  22.161  10.513   9.450
 6751POPC   PO431800  22.113  10.482   9.150
 6751POPC   GL131801  22.180  10.545   8.850
 6751POPC   GL231802  22.080  10.391   8.850
 6751POPC   C1A31803  22.200  10.525   8.550
 6751POPC   D2A31804  22.137  10.485   8.250
 6751POPC   C3A31805  22.146  10.571   7.950
 6751POPC   C4A31806  22.118  10.477   7.650
 6751POPC   C1B31807  22.018  10.399   8.550
 6751POPC   C2B31808  21.939  10.337   8.250
 6751POPC   C3B31809  21.991  10.392   7.950
 6751POPC   C4B31810  21.930  10.379   7.650
 6752POPC   NC331811   0.446  18.298   9.450
 6752POPC   PO431812   0.453  18.322   9.150
 6752POPC   GL131813   0.409  18.300   8.850
 6752POPC   GL231814   0.317  18.188   8.850
 6752POPC   C1A31815   0.478  18.307   8.550
 6752POPC   D2A31816   0.452  18.325   8.250
 6752POPC   C3A31817   0.431  18.324   7.950
 6752POPC   C4A31818   0.450  18.259   7.650
 6752POPC   C1B31819   0.255  18.080   8.550
 6752POPC   C2B31820   0.276  18.146   8.250
 6752POPC   C3B31821   0.279  18.058   7.950
 6752POPC   C4B31822   0.293  18.138   7.650
 6753POPC   NC331823  24.467  21.431   9.450
 6753POPC   PO431824  24.474  21.423   9.150
 6753POPC   GL131825  24.499  21.350   8.850
 6753POPC   GL231826  24.570  21.371   8.850
 6753POPC   C1A31827  24.514  21.389   8.550
 6753POPC   D2A31828  24.442  21.427   8.250
 6753POPC   C3A31829  24.471  21.337   7.950
 6753POPC   C4A31830  24.464  21.394   7.650
 6753POPC   C1B31831  24.683  21.279   8.550
 6753POPC   C2B31832  24.715  21.232   8.250
 6753POPC   C3B31833  24.677  21.223   7.950
 6753POPC   C4B31834  24.739  21.313   7.650
 6754POPC   NC331835  23.725  12.058   9.450
 6754POPC   PO431836  23.723  12.061   9.150
 6754POPC   GL131837  23.756  12.126   8.850
 6754POPC   GL231838  23.583  11.997   8.850
 6754POPC   C1A31839  23.723  12.100   8.550
 6754POPC   D2A31840  23.705  12.065   8.250
 6754POPC   C3A31841  23.690  12.035   7.950
 6754POPC   C4A31842  23.701  12.049   7.650
 6754POPC   C1B31843  23.556  11.935   8.550
 6754POPC   C2B31844  23.551  11.888   8.250
 6754POPC   C3B31845  23.499  11.968   7.950
 6754POPC   C4B31846  23.513  11.900   7.650
 6755POPC   NC331847   4.320   4.315   9.450
 6755POPC   PO431848   4.323   4.276   9.150
 6755POPC   GL131849   4.322   4.341   8.850
 6755POPC   GL231850   4.281   4.195   8.850
 6755POPC   C1A31851   4.354   4.299   8.550
 6755POPC   D2A31852   4.297   4.296   8.250
 6755POPC   C3A31853   4.299   4.275   7.950
 6755POPC   C4A31854   4.350   4.278   7.650
 6755POPC   C1B31855   4.212   4.079   8.550
 6755POPC   C2B31856   4.129   4.071   8.250
 6755POPC   C3B31857   4.138   4.155   7.950
 6755POPC   C4B31858   4.156   4.140   7.650
 6756POPC   NC331859   3.497  12.825   9.450
 6756POPC   PO431860   3.519  12.882   9.150
 6756POPC   GL131861   3.565  12.810   8.850
 6756POPC   GL231862   3.382  12.856   8.850
 6756POPC   C1A31863   3.510  12.817   8.550
 6756POPC   D2A31864   3.539  12.844   8.250
 6756POPC   C3A31865   3.543  12.873   7.950
 6756POPC   C4A31866   3.545  12.878   7.650
 6756POPC   C1B31867   3.248  12.911   8.550
 6756POPC   C2B31868   3.271  12.929   8.250
 6756POPC   C3B31869   3.307  12.860   7.950
 6756POPC   C4B31870   3.286  12.892   7.650
 6757POPC   NC331871  29.895  21.336   9.450
 6757POPC   PO431872  29.969  21.339   9.150
 6757POPC   GL131873  29.875  21.336   8.850
 6757POPC   GL231874  30.009  21.246   8.850
 6757POPC   C1A31875  29.886  21.428   8.550
 6757POPC   D2A31876  29.965  21.349   8.250
 6757POPC   C3A31877  29.917  21.389   7.950
 6757POPC   C4A31878  29.888  21.354   7.650
 6757POPC   C1B31879  30.072  21.132   8.550
 6757POPC   C2B31880  30.048  21.148   8.250
 6757POPC   C3B31881  30.053  21.168   7.950
 6757POPC   C4B31882  30.095  21.203   7.650
 6758POPC   NC331883  32.265  14.420   9.450
 6758POPC   PO431884  32.247  14.415   9.150
 6758POPC   GL131885  32.244  14.452   8.850
 6758POPC   GL231886  32.315  14.337   8.850
 6758POPC   C1A31887  32.242  14.412   8.550
 6758POPC   D2A31888  32.293  14.355   8.250
 6758POPC   C3A31889  32.235  14.432   7.950
 6758POPC   C4A31890  32.268  14.452   7.650
 6758POPC   C1B31891  32.471  14.314   8.550
 6758POPC   C2B31892  32.478  14.238   8.250
 6758POPC   C3B31893  32.406  14.230   7.950
 6758POPC   C4B31894  32.419  14.286   7.650
 6759POPC   NC331895  16.718  26.087   9.450
 6759POPC   PO431896  16.744  26.090   9.150
 6759POPC   GL131897  16.750  26.001   8.850
 6759POPC   GL231898  16.762  25.937   8.850
 6759POPC   C1A31899  16.770  26.038   8.550
 6759POPC   D2A31900  16.772  26.071   8.250
 6759POPC   C3A31901  16.702  26.028   7.950
 6759POPC   C4A31902  16.719  25.993   7.650
 6759POPC   C1B31903  16.839  25.842   8.550
 6759POPC   C2B31904  16.871  25.800   8.250
 6759POPC   C3B31905  16.797  25.779   7.950
 6759POPC   C4B31906  16.891  25.830   7.650
 6760POPC   NC331907  41.535  29.167   9.450
 6760POPC   PO431908  41.578  29.102   9.150
 6760POPC   GL131909  41.522  29.108   8.850
 6760POPC   GL231910  41.513  29.097   8.850
 6760POPC   C1A31911  41.573  29.159   8.550
 6760POPC   D2A31912  41.555  29.180   8.250
 6760POPC   C3A31913  41.550  29.191   7.950
 6760POPC   C4A31914  41.553  29.146   7.650
 6760POPC   C1B31915  41.326  29.006   8.550
 6760POPC   C2B31916  41.391  28.949   8.250
 6760POPC   C3B31917  41.391  29.011   7.950
 6760POPC   C4B31918  41.330  29.027   7.650
 6761POPC   NC331919  30.659  11.292   9.450
 6761POPC   PO431920  30.683  11.321   9.150
 6761POPC   GL131921  30.653  11.349   8.850
 6761POPC   GL231922  30.831  11.339   8.850
 6761POPC   C1A31923  30.648  11.290   8.550
 6761POPC   D2A31924  30.737  11.293   8.250
 6761POPC   C3A31925  30.726  11.307   7.950
 6761POPC   C4A31926  30.711  11.323   7.650
 6761POPC   C1B31927  30.952  11.324   8.550
 6761POPC   C2B31928  30.907  11.360   8.250
 6761POPC   C3B31929  30.941  11.369   7.950
 6761POPC   C4B31930  30.949  11.314   7.650
 6762POPC   NC331931   3.580  26.010   9.450
 6762POPC   PO431932   3.564  26.045   9.150
 6762POPC   GL131933   3.561  26.003   8.850
 6762POPC   GL231934   3.497  25.899   8.850
 6762POPC   C1A31935   3.500  26.024   8.550
 6762POPC   D2A31936   3.517  26.046   8.250
 6762POPC   C3A31937   3.551  26.020   7.950
 6762POPC   C4A31938   3.571  26.035   7.650
 6762POPC   C1B31939   3.385  25.820   8.550
 6762POPC   C2B31940   3.413  25.867   8.250
 6762POPC   C3B31941   3.430  25.826   7.950
 6762POPC   C4B31942   3.409  25.835   7.650
 6763POPC   NC331943   2.720  37.723   9.450
 6763POPC   PO431944   2.729  37.653   9.150
 6763POPC   GL131945   2.808  37.647   8.850
 6763POPC   GL231946   2.785  37.772   8.850
 6763POPC   C1A31947   2.793  37.689   8.550
 6763POPC   D2A31948   2.786  37.670   8.250
 6763POPC   C3A31949   2.762  37.644   7.950
 6763POPC   C4A31950   2.730  37.721   7.650
 6763POPC   C1B31951   2.687  37.894   8.550
 6763POPC   C2B31952   2.732  37.911   8.250
 6763POPC   C3B31953   2.744  37.972   7.950
 6763POPC   C4B31954   2.720  37.925   7.650
 6764POPC   NC331955   9.723   8.155   9.450
 6764POPC   PO431956   9.771   8.216   9.150
 6764POPC   GL131957   9.722   8.175   8.850
 6764POPC   GL231958   9.683   8.318   8.850
 6764POPC   C1A31959   9.738   8.225   8.550
 6764POPC   D2A31960   9.710   8.231   8.250
 6764POPC   C3A31961   9.771   8.234   7.950
 6764POPC   C4A31962   9.751   8.223   7.650
 6764POPC   C1B31963   9.623   8.423   8.550
 6764POPC   C2B31964   9.603   8.388   8.250
 6764POPC   C3B31965   9.549   8.382   7.950
 6764POPC   C4B31966   9.542   8.382   7.650
 6765POPC   NC331967  22.134   7.389   9.450
 6765POPC   PO431968  22.202   7.388   9.150
 6765POPC   GL131969  22.176   7.450   8.850
 6765POPC   GL231970  22.278   7.353   8.850
 6765POPC   C1A31971  22.183   7.377   8.550
 6765POPC   D2A31972  22.124   7.379   8.250
 6765POPC   C3A31973  22.139   7.430   7.950
 6765POPC   C4A31974  22.117   7.400   7.650
 6765POPC   C1B31975  22.430   7.263   8.550
 6765POPC   C2B31976  22.363   7.292   8.250
 6765POPC   C3B31977  22.356   7.308   7.950
 6765POPC   C4B31978  22.368   7.294   7.650
 6766POPC   NC331979  15.952   5.854   9.450
 6766POPC   PO431980  15.979   5.897   9.150
 6766POPC   GL131981  15.906   5.835   8.850
 6766POPC   GL231982  15.811   5.838   8.850
 6766POPC   C1A31983  16.004   5.911   8.550
 6766POPC   D2A31984  15.981   5.898   8.250
 6766POPC   C3A31985  15.909   5.839   7.950
 6766POPC   C4A31986  15.988   5.876   7.650
 6766POPC   C1B31987  15.727   5.885   8.550
 6766POPC   C2B31988  15.734   5.882   8.250
 6766POPC   C3B31989  15.689   5.895   7.950
 6766POPC   C4B31990  15.743   5.903   7.650
 6767POPC   NC331991  27.597  39.209   9.450
 6767POPC   PO431992  27.619  39.256   9.150
 6767POPC   GL131993  27.584  39.218   8.850
 6767POPC   GL231994  27.611  39.091   8.850
 6767POPC   C1A31995  27.606  39.237   8.550
 6767POPC   D2A31996  27.605  39.251   8.250
 6767POPC   C3A31997  27.553  39.232   7.950
 6767POPC   C4A31998  27.552  39.209   7.650
 6767POPC   C1B31999  27.677  39.042   8.550
 6767POPC   C2B32000  27.679  39.054   8.250
 6767POPC   C3B32001  27.689  38.996   7.950
 6767POPC   C4B32002  27.686  39.060   7.650
 6768POPC   NC332003  36.870   0.424   9.450
 6768POPC   PO432004  36.926   0.445   9.150
 6768POPC   GL132005  36.950   0.463   8.850
 6768POPC   GL232006  36.967   0.327   8.850
 6768POPC   C1A32007  36.887   0.397   8.550
 6768POPC   D2A32008  36.946   0.452   8.250
 6768POPC   C3A32009  36.925   0.457   7.950
 6768POPC   C4A32010  36.901   0.431   7.650
 6768POPC   C1B32011  36.925   0.214   8.550
 6768POPC   C2B32012  36.964   0.194   8.250
 6768POPC   C3B32013  36.974   0.162   7.950
 6768POPC   C4B32014  36.982   0.170   7.650
 6769POPC   NC332015  42.319  30.722   9.450
 6769POPC   PO432016  42.294  30.705   9.150
 6769POPC   GL132017  42.317  30.721   8.850
 6769POPC   GL232018  42.327  30.586   8.850
 6769POPC   C1A32019  42.382  30.730   8.550
 6769POPC   D2A32020  42.373  30.737   8.250
 6769POPC   C3A32021  42.335  30.698   7.950
 6769POPC   C4A32022  42.375  30.673   7.650
 6769POPC   C1B32023  42.299  30.434   8.550
 6769POPC   C2B32024  42.322  30.410   8.250
 6769POPC   C3B32025  42.292  30.407   7.950
 6769POPC   C4B32026  42.333  30.482   7.650
 6770POPC   NC332027  44.646   7.387   9.450
 6770POPC   PO432028  44.655   7.448   9.150
 6770POPC   GL132029  44.657   7.461   8.850
 6770POPC   GL232030  44.543   7.457   8.850
 6770POPC   C1A32031  44.637   7.393   8.550
 6770POPC   D2A32032  44.676   7.446   8.250
 6770POPC   C3A32033  44.618   7.465   7.950
 6770POPC   C4A32034  44.676   7.434   7.650
 6770POPC   C1B32035  44.459   7.358   8.550
 6770POPC   C2B32036  44.424   7.444   8.250
 6770POPC   C3B32037  44.462   7.371   7.950
 6770POPC   C4B32038  44.409   7.428   7.650
 6771POPC   NC332039  12.049  37.716   9.450
 6771POPC   PO432040  12.111  37.712   9.150
 6771POPC   GL132041  12.113  37.639   8.850
 6771POPC   GL232042  12.015  37.770   8.850
 6771POPC   C1A32043  12.112  37.710   8.550
 6771POPC   D2A32044  12.053  37.634   8.250
 6771POPC   C3A32045  12.039  37.694   7.950
 6771POPC   C4A32046  12.039  37.708   7.650
 6771POPC   C1B32047  11.918  37.876   8.550
 6771POPC   C2B32048  11.839  37.808   8.250
 6771POPC   C3B32049  11.870  37.857   7.950
 6771POPC   C4B32050  11.873  37.888   7.650
 6772POPC   NC332051   2.724  42.371   9.450
 6772POPC   PO432052   2.737  42.371   9.150
 6772POPC   GL132053   2.799  42.357   8.850
 6772POPC   GL232054   2.853  42.397   8.850
 6772POPC   C1A32055   2.744  42.308   8.550
 6772POPC   D2A32056   2.720  42.315   8.250
 6772POPC   C3A32057   2.769  42.353   7.950
 6772POPC   C4A32058   2.793  42.320   7.650
 6772POPC   C1B32059   3.045  42.348   8.550
 6772POPC   C2B32060   2.968  42.367   8.250
 6772POPC   C3B32061   2.994  42.400   7.950
 6772POPC   C4B32062   3.031  42.385   7.650
 6773POPC   NC332063  30.701  22.925   9.450
 6773POPC   PO432064  30.719  22.916   9.150
 6773POPC   GL132065  30.720  22.894   8.850
 6773POPC   GL232066  30.728  22.824   8.850
 6773POPC   C1A32067  30.649  22.914   8.550
 6773POPC   D2A32068  30.722  22.954   8.250
 6773POPC   C3A32069  30.710  22.909   7.950
 6773POPC   C4A32070  30.678  22.954   7.650
 6773POPC   C1B32071  30.890  22.788   8.550
 6773POPC   C2B32072  30.850  22.693   8.250
 6773POPC   C3B32073  30.860  22.714   7.950
 6773POPC   C4B32074  30.832  22.710   7.650
 6774POPC   NC332075   8.149  37.668   9.450
 6774POPC   PO432076   8.207  37.694   9.150
 6774POPC   GL132077   8.187  37.664   8.850
 6774POPC   GL232078   8.195  37.839   8.850
 6774POPC   C1A32079   8.172  37.727   8.550
 6774POPC   D2A32080   8.153  37.661   8.250
 6774POPC   C3A32081   8.197  37.632   7.950
 6774POPC   C4A32082   8.221  37.673   7.650
 6774POPC   C1B32083   8.325  37.924   8.550
 6774POPC   C2B32084   8.246  37.888   8.250
 6774POPC   C3B32085   8.312  37.936   7.950
 6774POPC   C4B32086   8.331  37.903   7.650
 6775POPC   NC332087  12.061  15.984   9.450
 6775POPC   PO432088  12.078  15.985   9.150
 6775POPC   GL132089  12.086  15.982   8.850
 6775POPC   GL232090  11.964  16.004   8.850
 6775POPC   C1A32091  12.058  15.994   8.550
 6775POPC   D2A32092  12.109  15.954   8.250
 6775POPC   C3A32093  12.035  15.935   7.950
 6775POPC   C4A32094  12.088  15.911   7.650
 6775POPC   C1B32095  11.820  16.049   8.550
 6775POPC   C2B32096  11.881  16.050   8.250
 6775POPC   C3B32097  11.832  16.033   7.950
 6775POPC   C4B32098  11.870  16.115   7.650
 6776POPC   NC332099  20.605   9.743   9.450
 6776POPC   PO432100  20.605   9.729   9.150
 6776POPC   GL132101  20.649   9.761   8.850
 6776POPC   GL232102  20.484   9.735   8.850
 6776POPC   C1A32103  20.629   9.768   8.550
 6776POPC   D2A32104  20.637   9.702   8.250
 6776POPC   C3A32105  20.578   9.716   7.950
 6776POPC   C4A32106  20.611   9.746   7.650
 6776POPC   C1B32107  20.405   9.793   8.550
 6776POPC   C2B32108  20.365   9.767   8.250
 6776POPC   C3B32109  20.321   9.736   7.950
 6776POPC   C4B32110  20.324   9.796   7.650
 6777POPC   NC332111   7.435  12.034   9.450
 6777POPC   PO432112   7.371  12.066   9.150
 6777POPC   GL132113   7.465  12.071   8.850
 6777POPC   GL232114   7.434  11.903   8.850
 6777POPC   C1A32115   7.458  12.093   8.550
 6777POPC   D2A32116   7.420  12.068   8.250
 6777POPC   C3A32117   7.419  12.114   7.950
 6777POPC   C4A32118   7.411  12.052   7.650
 6777POPC   C1B32119   7.408  11.826   8.550
 6777POPC   C2B32120   7.465  11.787   8.250
 6777POPC   C3B32121   7.499  11.792   7.950
 6777POPC   C4B32122   7.438  11.826   7.650
 6778POPC   NC332123  43.849  38.497   9.450
 6778POPC   PO432124  43.855  38.505   9.150
 6778POPC   GL132125  43.907  38.453   8.850
 6778POPC   GL232126  43.770  38.397   8.850
 6778POPC   C1A32127  43.851  38.495   8.550
 6778POPC   D2A32128  43.865  38.492   8.250
 6778POPC   C3A32129  43.933  38.438   7.950
 6778POPC   C4A32130  43.845  38.485   7.650
 6778POPC   C1B32131  43.682  38.433   8.550
 6778POPC   C2B32132  43.677  38.377   8.250
 6778POPC   C3B32133  43.687  38.361   7.950
 6778POPC   C4B32134  43.635  38.359   7.650
 6779POPC   NC332135  35.396  42.347   9.450
 6779POPC   PO432136  35.379  42.359   9.150
 6779POPC   GL132137  35.379  42.333   8.850
 6779POPC   GL232138  35.506  42.234   8.850
 6779POPC   C1A32139  35.305  42.289   8.550
 6779POPC   D2A32140  35.398  42.326   8.250
 6779POPC   C3A32141  35.341  42.359   7.950
 6779POPC   C4A32142  35.377  42.373   7.650
 6779POPC   C1B32143  35.596  42.231   8.550
 6779POPC   C2B32144  35.538  42.237   8.250
 6779POPC   C3B32145  35.538  42.214   7.950
 6779POPC   C4B32146  35.568  42.235   7.650
 6780POPC   NC332147   8.149  33.847   9.450
 6780POPC   PO432148   8.243  33.833   9.150
 6780POPC   GL132149   8.177  33.762   8.850
 6780POPC   GL232150   8.121  33.730   8.850
 6780POPC   C1A32151   8.178  33.832   8.550
 6780POPC   D2A32152   8.245  33.839   8.250
 6780POPC   C3A32153   8.165  33.825   7.950
 6780POPC   C4A32154   8.175  33.760   7.650
 6780POPC   C1B32155   7.978  33.642   8.550
 6780POPC   C2B32156   8.024  33.702   8.250
 6780POPC   C3B32157   7.932  33.669   7.950
 6780POPC   C4B32158   8.023  33.653   7.650
 6781POPC   NC332159  20.574  15.140   9.450
 6781POPC   PO432160  20.612  15.174   9.150
 6781POPC   GL132161  20.609  15.180   8.850
 6781POPC   GL232162  20.493  15.039   8.850
 6781POPC   C1A32163  20.595  15.135   8.550
 6781POPC   D2A32164  20.565  15.141   8.250
 6781POPC   C3A32165  20.569  15.134   7.950
 6781POPC   C4A32166  20.611  15.192   7.650
 6781POPC   C1B32167  20.414  15.027   8.550
 6781POPC   C2B32168  20.425  15.008   8.250
 6781POPC   C3B32169  20.451  14.950   7.950
 6781POPC   C4B32170  20.473  14.984   7.650
 6782POPC   NC332171  13.652  39.243   9.450
 6782POPC   PO432172  13.615  39.262   9.150
 6782POPC   GL132173  13.636  39.182   8.850
 6782POPC   GL232174  13.771  39.269   8.850
 6782POPC   C1A32175  13.618  39.234   8.550
 6782POPC   D2A32176  13.625  39.202   8.250
 6782POPC   C3A32177  13.626  39.237   7.950
 6782POPC   C4A32178  13.611  39.269   7.650
 6782POPC   C1B32179  13.852  39.276   8.550
 6782POPC   C2B32180  13.855  39.285   8.250
 6782POPC   C3B32181  13.889  39.225   7.950
 6782POPC   C4B32182  13.899  39.259   7.650
 6783POPC   NC332183  28.378  35.379   9.450
 6783POPC   PO432184  28.419  35.374   9.150
 6783POPC   GL132185  28.321  35.370   8.850
 6783POPC   GL232186  28.509  35.349   8.850
 6783POPC   C1A32187  28.337  35.321   8.550
 6783POPC   D2A32188  28.358  35.356   8.250
 6783POPC   C3A32189  28.375  35.373   7.950
 6783POPC   C4A32190  28.364  35.341   7.650
 6783POPC   C1B32191  28.612  35.316   8.550
 6783POPC   C2B32192  28.613  35.358   8.250
 6783POPC   C3B32193  28.610  35.395   7.950
 6783POPC   C4B32194  28.572  35.382   7.650
 6784POPC   NC332195  41.549   9.768   9.450
 6784POPC   PO432196  41.544   9.717   9.150
 6784POPC   GL132197  41.585   9.792   8.850
 6784POPC   GL232198  41.469   9.850   8.850
 6784POPC   C1A32199  41.537   9.772   8.550
 6784POPC   D2A32200  41.602   9.769   8.250
 6784POPC   C3A32201  41.545   9.796   7.950
 6784POPC   C4A32202  41.601   9.796   7.650
 6784POPC   C1B32203  41.396   9.976   8.550
 6784POPC   C2B32204  41.478  10.014   8.250
 6784POPC   C3B32205  41.491   9.966   7.950
 6784POPC   C4B32206  41.413  10.017   7.650
 6785POPC   NC332207  13.630  33.820   9.450
 6785POPC   PO432208  13.605  33.772   9.150
 6785POPC   GL132209  13.650  33.784   8.850
 6785POPC   GL232210  13.557  33.685   8.850
 6785POPC   C1A32211  13.660  33.822   8.550
 6785POPC   D2A32212  13.634  33.813   8.250
 6785POPC   C3A32213  13.657  33.763   7.950
 6785POPC   C4A32214  13.623  33.799   7.650
 6785POPC   C1B32215  13.449  33.609   8.550
 6785POPC   C2B32216  13.467  33.596   8.250
 6785POPC   C3B32217  13.486  33.581   7.950
 6785POPC   C4B32218  13.476  33.658   7.650
 6786POPC   NC332219  43.932  23.743   9.450
 6786POPC   PO432220  43.904  23.746   9.150
 6786POPC   GL132221  43.871  23.721   8.850
 6786POPC   GL232222  43.871  23.867   8.850
 6786POPC   C1A32223  43.878  23.733   8.550
 6786POPC   D2A32224  43.915  23.692   8.250
 6786POPC   C3A32225  43.888  23.704   7.950
 6786POPC   C4A32226  43.889  23.672   7.650
 6786POPC   C1B32227  43.824  23.921   8.550
 6786POPC   C2B32228  43.826  23.897   8.250
 6786POPC   C3B32229  43.769  23.972   7.950
 6786POPC   C4B32230  43.827  23.956   7.650
 6787POPC   NC332231   2.771  36.950   9.450
 6787POPC   PO432232   2.782  36.914   9.150
 6787POPC   GL132233   2.775  36.901   8.850
 6787POPC   GL232234   2.902  36.873   8.850
 6787POPC   C1A32235   2.770  36.891   8.550
 6787POPC   D2A32236   2.719  36.920   8.250
 6787POPC   C3A32237   2.755  36.876   7.950
 6787POPC   C4A32238   2.730  36.927   7.650
 6787POPC   C1B32239   2.990  36.918   8.550
 6787POPC   C2B32240   3.055  36.909   8.250
 6787POPC   C3B32241   2.987  36.903   7.950
 6787POPC   C4B32242   3.011  36.920   7.650
 6788POPC   NC332243   2.719  16.693   9.450
 6788POPC   PO432244   2.759  16.690   9.150
 6788POPC   GL132245   2.737  16.723   8.850
 6788POPC   GL232246   2.682  16.820   8.850
 6788POPC   C1A32247   2.774  16.761   8.550
 6788POPC   D2A32248   2.720  16.756   8.250
 6788POPC   C3A32249   2.751  16.731   7.950
 6788POPC   C4A32250   2.755  16.770   7.650
 6788POPC   C1B32251   2.648  16.935   8.550
 6788POPC   C2B32252   2.586  16.957   8.250
 6788POPC   C3B32253   2.554  16.970   7.950
 6788POPC   C4B32254   2.562  16.943   7.650
 6789POPC   NC332255   0.457  14.372   9.450
 6789POPC   PO432256   0.394  14.381   9.150
 6789POPC   GL132257   0.451  14.390   8.850
 6789POPC   GL232258   0.565  14.484   8.850
 6789POPC   C1A32259   0.437  14.355   8.550
 6789POPC   D2A32260   0.419  14.443   8.250
 6789POPC   C3A32261   0.470  14.368   7.950
 6789POPC   C4A32262   0.410  14.359   7.650
 6789POPC   C1B32263   0.638  14.562   8.550
 6789POPC   C2B32264   0.598  14.630   8.250
 6789POPC   C3B32265   0.622  14.548   7.950
 6789POPC   C4B32266   0.631  14.541   7.650
 6790POPC   NC332267   2.739   9.765   9.450
 6790POPC   PO432268   2.804   9.749   9.150
 6790POPC   GL132269   2.813   9.764   8.850
 6790POPC   GL232270   2.638   9.859   8.850
 6790POPC   C1A32271   2.813   9.740   8.550
 6790POPC   D2A32272   2.798   9.757   8.250
 6790POPC   C3A32273   2.758   9.757   7.950
 6790POPC   C4A32274   2.775   9.718   7.650
 6790POPC   C1B32275   2.599   9.878   8.550
 6790POPC   C2B32276   2.589   9.951   8.250
 6790POPC   C3B32277   2.624   9.880   7.950
 6790POPC   C4B32278   2.531   9.886   7.650
 6791POPC   NC332279  19.837   8.212   9.450
 6791POPC   PO432280  19.788   8.162   9.150
 6791POPC   GL132281  19.819   8.164   8.850
 6791POPC   GL232282  19.839   8.092   8.850
 6791POPC   C1A32283  19.872   8.204   8.550
 6791POPC   D2A32284  19.795   8.165   8.250
 6791POPC   C3A32285  19.874   8.205   7.950
 6791POPC   C4A32286  19.797   8.226   7.650
 6791POPC   C1B32287  19.820   7.927   8.550
 6791POPC   C2B32288  19.848   7.941   8.250
 6791POPC   C3B32289  19.810   7.958   7.950
 6791POPC   C4B32290  19.823   7.984   7.650
 6792POPC   NC332291   9.760  32.225   9.450
 6792POPC   PO432292   9.705  32.258   9.150
 6792POPC   GL132293   9.726  32.226   8.850
 6792POPC   GL232294   9.584  32.334   8.850
 6792POPC   C1A32295   9.771  32.205   8.550
 6792POPC   D2A32296   9.778  32.278   8.250
 6792POPC   C3A32297   9.786  32.208   7.950
 6792POPC   C4A32298   9.797  32.296   7.650
 6792POPC   C1B32299   9.480  32.298   8.550
 6792POPC   C2B32300   9.550  32.356   8.250
 6792POPC   C3B32301   9.474  32.296   7.950
 6792POPC   C4B32302   9.562  32.349   7.650
 6793POPC   NC332303  30.684   8.184   9.450
 6793POPC   PO432304  30.728   8.234   9.150
 6793POPC   GL132305  30.701   8.184   8.850
 6793POPC   GL232306  30.667   8.045   8.850
 6793POPC   C1A32307  30.695   8.152   8.550
 6793POPC   D2A32308  30.710   8.237   8.250
 6793POPC   C3A32309  30.698   8.227   7.950
 6793POPC   C4A32310  30.714   8.175   7.650
 6793POPC   C1B32311  30.650   7.933   8.550
 6793POPC   C2B32312  30.670   7.950   8.250
 6793POPC   C3B32313  30.670   7.962   7.950
 6793POPC   C4B32314  30.669   7.949   7.650
 6794POPC   NC332315   3.556  28.342   9.450
 6794POPC   PO432316   3.570  28.320   9.150
 6794POPC   GL132317   3.568  28.392   8.850
 6794POPC   GL232318   3.592  28.460   8.850
 6794POPC   C1A32319   3.526  28.343   8.550
 6794POPC   D2A32320   3.527  28.415   8.250
 6794POPC   C3A32321   3.538  28.345   7.950
 6794POPC   C4A32322   3.583  28.372   7.650
 6794POPC   C1B32323   3.611  28.637   8.550
 6794POPC   C2B32324   3.676  28.598   8.250
 6794POPC   C3B32325   3.600  28.585   7.950
 6794POPC   C4B32326   3.650  28.584   7.650
 6795POPC   NC332327  19.848   4.296   9.450
 6795POPC   PO432328  19.804   4.273   9.150
 6795POPC   GL132329  19.838   4.279   8.850
 6795POPC   GL232330  19.858   4.465   8.850
 6795POPC   C1A32331  19.877   4.302   8.550
 6795POPC   D2A32332  19.848   4.274   8.250
 6795POPC   C3A32333  19.813   4.360   7.950
 6795POPC   C4A32334  19.846   4.269   7.650
 6795POPC   C1B32335  19.936   4.589   8.550
 6795POPC   C2B32336  19.920   4.596   8.250
 6795POPC   C3B32337  19.841   4.565   7.950
 6795POPC   C4B32338  19.868   4.513   7.650
 6796POPC   NC332339  41.527  14.370   9.450
 6796POPC   PO432340  41.542  14.440   9.150
 6796POPC   GL132341  41.602  14.420   8.850
 6796POPC   GL232342  41.394  14.315   8.850
 6796POPC   C1A32343  41.584  14.441   8.550
 6796POPC   D2A32344  41.596  14.388   8.250
 6796POPC   C3A32345  41.570  14.414   7.950
 6796POPC   C4A32346  41.543  14.385   7.650
 6796POPC   C1B32347  41.374  14.324   8.550
 6796POPC   C2B32348  41.359  14.297   8.250
 6796POPC   C3B32349  41.302  14.289   7.950
 6796POPC   C4B32350  41.298  14.306   7.650
 6797POPC   NC332351   5.823   9.791   9.450
 6797POPC   PO432352   5.834   9.757   9.150
 6797POPC   GL132353   5.863   9.795   8.850
 6797POPC   GL232354   5.829   9.894   8.850
 6797POPC   C1A32355   5.879   9.760   8.550
 6797POPC   D2A32356   5.841   9.724   8.250
 6797POPC   C3A32357   5.837   9.749   7.950
 6797POPC   C4A32358   5.844   9.737   7.650
 6797POPC   C1B32359   5.839  10.044   8.550
 6797POPC   C2B32360   5.857   9.987   8.250
 6797POPC   C3B32361   5.879  10.043   7.950
 6797POPC   C4B32362   5.889  10.001   7.650
 6798POPC   NC332363  36.121  35.396   9.450
 6798POPC   PO432364  36.149  35.362   9.150
 6798POPC   GL132365  36.105  35.354   8.850
 6798POPC   GL232366  36.221  35.237   8.850
 6798POPC   C1A32367  36.100  35.334   8.550
 6798POPC   D2A32368  36.155  35.376   8.250
 6798POPC   C3A32369  36.079  35.330   7.950
 6798POPC   C4A32370  36.142  35.325   7.650
 6798POPC   C1B32371  36.262  35.141   8.550
 6798POPC   C2B32372  36.224  35.105   8.250
 6798POPC   C3B32373  36.182  35.098   7.950
 6798POPC   C4B32374  36.232  35.109   7.650
 6799POPC   NC332375   5.089   5.893   9.450
 6799POPC   PO432376   5.114   5.865   9.150
 6799POPC   GL132377   5.088   5.899   8.850
 6799POPC   GL232378   5.095   5.961   8.850
 6799POPC   C1A32379   5.097   5.878   8.550
 6799POPC   D2A32380   5.059   5.896   8.250
 6799POPC   C3A32381   5.057   5.856   7.950
 6799POPC   C4A32382   5.078   5.821   7.650
 6799POPC   C1B32383   5.074   6.119   8.550
 6799POPC   C2B32384   5.096   6.091   8.250
 6799POPC   C3B32385   5.072   6.166   7.950
 6799POPC   C4B32386   5.131   6.079   7.650
 6800POPC   NC332387  36.947  44.669   9.450
 6800POPC   PO432388  36.909  44.635   9.150
 6800POPC   GL132389  36.943  44.682   8.850
 6800POPC   GL232390  36.822  44.650   8.850
 6800POPC   C1A32391  36.911  44.654   8.550
 6800POPC   D2A32392  36.929  44.639   8.250
 6800POPC   C3A32393  36.890  44.675   7.950
 6800POPC   C4A32394  36.859  44.642   7.650
 6800POPC   C1B32395  36.611  44.680   8.550
 6800POPC   C2B32396  36.676  44.679   8.250
 6800POPC   C3B32397  36.671  44.717   7.950
 6800POPC   C4B32398  36.636  44.719   7.650
 6801POPC   NC332399  40.774  17.463   9.450
 6801POPC   PO432400  40.749  17.528   9.150
 6801POPC   GL132401  40.811  17.469   8.850
 6801POPC   GL232402  40.939  17.561   8.850
 6801POPC   C1A32403  40.751  17.493   8.550
 6801POPC   D2A32404  40.734  17.522   8.250
 6801POPC   C3A32405  40.753  17.541   7.950
 6801POPC   C4A32406  40.781  17.530   7.650
 6801POPC   C1B32407  41.038  17.572   8.550
 6801POPC   C2B32408  41.022  17.572   8.250
 6801POPC   C3B32409  41.007  17.618   7.950
 6801POPC   C4B32410  41.053  17.590   7.650
 6802POPC   NC332411  36.947  17.516   9.450
 6802POPC   PO432412  36.910  17.506   9.150
 6802POPC   GL132413  36.859  17.501   8.850
 6802POPC   GL232414  36.902  17.390   8.850
 6802POPC   C1A32415  36.862  17.549   8.550
 6802POPC   D2A32416  36.874  17.458   8.250
 6802POPC   C3A32417  36.897  17.506   7.950
 6802POPC   C4A32418  36.896  17.535   7.650
 6802POPC   C1B32419  36.856  17.221   8.550
 6802POPC   C2B32420  36.881  17.258   8.250
 6802POPC   C3B32421  36.906  17.234   7.950
 6802POPC   C4B32422  36.887  17.275   7.650
 6803POPC   NC332423  23.749   0.424   9.450
 6803POPC   PO432424  23.708   0.398   9.150
 6803POPC   GL132425  23.736   0.395   8.850
 6803POPC   GL232426  23.793   0.404   8.850
 6803POPC   C1A32427  23.756   0.436   8.550
 6803POPC   D2A32428  23.728   0.465   8.250
 6803POPC   C3A32429  23.680   0.450   7.950
 6803POPC   C4A32430  23.728   0.432   7.650
 6803POPC   C1B32431  23.949   0.466   8.550
 6803POPC   C2B32432  24.001   0.423   8.250
 6803POPC   C3B32433  23.998   0.396   7.950
 6803POPC   C4B32434  23.982   0.398   7.650
 6804POPC   NC332435  28.335  36.923   9.450
 6804POPC   PO432436  28.343  36.875   9.150
 6804POPC   GL132437  28.386  36.889   8.850
 6804POPC   GL232438  28.308  36.833   8.850
 6804POPC   C1A32439  28.342  36.938   8.550
 6804POPC   D2A32440  28.363  36.861   8.250
 6804POPC   C3A32441  28.325  36.907   7.950
 6804POPC   C4A32442  28.416  36.925   7.650
 6804POPC   C1B32443  28.277  36.646   8.550
 6804POPC   C2B32444  28.243  36.700   8.250
 6804POPC   C3B32445  28.190  36.697   7.950
 6804POPC   C4B32446  28.200  36.676   7.650
 6805POPC   NC332447  37.687  15.135   9.450
 6805POPC   PO432448  37.678  15.170   9.150
 6805POPC   GL132449  37.635  15.185   8.850
 6805POPC   GL232450  37.742  15.301   8.850
 6805POPC   C1A32451  37.727  15.161   8.550
 6805POPC   D2A32452  37.695  15.136   8.250
 6805POPC   C3A32453  37.674  15.156   7.950
 6805POPC   C4A32454  37.632  15.200   7.650
 6805POPC   C1B32455  37.732  15.454   8.550
 6805POPC   C2B32456  37.736  15.430   8.250
 6805POPC   C3B32457  37.782  15.395   7.950
 6805POPC   C4B32458  37.751  15.379   7.650
 6806POPC   NC332459  43.154   0.427   9.450
 6806POPC   PO432460  43.112   0.450   9.150
 6806POPC   GL132461  43.135   0.473   8.850
 6806POPC   GL232462  43.055   0.334   8.850
 6806POPC   C1A32463  43.075   0.459   8.550
 6806POPC   D2A32464  43.070   0.483   8.250
 6806POPC   C3A32465  43.139   0.473   7.950
 6806POPC   C4A32466  43.074   0.469   7.650
 6806POPC   C1B32467  43.093   0.218   8.550
 6806POPC   C2B32468  43.111   0.233   8.250
 6806POPC   C3B32469  43.062   0.193   7.950
 6806POPC   C4B32470  43.099   0.193   7.650
 6807POPC   NC332471  36.105  19.871   9.450
 6807POPC   PO432472  36.136  19.858   9.150
 6807POPC   GL132473  36.087  19.818   8.850
 6807POPC   GL232474  36.081  19.945   8.850
 6807POPC   C1A32475  36.105  19.853   8.550
 6807POPC   D2A32476  36.131  19.805   8.250
 6807POPC   C3A32477  36.162  19.821   7.950
 6807POPC   C4A32478  36.105  19.873   7.650
 6807POPC   C1B32479  36.094  20.044   8.550
 6807POPC   C2B32480  36.150  20.094   8.250
 6807POPC   C3B32481  36.088  20.074   7.950
 6807POPC   C4B32482  36.128  20.103   7.650
 6808POPC   NC332483   7.446  32.253   9.450
 6808POPC   PO432484   7.448  32.274   9.150
 6808POPC   GL132485   7.458  32.294   8.850
 6808POPC   GL232486   7.550  32.152   8.850
 6808POPC   C1A32487   7.429  32.252   8.550
 6808POPC   D2A32488   7.445  32.214   8.250
 6808POPC   C3A32489   7.458  32.243   7.950
 6808POPC   C4A32490   7.425  32.236   7.650
 6808POPC   C1B32491   7.667  32.080   8.550
 6808POPC   C2B32492   7.660  32.107   8.250
 6808POPC   C3B32493   7.603  32.113   7.950
 6808POPC   C4B32494   7.600  32.167   7.650
 6809POPC   NC332495  26.010   2.803   9.450
 6809POPC   PO432496  26.091   2.800   9.150
 6809POPC   GL132497  26.083   2.778   8.850
 6809POPC   GL232498  25.990   2.690   8.850
 6809POPC   C1A32499  26.068   2.801   8.550
 6809POPC   D2A32500  26.054   2.723   8.250
 6809POPC   C3A32501  26.012   2.800   7.950
 6809POPC   C4A32502  26.085   2.785   7.650
 6809POPC   C1B32503  26.001   2.542   8.550
 6809POPC   C2B32504  25.998   2.485   8.250
 6809POPC   C3B32505  25.973   2.471   7.950
 6809POPC   C4B32506  25.975   2.499   7.650
 6810POPC   NC332507   6.662  11.310   9.450
 6810POPC   PO432508   6.652  11.327   9.150
 6810POPC   GL132509   6.694  11.300   8.850
 6810POPC   GL232510   6.694  11.374   8.850
 6810POPC   C1A32511   6.678  11.332   8.550
 6810POPC   D2A32512   6.646  11.335   8.250
 6810POPC   C3A32513   6.671  11.274   7.950
 6810POPC   C4A32514   6.671  11.333   7.650
 6810POPC   C1B32515   6.792  11.464   8.550
 6810POPC   C2B32516   6.868  11.470   8.250
 6810POPC   C3B32517   6.814  11.505   7.950
 6810POPC   C4B32518   6.790  11.484   7.650
 6811POPC   NC332519  27.572  29.909   9.450
 6811POPC   PO432520  27.569  29.875   9.150
 6811POPC   GL132521  27.559  29.951   8.850
 6811POPC   GL232522  27.489  30.010   8.850
 6811POPC   C1A32523  27.641  29.881   8.550
 6811POPC   D2A32524  27.628  29.874   8.250
 6811POPC   C3A32525  27.546  29.961   7.950
 6811POPC   C4A32526  27.594  29.922   7.650
 6811POPC   C1B32527  27.407  30.092   8.550
 6811POPC   C2B32528  27.422  30.140   8.250
 6811POPC   C3B32529  27.434  30.149   7.950
 6811POPC   C4B32530  27.418  30.144   7.650
 6812POPC   NC332531   9.774  28.366   9.450
 6812POPC   PO432532   9.703  28.348   9.150
 6812POPC   GL132533   9.718  28.323   8.850
 6812POPC   GL232534   9.689  28.300   8.850
 6812POPC   C1A32535   9.776  28.350   8.550
 6812POPC   D2A32536   9.754  28.393   8.250
 6812POPC   C3A32537   9.751  28.374   7.950
 6812POPC   C4A32538   9.745  28.405   7.650
 6812POPC   C1B32539   9.651  28.114   8.550
 6812POPC   C2B32540   9.584  28.162   8.250
 6812POPC   C3B32541   9.589  28.131   7.950
 6812POPC   C4B32542   9.610  28.126   7.650
 6813POPC   NC332543  38.464  21.383   9.450
 6813POPC   PO432544  38.488  21.407   9.150
 6813POPC   GL132545  38.436  21.394   8.850
 6813POPC   GL232546  38.573  21.393   8.850
 6813POPC   C1A32547  38.407  21.392   8.550
 6813POPC   D2A32548  38.482  21.433   8.250
 6813POPC   C3A32549  38.476  21.429   7.950
 6813POPC   C4A32550  38.424  21.401   7.650
 6813POPC   C1B32551  38.651  21.466   8.550
 6813POPC   C2B32552  38.722  21.481   8.250
 6813POPC   C3B32553  38.709  21.486   7.950
 6813POPC   C4B32554  38.741  21.429   7.650
 6814POPC   NC332555  36.095  40.760   9.450
 6814POPC   PO432556  36.082  40.780   9.150
 6814POPC   GL132557  36.092  40.792   8.850
 6814POPC   GL232558  36.111  40.886   8.850
 6814POPC   C1A32559  36.133  40.763   8.550
 6814POPC   D2A32560  36.161  40.758   8.250
 6814POPC   C3A32561  36.120  40.792   7.950
 6814POPC   C4A32562  36.150  40.824   7.650
 6814POPC   C1B32563  36.127  41.044   8.550
 6814POPC   C2B32564  36.143  41.076   8.250
 6814POPC   C3B32565  36.199  41.001   7.950
 6814POPC   C4B32566  36.184  41.036   7.650
 6815POPC   NC332567  19.075  18.312   9.450
 6815POPC   PO432568  19.059  18.301   9.150
 6815POPC   GL132569  19.079  18.248   8.850
 6815POPC   GL232570  18.956  18.246   8.850
 6815POPC   C1A32571  19.072  18.332   8.550
 6815POPC   D2A32572  19.083  18.264   8.250
 6815POPC   C3A32573  19.044  18.296   7.950
 6815POPC   C4A32574  19.087  18.279   7.650
 6815POPC   C1B32575  18.883  18.137   8.550
 6815POPC   C2B32576  18.893  18.095   8.250
 6815POPC   C3B32577  18.884  18.166   7.950
 6815POPC   C4B32578  18.851  18.105   7.650
 6816POPC   NC332579  15.187  15.169   9.450
 6816POPC   PO432580  15.153  15.183   9.150
 6816POPC   GL132581  15.217  15.166   8.850
 6816POPC   GL232582  15.035  15.157   8.850
 6816POPC   C1A32583  15.136  15.142   8.550
 6816POPC   D2A32584  15.177  15.150   8.250
 6816POPC   C3A32585  15.195  15.139   7.950
 6816POPC   C4A32586  15.213  15.220   7.650
 6816POPC   C1B32587  14.921  15.089   8.550
 6816POPC   C2B32588  14.961  15.129   8.250
 6816POPC   C3B32589  14.939  15.101   7.950
 6816POPC   C4B32590  14.966  15.089   7.650
 6817POPC   NC332591  25.246  40.799   9.450
 6817POPC   PO432592  25.235  40.794   9.150
 6817POPC   GL132593  25.281  40.763   8.850
 6817POPC   GL232594  25.357  40.834   8.850
 6817POPC   C1A32595  25.274  40.813   8.550
 6817POPC   D2A32596  25.264  40.747   8.250
 6817POPC   C3A32597  25.219  40.760   7.950
 6817POPC   C4A32598  25.253  40.786   7.650
 6817POPC   C1B32599  25.492  40.953   8.550
 6817POPC   C2B32600  25.502  40.934   8.250
 6817POPC   C3B32601  25.502  40.953   7.950
 6817POPC   C4B32602  25.480  40.896   7.650
 6818POPC   NC332603  20.645   8.186   9.450
 6818POPC   PO432604  20.566   8.156   9.150
 6818POPC   GL132605  20.603   8.152   8.850
 6818POPC   GL232606  20.570   8.089   8.850
 6818POPC   C1A32607  20.653   8.162   8.550
 6818POPC   D2A32608  20.592   8.228   8.250
 6818POPC   C3A32609  20.619   8.190   7.950
 6818POPC   C4A32610  20.655   8.197   7.650
 6818POPC   C1B32611  20.427   7.944   8.550
 6818POPC   C2B32612  20.447   7.995   8.250
 6818POPC   C3B32613  20.441   7.950   7.950
 6818POPC   C4B32614  20.426   8.027   7.650
 6819POPC   NC332615  38.492   1.184   9.450
 6819POPC   PO432616  38.463   1.222   9.150
 6819POPC   GL132617  38.430   1.166   8.850
 6819POPC   GL232618  38.514   1.387   8.850
 6819POPC   C1A32619  38.407   1.193   8.550
 6819POPC   D2A32620  38.427   1.230   8.250
 6819POPC   C3A32621  38.487   1.186   7.950
 6819POPC   C4A32622  38.493   1.217   7.650
 6819POPC   C1B32623  38.515   1.448   8.550
 6819POPC   C2B32624  38.510   1.441   8.250
 6819POPC   C3B32625  38.517   1.424   7.950
 6819POPC   C4B32626  38.492   1.454   7.650
 6820POPC   NC332627  29.873  10.574   9.450
 6820POPC   PO432628  29.933  10.490   9.150
 6820POPC   GL132629  29.878  10.554   8.850
 6820POPC   GL232630  29.829  10.666   8.850
 6820POPC   C1A32631  29.896  10.572   8.550
 6820POPC   D2A32632  29.931  10.532   8.250
 6820POPC   C3A32633  29.962  10.566   7.950
 6820POPC   C4A32634  29.901  10.517   7.650
 6820POPC   C1B32635  29.798  10.663   8.550
 6820POPC   C2B32636  29.715  10.720   8.250
 6820POPC   C3B32637  29.804  10.681   7.950
 6820POPC   C4B32638  29.741  10.665   7.650
 6821POPC   NC332639  22.962  43.150   9.450
 6821POPC   PO432640  22.949  43.154   9.150
 6821POPC   GL132641  22.955  43.122   8.850
 6821POPC   GL232642  23.073  43.150   8.850
 6821POPC   C1A32643  22.936  43.083   8.550
 6821POPC   D2A32644  22.917  43.076   8.250
 6821POPC   C3A32645  22.911  43.115   7.950
 6821POPC   C4A32646  22.902  43.072   7.650
 6821POPC   C1B32647  23.161  43.110   8.550
 6821POPC   C2B32648  23.224  43.104   8.250
 6821POPC   C3B32649  23.145  43.121   7.950
 6821POPC   C4B32650  23.178  43.165   7.650
 6822POPC   NC332651   6.629  32.203   9.450
 6822POPC   PO432652   6.647  32.211   9.150
 6822POPC   GL132653   6.627  32.228   8.850
 6822POPC   GL232654   6.597  32.374   8.850
 6822POPC   C1A32655   6.658  32.205   8.550
 6822POPC   D2A32656   6.611  32.208   8.250
 6822POPC   C3A32657   6.690  32.199   7.950
 6822POPC   C4A32658   6.683  32.264   7.650
 6822POPC   C1B32659   6.563  32.543   8.550
 6822POPC   C2B32660   6.628  32.453   8.250
 6822POPC   C3B32661   6.624  32.458   7.950
 6822POPC   C4B32662   6.602  32.480   7.650
 6823POPC   NC332663  26.796  43.146   9.450
 6823POPC   PO432664  26.830  43.142   9.150
 6823POPC   GL132665  26.784  43.128   8.850
 6823POPC   GL232666  26.918  43.241   8.850
 6823POPC   C1A32667  26.796  43.131   8.550
 6823POPC   D2A32668  26.818  43.123   8.250
 6823POPC   C3A32669  26.830  43.099   7.950
 6823POPC   C4A32670  26.826  43.147   7.650
 6823POPC   C1B32671  26.965  43.308   8.550
 6823POPC   C2B32672  26.913  43.358   8.250
 6823POPC   C3B32673  26.890  43.367   7.950
 6823POPC   C4B32674  26.917  43.293   7.650
 6824POPC   NC332675  40.810  32.981   9.450
 6824POPC   PO432676  40.789  33.052   9.150
 6824POPC   GL132677  40.810  33.037   8.850
 6824POPC   GL232678  40.870  32.965   8.850
 6824POPC   C1A32679  40.773  33.022   8.550
 6824POPC   D2A32680  40.800  33.058   8.250
 6824POPC   C3A32681  40.826  33.062   7.950
 6824POPC   C4A32682  40.765  33.032   7.650
 6824POPC   C1B32683  41.015  32.867   8.550
 6824POPC   C2B32684  41.013  32.831   8.250
 6824POPC   C3B32685  40.935  32.888   7.950
 6824POPC   C4B32686  41.012  32.887   7.650
 6825POPC   NC332687  16.744  44.649   9.450
 6825POPC   PO432688  16.762  44.647   9.150
 6825POPC   GL132689  16.683  44.642   8.850
 6825POPC   GL232690  16.702  44.741   8.850
 6825POPC   C1A32691  16.759  44.622   8.550
 6825POPC   D2A32692  16.695  44.695   8.250
 6825POPC   C3A32693  16.760  44.632   7.950
 6825POPC   C4A32694  16.686  44.663   7.650
 6825POPC   C1B32695  16.778  44.890   8.550
 6825POPC   C2B32696  16.773  44.936   8.250
 6825POPC   C3B32697  16.744  44.888   7.950
 6825POPC   C4B32698  16.787  44.960   7.650
 6826POPC   NC332699  29.875   9.706   9.450
 6826POPC   PO432700  29.894   9.719   9.150
 6826POPC   GL132701  29.912   9.792   8.850
 6826POPC   GL232702  29.915   9.587   8.850
 6826POPC   C1A32703  29.963   9.743   8.550
 6826POPC   D2A32704  29.905   9.746   8.250
 6826POPC   C3A32705  29.908   9.720   7.950
 6826POPC   C4A32706  29.932   9.748   7.650
 6826POPC   C1B32707  29.855   9.504   8.550
 6826POPC   C2B32708  29.841   9.503   8.250
 6826POPC   C3B32709  29.915   9.542   7.950
 6826POPC   C4B32710  29.910   9.460   7.650
 6827POPC   NC332711   5.051   5.073   9.450
 6827POPC   PO432712   5.093   5.076   9.150
 6827POPC   GL132713   5.058   5.075   8.850
 6827POPC   GL232714   5.204   5.155   8.850
 6827POPC   C1A32715   5.052   5.123   8.550
 6827POPC   D2A32716   5.140   5.109   8.250
 6827POPC   C3A32717   5.048   5.118   7.950
 6827POPC   C4A32718   5.052   5.133   7.650
 6827POPC   C1B32719   5.305   5.151   8.550
 6827POPC   C2B32720   5.365   5.224   8.250
 6827POPC   C3B32721   5.334   5.159   7.950
 6827POPC   C4B32722   5.363   5.172   7.650
 6828POPC   NC332723  41.556  10.549   9.450
 6828POPC   PO432724  41.567  10.552   9.150
 6828POPC   GL132725  41.551  10.569   8.850
 6828POPC   GL232726  41.539  10.369   8.850
 6828POPC   C1A32727  41.536  10.496   8.550
 6828POPC   D2A32728  41.547  10.561   8.250
 6828POPC   C3A32729  41.603  10.529   7.950
 6828POPC   C4A32730  41.583  10.568   7.650
 6828POPC   C1B32731  41.592  10.281   8.550
 6828POPC   C2B32732  41.592  10.226   8.250
 6828POPC   C3B32733  41.611  10.308   7.950
 6828POPC   C4B32734  41.603  10.238   7.650
 6829POPC   NC332735  40.771  30.729   9.450
 6829POPC   PO432736  40.783  30.673   9.150
 6829POPC   GL132737  40.744  30.732   8.850
 6829POPC   GL232738  40.703  30.654   8.850
 6829POPC   C1A32739  40.799  30.689   8.550
 6829POPC   D2A32740  40.786  30.686   8.250
 6829POPC   C3A32741  40.794  30.656   7.950
 6829POPC   C4A32742  40.799  30.671   7.650
 6829POPC   C1B32743  40.492  30.702   8.550
 6829POPC   C2B32744  40.512  30.708   8.250
 6829POPC   C3B32745  40.492  30.673   7.950
 6829POPC   C4B32746  40.515  30.673   7.650
 6830POPC   NC332747  16.722  15.182   9.450
 6830POPC   PO432748  16.753  15.212   9.150
 6830POPC   GL132749  16.693  15.216   8.850
 6830POPC   GL232750  16.724  15.065   8.850
 6830POPC   C1A32751  16.689  15.148   8.550
 6830POPC   D2A32752  16.768  15.205   8.250
 6830POPC   C3A32753  16.725  15.136   7.950
 6830POPC   C4A32754  16.779  15.217   7.650
 6830POPC   C1B32755  16.651  14.940   8.550
 6830POPC   C2B32756  16.662  14.957   8.250
 6830POPC   C3B32757  16.610  14.988   7.950
 6830POPC   C4B32758  16.603  14.933   7.650
 6831POPC   NC332759  32.251  10.478   9.450
 6831POPC   PO432760  32.216  10.552   9.150
 6831POPC   GL132761  32.283  10.572   8.850
 6831POPC   GL232762  32.243  10.380   8.850
 6831POPC   C1A32763  32.216  10.482   8.550
 6831POPC   D2A32764  32.202  10.541   8.250
 6831POPC   C3A32765  32.233  10.563   7.950
 6831POPC   C4A32766  32.218  10.560   7.650
 6831POPC   C1B32767  32.243  10.246   8.550
 6831POPC   C2B32768  32.255  10.302   8.250
 6831POPC   C3B32769  32.304  10.318   7.950
 6831POPC   C4B32770  32.225  10.240   7.650
 6832POPC   NC332771  43.867  12.092   9.450
 6832POPC   PO432772  43.924  12.094   9.150
 6832POPC   GL132773  43.894  12.067   8.850
 6832POPC   GL232774  43.840  12.246   8.850
 6832POPC   C1A32775  43.886  12.029   8.550
 6832POPC   D2A32776  43.905  12.083   8.250
 6832POPC   C3A32777  43.912  12.098   7.950
 6832POPC   C4A32778  43.860  12.123   7.650
 6832POPC   C1B32779  43.810  12.350   8.550
 6832POPC   C2B32780  43.874  12.294   8.250
 6832POPC   C3B32781  43.833  12.328   7.950
 6832POPC   C4B32782  43.869  12.327   7.650
 6833POPC   NC332783  22.154  33.051   9.450
 6833POPC   PO432784  22.122  32.976   9.150
 6833POPC   GL132785  22.207  32.981   8.850
 6833POPC   GL232786  22.058  32.898   8.850
 6833POPC   C1A32787  22.152  32.998   8.550
 6833POPC   D2A32788  22.193  32.983   8.250
 6833POPC   C3A32789  22.144  33.055   7.950
 6833POPC   C4A32790  22.192  32.987   7.650
 6833POPC   C1B32791  21.967  32.833   8.550
 6833POPC   C2B32792  21.953  32.853   8.250
 6833POPC   C3B32793  22.024  32.879   7.950
 6833POPC   C4B32794  22.017  32.844   7.650
 6834POPC   NC332795   2.775  10.500   9.450
 6834POPC   PO432796   2.794  10.572   9.150
 6834POPC   GL132797   2.746  10.514   8.850
 6834POPC   GL232798   2.691  10.652   8.850
 6834POPC   C1A32799   2.716  10.558   8.550
 6834POPC   D2A32800   2.717  10.523   8.250
 6834POPC   C3A32801   2.763  10.477   7.950
 6834POPC   C4A32802   2.784  10.483   7.650
 6834POPC   C1B32803   2.688  10.753   8.550
 6834POPC   C2B32804   2.641  10.755   8.250
 6834POPC   C3B32805   2.666  10.764   7.950
 6834POPC   C4B32806   2.618  10.722   7.650
 6835POPC   NC332807  44.646  21.339   9.450
 6835POPC   PO432808  44.677  21.360   9.150
 6835POPC   GL132809  44.673  21.413   8.850
 6835POPC   GL232810  44.647  21.301   8.850
 6835POPC   C1A32811  44.624  21.386   8.550
 6835POPC   D2A32812  44.707  21.435   8.250
 6835POPC   C3A32813  44.694  21.345   7.950
 6835POPC   C4A32814  44.661  21.350   7.650
 6835POPC   C1B32815  44.632  21.122   8.550
 6835POPC   C2B32816  44.596  21.184   8.250
 6835POPC   C3B32817  44.566  21.110   7.950
 6835POPC   C4B32818  44.626  21.145   7.650
 6836POPC   NC332819  34.532  29.131   9.450
 6836POPC   PO432820  34.533  29.179   9.150
 6836POPC   GL132821  34.600  29.128   8.850
 6836POPC   GL232822  34.552  29.307   8.850
 6836POPC   C1A32823  34.617  29.172   8.550
 6836POPC   D2A32824  34.559  29.115   8.250
 6836POPC   C3A32825  34.613  29.108   7.950
 6836POPC   C4A32826  34.603  29.187   7.650
 6836POPC   C1B32827  34.544  29.377   8.550
 6836POPC   C2B32828  34.566  29.369   8.250
 6836POPC   C3B32829  34.584  29.428   7.950
 6836POPC   C4B32830  34.621  29.438   7.650
 6837POPC   NC332831  21.397  35.320   9.450
 6837POPC   PO432832  21.431  35.313   9.150
 6837POPC   GL132833  21.381  35.360   8.850
 6837POPC   GL232834  21.411  35.442   8.850
 6837POPC   C1A32835  21.410  35.340   8.550
 6837POPC   D2A32836  21.425  35.356   8.250
 6837POPC   C3A32837  21.367  35.384   7.950
 6837POPC   C4A32838  21.369  35.345   7.650
 6837POPC   C1B32839  21.498  35.577   8.550
 6837POPC   C2B32840  21.495  35.566   8.250
 6837POPC   C3B32841  21.560  35.585   7.950
 6837POPC   C4B32842  21.565  35.589   7.650
 6838POPC   NC332843   5.130  29.950   9.450
 6838POPC   PO432844   5.059  29.922   9.150
 6838POPC   GL132845   5.055  29.938   8.850
 6838POPC   GL232846   5.222  29.986   8.850
 6838POPC   C1A32847   5.066  29.902   8.550
 6838POPC   D2A32848   5.116  29.962   8.250
 6838POPC   C3A32849   5.113  29.963   7.950
 6838POPC   C4A32850   5.082  29.929   7.650
 6838POPC   C1B32851   5.269  30.074   8.550
 6838POPC   C2B32852   5.239  30.064   8.250
 6838POPC   C3B32853   5.305  30.064   7.950
 6838POPC   C4B32854   5.293  30.117   7.650
 6839POPC   NC332855  22.901  18.329   9.450
 6839POPC   PO432856  22.984  18.277   9.150
 6839POPC   GL132857  22.899  18.291   8.850
 6839POPC   GL232858  23.106  18.247   8.850
 6839POPC   C1A32859  22.907  18.281   8.550
 6839POPC   D2A32860  22.902  18.302   8.250
 6839POPC   C3A32861  22.904  18.314   7.950
 6839POPC   C4A32862  22.963  18.265   7.650
 6839POPC   C1B32863  23.140  18.316   8.550
 6839POPC   C2B32864  23.163  18.304   8.250
 6839POPC   C3B32865  23.210  18.316   7.950
 6839POPC   C4B32866  23.173  18.272   7.650
 6840POPC   NC332867  42.291  12.873   9.450
 6840POPC   PO432868  42.292  12.834   9.150
 6840POPC   GL132869  42.348  12.813   8.850
 6840POPC   GL232870  42.266  12.984   8.850
 6840POPC   C1A32871  42.319  12.815   8.550
 6840POPC   D2A32872  42.361  12.843   8.250
 6840POPC   C3A32873  42.323  12.850   7.950
 6840POPC   C4A32874  42.289  12.812   7.650
 6840POPC   C1B32875  42.172  13.050   8.550
 6840POPC   C2B32876  42.209  13.005   8.250
 6840POPC   C3B32877  42.148  13.011   7.950
 6840POPC   C4B32878  42.200  13.004   7.650
 6841POPC   NC332879  43.115   4.316   9.450
 6841POPC   PO432880  43.090   4.365   9.150
 6841POPC   GL132881  43.062   4.341   8.850
 6841POPC   GL232882  43.123   4.418   8.850
 6841POPC   C1A32883  43.145   4.345   8.550
 6841POPC   D2A32884  43.157   4.345   8.250
 6841POPC   C3A32885  43.144   4.271   7.950
 6841POPC   C4A32886  43.070   4.339   7.650
 6841POPC   C1B32887  43.212   4.525   8.550
 6841POPC   C2B32888  43.139   4.530   8.250
 6841POPC   C3B32889  43.180   4.550   7.950
 6841POPC   C4B32890  43.150   4.554   7.650
 6842POPC   NC332891  13.609  27.604   9.450
 6842POPC   PO432892  13.578  27.580   9.150
 6842POPC   GL132893  13.620  27.592   8.850
 6842POPC   GL232894  13.470  27.586   8.850
 6842POPC   C1A32895  13.614  27.576   8.550
 6842POPC   D2A32896  13.664  27.628   8.250
 6842POPC   C3A32897  13.600  27.583   7.950
 6842POPC   C4A32898  13.602  27.641   7.650
 6842POPC   C1B32899  13.371  27.499   8.550
 6842POPC   C2B32900  13.368  27.522   8.250
 6842POPC   C3B32901  13.374  27.448   7.950
 6842POPC   C4B32902  13.392  27.506   7.650
 6843POPC   NC332903  32.980  11.319   9.450
 6843POPC   PO432904  32.985  11.311   9.150
 6843POPC   GL132905  32.976  11.331   8.850
 6843POPC   GL232906  33.124  11.175   8.850
 6843POPC   C1A32907  32.979  11.266   8.550
 6843POPC   D2A32908  33.052  11.347   8.250
 6843POPC   C3A32909  32.998  11.286   7.950
 6843POPC   C4A32910  33.057  11.332   7.650
 6843POPC   C1B32911  33.175  11.158   8.550
 6843POPC   C2B32912  33.219  11.106   8.250
 6843POPC   C3B32913  33.202  11.065   7.950
 6843POPC   C4B32914  33.195  11.068   7.650
 6844POPC   NC332915   5.061  39.218   9.450
 6844POPC   PO432916   5.114  39.233   9.150
 6844POPC   GL132917   5.065  39.182   8.850
 6844POPC   GL232918   5.055  39.354   8.850
 6844POPC   C1A32919   5.116  39.222   8.550
 6844POPC   D2A32920   5.043  39.249   8.250
 6844POPC   C3A32921   5.061  39.225   7.950
 6844POPC   C4A32922   5.076  39.203   7.650
 6844POPC   C1B32923   5.013  39.465   8.550
 6844POPC   C2B32924   4.990  39.462   8.250
 6844POPC   C3B32925   5.039  39.499   7.950
 6844POPC   C4B32926   4.958  39.472   7.650
 6845POPC   NC332927  16.749  40.748   9.450
 6845POPC   PO432928  16.716  40.797   9.150
 6845POPC   GL132929  16.731  40.820   8.850
 6845POPC   GL232930  16.690  40.666   8.850
 6845POPC   C1A32931  16.712  40.808   8.550
 6845POPC   D2A32932  16.732  40.738   8.250
 6845POPC   C3A32933  16.771  40.775   7.950
 6845POPC   C4A32934  16.682  40.815   7.650
 6845POPC   C1B32935  16.715  40.496   8.550
 6845POPC   C2B32936  16.726  40.565   8.250
 6845POPC   C3B32937  16.787  40.530   7.950
 6845POPC   C4B32938  16.752  40.549   7.650
 6846POPC   NC332939  36.098  37.657   9.450
 6846POPC   PO432940  36.144  37.641   9.150
 6846POPC   GL132941  36.152  37.678   8.850
 6846POPC   GL232942  36.191  37.815   8.850
 6846POPC   C1A32943  36.137  37.707   8.550
 6846POPC   D2A32944  36.114  37.675   8.250
 6846POPC   C3A32945  36.149  37.647   7.950
 6846POPC   C4A32946  36.171  37.654   7.650
 6846POPC   C1B32947  36.248  37.914   8.550
 6846POPC   C2B32948  36.335  37.914   8.250
 6846POPC   C3B32949  36.276  37.876   7.950
 6846POPC   C4B32950  36.284  37.882   7.650
 6847POPC   NC332951  28.360   4.321   9.450
 6847POPC   PO432952  28.409   4.323   9.150
 6847POPC   GL132953  28.419   4.360   8.850
 6847POPC   GL232954  28.351   4.439   8.850
 6847POPC   C1A32955  28.397   4.292   8.550
 6847POPC   D2A32956  28.379   4.358   8.250
 6847POPC   C3A32957  28.347   4.340   7.950
 6847POPC   C4A32958  28.341   4.271   7.650
 6847POPC   C1B32959  28.229   4.518   8.550
 6847POPC   C2B32960  28.316   4.573   8.250
 6847POPC   C3B32961  28.285   4.548   7.950
 6847POPC   C4B32962  28.229   4.553   7.650
 6848POPC   NC332963  12.088  12.855   9.450
 6848POPC   PO432964  12.076  12.858   9.150
 6848POPC   GL132965  12.089  12.890   8.850
 6848POPC   GL232966  12.183  12.730   8.850
 6848POPC   C1A32967  12.119  12.867   8.550
 6848POPC   D2A32968  12.086  12.813   8.250
 6848POPC   C3A32969  12.080  12.874   7.950
 6848POPC   C4A32970  12.049  12.896   7.650
 6848POPC   C1B32971  12.283  12.635   8.550
 6848POPC   C2B32972  12.250  12.705   8.250
 6848POPC   C3B32973  12.220  12.646   7.950
 6848POPC   C4B32974  12.279  12.717   7.650
 6849POPC   NC332975  14.396  41.558   9.450
 6849POPC   PO432976  14.398  41.514   9.150
 6849POPC   GL132977  14.418  41.547   8.850
 6849POPC   GL232978  14.380  41.408   8.850
 6849POPC   C1A32979  14.446  41.581   8.550
 6849POPC   D2A32980  14.420  41.556   8.250
 6849POPC   C3A32981  14.415  41.583   7.950
 6849POPC   C4A32982  14.428  41.511   7.650
 6849POPC   C1B32983  14.369  41.360   8.550
 6849POPC   C2B32984  14.377  41.279   8.250
 6849POPC   C3B32985  14.400  41.345   7.950
 6849POPC   C4B32986  14.386  41.327   7.650
 6850POPC   NC332987  37.659  12.066   9.450
 6850POPC   PO432988  37.685  12.040   9.150
 6850POPC   GL132989  37.723  12.059   8.850
 6850POPC   GL232990  37.781  12.109   8.850
 6850POPC   C1A32991  37.651  12.096   8.550
 6850POPC   D2A32992  37.675  12.106   8.250
 6850POPC   C3A32993  37.695  12.104   7.950
 6850POPC   C4A32994  37.637  12.095   7.650
 6850POPC   C1B32995  37.876  12.261   8.550
 6850POPC   C2B32996  37.923  12.228   8.250
 6850POPC   C3B32997  37.870  12.207   7.950
 6850POPC   C4B32998  37.847  12.231   7.650
 6851POPC   NC332999  21.376  27.620   9.450
 6851POPC   PO433000  21.413  27.627   9.150
 6851POPC   GL133001  21.343  27.579   8.850
 6851POPC   GL233002  21.504  27.462   8.850
 6851POPC   C1A33003  21.415  27.594   8.550
 6851POPC   D2A33004  21.401  27.602   8.250
 6851POPC   C3A33005  21.356  27.587   7.950
 6851POPC   C4A33006  21.370  27.578   7.650
 6851POPC   C1B33007  21.564  27.378   8.550
 6851POPC   C2B33008  21.572  27.466   8.250
 6851POPC   C3B33009  21.533  27.449   7.950
 6851POPC   C4B33010  21.561  27.427   7.650
 6852POPC   NC333011  33.055  15.941   9.450
 6852POPC   PO433012  33.073  15.956   9.150
 6852POPC   GL133013  33.058  15.941   8.850
 6852POPC   GL233014  32.879  15.919   8.850
 6852POPC   C1A33015  33.032  15.944   8.550
 6852POPC   D2A33016  33.073  15.939   8.250
 6852POPC   C3A33017  33.061  15.944   7.950
 6852POPC   C4A33018  33.063  15.997   7.650
 6852POPC   C1B33019  32.800  15.860   8.550
 6852POPC   C2B33020  32.770  15.884   8.250
 6852POPC   C3B33021  32.826  15.808   7.950
 6852POPC   C4B33022  32.843  15.840   7.650
 6853POPC   NC333023  16.708  31.467   9.450
 6853POPC   PO433024  16.721  31.468   9.150
 6853POPC   GL133025  16.700  31.470   8.850
 6853POPC   GL233026  16.611  31.531   8.850
 6853POPC   C1A33027  16.722  31.426   8.550
 6853POPC   D2A33028  16.772  31.451   8.250
 6853POPC   C3A33029  16.751  31.499   7.950
 6853POPC   C4A33030  16.693  31.466   7.650
 6853POPC   C1B33031  16.542  31.634   8.550
 6853POPC   C2B33032  16.544  31.646   8.250
 6853POPC   C3B33033  16.561  31.644   7.950
 6853POPC   C4B33034  16.517  31.701   7.650
 6854POPC   NC333035  44.672  29.169   9.450
 6854POPC   PO433036  44.711  29.146   9.150
 6854POPC   GL133037  44.653  29.115   8.850
 6854POPC   GL233038  44.749  29.094   8.850
 6854POPC   C1A33039  44.658  29.100   8.550
 6854POPC   D2A33040  44.671  29.122   8.250
 6854POPC   C3A33041  44.652  29.178   7.950
 6854POPC   C4A33042  44.700  29.102   7.650
 6854POPC   C1B33043  44.951  29.142   8.550
 6854POPC   C2B33044  44.876  29.095   8.250
 6854POPC   C3B33045  44.943  29.141   7.950
 6854POPC   C4B33046  44.945  29.156   7.650
 6855POPC   NC333047  42.351  13.609   9.450
 6855POPC   PO433048  42.313  13.647   9.150
 6855POPC   GL133049  42.366  13.636   8.850
 6855POPC   GL233050  42.343  13.544   8.850
 6855POPC   C1A33051  42.308  13.649   8.550
 6855POPC   D2A33052  42.367  13.613   8.250
 6855POPC   C3A33053  42.311  13.631   7.950
 6855POPC   C4A33054  42.319  13.651   7.650
 6855POPC   C1B33055  42.314  13.382   8.550
 6855POPC   C2B33056  42.299  13.348   8.250
 6855POPC   C3B33057  42.292  13.360   7.950
 6855POPC   C4B33058  42.271  13.351   7.650
 6856POPC   NC333059   1.971  30.702   9.450
 6856POPC   PO433060   2.010  30.684   9.150
 6856POPC   GL133061   1.984  30.736   8.850
 6856POPC   GL233062   2.018  30.850   8.850
 6856POPC   C1A33063   1.981  30.734   8.550
 6856POPC   D2A33064   1.990  30.672   8.250
 6856POPC   C3A33065   1.984  30.705   7.950
 6856POPC   C4A33066   1.981  30.656   7.650
 6856POPC   C1B33067   2.065  30.972   8.550
 6856POPC   C2B33068   2.018  30.988   8.250
 6856POPC   C3B33069   2.015  30.912   7.950
 6856POPC   C4B33070   2.052  30.943   7.650
 6857POPC   NC333071  10.519   9.720   9.450
 6857POPC   PO433072  10.505   9.724   9.150
 6857POPC   GL133073  10.506   9.705   8.850
 6857POPC   GL233074  10.595   9.898   8.850
 6857POPC   C1A33075  10.538   9.779   8.550
 6857POPC   D2A33076  10.541   9.743   8.250
 6857POPC   C3A33077  10.550   9.784   7.950
 6857POPC   C4A33078  10.533   9.786   7.650
 6857POPC   C1B33079  10.667  10.002   8.550
 6857POPC   C2B33080  10.659   9.965   8.250
 6857POPC   C3B33081  10.656   9.943   7.950
 6857POPC   C4B33082  10.663   9.963   7.650
 6858POPC   NC333083   2.813   7.412   9.450
 6858POPC   PO433084   2.733   7.401   9.150
 6858POPC   GL133085   2.798   7.467   8.850
 6858POPC   GL233086   2.738   7.311   8.850
 6858POPC   C1A33087   2.765   7.371   8.550
 6858POPC   D2A33088   2.765   7.449   8.250
 6858POPC   C3A33089   2.787   7.396   7.950
 6858POPC   C4A33090   2.737   7.411   7.650
 6858POPC   C1B33091   2.592   7.267   8.550
 6858POPC   C2B33092   2.622   7.251   8.250
 6858POPC   C3B33093   2.631   7.201   7.950
 6858POPC   C4B33094   2.665   7.246   7.650
 6859POPC   NC333095   1.246  44.701   9.450
 6859POPC   PO433096   1.182  44.703   9.150
 6859POPC   GL133097   1.230  44.707   8.850
 6859POPC   GL233098   1.336  44.669   8.850
 6859POPC   C1A33099   1.211  44.642   8.550
 6859POPC   D2A33100   1.249  44.662   8.250
 6859POPC   C3A33101   1.257  44.638   7.950
 6859POPC   C4A33102   1.202  44.632   7.650
 6859POPC   C1B33103   1.440  44.650   8.550
 6859POPC   C2B33104   1.464  44.737   8.250
 6859POPC   C3B33105   1.439  44.685   7.950
 6859POPC   C4B33106   1.466  44.657   7.650
 6860POPC   NC333107  21.346  31.444   9.450
 6860POPC   PO433108  21.345  31.461   9.150
 6860POPC   GL133109  21.405  31.423   8.850
 6860POPC   GL233110  21.414  31.572   8.850
 6860POPC   C1A33111  21.424  31.467   8.550
 6860POPC   D2A33112  21.399  31.509   8.250
 6860POPC   C3A33113  21.369  31.455   7.950
 6860POPC   C4A33114  21.409  31.459   7.650
 6860POPC   C1B33115  21.516  31.735   8.550
 6860POPC   C2B33116  21.499  31.657   8.250
 6860POPC   C3B33117  21.434  31.690   7.950
 6860POPC   C4B33118  21.510  31.738   7.650
 6861POPC   NC333119  43.071  22.968   9.450
 6861POPC   PO433120  43.074  22.888   9.150
 6861POPC   GL133121  43.129  22.962   8.850
 6861POPC   GL233122  42.962  22.907   8.850
 6861POPC   C1A33123  43.094  22.985   8.550
 6861POPC   D2A33124  43.129  22.979   8.250
 6861POPC   C3A33125  43.125  22.903   7.950
 6861POPC   C4A33126  43.119  22.950   7.650
 6861POPC   C1B33127  42.896  22.920   8.550
 6861POPC   C2B33128  42.890  22.917   8.250
 6861POPC   C3B33129  42.849  22.878   7.950
 6861POPC   C4B33130  42.898  22.830   7.650
 6862POPC   NC333131   8.223  32.235   9.450
 6862POPC   PO433132   8.152  32.296   9.150
 6862POPC   GL133133   8.183  32.298   8.850
 6862POPC   GL233134   8.124  32.163   8.850
 6862POPC   C1A33135   8.170  32.237   8.550
 6862POPC   D2A33136   8.240  32.293   8.250
 6862POPC   C3A33137   8.178  32.239   7.950
 6862POPC   C4A33138   8.215  32.283   7.650
 6862POPC   C1B33139   8.002  32.030   8.550
 6862POPC   C2B33140   8.045  32.003   8.250
 6862POPC   C3B33141   8.089  32.065   7.950
 6862POPC   C4B33142   8.012  32.037   7.650
 6863POPC   NC333143   5.115  20.640   9.450
 6863POPC   PO433144   5.129  20.650   9.150
 6863POPC   GL133145   5.044  20.638   8.850
 6863POPC   GL233146   5.261  20.648   8.850
 6863POPC   C1A33147   5.061  20.593   8.550
 6863POPC   D2A33148   5.093  20.644   8.250
 6863POPC   C3A33149   5.053  20.637   7.950
 6863POPC   C4A33150   5.124  20.595   7.650
 6863POPC   C1B33151   5.365  20.643   8.550
 6863POPC   C2B33152   5.362  20.666   8.250
 6863POPC   C3B33153   5.386  20.637   7.950
 6863POPC   C4B33154   5.347  20.655   7.650
 6864POPC   NC333155  12.093  19.817   9.450
 6864POPC   PO433156  12.062  19.874   9.150
 6864POPC   GL133157  12.048  19.850   8.850
 6864POPC   GL233158  12.210  19.824   8.850
 6864POPC   C1A33159  12.091  19.881   8.550
 6864POPC   D2A33160  12.028  19.791   8.250
 6864POPC   C3A33161  12.035  19.802   7.950
 6864POPC   C4A33162  12.084  19.859   7.650
 6864POPC   C1B33163  12.283  19.782   8.550
 6864POPC   C2B33164  12.309  19.776   8.250
 6864POPC   C3B33165  12.332  19.862   7.950
 6864POPC   C4B33166  12.301  19.831   7.650
 6865POPC   NC333167   1.262   1.251   9.450
 6865POPC   PO433168   1.194   1.241   9.150
 6865POPC   GL133169   1.261   1.256   8.850
 6865POPC   GL233170   1.304   1.171   8.850
 6865POPC   C1A33171   1.239   1.255   8.550
 6865POPC   D2A33172   1.233   1.230   8.250
 6865POPC   C3A33173   1.205   1.207   7.950
 6865POPC   C4A33174   1.225   1.201   7.650
 6865POPC   C1B33175   1.360   1.083   8.550
 6865POPC   C2B33176   1.368   1.016   8.250
 6865POPC   C3B33177   1.427   1.016   7.950
 6865POPC   C4B33178   1.452   1.005   7.650
 6866POPC   NC333179  27.623  23.697   9.450
 6866POPC   PO433180  27.610  23.758   9.150
 6866POPC   GL133181  27.589  23.713   8.850
 6866POPC   GL233182  27.607  23.807   8.850
 6866POPC   C1A33183  27.619  23.729   8.550
 6866POPC   D2A33184  27.558  23.693   8.250
 6866POPC   C3A33185  27.583  23.711   7.950
 6866POPC   C4A33186  27.601  23.698   7.650
 6866POPC   C1B33187  27.623  24.010   8.550
 6866POPC   C2B33188  27.556  23.933   8.250
 6866POPC   C3B33189  27.645  23.955   7.950
 6866POPC   C4B33190  27.629  24.012   7.650
 6867POPC   NC333191  30.692   0.433   9.450
 6867POPC   PO433192  30.743   0.396   9.150
 6867POPC   GL133193  30.708   0.431   8.850
 6867POPC   GL233194  30.589   0.528   8.850
 6867POPC   C1A33195  30.693   0.483   8.550
 6867POPC   D2A33196  30.705   0.467   8.250
 6867POPC   C3A33197  30.726   0.399   7.950
 6867POPC   C4A33198  30.716   0.475   7.650
 6867POPC   C1B33199  30.521   0.631   8.550
 6867POPC   C2B33200  30.462   0.594   8.250
 6867POPC   C3B33201  30.536   0.635   7.950
 6867POPC   C4B33202  30.463   0.632   7.650
 6868POPC   NC333203  33.066  22.187   9.450
 6868POPC   PO433204  33.012  22.199   9.150
 6868POPC   GL133205  32.999  22.114   8.850
 6868POPC   GL233206  32.953  22.080   8.850
 6868POPC   C1A33207  33.016  22.128   8.550
 6868POPC   D2A33208  33.055  22.176   8.250
 6868POPC   C3A33209  33.030  22.178   7.950
 6868POPC   C4A33210  33.019  22.157   7.650
 6868POPC   C1B33211  32.833  22.010   8.550
 6868POPC   C2B33212  32.861  22.010   8.250
 6868POPC   C3B33213  32.813  21.969   7.950
 6868POPC   C4B33214  32.806  22.014   7.650
 6869POPC   NC333215  22.142  16.719   9.450
 6869POPC   PO433216  22.187  16.725   9.150
 6869POPC   GL133217  22.193  16.752   8.850
 6869POPC   GL233218  22.090  16.768   8.850
 6869POPC   C1A33219  22.207  16.682   8.550
 6869POPC   D2A33220  22.172  16.724   8.250
 6869POPC   C3A33221  22.124  16.775   7.950
 6869POPC   C4A33222  22.132  16.706   7.650
 6869POPC   C1B33223  21.892  16.816   8.550
 6869POPC   C2B33224  21.960  16.813   8.250
 6869POPC   C3B33225  21.956  16.835   7.950
 6869POPC   C4B33226  21.907  16.847   7.650
 6870POPC   NC333227   0.438  12.844   9.450
 6870POPC   PO433228   0.415  12.854   9.150
 6870POPC   GL133229   0.403  12.868   8.850
 6870POPC   GL233230   0.329  12.792   8.850
 6870POPC   C1A33231   0.446  12.824   8.550
 6870POPC   D2A33232   0.457  12.852   8.250
 6870POPC   C3A33233   0.487  12.880   7.950
 6870POPC   C4A33234   0.469  12.830   7.650
 6870POPC   C1B33235   0.206  12.715   8.550
 6870POPC   C2B33236   0.189  12.767   8.250
 6870POPC   C3B33237   0.183  12.701   7.950
 6870POPC   C4B33238   0.203  12.759   7.650
 6871POPC   NC333239  21.414   4.285   9.450
 6871POPC   PO433240  21.366   4.296   9.150
 6871POPC   GL133241  21.398   4.344   8.850
 6871POPC   GL233242  21.315   4.401   8.850
 6871POPC   C1A33243  21.381   4.315   8.550
 6871POPC   D2A33244  21.352   4.305   8.250
 6871POPC   C3A33245  21.343   4.340   7.950
 6871POPC   C4A33246  21.371   4.350   7.650
 6871POPC   C1B33247  21.335   4.565   8.550
 6871POPC   C2B33248  21.335   4.571   8.250
 6871POPC   C3B33249  21.295   4.594   7.950
 6871POPC   C4B33250  21.312   4.548   7.650
 6872POPC   NC333251   3.501   5.822   9.450
 6872POPC   PO433252   3.511   5.914   9.150
 6872POPC   GL133253   3.547   5.910   8.850
 6872POPC   GL233254   3.530   5.799   8.850
 6872POPC   C1A33255   3.554   5.915   8.550
 6872POPC   D2A33256   3.539   5.913   8.250
 6872POPC   C3A33257   3.576   5.825   7.950
 6872POPC   C4A33258   3.558   5.893   7.650
 6872POPC   C1B33259   3.452   5.605   8.550
 6872POPC   C2B33260   3.449   5.629   8.250
 6872POPC   C3B33261   3.458   5.609   7.950
 6872POPC   C4B33262   3.488   5.624   7.650
 6873POPC   NC333263  36.923  32.263   9.450
 6873POPC   PO433264  36.904  32.244   9.150
 6873POPC   GL133265  36.928  32.287   8.850
 6873POPC   GL233266  36.932  32.162   8.850
 6873POPC   C1A33267  36.869  32.251   8.550
 6873POPC   D2A33268  36.878  32.250   8.250
 6873POPC   C3A33269  36.867  32.236   7.950
 6873POPC   C4A33270  36.937  32.226   7.650
 6873POPC   C1B33271  37.061  32.043   8.550
 6873POPC   C2B33272  37.000  32.049   8.250
 6873POPC   C3B33273  36.985  32.038   7.950
 6873POPC   C4B33274  36.981  32.061   7.650
 6874POPC   NC333275  17.535  35.358   9.450
 6874POPC   PO433276  17.526  35.392   9.150
 6874POPC   GL133277  17.505  35.349   8.850
 6874POPC   GL233278  17.515  35.200   8.850
 6874POPC   C1A33279  17.477  35.400   8.550
 6874POPC   D2A33280  17.480  35.349   8.250
 6874POPC   C3A33281  17.494  35.357   7.950
 6874POPC   C4A33282  17.474  35.361   7.650
 6874POPC   C1B33283  17.487  35.105   8.550
 6874POPC   C2B33284  17.414  35.072   8.250
 6874POPC   C3B33285  17.422  35.079   7.950
 6874POPC   C4B33286  17.504  35.096   7.650
 6875POPC   NC333287  30.714  44.683   9.450
 6875POPC   PO433288  30.707  44.668   9.150
 6875POPC   GL133289  30.667  44.626   8.850
 6875POPC   GL233290  30.802  44.730   8.850
 6875POPC   C1A33291  30.657  44.663   8.550
 6875POPC   D2A33292  30.670  44.640   8.250
 6875POPC   C3A33293  30.706  44.654   7.950
 6875POPC   C4A33294  30.661  44.658   7.650
 6875POPC   C1B33295  30.830  44.905   8.550
 6875POPC   C2B33296  30.793  44.889   8.250
 6875POPC   C3B33297  30.861  44.865   7.950
 6875POPC   C4B33298  30.779  44.932   7.650
 6876POPC   NC333299  28.394  22.938   9.450
 6876POPC   PO433300  28.321  22.907   9.150
 6876POPC   GL133301  28.394  22.932   8.850
 6876POPC   GL233302  28.350  23.101   8.850
 6876POPC   C1A33303  28.378  22.939   8.550
 6876POPC   D2A33304  28.349  22.986   8.250
 6876POPC   C3A33305  28.375  22.904   7.950
 6876POPC   C4A33306  28.353  22.899   7.650
 6876POPC   C1B33307  28.313  23.230   8.550
 6876POPC   C2B33308  28.293  23.212   8.250
 6876POPC   C3B33309  28.302  23.215   7.950
 6876POPC   C4B33310  28.325  23.183   7.650
 6877POPC   NC333311   1.231   2.807   9.450
 6877POPC   PO433312   1.235   2.792   9.150
 6877POPC   GL133313   1.198   2.774   8.850
 6877POPC   GL233314   1.158   2.648   8.850
 6877POPC   C1A33315   1.194   2.783   8.550
 6877POPC   D2A33316   1.256   2.773   8.250
 6877POPC   C3A33317   1.250   2.735   7.950
 6877POPC   C4A33318   1.178   2.721   7.650
 6877POPC   C1B33319   1.066   2.574   8.550
 6877POPC   C2B33320   1.156   2.496   8.250
 6877POPC   C3B33321   1.066   2.500   7.950
 6877POPC   C4B33322   1.150   2.513   7.650
 6878POPC   NC333323  20.576  28.324   9.450
 6878POPC   PO433324  20.604  28.328   9.150
 6878POPC   GL133325  20.621  28.397   8.850
 6878POPC   GL233326  20.632  28.259   8.850
 6878POPC   C1A33327  20.597  28.418   8.550
 6878POPC   D2A33328  20.635  28.358   8.250
 6878POPC   C3A33329  20.604  28.396   7.950
 6878POPC   C4A33330  20.623  28.375   7.650
 6878POPC   C1B33331  20.614  28.151   8.550
 6878POPC   C2B33332  20.671  28.086   8.250
 6878POPC   C3B33333  20.633  28.107   7.950
 6878POPC   C4B33334  20.703  28.154   7.650
 6879POPC   NC333335  31.468  40.032   9.450
 6879POPC   PO433336  31.499  40.020   9.150
 6879POPC   GL133337  31.452  39.961   8.850
 6879POPC   GL233338  31.532  40.104   8.850
 6879POPC   C1A33339  31.452  39.980   8.550
 6879POPC   D2A33340  31.446  39.974   8.250
 6879POPC   C3A33341  31.447  40.042   7.950
 6879POPC   C4A33342  31.480  39.972   7.650
 6879POPC   C1B33343  31.587  40.204   8.550
 6879POPC   C2B33344  31.634  40.186   8.250
 6879POPC   C3B33345  31.575  40.167   7.950
 6879POPC   C4B33346  31.647  40.212   7.650
 6880POPC   NC333347  40.780  12.886   9.450
 6880POPC   PO433348  40.777  12.888   9.150
 6880POPC   GL133349  40.815  12.882   8.850
 6880POPC   GL233350  40.823  12.928   8.850
 6880POPC   C1A33351  40.809  12.861   8.550
 6880POPC   D2A33352  40.748  12.869   8.250
 6880POPC   C3A33353  40.794  12.899   7.950
 6880POPC   C4A33354  40.764  12.837   7.650
 6880POPC   C1B33355  40.765  13.097   8.550
 6880POPC   C2B33356  40.762  13.065   8.250
 6880POPC   C3B33357  40.778  13.109   7.950
 6880POPC   C4B33358  40.757  13.108   7.650
 6881POPC   NC333359  19.033  23.749   9.450
 6881POPC   PO433360  19.095  23.679   9.150
 6881POPC   GL133361  19.057  23.734   8.850
 6881POPC   GL233362  18.997  23.824   8.850
 6881POPC   C1A33363  19.015  23.733   8.550
 6881POPC   D2A33364  19.091  23.686   8.250
 6881POPC   C3A33365  19.092  23.719   7.950
 6881POPC   C4A33366  19.058  23.692   7.650
 6881POPC   C1B33367  18.943  23.899   8.550
 6881POPC   C2B33368  18.892  23.902   8.250
 6881POPC   C3B33369  18.867  23.905   7.950
 6881POPC   C4B33370  18.880  23.875   7.650
 6882POPC   NC333371  24.526  18.293   9.450
 6882POPC   PO433372  24.480  18.275   9.150
 6882POPC   GL133373  24.443  18.247   8.850
 6882POPC   GL233374  24.632  18.197   8.850
 6882POPC   C1A33375  24.529  18.237   8.550
 6882POPC   D2A33376  24.442  18.306   8.250
 6882POPC   C3A33377  24.460  18.331   7.950
 6882POPC   C4A33378  24.520  18.257   7.650
 6882POPC   C1B33379  24.743  18.259   8.550
 6882POPC   C2B33380  24.768  18.175   8.250
 6882POPC   C3B33381  24.743  18.196   7.950
 6882POPC   C4B33382  24.712  18.234   7.650
 6883POPC   NC333383   4.286   2.731   9.450
 6883POPC   PO433384   4.357   2.784   9.150
 6883POPC   GL133385   4.313   2.722   8.850
 6883POPC   GL233386   4.240   2.660   8.850
 6883POPC   C1A33387   4.357   2.737   8.550
 6883POPC   D2A33388   4.304   2.741   8.250
 6883POPC   C3A33389   4.291   2.739   7.950
 6883POPC   C4A33390   4.341   2.763   7.650
 6883POPC   C1B33391   4.286   2.570   8.550
 6883POPC   C2B33392   4.273   2.495   8.250
 6883POPC   C3B33393   4.233   2.549   7.950
 6883POPC   C4B33394   4.197   2.564   7.650
 6884POPC   NC333395  19.047  12.116   9.450
 6884POPC   PO433396  19.054  12.063   9.150
 6884POPC   GL133397  19.043  12.116   8.850
 6884POPC   GL233398  18.937  12.203   8.850
 6884POPC   C1A33399  19.102  12.033   8.550
 6884POPC   D2A33400  19.041  12.084   8.250
 6884POPC   C3A33401  19.095  12.064   7.950
 6884POPC   C4A33402  19.044  12.091   7.650
 6884POPC   C1B33403  18.952  12.320   8.550
 6884POPC   C2B33404  18.855  12.312   8.250
 6884POPC   C3B33405  18.882  12.316   7.950
 6884POPC   C4B33406  18.887  12.233   7.650
 6885POPC   NC333407   8.973   4.303   9.450
 6885POPC   PO433408   9.013   4.311   9.150
 6885POPC   GL133409   8.974   4.322   8.850
 6885POPC   GL233410   8.888   4.300   8.850
 6885POPC   C1A33411   8.926   4.353   8.550
 6885POPC   D2A33412   9.014   4.356   8.250
 6885POPC   C3A33413   8.954   4.347   7.950
 6885POPC   C4A33414   9.022   4.367   7.650
 6885POPC   C1B33415   8.682   4.289   8.550
 6885POPC   C2B33416   8.747   4.345   8.250
 6885POPC   C3B33417   8.753   4.302   7.950
 6885POPC   C4B33418   8.715   4.324   7.650
 6886POPC   NC333419   4.292  15.190   9.450
 6886POPC   PO433420   4.325  15.134   9.150
 6886POPC   GL133421   4.314  15.159   8.850
 6886POPC   GL233422   4.211  15.279   8.850
 6886POPC   C1A33423   4.306  15.153   8.550
 6886POPC   D2A33424   4.337  15.188   8.250
 6886POPC   C3A33425   4.296  15.136   7.950
 6886POPC   C4A33426   4.353  15.166   7.650
 6886POPC   C1B33427   4.139  15.289   8.550
 6886POPC   C2B33428   4.117  15.386   8.250
 6886POPC   C3B33429   4.131  15.368   7.950
 6886POPC   C4B33430   4.128  15.350   7.650
 6887POPC   NC333431   7.467  38.451   9.450
 6887POPC   PO433432   7.375  38.424   9.150
 6887POPC   GL133433   7.462  38.413   8.850
 6887POPC   GL233434   7.328  38.400   8.850
 6887POPC   C1A33435   7.384  38.492   8.550
 6887POPC   D2A33436   7.437  38.416   8.250
 6887POPC   C3A33437   7.461  38.474   7.950
 6887POPC   C4A33438   7.424  38.459   7.650
 6887POPC   C1B33439   7.213  38.352   8.550
 6887POPC   C2B33440   7.182  38.327   8.250
 6887POPC   C3B33441   7.157  38.335   7.950
 6887POPC   C4B33442   7.233  38.327   7.650
 6888POPC   NC333443  38.408  34.540   9.450
 6888POPC   PO433444  38.464  34.568   9.150
 6888POPC   GL133445  38.486  34.555   8.850
 6888POPC   GL233446  38.535  34.573   8.850
 6888POPC   C1A33447  38.470  34.582   8.550
 6888POPC   D2A33448  38.408  34.572   8.250
 6888POPC   C3A33449  38.474  34.610   7.950
 6888POPC   C4A33450  38.448  34.613   7.650
 6888POPC   C1B33451  38.698  34.500   8.550
 6888POPC   C2B33452  38.697  34.454   8.250
 6888POPC   C3B33453  38.697  34.536   7.950
 6888POPC   C4B33454  38.677  34.521   7.650
 6889POPC   NC333455  27.552   8.185   9.450
 6889POPC   PO433456  27.563   8.233   9.150
 6889POPC   GL133457  27.552   8.225   8.850
 6889POPC   GL233458  27.435   8.166   8.850
 6889POPC   C1A33459  27.566   8.150   8.550
 6889POPC   D2A33460  27.600   8.208   8.250
 6889POPC   C3A33461  27.580   8.229   7.950
 6889POPC   C4A33462  27.622   8.228   7.650
 6889POPC   C1B33463  27.303   8.143   8.550
 6889POPC   C2B33464  27.360   8.167   8.250
 6889POPC   C3B33465  27.325   8.093   7.950
 6889POPC   C4B33466  27.396   8.129   7.650
 6890POPC   NC333467  33.767   7.398   9.450
 6890POPC   PO433468  33.755   7.402   9.150
 6890POPC   GL133469  33.811   7.420   8.850
 6890POPC   GL233470  33.701   7.498   8.850
 6890POPC   C1A33471  33.827   7.456   8.550
 6890POPC   D2A33472  33.790   7.449   8.250
 6890POPC   C3A33473  33.808   7.443   7.950
 6890POPC   C4A33474  33.846   7.403   7.650
 6890POPC   C1B33475  33.632   7.612   8.550
 6890POPC   C2B33476  33.663   7.582   8.250
 6890POPC   C3B33477  33.658   7.670   7.950
 6890POPC   C4B33478  33.674   7.671   7.650
 6891POPC   NC333479  15.165  12.086   9.450
 6891POPC   PO433480  15.193  12.077   9.150
 6891POPC   GL133481  15.168  12.081   8.850
 6891POPC   GL233482  15.142  12.240   8.850
 6891POPC   C1A33483  15.173  12.084   8.550
 6891POPC   D2A33484  15.135  12.110   8.250
 6891POPC   C3A33485  15.222  12.061   7.950
 6891POPC   C4A33486  15.168  12.094   7.650
 6891POPC   C1B33487  15.144  12.336   8.550
 6891POPC   C2B33488  15.211  12.290   8.250
 6891POPC   C3B33489  15.160  12.318   7.950
 6891POPC   C4B33490  15.152  12.298   7.650
 6892POPC   NC333491   9.011  16.763   9.450
 6892POPC   PO433492   8.933  16.753   9.150
 6892POPC   GL133493   8.939  16.722   8.850
 6892POPC   GL233494   9.046  16.599   8.850
 6892POPC   C1A33495   8.961  16.685   8.550
 6892POPC   D2A33496   9.008  16.681   8.250
 6892POPC   C3A33497   9.005  16.756   7.950
 6892POPC   C4A33498   8.967  16.713   7.650
 6892POPC   C1B33499   9.104  16.563   8.550
 6892POPC   C2B33500   9.122  16.499   8.250
 6892POPC   C3B33501   9.133  16.542   7.950
 6892POPC   C4B33502   9.130  16.545   7.650
 6893POPC   NC333503  38.442  39.242   9.450
 6893POPC   PO433504  38.420  39.209   9.150
 6893POPC   GL133505  38.451  39.271   8.850
 6893POPC   GL233506  38.551  39.355   8.850
 6893POPC   C1A33507  38.495  39.235   8.550
 6893POPC   D2A33508  38.497  39.252   8.250
 6893POPC   C3A33509  38.459  39.213   7.950
 6893POPC   C4A33510  38.432  39.230   7.650
 6893POPC   C1B33511  38.553  39.458   8.550
 6893POPC   C2B33512  38.548  39.408   8.250
 6893POPC   C3B33513  38.558  39.389   7.950
 6893POPC   C4B33514  38.555  39.459   7.650
 6894POPC   NC333515  24.539   2.783   9.450
 6894POPC   PO433516  24.486   2.735   9.150
 6894POPC   GL133517  24.443   2.794   8.850
 6894POPC   GL233518  24.413   2.728   8.850
 6894POPC   C1A33519  24.518   2.721   8.550
 6894POPC   D2A33520  24.470   2.746   8.250
 6894POPC   C3A33521  24.447   2.762   7.950
 6894POPC   C4A33522  24.523   2.789   7.650
 6894POPC   C1B33523  24.256   2.658   8.550
 6894POPC   C2B33524  24.255   2.689   8.250
 6894POPC   C3B33525  24.296   2.708   7.950
 6894POPC   C4B33526  24.262   2.673   7.650
 6895POPC   NC333527  36.085   7.375   9.450
 6895POPC   PO433528  36.104   7.443   9.150
 6895POPC   GL133529  36.176   7.405   8.850
 6895POPC   GL233530  36.019   7.529   8.850
 6895POPC   C1A33531  36.112   7.397   8.550
 6895POPC   D2A33532  36.171   7.379   8.250
 6895POPC   C3A33533  36.155   7.468   7.950
 6895POPC   C4A33534  36.176   7.418   7.650
 6895POPC   C1B33535  36.009   7.574   8.550
 6895POPC   C2B33536  35.987   7.601   8.250
 6895POPC   C3B33537  35.936   7.632   7.950
 6895POPC   C4B33538  35.947   7.652   7.650
 6896POPC   NC333539  14.400  38.478   9.450
 6896POPC   PO433540  14.372  38.492   9.150
 6896POPC   GL133541  14.446  38.491   8.850
 6896POPC   GL233542  14.506  38.309   8.850
 6896POPC   C1A33543  14.372  38.408   8.550
 6896POPC   D2A33544  14.396  38.481   8.250
 6896POPC   C3A33545  14.385  38.455   7.950
 6896POPC   C4A33546  14.389  38.459   7.650
 6896POPC   C1B33547  14.571  38.231   8.550
 6896POPC   C2B33548  14.514  38.226   8.250
 6896POPC   C3B33549  14.542  38.274   7.950
 6896POPC   C4B33550  14.524  38.187   7.650
 6897POPC   NC333551  10.539  41.533   9.450
 6897POPC   PO433552  10.559  41.530   9.150
 6897POPC   GL133553  10.512  41.585   8.850
 6897POPC   GL233554  10.428  41.497   8.850
 6897POPC   C1A33555  10.512  41.547   8.550
 6897POPC   D2A33556  10.564  41.552   8.250
 6897POPC   C3A33557  10.542  41.531   7.950
 6897POPC   C4A33558  10.546  41.536   7.650
 6897POPC   C1B33559  10.368  41.437   8.550
 6897POPC   C2B33560  10.314  41.430   8.250
 6897POPC   C3B33561  10.307  41.366   7.950
 6897POPC   C4B33562  10.293  41.447   7.650
 6898POPC   NC333563  24.474   8.947   9.450
 6898POPC   PO433564  24.441   8.943   9.150
 6898POPC   GL133565  24.454   8.973   8.850
 6898POPC   GL233566  24.659   8.916   8.850
 6898POPC   C1A33567  24.482   8.983   8.550
 6898POPC   D2A33568  24.477   8.999   8.250
 6898POPC   C3A33569  24.441   8.939   7.950
 6898POPC   C4A33570  24.470   8.925   7.650
 6898POPC   C1B33571  24.763   8.947   8.550
 6898POPC   C2B33572  24.734   8.909   8.250
 6898POPC   C3B33573  24.732   8.860   7.950
 6898POPC   C4B33574  24.702   8.893   7.650
 6899POPC   NC333575  16.742  26.790   9.450
 6899POPC   PO433576  16.698  26.798   9.150
 6899POPC   GL133577  16.777  26.858   8.850
 6899POPC   GL233578  16.858  26.865   8.850
 6899POPC   C1A33579  16.699  26.821   8.550
 6899POPC   D2A33580  16.741  26.779   8.250
 6899POPC   C3A33581  16.761  26.861   7.950
 6899POPC   C4A33582  16.685  26.804   7.650
 6899POPC   C1B33583  16.910  27.009   8.550
 6899POPC   C2B33584  16.858  27.051   8.250
 6899POPC   C3B33585  16.877  27.025   7.950
 6899POPC   C4B33586  16.941  27.050   7.650
 6900POPC   NC333587  15.129  39.979   9.450
 6900POPC   PO433588  15.226  39.988   9.150
 6900POPC   GL133589  15.221  40.034   8.850
 6900POPC   GL233590  15.108  39.924   8.850
 6900POPC   C1A33591  15.217  39.981   8.550
 6900POPC   D2A33592  15.190  40.039   8.250
 6900POPC   C3A33593  15.180  40.036   7.950
 6900POPC   C4A33594  15.222  40.010   7.650
 6900POPC   C1B33595  15.136  39.734   8.550
 6900POPC   C2B33596  15.147  39.718   8.250
 6900POPC   C3B33597  15.102  39.760   7.950
 6900POPC   C4B33598  15.123  39.801   7.650
 6901POPC   NC333599   1.958  25.307   9.450
 6901POPC   PO433600   1.999  25.287   9.150
 6901POPC   GL133601   2.024  25.260   8.850
 6901POPC   GL233602   1.934  25.334   8.850
 6901POPC   C1A33603   2.032  25.247   8.550
 6901POPC   D2A33604   1.978  25.234   8.250
 6901POPC   C3A33605   2.015  25.282   7.950
 6901POPC   C4A33606   1.952  25.246   7.650
 6901POPC   C1B33607   1.891  25.476   8.550
 6901POPC   C2B33608   1.922  25.483   8.250
 6901POPC   C3B33609   1.863  25.541   7.950
 6901POPC   C4B33610   1.870  25.491   7.650
 6902POPC   NC333611  39.224  44.672   9.450
 6902POPC   PO433612  39.191  44.673   9.150
 6902POPC   GL133613  39.245  44.686   8.850
 6902POPC   GL233614  39.389  44.622   8.850
 6902POPC   C1A33615  39.184  44.623   8.550
 6902POPC   D2A33616  39.207  44.632   8.250
 6902POPC   C3A33617  39.218  44.653   7.950
 6902POPC   C4A33618  39.250  44.616   7.650
 6902POPC   C1B33619  39.485  44.600   8.550
 6902POPC   C2B33620  39.469  44.575   8.250
 6902POPC   C3B33621  39.443  44.544   7.950
 6902POPC   C4B33622  39.458  44.573   7.650
 6903POPC   NC333623  25.250   5.111   9.450
 6903POPC   PO433624  25.295   5.103   9.150
 6903POPC   GL133625  25.222   5.067   8.850
 6903POPC   GL233626  25.274   5.008   8.850
 6903POPC   C1A33627  25.301   5.138   8.550
 6903POPC   D2A33628  25.299   5.138   8.250
 6903POPC   C3A33629  25.218   5.112   7.950
 6903POPC   C4A33630  25.248   5.116   7.650
 6903POPC   C1B33631  25.238   4.887   8.550
 6903POPC   C2B33632  25.233   4.796   8.250
 6903POPC   C3B33633  25.297   4.810   7.950
 6903POPC   C4B33634  25.331   4.846   7.650
 6904POPC   NC333635   7.428   8.194   9.450
 6904POPC   PO433636   7.414   8.155   9.150
 6904POPC   GL133637   7.372   8.200   8.850
 6904POPC   GL233638   7.257   8.225   8.850
 6904POPC   C1A33639   7.401   8.216   8.550
 6904POPC   D2A33640   7.382   8.150   8.250
 6904POPC   C3A33641   7.412   8.180   7.950
 6904POPC   C4A33642   7.383   8.174   7.650
 6904POPC   C1B33643   7.159   8.231   8.550
 6904POPC   C2B33644   7.148   8.269   8.250
 6904POPC   C3B33645   7.134   8.268   7.950
 6904POPC   C4B33646   7.212   8.215   7.650
 6905POPC   NC333647  40.815   1.984   9.450
 6905POPC   PO433648  40.759   2.036   9.150
 6905POPC   GL133649  40.780   1.953   8.850
 6905POPC   GL233650  40.841   2.043   8.850
 6905POPC   C1A33651  40.828   1.942   8.550
 6905POPC   D2A33652  40.747   2.022   8.250
 6905POPC   C3A33653  40.786   1.970   7.950
 6905POPC   C4A33654  40.752   1.974   7.650
 6905POPC   C1B33655  40.978   2.112   8.550
 6905POPC   C2B33656  40.976   2.190   8.250
 6905POPC   C3B33657  40.964   2.125   7.950
 6905POPC   C4B33658  40.942   2.105   7.650
 6906POPC   NC333659   8.242   5.123   9.450
 6906POPC   PO433660   8.208   5.070   9.150
 6906POPC   GL133661   8.167   5.134   8.850
 6906POPC   GL233662   8.108   5.072   8.850
 6906POPC   C1A33663   8.187   5.065   8.550
 6906POPC   D2A33664   8.246   5.143   8.250
 6906POPC   C3A33665   8.180   5.065   7.950
 6906POPC   C4A33666   8.229   5.050   7.650
 6906POPC   C1B33667   7.951   5.033   8.550
 6906POPC   C2B33668   7.913   4.992   8.250
 6906POPC   C3B33669   7.933   4.985   7.950
 6906POPC   C4B33670   7.943   5.021   7.650
 6907POPC   NC333671  26.785  41.570   9.450
 6907POPC   PO433672  26.812  41.561   9.150
 6907POPC   GL133673  26.863  41.552   8.850
 6907POPC   GL233674  26.862  41.645   8.850
 6907POPC   C1A33675  26.866  41.608   8.550
 6907POPC   D2A33676  26.818  41.542   8.250
 6907POPC   C3A33677  26.862  41.581   7.950
 6907POPC   C4A33678  26.836  41.590   7.650
 6907POPC   C1B33679  26.809  41.813   8.550
 6907POPC   C2B33680  26.807  41.809   8.250
 6907POPC   C3B33681  26.831  41.799   7.950
 6907POPC   C4B33682  26.811  41.775   7.650
 6908POPC   NC333683  44.626   8.243   9.450
 6908POPC   PO433684  44.644   8.239   9.150
 6908POPC   GL133685  44.648   8.239   8.850
 6908POPC   GL233686  44.555   8.215   8.850
 6908POPC   C1A33687  44.640   8.216   8.550
 6908POPC   D2A33688  44.705   8.226   8.250
 6908POPC   C3A33689  44.673   8.166   7.950
 6908POPC   C4A33690  44.689   8.192   7.650
 6908POPC   C1B33691  44.458   8.349   8.550
 6908POPC   C2B33692  44.476   8.297   8.250
 6908POPC   C3B33693  44.487   8.351   7.950
 6908POPC   C4B33694  44.459   8.363   7.650
 6909POPC   NC333695   5.078  39.998   9.450
 6909POPC   PO433696   5.052  40.001   9.150
 6909POPC   GL133697   5.140  39.975   8.850
 6909POPC   GL233698   5.243  39.975   8.850
 6909POPC   C1A33699   5.053  40.018   8.550
 6909POPC   D2A33700   5.091  40.030   8.250
 6909POPC   C3A33701   5.132  40.055   7.950
 6909POPC   C4A33702   5.091  39.993   7.650
 6909POPC   C1B33703   5.347  39.878   8.550
 6909POPC   C2B33704   5.286  39.853   8.250
 6909POPC   C3B33705   5.274  39.888   7.950
 6909POPC   C4B33706   5.343  39.849   7.650
 6910POPC   NC333707  40.761   6.672   9.450
 6910POPC   PO433708  40.784   6.663   9.150
 6910POPC   GL133709  40.791   6.653   8.850
 6910POPC   GL233710  40.738   6.572   8.850
 6910POPC   C1A33711  40.752   6.676   8.550
 6910POPC   D2A33712  40.806   6.624   8.250
 6910POPC   C3A33713  40.781   6.623   7.950
 6910POPC   C4A33714  40.755   6.684   7.650
 6910POPC   C1B33715  40.614   6.416   8.550
 6910POPC   C2B33716  40.694   6.433   8.250
 6910POPC   C3B33717  40.652   6.439   7.950
 6910POPC   C4B33718  40.687   6.420   7.650
 6911POPC   NC333719  23.666  24.511   9.450
 6911POPC   PO433720  23.760  24.501   9.150
 6911POPC   GL133721  23.688  24.519   8.850
 6911POPC   GL233722  23.606  24.576   8.850
 6911POPC   C1A33723  23.724  24.524   8.550
 6911POPC   D2A33724  23.762  24.479   8.250
 6911POPC   C3A33725  23.684  24.539   7.950
 6911POPC   C4A33726  23.703  24.477   7.650
 6911POPC   C1B33727  23.532  24.600   8.550
 6911POPC   C2B33728  23.555  24.696   8.250
 6911POPC   C3B33729  23.486  24.692   7.950
 6911POPC   C4B33730  23.500  24.652   7.650
 6912POPC   NC333731  17.490  11.269   9.450
 6912POPC   PO433732  17.539  11.274   9.150
 6912POPC   GL133733  17.556  11.321   8.850
 6912POPC   GL233734  17.580  11.246   8.850
 6912POPC   C1A33735  17.458  11.326   8.550
 6912POPC   D2A33736  17.496  11.337   8.250
 6912POPC   C3A33737  17.547  11.299   7.950
 6912POPC   C4A33738  17.489  11.258   7.650
 6912POPC   C1B33739  17.775  11.191   8.550
 6912POPC   C2B33740  17.706  11.249   8.250
 6912POPC   C3B33741  17.784  11.247   7.950
 6912POPC   C4B33742  17.754  11.188   7.650
 6913POPC   NC333743   2.722  12.084   9.450
 6913POPC   PO433744   2.764  12.083   9.150
 6913POPC   GL133745   2.754  12.033   8.850
 6913POPC   GL233746   2.780  11.913   8.850
 6913POPC   C1A33747   2.721  12.077   8.550
 6913POPC   D2A33748   2.720  12.089   8.250
 6913POPC   C3A33749   2.805  12.033   7.950
 6913POPC   C4A33750   2.756  12.040   7.650
 6913POPC   C1B33751   2.792  11.785   8.550
 6913POPC   C2B33752   2.713  11.827   8.250
 6913POPC   C3B33753   2.768  11.791   7.950
 6913POPC   C4B33754   2.768  11.868   7.650
 6914POPC   NC333755  41.598   7.416   9.450
 6914POPC   PO433756  41.520   7.376   9.150
 6914POPC   GL133757  41.526   7.379   8.850
 6914POPC   GL233758  41.559   7.341   8.850
 6914POPC   C1A33759  41.584   7.426   8.550
 6914POPC   D2A33760  41.521   7.396   8.250
 6914POPC   C3A33761  41.544   7.401   7.950
 6914POPC   C4A33762  41.573   7.422   7.650
 6914POPC   C1B33763  41.497   7.186   8.550
 6914POPC   C2B33764  41.492   7.161   8.250
 6914POPC   C3B33765  41.515   7.187   7.950
 6914POPC   C4B33766  41.514   7.183   7.650
 6915POPC   NC333767  38.484  43.111   9.450
 6915POPC   PO433768  38.425  43.069   9.150
 6915POPC   GL133769  38.431  43.121   8.850
 6915POPC   GL233770  38.463  43.211   8.850
 6915POPC   C1A33771  38.475  43.109   8.550
 6915POPC   D2A33772  38.457  43.073   8.250
 6915POPC   C3A33773  38.453  43.121   7.950
 6915POPC   C4A33774  38.492  43.124   7.650
 6915POPC   C1B33775  38.397  43.387   8.550
 6915POPC   C2B33776  38.341  43.323   8.250
 6915POPC   C3B33777  38.417  43.371   7.950
 6915POPC   C4B33778  38.366  43.339   7.650
 6916POPC   NC333779  44.622  23.726   9.450
 6916POPC   PO433780  44.673  23.685   9.150
 6916POPC   GL133781  44.702  23.742   8.850
 6916POPC   GL233782  44.735  23.624   8.850
 6916POPC   C1A33783  44.710  23.723   8.550
 6916POPC   D2A33784  44.613  23.722   8.250
 6916POPC   C3A33785  44.621  23.679   7.950
 6916POPC   C4A33786  44.676  23.718   7.650
 6916POPC   C1B33787  44.795  23.520   8.550
 6916POPC   C2B33788  44.784  23.507   8.250
 6916POPC   C3B33789  44.778  23.560   7.950
 6916POPC   C4B33790  44.801  23.537   7.650
 6917POPC   NC333791  32.995  12.804   9.450
 6917POPC   PO433792  33.028  12.869   9.150
 6917POPC   GL133793  33.060  12.900   8.850
 6917POPC   GL233794  33.107  12.729   8.850
 6917POPC   C1A33795  33.016  12.831   8.550
 6917POPC   D2A33796  33.024  12.836   8.250
 6917POPC   C3A33797  33.010  12.897   7.950
 6917POPC   C4A33798  32.985  12.879   7.650
 6917POPC   C1B33799  33.147  12.668   8.550
 6917POPC   C2B33800  33.142  12.624   8.250
 6917POPC   C3B33801  33.181  12.607   7.950
 6917POPC   C4B33802  33.210  12.640   7.650
 6918POPC   NC333803  34.548  29.877   9.450
 6918POPC   PO433804  34.552  29.945   9.150
 6918POPC   GL133805  34.542  29.932   8.850
 6918POPC   GL233806  34.406  29.933   8.850
 6918POPC   C1A33807  34.531  29.959   8.550
 6918POPC   D2A33808  34.585  29.924   8.250
 6918POPC   C3A33809  34.572  29.956   7.950
 6918POPC   C4A33810  34.579  29.875   7.650
 6918POPC   C1B33811  34.312  29.879   8.550
 6918POPC   C2B33812  34.321  29.920   8.250
 6918POPC   C3B33813  34.309  29.884   7.950
 6918POPC   C4B33814  34.345  29.897   7.650
 6919POPC   NC333815   6.620  12.087   9.450
 6919POPC   PO433816   6.604  12.084   9.150
 6919POPC   GL133817   6.600  12.054   8.850
 6919POPC   GL233818   6.578  12.029   8.850
 6919POPC   C1A33819   6.657  12.114   8.550
 6919POPC   D2A33820   6.680  12.070   8.250
 6919POPC   C3A33821   6.647  12.079   7.950
 6919POPC   C4A33822   6.618  12.052   7.650
 6919POPC   C1B33823   6.471  11.881   8.550
 6919POPC   C2B33824   6.422  11.883   8.250
 6919POPC   C3B33825   6.410  11.941   7.950
 6919POPC   C4B33826   6.470  11.932   7.650
 6920POPC   NC333827   5.092  38.460   9.450
 6920POPC   PO433828   5.072  38.453   9.150
 6920POPC   GL133829   5.088  38.478   8.850
 6920POPC   GL233830   4.968  38.476   8.850
 6920POPC   C1A33831   5.057  38.453   8.550
 6920POPC   D2A33832   5.143  38.430   8.250
 6920POPC   C3A33833   5.050  38.419   7.950
 6920POPC   C4A33834   5.085  38.503   7.650
 6920POPC   C1B33835   4.863  38.438   8.550
 6920POPC   C2B33836   4.798  38.513   8.250
 6920POPC   C3B33837   4.803  38.518   7.950
 6920POPC   C4B33838   4.803  38.485   7.650
 6921POPC   NC333839  33.064  17.526   9.450
 6921POPC   PO433840  33.012  17.519   9.150
 6921POPC   GL133841  32.986  17.491   8.850
 6921POPC   GL233842  33.054  17.616   8.850
 6921POPC   C1A33843  33.020  17.477   8.550
 6921POPC   D2A33844  33.005  17.484   8.250
 6921POPC   C3A33845  33.001  17.539   7.950
 6921POPC   C4A33846  32.982  17.484   7.650
 6921POPC   C1B33847  33.222  17.655   8.550
 6921POPC   C2B33848  33.139  17.689   8.250
 6921POPC   C3B33849  33.187  17.739   7.950
 6921POPC   C4B33850  33.166  17.741   7.650
 6922POPC   NC333851  29.139   1.175   9.450
 6922POPC   PO433852  29.118   1.214   9.150
 6922POPC   GL133853  29.099   1.243   8.850
 6922POPC   GL233854  29.240   1.272   8.850
 6922POPC   C1A33855  29.141   1.228   8.550
 6922POPC   D2A33856  29.123   1.193   8.250
 6922POPC   C3A33857  29.142   1.252   7.950
 6922POPC   C4A33858  29.140   1.238   7.650
 6922POPC   C1B33859  29.363   1.349   8.550
 6922POPC   C2B33860  29.369   1.273   8.250
 6922POPC   C3B33861  29.334   1.281   7.950
 6922POPC   C4B33862  29.366   1.289   7.650
 6923POPC   NC333863   7.410  14.437   9.450
 6923POPC   PO433864   7.459  14.439   9.150
 6923POPC   GL133865   7.402  14.392   8.850
 6923POPC   GL233866   7.317  14.358   8.850
 6923POPC   C1A33867   7.405  14.369   8.550
 6923POPC   D2A33868   7.461  14.361   8.250
 6923POPC   C3A33869   7.406  14.442   7.950
 6923POPC   C4A33870   7.405  14.407   7.650
 6923POPC   C1B33871   7.238  14.277   8.550
 6923POPC   C2B33872   7.162  14.310   8.250
 6923POPC   C3B33873   7.235  14.315   7.950
 6923POPC   C4B33874   7.165  14.323   7.650
 6924POPC   NC333875  14.368   2.788   9.450
 6924POPC   PO433876  14.451   2.743   9.150
 6924POPC   GL133877  14.413   2.759   8.850
 6924POPC   GL233878  14.482   2.846   8.850
 6924POPC   C1A33879  14.402   2.755   8.550
 6924POPC   D2A33880  14.444   2.750   8.250
 6924POPC   C3A33881  14.432   2.782   7.950
 6924POPC   C4A33882  14.443   2.778   7.650
 6924POPC   C1B33883  14.529   2.959   8.550
 6924POPC   C2B33884  14.508   2.989   8.250
 6924POPC   C3B33885  14.513   2.955   7.950
 6924POPC   C4B33886  14.518   2.957   7.650
 6925POPC   NC333887  23.672  38.465   9.450
 6925POPC   PO433888  23.723  38.494   9.150
 6925POPC   GL133889  23.697  38.505   8.850
 6925POPC   GL233890  23.629  38.504   8.850
 6925POPC   C1A33891  23.681  38.447   8.550
 6925POPC   D2A33892  23.719  38.408   8.250
 6925POPC   C3A33893  23.728  38.420   7.950
 6925POPC   C4A33894  23.735  38.466   7.650
 6925POPC   C1B33895  23.457  38.437   8.550
 6925POPC   C2B33896  23.449  38.412   8.250
 6925POPC   C3B33897  23.465  38.451   7.950
 6925POPC   C4B33898  23.440  38.467   7.650
 6926POPC   NC333899  36.094   8.231   9.450
 6926POPC   PO433900  36.157   8.152   9.150
 6926POPC   GL133901  36.135   8.228   8.850
 6926POPC   GL233902  36.194   8.278   8.850
 6926POPC   C1A33903  36.157   8.156   8.550
 6926POPC   D2A33904  36.108   8.154   8.250
 6926POPC   C3A33905  36.082   8.195   7.950
 6926POPC   C4A33906  36.144   8.187   7.650
 6926POPC   C1B33907  36.325   8.374   8.550
 6926POPC   C2B33908  36.380   8.322   8.250
 6926POPC   C3B33909  36.339   8.300   7.950
 6926POPC   C4B33910  36.382   8.331   7.650
 6927POPC   NC333911  34.611  12.108   9.450
 6927POPC   PO433912  34.611  12.089   9.150
 6927POPC   GL133913  34.538  12.092   8.850
 6927POPC   GL233914  34.480  12.024   8.850
 6927POPC   C1A33915  34.557  12.114   8.550
 6927POPC   D2A33916  34.527  12.114   8.250
 6927POPC   C3A33917  34.619  12.044   7.950
 6927POPC   C4A33918  34.612  12.097   7.650
 6927POPC   C1B33919  34.362  11.899   8.550
 6927POPC   C2B33920  34.393  11.937   8.250
 6927POPC   C3B33921  34.404  11.854   7.950
 6927POPC   C4B33922  34.389  11.870   7.650
 6928POPC   NC333923  43.078  38.497   9.450
 6928POPC   PO433924  43.070  38.496   9.150
 6928POPC   GL133925  43.129  38.468   8.850
 6928POPC   GL233926  43.104  38.615   8.850
 6928POPC   C1A33927  43.136  38.451   8.550
 6928POPC   D2A33928  43.072  38.476   8.250
 6928POPC   C3A33929  43.083  38.438   7.950
 6928POPC   C4A33930  43.101  38.495   7.650
 6928POPC   C1B33931  43.111  38.691   8.550
 6928POPC   C2B33932  43.110  38.663   8.250
 6928POPC   C3B33933  43.108  38.712   7.950
 6928POPC   C4B33934  43.146  38.669   7.650
 6929POPC   NC333935  22.899   8.938   9.450
 6929POPC   PO433936  22.911   9.014   9.150
 6929POPC   GL133937  22.905   8.996   8.850
 6929POPC   GL233938  22.895   9.130   8.850
 6929POPC   C1A33939  22.985   8.983   8.550
 6929POPC   D2A33940  22.987   8.992   8.250
 6929POPC   C3A33941  22.898   8.966   7.950
 6929POPC   C4A33942  22.931   9.009   7.650
 6929POPC   C1B33943  22.900   9.234   8.550
 6929POPC   C2B33944  22.906   9.197   8.250
 6929POPC   C3B33945  22.973   9.174   7.950
 6929POPC   C4B33946  22.909   9.199   7.650
 6930POPC   NC333947  34.595  36.894   9.450
 6930POPC   PO433948  34.533  36.880   9.150
 6930POPC   GL133949  34.561  36.934   8.850
 6930POPC   GL233950  34.576  36.759   8.850
 6930POPC   C1A33951  34.588  36.873   8.550
 6930POPC   D2A33952  34.557  36.881   8.250
 6930POPC   C3A33953  34.550  36.940   7.950
 6930POPC   C4A33954  34.594  36.864   7.650
 6930POPC   C1B33955  34.632  36.648   8.550
 6930POPC   C2B33956  34.631  36.640   8.250
 6930POPC   C3B33957  34.620  36.684   7.950
 6930POPC   C4B33958  34.633  36.652   7.650
 6931POPC   NC333959  21.414   8.239   9.450
 6931POPC   PO433960  21.348   8.230   9.150
 6931POPC   GL133961  21.410   8.242   8.850
 6931POPC   GL233962  21.501   8.132   8.850
 6931POPC   C1A33963  21.341   8.212   8.550
 6931POPC   D2A33964  21.412   8.205   8.250
 6931POPC   C3A33965  21.405   8.229   7.950
 6931POPC   C4A33966  21.388   8.201   7.650
 6931POPC   C1B33967  21.525   8.050   8.550
 6931POPC   C2B33968  21.506   8.022   8.250
 6931POPC   C3B33969  21.600   8.021   7.950
 6931POPC   C4B33970  21.522   8.039   7.650
 6932POPC   NC333971  17.491   5.899   9.450
 6932POPC   PO433972  17.557   5.912   9.150
 6932POPC   GL133973  17.482   5.879   8.850
 6932POPC   GL233974  17.642   5.858   8.850
 6932POPC   C1A33975  17.501   5.820   8.550
 6932POPC   D2A33976  17.507   5.896   8.250
 6932POPC   C3A33977  17.470   5.858   7.950
 6932POPC   C4A33978  17.498   5.829   7.650
 6932POPC   C1B33979  17.734   5.900   8.550
 6932POPC   C2B33980  17.802   5.867   8.250
 6932POPC   C3B33981  17.752   5.928   7.950
 6932POPC   C4B33982  17.720   5.887   7.650
 6933POPC   NC333983  40.056  13.627   9.450
 6933POPC   PO433984  40.038  13.578   9.150
 6933POPC   GL133985  39.997  13.632   8.850
 6933POPC   GL233986  40.040  13.543   8.850
 6933POPC   C1A33987  40.036  13.628   8.550
 6933POPC   D2A33988  39.978  13.588   8.250
 6933POPC   C3A33989  40.007  13.597   7.950
 6933POPC   C4A33990  40.026  13.654   7.650
 6933POPC   C1B33991  39.958  13.426   8.550
 6933POPC   C2B33992  39.997  13.418   8.250
 6933POPC   C3B33993  40.032  13.370   7.950
 6933POPC   C4B33994  39.959  13.382   7.650
 6934POPC   NC333995  22.932   8.192   9.450
 6934POPC   PO433996  22.924   8.208   9.150
 6934POPC   GL133997  22.957   8.240   8.850
 6934POPC   GL233998  23.023   8.312   8.850
 6934POPC   C1A33999  22.922   8.243   8.550
 6934POPC   D2A34000  22.941   8.211   8.250
 6934POPC   C3A34001  22.911   8.244   7.950
 6934POPC   C4A34002  22.972   8.183   7.650
 6934POPC   C1B34003  23.100   8.385   8.550
 6934POPC   C2B34004  23.087   8.451   8.250
 6934POPC   C3B34005  23.026   8.400   7.950
 6934POPC   C4B34006  23.009   8.450   7.650
 6935POPC   NC334007  16.707   6.673   9.450
 6935POPC   PO434008  16.749   6.665   9.150
 6935POPC   GL134009  16.764   6.649   8.850
 6935POPC   GL234010  16.644   6.641   8.850
 6935POPC   C1A34011  16.733   6.639   8.550
 6935POPC   D2A34012  16.755   6.624   8.250
 6935POPC   C3A34013  16.714   6.658   7.950
 6935POPC   C4A34014  16.749   6.601   7.650
 6935POPC   C1B34015  16.450   6.598   8.550
 6935POPC   C2B34016  16.456   6.584   8.250
 6935POPC   C3B34017  16.520   6.606   7.950
 6935POPC   C4B34018  16.497   6.538   7.650
 6936POPC   NC334019  37.645  43.935   9.450
 6936POPC   PO434020  37.724  43.899   9.150
 6936POPC   GL134021  37.683  43.887   8.850
 6936POPC   GL234022  37.783  43.822   8.850
 6936POPC   C1A34023  37.669  43.898   8.550
 6936POPC   D2A34024  37.669  43.858   8.250
 6936POPC   C3A34025  37.645  43.855   7.950
 6936POPC   C4A34026  37.675  43.861   7.650
 6936POPC   C1B34027  37.909  43.713   8.550
 6936POPC   C2B34028  37.852  43.754   8.250
 6936POPC   C3B34029  37.913  43.746   7.950
 6936POPC   C4B34030  37.902  43.763   7.650
 6937POPC   NC334031   1.949  39.271   9.450
 6937POPC   PO434032   1.944  39.190   9.150
 6937POPC   GL134033   1.942  39.277   8.850
 6937POPC   GL234034   2.088  39.147   8.850
 6937POPC   C1A34035   2.012  39.196   8.550
 6937POPC   D2A34036   2.009  39.226   8.250
 6937POPC   C3A34037   2.007  39.250   7.950
 6937POPC   C4A34038   1.943  39.206   7.650
 6937POPC   C1B34039   2.225  39.068   8.550
 6937POPC   C2B34040   2.220  39.106   8.250
 6937POPC   C3B34041   2.233  39.069   7.950
 6937POPC   C4B34042   2.179  39.101   7.650
 6938POPC   NC334043  40.741  37.699   9.450
 6938POPC   PO434044  40.740  37.631   9.150
 6938POPC   GL134045  40.782  37.667   8.850
 6938POPC   GL234046  40.852  37.675   8.850
 6938POPC   C1A34047  40.738  37.698   8.550
 6938POPC   D2A34048  40.780  37.717   8.250
 6938POPC   C3A34049  40.756  37.698   7.950
 6938POPC   C4A34050  40.743  37.702   7.650
 6938POPC   C1B34051  41.038  37.552   8.550
 6938POPC   C2B34052  40.977  37.602   8.250
 6938POPC   C3B34053  40.991  37.596   7.950
 6938POPC   C4B34054  41.044  37.552   7.650
 6939POPC   NC334055  28.419  43.159   9.450
 6939POPC   PO434056  28.374  43.155   9.150
 6939POPC   GL134057  28.329  43.150   8.850
 6939POPC   GL234058  28.324  43.250   8.850
 6939POPC   C1A34059  28.414  43.121   8.550
 6939POPC   D2A34060  28.399  43.147   8.250
 6939POPC   C3A34061  28.382  43.075   7.950
 6939POPC   C4A34062  28.413  43.153   7.650
 6939POPC   C1B34063  28.192  43.315   8.550
 6939POPC   C2B34064  28.225  43.333   8.250
 6939POPC   C3B34065  28.191  43.343   7.950
 6939POPC   C4B34066  28.278  43.343   7.650
 6940POPC   NC334067  43.842  26.817   9.450
 6940POPC   PO434068  43.847  26.773   9.150
 6940POPC   GL134069  43.873  26.797   8.850
 6940POPC   GL234070  43.925  26.729   8.850
 6940POPC   C1A34071  43.875  26.861   8.550
 6940POPC   D2A34072  43.909  26.809   8.250
 6940POPC   C3A34073  43.931  26.811   7.950
 6940POPC   C4A34074  43.855  26.831   7.650
 6940POPC   C1B34075  43.937  26.545   8.550
 6940POPC   C2B34076  44.011  26.605   8.250
 6940POPC   C3B34077  43.973  26.626   7.950
 6940POPC   C4B34078  43.954  26.542   7.650
 6941POPC   NC334079  28.398   2.798   9.450
 6941POPC   PO434080  28.321   2.724   9.150
 6941POPC   GL134081  28.409   2.764   8.850
 6941POPC   GL234082  28.271   2.720   8.850
 6941POPC   C1A34083  28.347   2.722   8.550
 6941POPC   D2A34084  28.330   2.777   8.250
 6941POPC   C3A34085  28.405   2.760   7.950
 6941POPC   C4A34086  28.412   2.737   7.650
 6941POPC   C1B34087  28.183   2.610   8.550
 6941POPC   C2B34088  28.185   2.563   8.250
 6941POPC   C3B34089  28.173   2.614   7.950
 6941POPC   C4B34090  28.185   2.589   7.650
 6942POPC   NC334091  29.887   5.848   9.450
 6942POPC   PO434092  29.884   5.917   9.150
 6942POPC   GL134093  29.927   5.895   8.850
 6942POPC   GL234094  29.825   5.930   8.850
 6942POPC   C1A34095  29.881   5.883   8.550
 6942POPC   D2A34096  29.893   5.845   8.250
 6942POPC   C3A34097  29.947   5.887   7.950
 6942POPC   C4A34098  29.939   5.820   7.650
 6942POPC   C1B34099  29.724   6.070   8.550
 6942POPC   C2B34100  29.768   6.025   8.250
 6942POPC   C3B34101  29.684   6.015   7.950
 6942POPC   C4B34102  29.750   6.081   7.650
 6943POPC   NC334103   1.241  29.108   9.450
 6943POPC   PO434104   1.215  29.190   9.150
 6943POPC   GL134105   1.233  29.107   8.850
 6943POPC   GL234106   1.348  29.157   8.850
 6943POPC   C1A34107   1.196  29.152   8.550
 6943POPC   D2A34108   1.175  29.144   8.250
 6943POPC   C3A34109   1.263  29.146   7.950
 6943POPC   C4A34110   1.239  29.172   7.650
 6943POPC   C1B34111   1.472  29.205   8.550
 6943POPC   C2B34112   1.432  29.175   8.250
 6943POPC   C3B34113   1.440  29.172   7.950
 6943POPC   C4B34114   1.493  29.222   7.650
 6944POPC   NC334115   2.759  28.383   9.450
 6944POPC   PO434116   2.773  28.395   9.150
 6944POPC   GL134117   2.796  28.397   8.850
 6944POPC   GL234118   2.677  28.335   8.850
 6944POPC   C1A34119   2.795  28.332   8.550
 6944POPC   D2A34120   2.789  28.324   8.250
 6944POPC   C3A34121   2.767  28.410   7.950
 6944POPC   C4A34122   2.743  28.373   7.650
 6944POPC   C1B34123   2.509  28.272   8.550
 6944POPC   C2B34124   2.579  28.276   8.250
 6944POPC   C3B34125   2.580  28.270   7.950
 6944POPC   C4B34126   2.535  28.256   7.650
 6945POPC   NC334127   6.641  30.654   9.450
 6945POPC   PO434128   6.664  30.715   9.150
 6945POPC   GL134129   6.604  30.717   8.850
 6945POPC   GL234130   6.613  30.526   8.850
 6945POPC   C1A34131   6.658  30.711   8.550
 6945POPC   D2A34132   6.676  30.659   8.250
 6945POPC   C3A34133   6.692  30.725   7.950
 6945POPC   C4A34134   6.597  30.657   7.650
 6945POPC   C1B34135   6.612  30.455   8.550
 6945POPC   C2B34136   6.638  30.431   8.250
 6945POPC   C3B34137   6.662  30.429   7.950
 6945POPC   C4B34138   6.685  30.469   7.650
 6946POPC   NC334139  35.336  32.204   9.450
 6946POPC   PO434140  35.310  32.245   9.150
 6946POPC   GL134141  35.329  32.231   8.850
 6946POPC   GL234142  35.227  32.149   8.850
 6946POPC   C1A34143  35.346  32.237   8.550
 6946POPC   D2A34144  35.391  32.297   8.250
 6946POPC   C3A34145  35.398  32.264   7.950
 6946POPC   C4A34146  35.375  32.298   7.650
 6946POPC   C1B34147  35.183  32.102   8.550
 6946POPC   C2B34148  35.201  32.051   8.250
 6946POPC   C3B34149  35.156  32.023   7.950
 6946POPC   C4B34150  35.215  32.084   7.650
 6947POPC   NC334151  12.093   2.015   9.450
 6947POPC   PO434152  12.062   1.976   9.150
 6947POPC   GL134153  12.080   1.974   8.850
 6947POPC   GL234154  11.981   1.991   8.850
 6947POPC   C1A34155  12.094   2.010   8.550
 6947POPC   D2A34156  12.103   1.972   8.250
 6947POPC   C3A34157  12.046   1.979   7.950
 6947POPC   C4A34158  12.038   1.996   7.650
 6947POPC   C1B34159  11.861   1.937   8.550
 6947POPC   C2B34160  11.865   1.917   8.250
 6947POPC   C3B34161  11.822   1.935   7.950
 6947POPC   C4B34162  11.826   1.971   7.650
 6948POPC   NC334163  32.207  12.048   9.450
 6948POPC   PO434164  32.241  12.092   9.150
 6948POPC   GL134165  32.230  12.092   8.850
 6948POPC   GL234166  32.156  12.139   8.850
 6948POPC   C1A34167  32.250  12.106   8.550
 6948POPC   D2A34168  32.231  12.082   8.250
 6948POPC   C3A34169  32.276  12.121   7.950
 6948POPC   C4A34170  32.219  12.081   7.650
 6948POPC   C1B34171  32.008  12.189   8.550
 6948POPC   C2B34172  31.985  12.221   8.250
 6948POPC   C3B34173  31.978  12.229   7.950
 6948POPC   C4B34174  32.044  12.201   7.650
 6949POPC   NC334175  38.408  22.928   9.450
 6949POPC   PO434176  38.500  22.920   9.150
 6949POPC   GL134177  38.489  22.987   8.850
 6949POPC   GL234178  38.622  22.991   8.850
 6949POPC   C1A34179  38.503  22.919   8.550
 6949POPC   D2A34180  38.459  22.906   8.250
 6949POPC   C3A34181  38.443  22.900   7.950
 6949POPC   C4A34182  38.406  22.899   7.650
 6949POPC   C1B34183  38.719  23.017   8.550
 6949POPC   C2B34184  38.682  22.927   8.250
 6949POPC   C3B34185  38.727  22.981   7.950
 6949POPC   C4B34186  38.710  22.995   7.650
 6950POPC   NC334187   9.711  30.656   9.450
 6950POPC   PO434188   9.791  30.717   9.150
 6950POPC   GL134189   9.769  30.673   8.850
 6950POPC   GL234190   9.583  30.768   8.850
 6950POPC   C1A34191   9.798  30.664   8.550
 6950POPC   D2A34192   9.729  30.703   8.250
 6950POPC   C3A34193   9.740  30.741   7.950
 6950POPC   C4A34194   9.744  30.658   7.650
 6950POPC   C1B34195   9.472  30.836   8.550
 6950POPC   C2B34196   9.479  30.754   8.250
 6950POPC   C3B34197   9.529  30.786   7.950
 6950POPC   C4B34198   9.477  30.788   7.650
 6951POPC   NC334199  13.666  29.182   9.450
 6951POPC   PO434200  13.650  29.116   9.150
 6951POPC   GL134201  13.615  29.109   8.850
 6951POPC   GL234202  13.777  29.140   8.850
 6951POPC   C1A34203  13.677  29.099   8.550
 6951POPC   D2A34204  13.580  29.161   8.250
 6951POPC   C3A34205  13.605  29.183   7.950
 6951POPC   C4A34206  13.666  29.136   7.650
 6951POPC   C1B34207  13.810  29.085   8.550
 6951POPC   C2B34208  13.880  29.074   8.250
 6951POPC   C3B34209  13.830  29.046   7.950
 6951POPC   C4B34210  13.902  29.089   7.650
 6952POPC   NC334211  40.035  41.606   9.450
 6952POPC   PO434212  40.035  41.558   9.150
 6952POPC   GL134213  39.976  41.543   8.850
 6952POPC   GL234214  39.892  41.688   8.850
 6952POPC   C1A34215  39.969  41.540   8.550
 6952POPC   D2A34216  39.971  41.531   8.250
 6952POPC   C3A34217  40.025  41.551   7.950
 6952POPC   C4A34218  39.984  41.555   7.650
 6952POPC   C1B34219  39.865  41.709   8.550
 6952POPC   C2B34220  39.813  41.709   8.250
 6952POPC   C3B34221  39.879  41.727   7.950
 6952POPC   C4B34222  39.859  41.766   7.650
 6953POPC   NC334223   7.441  29.932   9.450
 6953POPC   PO434224   7.421  29.908   9.150
 6953POPC   GL134225   7.454  29.892   8.850
 6953POPC   GL234226   7.511  29.795   8.850
 6953POPC   C1A34227   7.431  29.958   8.550
 6953POPC   D2A34228   7.445  29.958   8.250
 6953POPC   C3A34229   7.405  29.872   7.950
 6953POPC   C4A34230   7.443  29.938   7.650
 6953POPC   C1B34231   7.591  29.721   8.550
 6953POPC   C2B34232   7.601  29.755   8.250
 6953POPC   C3B34233   7.578  29.714   7.950
 6953POPC   C4B34234   7.629  29.778   7.650
 6954POPC   NC334235  23.746  44.679   9.450
 6954POPC   PO434236  23.708  44.649   9.150
 6954POPC   GL134237  23.677  44.627   8.850
 6954POPC   GL234238  23.555  44.665   8.850
 6954POPC   C1A34239  23.681  44.667   8.550
 6954POPC   D2A34240  23.676  44.699   8.250
 6954POPC   C3A34241  23.753  44.711   7.950
 6954POPC   C4A34242  23.700  44.636   7.650
 6954POPC   C1B34243  23.451  44.711   8.550
 6954POPC   C2B34244  23.486  44.698   8.250
 6954POPC   C3B34245  23.476  44.709   7.950
 6954POPC   C4B34246  23.447  44.747   7.650
 6955POPC   NC334247  16.772  33.002   9.450
 6955POPC   PO434248  16.686  32.995   9.150
 6955POPC   GL134249  16.761  32.994   8.850
 6955POPC   GL234250  16.656  33.056   8.850
 6955POPC   C1A34251  16.727  33.072   8.550
 6955POPC   D2A34252  16.776  33.048   8.250
 6955POPC   C3A34253  16.699  33.011   7.950
 6955POPC   C4A34254  16.705  32.983   7.650
 6955POPC   C1B34255  16.506  33.042   8.550
 6955POPC   C2B34256  16.536  33.041   8.250
 6955POPC   C3B34257  16.472  33.070   7.950
 6955POPC   C4B34258  16.472  33.101   7.650
 6956POPC   NC334259   7.443  41.513   9.450
 6956POPC   PO434260   7.464  41.608   9.150
 6956POPC   GL134261   7.425  41.573   8.850
 6956POPC   GL234262   7.539  41.547   8.850
 6956POPC   C1A34263   7.436  41.514   8.550
 6956POPC   D2A34264   7.459  41.525   8.250
 6956POPC   C3A34265   7.433  41.512   7.950
 6956POPC   C4A34266   7.459  41.549   7.650
 6956POPC   C1B34267   7.605  41.433   8.550
 6956POPC   C2B34268   7.604  41.451   8.250
 6956POPC   C3B34269   7.667  41.481   7.950
 6956POPC   C4B34270   7.666  41.465   7.650
 6957POPC   NC334271  40.806   5.136   9.450
 6957POPC   PO434272  40.807   5.134   9.150
 6957POPC   GL134273  40.798   5.091   8.850
 6957POPC   GL234274  40.696   5.024   8.850
 6957POPC   C1A34275  40.745   5.060   8.550
 6957POPC   D2A34276  40.755   5.049   8.250
 6957POPC   C3A34277  40.782   5.055   7.950
 6957POPC   C4A34278  40.802   5.141   7.650
 6957POPC   C1B34279  40.650   4.885   8.550
 6957POPC   C2B34280  40.651   4.866   8.250
 6957POPC   C3B34281  40.626   4.896   7.950
 6957POPC   C4B34282  40.680   4.832   7.650
 6958POPC   NC334283  12.859   2.742   9.450
 6958POPC   PO434284  12.891   2.771   9.150
 6958POPC   GL134285  12.872   2.751   8.850
 6958POPC   GL234286  12.881   2.939   8.850
 6958POPC   C1A34287  12.857   2.784   8.550
 6958POPC   D2A34288  12.819   2.797   8.250
 6958POPC   C3A34289  12.859   2.787   7.950
 6958POPC   C4A34290  12.838   2.811   7.650
 6958POPC   C1B34291  12.824   2.988   8.550
 6958POPC   C2B34292  12.823   2.995   8.250
 6958POPC   C3B34293  12.784   2.971   7.950
 6958POPC   C4B34294  12.846   3.052   7.650
 6959POPC   NC334295   8.956  35.350   9.450
 6959POPC   PO434296   8.980  35.337   9.150
 6959POPC   GL134297   8.967  35.392   8.850
 6959POPC   GL234298   8.997  35.225   8.850
 6959POPC   C1A34299   8.923  35.368   8.550
 6959POPC   D2A34300   8.953  35.340   8.250
 6959POPC   C3A34301   9.021  35.345   7.950
 6959POPC   C4A34302   9.003  35.306   7.650
 6959POPC   C1B34303   9.053  35.076   8.550
 6959POPC   C2B34304   9.032  35.079   8.250
 6959POPC   C3B34305   9.100  35.091   7.950
 6959POPC   C4B34306   9.045  35.158   7.650
 6960POPC   NC334307  39.226   3.552   9.450
 6960POPC   PO434308  39.242   3.566   9.150
 6960POPC   GL134309  39.260   3.585   8.850
 6960POPC   GL234310  39.292   3.675   8.850
 6960POPC   C1A34311  39.248   3.549   8.550
 6960POPC   D2A34312  39.230   3.519   8.250
 6960POPC   C3A34313  39.247   3.583   7.950
 6960POPC   C4A34314  39.184   3.547   7.650
 6960POPC   C1B34315  39.363   3.732   8.550
 6960POPC   C2B34316  39.300   3.796   8.250
 6960POPC   C3B34317  39.378   3.774   7.950
 6960POPC   C4B34318  39.324   3.792   7.650
 6961POPC   NC334319  10.490  22.116   9.450
 6961POPC   PO434320  10.533  22.131   9.150
 6961POPC   GL134321  10.560  22.113   8.850
 6961POPC   GL234322  10.653  22.114   8.850
 6961POPC   C1A34323  10.483  22.175   8.550
 6961POPC   D2A34324  10.542  22.150   8.250
 6961POPC   C3A34325  10.552  22.123   7.950
 6961POPC   C4A34326  10.560  22.183   7.650
 6961POPC   C1B34327  10.673  22.014   8.550
 6961POPC   C2B34328  10.720  21.984   8.250
 6961POPC   C3B34329  10.702  21.965   7.950
 6961POPC   C4B34330  10.724  21.992   7.650
 6962POPC   NC334331   4.276  42.317   9.450
 6962POPC   PO434332   4.287  42.334   9.150
 6962POPC   GL134333   4.329  42.365   8.850
 6962POPC   GL234334   4.318  42.182   8.850
 6962POPC   C1A34335   4.285  42.364   8.550
 6962POPC   D2A34336   4.348  42.365   8.250
 6962POPC   C3A34337   4.288  42.314   7.950
 6962POPC   C4A34338   4.274  42.286   7.650
 6962POPC   C1B34339   4.382  42.059   8.550
 6962POPC   C2B34340   4.400  42.111   8.250
 6962POPC   C3B34341   4.419  42.144   7.950
 6962POPC   C4B34342   4.366  42.083   7.650
 6963POPC   NC334343  20.591  19.038   9.450
 6963POPC   PO434344  20.566  19.085   9.150
 6963POPC   GL134345  20.629  19.068   8.850
 6963POPC   GL234346  20.756  19.098   8.850
 6963POPC   C1A34347  20.638  19.041   8.550
 6963POPC   D2A34348  20.630  19.015   8.250
 6963POPC   C3A34349  20.579  19.097   7.950
 6963POPC   C4A34350  20.611  19.069   7.650
 6963POPC   C1B34351  20.862  19.112   8.550
 6963POPC   C2B34352  20.810  19.139   8.250
 6963POPC   C3B34353  20.819  19.178   7.950
 6963POPC   C4B34354  20.825  19.105   7.650
 6964POPC   NC334355  34.603  38.435   9.450
 6964POPC   PO434356  34.565  38.419   9.150
 6964POPC   GL134357  34.539  38.439   8.850
 6964POPC   GL234358  34.633  38.371   8.850
 6964POPC   C1A34359  34.622  38.431   8.550
 6964POPC   D2A34360  34.607  38.459   8.250
 6964POPC   C3A34361  34.625  38.498   7.950
 6964POPC   C4A34362  34.605  38.488   7.650
 6964POPC   C1B34363  34.676  38.251   8.550
 6964POPC   C2B34364  34.650  38.219   8.250
 6964POPC   C3B34365  34.673  38.253   7.950
 6964POPC   C4B34366  34.674  38.238   7.650
 6965POPC   NC334367  14.407  29.097   9.450
 6965POPC   PO434368  14.440  29.167   9.150
 6965POPC   GL134369  14.375  29.187   8.850
 6965POPC   GL234370  14.551  29.148   8.850
 6965POPC   C1A34371  14.439  29.147   8.550
 6965POPC   D2A34372  14.405  29.130   8.250
 6965POPC   C3A34373  14.394  29.097   7.950
 6965POPC   C4A34374  14.379  29.154   7.650
 6965POPC   C1B34375  14.625  29.083   8.550
 6965POPC   C2B34376  14.614  29.091   8.250
 6965POPC   C3B34377  14.700  29.141   7.950
 6965POPC   C4B34378  14.696  29.149   7.650
 6966POPC   NC334379  11.320  38.418   9.450
 6966POPC   PO434380  11.252  38.470   9.150
 6966POPC   GL134381  11.345  38.470   8.850
 6966POPC   GL234382  11.337  38.559   8.850
 6966POPC   C1A34383  11.334  38.411   8.550
 6966POPC   D2A34384  11.346  38.443   8.250
 6966POPC   C3A34385  11.315  38.502   7.950
 6966POPC   C4A34386  11.341  38.503   7.650
 6966POPC   C1B34387  11.307  38.718   8.550
 6966POPC   C2B34388  11.276  38.658   8.250
 6966POPC   C3B34389  11.277  38.662   7.950
 6966POPC   C4B34390  11.316  38.659   7.650
 6967POPC   NC334391  40.750  12.053   9.450
 6967POPC   PO434392  40.796  12.072   9.150
 6967POPC   GL134393  40.825  12.046   8.850
 6967POPC   GL234394  40.717  12.174   8.850
 6967POPC   C1A34395  40.784  12.104   8.550
 6967POPC   D2A34396  40.789  12.060   8.250
 6967POPC   C3A34397  40.765  12.045   7.950
 6967POPC   C4A34398  40.821  12.060   7.650
 6967POPC   C1B34399  40.709  12.327   8.550
 6967POPC   C2B34400  40.702  12.366   8.250
 6967POPC   C3B34401  40.705  12.341   7.950
 6967POPC   C4B34402  40.741  12.298   7.650
 6968POPC   NC334403  39.993  33.825   9.450
 6968POPC   PO434404  39.991  33.849   9.150
 6968POPC   GL134405  39.968  33.790   8.850
 6968POPC   GL234406  39.941  33.749   8.850
 6968POPC   C1A34407  40.056  33.813   8.550
 6968POPC   D2A34408  40.043  33.780   8.250
 6968POPC   C3A34409  40.032  33.758   7.950
 6968POPC   C4A34410  40.003  33.771   7.650
 6968POPC   C1B34411  39.867  33.654   8.550
 6968POPC   C2B34412  39.835  33.660   8.250
 6968POPC   C3B34413  39.848  33.623   7.950
 6968POPC   C4B34414  39.817  33.652   7.650
 6969POPC   NC334415  23.709  31.467   9.450
 6969POPC   PO434416  23.727  31.470   9.150
 6969POPC   GL134417  23.700  31.441   8.850
 6969POPC   GL234418  23.812  31.468   8.850
 6969POPC   C1A34419  23.668  31.422   8.550
 6969POPC   D2A34420  23.692  31.495   8.250
 6969POPC   C3A34421  23.749  31.494   7.950
 6969POPC   C4A34422  23.760  31.521   7.650
 6969POPC   C1B34423  23.948  31.432   8.550
 6969POPC   C2B34424  23.989  31.419   8.250
 6969POPC   C3B34425  23.914  31.407   7.950
 6969POPC   C4B34426  23.920  31.393   7.650
 6970POPC   NC334427  33.793  11.286   9.450
 6970POPC   PO434428  33.783  11.303   9.150
 6970POPC   GL134429  33.778  11.286   8.850
 6970POPC   GL234430  33.794  11.461   8.850
 6970POPC   C1A34431  33.760  11.322   8.550
 6970POPC   D2A34432  33.825  11.289   8.250
 6970POPC   C3A34433  33.752  11.287   7.950
 6970POPC   C4A34434  33.811  11.333   7.650
 6970POPC   C1B34435  33.798  11.578   8.550
 6970POPC   C2B34436  33.802  11.598   8.250
 6970POPC   C3B34437  33.759  11.504   7.950
 6970POPC   C4B34438  33.838  11.511   7.650
 6971POPC   NC334439  26.854  22.178   9.450
 6971POPC   PO434440  26.771  22.114   9.150
 6971POPC   GL134441  26.845  22.170   8.850
 6971POPC   GL234442  26.823  22.044   8.850
 6971POPC   C1A34443  26.827  22.178   8.550
 6971POPC   D2A34444  26.847  22.187   8.250
 6971POPC   C3A34445  26.826  22.123   7.950
 6971POPC   C4A34446  26.860  22.172   7.650
 6971POPC   C1B34447  26.891  21.903   8.550
 6971POPC   C2B34448  26.890  21.946   8.250
 6971POPC   C3B34449  26.914  21.902   7.950
 6971POPC   C4B34450  26.933  21.885   7.650
 6972POPC   NC334451  14.409  15.973   9.450
 6972POPC   PO434452  14.405  15.953   9.150
 6972POPC   GL134453  14.442  15.929   8.850
 6972POPC   GL234454  14.511  15.875   8.850
 6972POPC   C1A34455  14.408  15.950   8.550
 6972POPC   D2A34456  14.452  15.979   8.250
 6972POPC   C3A34457  14.430  15.913   7.950
 6972POPC   C4A34458  14.424  15.950   7.650
 6972POPC   C1B34459  14.608  15.767   8.550
 6972POPC   C2B34460  14.558  15.829   8.250
 6972POPC   C3B34461  14.618  15.765   7.950
 6972POPC   C4B34462  14.583  15.791   7.650
 6973POPC   NC334463  12.075  38.503   9.450
 6973POPC   PO434464  12.052  38.425   9.150
 6973POPC   GL134465  12.097  38.493   8.850
 6973POPC   GL234466  12.079  38.574   8.850
 6973POPC   C1A34467  12.059  38.475   8.550
 6973POPC   D2A34468  12.084  38.492   8.250
 6973POPC   C3A34469  12.056  38.462   7.950
 6973POPC   C4A34470  12.035  38.408   7.650
 6973POPC   C1B34471  12.081  38.741   8.550
 6973POPC   C2B34472  12.071  38.666   8.250
 6973POPC   C3B34473  12.011  38.687   7.950
 6973POPC   C4B34474  12.081  38.659   7.650
 6974POPC   NC334475  32.289   5.059   9.450
 6974POPC   PO434476  32.214   5.092   9.150
 6974POPC   GL134477  32.250   5.141   8.850
 6974POPC   GL234478  32.226   5.225   8.850
 6974POPC   C1A34479  32.273   5.124   8.550
 6974POPC   D2A34480  32.253   5.055   8.250
 6974POPC   C3A34481  32.220   5.069   7.950
 6974POPC   C4A34482  32.265   5.126   7.650
 6974POPC   C1B34483  32.157   5.294   8.550
 6974POPC   C2B34484  32.154   5.274   8.250
 6974POPC   C3B34485  32.100   5.338   7.950
 6974POPC   C4B34486  32.124   5.274   7.650
 6975POPC   NC334487   8.986   8.217   9.450
 6975POPC   PO434488   8.980   8.243   9.150
 6975POPC   GL134489   8.927   8.197   8.850
 6975POPC   GL234490   9.114   8.103   8.850
 6975POPC   C1A34491   8.947   8.172   8.550
 6975POPC   D2A34492   8.977   8.210   8.250
 6975POPC   C3A34493   8.979   8.147   7.950
 6975POPC   C4A34494   8.957   8.217   7.650
 6975POPC   C1B34495   9.167   8.032   8.550
 6975POPC   C2B34496   9.126   8.036   8.250
 6975POPC   C3B34497   9.207   8.060   7.950
 6975POPC   C4B34498   9.147   8.054   7.650
 6976POPC   NC334499  29.873  44.642   9.450
 6976POPC   PO434500  29.877  44.630   9.150
 6976POPC   GL134501  29.938  44.638   8.850
 6976POPC   GL234502  29.856  44.759   8.850
 6976POPC   C1A34503  29.907  44.672   8.550
 6976POPC   D2A34504  29.892  44.697   8.250
 6976POPC   C3A34505  29.934  44.668   7.950
 6976POPC   C4A34506  29.888  44.689   7.650
 6976POPC   C1B34507  29.872  44.868   8.550
 6976POPC   C2B34508  29.819  44.854   8.250
 6976POPC   C3B34509  29.788  44.848   7.950
 6976POPC   C4B34510  29.844  44.881   7.650
 6977POPC   NC334511  16.779  25.238   9.450
 6977POPC   PO434512  16.691  25.296   9.150
 6977POPC   GL134513  16.734  25.257   8.850
 6977POPC   GL234514  16.788  25.347   8.850
 6977POPC   C1A34515  16.704  25.303   8.550
 6977POPC   D2A34516  16.729  25.219   8.250
 6977POPC   C3A34517  16.767  25.252   7.950
 6977POPC   C4A34518  16.711  25.234   7.650
 6977POPC   C1B34519  16.917  25.465   8.550
 6977POPC   C2B34520  16.917  25.415   8.250
 6977POPC   C3B34521  16.891  25.427   7.950
 6977POPC   C4B34522  16.921  25.385   7.650
 6978POPC   NC334523  22.150  28.368   9.450
 6978POPC   PO434524  22.161  28.377   9.150
 6978POPC   GL134525  22.137  28.416   8.850
 6978POPC   GL234526  22.227  28.469   8.850
 6978POPC   C1A34527  22.135  28.348   8.550
 6978POPC   D2A34528  22.156  28.350   8.250
 6978POPC   C3A34529  22.189  28.410   7.950
 6978POPC   C4A34530  22.171  28.334   7.650
 6978POPC   C1B34531  22.261  28.614   8.550
 6978POPC   C2B34532  22.299  28.571   8.250
 6978POPC   C3B34533  22.214  28.608   7.950
 6978POPC   C4B34534  22.267  28.637   7.650
 6979POPC   NC334535  11.325  23.756   9.450
 6979POPC   PO434536  11.263  23.736   9.150
 6979POPC   GL134537  11.319  23.701   8.850
 6979POPC   GL234538  11.148  23.745   8.850
 6979POPC   C1A34539  11.275  23.715   8.550
 6979POPC   D2A34540  11.290  23.749   8.250
 6979POPC   C3A34541  11.270  23.671   7.950
 6979POPC   C4A34542  11.308  23.760   7.650
 6979POPC   C1B34543  11.016  23.777   8.550
 6979POPC   C2B34544  11.108  23.747   8.250
 6979POPC   C3B34545  11.083  23.827   7.950
 6979POPC   C4B34546  11.030  23.824   7.650
 6980POPC   NC334547  15.939  13.668   9.450
 6980POPC   PO434548  15.986  13.668   9.150
 6980POPC   GL134549  15.984  13.650   8.850
 6980POPC   GL234550  16.061  13.519   8.850
 6980POPC   C1A34551  15.927  13.600   8.550
 6980POPC   D2A34552  15.961  13.588   8.250
 6980POPC   C3A34553  15.921  13.626   7.950
 6980POPC   C4A34554  15.990  13.586   7.650
 6980POPC   C1B34555  16.097  13.445   8.550
 6980POPC   C2B34556  16.145  13.403   8.250
 6980POPC   C3B34557  16.159  13.399   7.950
 6980POPC   C4B34558  16.082  13.487   7.650
 6981POPC   NC334559  31.428   4.297   9.450
 6981POPC   PO434560  31.463   4.301   9.150
 6981POPC   GL134561  31.478   4.332   8.850
 6981POPC   GL234562  31.554   4.451   8.850
 6981POPC   C1A34563  31.425   4.345   8.550
 6981POPC   D2A34564  31.461   4.351   8.250
 6981POPC   C3A34565  31.479   4.353   7.950
 6981POPC   C4A34566  31.457   4.346   7.650
 6981POPC   C1B34567  31.551   4.574   8.550
 6981POPC   C2B34568  31.631   4.499   8.250
 6981POPC   C3B34569  31.610   4.561   7.950
 6981POPC   C4B34570  31.624   4.575   7.650
 6982POPC   NC334571  43.138  34.610   9.450
 6982POPC   PO434572  43.072  34.607   9.150
 6982POPC   GL134573  43.065  34.592   8.850
 6982POPC   GL234574  42.956  34.517   8.850
 6982POPC   C1A34575  43.152  34.615   8.550
 6982POPC   D2A34576  43.109  34.555   8.250
 6982POPC   C3A34577  43.068  34.610   7.950
 6982POPC   C4A34578  43.092  34.578   7.650
 6982POPC   C1B34579  42.906  34.491   8.550
 6982POPC   C2B34580  42.894  34.454   8.250
 6982POPC   C3B34581  42.879  34.497   7.950
 6982POPC   C4B34582  42.887  34.487   7.650
 6983POPC   NC334583  43.104   2.812   9.450
 6983POPC   PO434584  43.095   2.759   9.150
 6983POPC   GL134585  43.140   2.738   8.850
 6983POPC   GL234586  43.036   2.794   8.850
 6983POPC   C1A34587  43.090   2.770   8.550
 6983POPC   D2A34588  43.066   2.780   8.250
 6983POPC   C3A34589  43.063   2.799   7.950
 6983POPC   C4A34590  43.155   2.778   7.650
 6983POPC   C1B34591  42.886   2.839   8.550
 6983POPC   C2B34592  42.866   2.850   8.250
 6983POPC   C3B34593  42.845   2.915   7.950
 6983POPC   C4B34594  42.922   2.885   7.650
 6984POPC   NC334595  12.121  28.353   9.450
 6984POPC   PO434596  12.087  28.353   9.150
 6984POPC   GL134597  12.113  28.405   8.850
 6984POPC   GL234598  12.245  28.401   8.850
 6984POPC   C1A34599  12.074  28.400   8.550
 6984POPC   D2A34600  12.077  28.382   8.250
 6984POPC   C3A34601  12.046  28.324   7.950
 6984POPC   C4A34602  12.123  28.325   7.650
 6984POPC   C1B34603  12.316  28.471   8.550
 6984POPC   C2B34604  12.307  28.457   8.250
 6984POPC   C3B34605  12.298  28.426   7.950
 6984POPC   C4B34606  12.345  28.487   7.650
 6985POPC   NC334607  29.874   0.389   9.450
 6985POPC   PO434608  29.930   0.432   9.150
 6985POPC   GL134609  29.896   0.402   8.850
 6985POPC   GL234610  29.814   0.436   8.850
 6985POPC   C1A34611  29.951   0.390   8.550
 6985POPC   D2A34612  29.925   0.423   8.250
 6985POPC   C3A34613  29.902   0.464   7.950
 6985POPC   C4A34614  29.895   0.438   7.650
 6985POPC   C1B34615  29.695   0.356   8.550
 6985POPC   C2B34616  29.641   0.382   8.250
 6985POPC   C3B34617  29.666   0.400   7.950
 6985POPC   C4B34618  29.678   0.363   7.650
 6986POPC   NC334619  36.950  15.211   9.450
 6986POPC   PO434620  36.950  15.197   9.150
 6986POPC   GL134621  36.938  15.179   8.850
 6986POPC   GL234622  37.069  15.221   8.850
 6986POPC   C1A34623  36.871  15.194   8.550
 6986POPC   D2A34624  36.872  15.179   8.250
 6986POPC   C3A34625  36.855  15.184   7.950
 6986POPC   C4A34626  36.943  15.193   7.650
 6986POPC   C1B34627  37.144  15.206   8.550
 6986POPC   C2B34628  37.173  15.179   8.250
 6986POPC   C3B34629  37.114  15.219   7.950
 6986POPC   C4B34630  37.103  15.202   7.650
 6987POPC   NC334631  29.122  20.599   9.450
 6987POPC   PO434632  29.173  20.589   9.150
 6987POPC   GL134633  29.174  20.640   8.850
 6987POPC   GL234634  29.024  20.648   8.850
 6987POPC   C1A34635  29.147  20.626   8.550
 6987POPC   D2A34636  29.188  20.646   8.250
 6987POPC   C3A34637  29.166  20.581   7.950
 6987POPC   C4A34638  29.190  20.631   7.650
 6987POPC   C1B34639  28.984  20.762   8.550
 6987POPC   C2B34640  28.959  20.768   8.250
 6987POPC   C3B34641  28.980  20.769   7.950
 6987POPC   C4B34642  28.988  20.737   7.650
 6988POPC   NC334643  15.150  32.234   9.450
 6988POPC   PO434644  15.157  32.234   9.150
 6988POPC   GL134645  15.136  32.296   8.850
 6988POPC   GL234646  15.208  32.106   8.850
 6988POPC   C1A34647  15.206  32.228   8.550
 6988POPC   D2A34648  15.155  32.212   8.250
 6988POPC   C3A34649  15.213  32.278   7.950
 6988POPC   C4A34650  15.151  32.249   7.650
 6988POPC   C1B34651  15.285  31.993   8.550
 6988POPC   C2B34652  15.251  31.991   8.250
 6988POPC   C3B34653  15.256  32.054   7.950
 6988POPC   C4B34654  15.253  32.039   7.650
 6989POPC   NC334655  36.940  10.549   9.450
 6989POPC   PO434656  36.933  10.515   9.150
 6989POPC   GL134657  36.925  10.523   8.850
 6989POPC   GL234658  36.828  10.684   8.850
 6989POPC   C1A34659  36.869  10.489   8.550
 6989POPC   D2A34660  36.880  10.498   8.250
 6989POPC   C3A34661  36.897  10.486   7.950
 6989POPC   C4A34662  36.946  10.566   7.650
 6989POPC   C1B34663  36.768  10.781   8.550
 6989POPC   C2B34664  36.837  10.776   8.250
 6989POPC   C3B34665  36.810  10.731   7.950
 6989POPC   C4B34666  36.786  10.758   7.650
 6990POPC   NC334667  26.084  29.920   9.450
 6990POPC   PO434668  26.013  29.888   9.150
 6990POPC   GL134669  26.053  29.886   8.850
 6990POPC   GL234670  26.180  29.961   8.850
 6990POPC   C1A34671  26.041  29.926   8.550
 6990POPC   D2A34672  26.025  29.932   8.250
 6990POPC   C3A34673  26.009  29.928   7.950
 6990POPC   C4A34674  26.035  29.874   7.650
 6990POPC   C1B34675  26.276  30.004   8.550
 6990POPC   C2B34676  26.303  30.097   8.250
 6990POPC   C3B34677  26.226  30.087   7.950
 6990POPC   C4B34678  26.256  30.030   7.650
 6991POPC   NC334679   6.626  12.816   9.450
 6991POPC   PO434680   6.677  12.820   9.150
 6991POPC   GL134681   6.597  12.813   8.850
 6991POPC   GL234682   6.750  12.829   8.850
 6991POPC   C1A34683   6.609  12.841   8.550
 6991POPC   D2A34684   6.632  12.807   8.250
 6991POPC   C3A34685   6.660  12.819   7.950
 6991POPC   C4A34686   6.618  12.868   7.650
 6991POPC   C1B34687   6.921  12.804   8.550
 6991POPC   C2B34688   6.894  12.848   8.250
 6991POPC   C3B34689   6.906  12.825   7.950
 6991POPC   C4B34690   6.910  12.891   7.650
 6992POPC   NC334691  29.109  44.659   9.450
 6992POPC   PO434692  29.139  44.633   9.150
 6992POPC   GL134693  29.184  44.650   8.850
 6992POPC   GL234694  29.125  44.731   8.850
 6992POPC   C1A34695  29.183  44.686   8.550
 6992POPC   D2A34696  29.166  44.677   8.250
 6992POPC   C3A34697  29.177  44.613   7.950
 6992POPC   C4A34698  29.172  44.676   7.650
 6992POPC   C1B34699  29.081  44.858   8.550
 6992POPC   C2B34700  29.043  44.899   8.250
 6992POPC   C3B34701  29.071  44.935   7.950
 6992POPC   C4B34702  29.046  44.848   7.650
 6993POPC   NC334703   0.444   5.916   9.450
 6993POPC   PO434704   0.393   5.875   9.150
 6993POPC   GL134705   0.429   5.883   8.850
 6993POPC   GL234706   0.334   5.844   8.850
 6993POPC   C1A34707   0.454   5.896   8.550
 6993POPC   D2A34708   0.479   5.869   8.250
 6993POPC   C3A34709   0.456   5.883   7.950
 6993POPC   C4A34710   0.439   5.895   7.650
 6993POPC   C1B34711   0.198   5.911   8.550
 6993POPC   C2B34712   0.234   5.893   8.250
 6993POPC   C3B34713   0.185   5.831   7.950
 6993POPC   C4B34714   0.218   5.902   7.650
 6994POPC   NC334715  31.474  31.507   9.450
 6994POPC   PO434716  31.482  31.441   9.150
 6994POPC   GL134717  31.447  31.425   8.850
 6994POPC   GL234718  31.608  31.480   8.850
 6994POPC   C1A34719  31.491  31.428   8.550
 6994POPC   D2A34720  31.444  31.453   8.250
 6994POPC   C3A34721  31.460  31.463   7.950
 6994POPC   C4A34722  31.451  31.496   7.650
 6994POPC   C1B34723  31.732  31.530   8.550
 6994POPC   C2B34724  31.695  31.561   8.250
 6994POPC   C3B34725  31.675  31.555   7.950
 6994POPC   C4B34726  31.668  31.552   7.650
 6995POPC   NC334727   5.055   9.760   9.450
 6995POPC   PO434728   5.062   9.780   9.150
 6995POPC   GL134729   5.084   9.743   8.850
 6995POPC   GL234730   4.944   9.787   8.850
 6995POPC   C1A34731   5.121   9.758   8.550
 6995POPC   D2A34732   5.110   9.702   8.250
 6995POPC   C3A34733   5.049   9.701   7.950
 6995POPC   C4A34734   5.067   9.738   7.650
 6995POPC   C1B34735   4.838   9.765   8.550
 6995POPC   C2B34736   4.879   9.739   8.250
 6995POPC   C3B34737   4.892   9.797   7.950
 6995POPC   C4B34738   4.888   9.746   7.650
 6996POPC   NC334739   1.183  14.417   9.450
 6996POPC   PO434740   1.207  14.381   9.150
 6996POPC   GL134741   1.248  14.444   8.850
 6996POPC   GL234742   1.277  14.553   8.850
 6996POPC   C1A34743   1.171  14.443   8.550
 6996POPC   D2A34744   1.180  14.400   8.250
 6996POPC   C3A34745   1.259  14.403   7.950
 6996POPC   C4A34746   1.224  14.443   7.650
 6996POPC   C1B34747   1.399  14.629   8.550
 6996POPC   C2B34748   1.367  14.578   8.250
 6996POPC   C3B34749   1.343  14.581   7.950
 6996POPC   C4B34750   1.408  14.573   7.650
 6997POPC   NC334751   5.880   3.519   9.450
 6997POPC   PO434752   5.896   3.507   9.150
 6997POPC   GL134753   5.860   3.497   8.850
 6997POPC   GL234754   5.985   3.486   8.850
 6997POPC   C1A34755   5.850   3.531   8.550
 6997POPC   D2A34756   5.912   3.570   8.250
 6997POPC   C3A34757   5.917   3.494   7.950
 6997POPC   C4A34758   5.908   3.569   7.650
 6997POPC   C1B34759   6.123   3.409   8.550
 6997POPC   C2B34760   6.081   3.449   8.250
 6997POPC   C3B34761   6.062   3.399   7.950
 6997POPC   C4B34762   6.139   3.424   7.650
 6998POPC   NC334763  26.056  33.053   9.450
 6998POPC   PO434764  26.024  33.031   9.150
 6998POPC   GL134765  26.023  33.040   8.850
 6998POPC   GL234766  26.046  32.888   8.850
 6998POPC   C1A34767  26.083  32.977   8.550
 6998POPC   D2A34768  26.072  33.069   8.250
 6998POPC   C3A34769  26.045  33.014   7.950
 6998POPC   C4A34770  26.081  33.023   7.650
 6998POPC   C1B34771  26.135  32.783   8.550
 6998POPC   C2B34772  26.134  32.798   8.250
 6998POPC   C3B34773  26.117  32.769   7.950
 6998POPC   C4B34774  26.163  32.813   7.650
 6999POPC   NC334775  37.693  43.155   9.450
 6999POPC   PO434776  37.652  43.159   9.150
 6999POPC   GL134777  37.688  43.073   8.850
 6999POPC   GL234778  37.579  43.036   8.850
 6999POPC   C1A34779  37.700  43.064   8.550
 6999POPC   D2A34780  37.685  43.089   8.250
 6999POPC   C3A34781  37.666  43.153   7.950
 6999POPC   C4A34782  37.676  43.080   7.650
 6999POPC   C1B34783  37.470  42.962   8.550
 6999POPC   C2B34784  37.465  42.935   8.250
 6999POPC   C3B34785  37.486  42.902   7.950
 6999POPC   C4B34786  37.531  42.947   7.650
 7000POPC   NC334787   6.659  10.512   9.450
 7000POPC   PO434788   6.628  10.564   9.150
 7000POPC   GL134789   6.615  10.504   8.850
 7000POPC   GL234790   6.595  10.620   8.850
 7000POPC   C1A34791   6.660  10.498   8.550
 7000POPC   D2A34792   6.652  10.488   8.250
 7000POPC   C3A34793   6.595  10.546   7.950
 7000POPC   C4A34794   6.601  10.544   7.650
 7000POPC   C1B34795   6.646  10.751   8.550
 7000POPC   C2B34796   6.642  10.779   8.250
 7000POPC   C3B34797   6.590  10.774   7.950
 7000POPC   C4B34798   6.592  10.743   7.650
 7001POPC   NC334799  42.292  20.619   9.450
 7001POPC   PO434800  42.358  20.646   9.150
 7001POPC   GL134801  42.314  20.627   8.850
 7001POPC   GL234802  42.496  20.582   8.850
 7001POPC   C1A34803  42.382  20.561   8.550
 7001POPC   D2A34804  42.298  20.606   8.250
 7001POPC   C3A34805  42.365  20.576   7.950
 7001POPC   C4A34806  42.348  20.596   7.650
 7001POPC   C1B34807  42.596  20.547   8.550
 7001POPC   C2B34808  42.560  20.562   8.250
 7001POPC   C3B34809  42.555  20.557   7.950
 7001POPC   C4B34810  42.533  20.538   7.650
 7002POPC   NC334811  25.283   4.338   9.450
 7002POPC   PO434812  25.261   4.338   9.150
 7002POPC   GL134813  25.245   4.303   8.850
 7002POPC   GL234814  25.380   4.304   8.850
 7002POPC   C1A34815  25.226   4.272   8.550
 7002POPC   D2A34816  25.253   4.329   8.250
 7002POPC   C3A34817  25.266   4.359   7.950
 7002POPC   C4A34818  25.222   4.273   7.650
 7002POPC   C1B34819  25.470   4.234   8.550
 7002POPC   C2B34820  25.542   4.317   8.250
 7002POPC   C3B34821  25.489   4.314   7.950
 7002POPC   C4B34822  25.515   4.318   7.650
 7003POPC   NC334823  40.017  10.503   9.450
 7003POPC   PO434824  39.978  10.541   9.150
 7003POPC   GL134825  40.030  10.507   8.850
 7003POPC   GL234826  39.870  10.566   8.850
 7003POPC   C1A34827  40.038  10.553   8.550
 7003POPC   D2A34828  40.014  10.539   8.250
 7003POPC   C3A34829  40.041  10.498   7.950
 7003POPC   C4A34830  39.990  10.484   7.650
 7003POPC   C1B34831  39.741  10.579   8.550
 7003POPC   C2B34832  39.776  10.525   8.250
 7003POPC   C3B34833  39.736  10.560   7.950
 7003POPC   C4B34834  39.752  10.560   7.650
 7004POPC   NC334835  37.675   3.503   9.450
 7004POPC   PO434836  37.718   3.551   9.150
 7004POPC   GL134837  37.714   3.576   8.850
 7004POPC   GL234838  37.826   3.642   8.850
 7004POPC   C1A34839  37.711   3.539   8.550
 7004POPC   D2A34840  37.644   3.508   8.250
 7004POPC   C3A34841  37.702   3.518   7.950
 7004POPC   C4A34842  37.659   3.501   7.650
 7004POPC   C1B34843  37.888   3.647   8.550
 7004POPC   C2B34844  37.927   3.662   8.250
 7004POPC   C3B34845  37.902   3.658   7.950
 7004POPC   C4B34846  37.910   3.682   7.650
 7005POPC   NC334847   1.174  17.464   9.450
 7005POPC   PO434848   1.178  17.489   9.150
 7005POPC   GL134849   1.207  17.475   8.850
 7005POPC   GL234850   1.295  17.563   8.850
 7005POPC   C1A34851   1.223  17.523   8.550
 7005POPC   D2A34852   1.238  17.524   8.250
 7005POPC   C3A34853   1.183  17.463   7.950
 7005POPC   C4A34854   1.191  17.532   7.650
 7005POPC   C1B34855   1.395  17.590   8.550
 7005POPC   C2B34856   1.481  17.619   8.250
 7005POPC   C3B34857   1.436  17.580   7.950
 7005POPC   C4B34858   1.489  17.593   7.650
 7006POPC   NC334859   6.657  24.442   9.450
 7006POPC   PO434860   6.639  24.464   9.150
 7006POPC   GL134861   6.689  24.470   8.850
 7006POPC   GL234862   6.693  24.359   8.850
 7006POPC   C1A34863   6.668  24.519   8.550
 7006POPC   D2A34864   6.615  24.473   8.250
 7006POPC   C3A34865   6.599  24.532   7.950
 7006POPC   C4A34866   6.683  24.528   7.650
 7006POPC   C1B34867   6.832  24.236   8.550
 7006POPC   C2B34868   6.737  24.245   8.250
 7006POPC   C3B34869   6.831  24.284   7.950
 7006POPC   C4B34870   6.795  24.322   7.650
 7007POPC   NC334871  34.559  21.349   9.450
 7007POPC   PO434872  34.535  21.413   9.150
 7007POPC   GL134873  34.542  21.420   8.850
 7007POPC   GL234874  34.704  21.379   8.850
 7007POPC   C1A34875  34.540  21.357   8.550
 7007POPC   D2A34876  34.608  21.417   8.250
 7007POPC   C3A34877  34.620  21.396   7.950
 7007POPC   C4A34878  34.583  21.365   7.650
 7007POPC   C1B34879  34.809  21.367   8.550
 7007POPC   C2B34880  34.849  21.441   8.250
 7007POPC   C3B34881  34.844  21.369   7.950
 7007POPC   C4B34882  34.809  21.351   7.650
 7008POPC   NC334883  33.789  42.364   9.450
 7008POPC   PO434884  33.849  42.338   9.150
 7008POPC   GL134885  33.815  42.343   8.850
 7008POPC   GL234886  33.801  42.415   8.850
 7008POPC   C1A34887  33.840  42.351   8.550
 7008POPC   D2A34888  33.759  42.370   8.250
 7008POPC   C3A34889  33.754  42.316   7.950
 7008POPC   C4A34890  33.753  42.327   7.650
 7008POPC   C1B34891  33.930  42.567   8.550
 7008POPC   C2B34892  33.912  42.539   8.250
 7008POPC   C3B34893  33.936  42.555   7.950
 7008POPC   C4B34894  33.888  42.560   7.650
 7009POPC   NC334895  38.467  36.132   9.450
 7009POPC   PO434896  38.448  36.089   9.150
 7009POPC   GL134897  38.446  36.158   8.850
 7009POPC   GL234898  38.588  36.145   8.850
 7009POPC   C1A34899  38.410  36.130   8.550
 7009POPC   D2A34900  38.444  36.088   8.250
 7009POPC   C3A34901  38.467  36.104   7.950
 7009POPC   C4A34902  38.476  36.151   7.650
 7009POPC   C1B34903  38.715  36.228   8.550
 7009POPC   C2B34904  38.638  36.231   8.250
 7009POPC   C3B34905  38.640  36.260   7.950
 7009POPC   C4B34906  38.708  36.242   7.650
 7010POPC   NC334907  40.777  40.002   9.450
 7010POPC   PO434908  40.794  40.033   9.150
 7010POPC   GL134909  40.735  40.031   8.850
 7010POPC   GL234910  40.873  40.100   8.850
 7010POPC   C1A34911  40.813  40.039   8.550
 7010POPC   D2A34912  40.797  39.990   8.250
 7010POPC   C3A34913  40.811  39.961   7.950
 7010POPC   C4A34914  40.772  39.995   7.650
 7010POPC   C1B34915  41.041  40.161   8.550
 7010POPC   C2B34916  40.986  40.174   8.250
 7010POPC   C3B34917  40.974  40.111   7.950
 7010POPC   C4B34918  41.003  40.122   7.650
 7011POPC   NC334919   7.430   7.407   9.450
 7011POPC   PO434920   7.409   7.409   9.150
 7011POPC   GL134921   7.432   7.452   8.850
 7011POPC   GL234922   7.291   7.540   8.850
 7011POPC   C1A34923   7.463   7.414   8.550
 7011POPC   D2A34924   7.419   7.389   8.250
 7011POPC   C3A34925   7.407   7.375   7.950
 7011POPC   C4A34926   7.468   7.450   7.650
 7011POPC   C1B34927   7.206   7.635   8.550
 7011POPC   C2B34928   7.210   7.549   8.250
 7011POPC   C3B34929   7.269   7.596   7.950
 7011POPC   C4B34930   7.215   7.616   7.650
 7012POPC   NC334931  33.820  12.057   9.450
 7012POPC   PO434932  33.765  12.110   9.150
 7012POPC   GL134933  33.822  12.095   8.850
 7012POPC   GL234934  33.872  11.996   8.850
 7012POPC   C1A34935  33.782  12.034   8.550
 7012POPC   D2A34936  33.761  12.051   8.250
 7012POPC   C3A34937  33.776  12.077   7.950
 7012POPC   C4A34938  33.811  12.096   7.650
 7012POPC   C1B34939  33.864  11.805   8.550
 7012POPC   C2B34940  33.866  11.800   8.250
 7012POPC   C3B34941  33.829  11.838   7.950
 7012POPC   C4B34942  33.899  11.819   7.650
 7013POPC   NC334943   6.681   9.760   9.450
 7013POPC   PO434944   6.658   9.756   9.150
 7013POPC   GL134945   6.692   9.769   8.850
 7013POPC   GL234946   6.759   9.674   8.850
 7013POPC   C1A34947   6.679   9.798   8.550
 7013POPC   D2A34948   6.641   9.740   8.250
 7013POPC   C3A34949   6.672   9.774   7.950
 7013POPC   C4A34950   6.620   9.791   7.650
 7013POPC   C1B34951   6.866   9.637   8.550
 7013POPC   C2B34952   6.893   9.615   8.250
 7013POPC   C3B34953   6.881   9.659   7.950
 7013POPC   C4B34954   6.907   9.693   7.650
 7014POPC   NC334955  30.654  12.112   9.450
 7014POPC   PO434956  30.673  12.069   9.150
 7014POPC   GL134957  30.735  12.085   8.850
 7014POPC   GL234958  30.581  12.050   8.850
 7014POPC   C1A34959  30.722  12.100   8.550
 7014POPC   D2A34960  30.682  12.057   8.250
 7014POPC   C3A34961  30.743  12.069   7.950
 7014POPC   C4A34962  30.647  12.063   7.650
 7014POPC   C1B34963  30.492  11.974   8.550
 7014POPC   C2B34964  30.459  11.952   8.250
 7014POPC   C3B34965  30.532  11.948   7.950
 7014POPC   C4B34966  30.480  11.928   7.650
 7015POPC   NC334967  19.872   0.389   9.450
 7015POPC   PO434968  19.863   0.447   9.150
 7015POPC   GL134969  19.797   0.467   8.850
 7015POPC   GL234970  19.837   0.557   8.850
 7015POPC   C1A34971  19.827   0.461   8.550
 7015POPC   D2A34972  19.847   0.440   8.250
 7015POPC   C3A34973  19.879   0.457   7.950
 7015POPC   C4A34974  19.839   0.394   7.650
 7015POPC   C1B34975  19.837   0.725   8.550
 7015POPC   C2B34976  19.792   0.708   8.250
 7015POPC   C3B34977  19.868   0.692   7.950
 7015POPC   C4B34978  19.862   0.723   7.650
 7016POPC   NC334979   3.495   7.388   9.450
 7016POPC   PO434980   3.556   7.380   9.150
 7016POPC   GL134981   3.523   7.400   8.850
 7016POPC   GL234982   3.384   7.394   8.850
 7016POPC   C1A34983   3.584   7.456   8.550
 7016POPC   D2A34984   3.492   7.437   8.250
 7016POPC   C3A34985   3.500   7.443   7.950
 7016POPC   C4A34986   3.503   7.438   7.650
 7016POPC   C1B34987   3.322   7.403   8.550
 7016POPC   C2B34988   3.284   7.397   8.250
 7016POPC   C3B34989   3.328   7.357   7.950
 7016POPC   C4B34990   3.293   7.325   7.650
 7017POPC   NC334991  40.828  22.925   9.450
 7017POPC   PO434992  40.801  22.935   9.150
 7017POPC   GL134993  40.780  22.891   8.850
 7017POPC   GL234994  40.737  22.815   8.850
 7017POPC   C1A34995  40.799  22.901   8.550
 7017POPC   D2A34996  40.762  22.916   8.250
 7017POPC   C3A34997  40.785  22.918   7.950
 7017POPC   C4A34998  40.826  22.889   7.650
 7017POPC   C1B34999  40.677  22.736   8.550
 7017POPC   C2B35000  40.629  22.687   8.250
 7017POPC   C3B35001  40.670  22.725   7.950
 7017POPC   C4B35002  40.653  22.747   7.650
 7018POPC   NC335003  43.885   5.857   9.450
 7018POPC   PO435004  43.925   5.914   9.150
 7018POPC   GL135005  43.857   5.918   8.850
 7018POPC   GL235006  43.901   5.758   8.850
 7018POPC   C1A35007  43.863   5.820   8.550
 7018POPC   D2A35008  43.913   5.881   8.250
 7018POPC   C3A35009  43.890   5.871   7.950
 7018POPC   C4A35010  43.910   5.918   7.650
 7018POPC   C1B35011  43.954   5.664   8.550
 7018POPC   C2B35012  43.960   5.596   8.250
 7018POPC   C3B35013  43.956   5.605   7.950
 7018POPC   C4B35014  44.034   5.594   7.650
 7019POPC   NC335015   2.022  44.662   9.450
 7019POPC   PO435016   1.974  44.698   9.150
 7019POPC   GL135017   2.011  44.639   8.850
 7019POPC   GL235018   2.002  44.738   8.850
 7019POPC   C1A35019   2.002  44.618   8.550
 7019POPC   D2A35020   1.954  44.665   8.250
 7019POPC   C3A35021   1.992  44.701   7.950
 7019POPC   C4A35022   1.955  44.624   7.650
 7019POPC   C1B35023   1.956  44.883   8.550
 7019POPC   C2B35024   1.875  44.902   8.250
 7019POPC   C3B35025   1.929  44.899   7.950
 7019POPC   C4B35026   1.888  44.870   7.650
 7020POPC   NC335027  40.821  38.462   9.450
 7020POPC   PO435028  40.737  38.409   9.150
 7020POPC   GL135029  40.818  38.467   8.850
 7020POPC   GL235030  40.636  38.483   8.850
 7020POPC   C1A35031  40.742  38.431   8.550
 7020POPC   D2A35032  40.827  38.498   8.250
 7020POPC   C3A35033  40.820  38.468   7.950
 7020POPC   C4A35034  40.790  38.471   7.650
 7020POPC   C1B35035  40.579  38.607   8.550
 7020POPC   C2B35036  40.566  38.628   8.250
 7020POPC   C3B35037  40.625  38.644   7.950
 7020POPC   C4B35038  40.628  38.628   7.650
 7021POPC   NC335039   1.187  19.069   9.450
 7021POPC   PO435040   1.165  19.038   9.150
 7021POPC   GL135041   1.164  19.102   8.850
 7021POPC   GL235042   1.148  19.017   8.850
 7021POPC   C1A35043   1.215  19.034   8.550
 7021POPC   D2A35044   1.200  19.108   8.250
 7021POPC   C3A35045   1.208  19.080   7.950
 7021POPC   C4A35046   1.221  19.032   7.650
 7021POPC   C1B35047   1.065  18.874   8.550
 7021POPC   C2B35048   1.083  18.883   8.250
 7021POPC   C3B35049   1.002  18.841   7.950
 7021POPC   C4B35050   1.010  18.856   7.650
 7022POPC   NC335051  14.427  13.601   9.450
 7022POPC   PO435052  14.420  13.601   9.150
 7022POPC   GL135053  14.360  13.645   8.850
 7022POPC   GL235054  14.334  13.733   8.850
 7022POPC   C1A35055  14.429  13.612   8.550
 7022POPC   D2A35056  14.395  13.593   8.250
 7022POPC   C3A35057  14.397  13.619   7.950
 7022POPC   C4A35058  14.421  13.676   7.650
 7022POPC   C1B35059  14.305  13.839   8.550
 7022POPC   C2B35060  14.367  13.888   8.250
 7022POPC   C3B35061  14.329  13.890   7.950
 7022POPC   C4B35062  14.370  13.847   7.650
 7023POPC   NC335063  43.088  11.303   9.450
 7023POPC   PO435064  43.131  11.299   9.150
 7023POPC   GL135065  43.099  11.341   8.850
 7023POPC   GL235066  43.209  11.237   8.850
 7023POPC   C1A35067  43.116  11.287   8.550
 7023POPC   D2A35068  43.108  11.292   8.250
 7023POPC   C3A35069  43.093  11.306   7.950
 7023POPC   C4A35070  43.134  11.313   7.650
 7023POPC   C1B35071  43.211  11.074   8.550
 7023POPC   C2B35072  43.262  11.102   8.250
 7023POPC   C3B35073  43.292  11.083   7.950
 7023POPC   C4B35074  43.248  11.125   7.650
 7024POPC   NC335075  19.863  12.071   9.450
 7024POPC   PO435076  19.813  12.027   9.150
 7024POPC   GL135077  19.812  12.026   8.850
 7024POPC   GL235078  19.809  11.956   8.850
 7024POPC   C1A35079  19.810  12.074   8.550
 7024POPC   D2A35080  19.819  12.106   8.250
 7024POPC   C3A35081  19.790  12.108   7.950
 7024POPC   C4A35082  19.853  12.042   7.650
 7024POPC   C1B35083  19.904  11.796   8.550
 7024POPC   C2B35084  19.859  11.863   8.250
 7024POPC   C3B35085  19.890  11.852   7.950
 7024POPC   C4B35086  19.866  11.838   7.650
 7025POPC   NC335087  26.795  27.590   9.450
 7025POPC   PO435088  26.782  27.550   9.150
 7025POPC   GL135089  26.838  27.563   8.850
 7025POPC   GL235090  26.936  27.605   8.850
 7025POPC   C1A35091  26.787  27.603   8.550
 7025POPC   D2A35092  26.866  27.642   8.250
 7025POPC   C3A35093  26.867  27.572   7.950
 7025POPC   C4A35094  26.811  27.631   7.650
 7025POPC   C1B35095  27.018  27.513   8.550
 7025POPC   C2B35096  27.044  27.586   8.250
 7025POPC   C3B35097  27.094  27.570   7.950
 7025POPC   C4B35098  27.091  27.545   7.650
 7026POPC   NC335099  41.604   6.644   9.450
 7026POPC   PO435100  41.576   6.624   9.150
 7026POPC   GL135101  41.550   6.606   8.850
 7026POPC   GL235102  41.597   6.729   8.850
 7026POPC   C1A35103  41.566   6.644   8.550
 7026POPC   D2A35104  41.540   6.612   8.250
 7026POPC   C3A35105  41.527   6.624   7.950
 7026POPC   C4A35106  41.557   6.648   7.650
 7026POPC   C1B35107  41.584   6.864   8.550
 7026POPC   C2B35108  41.602   6.872   8.250
 7026POPC   C3B35109  41.644   6.897   7.950
 7026POPC   C4B35110  41.628   6.921   7.650
 7027POPC   NC335111   1.261  26.058   9.450
 7027POPC   PO435112   1.199  26.001   9.150
 7027POPC   GL135113   1.235  26.030   8.850
 7027POPC   GL235114   1.295  26.153   8.850
 7027POPC   C1A35115   1.247  26.059   8.550
 7027POPC   D2A35116   1.196  26.034   8.250
 7027POPC   C3A35117   1.184  26.036   7.950
 7027POPC   C4A35118   1.243  26.028   7.650
 7027POPC   C1B35119   1.296  26.279   8.550
 7027POPC   C2B35120   1.306  26.292   8.250
 7027POPC   C3B35121   1.334  26.278   7.950
 7027POPC   C4B35122   1.300  26.283   7.650
 7028POPC   NC335123  33.799  34.526   9.450
 7028POPC   PO435124  33.802  34.596   9.150
 7028POPC   GL135125  33.838  34.573   8.850
 7028POPC   GL235126  33.715  34.495   8.850
 7028POPC   C1A35127  33.847  34.599   8.550
 7028POPC   D2A35128  33.832  34.591   8.250
 7028POPC   C3A35129  33.808  34.614   7.950
 7028POPC   C4A35130  33.768  34.552   7.650
 7028POPC   C1B35131  33.537  34.476   8.550
 7028POPC   C2B35132  33.549  34.532   8.250
 7028POPC   C3B35133  33.523  34.500   7.950
 7028POPC   C4B35134  33.543  34.543   7.650
 7029POPC   NC335135  19.029   7.395   9.450
 7029POPC   PO435136  19.012   7.406   9.150
 7029POPC   GL135137  19.096   7.384   8.850
 7029POPC   GL235138  19.214   7.466   8.850
 7029POPC   C1A35139  19.034   7.389   8.550
 7029POPC   D2A35140  19.089   7.415   8.250
 7029POPC   C3A35141  19.040   7.417   7.950
 7029POPC   C4A35142  19.063   7.469   7.650
 7029POPC   C1B35143  19.333   7.494   8.550
 7029POPC   C2B35144  19.299   7.517   8.250
 7029POPC   C3B35145  19.347   7.527   7.950
 7029POPC   C4B35146  19.270   7.440   7.650
 7030POPC   NC335147  19.832  33.766   9.450
 7030POPC   PO435148  19.864  33.845   9.150
 7030POPC   GL135149  19.835  33.833   8.850
 7030POPC   GL235150  19.927  33.895   8.850
 7030POPC   C1A35151  19.840  33.818   8.550
 7030POPC   D2A35152  19.832  33.829   8.250
 7030POPC   C3A35153  19.798  33.803   7.950
 7030POPC   C4A35154  19.816  33.799   7.650
 7030POPC   C1B35155  20.008  34.061   8.550
 7030POPC   C2B35156  20.014  33.973   8.250
 7030POPC   C3B35157  19.988  34.038   7.950
 7030POPC   C4B35158  19.944  34.015   7.650
 7031POPC   NC335159  35.307  27.547   9.450
 7031POPC   PO435160  35.365  27.547   9.150
 7031POPC   GL135161  35.379  27.577   8.850
 7031POPC   GL235162  35.417  27.655   8.850
 7031POPC   C1A35163  35.377  27.605   8.550
 7031POPC   D2A35164  35.316  27.643   8.250
 7031POPC   C3A35165  35.387  27.576   7.950
 7031POPC   C4A35166  35.322  27.556   7.650
 7031POPC   C1B35167  35.526  27.770   8.550
 7031POPC   C2B35168  35.477  27.820   8.250
 7031POPC   C3B35169  35.472  27.823   7.950
 7031POPC   C4B35170  35.452  27.776   7.650
 7032POPC   NC335171   2.753   8.158   9.450
 7032POPC   PO435172   2.782   8.151   9.150
 7032POPC   GL135173   2.767   8.173   8.850
 7032POPC   GL235174   2.761   8.292   8.850
 7032POPC   C1A35175   2.762   8.230   8.550
 7032POPC   D2A35176   2.762   8.207   8.250
 7032POPC   C3A35177   2.727   8.207   7.950
 7032POPC   C4A35178   2.751   8.187   7.650
 7032POPC   C1B35179   2.730   8.421   8.550
 7032POPC   C2B35180   2.810   8.457   8.250
 7032POPC   C3B35181   2.769   8.489   7.950
 7032POPC   C4B35182   2.769   8.428   7.650
 7033POPC   NC335183  40.053  44.620   9.450
 7033POPC   PO435184  39.990  44.647   9.150
 7033POPC   GL135185  40.020  44.712   8.850
 7033POPC   GL235186  40.109  44.594   8.850
 7033POPC   C1A35187  40.052  44.682   8.550
 7033POPC   D2A35188  40.036  44.666   8.250
 7033POPC   C3A35189  40.034  44.689   7.950
 7033POPC   C4A35190  39.974  44.636   7.650
 7033POPC   C1B35191  40.268  44.632   8.550
 7033POPC   C2B35192  40.229  44.576   8.250
 7033POPC   C3B35193  40.272  44.619   7.950
 7033POPC   C4B35194  40.282  44.646   7.650
 7034POPC   NC335195  32.227   7.435   9.450
 7034POPC   PO435196  32.260   7.386   9.150
 7034POPC   GL135197  32.284   7.410   8.850
 7034POPC   GL235198  32.211   7.518   8.850
 7034POPC   C1A35199  32.232   7.439   8.550
 7034POPC   D2A35200  32.296   7.404   8.250
 7034POPC   C3A35201  32.215   7.466   7.950
 7034POPC   C4A35202  32.207   7.454   7.650
 7034POPC   C1B35203  32.266   7.709   8.550
 7034POPC   C2B35204  32.251   7.710   8.250
 7034POPC   C3B35205  32.230   7.656   7.950
 7034POPC   C4B35206  32.281   7.706   7.650
 7035POPC   NC335207  33.843   9.009   9.450
 7035POPC   PO435208  33.771   9.011   9.150
 7035POPC   GL135209  33.813   8.925   8.850
 7035POPC   GL235210  33.759   8.823   8.850
 7035POPC   C1A35211  33.800   8.932   8.550
 7035POPC   D2A35212  33.771   8.979   8.250
 7035POPC   C3A35213  33.804   8.992   7.950
 7035POPC   C4A35214  33.759   8.986   7.650
 7035POPC   C1B35215  33.744   8.756   8.550
 7035POPC   C2B35216  33.827   8.728   8.250
 7035POPC   C3B35217  33.742   8.728   7.950
 7035POPC   C4B35218  33.819   8.767   7.650
 7036POPC   NC335219  36.928  28.416   9.450
 7036POPC   PO435220  36.864  28.351   9.150
 7036POPC   GL135221  36.905  28.331   8.850
 7036POPC   GL235222  36.773  28.389   8.850
 7036POPC   C1A35223  36.862  28.329   8.550
 7036POPC   D2A35224  36.951  28.401   8.250
 7036POPC   C3A35225  36.895  28.343   7.950
 7036POPC   C4A35226  36.946  28.321   7.650
 7036POPC   C1B35227  36.715  28.534   8.550
 7036POPC   C2B35228  36.730  28.525   8.250
 7036POPC   C3B35229  36.684  28.471   7.950
 7036POPC   C4B35230  36.666  28.515   7.650
 7037POPC   NC335231  29.888   1.204   9.450
 7037POPC   PO435232  29.915   1.200   9.150
 7037POPC   GL135233  29.945   1.219   8.850
 7037POPC   GL235234  29.895   1.124   8.850
 7037POPC   C1A35235  29.920   1.207   8.550
 7037POPC   D2A35236  29.894   1.174   8.250
 7037POPC   C3A35237  29.898   1.188   7.950
 7037POPC   C4A35238  29.951   1.192   7.650
 7037POPC   C1B35239  29.895   0.924   8.550
 7037POPC   C2B35240  29.947   0.949   8.250
 7037POPC   C3B35241  29.962   0.957   7.950
 7037POPC   C4B35242  29.951   0.993   7.650
 7038POPC   NC335243  22.159   6.603   9.450
 7038POPC   PO435244  22.173   6.625   9.150
 7038POPC   GL135245  22.132   6.694   8.850
 7038POPC   GL235246  22.092   6.736   8.850
 7038POPC   C1A35247  22.191   6.677   8.550
 7038POPC   D2A35248  22.188   6.665   8.250
 7038POPC   C3A35249  22.120   6.607   7.950
 7038POPC   C4A35250  22.188   6.685   7.650
 7038POPC   C1B35251  21.990   6.780   8.550
 7038POPC   C2B35252  21.906   6.788   8.250
 7038POPC   C3B35253  21.947   6.726   7.950
 7038POPC   C4B35254  21.989   6.816   7.650
 7039POPC   NC335255   9.759  12.892   9.450
 7039POPC   PO435256   9.761  12.873   9.150
 7039POPC   GL135257   9.778  12.879   8.850
 7039POPC   GL235258   9.854  12.917   8.850
 7039POPC   C1A35259   9.734  12.811   8.550
 7039POPC   D2A35260   9.758  12.868   8.250
 7039POPC   C3A35261   9.728  12.818   7.950
 7039POPC   C4A35262   9.760  12.804   7.650
 7039POPC   C1B35263   9.973  12.989   8.550
 7039POPC   C2B35264   9.965  12.937   8.250
 7039POPC   C3B35265   9.948  12.943   7.950
 7039POPC   C4B35266   9.934  12.927   7.650
 7040POPC   NC335267   6.658  34.591   9.450
 7040POPC   PO435268   6.616  34.583   9.150
 7040POPC   GL135269   6.631  34.618   8.850
 7040POPC   GL235270   6.540  34.496   8.850
 7040POPC   C1A35271   6.660  34.610   8.550
 7040POPC   D2A35272   6.644  34.612   8.250
 7040POPC   C3A35273   6.640  34.546   7.950
 7040POPC   C4A35274   6.679  34.595   7.650
 7040POPC   C1B35275   6.528  34.342   8.550
 7040POPC   C2B35276   6.504  34.370   8.250
 7040POPC   C3B35277   6.509  34.337   7.950
 7040POPC   C4B35278   6.456  34.360   7.650
 7041POPC   NC335279  43.881  17.537   9.450
 7041POPC   PO435280  43.838  17.540   9.150
 7041POPC   GL135281  43.840  17.515   8.850
 7041POPC   GL235282  43.793  17.355   8.850
 7041POPC   C1A35283  43.902  17.513   8.550
 7041POPC   D2A35284  43.913  17.517   8.250
 7041POPC   C3A35285  43.921  17.531   7.950
 7041POPC   C4A35286  43.910  17.520   7.650
 7041POPC   C1B35287  43.760  17.287   8.550
 7041POPC   C2B35288  43.814  17.284   8.250
 7041POPC   C3B35289  43.795  17.237   7.950
 7041POPC   C4B35290  43.762  17.256   7.650
 7042POPC   NC335291  36.880  33.763   9.450
 7042POPC   PO435292  36.929  33.764   9.150
 7042POPC   GL135293  36.874  33.800   8.850
 7042POPC   GL235294  36.987  33.792   8.850
 7042POPC   C1A35295  36.884  33.813   8.550
 7042POPC   D2A35296  36.918  33.820   8.250
 7042POPC   C3A35297  36.875  33.816   7.950
 7042POPC   C4A35298  36.910  33.761   7.650
 7042POPC   C1B35299  37.146  33.736   8.550
 7042POPC   C2B35300  37.115  33.764   8.250
 7042POPC   C3B35301  37.143  33.737   7.950
 7042POPC   C4B35302  37.118  33.743   7.650
 7043POPC   NC335303   2.778  43.098   9.450
 7043POPC   PO435304   2.763  43.064   9.150
 7043POPC   GL135305   2.727  43.136   8.850
 7043POPC   GL235306   2.694  42.963   8.850
 7043POPC   C1A35307   2.749  43.102   8.550
 7043POPC   D2A35308   2.769  43.089   8.250
 7043POPC   C3A35309   2.722  43.122   7.950
 7043POPC   C4A35310   2.777  43.149   7.650
 7043POPC   C1B35311   2.705  42.890   8.550
 7043POPC   C2B35312   2.617  42.906   8.250
 7043POPC   C3B35313   2.646  42.925   7.950
 7043POPC   C4B35314   2.689  42.890   7.650
 7044POPC   NC335315  26.033   9.709   9.450
 7044POPC   PO435316  26.060   9.790   9.150
 7044POPC   GL135317  26.061   9.729   8.850
 7044POPC   GL235318  26.100   9.798   8.850
 7044POPC   C1A35319  26.053   9.723   8.550
 7044POPC   D2A35320  26.067   9.701   8.250
 7044POPC   C3A35321  26.012   9.706   7.950
 7044POPC   C4A35322  26.029   9.756   7.650
 7044POPC   C1B35323  26.181   9.896   8.550
 7044POPC   C2B35324  26.211   9.985   8.250
 7044POPC   C3B35325  26.202   9.919   7.950
 7044POPC   C4B35326  26.212   9.974   7.650
 7045POPC   NC335327  42.362  29.873   9.450
 7045POPC   PO435328  42.334  29.933   9.150
 7045POPC   GL135329  42.297  29.888   8.850
 7045POPC   GL235330  42.415  29.837   8.850
 7045POPC   C1A35331  42.327  29.886   8.550
 7045POPC   D2A35332  42.344  29.934   8.250
 7045POPC   C3A35333  42.322  29.924   7.950
 7045POPC   C4A35334  42.370  29.877   7.650
 7045POPC   C1B35335  42.571  29.887   8.550
 7045POPC   C2B35336  42.574  29.843   8.250
 7045POPC   C3B35337  42.576  29.803   7.950
 7045POPC   C4B35338  42.567  29.831   7.650
 7046POPC   NC335339  28.347  16.737   9.450
 7046POPC   PO435340  28.377  16.730   9.150
 7046POPC   GL135341  28.365  16.701   8.850
 7046POPC   GL235342  28.471  16.657   8.850
 7046POPC   C1A35343  28.368  16.729   8.550
 7046POPC   D2A35344  28.376  16.781   8.250
 7046POPC   C3A35345  28.417  16.701   7.950
 7046POPC   C4A35346  28.321  16.725   7.650
 7046POPC   C1B35347  28.501  16.543   8.550
 7046POPC   C2B35348  28.474  16.512   8.250
 7046POPC   C3B35349  28.515  16.542   7.950
 7046POPC   C4B35350  28.532  16.552   7.650
 7047POPC   NC335351  25.236  26.082   9.450
 7047POPC   PO435352  25.243  26.046   9.150
 7047POPC   GL135353  25.297  26.056   8.850
 7047POPC   GL235354  25.117  26.042   8.850
 7047POPC   C1A35355  25.236  26.002   8.550
 7047POPC   D2A35356  25.246  26.051   8.250
 7047POPC   C3A35357  25.240  26.022   7.950
 7047POPC   C4A35358  25.293  26.080   7.650
 7047POPC   C1B35359  25.000  26.061   8.550
 7047POPC   C2B35360  25.008  26.041   8.250
 7047POPC   C3B35361  24.977  26.031   7.950
 7047POPC   C4B35362  24.986  26.112   7.650
 7048POPC   NC335363  23.710   1.995   9.450
 7048POPC   PO435364  23.735   2.035   9.150
 7048POPC   GL135365  23.762   1.997   8.850
 7048POPC   GL235366  23.595   2.105   8.850
 7048POPC   C1A35367  23.714   1.988   8.550
 7048POPC   D2A35368  23.754   2.015   8.250
 7048POPC   C3A35369  23.719   2.028   7.950
 7048POPC   C4A35370  23.675   1.958   7.650
 7048POPC   C1B35371  23.507   2.197   8.550
 7048POPC   C2B35372  23.490   2.143   8.250
 7048POPC   C3B35373  23.494   2.198   7.950
 7048POPC   C4B35374  23.554   2.153   7.650
 7049POPC   NC335375  21.434   5.087   9.450
 7049POPC   PO435376  21.426   5.072   9.150
 7049POPC   GL135377  21.413   5.045   8.850
 7049POPC   GL235378  21.327   5.172   8.850
 7049POPC   C1A35379  21.426   5.111   8.550
 7049POPC   D2A35380  21.364   5.071   8.250
 7049POPC   C3A35381  21.375   5.120   7.950
 7049POPC   C4A35382  21.377   5.140   7.650
 7049POPC   C1B35383  21.323   5.366   8.550
 7049POPC   C2B35384  21.333   5.372   8.250
 7049POPC   C3B35385  21.312   5.290   7.950
 7049POPC   C4B35386  21.340   5.326   7.650
 7050POPC   NC335387  39.211  36.163   9.450
 7050POPC   PO435388  39.221  36.122   9.150
 7050POPC   GL135389  39.184  36.157   8.850
 7050POPC   GL235390  39.115  36.184   8.850
 7050POPC   C1A35391  39.259  36.165   8.550
 7050POPC   D2A35392  39.215  36.159   8.250
 7050POPC   C3A35393  39.190  36.116   7.950
 7050POPC   C4A35394  39.243  36.080   7.650
 7050POPC   C1B35395  39.065  36.275   8.550
 7050POPC   C2B35396  39.056  36.292   8.250
 7050POPC   C3B35397  39.085  36.337   7.950
 7050POPC   C4B35398  39.027  36.360   7.650
 7051POPC   NC335399  33.804  29.111   9.450
 7051POPC   PO435400  33.791  29.157   9.150
 7051POPC   GL135401  33.830  29.169   8.850
 7051POPC   GL235402  33.896  29.165   8.850
 7051POPC   C1A35403  33.768  29.111   8.550
 7051POPC   D2A35404  33.833  29.167   8.250
 7051POPC   C3A35405  33.770  29.149   7.950
 7051POPC   C4A35406  33.842  29.144   7.650
 7051POPC   C1B35407  34.053  29.149   8.550
 7051POPC   C2B35408  34.017  29.110   8.250
 7051POPC   C3B35409  34.072  29.079   7.950
 7051POPC   C4B35410  34.041  29.101   7.650
 7052POPC   NC335411  29.161  23.666   9.450
 7052POPC   PO435412  29.134  23.706   9.150
 7052POPC   GL135413  29.124  23.714   8.850
 7052POPC   GL235414  29.029  23.707   8.850
 7052POPC   C1A35415  29.186  23.751   8.550
 7052POPC   D2A35416  29.185  23.743   8.250
 7052POPC   C3A35417  29.146  23.700   7.950
 7052POPC   C4A35418  29.172  23.686   7.650
 7052POPC   C1B35419  28.920  23.625   8.550
 7052POPC   C2B35420  28.916  23.612   8.250
 7052POPC   C3B35421  28.878  23.661   7.950
 7052POPC   C4B35422  28.863  23.686   7.650
 7053POPC   NC335423  24.456  23.743   9.450
 7053POPC   PO435424  24.523  23.678   9.150
 7053POPC   GL135425  24.493  23.723   8.850
 7053POPC   GL235426  24.440  23.611   8.850
 7053POPC   C1A35427  24.455  23.723   8.550
 7053POPC   D2A35428  24.444  23.736   8.250
 7053POPC   C3A35429  24.498  23.736   7.950
 7053POPC   C4A35430  24.514  23.736   7.650
 7053POPC   C1B35431  24.419  23.440   8.550
 7053POPC   C2B35432  24.444  23.452   8.250
 7053POPC   C3B35433  24.454  23.488   7.950
 7053POPC   C4B35434  24.450  23.484   7.650
 7054POPC   NC335435  20.601  26.040   9.450
 7054POPC   PO435436  20.653  26.013   9.150
 7054POPC   GL135437  20.616  26.018   8.850
 7054POPC   GL235438  20.565  25.952   8.850
 7054POPC   C1A35439  20.562  26.029   8.550
 7054POPC   D2A35440  20.580  26.017   8.250
 7054POPC   C3A35441  20.587  26.088   7.950
 7054POPC   C4A35442  20.604  26.059   7.650
 7054POPC   C1B35443  20.445  25.800   8.550
 7054POPC   C2B35444  20.521  25.863   8.250
 7054POPC   C3B35445  20.481  25.876   7.950
 7054POPC   C4B35446  20.513  25.780   7.650
 7055POPC   NC335447  35.341  16.716   9.450
 7055POPC   PO435448  35.364  16.774   9.150
 7055POPC   GL135449  35.359  16.715   8.850
 7055POPC   GL235450  35.439  16.770   8.850
 7055POPC   C1A35451  35.333  16.684   8.550
 7055POPC   D2A35452  35.394  16.690   8.250
 7055POPC   C3A35453  35.401  16.701   7.950
 7055POPC   C4A35454  35.334  16.692   7.650
 7055POPC   C1B35455  35.555  16.714   8.550
 7055POPC   C2B35456  35.571  16.802   8.250
 7055POPC   C3B35457  35.565  16.777   7.950
 7055POPC   C4B35458  35.633  16.726   7.650
 7056POPC   NC335459  43.063  26.067   9.450
 7056POPC   PO435460  43.159  26.011   9.150
 7056POPC   GL135461  43.093  26.026   8.850
 7056POPC   GL235462  43.228  26.060   8.850
 7056POPC   C1A35463  43.085  26.015   8.550
 7056POPC   D2A35464  43.094  26.018   8.250
 7056POPC   C3A35465  43.144  26.017   7.950
 7056POPC   C4A35466  43.107  26.053   7.650
 7056POPC   C1B35467  43.361  26.133   8.550
 7056POPC   C2B35468  43.360  26.127   8.250
 7056POPC   C3B35469  43.374  26.177   7.950
 7056POPC   C4B35470  43.338  26.138   7.650
 7057POPC   NC335471  39.253   8.148   9.450
 7057POPC   PO435472  39.213   8.182   9.150
 7057POPC   GL135473  39.187   8.245   8.850
 7057POPC   GL235474  39.070   8.190   8.850
 7057POPC   C1A35475  39.190   8.150   8.550
 7057POPC   D2A35476  39.196   8.237   8.250
 7057POPC   C3A35477  39.271   8.236   7.950
 7057POPC   C4A35478  39.279   8.232   7.650
 7057POPC   C1B35479  38.981   8.243   8.550
 7057POPC   C2B35480  39.020   8.191   8.250
 7057POPC   C3B35481  38.990   8.198   7.950
 7057POPC   C4B35482  38.995   8.187   7.650
 7058POPC   NC335483  25.266  31.454   9.450
 7058POPC   PO435484  25.268  31.474   9.150
 7058POPC   GL135485  25.289  31.459   8.850
 7058POPC   GL235486  25.355  31.439   8.850
 7058POPC   C1A35487  25.227  31.451   8.550
 7058POPC   D2A35488  25.251  31.516   8.250
 7058POPC   C3A35489  25.275  31.511   7.950
 7058POPC   C4A35490  25.268  31.490   7.650
 7058POPC   C1B35491  25.475  31.455   8.550
 7058POPC   C2B35492  25.509  31.405   8.250
 7058POPC   C3B35493  25.473  31.421   7.950
 7058POPC   C4B35494  25.555  31.436   7.650
 7059POPC   NC335495   1.223  21.431   9.450
 7059POPC   PO435496   1.177  21.379   9.150
 7059POPC   GL135497   1.211  21.341   8.850
 7059POPC   GL235498   1.267  21.499   8.850
 7059POPC   C1A35499   1.184  21.415   8.550
 7059POPC   D2A35500   1.207  21.379   8.250
 7059POPC   C3A35501   1.243  21.350   7.950
 7059POPC   C4A35502   1.208  21.340   7.650
 7059POPC   C1B35503   1.333  21.532   8.550
 7059POPC   C2B35504   1.384  21.584   8.250
 7059POPC   C3B35505   1.412  21.622   7.950
 7059POPC   C4B35506   1.380  21.589   7.650
 7060POPC   NC335507  37.679   9.797   9.450
 7060POPC   PO435508  37.671   9.732   9.150
 7060POPC   GL135509  37.656   9.722   8.850
 7060POPC   GL235510  37.725   9.576   8.850
 7060POPC   C1A35511  37.696   9.728   8.550
 7060POPC   D2A35512  37.663   9.699   8.250
 7060POPC   C3A35513  37.666   9.775   7.950
 7060POPC   C4A35514  37.695   9.733   7.650
 7060POPC   C1B35515  37.705   9.482   8.550
 7060POPC   C2B35516  37.680   9.512   8.250
 7060POPC   C3B35517  37.768   9.538   7.950
 7060POPC   C4B35518  37.682   9.476   7.650
 7061POPC   NC335519  25.217  12.080   9.450
 7061POPC   PO435520  25.296  12.069   9.150
 7061POPC   GL135521  25.250  12.082   8.850
 7061POPC   GL235522  25.309  12.218   8.850
 7061POPC   C1A35523  25.282  12.067   8.550
 7061POPC   D2A35524  25.296  12.036   8.250
 7061POPC   C3A35525  25.303  12.034   7.950
 7061POPC   C4A35526  25.279  12.085   7.650
 7061POPC   C1B35527  25.448  12.249   8.550
 7061POPC   C2B35528  25.408  12.317   8.250
 7061POPC   C3B35529  25.439  12.284   7.950
 7061POPC   C4B35530  25.400  12.259   7.650
 7062POPC   NC335531  24.474   5.826   9.450
 7062POPC   PO435532  24.526   5.888   9.150
 7062POPC   GL135533  24.537   5.893   8.850
 7062POPC   GL235534  24.633   5.753   8.850
 7062POPC   C1A35535  24.447   5.889   8.550
 7062POPC   D2A35536  24.462   5.905   8.250
 7062POPC   C3A35537  24.530   5.853   7.950
 7062POPC   C4A35538  24.519   5.912   7.650
 7062POPC   C1B35539  24.668   5.684   8.550
 7062POPC   C2B35540  24.640   5.726   8.250
 7062POPC   C3B35541  24.700   5.748   7.950
 7062POPC   C4B35542  24.712   5.672   7.650
 7063POPC   NC335543  40.001  20.597   9.450
 7063POPC   PO435544  40.043  20.619   9.150
 7063POPC   GL135545  40.041  20.597   8.850
 7063POPC   GL235546  39.979  20.708   8.850
 7063POPC   C1A35547  40.024  20.564   8.550
 7063POPC   D2A35548  40.028  20.637   8.250
 7063POPC   C3A35549  40.039  20.568   7.950
 7063POPC   C4A35550  40.004  20.564   7.650
 7063POPC   C1B35551  40.055  20.812   8.550
 7063POPC   C2B35552  40.041  20.811   8.250
 7063POPC   C3B35553  39.975  20.816   7.950
 7063POPC   C4B35554  40.055  20.870   7.650
 7064POPC   NC335555   9.017  23.672   9.450
 7064POPC   PO435556   8.941  23.695   9.150
 7064POPC   GL135557   8.985  23.754   8.850
 7064POPC   GL235558   8.895  23.652   8.850
 7064POPC   C1A35559   8.945  23.749   8.550
 7064POPC   D2A35560   8.977  23.710   8.250
 7064POPC   C3A35561   8.986  23.683   7.950
 7064POPC   C4A35562   8.983  23.694   7.650
 7064POPC   C1B35563   8.761  23.513   8.550
 7064POPC   C2B35564   8.839  23.527   8.250
 7064POPC   C3B35565   8.776  23.566   7.950
 7064POPC   C4B35566   8.847  23.576   7.650
 7065POPC   NC335567  39.985  34.615   9.450
 7065POPC   PO435568  40.055  34.582   9.150
 7065POPC   GL135569  39.972  34.571   8.850
 7065POPC   GL235570  40.081  34.706   8.850
 7065POPC   C1A35571  39.970  34.622   8.550
 7065POPC   D2A35572  39.976  34.541   8.250
 7065POPC   C3A35573  40.037  34.546   7.950
 7065POPC   C4A35574  40.041  34.621   7.650
 7065POPC   C1B35575  40.147  34.778   8.550
 7065POPC   C2B35576  40.139  34.745   8.250
 7065POPC   C3B35577  40.179  34.790   7.950
 7065POPC   C4B35578  40.099  34.774   7.650
 7066POPC   NC335579  41.529  41.573   9.450
 7066POPC   PO435580  41.518  41.562   9.150
 7066POPC   GL135581  41.588  41.585   8.850
 7066POPC   GL235582  41.539  41.465   8.850
 7066POPC   C1A35583  41.550  41.538   8.550
 7066POPC   D2A35584  41.514  41.606   8.250
 7066POPC   C3A35585  41.512  41.569   7.950
 7066POPC   C4A35586  41.528  41.515   7.650
 7066POPC   C1B35587  41.436  41.364   8.550
 7066POPC   C2B35588  41.393  41.375   8.250
 7066POPC   C3B35589  41.447  41.332   7.950
 7066POPC   C4B35590  41.465  41.315   7.650
 7067POPC   NC335591  30.738  38.406   9.450
 7067POPC   PO435592  30.740  38.417   9.150
 7067POPC   GL135593  30.724  38.442   8.850
 7067POPC   GL235594  30.795  38.552   8.850
 7067POPC   C1A35595  30.674  38.451   8.550
 7067POPC   D2A35596  30.675  38.452   8.250
 7067POPC   C3A35597  30.647  38.496   7.950
 7067POPC   C4A35598  30.734  38.474   7.650
 7067POPC   C1B35599  30.975  38.593   8.550
 7067POPC   C2B35600  30.917  38.562   8.250
 7067POPC   C3B35601  30.900  38.599   7.950
 7067POPC   C4B35602  30.930  38.562   7.650
 7068POPC   NC335603   9.722  42.303   9.450
 7068POPC   PO435604   9.709  42.380   9.150
 7068POPC   GL135605   9.786  42.326   8.850
 7068POPC   GL235606   9.731  42.175   8.850
 7068POPC   C1A35607   9.757  42.302   8.550
 7068POPC   D2A35608   9.714  42.337   8.250
 7068POPC   C3A35609   9.746  42.331   7.950
 7068POPC   C4A35610   9.753  42.376   7.650
 7068POPC   C1B35611   9.725  42.077   8.550
 7068POPC   C2B35612   9.774  42.104   8.250
 7068POPC   C3B35613   9.797  42.064   7.950
 7068POPC   C4B35614   9.756  42.098   7.650
 7069POPC   NC335615  27.578  12.076   9.450
 7069POPC   PO435616  27.568  12.110   9.150
 7069POPC   GL135617  27.573  12.044   8.850
 7069POPC   GL235618  27.547  12.144   8.850
 7069POPC   C1A35619  27.582  12.070   8.550
 7069POPC   D2A35620  27.632  12.103   8.250
 7069POPC   C3A35621  27.562  12.085   7.950
 7069POPC   C4A35622  27.582  12.082   7.650
 7069POPC   C1B35623  27.403  12.229   8.550
 7069POPC   C2B35624  27.418  12.277   8.250
 7069POPC   C3B35625  27.437  12.227   7.950
 7069POPC   C4B35626  27.435  12.255   7.650
 7070POPC   NC335627  14.420  11.278   9.450
 7070POPC   PO435628  14.425  11.343   9.150
 7070POPC   GL135629  14.437  11.328   8.850
 7070POPC   GL235630  14.494  11.290   8.850
 7070POPC   C1A35631  14.412  11.255   8.550
 7070POPC   D2A35632  14.371  11.324   8.250
 7070POPC   C3A35633  14.360  11.261   7.950
 7070POPC   C4A35634  14.453  11.305   7.650
 7070POPC   C1B35635  14.640  11.298   8.550
 7070POPC   C2B35636  14.672  11.306   8.250
 7070POPC   C3B35637  14.653  11.332   7.950
 7070POPC   C4B35638  14.633  11.351   7.650
 7071POPC   NC335639  22.937   3.560   9.450
 7071POPC   PO435640  22.948   3.544   9.150
 7071POPC   GL135641  22.965   3.544   8.850
 7071POPC   GL235642  22.903   3.446   8.850
 7071POPC   C1A35643  22.969   3.509   8.550
 7071POPC   D2A35644  22.932   3.562   8.250
 7071POPC   C3A35645  22.917   3.492   7.950
 7071POPC   C4A35646  22.979   3.573   7.650
 7071POPC   C1B35647  22.983   3.258   8.550
 7071POPC   C2B35648  22.940   3.318   8.250
 7071POPC   C3B35649  22.915   3.329   7.950
 7071POPC   C4B35650  22.905   3.286   7.650
 7072POPC   NC335651  23.713  16.766   9.450
 7072POPC   PO435652  23.687  16.780   9.150
 7072POPC   GL135653  23.731  16.722   8.850
 7072POPC   GL235654  23.808  16.688   8.850
 7072POPC   C1A35655  23.710  16.779   8.550
 7072POPC   D2A35656  23.714  16.686   8.250
 7072POPC   C3A35657  23.703  16.710   7.950
 7072POPC   C4A35658  23.712  16.725   7.650
 7072POPC   C1B35659  23.915  16.667   8.550
 7072POPC   C2B35660  23.967  16.701   8.250
 7072POPC   C3B35661  23.952  16.686   7.950
 7072POPC   C4B35662  24.000  16.669   7.650
 7073POPC   NC335663  26.843   8.159   9.450
 7073POPC   PO435664  26.843   8.177   9.150
 7073POPC   GL135665  26.823   8.218   8.850
 7073POPC   GL235666  26.711   8.100   8.850
 7073POPC   C1A35667  26.844   8.234   8.550
 7073POPC   D2A35668  26.853   8.186   8.250
 7073POPC   C3A35669  26.824   8.183   7.950
 7073POPC   C4A35670  26.789   8.187   7.650
 7073POPC   C1B35671  26.610   8.082   8.550
 7073POPC   C2B35672  26.624   8.058   8.250
 7073POPC   C3B35673  26.597   8.129   7.950
 7073POPC   C4B35674  26.590   8.059   7.650
 7074POPC   NC335675  26.070  44.620   9.450
 7074POPC   PO435676  26.030  44.650   9.150
 7074POPC   GL135677  26.073  44.694   8.850
 7074POPC   GL235678  25.917  44.693   8.850
 7074POPC   C1A35679  26.068  44.681   8.550
 7074POPC   D2A35680  26.040  44.618   8.250
 7074POPC   C3A35681  25.999  44.624   7.950
 7074POPC   C4A35682  26.080  44.624   7.650
 7074POPC   C1B35683  25.793  44.649   8.550
 7074POPC   C2B35684  25.759  44.638   8.250
 7074POPC   C3B35685  25.838  44.625   7.950
 7074POPC   C4B35686  25.808  44.622   7.650
 7075POPC   NC335687  27.567  22.985   9.450
 7075POPC   PO435688  27.562  22.916   9.150
 7075POPC   GL135689  27.587  22.968   8.850
 7075POPC   GL235690  27.428  22.903   8.850
 7075POPC   C1A35691  27.564  22.975   8.550
 7075POPC   D2A35692  27.595  22.914   8.250
 7075POPC   C3A35693  27.623  22.975   7.950
 7075POPC   C4A35694  27.572  22.913   7.650
 7075POPC   C1B35695  27.393  22.896   8.550
 7075POPC   C2B35696  27.395  22.834   8.250
 7075POPC   C3B35697  27.346  22.819   7.950
 7075POPC   C4B35698  27.345  22.873   7.650
 7076POPC   NC335699  27.611  28.349   9.450
 7076POPC   PO435700  27.622  28.378   9.150
 7076POPC   GL135701  27.556  28.391   8.850
 7076POPC   GL235702  27.572  28.466   8.850
 7076POPC   C1A35703  27.557  28.389   8.550
 7076POPC   D2A35704  27.577  28.406   8.250
 7076POPC   C3A35705  27.636  28.327   7.950
 7076POPC   C4A35706  27.618  28.364   7.650
 7076POPC   C1B35707  27.525  28.648   8.550
 7076POPC   C2B35708  27.516  28.577   8.250
 7076POPC   C3B35709  27.505  28.582   7.950
 7076POPC   C4B35710  27.525  28.585   7.650
 7077POPC   NC335711  18.300  37.689   9.450
 7077POPC   PO435712  18.288  37.689   9.150
 7077POPC   GL135713  18.333  37.635   8.850
 7077POPC   GL235714  18.138  37.697   8.850
 7077POPC   C1A35715  18.318  37.653   8.550
 7077POPC   D2A35716  18.329  37.726   8.250
 7077POPC   C3A35717  18.259  37.663   7.950
 7077POPC   C4A35718  18.256  37.696   7.650
 7077POPC   C1B35719  18.040  37.724   8.550
 7077POPC   C2B35720  18.038  37.744   8.250
 7077POPC   C3B35721  18.052  37.796   7.950
 7077POPC   C4B35722  18.085  37.747   7.650
 7078POPC   NC335723  34.577  16.773   9.450
 7078POPC   PO435724  34.562  16.726   9.150
 7078POPC   GL135725  34.533  16.772   8.850
 7078POPC   GL235726  34.685  16.797   8.850
 7078POPC   C1A35727  34.582  16.766   8.550
 7078POPC   D2A35728  34.620  16.767   8.250
 7078POPC   C3A35729  34.541  16.769   7.950
 7078POPC   C4A35730  34.565  16.780   7.650
 7078POPC   C1B35731  34.713  16.937   8.550
 7078POPC   C2B35732  34.781  16.934   8.250
 7078POPC   C3B35733  34.777  16.936   7.950
 7078POPC   C4B35734  34.712  16.884   7.650
 7079POPC   NC335735  26.771  16.779   9.450
 7079POPC   PO435736  26.789  16.751   9.150
 7079POPC   GL135737  26.834  16.704   8.850
 7079POPC   GL235738  26.685  16.840   8.850
 7079POPC   C1A35739  26.854  16.714   8.550
 7079POPC   D2A35740  26.865  16.777   8.250
 7079POPC   C3A35741  26.825  16.735   7.950
 7079POPC   C4A35742  26.830  16.731   7.650
 7079POPC   C1B35743  26.665  16.836   8.550
 7079POPC   C2B35744  26.635  16.853   8.250
 7079POPC   C3B35745  26.645  16.869   7.950
 7079POPC   C4B35746  26.583  16.866   7.650
 7080POPC   NC335747  40.047   5.857   9.450
 7080POPC   PO435748  39.965   5.860   9.150
 7080POPC   GL135749  39.995   5.882   8.850
 7080POPC   GL235750  40.070   5.757   8.850
 7080POPC   C1A35751  39.958   5.887   8.550
 7080POPC   D2A35752  40.050   5.860   8.250
 7080POPC   C3A35753  40.030   5.852   7.950
 7080POPC   C4A35754  40.000   5.837   7.650
 7080POPC   C1B35755  40.210   5.762   8.550
 7080POPC   C2B35756  40.204   5.708   8.250
 7080POPC   C3B35757  40.221   5.693   7.950
 7080POPC   C4B35758  40.190   5.763   7.650
 7081POPC   NC335759  28.380  22.155   9.450
 7081POPC   PO435760  28.363  22.133   9.150
 7081POPC   GL135761  28.334  22.188   8.850
 7081POPC   GL235762  28.515  22.269   8.850
 7081POPC   C1A35763  28.346  22.208   8.550
 7081POPC   D2A35764  28.339  22.185   8.250
 7081POPC   C3A35765  28.414  22.154   7.950
 7081POPC   C4A35766  28.399  22.169   7.650
 7081POPC   C1B35767  28.561  22.326   8.550
 7081POPC   C2B35768  28.563  22.309   8.250
 7081POPC   C3B35769  28.544  22.252   7.950
 7081POPC   C4B35770  28.547  22.272   7.650
 7082POPC   NC335771  40.041   2.023   9.450
 7082POPC   PO435772  40.055   1.957   9.150
 7082POPC   GL135773  39.965   1.983   8.850
 7082POPC   GL235774  40.155   2.018   8.850
 7082POPC   C1A35775  40.005   1.966   8.550
 7082POPC   D2A35776  39.974   1.945   8.250
 7082POPC   C3A35777  39.994   1.981   7.950
 7082POPC   C4A35778  40.021   1.974   7.650
 7082POPC   C1B35779  40.185   2.086   8.550
 7082POPC   C2B35780  40.268   2.078   8.250
 7082POPC   C3B35781  40.194   2.138   7.950
 7082POPC   C4B35782  40.213   2.076   7.650
 7083POPC   NC335783   4.353  38.458   9.450
 7083POPC   PO435784   4.333  38.492   9.150
 7083POPC   GL135785   4.307  38.405   8.850
 7083POPC   GL235786   4.394  38.357   8.850
 7083POPC   C1A35787   4.305  38.424   8.550
 7083POPC   D2A35788   4.278  38.407   8.250
 7083POPC   C3A35789   4.330  38.499   7.950
 7083POPC   C4A35790   4.275  38.465   7.650
 7083POPC   C1B35791   4.364  38.268   8.550
 7083POPC   C2B35792   4.358  38.233   8.250
 7083POPC   C3B35793   4.363  38.209   7.950
 7083POPC   C4B35794   4.359  38.253   7.650
 7084POPC   NC335795  44.655  15.922   9.450
 7084POPC   PO435796  44.628  15.908   9.150
 7084POPC   GL135797  44.684  15.971   8.850
 7084POPC   GL235798  44.742  15.966   8.850
 7084POPC   C1A35799  44.693  15.981   8.550
 7084POPC   D2A35800  44.692  15.961   8.250
 7084POPC   C3A35801  44.652  15.983   7.950
 7084POPC   C4A35802  44.647  15.982   7.650
 7084POPC   C1B35803  44.954  15.870   8.550
 7084POPC   C2B35804  44.918  15.919   8.250
 7084POPC   C3B35805  44.858  15.855   7.950
 7084POPC   C4B35806  44.909  15.930   7.650
 7085POPC   NC335807  10.487   5.862   9.450
 7085POPC   PO435808  10.505   5.844   9.150
 7085POPC   GL135809  10.512   5.897   8.850
 7085POPC   GL235810  10.634   5.850   8.850
 7085POPC   C1A35811  10.532   5.901   8.550
 7085POPC   D2A35812  10.480   5.846   8.250
 7085POPC   C3A35813  10.481   5.881   7.950
 7085POPC   C4A35814  10.488   5.905   7.650
 7085POPC   C1B35815  10.749   5.767   8.550
 7085POPC   C2B35816  10.778   5.740   8.250
 7085POPC   C3B35817  10.736   5.793   7.950
 7085POPC   C4B35818  10.775   5.725   7.650
 7086POPC   NC335819  42.317  28.325   9.450
 7086POPC   PO435820  42.333  28.329   9.150
 7086POPC   GL135821  42.303  28.379   8.850
 7086POPC   GL235822  42.286  28.253   8.850
 7086POPC   C1A35823  42.294  28.372   8.550
 7086POPC   D2A35824  42.312  28.372   8.250
 7086POPC   C3A35825  42.292  28.337   7.950
 7086POPC   C4A35826  42.382  28.390   7.650
 7086POPC   C1B35827  42.218  28.164   8.550
 7086POPC   C2B35828  42.171  28.215   8.250
 7086POPC   C3B35829  42.215  28.149   7.950
 7086POPC   C4B35830  42.199  28.201   7.650
 7087POPC   NC335831  13.593  29.927   9.450
 7087POPC   PO435832  13.642  29.910   9.150
 7087POPC   GL135833  13.673  29.916   8.850
 7087POPC   GL235834  13.632  30.024   8.850
 7087POPC   C1A35835  13.618  29.898   8.550
 7087POPC   D2A35836  13.632  29.943   8.250
 7087POPC   C3A35837  13.594  29.909   7.950
 7087POPC   C4A35838  13.599  29.958   7.650
 7087POPC   C1B35839  13.637  30.198   8.550
 7087POPC   C2B35840  13.602  30.157   8.250
 7087POPC   C3B35841  13.636  30.195   7.950
 7087POPC   C4B35842  13.635  30.173   7.650
 7088POPC   NC335843  26.818   5.917   9.450
 7088POPC   PO435844  26.800   5.879   9.150
 7088POPC   GL135845  26.814   5.899   8.850
 7088POPC   GL235846  26.815   5.951   8.850
 7088POPC   C1A35847  26.795   5.884   8.550
 7088POPC   D2A35848  26.856   5.905   8.250
 7088POPC   C3A35849  26.853   5.904   7.950
 7088POPC   C4A35850  26.827   5.903   7.650
 7088POPC   C1B35851  26.766   6.098   8.550
 7088POPC   C2B35852  26.755   6.110   8.250
 7088POPC   C3B35853  26.740   6.151   7.950
 7088POPC   C4B35854  26.737   6.119   7.650
 7089POPC   NC335855  44.696  22.204   9.450
 7089POPC   PO435856  44.662  22.195   9.150
 7089POPC   GL135857  44.618  22.186   8.850
 7089POPC   GL235858  44.676  22.095   8.850
 7089POPC   C1A35859  44.677  22.173   8.550
 7089POPC   D2A35860  44.706  22.161   8.250
 7089POPC   C3A35861  44.632  22.122   7.950
 7089POPC   C4A35862  44.696  22.199   7.650
 7089POPC   C1B35863  44.771  21.969   8.550
 7089POPC   C2B35864  44.748  21.958   8.250
 7089POPC   C3B35865  44.743  21.982   7.950
 7089POPC   C4B35866  44.742  21.970   7.650
 7090POPC   NC335867  13.668  28.319   9.450
 7090POPC   PO435868  13.645  28.376   9.150
 7090POPC   GL135869  13.665  28.379   8.850
 7090POPC   GL235870  13.635  28.271   8.850
 7090POPC   C1A35871  13.599  28.408   8.550
 7090POPC   D2A35872  13.604  28.327   8.250
 7090POPC   C3A35873  13.591  28.385   7.950
 7090POPC   C4A35874  13.589  28.349   7.650
 7090POPC   C1B35875  13.580  28.153   8.550
 7090POPC   C2B35876  13.579  28.070   8.250
 7090POPC   C3B35877  13.669  28.127   7.950
 7090POPC   C4B35878  13.621  28.073   7.650
 7091POPC   NC335879   8.220  18.257   9.450
 7091POPC   PO435880   8.208  18.319   9.150
 7091POPC   GL135881   8.221  18.306   8.850
 7091POPC   GL235882   8.353  18.291   8.850
 7091POPC   C1A35883   8.186  18.282   8.550
 7091POPC   D2A35884   8.152  18.294   8.250
 7091POPC   C3A35885   8.167  18.255   7.950
 7091POPC   C4A35886   8.196  18.294   7.650
 7091POPC   C1B35887   8.421  18.248   8.550
 7091POPC   C2B35888   8.495  18.256   8.250
 7091POPC   C3B35889   8.479  18.252   7.950
 7091POPC   C4B35890   8.414  18.268   7.650
 7092POPC   NC335891  27.593  10.518   9.450
 7092POPC   PO435892  27.619  10.560   9.150
 7092POPC   GL135893  27.546  10.563   8.850
 7092POPC   GL235894  27.693  10.411   8.850
 7092POPC   C1A35895  27.635  10.543   8.550
 7092POPC   D2A35896  27.591  10.540   8.250
 7092POPC   C3A35897  27.643  10.485   7.950
 7092POPC   C4A35898  27.582  10.507   7.650
 7092POPC   C1B35899  27.745  10.306   8.550
 7092POPC   C2B35900  27.701  10.263   8.250
 7092POPC   C3B35901  27.682  10.347   7.950
 7092POPC   C4B35902  27.712  10.282   7.650
 7093POPC   NC335903  19.813  31.511   9.450
 7093POPC   PO435904  19.807  31.439   9.150
 7093POPC   GL135905  19.813  31.496   8.850
 7093POPC   GL235906  19.857  31.355   8.850
 7093POPC   C1A35907  19.813  31.514   8.550
 7093POPC   D2A35908  19.838  31.511   8.250
 7093POPC   C3A35909  19.884  31.453   7.950
 7093POPC   C4A35910  19.866  31.444   7.650
 7093POPC   C1B35911  19.999  31.208   8.550
 7093POPC   C2B35912  19.972  31.220   8.250
 7093POPC   C3B35913  19.964  31.297   7.950
 7093POPC   C4B35914  19.922  31.238   7.650
 7094POPC   NC335915   9.004  29.114   9.450
 7094POPC   PO435916   8.951  29.131   9.150
 7094POPC   GL135917   8.931  29.121   8.850
 7094POPC   GL235918   8.964  29.241   8.850
 7094POPC   C1A35919   8.933  29.161   8.550
 7094POPC   D2A35920   8.946  29.166   8.250
 7094POPC   C3A35921   9.005  29.153   7.950
 7094POPC   C4A35922   8.959  29.151   7.650
 7094POPC   C1B35923   8.943  29.431   8.550
 7094POPC   C2B35924   8.904  29.358   8.250
 7094POPC   C3B35925   8.867  29.377   7.950
 7094POPC   C4B35926   8.871  29.366   7.650
 7095POPC   NC335927  33.760   9.743   9.450
 7095POPC   PO435928  33.842   9.759   9.150
 7095POPC   GL135929  33.783   9.778   8.850
 7095POPC   GL235930  33.864   9.890   8.850
 7095POPC   C1A35931  33.808   9.795   8.550
 7095POPC   D2A35932  33.793   9.737   8.250
 7095POPC   C3A35933  33.813   9.728   7.950
 7095POPC   C4A35934  33.785   9.793   7.650
 7095POPC   C1B35935  33.827   9.997   8.550
 7095POPC   C2B35936  33.808  10.008   8.250
 7095POPC   C3B35937  33.825   9.947   7.950
 7095POPC   C4B35938  33.834  10.041   7.650
 7096POPC   NC335939  13.594  32.242   9.450
 7096POPC   PO435940  13.592  32.205   9.150
 7096POPC   GL135941  13.656  32.269   8.850
 7096POPC   GL235942  13.670  32.320   8.850
 7096POPC   C1A35943  13.588  32.283   8.550
 7096POPC   D2A35944  13.632  32.287   8.250
 7096POPC   C3A35945  13.608  32.201   7.950
 7096POPC   C4A35946  13.662  32.261   7.650
 7096POPC   C1B35947  13.784  32.447   8.550
 7096POPC   C2B35948  13.821  32.464   8.250
 7096POPC   C3B35949  13.848  32.386   7.950
 7096POPC   C4B35950  13.852  32.460   7.650
 7097POPC   NC335951  30.648   3.522   9.450
 7097POPC   PO435952  30.740   3.590   9.150
 7097POPC   GL135953  30.706   3.511   8.850
 7097POPC   GL235954  30.783   3.570   8.850
 7097POPC   C1A35955  30.693   3.588   8.550
 7097POPC   D2A35956  30.743   3.537   8.250
 7097POPC   C3A35957  30.720   3.579   7.950
 7097POPC   C4A35958  30.726   3.507   7.650
 7097POPC   C1B35959  30.933   3.540   8.550
 7097POPC   C2B35960  30.947   3.578   8.250
 7097POPC   C3B35961  30.939   3.540   7.950
 7097POPC   C4B35962  30.983   3.614   7.650
 7098POPC   NC335963  36.863  32.980   9.450
 7098POPC   PO435964  36.950  32.988   9.150
 7098POPC   GL135965  36.854  33.055   8.850
 7098POPC   GL235966  36.968  32.907   8.850
 7098POPC   C1A35967  36.922  33.072   8.550
 7098POPC   D2A35968  36.905  33.046   8.250
 7098POPC   C3A35969  36.867  33.016   7.950
 7098POPC   C4A35970  36.931  33.046   7.650
 7098POPC   C1B35971  37.056  32.841   8.550
 7098POPC   C2B35972  37.062  32.853   8.250
 7098POPC   C3B35973  37.026  32.860   7.950
 7098POPC   C4B35974  37.087  32.835   7.650
 7099POPC   NC335975   6.655   1.194   9.450
 7099POPC   PO435976   6.659   1.202   9.150
 7099POPC   GL135977   6.663   1.174   8.850
 7099POPC   GL235978   6.597   1.307   8.850
 7099POPC   C1A35979   6.658   1.234   8.550
 7099POPC   D2A35980   6.664   1.189   8.250
 7099POPC   C3A35981   6.671   1.254   7.950
 7099POPC   C4A35982   6.640   1.233   7.650
 7099POPC   C1B35983   6.459   1.376   8.550
 7099POPC   C2B35984   6.432   1.385   8.250
 7099POPC   C3B35985   6.520   1.432   7.950
 7099POPC   C4B35986   6.499   1.410   7.650
 7100POPC   NC335987  29.122  22.146   9.450
 7100POPC   PO435988  29.142  22.204   9.150
 7100POPC   GL135989  29.121  22.113   8.850
 7100POPC   GL235990  29.137  22.004   8.850
 7100POPC   C1A35991  29.194  22.150   8.550
 7100POPC   D2A35992  29.112  22.155   8.250
 7100POPC   C3A35993  29.162  22.203   7.950
 7100POPC   C4A35994  29.096  22.122   7.650
 7100POPC   C1B35995  29.143  21.887   8.550
 7100POPC   C2B35996  29.131  21.890   8.250
 7100POPC   C3B35997  29.156  21.914   7.950
 7100POPC   C4B35998  29.116  21.899   7.650
 7101POPC   NC335999  11.270  26.864   9.450
 7101POPC   PO436000  11.341  26.807   9.150
 7101POPC   GL136001  11.334  26.866   8.850
 7101POPC   GL236002  11.355  26.930   8.850
 7101POPC   C1A36003  11.301  26.769   8.550
 7101POPC   D2A36004  11.317  26.808   8.250
 7101POPC   C3A36005  11.306  26.807   7.950
 7101POPC   C4A36006  11.251  26.772   7.650
 7101POPC   C1B36007  11.311  27.020   8.550
 7101POPC   C2B36008  11.301  27.083   8.250
 7101POPC   C3B36009  11.355  27.025   7.950
 7101POPC   C4B36010  11.323  27.075   7.650
 7102POPC   NC336011   9.762  39.217   9.450
 7102POPC   PO436012   9.724  39.225   9.150
 7102POPC   GL136013   9.705  39.192   8.850
 7102POPC   GL236014   9.882  39.130   8.850
 7102POPC   C1A36015   9.708  39.211   8.550
 7102POPC   D2A36016   9.796  39.200   8.250
 7102POPC   C3A36017   9.755  39.250   7.950
 7102POPC   C4A36018   9.703  39.197   7.650
 7102POPC   C1B36019   9.920  39.096   8.550
 7102POPC   C2B36020   9.940  39.097   8.250
 7102POPC   C3B36021  10.001  39.138   7.950
 7102POPC   C4B36022   9.970  39.082   7.650
 7103POPC   NC336023   2.724   1.255   9.450
 7103POPC   PO436024   2.809   1.193   9.150
 7103POPC   GL136025   2.766   1.177   8.850
 7103POPC   GL236026   2.665   1.225   8.850
 7103POPC   C1A36027   2.808   1.170   8.550
 7103POPC   D2A36028   2.723   1.247   8.250
 7103POPC   C3A36029   2.717   1.192   7.950
 7103POPC   C4A36030   2.743   1.167   7.650
 7103POPC   C1B36031   2.497   1.251   8.550
 7103POPC   C2B36032   2.519   1.336   8.250
 7103POPC   C3B36033   2.480   1.253   7.950
 7103POPC   C4B36034   2.548   1.282   7.650
 7104POPC   NC336035   4.286  40.755   9.450
 7104POPC   PO436036   4.346  40.739   9.150
 7104POPC   GL136037   4.281  40.774   8.850
 7104POPC   GL236038   4.263  40.886   8.850
 7104POPC   C1A36039   4.320  40.743   8.550
 7104POPC   D2A36040   4.333  40.796   8.250
 7104POPC   C3A36041   4.357  40.822   7.950
 7104POPC   C4A36042   4.273  40.739   7.650
 7104POPC   C1B36043   4.243  41.074   8.550
 7104POPC   C2B36044   4.252  40.987   8.250
 7104POPC   C3B36045   4.297  40.991   7.950
 7104POPC   C4B36046   4.216  40.978   7.650
 7105POPC   NC336047  27.602   5.070   9.450
 7105POPC   PO436048  27.612   5.085   9.150
 7105POPC   GL136049  27.643   5.134   8.850
 7105POPC   GL236050  27.504   5.080   8.850
 7105POPC   C1A36051  27.624   5.073   8.550
 7105POPC   D2A36052  27.572   5.128   8.250
 7105POPC   C3A36053  27.549   5.107   7.950
 7105POPC   C4A36054  27.594   5.137   7.650
 7105POPC   C1B36055  27.346   5.187   8.550
 7105POPC   C2B36056  27.348   5.176   8.250
 7105POPC   C3B36057  27.329   5.098   7.950
 7105POPC   C4B36058  27.304   5.149   7.650
 7106POPC   NC336059   7.422  43.884   9.450
 7106POPC   PO436060   7.464  43.851   9.150
 7106POPC   GL136061   7.429  43.917   8.850
 7106POPC   GL236062   7.390  43.809   8.850
 7106POPC   C1A36063   7.458  43.850   8.550
 7106POPC   D2A36064   7.399  43.866   8.250
 7106POPC   C3A36065   7.371  43.860   7.950
 7106POPC   C4A36066   7.457  43.932   7.650
 7106POPC   C1B36067   7.341  43.697   8.550
 7106POPC   C2B36068   7.384  43.688   8.250
 7106POPC   C3B36069   7.383  43.636   7.950
 7106POPC   C4B36070   7.291  43.644   7.650
 7107POPC   NC336071  35.365   4.309   9.450
 7107POPC   PO436072  35.384   4.343   9.150
 7107POPC   GL136073  35.394   4.349   8.850
 7107POPC   GL236074  35.330   4.213   8.850
 7107POPC   C1A36075  35.324   4.366   8.550
 7107POPC   D2A36076  35.390   4.338   8.250
 7107POPC   C3A36077  35.324   4.294   7.950
 7107POPC   C4A36078  35.394   4.301   7.650
 7107POPC   C1B36079  35.306   4.083   8.550
 7107POPC   C2B36080  35.257   4.090   8.250
 7107POPC   C3B36081  35.263   4.051   7.950
 7107POPC   C4B36082  35.298   4.101   7.650
 7108POPC   NC336083  43.925  19.099   9.450
 7108POPC   PO436084  43.849  19.068   9.150
 7108POPC   GL136085  43.898  19.055   8.850
 7108POPC   GL236086  43.987  18.972   8.850
 7108POPC   C1A36087  43.898  19.055   8.550
 7108POPC   D2A36088  43.932  19.013   8.250
 7108POPC   C3A36089  43.866  19.042   7.950
 7108POPC   C4A36090  43.928  19.083   7.650
 7108POPC   C1B36091  44.091  18.953   8.550
 7108POPC   C2B36092  44.137  18.966   8.250
 7108POPC   C3B36093  44.124  18.905   7.950
 7108POPC   C4B36094  44.148  18.954   7.650
 7109POPC   NC336095  44.623   6.634   9.450
 7109POPC   PO436096  44.643   6.663   9.150
 7109POPC   GL136097  44.642   6.658   8.850
 7109POPC   GL236098  44.757   6.715   8.850
 7109POPC   C1A36099  44.692   6.669   8.550
 7109POPC   D2A36100  44.661   6.596   8.250
 7109POPC   C3A36101  44.697   6.638   7.950
 7109POPC   C4A36102  44.646   6.626   7.650
 7109POPC   C1B36103  44.841   6.818   8.550
 7109POPC   C2B36104  44.895   6.741   8.250
 7109POPC   C3B36105  44.875   6.810   7.950
 7109POPC   C4B36106  44.879   6.782   7.650
 7110POPC   NC336107  15.180  31.497   9.450
 7110POPC   PO436108  15.131  31.514   9.150
 7110POPC   GL136109  15.224  31.472   8.850
 7110POPC   GL236110  15.103  31.405   8.850
 7110POPC   C1A36111  15.131  31.481   8.550
 7110POPC   D2A36112  15.158  31.425   8.250
 7110POPC   C3A36113  15.159  31.435   7.950
 7110POPC   C4A36114  15.185  31.459   7.650
 7110POPC   C1B36115  15.008  31.311   8.550
 7110POPC   C2B36116  15.029  31.315   8.250
 7110POPC   C3B36117  15.006  31.304   7.950
 7110POPC   C4B36118  14.980  31.346   7.650
 7111POPC   NC336119  20.611  22.155   9.450
 7111POPC   PO436120  20.629  22.143   9.150
 7111POPC   GL136121  20.622  22.169   8.850
 7111POPC   GL236122  20.675  22.062   8.850
 7111POPC   C1A36123  20.583  22.207   8.550
 7111POPC   D2A36124  20.632  22.203   8.250
 7111POPC   C3A36125  20.579  22.209   7.950
 7111POPC   C4A36126  20.640  22.171   7.650
 7111POPC   C1B36127  20.736  21.961   8.550
 7111POPC   C2B36128  20.800  21.978   8.250
 7111POPC   C3B36129  20.744  21.979   7.950
 7111POPC   C4B36130  20.801  21.967   7.650
 7112POPC   NC336131  23.705  36.104   9.450
 7112POPC   PO436132  23.729  36.104   9.150
 7112POPC   GL136133  23.735  36.149   8.850
 7112POPC   GL236134  23.826  36.069   8.850
 7112POPC   C1A36135  23.667  36.126   8.550
 7112POPC   D2A36136  23.699  36.150   8.250
 7112POPC   C3A36137  23.688  36.175   7.950
 7112POPC   C4A36138  23.722  36.144   7.650
 7112POPC   C1B36139  23.912  35.891   8.550
 7112POPC   C2B36140  23.883  35.945   8.250
 7112POPC   C3B36141  23.922  35.922   7.950
 7112POPC   C4B36142  23.827  35.972   7.650
 7113POPC   NC336143  22.203  29.175   9.450
 7113POPC   PO436144  22.116  29.170   9.150
 7113POPC   GL136145  22.125  29.143   8.850
 7113POPC   GL236146  22.229  29.254   8.850
 7113POPC   C1A36147  22.177  29.144   8.550
 7113POPC   D2A36148  22.172  29.150   8.250
 7113POPC   C3A36149  22.136  29.194   7.950
 7113POPC   C4A36150  22.114  29.098   7.650
 7113POPC   C1B36151  22.314  29.334   8.550
 7113POPC   C2B36152  22.359  29.288   8.250
 7113POPC   C3B36153  22.320  29.357   7.950
 7113POPC   C4B36154  22.329  29.373   7.650
 7114POPC   NC336155  38.459  10.487   9.450
 7114POPC   PO436156  38.417  10.533   9.150
 7114POPC   GL136157  38.466  10.494   8.850
 7114POPC   GL236158  38.360  10.635   8.850
 7114POPC   C1A36159  38.494  10.490   8.550
 7114POPC   D2A36160  38.423  10.533   8.250
 7114POPC   C3A36161  38.483  10.566   7.950
 7114POPC   C4A36162  38.479  10.558   7.650
 7114POPC   C1B36163  38.320  10.708   8.550
 7114POPC   C2B36164  38.329  10.757   8.250
 7114POPC   C3B36165  38.299  10.774   7.950
 7114POPC   C4B36166  38.292  10.757   7.650
 7115POPC   NC336167  25.245  39.214   9.450
 7115POPC   PO436168  25.252  39.195   9.150
 7115POPC   GL136169  25.283  39.187   8.850
 7115POPC   GL236170  25.141  39.231   8.850
 7115POPC   C1A36171  25.300  39.241   8.550
 7115POPC   D2A36172  25.294  39.191   8.250
 7115POPC   C3A36173  25.291  39.240   7.950
 7115POPC   C4A36174  25.230  39.186   7.650
 7115POPC   C1B36175  25.007  39.190   8.550
 7115POPC   C2B36176  25.032  39.184   8.250
 7115POPC   C3B36177  25.038  39.220   7.950
 7115POPC   C4B36178  25.026  39.183   7.650
 7116POPC   NC336179  44.643  18.306   9.450
 7116POPC   PO436180  44.663  18.244   9.150
 7116POPC   GL136181  44.651  18.325   8.850
 7116POPC   GL236182  44.731  18.402   8.850
 7116POPC   C1A36183  44.693  18.333   8.550
 7116POPC   D2A36184  44.679  18.312   8.250
 7116POPC   C3A36185  44.692  18.332   7.950
 7116POPC   C4A36186  44.629  18.332   7.650
 7116POPC   C1B36187  44.896  18.379   8.550
 7116POPC   C2B36188  44.818  18.402   8.250
 7116POPC   C3B36189  44.854  18.403   7.950
 7116POPC   C4B36190  44.894  18.402   7.650
 7117POPC   NC336191  24.494  24.533   9.450
 7117POPC   PO436192  24.463  24.507   9.150
 7117POPC   GL136193  24.503  24.534   8.850
 7117POPC   GL236194  24.648  24.526   8.850
 7117POPC   C1A36195  24.527  24.500   8.550
 7117POPC   D2A36196  24.440  24.491   8.250
 7117POPC   C3A36197  24.515  24.508   7.950
 7117POPC   C4A36198  24.531  24.462   7.650
 7117POPC   C1B36199  24.786  24.451   8.550
 7117POPC   C2B36200  24.746  24.444   8.250
 7117POPC   C3B36201  24.771  24.458   7.950
 7117POPC   C4B36202  24.690  24.516   7.650
 7118POPC   NC336203  25.263  33.023   9.450
 7118POPC   PO436204  25.236  32.978   9.150
 7118POPC   GL136205  25.285  33.023   8.850
 7118POPC   GL236206  25.410  33.001   8.850
 7118POPC   C1A36207  25.278  32.982   8.550
 7118POPC   D2A36208  25.283  33.066   8.250
 7118POPC   C3A36209  25.284  33.040   7.950
 7118POPC   C4A36210  25.272  33.031   7.650
 7118POPC   C1B36211  25.551  33.100   8.550
 7118POPC   C2B36212  25.464  33.120   8.250
 7118POPC   C3B36213  25.474  33.048   7.950
 7118POPC   C4B36214  25.486  33.095   7.650
 7119POPC   NC336215  22.984   2.791   9.450
 7119POPC   PO436216  22.910   2.800   9.150
 7119POPC   GL136217  22.904   2.776   8.850
 7119POPC   GL236218  23.028   2.857   8.850
 7119POPC   C1A36219  22.966   2.727   8.550
 7119POPC   D2A36220  22.922   2.738   8.250
 7119POPC   C3A36221  22.934   2.728   7.950
 7119POPC   C4A36222  22.971   2.812   7.650
 7119POPC   C1B36223  23.054   2.927   8.550
 7119POPC   C2B36224  23.087   2.980   8.250
 7119POPC   C3B36225  23.097   3.009   7.950
 7119POPC   C4B36226  23.091   3.000   7.650
 7120POPC   NC336227  23.675   6.654   9.450
 7120POPC   PO436228  23.728   6.694   9.150
 7120POPC   GL136229  23.685   6.665   8.850
 7120POPC   GL236230  23.612   6.561   8.850
 7120POPC   C1A36231  23.734   6.611   8.550
 7120POPC   D2A36232  23.725   6.693   8.250
 7120POPC   C3A36233  23.676   6.613   7.950
 7120POPC   C4A36234  23.715   6.669   7.650
 7120POPC   C1B36235  23.481   6.469   8.550
 7120POPC   C2B36236  23.460   6.463   8.250
 7120POPC   C3B36237  23.464   6.514   7.950
 7120POPC   C4B36238  23.516   6.540   7.650
 7121POPC   NC336239  22.138   8.152   9.450
 7121POPC   PO436240  22.183   8.202   9.150
 7121POPC   GL136241  22.152   8.192   8.850
 7121POPC   GL236242  22.130   8.299   8.850
 7121POPC   C1A36243  22.200   8.171   8.550
 7121POPC   D2A36244  22.168   8.227   8.250
 7121POPC   C3A36245  22.132   8.149   7.950
 7121POPC   C4A36246  22.163   8.188   7.650
 7121POPC   C1B36247  22.048   8.415   8.550
 7121POPC   C2B36248  22.108   8.406   8.250
 7121POPC   C3B36249  22.130   8.441   7.950
 7121POPC   C4B36250  22.121   8.470   7.650
 7122POPC   NC336251   3.531   9.750   9.450
 7122POPC   PO436252   3.513   9.737   9.150
 7122POPC   GL136253   3.579   9.793   8.850
 7122POPC   GL236254   3.441   9.607   8.850
 7122POPC   C1A36255   3.583   9.715   8.550
 7122POPC   D2A36256   3.557   9.768   8.250
 7122POPC   C3A36257   3.563   9.780   7.950
 7122POPC   C4A36258   3.500   9.780   7.650
 7122POPC   C1B36259   3.410   9.542   8.550
 7122POPC   C2B36260   3.459   9.558   8.250
 7122POPC   C3B36261   3.425   9.558   7.950
 7122POPC   C4B36262   3.369   9.487   7.650
 7123POPC   NC336263  44.703  40.780   9.450
 7123POPC   PO436264  44.673  40.785   9.150
 7123POPC   GL136265  44.694  40.757   8.850
 7123POPC   GL236266  44.780  40.669   8.850
 7123POPC   C1A36267  44.704  40.771   8.550
 7123POPC   D2A36268  44.621  40.747   8.250
 7123POPC   C3A36269  44.636  40.791   7.950
 7123POPC   C4A36270  44.621  40.771   7.650
 7123POPC   C1B36271  44.886  40.631   8.550
 7123POPC   C2B36272  44.879  40.637   8.250
 7123POPC   C3B36273  44.872  40.603   7.950
 7123POPC   C4B36274  44.870  40.604   7.650
 7124POPC   NC336275  38.488   0.479   9.450
 7124POPC   PO436276  38.487   0.480   9.150
 7124POPC   GL136277  38.505   0.459   8.850
 7124POPC   GL236278  38.351   0.568   8.850
 7124POPC   C1A36279  38.409   0.442   8.550
 7124POPC   D2A36280  38.474   0.401   8.250
 7124POPC   C3A36281  38.468   0.427   7.950
 7124POPC   C4A36282  38.422   0.417   7.650
 7124POPC   C1B36283  38.345   0.684   8.550
 7124POPC   C2B36284  38.335   0.651   8.250
 7124POPC   C3B36285  38.285   0.687   7.950
 7124POPC   C4B36286  38.343   0.671   7.650
 7125POPC   NC336287  34.552   6.673   9.450
 7125POPC   PO436288  34.528   6.626   9.150
 7125POPC   GL136289  34.548   6.644   8.850
 7125POPC   GL236290  34.478   6.717   8.850
 7125POPC   C1A36291  34.607   6.675   8.550
 7125POPC   D2A36292  34.574   6.657   8.250
 7125POPC   C3A36293  34.561   6.683   7.950
 7125POPC   C4A36294  34.580   6.683   7.650
 7125POPC   C1B36295  34.463   6.804   8.550
 7125POPC   C2B36296  34.457   6.864   8.250
 7125POPC   C3B36297  34.475   6.865   7.950
 7125POPC   C4B36298  34.427   6.830   7.650
 7126POPC   NC336299  43.840  11.294   9.450
 7126POPC   PO436300  43.913  11.336   9.150
 7126POPC   GL136301  43.883  11.349   8.850
 7126POPC   GL236302  43.879  11.461   8.850
 7126POPC   C1A36303  43.855  11.279   8.550
 7126POPC   D2A36304  43.891  11.271   8.250
 7126POPC   C3A36305  43.880  11.330   7.950
 7126POPC   C4A36306  43.906  11.275   7.650
 7126POPC   C1B36307  43.841  11.554   8.550
 7126POPC   C2B36308  43.882  11.541   8.250
 7126POPC   C3B36309  43.900  11.584   7.950
 7126POPC   C4B36310  43.899  11.536   7.650
 7127POPC   NC336311   2.738  18.266   9.450
 7127POPC   PO436312   2.737  18.314   9.150
 7127POPC   GL136313   2.786  18.278   8.850
 7127POPC   GL236314   2.876  18.282   8.850
 7127POPC   C1A36315   2.782  18.330   8.550
 7127POPC   D2A36316   2.757  18.235   8.250
 7127POPC   C3A36317   2.716  18.328   7.950
 7127POPC   C4A36318   2.725  18.321   7.650
 7127POPC   C1B36319   2.968  18.289   8.550
 7127POPC   C2B36320   3.028  18.313   8.250
 7127POPC   C3B36321   3.007  18.347   7.950
 7127POPC   C4B36322   3.054  18.336   7.650
 7128POPC   NC336323   1.971  14.420   9.450
 7128POPC   PO436324   2.013  14.356   9.150
 7128POPC   GL136325   1.984  14.389   8.850
 7128POPC   GL236326   2.125  14.281   8.850
 7128POPC   C1A36327   2.008  14.393   8.550
 7128POPC   D2A36328   2.008  14.358   8.250
 7128POPC   C3A36329   1.977  14.374   7.950
 7128POPC   C4A36330   2.027  14.402   7.650
 7128POPC   C1B36331   2.154  14.209   8.550
 7128POPC   C2B36332   2.199  14.181   8.250
 7128POPC   C3B36333   2.147  14.200   7.950
 7128POPC   C4B36334   2.142  14.192   7.650
 7129POPC   NC336335  16.766  32.220   9.450
 7129POPC   PO436336  16.722  32.291   9.150
 7129POPC   GL136337  16.726  32.251   8.850
 7129POPC   GL236338  16.658  32.218   8.850
 7129POPC   C1A36339  16.760  32.274   8.550
 7129POPC   D2A36340  16.754  32.297   8.250
 7129POPC   C3A36341  16.774  32.253   7.950
 7129POPC   C4A36342  16.703  32.229   7.650
 7129POPC   C1B36343  16.442  32.168   8.550
 7129POPC   C2B36344  16.491  32.200   8.250
 7129POPC   C3B36345  16.460  32.159   7.950
 7129POPC   C4B36346  16.506  32.152   7.650
 7130POPC   NC336347  29.140   5.121   9.450
 7130POPC   PO436348  29.149   5.115   9.150
 7130POPC   GL136349  29.161   5.095   8.850
 7130POPC   GL236350  29.291   5.170   8.850
 7130POPC   C1A36351  29.147   5.130   8.550
 7130POPC   D2A36352  29.140   5.095   8.250
 7130POPC   C3A36353  29.128   5.069   7.950
 7130POPC   C4A36354  29.101   5.071   7.650
 7130POPC   C1B36355  29.323   5.166   8.550
 7130POPC   C2B36356  29.375   5.179   8.250
 7130POPC   C3B36357  29.378   5.209   7.950
 7130POPC   C4B36358  29.392   5.196   7.650
 7131POPC   NC336359  17.512  34.545   9.450
 7131POPC   PO436360  17.513  34.586   9.150
 7131POPC   GL136361  17.468  34.611   8.850
 7131POPC   GL236362  17.583  34.510   8.850
 7131POPC   C1A36363  17.493  34.536   8.550
 7131POPC   D2A36364  17.502  34.581   8.250
 7131POPC   C3A36365  17.509  34.601   7.950
 7131POPC   C4A36366  17.515  34.588   7.650
 7131POPC   C1B36367  17.587  34.394   8.550
 7131POPC   C2B36368  17.635  34.332   8.250
 7131POPC   C3B36369  17.601  34.370   7.950
 7131POPC   C4B36370  17.642  34.372   7.650
 7132POPC   NC336371   3.514  39.983   9.450
 7132POPC   PO436372   3.534  39.988   9.150
 7132POPC   GL136373   3.566  39.979   8.850
 7132POPC   GL236374   3.460  40.026   8.850
 7132POPC   C1A36375   3.495  40.037   8.550
 7132POPC   D2A36376   3.568  39.982   8.250
 7132POPC   C3A36377   3.579  40.009   7.950
 7132POPC   C4A36378   3.526  39.967   7.650
 7132POPC   C1B36379   3.295  40.082   8.550
 7132POPC   C2B36380   3.274  40.139   8.250
 7132POPC   C3B36381   3.335  40.069   7.950
 7132POPC   C4B36382   3.319  40.097   7.650
 7133POPC   NC336383  35.315  22.895   9.450
 7133POPC   PO436384  35.378  22.921   9.150
 7133POPC   GL136385  35.320  22.975   8.850
 7133POPC   GL236386  35.461  23.039   8.850
 7133POPC   C1A36387  35.388  22.922   8.550
 7133POPC   D2A36388  35.317  22.888   8.250
 7133POPC   C3A36389  35.314  22.967   7.950
 7133POPC   C4A36390  35.313  22.904   7.650
 7133POPC   C1B36391  35.615  23.072   8.550
 7133POPC   C2B36392  35.592  23.063   8.250
 7133POPC   C3B36393  35.564  23.006   7.950
 7133POPC   C4B36394  35.619  23.061   7.650
 7134POPC   NC336395   9.776  26.785   9.450
 7134POPC   PO436396   9.730  26.828   9.150
 7134POPC   GL136397   9.791  26.841   8.850
 7134POPC   GL236398   9.905  26.857   8.850
 7134POPC   C1A36399   9.779  26.793   8.550
 7134POPC   D2A36400   9.794  26.853   8.250
 7134POPC   C3A36401   9.719  26.841   7.950
 7134POPC   C4A36402   9.733  26.851   7.650
 7134POPC   C1B36403   9.988  26.777   8.550
 7134POPC   C2B36404  10.034  26.860   8.250
 7134POPC   C3B36405   9.959  26.774   7.950
 7134POPC   C4B36406   9.988  26.799   7.650
 7135POPC   NC336407   2.721  22.187   9.450
 7135POPC   PO436408   2.753  22.160   9.150
 7135POPC   GL136409   2.808  22.210   8.850
 7135POPC   GL236410   2.812  22.024   8.850
 7135POPC   C1A36411   2.813  22.178   8.550
 7135POPC   D2A36412   2.806  22.192   8.250
 7135POPC   C3A36413   2.789  22.191   7.950
 7135POPC   C4A36414   2.753  22.211   7.650
 7135POPC   C1B36415   2.839  21.919   8.550
 7135POPC   C2B36416   2.884  21.912   8.250
 7135POPC   C3B36417   2.886  21.907   7.950
 7135POPC   C4B36418   2.926  21.955   7.650
 7136POPC   NC336419  10.553  40.770   9.450
 7136POPC   PO436420  10.507  40.776   9.150
 7136POPC   GL136421  10.504  40.761   8.850
 7136POPC   GL236422  10.472  40.687   8.850
 7136POPC   C1A36423  10.555  40.828   8.550
 7136POPC   D2A36424  10.552  40.816   8.250
 7136POPC   C3A36425  10.507  40.824   7.950
 7136POPC   C4A36426  10.565  40.798   7.650
 7136POPC   C1B36427  10.478  40.539   8.550
 7136POPC   C2B36428  10.525  40.573   8.250
 7136POPC   C3B36429  10.446  40.506   7.950
 7136POPC   C4B36430  10.494  40.494   7.650
 7137POPC   NC336431  36.897  24.516   9.450
 7137POPC   PO436432  36.926  24.534   9.150
 7137POPC   GL136433  36.935  24.495   8.850
 7137POPC   GL236434  36.888  24.645   8.850
 7137POPC   C1A36435  36.898  24.445   8.550
 7137POPC   D2A36436  36.903  24.503   8.250
 7137POPC   C3A36437  36.916  24.470   7.950
 7137POPC   C4A36438  36.938  24.470   7.650
 7137POPC   C1B36439  36.992  24.710   8.550
 7137POPC   C2B36440  36.994  24.759   8.250
 7137POPC   C3B36441  36.990  24.740   7.950
 7137POPC   C4B36442  36.959  24.769   7.650
 7138POPC   NC336443  37.701   8.966   9.450
 7138POPC   PO436444  37.636   8.996   9.150
 7138POPC   GL136445  37.659   8.931   8.850
 7138POPC   GL236446  37.529   8.934   8.850
 7138POPC   C1A36447  37.655   8.942   8.550
 7138POPC   D2A36448  37.664   9.013   8.250
 7138POPC   C3A36449  37.649   8.971   7.950
 7138POPC   C4A36450  37.724   9.009   7.650
 7138POPC   C1B36451  37.494   8.900   8.550
 7138POPC   C2B36452  37.462   8.832   8.250
 7138POPC   C3B36453  37.440   8.853   7.950
 7138POPC   C4B36454  37.493   8.884   7.650
 7139POPC   NC336455  36.134  43.086   9.450
 7139POPC   PO436456  36.079  43.127   9.150
 7139POPC   GL136457  36.095  43.072   8.850
 7139POPC   GL236458  36.226  43.209   8.850
 7139POPC   C1A36459  36.131  43.091   8.550
 7139POPC   D2A36460  36.105  43.100   8.250
 7139POPC   C3A36461  36.111  43.115   7.950
 7139POPC   C4A36462  36.144  43.153   7.650
 7139POPC   C1B36463  36.362  43.212   8.550
 7139POPC   C2B36464  36.321  43.184   8.250
 7139POPC   C3B36465  36.317  43.204   7.950
 7139POPC   C4B36466  36.320  43.203   7.650
 7140POPC   NC336467  34.584  33.843   9.450
 7140POPC   PO436468  34.609  33.839   9.150
 7140POPC   GL136469  34.560  33.825   8.850
 7140POPC   GL236470  34.624  33.871   8.850
 7140POPC   C1A36471  34.558  33.838   8.550
 7140POPC   D2A36472  34.598  33.769   8.250
 7140POPC   C3A36473  34.548  33.782   7.950
 7140POPC   C4A36474  34.560  33.819   7.650
 7140POPC   C1B36475  34.664  34.072   8.550
 7140POPC   C2B36476  34.637  34.004   8.250
 7140POPC   C3B36477  34.694  34.039   7.950
 7140POPC   C4B36478  34.628  34.020   7.650
 7141POPC   NC336479  33.803  22.186   9.450
 7141POPC   PO436480  33.812  22.154   9.150
 7141POPC   GL136481  33.769  22.207   8.850
 7141POPC   GL236482  33.691  22.220   8.850
 7141POPC   C1A36483  33.801  22.137   8.550
 7141POPC   D2A36484  33.841  22.130   8.250
 7141POPC   C3A36485  33.783  22.195   7.950
 7141POPC   C4A36486  33.828  22.158   7.650
 7141POPC   C1B36487  33.541  22.226   8.550
 7141POPC   C2B36488  33.516  22.205   8.250
 7141POPC   C3B36489  33.520  22.153   7.950
 7141POPC   C4B36490  33.560  22.208   7.650
 7142POPC   NC336491  32.256  43.148   9.450
 7142POPC   PO436492  32.290  43.118   9.150
 7142POPC   GL136493  32.265  43.088   8.850
 7142POPC   GL236494  32.274  43.005   8.850
 7142POPC   C1A36495  32.210  43.074   8.550
 7142POPC   D2A36496  32.230  43.128   8.250
 7142POPC   C3A36497  32.288  43.098   7.950
 7142POPC   C4A36498  32.231  43.124   7.650
 7142POPC   C1B36499  32.283  42.882   8.550
 7142POPC   C2B36500  32.293  42.848   8.250
 7142POPC   C3B36501  32.263  42.892   7.950
 7142POPC   C4B36502  32.235  42.823   7.650
 7143POPC   NC336503  12.097  33.815   9.450
 7143POPC   PO436504  12.101  33.788   9.150
 7143POPC   GL136505  12.116  33.814   8.850
 7143POPC   GL236506  12.229  33.738   8.850
 7143POPC   C1A36507  12.090  33.753   8.550
 7143POPC   D2A36508  12.078  33.798   8.250
 7143POPC   C3A36509  12.042  33.759   7.950
 7143POPC   C4A36510  12.117  33.819   7.650
 7143POPC   C1B36511  12.295  33.732   8.550
 7143POPC   C2B36512  12.281  33.762   8.250
 7143POPC   C3B36513  12.280  33.765   7.950
 7143POPC   C4B36514  12.317  33.711   7.650
 7144POPC   NC336515  24.534   3.581   9.450
 7144POPC   PO436516  24.539   3.572   9.150
 7144POPC   GL136517  24.462   3.567   8.850
 7144POPC   GL236518  24.443   3.401   8.850
 7144POPC   C1A36519  24.469   3.492   8.550
 7144POPC   D2A36520  24.534   3.571   8.250
 7144POPC   C3A36521  24.485   3.542   7.950
 7144POPC   C4A36522  24.445   3.571   7.650
 7144POPC   C1B36523  24.336   3.310   8.550
 7144POPC   C2B36524  24.329   3.379   8.250
 7144POPC   C3B36525  24.367   3.335   7.950
 7144POPC   C4B36526  24.325   3.356   7.650
 7145POPC   NC336527  32.990  14.367   9.450
 7145POPC   PO436528  32.979  14.368   9.150
 7145POPC   GL136529  33.016  14.429   8.850
 7145POPC   GL236530  33.115  14.352   8.850
 7145POPC   C1A36531  33.014  14.357   8.550
 7145POPC   D2A36532  33.045  14.397   8.250
 7145POPC   C3A36533  33.003  14.381   7.950
 7145POPC   C4A36534  33.015  14.416   7.650
 7145POPC   C1B36535  33.192  14.245   8.550
 7145POPC   C2B36536  33.216  14.262   8.250
 7145POPC   C3B36537  33.227  14.259   7.950
 7145POPC   C4B36538  33.183  14.216   7.650
 7146POPC   NC336539  16.749  12.836   9.450
 7146POPC   PO436540  16.725  12.877   9.150
 7146POPC   GL136541  16.754  12.886   8.850
 7146POPC   GL236542  16.606  12.894   8.850
 7146POPC   C1A36543  16.728  12.804   8.550
 7146POPC   D2A36544  16.682  12.882   8.250
 7146POPC   C3A36545  16.715  12.874   7.950
 7146POPC   C4A36546  16.752  12.886   7.650
 7146POPC   C1B36547  16.524  13.013   8.550
 7146POPC   C2B36548  16.509  12.929   8.250
 7146POPC   C3B36549  16.541  13.017   7.950
 7146POPC   C4B36550  16.482  12.948   7.650
 7147POPC   NC336551  22.943  42.321   9.450
 7147POPC   PO436552  22.902  42.342   9.150
 7147POPC   GL136553  22.987  42.313   8.850
 7147POPC   GL236554  22.844  42.384   8.850
 7147POPC   C1A36555  22.905  42.324   8.550
 7147POPC   D2A36556  22.929  42.329   8.250
 7147POPC   C3A36557  22.891  42.299   7.950
 7147POPC   C4A36558  22.933  42.290   7.650
 7147POPC   C1B36559  22.777  42.553   8.550
 7147POPC   C2B36560  22.739  42.530   8.250
 7147POPC   C3B36561  22.814  42.570   7.950
 7147POPC   C4B36562  22.812  42.505   7.650
 7148POPC   NC336563  26.058  27.582   9.450
 7148POPC   PO436564  25.996  27.546   9.150
 7148POPC   GL136565  26.022  27.623   8.850
 7148POPC   GL236566  26.009  27.715   8.850
 7148POPC   C1A36567  26.043  27.628   8.550
 7148POPC   D2A36568  26.088  27.600   8.250
 7148POPC   C3A36569  26.016  27.585   7.950
 7148POPC   C4A36570  26.072  27.559   7.650
 7148POPC   C1B36571  26.065  27.882   8.550
 7148POPC   C2B36572  26.084  27.854   8.250
 7148POPC   C3B36573  26.082  27.809   7.950
 7148POPC   C4B36574  26.021  27.888   7.650
 7149POPC   NC336575  36.936  36.098   9.450
 7149POPC   PO436576  36.914  36.085   9.150
 7149POPC   GL136577  36.917  36.151   8.850
 7149POPC   GL236578  36.915  36.027   8.850
 7149POPC   C1A36579  36.858  36.145   8.550
 7149POPC   D2A36580  36.924  36.121   8.250
 7149POPC   C3A36581  36.864  36.142   7.950
 7149POPC   C4A36582  36.921  36.162   7.650
 7149POPC   C1B36583  36.943  35.927   8.550
 7149POPC   C2B36584  36.940  35.910   8.250
 7149POPC   C3B36585  36.995  35.921   7.950
 7149POPC   C4B36586  36.965  35.923   7.650
 7150POPC   NC336587  20.568  44.626   9.450
 7150POPC   PO436588  20.623  44.674   9.150
 7150POPC   GL136589  20.625  44.677   8.850
 7150POPC   GL236590  20.571  44.772   8.850
 7150POPC   C1A36591  20.563  44.635   8.550
 7150POPC   D2A36592  20.655  44.711   8.250
 7150POPC   C3A36593  20.574  44.624   7.950
 7150POPC   C4A36594  20.619  44.632   7.650
 7150POPC   C1B36595  20.521  44.940   8.550
 7150POPC   C2B36596  20.487  44.897   8.250
 7150POPC   C3B36597  20.498  44.899   7.950
 7150POPC   C4B36598  20.497  44.902   7.650
 7151POPC   NC336599   8.175  10.479   9.450
 7151POPC   PO436600   8.185  10.516   9.150
 7151POPC   GL136601   8.223  10.517   8.850
 7151POPC   GL236602   8.149  10.664   8.850
 7151POPC   C1A36603   8.230  10.489   8.550
 7151POPC   D2A36604   8.150  10.523   8.250
 7151POPC   C3A36605   8.226  10.539   7.950
 7151POPC   C4A36606   8.186  10.514   7.650
 7151POPC   C1B36607   8.060  10.691   8.550
 7151POPC   C2B36608   7.991  10.672   8.250
 7151POPC   C3B36609   7.988  10.710   7.950
 7151POPC   C4B36610   8.071  10.669   7.650
 7152POPC   NC336611  21.424  13.612   9.450
 7152POPC   PO436612  21.359  13.632   9.150
 7152POPC   GL136613  21.400  13.599   8.850
 7152POPC   GL236614  21.414  13.519   8.850
 7152POPC   C1A36615  21.401  13.605   8.550
 7152POPC   D2A36616  21.415  13.654   8.250
 7152POPC   C3A36617  21.366  13.600   7.950
 7152POPC   C4A36618  21.369  13.586   7.650
 7152POPC   C1B36619  21.388  13.404   8.550
 7152POPC   C2B36620  21.416  13.374   8.250
 7152POPC   C3B36621  21.464  13.413   7.950
 7152POPC   C4B36622  21.409  13.363   7.650
 7153POPC   NC336623  19.821  10.545   9.450
 7153POPC   PO436624  19.809  10.492   9.150
 7153POPC   GL136625  19.789  10.536   8.850
 7153POPC   GL236626  19.800  10.642   8.850
 7153POPC   C1A36627  19.883  10.550   8.550
 7153POPC   D2A36628  19.807  10.525   8.250
 7153POPC   C3A36629  19.878  10.571   7.950
 7153POPC   C4A36630  19.826  10.534   7.650
 7153POPC   C1B36631  19.690  10.704   8.550
 7153POPC   C2B36632  19.667  10.729   8.250
 7153POPC   C3B36633  19.686  10.693   7.950
 7153POPC   C4B36634  19.728  10.724   7.650
 7154POPC   NC336635  33.797   2.758   9.450
 7154POPC   PO436636  33.806   2.769   9.150
 7154POPC   GL136637  33.812   2.738   8.850
 7154POPC   GL236638  33.689   2.857   8.850
 7154POPC   C1A36639  33.764   2.745   8.550
 7154POPC   D2A36640  33.763   2.792   8.250
 7154POPC   C3A36641  33.752   2.774   7.950
 7154POPC   C4A36642  33.792   2.790   7.650
 7154POPC   C1B36643  33.553   2.884   8.550
 7154POPC   C2B36644  33.614   2.897   8.250
 7154POPC   C3B36645  33.613   2.910   7.950
 7154POPC   C4B36646  33.568   2.899   7.650
 7155POPC   NC336647  28.372   3.530   9.450
 7155POPC   PO436648  28.393   3.555   9.150
 7155POPC   GL136649  28.348   3.554   8.850
 7155POPC   GL236650  28.224   3.453   8.850
 7155POPC   C1A36651  28.388   3.564   8.550
 7155POPC   D2A36652  28.337   3.514   8.250
 7155POPC   C3A36653  28.374   3.572   7.950
 7155POPC   C4A36654  28.384   3.562   7.650
 7155POPC   C1B36655  28.138   3.439   8.550
 7155POPC   C2B36656  28.155   3.399   8.250
 7155POPC   C3B36657  28.158   3.460   7.950
 7155POPC   C4B36658  28.129   3.471   7.650
 7156POPC   NC336659   2.728  26.030   9.450
 7156POPC   PO436660   2.774  26.012   9.150
 7156POPC   GL136661   2.746  26.015   8.850
 7156POPC   GL236662   2.805  26.209   8.850
 7156POPC   C1A36663   2.768  26.023   8.550
 7156POPC   D2A36664   2.791  26.053   8.250
 7156POPC   C3A36665   2.789  26.064   7.950
 7156POPC   C4A36666   2.806  26.002   7.650
 7156POPC   C1B36667   2.811  26.321   8.550
 7156POPC   C2B36668   2.752  26.305   8.250
 7156POPC   C3B36669   2.757  26.324   7.950
 7156POPC   C4B36670   2.754  26.334   7.650
 7157POPC   NC336671  43.085  39.978   9.450
 7157POPC   PO436672  43.089  40.003   9.150
 7157POPC   GL136673  43.087  39.984   8.850
 7157POPC   GL236674  43.257  39.970   8.850
 7157POPC   C1A36675  43.094  40.051   8.550
 7157POPC   D2A36676  43.153  39.964   8.250
 7157POPC   C3A36677  43.061  39.986   7.950
 7157POPC   C4A36678  43.083  39.963   7.650
 7157POPC   C1B36679  43.308  39.816   8.550
 7157POPC   C2B36680  43.319  39.823   8.250
 7157POPC   C3B36681  43.359  39.872   7.950
 7157POPC   C4B36682  43.272  39.816   7.650
 7158POPC   NC336683  25.310  13.606   9.450
 7158POPC   PO436684  25.235  13.619   9.150
 7158POPC   GL136685  25.282  13.642   8.850
 7158POPC   GL236686  25.277  13.790   8.850
 7158POPC   C1A36687  25.218  13.602   8.550
 7158POPC   D2A36688  25.253  13.605   8.250
 7158POPC   C3A36689  25.282  13.645   7.950
 7158POPC   C4A36690  25.246  13.618   7.650
 7158POPC   C1B36691  25.320  13.850   8.550
 7158POPC   C2B36692  25.249  13.909   8.250
 7158POPC   C3B36693  25.320  13.884   7.950
 7158POPC   C4B36694  25.241  13.903   7.650
 7159POPC   NC336695   8.235   2.764   9.450
 7159POPC   PO436696   8.202   2.795   9.150
 7159POPC   GL136697   8.147   2.750   8.850
 7159POPC   GL236698   8.159   2.910   8.850
 7159POPC   C1A36699   8.166   2.717   8.550
 7159POPC   D2A36700   8.171   2.727   8.250
 7159POPC   C3A36701   8.148   2.741   7.950
 7159POPC   C4A36702   8.195   2.757   7.650
 7159POPC   C1B36703   8.028   2.973   8.550
 7159POPC   C2B36704   8.016   2.958   8.250
 7159POPC   C3B36705   8.023   2.936   7.950
 7159POPC   C4B36706   8.107   3.025   7.650
 7160POPC   NC336707  38.407  17.470   9.450
 7160POPC   PO436708  38.442  17.488   9.150
 7160POPC   GL136709  38.496  17.529   8.850
 7160POPC   GL236710  38.477  17.569   8.850
 7160POPC   C1A36711  38.503  17.524   8.550
 7160POPC   D2A36712  38.423  17.498   8.250
 7160POPC   C3A36713  38.463  17.485   7.950
 7160POPC   C4A36714  38.464  17.526   7.650
 7160POPC   C1B36715  38.531  17.712   8.550
 7160POPC   C2B36716  38.568  17.721   8.250
 7160POPC   C3B36717  38.596  17.744   7.950
 7160POPC   C4B36718  38.592  17.767   7.650
 7161POPC   NC336719  19.105  16.743   9.450
 7161POPC   PO436720  19.081  16.717   9.150
 7161POPC   GL136721  19.097  16.763   8.850
 7161POPC   GL236722  18.955  16.749   8.850
 7161POPC   C1A36723  19.049  16.732   8.550
 7161POPC   D2A36724  19.072  16.719   8.250
 7161POPC   C3A36725  19.025  16.727   7.950
 7161POPC   C4A36726  19.054  16.713   7.650
 7161POPC   C1B36727  18.792  16.861   8.550
 7161POPC   C2B36728  18.834  16.847   8.250
 7161POPC   C3B36729  18.794  16.805   7.950
 7161POPC   C4B36730  18.810  16.847   7.650
 7162POPC   NC336731  10.496  35.340   9.450
 7162POPC   PO436732  10.507  35.390   9.150
 7162POPC   GL136733  10.477  35.375   8.850
 7162POPC   GL236734  10.421  35.245   8.850
 7162POPC   C1A36735  10.476  35.306   8.550
 7162POPC   D2A36736  10.485  35.369   8.250
 7162POPC   C3A36737  10.521  35.343   7.950
 7162POPC   C4A36738  10.491  35.308   7.650
 7162POPC   C1B36739  10.324  35.141   8.550
 7162POPC   C2B36740  10.414  35.170   8.250
 7162POPC   C3B36741  10.344  35.131   7.950
 7162POPC   C4B36742  10.341  35.133   7.650
 7163POPC   NC336743  29.959  43.061   9.450
 7163POPC   PO436744  29.925  43.148   9.150
 7163POPC   GL136745  29.876  43.102   8.850
 7163POPC   GL236746  29.790  43.094   8.850
 7163POPC   C1A36747  29.931  43.094   8.550
 7163POPC   D2A36748  29.941  43.062   8.250
 7163POPC   C3A36749  29.933  43.117   7.950
 7163POPC   C4A36750  29.902  43.082   7.650
 7163POPC   C1B36751  29.623  43.147   8.550
 7163POPC   C2B36752  29.656  43.143   8.250
 7163POPC   C3B36753  29.709  43.095   7.950
 7163POPC   C4B36754  29.707  43.070   7.650
 7164POPC   NC336755  32.219   2.781   9.450
 7164POPC   PO436756  32.295   2.801   9.150
 7164POPC   GL136757  32.236   2.754   8.850
 7164POPC   GL236758  32.217   2.858   8.850
 7164POPC   C1A36759  32.227   2.765   8.550
 7164POPC   D2A36760  32.232   2.724   8.250
 7164POPC   C3A36761  32.232   2.786   7.950
 7164POPC   C4A36762  32.226   2.779   7.650
 7164POPC   C1B36763  32.236   3.052   8.550
 7164POPC   C2B36764  32.216   3.058   8.250
 7164POPC   C3B36765  32.283   3.008   7.950
 7164POPC   C4B36766  32.231   3.027   7.650
 7165POPC   NC336767  29.918  29.894   9.450
 7165POPC   PO436768  29.928  29.958   9.150
 7165POPC   GL136769  29.906  29.946   8.850
 7165POPC   GL236770  29.881  29.834   8.850
 7165POPC   C1A36771  29.904  29.901   8.550
 7165POPC   D2A36772  29.871  29.917   8.250
 7165POPC   C3A36773  29.959  29.901   7.950
 7165POPC   C4A36774  29.943  29.955   7.650
 7165POPC   C1B36775  29.799  29.736   8.550
 7165POPC   C2B36776  29.782  29.731   8.250
 7165POPC   C3B36777  29.814  29.674   7.950
 7165POPC   C4B36778  29.768  29.737   7.650
 7166POPC   NC336779   7.405   4.282   9.450
 7166POPC   PO436780   7.467   4.343   9.150
 7166POPC   GL136781   7.466   4.360   8.850
 7166POPC   GL236782   7.329   4.289   8.850
 7166POPC   C1A36783   7.469   4.289   8.550
 7166POPC   D2A36784   7.414   4.309   8.250
 7166POPC   C3A36785   7.462   4.294   7.950
 7166POPC   C4A36786   7.403   4.358   7.650
 7166POPC   C1B36787   7.177   4.323   8.550
 7166POPC   C2B36788   7.199   4.347   8.250
 7166POPC   C3B36789   7.217   4.283   7.950
 7166POPC   C4B36790   7.149   4.267   7.650
 7167POPC   NC336791  18.259  23.735   9.450
 7167POPC   PO436792  18.324  23.761   9.150
 7167POPC   GL136793  18.273  23.696   8.850
 7167POPC   GL236794  18.302  23.783   8.850
 7167POPC   C1A36795  18.246  23.684   8.550
 7167POPC   D2A36796  18.311  23.737   8.250
 7167POPC   C3A36797  18.317  23.694   7.950
 7167POPC   C4A36798  18.323  23.671   7.650
 7167POPC   C1B36799  18.376  23.959   8.550
 7167POPC   C2B36800  18.439  23.982   8.250
 7167POPC   C3B36801  18.369  23.955   7.950
 7167POPC   C4B36802  18.379  23.890   7.650
 7168POPC   NC336803   9.797   5.853   9.450
 7168POPC   PO436804   9.756   5.844   9.150
 7168POPC   GL136805   9.734   5.856   8.850
 7168POPC   GL236806   9.609   5.820   8.850
 7168POPC   C1A36807   9.713   5.894   8.550
 7168POPC   D2A36808   9.787   5.840   8.250
 7168POPC   C3A36809   9.796   5.915   7.950
 7168POPC   C4A36810   9.700   5.880   7.650
 7168POPC   C1B36811   9.549   5.805   8.550
 7168POPC   C2B36812   9.538   5.725   8.250
 7168POPC   C3B36813   9.527   5.747   7.950
 7168POPC   C4B36814   9.519   5.724   7.650
 7169POPC   NC336815   0.459  19.841   9.450
 7169POPC   PO436816   0.403  19.787   9.150
 7169POPC   GL136817   0.404  19.789   8.850
 7169POPC   GL236818   0.348  19.737   8.850
 7169POPC   C1A36819   0.411  19.880   8.550
 7169POPC   D2A36820   0.430  19.859   8.250
 7169POPC   C3A36821   0.482  19.789   7.950
 7169POPC   C4A36822   0.480  19.824   7.650
 7169POPC   C1B36823   0.272  19.606   8.550
 7169POPC   C2B36824   0.336  19.568   8.250
 7169POPC   C3B36825   0.331  19.633   7.950
 7169POPC   C4B36826   0.302  19.599   7.650
 7170POPC   NC336827   3.512  17.541   9.450
 7170POPC   PO436828   3.498  17.479   9.150
 7170POPC   GL136829   3.519  17.548   8.850
 7170POPC   GL236830   3.640  17.416   8.850
 7170POPC   C1A36831   3.509  17.483   8.550
 7170POPC   D2A36832   3.561  17.462   8.250
 7170POPC   C3A36833   3.507  17.545   7.950
 7170POPC   C4A36834   3.545  17.504   7.650
 7170POPC   C1B36835   3.717  17.388   8.550
 7170POPC   C2B36836   3.763  17.381   8.250
 7170POPC   C3B36837   3.788  17.338   7.950
 7170POPC   C4B36838   3.785  17.367   7.650
 7171POPC   NC336839  22.119  31.482   9.450
 7171POPC   PO436840  22.199  31.439   9.150
 7171POPC   GL136841  22.114  31.516   8.850
 7171POPC   GL236842  22.070  31.362   8.850
 7171POPC   C1A36843  22.199  31.504   8.550
 7171POPC   D2A36844  22.194  31.478   8.250
 7171POPC   C3A36845  22.195  31.491   7.950
 7171POPC   C4A36846  22.120  31.452   7.650
 7171POPC   C1B36847  21.990  31.255   8.550
 7171POPC   C2B36848  22.012  31.331   8.250
 7171POPC   C3B36849  22.026  31.330   7.950
 7171POPC   C4B36850  21.963  31.290   7.650
 7172POPC   NC336851   4.312  28.408   9.450
 7172POPC   PO436852   4.347  28.405   9.150
 7172POPC   GL136853   4.315  28.341   8.850
 7172POPC   GL236854   4.333  28.269   8.850
 7172POPC   C1A36855   4.321  28.365   8.550
 7172POPC   D2A36856   4.282  28.323   8.250
 7172POPC   C3A36857   4.312  28.351   7.950
 7172POPC   C4A36858   4.277  28.364   7.650
 7172POPC   C1B36859   4.261  28.152   8.550
 7172POPC   C2B36860   4.265  28.115   8.250
 7172POPC   C3B36861   4.297  28.110   7.950
 7172POPC   C4B36862   4.284  28.081   7.650
 7173POPC   NC336863  11.272  29.165   9.450
 7173POPC   PO436864  11.306  29.192   9.150
 7173POPC   GL136865  11.289  29.146   8.850
 7173POPC   GL236866  11.216  29.145   8.850
 7173POPC   C1A36867  11.285  29.104   8.550
 7173POPC   D2A36868  11.261  29.097   8.250
 7173POPC   C3A36869  11.326  29.167   7.950
 7173POPC   C4A36870  11.296  29.187   7.650
 7173POPC   C1B36871  11.032  29.084   8.550
 7173POPC   C2B36872  11.097  29.099   8.250
 7173POPC   C3B36873  11.087  29.115   7.950
 7173POPC   C4B36874  11.074  29.124   7.650
 7174POPC   NC336875  25.300  33.836   9.450
 7174POPC   PO436876  25.307  33.751   9.150
 7174POPC   GL136877  25.243  33.806   8.850
 7174POPC   GL236878  25.351  33.661   8.850
 7174POPC   C1A36879  25.291  33.766   8.550
 7174POPC   D2A36880  25.248  33.786   8.250
 7174POPC   C3A36881  25.281  33.757   7.950
 7174POPC   C4A36882  25.253  33.768   7.650
 7174POPC   C1B36883  25.440  33.633   8.550
 7174POPC   C2B36884  25.445  33.635   8.250
 7174POPC   C3B36885  25.422  33.619   7.950
 7174POPC   C4B36886  25.380  33.556   7.650
 7175POPC   NC336887  20.595  35.333   9.450
 7175POPC   PO436888  20.569  35.339   9.150
 7175POPC   GL136889  20.568  35.369   8.850
 7175POPC   GL236890  20.634  35.184   8.850
 7175POPC   C1A36891  20.588  35.315   8.550
 7175POPC   D2A36892  20.639  35.309   8.250
 7175POPC   C3A36893  20.576  35.390   7.950
 7175POPC   C4A36894  20.616  35.394   7.650
 7175POPC   C1B36895  20.563  35.105   8.550
 7175POPC   C2B36896  20.641  35.085   8.250
 7175POPC   C3B36897  20.609  35.098   7.950
 7175POPC   C4B36898  20.583  35.134   7.650
 7176POPC   NC336899   9.753  21.435   9.450
 7176POPC   PO436900   9.791  21.399   9.150
 7176POPC   GL136901   9.726  21.420   8.850
 7176POPC   GL236902   9.682  21.556   8.850
 7176POPC   C1A36903   9.728  21.355   8.550
 7176POPC   D2A36904   9.791  21.386   8.250
 7176POPC   C3A36905   9.735  21.386   7.950
 7176POPC   C4A36906   9.717  21.337   7.650
 7176POPC   C1B36907   9.657  21.640   8.550
 7176POPC   C2B36908   9.728  21.598   8.250
 7176POPC   C3B36909   9.748  21.679   7.950
 7176POPC   C4B36910   9.747  21.630   7.650
 7177POPC   NC336911  29.899  42.353   9.450
 7177POPC   PO436912  29.901  42.301   9.150
 7177POPC   GL136913  29.950  42.331   8.850
 7177POPC   GL236914  29.912  42.182   8.850
 7177POPC   C1A36915  29.969  42.339   8.550
 7177POPC   D2A36916  29.932  42.308   8.250
 7177POPC   C3A36917  29.873  42.378   7.950
 7177POPC   C4A36918  29.968  42.383   7.650
 7177POPC   C1B36919  30.017  42.139   8.550
 7177POPC   C2B36920  29.992  42.076   8.250
 7177POPC   C3B36921  30.040  42.081   7.950
 7177POPC   C4B36922  29.996  42.107   7.650
 7178POPC   NC336923   5.073  29.174   9.450
 7178POPC   PO436924   5.078  29.149   9.150
 7178POPC   GL136925   5.063  29.182   8.850
 7178POPC   GL236926   5.241  29.168   8.850
 7178POPC   C1A36927   5.095  29.112   8.550
 7178POPC   D2A36928   5.114  29.163   8.250
 7178POPC   C3A36929   5.084  29.096   7.950
 7178POPC   C4A36930   5.116  29.155   7.650
 7178POPC   C1B36931   5.327  29.224   8.550
 7178POPC   C2B36932   5.313  29.214   8.250
 7178POPC   C3B36933   5.267  29.255   7.950
 7178POPC   C4B36934   5.344  29.294   7.650
 7179POPC   NC336935  29.147  29.169   9.450
 7179POPC   PO436936  29.150  29.146   9.150
 7179POPC   GL136937  29.115  29.193   8.850
 7179POPC   GL236938  29.217  29.306   8.850
 7179POPC   C1A36939  29.132  29.118   8.550
 7179POPC   D2A36940  29.158  29.144   8.250
 7179POPC   C3A36941  29.194  29.130   7.950
 7179POPC   C4A36942  29.111  29.194   7.650
 7179POPC   C1B36943  29.246  29.367   8.550
 7179POPC   C2B36944  29.193  29.429   8.250
 7179POPC   C3B36945  29.195  29.372   7.950
 7179POPC   C4B36946  29.150  29.428   7.650
 7180POPC   NC336947  21.410  33.798   9.450
 7180POPC   PO436948  21.368  33.758   9.150
 7180POPC   GL136949  21.346  33.757   8.850
 7180POPC   GL236950  21.313  33.868   8.850
 7180POPC   C1A36951  21.401  33.818   8.550
 7180POPC   D2A36952  21.397  33.763   8.250
 7180POPC   C3A36953  21.358  33.780   7.950
 7180POPC   C4A36954  21.381  33.840   7.650
 7180POPC   C1B36955  21.225  33.978   8.550
 7180POPC   C2B36956  21.158  33.981   8.250
 7180POPC   C3B36957  21.169  33.982   7.950
 7180POPC   C4B36958  21.216  33.934   7.650
 7181POPC   NC336959   0.449   1.980   9.450
 7181POPC   PO436960   0.398   1.982   9.150
 7181POPC   GL136961   0.396   2.005   8.850
 7181POPC   GL236962   0.528   2.047   8.850
 7181POPC   C1A36963   0.480   1.983   8.550
 7181POPC   D2A36964   0.406   1.998   8.250
 7181POPC   C3A36965   0.435   1.956   7.950
 7181POPC   C4A36966   0.438   2.025   7.650
 7181POPC   C1B36967   0.661   2.162   8.550
 7181POPC   C2B36968   0.589   2.096   8.250
 7181POPC   C3B36969   0.638   2.122   7.950
 7181POPC   C4B36970   0.606   2.135   7.650
 7182POPC   NC336971  26.044   5.823   9.450
 7182POPC   PO436972  26.075   5.825   9.150
 7182POPC   GL136973  25.996   5.822   8.850
 7182POPC   GL236974  26.147   5.792   8.850
 7182POPC   C1A36975  26.051   5.867   8.550
 7182POPC   D2A36976  26.085   5.894   8.250
 7182POPC   C3A36977  26.044   5.889   7.950
 7182POPC   C4A36978  26.016   5.865   7.650
 7182POPC   C1B36979  26.202   5.674   8.550
 7182POPC   C2B36980  26.183   5.673   8.250
 7182POPC   C3B36981  26.154   5.647   7.950
 7182POPC   C4B36982  26.227   5.675   7.650
 7183POPC   NC336983  31.431   3.520   9.450
 7183POPC   PO436984  31.439   3.573   9.150
 7183POPC   GL136985  31.445   3.589   8.850
 7183POPC   GL236986  31.572   3.623   8.850
 7183POPC   C1A36987  31.491   3.570   8.550
 7183POPC   D2A36988  31.443   3.500   8.250
 7183POPC   C3A36989  31.462   3.501   7.950
 7183POPC   C4A36990  31.426   3.515   7.650
 7183POPC   C1B36991  31.640   3.783   8.550
 7183POPC   C2B36992  31.611   3.774   8.250
 7183POPC   C3B36993  31.667   3.778   7.950
 7183POPC   C4B36994  31.613   3.784   7.650
 7184POPC   NC336995   9.721  33.800   9.450
 7184POPC   PO436996   9.773  33.792   9.150
 7184POPC   GL136997   9.737  33.849   8.850
 7184POPC   GL236998   9.755  33.664   8.850
 7184POPC   C1A36999   9.776  33.771   8.550
 7184POPC   D2A37000   9.703  33.796   8.250
 7184POPC   C3A37001   9.769  33.824   7.950
 7184POPC   C4A37002   9.707  33.845   7.650
 7184POPC   C1B37003   9.750  33.567   8.550
 7184POPC   C2B37004   9.674  33.538   8.250
 7184POPC   C3B37005   9.700  33.590   7.950
 7184POPC   C4B37006   9.713  33.594   7.650
 7185POPC   NC337007  12.088   5.875   9.450
 7185POPC   PO437008  12.080   5.886   9.150
 7185POPC   GL137009  12.063   5.822   8.850
 7185POPC   GL237010  12.200   5.872   8.850
 7185POPC   C1A37011  12.106   5.868   8.550
 7185POPC   D2A37012  12.089   5.823   8.250
 7185POPC   C3A37013  12.033   5.865   7.950
 7185POPC   C4A37014  12.102   5.861   7.650
 7185POPC   C1B37015  12.292   5.845   8.550
 7185POPC   C2B37016  12.328   5.870   8.250
 7185POPC   C3B37017  12.324   5.852   7.950
 7185POPC   C4B37018  12.330   5.800   7.650
 7186POPC   NC337019  33.027  38.473   9.450
 7186POPC   PO437020  33.059  38.453   9.150
 7186POPC   GL137021  33.040  38.423   8.850
 7186POPC   GL237022  32.933  38.452   8.850
 7186POPC   C1A37023  33.067  38.494   8.550
 7186POPC   D2A37024  33.025  38.411   8.250
 7186POPC   C3A37025  33.019  38.456   7.950
 7186POPC   C4A37026  33.053  38.478   7.650
 7186POPC   C1B37027  32.793  38.492   8.550
 7186POPC   C2B37028  32.791  38.537   8.250
 7186POPC   C3B37029  32.766  38.533   7.950
 7186POPC   C4B37030  32.818  38.542   7.650
 7187POPC   NC337031  22.897  34.557   9.450
 7187POPC   PO437032  22.896  34.626   9.150
 7187POPC   GL137033  22.986  34.598   8.850
 7187POPC   GL237034  23.027  34.695   8.850
 7187POPC   C1A37035  22.977  34.620   8.550
 7187POPC   D2A37036  22.941  34.568   8.250
 7187POPC   C3A37037  22.926  34.534   7.950
 7187POPC   C4A37038  22.967  34.594   7.650
 7187POPC   C1B37039  23.110  34.731   8.550
 7187POPC   C2B37040  23.099  34.681   8.250
 7187POPC   C3B37041  23.175  34.743   7.950
 7187POPC   C4B37042  23.126  34.708   7.650
 7188POPC   NC337043  43.069  29.185   9.450
 7188POPC   PO437044  43.073  29.150   9.150
 7188POPC   GL137045  43.094  29.147   8.850
 7188POPC   GL237046  43.032  29.121   8.850
 7188POPC   C1A37047  43.122  29.126   8.550
 7188POPC   D2A37048  43.132  29.157   8.250
 7188POPC   C3A37049  43.086  29.121   7.950
 7188POPC   C4A37050  43.123  29.104   7.650
 7188POPC   C1B37051  42.866  29.019   8.550
 7188POPC   C2B37052  42.908  29.085   8.250
 7188POPC   C3B37053  42.905  29.047   7.950
 7188POPC   C4B37054  42.871  29.060   7.650
 7189POPC   NC337055  20.576   8.994   9.450
 7189POPC   PO437056  20.589   8.927   9.150
 7189POPC   GL137057  20.567   8.930   8.850
 7189POPC   GL237058  20.522   8.952   8.850
 7189POPC   C1A37059  20.597   8.971   8.550
 7189POPC   D2A37060  20.567   9.013   8.250
 7189POPC   C3A37061  20.581   8.977   7.950
 7189POPC   C4A37062  20.563   8.970   7.650
 7189POPC   C1B37063  20.369   9.044   8.550
 7189POPC   C2B37064  20.408   9.021   8.250
 7189POPC   C3B37065  20.357   8.999   7.950
 7189POPC   C4B37066  20.370   9.055   7.650
 7190POPC   NC337067   5.821  28.377   9.450
 7190POPC   PO437068   5.837  28.378   9.150
 7190POPC   GL137069   5.918  28.370   8.850
 7190POPC   GL237070   5.787  28.388   8.850
 7190POPC   C1A37071   5.830  28.377   8.550
 7190POPC   D2A37072   5.876  28.341   8.250
 7190POPC   C3A37073   5.902  28.345   7.950
 7190POPC   C4A37074   5.850  28.364   7.650
 7190POPC   C1B37075   5.584  28.373   8.550
 7190POPC   C2B37076   5.633  28.448   8.250
 7190POPC   C3B37077   5.579  28.442   7.950
 7190POPC   C4B37078   5.648  28.386   7.650
 7191POPC   NC337079  40.041  39.230   9.450
 7191POPC   PO437080  40.022  39.186   9.150
 7191POPC   GL137081  39.981  39.279   8.850
 7191POPC   GL237082  39.872  39.246   8.850
 7191POPC   C1A37083  39.964  39.226   8.550
 7191POPC   D2A37084  40.029  39.263   8.250
 7191POPC   C3A37085  40.026  39.243   7.950
 7191POPC   C4A37086  39.979  39.279   7.650
 7191POPC   C1B37087  39.793  39.388   8.550
 7191POPC   C2B37088  39.835  39.400   8.250
 7191POPC   C3B37089  39.757  39.310   7.950
 7191POPC   C4B37090  39.797  39.312   7.650
 7192POPC   NC337091  19.843   3.549   9.450
 7192POPC   PO437092  19.788   3.589   9.150
 7192POPC   GL137093  19.820   3.511   8.850
 7192POPC   GL237094  19.938   3.481   8.850
 7192POPC   C1A37095  19.800   3.516   8.550
 7192POPC   D2A37096  19.804   3.568   8.250
 7192POPC   C3A37097  19.811   3.525   7.950
 7192POPC   C4A37098  19.794   3.498   7.650
 7192POPC   C1B37099  20.090   3.485   8.550
 7192POPC   C2B37100  20.052   3.468   8.250
 7192POPC   C3B37101  20.053   3.522   7.950
 7192POPC   C4B37102  20.080   3.476   7.650
 7193POPC   NC337103   1.942  21.347   9.450
 7193POPC   PO437104   1.957  21.412   9.150
 7193POPC   GL137105   2.000  21.382   8.850
 7193POPC   GL237106   2.072  21.273   8.850
 7193POPC   C1A37107   1.991  21.383   8.550
 7193POPC   D2A37108   1.985  21.347   8.250
 7193POPC   C3A37109   1.968  21.434   7.950
 7193POPC   C4A37110   2.028  21.382   7.650
 7193POPC   C1B37111   2.181  21.195   8.550
 7193POPC   C2B37112   2.104  21.160   8.250
 7193POPC   C3B37113   2.114  21.188   7.950
 7193POPC   C4B37114   2.190  21.191   7.650
 7194POPC   NC337115  43.902  39.957   9.450
 7194POPC   PO437116  43.873  39.968   9.150
 7194POPC   GL137117  43.888  40.020   8.850
 7194POPC   GL237118  43.934  40.165   8.850
 7194POPC   C1A37119  43.846  40.035   8.550
 7194POPC   D2A37120  43.893  40.026   8.250
 7194POPC   C3A37121  43.852  40.046   7.950
 7194POPC   C4A37122  43.929  40.041   7.650
 7194POPC   C1B37123  43.967  40.253   8.550
 7194POPC   C2B37124  43.968  40.261   8.250
 7194POPC   C3B37125  43.957  40.203   7.950
 7194POPC   C4B37126  43.989  40.255   7.650
 7195POPC   NC337127  34.539  43.074   9.450
 7195POPC   PO437128  34.580  43.080   9.150
 7195POPC   GL137129  34.622  43.116   8.850
 7195POPC   GL237130  34.554  42.978   8.850
 7195POPC   C1A37131  34.549  43.072   8.550
 7195POPC   D2A37132  34.547  43.080   8.250
 7195POPC   C3A37133  34.585  43.126   7.950
 7195POPC   C4A37134  34.624  43.094   7.650
 7195POPC   C1B37135  34.502  42.880   8.550
 7195POPC   C2B37136  34.466  42.900   8.250
 7195POPC   C3B37137  34.504  42.897   7.950
 7195POPC   C4B37138  34.470  42.833   7.650
 7196POPC   NC337139  26.773   0.484   9.450
 7196POPC   PO437140  26.800   0.442   9.150
 7196POPC   GL137141  26.781   0.389   8.850
 7196POPC   GL237142  26.951   0.413   8.850
 7196POPC   C1A37143  26.804   0.441   8.550
 7196POPC   D2A37144  26.814   0.389   8.250
 7196POPC   C3A37145  26.816   0.411   7.950
 7196POPC   C4A37146  26.839   0.396   7.650
 7196POPC   C1B37147  27.046   0.433   8.550
 7196POPC   C2B37148  27.062   0.456   8.250
 7196POPC   C3B37149  27.097   0.464   7.950
 7196POPC   C4B37150  27.080   0.490   7.650
 7197POPC   NC337151   8.226  34.540   9.450
 7197POPC   PO437152   8.208  34.548   9.150
 7197POPC   GL137153   8.192  34.580   8.850
 7197POPC   GL237154   8.361  34.579   8.850
 7197POPC   C1A37155   8.243  34.536   8.550
 7197POPC   D2A37156   8.246  34.602   8.250
 7197POPC   C3A37157   8.225  34.619   7.950
 7197POPC   C4A37158   8.187  34.563   7.650
 7197POPC   C1B37159   8.493  34.535   8.550
 7197POPC   C2B37160   8.434  34.540   8.250
 7197POPC   C3B37161   8.424  34.509   7.950
 7197POPC   C4B37162   8.430  34.533   7.650
 7198POPC   NC337163  26.863  14.417   9.450
 7198POPC   PO437164  26.816  14.408   9.150
 7198POPC   GL137165  26.781  14.367   8.850
 7198POPC   GL237166  26.719  14.558   8.850
 7198POPC   C1A37167  26.811  14.376   8.550
 7198POPC   D2A37168  26.824  14.407   8.250
 7198POPC   C3A37169  26.856  14.439   7.950
 7198POPC   C4A37170  26.810  14.391   7.650
 7198POPC   C1B37171  26.731  14.577   8.550
 7198POPC   C2B37172  26.650  14.582   8.250
 7198POPC   C3B37173  26.720  14.632   7.950
 7198POPC   C4B37174  26.646  14.664   7.650
 7199POPC   NC337175  13.610   5.105   9.450
 7199POPC   PO437176  13.589   5.114   9.150
 7199POPC   GL137177  13.615   5.065   8.850
 7199POPC   GL237178  13.752   5.132   8.850
 7199POPC   C1A37179  13.600   5.067   8.550
 7199POPC   D2A37180  13.622   5.099   8.250
 7199POPC   C3A37181  13.645   5.131   7.950
 7199POPC   C4A37182  13.601   5.113   7.650
 7199POPC   C1B37183  13.871   5.200   8.550
 7199POPC   C2B37184  13.838   5.187   8.250
 7199POPC   C3B37185  13.819   5.179   7.950
 7199POPC   C4B37186  13.843   5.211   7.650
 7200POPC   NC337187  40.013   8.927   9.450
 7200POPC   PO437188  39.996   8.961   9.150
 7200POPC   GL137189  40.019   9.000   8.850
 7200POPC   GL237190  40.090   8.935   8.850
 7200POPC   C1A37191  40.005   9.010   8.550
 7200POPC   D2A37192  39.998   8.996   8.250
 7200POPC   C3A37193  39.979   8.950   7.950
 7200POPC   C4A37194  39.981   8.951   7.650
 7200POPC   C1B37195  40.242   8.874   8.550
 7200POPC   C2B37196  40.239   8.900   8.250
 7200POPC   C3B37197  40.245   8.906   7.950
 7200POPC   C4B37198  40.296   8.937   7.650
 7201POPC   NC337199   1.238  20.637   9.450
 7201POPC   PO437200   1.250  20.654   9.150
 7201POPC   GL137201   1.200  20.580   8.850
 7201POPC   GL237202   1.331  20.654   8.850
 7201POPC   C1A37203   1.261  20.582   8.550
 7201POPC   D2A37204   1.245  20.621   8.250
 7201POPC   C3A37205   1.214  20.645   7.950
 7201POPC   C4A37206   1.190  20.563   7.650
 7201POPC   C1B37207   1.364  20.755   8.550
 7201POPC   C2B37208   1.402  20.793   8.250
 7201POPC   C3B37209   1.360  20.833   7.950
 7201POPC   C4B37210   1.369  20.769   7.650
 7202POPC   NC337211   1.182  16.005   9.450
 7202POPC   PO437212   1.178  15.953   9.150
 7202POPC   GL137213   1.257  15.955   8.850
 7202POPC   GL237214   1.279  15.889   8.850
 7202POPC   C1A37215   1.252  15.931   8.550
 7202POPC   D2A37216   1.235  15.998   8.250
 7202POPC   C3A37217   1.192  15.995   7.950
 7202POPC   C4A37218   1.182  15.955   7.650
 7202POPC   C1B37219   1.324  15.731   8.550
 7202POPC   C2B37220   1.285  15.748   8.250
 7202POPC   C3B37221   1.280  15.720   7.950
 7202POPC   C4B37222   1.273  15.704   7.650
 7203POPC   NC337223  19.883  25.247   9.450
 7203POPC   PO437224  19.847  25.270   9.150
 7203POPC   GL137225  19.809  25.305   8.850
 7203POPC   GL237226  19.705  25.161   8.850
 7203POPC   C1A37227  19.815  25.283   8.550
 7203POPC   D2A37228  19.838  25.242   8.250
 7203POPC   C3A37229  19.868  25.241   7.950
 7203POPC   C4A37230  19.879  25.220   7.650
 7203POPC   C1B37231  19.673  25.134   8.550
 7203POPC   C2B37232  19.606  25.137   8.250
 7203POPC   C3B37233  19.647  25.087   7.950
 7203POPC   C4B37234  19.657  25.142   7.650
 7204POPC   NC337235  32.978  32.980   9.450
 7204POPC   PO437236  33.037  33.038   9.150
 7204POPC   GL137237  33.017  32.992   8.850
 7204POPC   GL237238  32.955  33.089   8.850
 7204POPC   C1A37239  33.060  32.985   8.550
 7204POPC   D2A37240  33.043  33.048   8.250
 7204POPC   C3A37241  33.067  32.981   7.950
 7204POPC   C4A37242  32.981  33.027   7.650
 7204POPC   C1B37243  32.848  33.148   8.550
 7204POPC   C2B37244  32.830  33.133   8.250
 7204POPC   C3B37245  32.787  33.132   7.950
 7204POPC   C4B37246  32.763  33.155   7.650
 7205POPC   NC337247  37.714  23.715   9.450
 7205POPC   PO437248  37.726  23.696   9.150
 7205POPC   GL137249  37.657  23.688   8.850
 7205POPC   GL237250  37.625  23.796   8.850
 7205POPC   C1A37251  37.671  23.760   8.550
 7205POPC   D2A37252  37.728  23.721   8.250
 7205POPC   C3A37253  37.635  23.719   7.950
 7205POPC   C4A37254  37.658  23.678   7.650
 7205POPC   C1B37255  37.652  23.942   8.550
 7205POPC   C2B37256  37.646  23.943   8.250
 7205POPC   C3B37257  37.576  23.929   7.950
 7205POPC   C4B37258  37.583  23.990   7.650
 7206POPC   NC337259  40.002   9.766   9.450
 7206POPC   PO437260  40.030   9.734   9.150
 7206POPC   GL137261  39.974   9.731   8.850
 7206POPC   GL237262  40.132   9.724   8.850
 7206POPC   C1A37263  39.981   9.727   8.550
 7206POPC   D2A37264  39.982   9.769   8.250
 7206POPC   C3A37265  39.960   9.720   7.950
 7206POPC   C4A37266  39.983   9.783   7.650
 7206POPC   C1B37267  40.233   9.699   8.550
 7206POPC   C2B37268  40.188   9.646   8.250
 7206POPC   C3B37269  40.276   9.602   7.950
 7206POPC   C4B37270  40.202   9.647   7.650
 7207POPC   NC337271  43.885  36.174   9.450
 7207POPC   PO437272  43.924  36.091   9.150
 7207POPC   GL137273  43.847  36.084   8.850
 7207POPC   GL237274  43.856  36.272   8.850
 7207POPC   C1A37275  43.920  36.151   8.550
 7207POPC   D2A37276  43.837  36.112   8.250
 7207POPC   C3A37277  43.868  36.081   7.950
 7207POPC   C4A37278  43.902  36.106   7.650
 7207POPC   C1B37279  43.812  36.395   8.550
 7207POPC   C2B37280  43.856  36.413   8.250
 7207POPC   C3B37281  43.831  36.359   7.950
 7207POPC   C4B37282  43.854  36.348   7.650
 7208POPC   NC337283  42.319  10.546   9.450
 7208POPC   PO437284  42.326  10.542   9.150
 7208POPC   GL137285  42.357  10.530   8.850
 7208POPC   GL237286  42.489  10.521   8.850
 7208POPC   C1A37287  42.376  10.483   8.550
 7208POPC   D2A37288  42.354  10.540   8.250
 7208POPC   C3A37289  42.316  10.479   7.950
 7208POPC   C4A37290  42.297  10.527   7.650
 7208POPC   C1B37291  42.532  10.546   8.550
 7208POPC   C2B37292  42.549  10.602   8.250
 7208POPC   C3B37293  42.566  10.534   7.950
 7208POPC   C4B37294  42.549  10.570   7.650
 7209POPC   NC337295   3.588   5.127   9.450
 7209POPC   PO437296   3.508   5.122   9.150
 7209POPC   GL137297   3.495   5.080   8.850
 7209POPC   GL237298   3.483   5.225   8.850
 7209POPC   C1A37299   3.527   5.103   8.550
 7209POPC   D2A37300   3.570   5.087   8.250
 7209POPC   C3A37301   3.572   5.093   7.950
 7209POPC   C4A37302   3.542   5.134   7.650
 7209POPC   C1B37303   3.378   5.277   8.550
 7209POPC   C2B37304   3.362   5.286   8.250
 7209POPC   C3B37305   3.407   5.214   7.950
 7209POPC   C4B37306   3.393   5.237   7.650
 7210POPC   NC337307  26.852  15.218   9.450
 7210POPC   PO437308  26.838  15.214   9.150
 7210POPC   GL137309  26.779  15.165   8.850
 7210POPC   GL237310  26.920  15.138   8.850
 7210POPC   C1A37311  26.866  15.179   8.550
 7210POPC   D2A37312  26.770  15.158   8.250
 7210POPC   C3A37313  26.805  15.151   7.950
 7210POPC   C4A37314  26.819  15.135   7.650
 7210POPC   C1B37315  27.077  15.070   8.550
 7210POPC   C2B37316  26.997  15.052   8.250
 7210POPC   C3B37317  27.052  15.035   7.950
 7210POPC   C4B37318  27.005  15.071   7.650
 7211POPC   NC337319  22.918   5.061   9.450
 7211POPC   PO437320  22.981   5.101   9.150
 7211POPC   GL137321  22.906   5.138   8.850
 7211POPC   GL237322  23.046   5.141   8.850
 7211POPC   C1A37323  22.929   5.063   8.550
 7211POPC   D2A37324  22.916   5.100   8.250
 7211POPC   C3A37325  22.912   5.098   7.950
 7211POPC   C4A37326  22.910   5.055   7.650
 7211POPC   C1B37327  23.232   5.111   8.550
 7211POPC   C2B37328  23.141   5.127   8.250
 7211POPC   C3B37329  23.201   5.139   7.950
 7211POPC   C4B37330  23.180   5.166   7.650
 7212POPC   NC337331  20.581  42.350   9.450
 7212POPC   PO437332  20.605  42.315   9.150
 7212POPC   GL137333  20.639  42.318   8.850
 7212POPC   GL237334  20.750  42.352   8.850
 7212POPC   C1A37335  20.642  42.344   8.550
 7212POPC   D2A37336  20.606  42.326   8.250
 7212POPC   C3A37337  20.640  42.340   7.950
 7212POPC   C4A37338  20.583  42.331   7.650
 7212POPC   C1B37339  20.821  42.303   8.550
 7212POPC   C2B37340  20.856  42.282   8.250
 7212POPC   C3B37341  20.908  42.297   7.950
 7212POPC   C4B37342  20.830  42.363   7.650
 7213POPC   NC337343  21.409  34.530   9.450
 7213POPC   PO437344  21.368  34.558   9.150
 7213POPC   GL137345  21.345  34.526   8.850
 7213POPC   GL237346  21.450  34.675   8.850
 7213POPC   C1A37347  21.337  34.615   8.550
 7213POPC   D2A37348  21.436  34.556   8.250
 7213POPC   C3A37349  21.371  34.580   7.950
 7213POPC   C4A37350  21.395  34.552   7.650
 7213POPC   C1B37351  21.435  34.798   8.550
 7213POPC   C2B37352  21.509  34.860   8.250
 7213POPC   C3B37353  21.471  34.857   7.950
 7213POPC   C4B37354  21.502  34.780   7.650
 7214POPC   NC337355   0.400  10.527   9.450
 7214POPC   PO437356   0.402  10.568   9.150
 7214POPC   GL137357   0.484  10.503   8.850
 7214POPC   GL237358   0.332  10.640   8.850
 7214POPC   C1A37359   0.456  10.551   8.550
 7214POPC   D2A37360   0.463  10.492   8.250
 7214POPC   C3A37361   0.395  10.501   7.950
 7214POPC   C4A37362   0.399  10.475   7.650
 7214POPC   C1B37363   0.274  10.672   8.550
 7214POPC   C2B37364   0.264  10.666   8.250
 7214POPC   C3B37365   0.279  10.650   7.950
 7214POPC   C4B37366   0.222  10.692   7.650
 7215POPC   NC337367   0.471  11.274   9.450
 7215POPC   PO437368   0.488  11.262   9.150
 7215POPC   GL137369   0.408  11.264   8.850
 7215POPC   GL237370   0.431  11.145   8.850
 7215POPC   C1A37371   0.432  11.305   8.550
 7215POPC   D2A37372   0.449  11.338   8.250
 7215POPC   C3A37373   0.473  11.344   7.950
 7215POPC   C4A37374   0.460  11.350   7.650
 7215POPC   C1B37375   0.427  11.021   8.550
 7215POPC   C2B37376   0.476  11.064   8.250
 7215POPC   C3B37377   0.432  11.016   7.950
 7215POPC   C4B37378   0.420  11.011   7.650
 7216POPC   NC337379  38.502  12.823   9.450
 7216POPC   PO437380  38.413  12.892   9.150
 7216POPC   GL137381  38.458  12.855   8.850
 7216POPC   GL237382  38.484  12.727   8.850
 7216POPC   C1A37383  38.477  12.843   8.550
 7216POPC   D2A37384  38.454  12.880   8.250
 7216POPC   C3A37385  38.469  12.876   7.950
 7216POPC   C4A37386  38.462  12.806   7.650
 7216POPC   C1B37387  38.531  12.671   8.550
 7216POPC   C2B37388  38.562  12.662   8.250
 7216POPC   C3B37389  38.549  12.619   7.950
 7216POPC   C4B37390  38.597  12.622   7.650
 7217POPC   NC337391  26.819  31.491   9.450
 7217POPC   PO437392  26.867  31.460   9.150
 7217POPC   GL137393  26.795  31.521   8.850
 7217POPC   GL237394  26.806  31.597   8.850
 7217POPC   C1A37395  26.806  31.439   8.550
 7217POPC   D2A37396  26.820  31.477   8.250
 7217POPC   C3A37397  26.846  31.444   7.950
 7217POPC   C4A37398  26.810  31.459   7.650
 7217POPC   C1B37399  26.865  31.756   8.550
 7217POPC   C2B37400  26.827  31.736   8.250
 7217POPC   C3B37401  26.879  31.746   7.950
 7217POPC   C4B37402  26.903  31.744   7.650
 7218POPC   NC337403  37.659  44.670   9.450
 7218POPC   PO437404  37.693  44.629   9.150
 7218POPC   GL137405  37.704  44.703   8.850
 7218POPC   GL237406  37.844  44.642   8.850
 7218POPC   C1A37407  37.716  44.631   8.550
 7218POPC   D2A37408  37.675  44.698   8.250
 7218POPC   C3A37409  37.632  44.640   7.950
 7218POPC   C4A37410  37.696  44.620   7.650
 7218POPC   C1B37411  37.876  44.722   8.550
 7218POPC   C2B37412  37.906  44.699   8.250
 7218POPC   C3B37413  37.931  44.675   7.950
 7218POPC   C4B37414  37.897  44.723   7.650
 7219POPC   NC337415  30.700  39.210   9.450
 7219POPC   PO437416  30.662  39.212   9.150
 7219POPC   GL137417  30.720  39.188   8.850
 7219POPC   GL237418  30.799  39.187   8.850
 7219POPC   C1A37419  30.664  39.231   8.550
 7219POPC   D2A37420  30.715  39.238   8.250
 7219POPC   C3A37421  30.652  39.273   7.950
 7219POPC   C4A37422  30.656  39.205   7.650
 7219POPC   C1B37423  30.925  39.162   8.550
 7219POPC   C2B37424  30.943  39.164   8.250
 7219POPC   C3B37425  30.949  39.097   7.950
 7219POPC   C4B37426  30.964  39.121   7.650
 7220POPC   NC337427  12.855  31.504   9.450
 7220POPC   PO437428  12.895  31.522   9.150
 7220POPC   GL137429  12.842  31.472   8.850
 7220POPC   GL237430  12.893  31.415   8.850
 7220POPC   C1A37431  12.819  31.456   8.550
 7220POPC   D2A37432  12.849  31.491   8.250
 7220POPC   C3A37433  12.839  31.451   7.950
 7220POPC   C4A37434  12.878  31.446   7.650
 7220POPC   C1B37435  13.039  31.245   8.550
 7220POPC   C2B37436  13.059  31.288   8.250
 7220POPC   C3B37437  12.961  31.312   7.950
 7220POPC   C4B37438  12.998  31.295   7.650
 7221POPC   NC337439  37.648  26.070   9.450
 7221POPC   PO437440  37.710  26.087   9.150
 7221POPC   GL137441  37.709  26.047   8.850
 7221POPC   GL237442  37.833  26.069   8.850
 7221POPC   C1A37443  37.665  26.070   8.550
 7221POPC   D2A37444  37.718  26.018   8.250
 7221POPC   C3A37445  37.703  26.050   7.950
 7221POPC   C4A37446  37.688  26.014   7.650
 7221POPC   C1B37447  37.939  26.083   8.550
 7221POPC   C2B37448  37.927  26.038   8.250
 7221POPC   C3B37449  37.978  26.072   7.950
 7221POPC   C4B37450  37.914  26.014   7.650
 7222POPC   NC337451   9.757  36.904   9.450
 7222POPC   PO437452   9.723  36.896   9.150
 7222POPC   GL137453   9.779  36.933   8.850
 7222POPC   GL237454   9.619  36.876   8.850
 7222POPC   C1A37455   9.731  36.866   8.550
 7222POPC   D2A37456   9.708  36.924   8.250
 7222POPC   C3A37457   9.713  36.878   7.950
 7222POPC   C4A37458   9.795  36.915   7.650
 7222POPC   C1B37459   9.471  36.860   8.550
 7222POPC   C2B37460   9.499  36.912   8.250
 7222POPC   C3B37461   9.451  36.904   7.950
 7222POPC   C4B37462   9.488  36.881   7.650
 7223POPC   NC337463   7.395  21.343   9.450
 7223POPC   PO437464   7.413  21.431   9.150
 7223POPC   GL137465   7.435  21.421   8.850
 7223POPC   GL237466   7.575  21.383   8.850
 7223POPC   C1A37467   7.389  21.368   8.550
 7223POPC   D2A37468   7.387  21.406   8.250
 7223POPC   C3A37469   7.435  21.430   7.950
 7223POPC   C4A37470   7.402  21.423   7.650
 7223POPC   C1B37471   7.662  21.281   8.550
 7223POPC   C2B37472   7.618  21.243   8.250
 7223POPC   C3B37473   7.611  21.278   7.950
 7223POPC   C4B37474   7.661  21.306   7.650
 7224POPC   NC337475  17.536  40.741   9.450
 7224POPC   PO437476  17.477  40.788   9.150
 7224POPC   GL137477  17.505  40.809   8.850
 7224POPC   GL237478  17.529  40.676   8.850
 7224POPC   C1A37479  17.524  40.826   8.550
 7224POPC   D2A37480  17.550  40.755   8.250
 7224POPC   C3A37481  17.544  40.767   7.950
 7224POPC   C4A37482  17.492  40.743   7.650
 7224POPC   C1B37483  17.629  40.500   8.550
 7224POPC   C2B37484  17.599  40.545   8.250
 7224POPC   C3B37485  17.608  40.586   7.950
 7224POPC   C4B37486  17.539  40.543   7.650
 7225POPC   NC337487  16.727  33.821   9.450
 7225POPC   PO437488  16.682  33.799   9.150
 7225POPC   GL137489  16.708  33.809   8.850
 7225POPC   GL237490  16.602  33.815   8.850
 7225POPC   C1A37491  16.779  33.835   8.550
 7225POPC   D2A37492  16.776  33.753   8.250
 7225POPC   C3A37493  16.759  33.767   7.950
 7225POPC   C4A37494  16.777  33.829   7.650
 7225POPC   C1B37495  16.438  33.774   8.550
 7225POPC   C2B37496  16.478  33.802   8.250
 7225POPC   C3B37497  16.443  33.724   7.950
 7225POPC   C4B37498  16.529  33.726   7.650
 7226POPC   NC337499  15.985  17.540   9.450
 7226POPC   PO437500  15.921  17.545   9.150
 7226POPC   GL137501  15.956  17.519   8.850
 7226POPC   GL237502  15.959  17.411   8.850
 7226POPC   C1A37503  15.950  17.516   8.550
 7226POPC   D2A37504  15.923  17.522   8.250
 7226POPC   C3A37505  15.927  17.463   7.950
 7226POPC   C4A37506  15.935  17.495   7.650
 7226POPC   C1B37507  15.952  17.251   8.550
 7226POPC   C2B37508  15.937  17.220   8.250
 7226POPC   C3B37509  15.938  17.281   7.950
 7226POPC   C4B37510  15.996  17.266   7.650
 7227POPC   NC337511   3.585  24.469   9.450
 7227POPC   PO437512   3.553  24.511   9.150
 7227POPC   GL137513   3.499  24.498   8.850
 7227POPC   GL237514   3.639  24.557   8.850
 7227POPC   C1A37515   3.554  24.490   8.550
 7227POPC   D2A37516   3.589  24.479   8.250
 7227POPC   C3A37517   3.557  24.505   7.950
 7227POPC   C4A37518   3.518  24.462   7.650
 7227POPC   C1B37519   3.739  24.500   8.550
 7227POPC   C2B37520   3.777  24.518   8.250
 7227POPC   C3B37521   3.765  24.554   7.950
 7227POPC   C4B37522   3.807  24.515   7.650
 7228POPC   NC337523   4.337  37.640   9.450
 7228POPC   PO437524   4.342  37.703   9.150
 7228POPC   GL137525   4.351  37.712   8.850
 7228POPC   GL237526   4.453  37.720   8.850
 7228POPC   C1A37527   4.318  37.684   8.550
 7228POPC   D2A37528   4.302  37.692   8.250
 7228POPC   C3A37529   4.366  37.688   7.950
 7228POPC   C4A37530   4.365  37.700   7.650
 7228POPC   C1B37531   4.571  37.801   8.550
 7228POPC   C2B37532   4.498  37.837   8.250
 7228POPC   C3B37533   4.554  37.790   7.950
 7228POPC   C4B37534   4.499  37.828   7.650
 7229POPC   NC337535  14.358   5.833   9.450
 7229POPC   PO437536  14.381   5.827   9.150
 7229POPC   GL137537  14.412   5.892   8.850
 7229POPC   GL237538  14.484   5.910   8.850
 7229POPC   C1A37539  14.374   5.847   8.550
 7229POPC   D2A37540  14.440   5.889   8.250
 7229POPC   C3A37541  14.406   5.917   7.950
 7229POPC   C4A37542  14.412   5.911   7.650
 7229POPC   C1B37543  14.551   6.057   8.550
 7229POPC   C2B37544  14.578   6.033   8.250
 7229POPC   C3B37545  14.626   6.068   7.950
 7229POPC   C4B37546  14.532   6.007   7.650
 7230POPC   NC337547   8.213  40.809   9.450
 7230POPC   PO437548   8.179  40.830   9.150
 7230POPC   GL137549   8.239  40.813   8.850
 7230POPC   GL237550   8.288  40.700   8.850
 7230POPC   C1A37551   8.208  40.773   8.550
 7230POPC   D2A37552   8.158  40.744   8.250
 7230POPC   C3A37553   8.191  40.833   7.950
 7230POPC   C4A37554   8.182  40.764   7.650
 7230POPC   C1B37555   8.427  40.677   8.550
 7230POPC   C2B37556   8.377  40.629   8.250
 7230POPC   C3B37557   8.436  40.640   7.950
 7230POPC   C4B37558   8.394  40.663   7.650
 7231POPC   NC337559  24.495  44.668   9.450
 7231POPC   PO437560  24.499  44.703   9.150
 7231POPC   GL137561  24.519  44.631   8.850
 7231POPC   GL237562  24.522  44.543   8.850
 7231POPC   C1A37563  24.457  44.638   8.550
 7231POPC   D2A37564  24.473  44.698   8.250
 7231POPC   C3A37565  24.453  44.637   7.950
 7231POPC   C4A37566  24.459  44.613   7.650
 7231POPC   C1B37567  24.531  44.389   8.550
 7231POPC   C2B37568  24.543  44.420   8.250
 7231POPC   C3B37569  24.502  44.417   7.950
 7231POPC   C4B37570  24.466  44.391   7.650
 7232POPC   NC337571  42.309  17.480   9.450
 7232POPC   PO437572  42.314  17.548   9.150
 7232POPC   GL137573  42.313  17.527   8.850
 7232POPC   GL237574  42.200  17.399   8.850
 7232POPC   C1A37575  42.294  17.518   8.550
 7232POPC   D2A37576  42.303  17.460   8.250
 7232POPC   C3A37577  42.382  17.498   7.950
 7232POPC   C4A37578  42.322  17.532   7.650
 7232POPC   C1B37579  42.175  17.391   8.550
 7232POPC   C2B37580  42.123  17.373   8.250
 7232POPC   C3B37581  42.120  17.406   7.950
 7232POPC   C4B37582  42.101  17.371   7.650
 7233POPC   NC337583  38.461  19.072   9.450
 7233POPC   PO437584  38.424  19.034   9.150
 7233POPC   GL137585  38.441  19.064   8.850
 7233POPC   GL237586  38.564  19.006   8.850
 7233POPC   C1A37587  38.465  19.053   8.550
 7233POPC   D2A37588  38.448  19.074   8.250
 7233POPC   C3A37589  38.433  19.027   7.950
 7233POPC   C4A37590  38.495  19.105   7.650
 7233POPC   C1B37591  38.647  18.873   8.550
 7233POPC   C2B37592  38.576  18.831   8.250
 7233POPC   C3B37593  38.664  18.911   7.950
 7233POPC   C4B37594  38.639  18.828   7.650
 7234POPC   NC337595  35.401  26.835   9.450
 7234POPC   PO437596  35.341  26.819   9.150
 7234POPC   GL137597  35.334  26.797   8.850
 7234POPC   GL237598  35.518  26.799   8.850
 7234POPC   C1A37599  35.329  26.808   8.550
 7234POPC   D2A37600  35.344  26.815   8.250
 7234POPC   C3A37601  35.305  26.791   7.950
 7234POPC   C4A37602  35.314  26.844   7.650
 7234POPC   C1B37603  35.555  26.924   8.550
 7234POPC   C2B37604  35.587  26.871   8.250
 7234POPC   C3B37605  35.633  26.877   7.950
 7234POPC   C4B37606  35.633  26.892   7.650
 7235POPC   NC337607   3.540  29.943   9.450
 7235POPC   PO437608   3.534  29.960   9.150
 7235POPC   GL137609   3.573  29.927   8.850
 7235POPC   GL237610   3.371  29.910   8.850
 7235POPC   C1A37611   3.516  29.880   8.550
 7235POPC   D2A37612   3.493  29.882   8.250
 7235POPC   C3A37613   3.522  29.885   7.950
 7235POPC   C4A37614   3.505  29.965   7.650
 7235POPC   C1B37615   3.293  29.841   8.550
 7235POPC   C2B37616   3.294  29.839   8.250
 7235POPC   C3B37617   3.320  29.855   7.950
 7235POPC   C4B37618   3.289  29.879   7.650
 7236POPC   NC337619   5.118  34.567   9.450
 7236POPC   PO437620   5.123  34.578   9.150
 7236POPC   GL137621   5.044  34.538   8.850
 7236POPC   GL237622   5.190  34.495   8.850
 7236POPC   C1A37623   5.082  34.586   8.550
 7236POPC   D2A37624   5.089  34.576   8.250
 7236POPC   C3A37625   5.073  34.539   7.950
 7236POPC   C4A37626   5.061  34.598   7.650
 7236POPC   C1B37627   5.316  34.505   8.550
 7236POPC   C2B37628   5.313  34.461   8.250
 7236POPC   C3B37629   5.309  34.512   7.950
 7236POPC   C4B37630   5.308  34.441   7.650
 7237POPC   NC337631  31.508   6.643   9.450
 7237POPC   PO437632  31.446   6.651   9.150
 7237POPC   GL137633  31.438   6.619   8.850
 7237POPC   GL237634  31.338   6.674   8.850
 7237POPC   C1A37635  31.514   6.632   8.550
 7237POPC   D2A37636  31.450   6.687   8.250
 7237POPC   C3A37637  31.453   6.607   7.950
 7237POPC   C4A37638  31.442   6.679   7.650
 7237POPC   C1B37639  31.235   6.644   8.550
 7237POPC   C2B37640  31.200   6.630   8.250
 7237POPC   C3B37641  31.209   6.599   7.950
 7237POPC   C4B37642  31.191   6.699   7.650
 7238POPC   NC337643  43.150   1.252   9.450
 7238POPC   PO437644  43.107   1.181   9.150
 7238POPC   GL137645  43.124   1.190   8.850
 7238POPC   GL237646  43.217   1.145   8.850
 7238POPC   C1A37647  43.061   1.260   8.550
 7238POPC   D2A37648  43.104   1.229   8.250
 7238POPC   C3A37649  43.077   1.179   7.950
 7238POPC   C4A37650  43.125   1.206   7.650
 7238POPC   C1B37651  43.359   1.034   8.550
 7238POPC   C2B37652  43.342   1.103   8.250
 7238POPC   C3B37653  43.305   1.045   7.950
 7238POPC   C4B37654  43.304   1.036   7.650
 7239POPC   NC337655   9.746   2.761   9.450
 7239POPC   PO437656   9.781   2.755   9.150
 7239POPC   GL137657   9.795   2.813   8.850
 7239POPC   GL237658   9.821   2.869   8.850
 7239POPC   C1A37659   9.714   2.753   8.550
 7239POPC   D2A37660   9.780   2.769   8.250
 7239POPC   C3A37661   9.772   2.741   7.950
 7239POPC   C4A37662   9.715   2.801   7.650
 7239POPC   C1B37663   9.900   2.977   8.550
 7239POPC   C2B37664   9.960   2.884   8.250
 7239POPC   C3B37665   9.957   2.887   7.950
 7239POPC   C4B37666   9.900   2.901   7.650
 7240POPC   NC337667  10.491  21.399   9.450
 7240POPC   PO437668  10.494  21.435   9.150
 7240POPC   GL137669  10.567  21.391   8.850
 7240POPC   GL237670  10.689  21.405   8.850
 7240POPC   C1A37671  10.511  21.434   8.550
 7240POPC   D2A37672  10.500  21.353   8.250
 7240POPC   C3A37673  10.564  21.402   7.950
 7240POPC   C4A37674  10.497  21.347   7.650
 7240POPC   C1B37675  10.779  21.452   8.550
 7240POPC   C2B37676  10.802  21.363   8.250
 7240POPC   C3B37677  10.823  21.397   7.950
 7240POPC   C4B37678  10.783  21.424   7.650
 7241POPC   NC337679  38.446  33.037   9.450
 7241POPC   PO437680  38.423  33.050   9.150
 7241POPC   GL137681  38.421  33.033   8.850
 7241POPC   GL237682  38.483  32.917   8.850
 7241POPC   C1A37683  38.455  33.025   8.550
 7241POPC   D2A37684  38.426  33.003   8.250
 7241POPC   C3A37685  38.427  33.031   7.950
 7241POPC   C4A37686  38.439  33.036   7.650
 7241POPC   C1B37687  38.559  32.758   8.550
 7241POPC   C2B37688  38.529  32.808   8.250
 7241POPC   C3B37689  38.542  32.793   7.950
 7241POPC   C4B37690  38.478  32.785   7.650
 7242POPC   NC337691  26.848   4.277   9.450
 7242POPC   PO437692  26.864   4.311   9.150
 7242POPC   GL137693  26.806   4.327   8.850
 7242POPC   GL237694  26.713   4.356   8.850
 7242POPC   C1A37695  26.771   4.350   8.550
 7242POPC   D2A37696  26.865   4.278   8.250
 7242POPC   C3A37697  26.784   4.298   7.950
 7242POPC   C4A37698  26.865   4.279   7.650
 7242POPC   C1B37699  26.586   4.501   8.550
 7242POPC   C2B37700  26.578   4.424   8.250
 7242POPC   C3B37701  26.612   4.440   7.950
 7242POPC   C4B37702  26.593   4.445   7.650
 7243POPC   NC337703   0.485   3.520   9.450
 7243POPC   PO437704   0.428   3.575   9.150
 7243POPC   GL137705   0.455   3.580   8.850
 7243POPC   GL237706   0.318   3.624   8.850
 7243POPC   C1A37707   0.404   3.536   8.550
 7243POPC   D2A37708   0.467   3.552   8.250
 7243POPC   C3A37709   0.409   3.545   7.950
 7243POPC   C4A37710   0.460   3.492   7.650
 7243POPC   C1B37711   0.228   3.652   8.550
 7243POPC   C2B37712   0.221   3.578   8.250
 7243POPC   C3B37713   0.172   3.662   7.950
 7243POPC   C4B37714   0.170   3.666   7.650
 7244POPC   NC337715   4.333  24.480   9.450
 7244POPC   PO437716   4.273  24.498   9.150
 7244POPC   GL137717   4.340  24.527   8.850
 7244POPC   GL237718   4.432  24.449   8.850
 7244POPC   C1A37719   4.300  24.457   8.550
 7244POPC   D2A37720   4.275  24.497   8.250
 7244POPC   C3A37721   4.277  24.530   7.950
 7244POPC   C4A37722   4.361  24.464   7.650
 7244POPC   C1B37723   4.451  24.321   8.550
 7244POPC   C2B37724   4.520  24.349   8.250
 7244POPC   C3B37725   4.450  24.363   7.950
 7244POPC   C4B37726   4.536  24.286   7.650
 7245POPC   NC337727  12.038  43.066   9.450
 7245POPC   PO437728  12.099  43.096   9.150
 7245POPC   GL137729  12.036  43.063   8.850
 7245POPC   GL237730  12.211  43.025   8.850
 7245POPC   C1A37731  12.047  43.132   8.550
 7245POPC   D2A37732  12.117  43.144   8.250
 7245POPC   C3A37733  12.094  43.145   7.950
 7245POPC   C4A37734  12.062  43.114   7.650
 7245POPC   C1B37735  12.359  43.006   8.550
 7245POPC   C2B37736  12.344  43.017   8.250
 7245POPC   C3B37737  12.316  42.974   7.950
 7245POPC   C4B37738  12.283  43.066   7.650
 7246POPC   NC337739  21.352   0.398   9.450
 7246POPC   PO437740  21.418   0.440   9.150
 7246POPC   GL137741  21.421   0.392   8.850
 7246POPC   GL237742  21.301   0.582   8.850
 7246POPC   C1A37743  21.381   0.440   8.550
 7246POPC   D2A37744  21.413   0.446   8.250
 7246POPC   C3A37745  21.426   0.485   7.950
 7246POPC   C4A37746  21.364   0.475   7.650
 7246POPC   C1B37747  21.223   0.700   8.550
 7246POPC   C2B37748  21.305   0.668   8.250
 7246POPC   C3B37749  21.298   0.658   7.950
 7246POPC   C4B37750  21.221   0.640   7.650
 7247POPC   NC337751  15.943  41.510   9.450
 7247POPC   PO437752  15.995  41.547   9.150
 7247POPC   GL137753  15.934  41.553   8.850
 7247POPC   GL237754  16.070  41.505   8.850
 7247POPC   C1A37755  15.923  41.596   8.550
 7247POPC   D2A37756  16.001  41.530   8.250
 7247POPC   C3A37757  15.976  41.562   7.950
 7247POPC   C4A37758  15.966  41.603   7.650
 7247POPC   C1B37759  16.148  41.429   8.550
 7247POPC   C2B37760  16.127  41.452   8.250
 7247POPC   C3B37761  16.163  41.390   7.950
 7247POPC   C4B37762  16.195  41.444   7.650
 7248POPC   NC337763  30.746  37.632   9.450
 7248POPC   PO437764  30.744  37.654   9.150
 7248POPC   GL137765  30.700  37.699   8.850
 7248POPC   GL237766  30.625  37.746   8.850
 7248POPC   C1A37767  30.650  37.691   8.550
 7248POPC   D2A37768  30.741  37.666   8.250
 7248POPC   C3A37769  30.659  37.689   7.950
 7248POPC   C4A37770  30.669  37.637   7.650
 7248POPC   C1B37771  30.552  37.857   8.550
 7248POPC   C2B37772  30.548  37.914   8.250
 7248POPC   C3B37773  30.544  37.916   7.950
 7248POPC   C4B37774  30.528  37.899   7.650
 7249POPC   NC337775  14.379   4.348   9.450
 7249POPC   PO437776  14.392   4.335   9.150
 7249POPC   GL137777  14.438   4.274   8.850
 7249POPC   GL237778  14.478   4.239   8.850
 7249POPC   C1A37779  14.449   4.329   8.550
 7249POPC   D2A37780  14.365   4.299   8.250
 7249POPC   C3A37781  14.444   4.322   7.950
 7249POPC   C4A37782  14.356   4.287   7.650
 7249POPC   C1B37783  14.617   4.201   8.550
 7249POPC   C2B37784  14.588   4.278   8.250
 7249POPC   C3B37785  14.645   4.207   7.950
 7249POPC   C4B37786  14.587   4.179   7.650
 7250POPC   NC337787   6.651  25.229   9.450
 7250POPC   PO437788   6.664  25.309   9.150
 7250POPC   GL137789   6.640  25.313   8.850
 7250POPC   GL237790   6.638  25.157   8.850
 7250POPC   C1A37791   6.621  25.302   8.550
 7250POPC   D2A37792   6.658  25.290   8.250
 7250POPC   C3A37793   6.673  25.246   7.950
 7250POPC   C4A37794   6.666  25.280   7.650
 7250POPC   C1B37795   6.537  25.019   8.550
 7250POPC   C2B37796   6.575  25.073   8.250
 7250POPC   C3B37797   6.604  25.013   7.950
 7250POPC   C4B37798   6.580  25.024   7.650
 7251POPC   NC337799   0.482   0.440   9.450
 7251POPC   PO437800   0.418   0.479   9.150
 7251POPC   GL137801   0.404   0.391   8.850
 7251POPC   GL237802   0.466   0.611   8.850
 7251POPC   C1A37803   0.452   0.393   8.550
 7251POPC   D2A37804   0.420   0.404   8.250
 7251POPC   C3A37805   0.454   0.411   7.950
 7251POPC   C4A37806   0.459   0.452   7.650
 7251POPC   C1B37807   0.465   0.705   8.550
 7251POPC   C2B37808   0.440   0.710   8.250
 7251POPC   C3B37809   0.388   0.688   7.950
 7251POPC   C4B37810   0.459   0.686   7.650
 7252POPC   NC337811  17.469  24.490   9.450
 7252POPC   PO437812  17.549  24.479   9.150
 7252POPC   GL137813  17.457  24.467   8.850
 7252POPC   GL237814  17.511  24.348   8.850
 7252POPC   C1A37815  17.495  24.448   8.550
 7252POPC   D2A37816  17.510  24.508   8.250
 7252POPC   C3A37817  17.478  24.482   7.950
 7252POPC   C4A37818  17.500  24.510   7.650
 7252POPC   C1B37819  17.394  24.299   8.550
 7252POPC   C2B37820  17.464  24.221   8.250
 7252POPC   C3B37821  17.386  24.241   7.950
 7252POPC   C4B37822  17.417  24.205   7.650
 7253POPC   NC337823   1.232  36.942   9.450
 7253POPC   PO437824   1.262  36.889   9.150
 7253POPC   GL137825   1.247  36.919   8.850
 7253POPC   GL237826   1.141  36.997   8.850
 7253POPC   C1A37827   1.171  36.900   8.550
 7253POPC   D2A37828   1.206  36.926   8.250
 7253POPC   C3A37829   1.242  36.908   7.950
 7253POPC   C4A37830   1.247  36.950   7.650
 7253POPC   C1B37831   1.026  37.099   8.550
 7253POPC   C2B37832   1.086  37.135   8.250
 7253POPC   C3B37833   1.093  37.071   7.950
 7253POPC   C4B37834   1.020  37.072   7.650
 7254POPC   NC337835  15.171   0.418   9.450
 7254POPC   PO437836  15.146   0.417   9.150
 7254POPC   GL137837  15.151   0.465   8.850
 7254POPC   GL237838  15.220   0.351   8.850
 7254POPC   C1A37839  15.179   0.453   8.550
 7254POPC   D2A37840  15.223   0.398   8.250
 7254POPC   C3A37841  15.168   0.436   7.950
 7254POPC   C4A37842  15.180   0.431   7.650
 7254POPC   C1B37843  15.380   0.244   8.550
 7254POPC   C2B37844  15.379   0.261   8.250
 7254POPC   C3B37845  15.320   0.293   7.950
 7254POPC   C4B37846  15.317   0.292   7.650
 7255POPC   NC337847  40.796  25.229   9.450
 7255POPC   PO437848  40.797  25.293   9.150
 7255POPC   GL137849  40.800  25.232   8.850
 7255POPC   GL237850  40.765  25.139   8.850
 7255POPC   C1A37851  40.764  25.239   8.550
 7255POPC   D2A37852  40.773  25.231   8.250
 7255POPC   C3A37853  40.807  25.307   7.950
 7255POPC   C4A37854  40.784  25.274   7.650
 7255POPC   C1B37855  40.791  24.982   8.550
 7255POPC   C2B37856  40.789  24.985   8.250
 7255POPC   C3B37857  40.775  25.006   7.950
 7255POPC   C4B37858  40.763  25.021   7.650
 7256POPC   NC337859  20.614   6.637   9.450
 7256POPC   PO437860  20.629   6.647   9.150
 7256POPC   GL137861  20.567   6.666   8.850
 7256POPC   GL237862  20.686   6.745   8.850
 7256POPC   C1A37863  20.606   6.671   8.550
 7256POPC   D2A37864  20.582   6.639   8.250
 7256POPC   C3A37865  20.616   6.624   7.950
 7256POPC   C4A37866  20.611   6.666   7.650
 7256POPC   C1B37867  20.734   6.886   8.550
 7256POPC   C2B37868  20.675   6.872   8.250
 7256POPC   C3B37869  20.734   6.872   7.950
 7256POPC   C4B37870  20.666   6.908   7.650
 7257POPC   NC337871  10.521   7.418   9.450
 7257POPC   PO437872  10.573   7.444   9.150
 7257POPC   GL137873  10.508   7.438   8.850
 7257POPC   GL237874  10.421   7.504   8.850
 7257POPC   C1A37875  10.530   7.411   8.550
 7257POPC   D2A37876  10.480   7.425   8.250
 7257POPC   C3A37877  10.513   7.396   7.950
 7257POPC   C4A37878  10.549   7.375   7.650
 7257POPC   C1B37879  10.257   7.506   8.550
 7257POPC   C2B37880  10.277   7.461   8.250
 7257POPC   C3B37881  10.279   7.475   7.950
 7257POPC   C4B37882  10.330   7.527   7.650
 7258POPC   NC337883  14.385  18.324   9.450
 7258POPC   PO437884  14.390  18.328   9.150
 7258POPC   GL137885  14.403  18.285   8.850
 7258POPC   GL237886  14.355  18.416   8.850
 7258POPC   C1A37887  14.415  18.301   8.550
 7258POPC   D2A37888  14.368  18.270   8.250
 7258POPC   C3A37889  14.382  18.297   7.950
 7258POPC   C4A37890  14.408  18.281   7.650
 7258POPC   C1B37891  14.316  18.503   8.550
 7258POPC   C2B37892  14.309  18.502   8.250
 7258POPC   C3B37893  14.316  18.560   7.950
 7258POPC   C4B37894  14.389  18.524   7.650
 7259POPC   NC337895   8.942  13.647   9.450
 7259POPC   PO437896   8.973  13.630   9.150
 7259POPC   GL137897   8.931  13.578   8.850
 7259POPC   GL237898   9.033  13.564   8.850
 7259POPC   C1A37899   8.956  13.603   8.550
 7259POPC   D2A37900   9.003  13.578   8.250
 7259POPC   C3A37901   8.983  13.645   7.950
 7259POPC   C4A37902   9.020  13.587   7.650
 7259POPC   C1B37903   9.181  13.438   8.550
 7259POPC   C2B37904   9.107  13.470   8.250
 7259POPC   C3B37905   9.165  13.401   7.950
 7259POPC   C4B37906   9.114  13.399   7.650
 7260POPC   NC337907   0.389  19.052   9.450
 7260POPC   PO437908   0.480  19.075   9.150
 7260POPC   GL137909   0.398  19.052   8.850
 7260POPC   GL237910   0.346  19.133   8.850
 7260POPC   C1A37911   0.413  19.015   8.550
 7260POPC   D2A37912   0.402  19.027   8.250
 7260POPC   C3A37913   0.483  19.031   7.950
 7260POPC   C4A37914   0.452  19.061   7.650
 7260POPC   C1B37915   0.311  19.254   8.550
 7260POPC   C2B37916   0.309  19.253   8.250
 7260POPC   C3B37917   0.293  19.228   7.950
 7260POPC   C4B37918   0.336  19.279   7.650
 7261POPC   NC337919  37.694  16.750   9.450
 7261POPC   PO437920  37.639  16.696   9.150
 7261POPC   GL137921  37.688  16.708   8.850
 7261POPC   GL237922  37.673  16.838   8.850
 7261POPC   C1A37923  37.683  16.723   8.550
 7261POPC   D2A37924  37.637  16.682   8.250
 7261POPC   C3A37925  37.683  16.713   7.950
 7261POPC   C4A37926  37.643  16.717   7.650
 7261POPC   C1B37927  37.671  16.986   8.550
 7261POPC   C2B37928  37.637  16.996   8.250
 7261POPC   C3B37929  37.678  16.968   7.950
 7261POPC   C4B37930  37.653  16.945   7.650
 7262POPC   NC337931  43.149  15.133   9.450
 7262POPC   PO437932  43.079  15.197   9.150
 7262POPC   GL137933  43.080  15.130   8.850
 7262POPC   GL237934  42.949  15.196   8.850
 7262POPC   C1A37935  43.087  15.180   8.550
 7262POPC   D2A37936  43.081  15.150   8.250
 7262POPC   C3A37937  43.119  15.135   7.950
 7262POPC   C4A37938  43.147  15.198   7.650
 7262POPC   C1B37939  42.842  15.132   8.550
 7262POPC   C2B37940  42.905  15.089   8.250
 7262POPC   C3B37941  42.902  15.156   7.950
 7262POPC   C4B37942  42.831  15.134   7.650
 7263POPC   NC337943  22.932  17.468   9.450
 7263POPC   PO437944  22.934  17.554   9.150
 7263POPC   GL137945  22.911  17.507   8.850
 7263POPC   GL237946  22.988  17.647   8.850
 7263POPC   C1A37947  22.983  17.498   8.550
 7263POPC   D2A37948  22.963  17.504   8.250
 7263POPC   C3A37949  22.898  17.461   7.950
 7263POPC   C4A37950  22.895  17.530   7.650
 7263POPC   C1B37951  23.014  17.757   8.550
 7263POPC   C2B37952  23.075  17.763   8.250
 7263POPC   C3B37953  23.048  17.698   7.950
 7263POPC   C4B37954  23.064  17.738   7.650
 7264POPC   NC337955  16.742  42.377   9.450
 7264POPC   PO437956  16.730  42.348   9.150
 7264POPC   GL137957  16.717  42.362   8.850
 7264POPC   GL237958  16.818  42.329   8.850
 7264POPC   C1A37959  16.730  42.348   8.550
 7264POPC   D2A37960  16.689  42.379   8.250
 7264POPC   C3A37961  16.741  42.364   7.950
 7264POPC   C4A37962  16.716  42.316   7.650
 7264POPC   C1B37963  16.949  42.299   8.550
 7264POPC   C2B37964  16.969  42.228   8.250
 7264POPC   C3B37965  16.947  42.240   7.950
 7264POPC   C4B37966  16.939  42.219   7.650
 7265POPC   NC337967  44.696  14.427   9.450
 7265POPC   PO437968  44.692  14.428   9.150
 7265POPC   GL137969  44.638  14.438   8.850
 7265POPC   GL237970  44.766  14.381   8.850
 7265POPC   C1A37971  44.671  14.417   8.550
 7265POPC   D2A37972  44.646  14.364   8.250
 7265POPC   C3A37973  44.633  14.423   7.950
 7265POPC   C4A37974  44.687  14.360   7.650
 7265POPC   C1B37975  44.944  14.397   8.550
 7265POPC   C2B37976  44.962  14.357   8.250
 7265POPC   C3B37977  44.865  14.383   7.950
 7265POPC   C4B37978  44.917  14.404   7.650
 7266POPC   NC337979  33.009  29.135   9.450
 7266POPC   PO437980  32.987  29.137   9.150
 7266POPC   GL137981  32.979  29.131   8.850
 7266POPC   GL237982  32.989  29.005   8.850
 7266POPC   C1A37983  33.050  29.122   8.550
 7266POPC   D2A37984  33.057  29.186   8.250
 7266POPC   C3A37985  33.017  29.164   7.950
 7266POPC   C4A37986  33.055  29.166   7.650
 7266POPC   C1B37987  32.984  28.906   8.550
 7266POPC   C2B37988  32.953  28.950   8.250
 7266POPC   C3B37989  32.926  28.953   7.950
 7266POPC   C4B37990  32.969  28.880   7.650
 7267POPC   NC337991   4.318   5.109   9.450
 7267POPC   PO437992   4.275   5.107   9.150
 7267POPC   GL137993   4.291   5.104   8.850
 7267POPC   GL237994   4.234   5.150   8.850
 7267POPC   C1A37995   4.291   5.084   8.550
 7267POPC   D2A37996   4.357   5.134   8.250
 7267POPC   C3A37997   4.324   5.074   7.950
 7267POPC   C4A37998   4.360   5.067   7.650
 7267POPC   C1B37999   4.082   5.178   8.550
 7267POPC   C2B38000   4.036   5.120   8.250
 7267POPC   C3B38001   4.065   5.122   7.950
 7267POPC   C4B38002   4.059   5.162   7.650
 7268POPC   NC338003  33.068  19.090   9.450
 7268POPC   PO438004  33.057  19.065   9.150
 7268POPC   GL138005  33.007  19.054   8.850
 7268POPC   GL238006  32.869  19.036   8.850
 7268POPC   C1A38007  33.041  19.030   8.550
 7268POPC   D2A38008  33.044  19.074   8.250
 7268POPC   C3A38009  33.063  19.081   7.950
 7268POPC   C4A38010  33.051  19.087   7.650
 7268POPC   C1B38011  32.833  18.933   8.550
 7268POPC   C2B38012  32.776  18.991   8.250
 7268POPC   C3B38013  32.779  18.989   7.950
 7268POPC   C4B38014  32.756  18.955   7.650
 7269POPC   NC338015  24.534  12.827   9.450
 7269POPC   PO438016  24.450  12.894   9.150
 7269POPC   GL138017  24.525  12.802   8.850
 7269POPC   GL238018  24.586  12.866   8.850
 7269POPC   C1A38019  24.511  12.816   8.550
 7269POPC   D2A38020  24.514  12.884   8.250
 7269POPC   C3A38021  24.453  12.892   7.950
 7269POPC   C4A38022  24.538  12.810   7.650
 7269POPC   C1B38023  24.759  12.930   8.550
 7269POPC   C2B38024  24.767  12.900   8.250
 7269POPC   C3B38025  24.742  12.904   7.950
 7269POPC   C4B38026  24.732  12.949   7.650
 7270POPC   NC338027  36.113  15.170   9.450
 7270POPC   PO438028  36.141  15.176   9.150
 7270POPC   GL138029  36.175  15.140   8.850
 7270POPC   GL238030  36.165  15.101   8.850
 7270POPC   C1A38031  36.130  15.186   8.550
 7270POPC   D2A38032  36.093  15.174   8.250
 7270POPC   C3A38033  36.144  15.165   7.950
 7270POPC   C4A38034  36.133  15.139   7.650
 7270POPC   C1B38035  36.318  15.010   8.550
 7270POPC   C2B38036  36.228  14.971   8.250
 7270POPC   C3B38037  36.223  14.982   7.950
 7270POPC   C4B38038  36.226  14.996   7.650
 7271POPC   NC338039  42.291   3.492   9.450
 7271POPC   PO438040  42.330   3.506   9.150
 7271POPC   GL138041  42.330   3.553   8.850
 7271POPC   GL238042  42.345   3.427   8.850
 7271POPC   C1A38043  42.285   3.547   8.550
 7271POPC   D2A38044  42.300   3.503   8.250
 7271POPC   C3A38045  42.289   3.494   7.950
 7271POPC   C4A38046  42.286   3.565   7.650
 7271POPC   C1B38047  42.433   3.306   8.550
 7271POPC   C2B38048  42.371   3.333   8.250
 7271POPC   C3B38049  42.350   3.312   7.950
 7271POPC   C4B38050  42.437   3.307   7.650
 7272POPC   NC338051   5.820  33.755   9.450
 7272POPC   PO438052   5.906  33.839   9.150
 7272POPC   GL138053   5.871  33.797   8.850
 7272POPC   GL238054   5.777  33.740   8.850
 7272POPC   C1A38055   5.840  33.836   8.550
 7272POPC   D2A38056   5.876  33.786   8.250
 7272POPC   C3A38057   5.835  33.845   7.950
 7272POPC   C4A38058   5.860  33.846   7.650
 7272POPC   C1B38059   5.766  33.548   8.550
 7272POPC   C2B38060   5.767  33.583   8.250
 7272POPC   C3B38061   5.749  33.581   7.950
 7272POPC   C4B38062   5.728  33.576   7.650
 7273POPC   NC338063  43.902  20.640   9.450
 7273POPC   PO438064  43.904  20.601   9.150
 7273POPC   GL138065  43.935  20.653   8.850
 7273POPC   GL238066  43.980  20.575   8.850
 7273POPC   C1A38067  43.925  20.593   8.550
 7273POPC   D2A38068  43.930  20.591   8.250
 7273POPC   C3A38069  43.931  20.649   7.950
 7273POPC   C4A38070  43.840  20.585   7.650
 7273POPC   C1B38071  44.080  20.422   8.550
 7273POPC   C2B38072  44.080  20.423   8.250
 7273POPC   C3B38073  44.027  20.466   7.950
 7273POPC   C4B38074  44.087  20.401   7.650
 7274POPC   NC338075  37.664  11.349   9.450
 7274POPC   PO438076  37.685  11.266   9.150
 7274POPC   GL138077  37.676  11.342   8.850
 7274POPC   GL238078  37.706  11.389   8.850
 7274POPC   C1A38079  37.725  11.275   8.550
 7274POPC   D2A38080  37.719  11.279   8.250
 7274POPC   C3A38081  37.688  11.269   7.950
 7274POPC   C4A38082  37.696  11.296   7.650
 7274POPC   C1B38083  37.677  11.521   8.550
 7274POPC   C2B38084  37.707  11.599   8.250
 7274POPC   C3B38085  37.691  11.554   7.950
 7274POPC   C4B38086  37.711  11.566   7.650
 7275POPC   NC338087  13.605  11.290   9.450
 7275POPC   PO438088  13.591  11.345   9.150
 7275POPC   GL138089  13.584  11.279   8.850
 7275POPC   GL238090  13.600  11.168   8.850
 7275POPC   C1A38091  13.636  11.328   8.550
 7275POPC   D2A38092  13.611  11.326   8.250
 7275POPC   C3A38093  13.665  11.258   7.950
 7275POPC   C4A38094  13.624  11.288   7.650
 7275POPC   C1B38095  13.555  11.017   8.550
 7275POPC   C2B38096  13.551  11.006   8.250
 7275POPC   C3B38097  13.626  11.098   7.950
 7275POPC   C4B38098  13.555  11.047   7.650
 7276POPC   NC338099  15.958  29.131   9.450
 7276POPC   PO438100  15.980  29.168   9.150
 7276POPC   GL138101  15.934  29.181   8.850
 7276POPC   GL238102  15.835  29.044   8.850
 7276POPC   C1A38103  15.978  29.147   8.550
 7276POPC   D2A38104  15.997  29.183   8.250
 7276POPC   C3A38105  16.001  29.104   7.950
 7276POPC   C4A38106  15.961  29.160   7.650
 7276POPC   C1B38107  15.700  29.059   8.550
 7276POPC   C2B38108  15.747  29.007   8.250
 7276POPC   C3B38109  15.740  29.035   7.950
 7276POPC   C4B38110  15.717  29.017   7.650
 7277POPC   NC338111  40.828   8.969   9.450
 7277POPC   PO438112  40.792   8.948   9.150
 7277POPC   GL138113  40.792   8.996   8.850
 7277POPC   GL238114  40.687   8.890   8.850
 7277POPC   C1A38115  40.814   8.967   8.550
 7277POPC   D2A38116  40.796   9.003   8.250
 7277POPC   C3A38117  40.733   8.979   7.950
 7277POPC   C4A38118  40.736   8.925   7.650
 7277POPC   C1B38119  40.685   8.761   8.550
 7277POPC   C2B38120  40.642   8.779   8.250
 7277POPC   C3B38121  40.660   8.784   7.950
 7277POPC   C4B38122  40.717   8.697   7.650
 7278POPC   NC338123  43.896  44.667   9.450
 7278POPC   PO438124  43.843  44.667   9.150
 7278POPC   GL138125  43.917  44.624   8.850
 7278POPC   GL238126  43.839  44.519   8.850
 7278POPC   C1A38127  43.934  44.644   8.550
 7278POPC   D2A38128  43.856  44.626   8.250
 7278POPC   C3A38129  43.842  44.698   7.950
 7278POPC   C4A38130  43.907  44.679   7.650
 7278POPC   C1B38131  43.806  44.396   8.550
 7278POPC   C2B38132  43.831  44.454   8.250
 7278POPC   C3B38133  43.839  44.386   7.950
 7278POPC   C4B38134  43.889  44.453   7.650
 7279POPC   NC338135   3.543  26.779   9.450
 7279POPC   PO438136   3.564  26.792   9.150
 7279POPC   GL138137   3.587  26.794   8.850
 7279POPC   GL238138   3.709  26.901   8.850
 7279POPC   C1A38139   3.534  26.818   8.550
 7279POPC   D2A38140   3.519  26.828   8.250
 7279POPC   C3A38141   3.499  26.854   7.950
 7279POPC   C4A38142   3.495  26.811   7.650
 7279POPC   C1B38143   3.792  26.854   8.550
 7279POPC   C2B38144   3.803  26.881   8.250
 7279POPC   C3B38145   3.817  26.864   7.950
 7279POPC   C4B38146   3.750  26.878   7.650
 7280POPC   NC338147  28.353  26.060   9.450
 7280POPC   PO438148  28.336  26.079   9.150
 7280POPC   GL138149  28.407  26.087   8.850
 7280POPC   GL238150  28.503  26.049   8.850
 7280POPC   C1A38151  28.372  26.022   8.550
 7280POPC   D2A38152  28.392  26.024   8.250
 7280POPC   C3A38153  28.350  26.063   7.950
 7280POPC   C4A38154  28.418  26.090   7.650
 7280POPC   C1B38155  28.580  26.133   8.550
 7280POPC   C2B38156  28.641  26.139   8.250
 7280POPC   C3B38157  28.598  26.108   7.950
 7280POPC   C4B38158  28.557  26.192   7.650
 7281POPC   NC338159  28.364   8.242   9.450
 7281POPC   PO438160  28.359   8.157   9.150
 7281POPC   GL138161  28.377   8.239   8.850
 7281POPC   GL238162  28.465   8.065   8.850
 7281POPC   C1A38163  28.368   8.202   8.550
 7281POPC   D2A38164  28.355   8.178   8.250
 7281POPC   C3A38165  28.367   8.167   7.950
 7281POPC   C4A38166  28.327   8.188   7.650
 7281POPC   C1B38167  28.531   7.974   8.550
 7281POPC   C2B38168  28.507   8.029   8.250
 7281POPC   C3B38169  28.494   7.989   7.950
 7281POPC   C4B38170  28.503   7.983   7.650
 7282POPC   NC338171  40.006   8.203   9.450
 7282POPC   PO438172  39.996   8.179   9.150
 7282POPC   GL138173  40.025   8.156   8.850
 7282POPC   GL238174  40.104   8.182   8.850
 7282POPC   C1A38175  39.969   8.207   8.550
 7282POPC   D2A38176  40.000   8.191   8.250
 7282POPC   C3A38177  40.036   8.175   7.950
 7282POPC   C4A38178  39.992   8.149   7.650
 7282POPC   C1B38179  40.209   8.153   8.550
 7282POPC   C2B38180  40.193   8.088   8.250
 7282POPC   C3B38181  40.250   8.128   7.950
 7282POPC   C4B38182  40.221   8.105   7.650
 7283POPC   NC338183  17.500  39.183   9.450
 7283POPC   PO438184  17.498  39.259   9.150
 7283POPC   GL138185  17.536  39.226   8.850
 7283POPC   GL238186  17.482  39.148   8.850
 7283POPC   C1A38187  17.463  39.249   8.550
 7283POPC   D2A38188  17.475  39.260   8.250
 7283POPC   C3A38189  17.538  39.278   7.950
 7283POPC   C4A38190  17.545  39.207   7.650
 7283POPC   C1B38191  17.496  39.030   8.550
 7283POPC   C2B38192  17.559  38.936   8.250
 7283POPC   C3B38193  17.558  38.981   7.950
 7283POPC   C4B38194  17.493  39.018   7.650
 7284POPC   NC338195  12.820  28.328   9.450
 7284POPC   PO438196  12.817  28.356   9.150
 7284POPC   GL138197  12.861  28.407   8.850
 7284POPC   GL238198  12.697  28.307   8.850
 7284POPC   C1A38199  12.849  28.362   8.550
 7284POPC   D2A38200  12.870  28.394   8.250
 7284POPC   C3A38201  12.852  28.320   7.950
 7284POPC   C4A38202  12.820  28.416   7.650
 7284POPC   C1B38203  12.569  28.353   8.550
 7284POPC   C2B38204  12.609  28.274   8.250
 7284POPC   C3B38205  12.568  28.289   7.950
 7284POPC   C4B38206  12.657  28.272   7.650
 7285POPC   NC338207   2.795  24.470   9.450
 7285POPC   PO438208   2.723  24.450   9.150
 7285POPC   GL138209   2.718  24.452   8.850
 7285POPC   GL238210   2.667  24.525   8.850
 7285POPC   C1A38211   2.736  24.484   8.550
 7285POPC   D2A38212   2.761  24.444   8.250
 7285POPC   C3A38213   2.813  24.469   7.950
 7285POPC   C4A38214   2.812  24.454   7.650
 7285POPC   C1B38215   2.583  24.659   8.550
 7285POPC   C2B38216   2.541  24.622   8.250
 7285POPC   C3B38217   2.551  24.694   7.950
 7285POPC   C4B38218   2.558  24.634   7.650
 7286POPC   NC338219  22.953  35.397   9.450
 7286POPC   PO438220  22.960  35.343   9.150
 7286POPC   GL138221  22.934  35.399   8.850
 7286POPC   GL238222  22.798  35.459   8.850
 7286POPC   C1A38223  22.960  35.389   8.550
 7286POPC   D2A38224  22.920  35.317   8.250
 7286POPC   C3A38225  22.900  35.356   7.950
 7286POPC   C4A38226  22.985  35.354   7.650
 7286POPC   C1B38227  22.770  35.486   8.550
 7286POPC   C2B38228  22.729  35.507   8.250
 7286POPC   C3B38229  22.735  35.469   7.950
 7286POPC   C4B38230  22.706  35.504   7.650
 7287POPC   NC338231  30.710  33.000   9.450
 7287POPC   PO438232  30.723  32.985   9.150
 7287POPC   GL138233  30.672  33.015   8.850
 7287POPC   GL238234  30.661  32.913   8.850
 7287POPC   C1A38235  30.694  33.074   8.550
 7287POPC   D2A38236  30.659  33.005   8.250
 7287POPC   C3A38237  30.730  33.024   7.950
 7287POPC   C4A38238  30.716  33.066   7.650
 7287POPC   C1B38239  30.752  32.794   8.550
 7287POPC   C2B38240  30.751  32.808   8.250
 7287POPC   C3B38241  30.676  32.813   7.950
 7287POPC   C4B38242  30.759  32.799   7.650
 7288POPC   NC338243  39.260  15.985   9.450
 7288POPC   PO438244  39.249  15.911   9.150
 7288POPC   GL138245  39.259  15.999   8.850
 7288POPC   GL238246  39.134  15.947   8.850
 7288POPC   C1A38247  39.187  15.967   8.550
 7288POPC   D2A38248  39.193  15.913   8.250
 7288POPC   C3A38249  39.199  15.906   7.950
 7288POPC   C4A38250  39.238  15.927   7.650
 7288POPC   C1B38251  39.032  15.919   8.550
 7288POPC   C2B38252  38.966  15.929   8.250
 7288POPC   C3B38253  38.938  15.924   7.950
 7288POPC   C4B38254  38.979  15.955   7.650
 7289POPC   NC338255  13.627  26.036   9.450
 7289POPC   PO438256  13.667  26.069   9.150
 7289POPC   GL138257  13.639  26.025   8.850
 7289POPC   GL238258  13.484  25.996   8.850
 7289POPC   C1A38259  13.609  26.063   8.550
 7289POPC   D2A38260  13.644  26.011   8.250
 7289POPC   C3A38261  13.579  26.031   7.950
 7289POPC   C4A38262  13.635  26.029   7.650
 7289POPC   C1B38263  13.402  25.897   8.550
 7289POPC   C2B38264  13.407  25.877   8.250
 7289POPC   C3B38265  13.400  25.919   7.950
 7289POPC   C4B38266  13.433  25.886   7.650
 7290POPC   NC338267   1.206  39.965   9.450
 7290POPC   PO438268   1.215  40.011   9.150
 7290POPC   GL138269   1.246  39.984   8.850
 7290POPC   GL238270   1.199  40.149   8.850
 7290POPC   C1A38271   1.190  40.051   8.550
 7290POPC   D2A38272   1.173  39.975   8.250
 7290POPC   C3A38273   1.200  40.055   7.950
 7290POPC   C4A38274   1.224  40.005   7.650
 7290POPC   C1B38275   1.204  40.302   8.550
 7290POPC   C2B38276   1.152  40.266   8.250
 7290POPC   C3B38277   1.240  40.234   7.950
 7290POPC   C4B38278   1.202  40.298   7.650
 7291POPC   NC338279  19.049  17.459   9.450
 7291POPC   PO438280  19.104  17.542   9.150
 7291POPC   GL138281  19.069  17.467   8.850
 7291POPC   GL238282  19.003  17.608   8.850
 7291POPC   C1A38283  19.088  17.470   8.550
 7291POPC   D2A38284  19.059  17.487   8.250
 7291POPC   C3A38285  19.012  17.539   7.950
 7291POPC   C4A38286  19.078  17.476   7.650
 7291POPC   C1B38287  18.896  17.659   8.550
 7291POPC   C2B38288  18.895  17.656   8.250
 7291POPC   C3B38289  18.899  17.692   7.950
 7291POPC   C4B38290  18.856  17.655   7.650
 7292POPC   NC338291  39.222   1.225   9.450
 7292POPC   PO438292  39.254   1.185   9.150
 7292POPC   GL138293  39.276   1.192   8.850
 7292POPC   GL238294  39.127   1.227   8.850
 7292POPC   C1A38295  39.244   1.246   8.550
 7292POPC   D2A38296  39.271   1.238   8.250
 7292POPC   C3A38297  39.278   1.217   7.950
 7292POPC   C4A38298  39.264   1.207   7.650
 7292POPC   C1B38299  39.024   1.238   8.550
 7292POPC   C2B38300  38.993   1.156   8.250
 7292POPC   C3B38301  39.011   1.230   7.950
 7292POPC   C4B38302  38.967   1.163   7.650
 7293POPC   NC338303  27.597  20.564   9.450
 7293POPC   PO438304  27.586  20.593   9.150
 7293POPC   GL138305  27.560  20.640   8.850
 7293POPC   GL238306  27.658  20.461   8.850
 7293POPC   C1A38307  27.606  20.617   8.550
 7293POPC   D2A38308  27.640  20.650   8.250
 7293POPC   C3A38309  27.567  20.582   7.950
 7293POPC   C4A38310  27.594  20.600   7.650
 7293POPC   C1B38311  27.644  20.389   8.550
 7293POPC   C2B38312  27.696  20.361   8.250
 7293POPC   C3B38313  27.682  20.427   7.950
 7293POPC   C4B38314  27.683  20.410   7.650
 7294POPC   NC338315  33.837  26.010   9.450
 7294POPC   PO438316  33.776  26.042   9.150
 7294POPC   GL138317  33.801  26.022   8.850
 7294POPC   GL238318  33.850  26.172   8.850
 7294POPC   C1A38319  33.773  26.031   8.550
 7294POPC   D2A38320  33.791  26.072   8.250
 7294POPC   C3A38321  33.842  26.049   7.950
 7294POPC   C4A38322  33.757  26.026   7.650
 7294POPC   C1B38323  33.803  26.278   8.550
 7294POPC   C2B38324  33.893  26.266   8.250
 7294POPC   C3B38325  33.844  26.314   7.950
 7294POPC   C4B38326  33.878  26.253   7.650
 7295POPC   NC338327  22.918   4.354   9.450
 7295POPC   PO438328  22.924   4.302   9.150
 7295POPC   GL138329  22.895   4.287   8.850
 7295POPC   GL238330  22.983   4.211   8.850
 7295POPC   C1A38331  22.941   4.354   8.550
 7295POPC   D2A38332  22.914   4.353   8.250
 7295POPC   C3A38333  22.978   4.351   7.950
 7295POPC   C4A38334  22.933   4.288   7.650
 7295POPC   C1B38335  22.955   4.080   8.550
 7295POPC   C2B38336  23.023   4.091   8.250
 7295POPC   C3B38337  22.942   4.111   7.950
 7295POPC   C4B38338  23.027   4.070   7.650
 7296POPC   NC338339   5.872  33.043   9.450
 7296POPC   PO438340   5.862  33.066   9.150
 7296POPC   GL138341   5.852  33.022   8.850
 7296POPC   GL238342   5.917  33.169   8.850
 7296POPC   C1A38343   5.847  33.039   8.550
 7296POPC   D2A38344   5.880  32.992   8.250
 7296POPC   C3A38345   5.867  32.977   7.950
 7296POPC   C4A38346   5.841  33.060   7.650
 7296POPC   C1B38347   5.962  33.247   8.550
 7296POPC   C2B38348   5.964  33.243   8.250
 7296POPC   C3B38349   5.969  33.252   7.950
 7296POPC   C4B38350   5.992  33.296   7.650
 7297POPC   NC338351   3.512  18.297   9.450
 7297POPC   PO438352   3.553  18.241   9.150
 7297POPC   GL138353   3.504  18.248   8.850
 7297POPC   GL238354   3.423  18.267   8.850
 7297POPC   C1A38355   3.554  18.266   8.550
 7297POPC   D2A38356   3.578  18.287   8.250
 7297POPC   C3A38357   3.517  18.317   7.950
 7297POPC   C4A38358   3.550  18.245   7.650
 7297POPC   C1B38359   3.289  18.217   8.550
 7297POPC   C2B38360   3.256  18.217   8.250
 7297POPC   C3B38361   3.325  18.209   7.950
 7297POPC   C4B38362   3.300  18.215   7.650
 7298POPC   NC338363   5.128  15.147   9.450
 7298POPC   PO438364   5.122  15.163   9.150
 7298POPC   GL138365   5.046  15.144   8.850
 7298POPC   GL238366   5.022  15.300   8.850
 7298POPC   C1A38367   5.067  15.224   8.550
 7298POPC   D2A38368   5.101  15.206   8.250
 7298POPC   C3A38369   5.062  15.213   7.950
 7298POPC   C4A38370   5.102  15.206   7.650
 7298POPC   C1B38371   4.914  15.420   8.550
 7298POPC   C2B38372   4.919  15.377   8.250
 7298POPC   C3B38373   4.953  15.416   7.950
 7298POPC   C4B38374   4.917  15.423   7.650
 7299POPC   NC338375  32.991  19.856   9.450
 7299POPC   PO438376  33.025  19.799   9.150
 7299POPC   GL138377  33.007  19.882   8.850
 7299POPC   GL238378  33.179  19.813   8.850
 7299POPC   C1A38379  33.069  19.860   8.550
 7299POPC   D2A38380  33.035  19.835   8.250
 7299POPC   C3A38381  32.992  19.796   7.950
 7299POPC   C4A38382  33.042  19.785   7.650
 7299POPC   C1B38383  33.214  19.755   8.550
 7299POPC   C2B38384  33.301  19.748   8.250
 7299POPC   C3B38385  33.228  19.763   7.950
 7299POPC   C4B38386  33.305  19.790   7.650
 7300POPC   NC338387   8.206  26.039   9.450
 7300POPC   PO438388   8.167  25.995   9.150
 7300POPC   GL138389   8.198  26.005   8.850
 7300POPC   GL238390   8.095  26.009   8.850
 7300POPC   C1A38391   8.213  26.012   8.550
 7300POPC   D2A38392   8.192  26.057   8.250
 7300POPC   C3A38393   8.217  26.061   7.950
 7300POPC   C4A38394   8.189  26.015   7.650
 7300POPC   C1B38395   7.977  25.975   8.550
 7300POPC   C2B38396   7.931  26.022   8.250
 7300POPC   C3B38397   7.969  25.981   7.950
 7300POPC   C4B38398   7.990  26.049   7.650
 7301POPC   NC338399   5.128   2.720   9.450
 7301POPC   PO438400   5.120   2.756   9.150
 7301POPC   GL138401   5.060   2.802   8.850
 7301POPC   GL238402   5.144   2.932   8.850
 7301POPC   C1A38403   5.090   2.774   8.550
 7301POPC   D2A38404   5.125   2.791   8.250
 7301POPC   C3A38405   5.125   2.768   7.950
 7301POPC   C4A38406   5.092   2.730   7.650
 7301POPC   C1B38407   5.114   3.042   8.550
 7301POPC   C2B38408   5.159   3.057   8.250
 7301POPC   C3B38409   5.155   2.992   7.950
 7301POPC   C4B38410   5.072   2.998   7.650
 7302POPC   NC338411  30.675  31.435   9.450
 7302POPC   PO438412  30.709  31.468   9.150
 7302POPC   GL138413  30.713  31.423   8.850
 7302POPC   GL238414  30.733  31.404   8.850
 7302POPC   C1A38415  30.741  31.448   8.550
 7302POPC   D2A38416  30.692  31.500   8.250
 7302POPC   C3A38417  30.695  31.450   7.950
 7302POPC   C4A38418  30.661  31.432   7.650
 7302POPC   C1B38419  30.783  31.265   8.550
 7302POPC   C2B38420  30.833  31.258   8.250
 7302POPC   C3B38421  30.839  31.243   7.950
 7302POPC   C4B38422  30.812  31.252   7.650
 7303POPC   NC338423  10.496  28.320   9.450
 7303POPC   PO438424  10.570  28.352   9.150
 7303POPC   GL138425  10.536  28.325   8.850
 7303POPC   GL238426  10.629  28.325   8.850
 7303POPC   C1A38427  10.510  28.368   8.550
 7303POPC   D2A38428  10.545  28.384   8.250
 7303POPC   C3A38429  10.546  28.339   7.950
 7303POPC   C4A38430  10.551  28.395   7.650
 7303POPC   C1B38431  10.774  28.369   8.550
 7303POPC   C2B38432  10.757  28.387   8.250
 7303POPC   C3B38433  10.768  28.348   7.950
 7303POPC   C4B38434  10.728  28.310   7.650
 7304POPC   NC338435  36.104  22.176   9.450
 7304POPC   PO438436  36.135  22.137   9.150
 7304POPC   GL138437  36.101  22.191   8.850
 7304POPC   GL238438  36.287  22.145   8.850
 7304POPC   C1A38439  36.085  22.148   8.550
 7304POPC   D2A38440  36.099  22.162   8.250
 7304POPC   C3A38441  36.098  22.128   7.950
 7304POPC   C4A38442  36.102  22.126   7.650
 7304POPC   C1B38443  36.356  22.135   8.550
 7304POPC   C2B38444  36.385  22.110   8.250
 7304POPC   C3B38445  36.347  22.113   7.950
 7304POPC   C4B38446  36.369  22.123   7.650
 7305POPC   NC338447  33.768  39.215   9.450
 7305POPC   PO438448  33.794  39.216   9.150
 7305POPC   GL138449  33.841  39.269   8.850
 7305POPC   GL238450  33.631  39.245   8.850
 7305POPC   C1A38451  33.787  39.190   8.550
 7305POPC   D2A38452  33.821  39.188   8.250
 7305POPC   C3A38453  33.827  39.204   7.950
 7305POPC   C4A38454  33.847  39.250   7.650
 7305POPC   C1B38455  33.527  39.285   8.550
 7305POPC   C2B38456  33.585  39.276   8.250
 7305POPC   C3B38457  33.545  39.306   7.950
 7305POPC   C4B38458  33.559  39.252   7.650
 7306POPC   NC338459   9.771  10.513   9.450
 7306POPC   PO438460   9.792  10.535   9.150
 7306POPC   GL138461   9.755  10.508   8.850
 7306POPC   GL238462   9.663  10.518   8.850
 7306POPC   C1A38463   9.741  10.560   8.550
 7306POPC   D2A38464   9.779  10.510   8.250
 7306POPC   C3A38465   9.739  10.561   7.950
 7306POPC   C4A38466   9.731  10.549   7.650
 7306POPC   C1B38467   9.558  10.474   8.550
 7306POPC   C2B38468   9.544  10.416   8.250
 7306POPC   C3B38469   9.536  10.411   7.950
 7306POPC   C4B38470   9.481  10.488   7.650
 7307POPC   NC338471   6.665  40.040   9.450
 7307POPC   PO438472   6.640  40.029   9.150
 7307POPC   GL138473   6.646  39.975   8.850
 7307POPC   GL238474   6.677  39.867   8.850
 7307POPC   C1A38475   6.649  39.969   8.550
 7307POPC   D2A38476   6.670  40.028   8.250
 7307POPC   C3A38477   6.679  40.027   7.950
 7307POPC   C4A38478   6.684  40.046   7.650
 7307POPC   C1B38479   6.648  39.794   8.550
 7307POPC   C2B38480   6.611  39.776   8.250
 7307POPC   C3B38481   6.598  39.717   7.950
 7307POPC   C4B38482   6.579  39.743   7.650
 7308POPC   NC338483  17.528  38.416   9.450
 7308POPC   PO438484  17.497  38.421   9.150
 7308POPC   GL138485  17.540  38.440   8.850
 7308POPC   GL238486  17.417  38.444   8.850
 7308POPC   C1A38487  17.506  38.415   8.550
 7308POPC   D2A38488  17.473  38.475   8.250
 7308POPC   C3A38489  17.556  38.442   7.950
 7308POPC   C4A38490  17.516  38.496   7.650
 7308POPC   C1B38491  17.260  38.415   8.550
 7308POPC   C2B38492  17.300  38.438   8.250
 7308POPC   C3B38493  17.251  38.386   7.950
 7308POPC   C4B38494  17.224  38.391   7.650
 7309POPC   NC338495  35.341   1.169   9.450
 7309POPC   PO438496  35.323   1.216   9.150
 7309POPC   GL138497  35.330   1.236   8.850
 7309POPC   GL238498  35.328   1.352   8.850
 7309POPC   C1A38499  35.315   1.181   8.550
 7309POPC   D2A38500  35.312   1.219   8.250
 7309POPC   C3A38501  35.311   1.204   7.950
 7309POPC   C4A38502  35.386   1.177   7.650
 7309POPC   C1B38503  35.251   1.422   8.550
 7309POPC   C2B38504  35.275   1.452   8.250
 7309POPC   C3B38505  35.285   1.436   7.950
 7309POPC   C4B38506  35.292   1.406   7.650
 7310POPC   NC338507  15.966  24.448   9.450
 7310POPC   PO438508  15.950  24.458   9.150
 7310POPC   GL138509  15.964  24.469   8.850
 7310POPC   GL238510  16.116  24.526   8.850
 7310POPC   C1A38511  16.002  24.530   8.550
 7310POPC   D2A38512  16.004  24.520   8.250
 7310POPC   C3A38513  15.912  24.454   7.950
 7310POPC   C4A38514  15.949  24.507   7.650
 7310POPC   C1B38515  16.167  24.565   8.550
 7310POPC   C2B38516  16.155  24.529   8.250
 7310POPC   C3B38517  16.199  24.564   7.950
 7310POPC   C4B38518  16.147  24.618   7.650
 7311POPC   NC338519  29.166  26.041   9.450
 7311POPC   PO438520  29.106  25.998   9.150
 7311POPC   GL138521  29.100  26.040   8.850
 7311POPC   GL238522  29.200  26.163   8.850
 7311POPC   C1A38523  29.125  26.007   8.550
 7311POPC   D2A38524  29.190  26.066   8.250
 7311POPC   C3A38525  29.121  26.029   7.950
 7311POPC   C4A38526  29.139  26.064   7.650
 7311POPC   C1B38527  29.221  26.275   8.550
 7311POPC   C2B38528  29.253  26.249   8.250
 7311POPC   C3B38529  29.276  26.232   7.950
 7311POPC   C4B38530  29.220  26.226   7.650
 7312POPC   NC338531  39.222   8.934   9.450
 7312POPC   PO438532  39.239   8.931   9.150
 7312POPC   GL138533  39.199   8.930   8.850
 7312POPC   GL238534  39.073   8.964   8.850
 7312POPC   C1A38535  39.224   8.974   8.550
 7312POPC   D2A38536  39.210   8.966   8.250
 7312POPC   C3A38537  39.183   8.978   7.950
 7312POPC   C4A38538  39.227   8.969   7.650
 7312POPC   C1B38539  38.948   9.004   8.550
 7312POPC   C2B38540  38.966   8.993   8.250
 7312POPC   C3B38541  39.030   8.959   7.950
 7312POPC   C4B38542  39.020   8.985   7.650
 7313POPC   NC338543   8.182  39.208   9.450
 7313POPC   PO438544   8.181  39.264   9.150
 7313POPC   GL138545   8.238  39.231   8.850
 7313POPC   GL238546   8.120  39.294   8.850
 7313POPC   C1A38547   8.212  39.279   8.550
 7313POPC   D2A38548   8.168  39.281   8.250
 7313POPC   C3A38549   8.159  39.206   7.950
 7313POPC   C4A38550   8.160  39.189   7.650
 7313POPC   C1B38551   8.060  39.427   8.550
 7313POPC   C2B38552   8.043  39.387   8.250
 7313POPC   C3B38553   8.037  39.447   7.950
 7313POPC   C4B38554   8.019  39.415   7.650
 7314POPC   NC338555   4.289  14.388   9.450
 7314POPC   PO438556   4.271  14.384   9.150
 7314POPC   GL138557   4.289  14.370   8.850
 7314POPC   GL238558   4.318  14.494   8.850
 7314POPC   C1A38559   4.288  14.362   8.550
 7314POPC   D2A38560   4.328  14.387   8.250
 7314POPC   C3A38561   4.317  14.415   7.950
 7314POPC   C4A38562   4.290  14.367   7.650
 7314POPC   C1B38563   4.302  14.643   8.550
 7314POPC   C2B38564   4.339  14.698   8.250
 7314POPC   C3B38565   4.302  14.669   7.950
 7314POPC   C4B38566   4.297  14.605   7.650
 7315POPC   NC338567  31.506  44.647   9.450
 7315POPC   PO438568  31.448  44.711   9.150
 7315POPC   GL138569  31.425  44.652   8.850
 7315POPC   GL238570  31.371  44.772   8.850
 7315POPC   C1A38571  31.500  44.668   8.550
 7315POPC   D2A38572  31.506  44.647   8.250
 7315POPC   C3A38573  31.493  44.690   7.950
 7315POPC   C4A38574  31.503  44.648   7.650
 7315POPC   C1B38575  31.211  44.810   8.550
 7315POPC   C2B38576  31.275  44.783   8.250
 7315POPC   C3B38577  31.275  44.807   7.950
 7315POPC   C4B38578  31.246  44.787   7.650
 7316POPC   NC338579   8.157  40.047   9.450
 7316POPC   PO438580   8.164  40.040   9.150
 7316POPC   GL138581   8.164  39.960   8.850
 7316POPC   GL238582   8.337  39.938   8.850
 7316POPC   C1A38583   8.244  40.004   8.550
 7316POPC   D2A38584   8.224  40.022   8.250
 7316POPC   C3A38585   8.183  40.033   7.950
 7316POPC   C4A38586   8.202  39.979   7.650
 7316POPC   C1B38587   8.427  39.932   8.550
 7316POPC   C2B38588   8.407  39.887   8.250
 7316POPC   C3B38589   8.457  39.850   7.950
 7316POPC   C4B38590   8.399  39.905   7.650
 7317POPC   NC338591  41.517  39.965   9.450
 7317POPC   PO438592  41.546  40.026   9.150
 7317POPC   GL138593  41.565  40.046   8.850
 7317POPC   GL238594  41.532  40.101   8.850
 7317POPC   C1A38595  41.555  40.026   8.550
 7317POPC   D2A38596  41.589  40.035   8.250
 7317POPC   C3A38597  41.584  40.034   7.950
 7317POPC   C4A38598  41.540  39.961   7.650
 7317POPC   C1B38599  41.507  40.232   8.550
 7317POPC   C2B38600  41.567  40.266   8.250
 7317POPC   C3B38601  41.590  40.292   7.950
 7317POPC   C4B38602  41.500  40.287   7.650
 7318POPC   NC338603  30.663  20.603   9.450
 7318POPC   PO438604  30.659  20.631   9.150
 7318POPC   GL138605  30.704  20.597   8.850
 7318POPC   GL238606  30.582  20.584   8.850
 7318POPC   C1A38607  30.722  20.642   8.550
 7318POPC   D2A38608  30.709  20.605   8.250
 7318POPC   C3A38609  30.658  20.647   7.950
 7318POPC   C4A38610  30.660  20.644   7.650
 7318POPC   C1B38611  30.436  20.627   8.550
 7318POPC   C2B38612  30.438  20.635   8.250
 7318POPC   C3B38613  30.420  20.604   7.950
 7318POPC   C4B38614  30.409  20.622   7.650
 7319POPC   NC338615  12.898  12.867   9.450
 7319POPC   PO438616  12.838  12.877   9.150
 7319POPC   GL138617  12.825  12.805   8.850
 7319POPC   GL238618  12.798  12.930   8.850
 7319POPC   C1A38619  12.823  12.840   8.550
 7319POPC   D2A38620  12.892  12.897   8.250
 7319POPC   C3A38621  12.867  12.891   7.950
 7319POPC   C4A38622  12.900  12.877   7.650
 7319POPC   C1B38623  12.826  13.134   8.550
 7319POPC   C2B38624  12.855  13.051   8.250
 7319POPC   C3B38625  12.808  13.116   7.950
 7319POPC   C4B38626  12.858  13.083   7.650
 7320POPC   NC338627  38.466  19.881   9.450
 7320POPC   PO438628  38.492  19.814   9.150
 7320POPC   GL138629  38.500  19.839   8.850
 7320POPC   GL238630  38.324  19.851   8.850
 7320POPC   C1A38631  38.491  19.870   8.550
 7320POPC   D2A38632  38.483  19.855   8.250
 7320POPC   C3A38633  38.454  19.847   7.950
 7320POPC   C4A38634  38.419  19.832   7.650
 7320POPC   C1B38635  38.267  19.957   8.550
 7320POPC   C2B38636  38.194  19.957   8.250
 7320POPC   C3B38637  38.266  19.973   7.950
 7320POPC   C4B38638  38.258  19.924   7.650
 7321POPC   NC338639  40.733  33.796   9.450
 7321POPC   PO438640  40.806  33.816   9.150
 7321POPC   GL138641  40.797  33.848   8.850
 7321POPC   GL238642  40.784  33.699   8.850
 7321POPC   C1A38643  40.771  33.801   8.550
 7321POPC   D2A38644  40.738  33.785   8.250
 7321POPC   C3A38645  40.811  33.821   7.950
 7321POPC   C4A38646  40.820  33.774   7.650
 7321POPC   C1B38647  40.786  33.559   8.550
 7321POPC   C2B38648  40.803  33.594   8.250
 7321POPC   C3B38649  40.870  33.569   7.950
 7321POPC   C4B38650  40.855  33.559   7.650
 7322POPC   NC338651  22.896  16.770   9.450
 7322POPC   PO438652  22.900  16.696   9.150
 7322POPC   GL138653  22.981  16.776   8.850
 7322POPC   GL238654  23.104  16.671   8.850
 7322POPC   C1A38655  22.954  16.757   8.550
 7322POPC   D2A38656  22.930  16.696   8.250
 7322POPC   C3A38657  22.981  16.753   7.950
 7322POPC   C4A38658  22.941  16.716   7.650
 7322POPC   C1B38659  23.139  16.622   8.550
 7322POPC   C2B38660  23.158  16.677   8.250
 7322POPC   C3B38661  23.191  16.648   7.950
 7322POPC   C4B38662  23.163  16.627   7.650
 7323POPC   NC338663   2.726   6.690   9.450
 7323POPC   PO438664   2.771   6.692   9.150
 7323POPC   GL138665   2.814   6.687   8.850
 7323POPC   GL238666   2.683   6.558   8.850
 7323POPC   C1A38667   2.772   6.671   8.550
 7323POPC   D2A38668   2.795   6.636   8.250
 7323POPC   C3A38669   2.806   6.627   7.950
 7323POPC   C4A38670   2.807   6.687   7.650
 7323POPC   C1B38671   2.639   6.460   8.550
 7323POPC   C2B38672   2.646   6.408   8.250
 7323POPC   C3B38673   2.672   6.467   7.950
 7323POPC   C4B38674   2.627   6.412   7.650
 7324POPC   NC338675   2.753  43.901   9.450
 7324POPC   PO438676   2.748  43.856   9.150
 7324POPC   GL138677   2.727  43.838   8.850
 7324POPC   GL238678   2.845  43.955   8.850
 7324POPC   C1A38679   2.799  43.883   8.550
 7324POPC   D2A38680   2.719  43.863   8.250
 7324POPC   C3A38681   2.782  43.900   7.950
 7324POPC   C4A38682   2.765  43.884   7.650
 7324POPC   C1B38683   2.927  44.077   8.550
 7324POPC   C2B38684   2.951  44.070   8.250
 7324POPC   C3B38685   2.978  44.017   7.950
 7324POPC   C4B38686   2.935  44.088   7.650
 7325POPC   NC338687   2.026  24.473   9.450
 7325POPC   PO438688   1.946  24.445   9.150
 7325POPC   GL138689   2.032  24.534   8.850
 7325POPC   GL238690   1.922  24.600   8.850
 7325POPC   C1A38691   1.984  24.468   8.550
 7325POPC   D2A38692   2.031  24.453   8.250
 7325POPC   C3A38693   1.947  24.527   7.950
 7325POPC   C4A38694   1.954  24.523   7.650
 7325POPC   C1B38695   1.785  24.666   8.550
 7325POPC   C2B38696   1.807  24.572   8.250
 7325POPC   C3B38697   1.808  24.657   7.950
 7325POPC   C4B38698   1.753  24.644   7.650
 7326POPC   NC338699  16.695  35.366   9.450
 7326POPC   PO438700  16.766  35.359   9.150
 7326POPC   GL138701  16.770  35.396   8.850
 7326POPC   GL238702  16.808  35.282   8.850
 7326POPC   C1A38703  16.772  35.354   8.550
 7326POPC   D2A38704  16.744  35.345   8.250
 7326POPC   C3A38705  16.738  35.364   7.950
 7326POPC   C4A38706  16.751  35.316   7.650
 7326POPC   C1B38707  16.936  35.166   8.550
 7326POPC   C2B38708  16.922  35.154   8.250
 7326POPC   C3B38709  16.894  35.153   7.950
 7326POPC   C4B38710  16.872  35.153   7.650
 7327POPC   NC338711  22.967   0.470   9.450
 7327POPC   PO438712  22.984   0.461   9.150
 7327POPC   GL138713  22.909   0.483   8.850
 7327POPC   GL238714  22.985   0.349   8.850
 7327POPC   C1A38715  22.899   0.391   8.550
 7327POPC   D2A38716  22.915   0.422   8.250
 7327POPC   C3A38717  22.955   0.415   7.950
 7327POPC   C4A38718  22.948   0.437   7.650
 7327POPC   C1B38719  22.948   0.189   8.550
 7327POPC   C2B38720  22.977   0.151   8.250
 7327POPC   C3B38721  22.991   0.145   7.950
 7327POPC   C4B38722  23.013   0.144   7.650
 7328POPC   NC338723   5.915  30.686   9.450
 7328POPC   PO438724   5.846  30.706   9.150
 7328POPC   GL138725   5.859  30.647   8.850
 7328POPC   GL238726   5.947  30.737   8.850
 7328POPC   C1A38727   5.854  30.693   8.550
 7328POPC   D2A38728   5.865  30.727   8.250
 7328POPC   C3A38729   5.886  30.678   7.950
 7328POPC   C4A38730   5.834  30.746   7.650
 7328POPC   C1B38731   6.108  30.786   8.550
 7328POPC   C2B38732   6.125  30.698   8.250
 7328POPC   C3B38733   6.130  30.776   7.950
 7328POPC   C4B38734   6.078  30.764   7.650
 7329POPC   NC338735  26.866  37.636   9.450
 7329POPC   PO438736  26.796  37.633   9.150
 7329POPC   GL138737  26.772  37.683   8.850
 7329POPC   GL238738  26.693  37.622   8.850
 7329POPC   C1A38739  26.808  37.680   8.550
 7329POPC   D2A38740  26.851  37.678   8.250
 7329POPC   C3A38741  26.847  37.714   7.950
 7329POPC   C4A38742  26.862  37.645   7.650
 7329POPC   C1B38743  26.662  37.471   8.550
 7329POPC   C2B38744  26.648  37.448   8.250
 7329POPC   C3B38745  26.694  37.444   7.950
 7329POPC   C4B38746  26.671  37.495   7.650
 7330POPC   NC338747   8.226   6.693   9.450
 7330POPC   PO438748   8.161   6.611   9.150
 7330POPC   GL138749   8.184   6.638   8.850
 7330POPC   GL238750   8.278   6.555   8.850
 7330POPC   C1A38751   8.220   6.615   8.550
 7330POPC   D2A38752   8.244   6.662   8.250
 7330POPC   C3A38753   8.246   6.622   7.950
 7330POPC   C4A38754   8.175   6.689   7.650
 7330POPC   C1B38755   8.421   6.550   8.550
 7330POPC   C2B38756   8.448   6.523   8.250
 7330POPC   C3B38757   8.422   6.521   7.950
 7330POPC   C4B38758   8.433   6.580   7.650
 7331POPC   NC338759  11.263  18.248   9.450
 7331POPC   PO438760  11.340  18.251   9.150
 7331POPC   GL138761  11.344  18.293   8.850
 7331POPC   GL238762  11.197  18.211   8.850
 7331POPC   C1A38763  11.325  18.330   8.550
 7331POPC   D2A38764  11.310  18.320   8.250
 7331POPC   C3A38765  11.316  18.305   7.950
 7331POPC   C4A38766  11.324  18.281   7.650
 7331POPC   C1B38767  11.048  18.232   8.550
 7331POPC   C2B38768  11.019  18.168   8.250
 7331POPC   C3B38769  11.030  18.166   7.950
 7331POPC   C4B38770  11.064  18.192   7.650
 7332POPC   NC338771   2.008  40.743   9.450
 7332POPC   PO438772   1.943  40.803   9.150
 7332POPC   GL138773   2.005  40.827   8.850
 7332POPC   GL238774   1.911  40.791   8.850
 7332POPC   C1A38775   2.028  40.752   8.550
 7332POPC   D2A38776   2.013  40.807   8.250
 7332POPC   C3A38777   2.002  40.736   7.950
 7332POPC   C4A38778   1.983  40.782   7.650
 7332POPC   C1B38779   1.757  40.877   8.550
 7332POPC   C2B38780   1.725  40.885   8.250
 7332POPC   C3B38781   1.745  40.896   7.950
 7332POPC   C4B38782   1.741  40.941   7.650
 7333POPC   NC338783  12.836  43.856   9.450
 7333POPC   PO438784  12.837  43.872   9.150
 7333POPC   GL138785  12.844  43.882   8.850
 7333POPC   GL238786  12.719  43.879   8.850
 7333POPC   C1A38787  12.880  43.854   8.550
 7333POPC   D2A38788  12.822  43.898   8.250
 7333POPC   C3A38789  12.878  43.848   7.950
 7333POPC   C4A38790  12.839  43.858   7.650
 7333POPC   C1B38791  12.586  43.903   8.550
 7333POPC   C2B38792  12.644  43.960   8.250
 7333POPC   C3B38793  12.649  43.968   7.950
 7333POPC   C4B38794  12.562  43.919   7.650
 7334POPC   NC338795  11.250   9.728   9.450
 7334POPC   PO438796  11.288   9.745   9.150
 7334POPC   GL138797  11.337   9.769   8.850
 7334POPC   GL238798  11.335   9.919   8.850
 7334POPC   C1A38799  11.269   9.787   8.550
 7334POPC   D2A38800  11.337   9.787   8.250
 7334POPC   C3A38801  11.259   9.712   7.950
 7334POPC   C4A38802  11.265   9.731   7.650
 7334POPC   C1B38803  11.403   9.980   8.550
 7334POPC   C2B38804  11.327   9.951   8.250
 7334POPC   C3B38805  11.389   9.983   7.950
 7334POPC   C4B38806  11.396  10.019   7.650
 7335POPC   NC338807  39.233  25.274   9.450
 7335POPC   PO438808  39.216  25.299   9.150
 7335POPC   GL138809  39.275  25.277   8.850
 7335POPC   GL238810  39.243  25.167   8.850
 7335POPC   C1A38811  39.280  25.258   8.550
 7335POPC   D2A38812  39.243  25.280   8.250
 7335POPC   C3A38813  39.273  25.282   7.950
 7335POPC   C4A38814  39.235  25.268   7.650
 7335POPC   C1B38815  39.272  24.998   8.550
 7335POPC   C2B38816  39.241  24.999   8.250
 7335POPC   C3B38817  39.269  25.064   7.950
 7335POPC   C4B38818  39.317  24.991   7.650
 7336POPC   NC338819   0.416  39.221   9.450
 7336POPC   PO438820   0.431  39.248   9.150
 7336POPC   GL138821   0.486  39.269   8.850
 7336POPC   GL238822   0.595  39.305   8.850
 7336POPC   C1A38823   0.477  39.209   8.550
 7336POPC   D2A38824   0.405  39.201   8.250
 7336POPC   C3A38825   0.389  39.237   7.950
 7336POPC   C4A38826   0.457  39.234   7.650
 7336POPC   C1B38827   0.665  39.290   8.550
 7336POPC   C2B38828   0.636  39.265   8.250
 7336POPC   C3B38829   0.719  39.332   7.950
 7336POPC   C4B38830   0.676  39.330   7.650
 7337POPC   NC338831  25.256  23.718   9.450
 7337POPC   PO438832  25.241  23.689   9.150
 7337POPC   GL138833  25.269  23.741   8.850
 7337POPC   GL238834  25.242  23.582   8.850
 7337POPC   C1A38835  25.262  23.708   8.550
 7337POPC   D2A38836  25.289  23.745   8.250
 7337POPC   C3A38837  25.251  23.701   7.950
 7337POPC   C4A38838  25.297  23.718   7.650
 7337POPC   C1B38839  25.235  23.450   8.550
 7337POPC   C2B38840  25.222  23.428   8.250
 7337POPC   C3B38841  25.221  23.457   7.950
 7337POPC   C4B38842  25.183  23.449   7.650
 7338POPC   NC338843   1.213  41.583   9.450
 7338POPC   PO438844   1.240  41.582   9.150
 7338POPC   GL138845   1.236  41.600   8.850
 7338POPC   GL238846   1.303  41.474   8.850
 7338POPC   C1A38847   1.187  41.591   8.550
 7338POPC   D2A38848   1.249  41.577   8.250
 7338POPC   C3A38849   1.202  41.515   7.950
 7338POPC   C4A38850   1.182  41.528   7.650
 7338POPC   C1B38851   1.415  41.467   8.550
 7338POPC   C2B38852   1.485  41.431   8.250
 7338POPC   C3B38853   1.420  41.425   7.950
 7338POPC   C4B38854   1.451  41.488   7.650
 7339POPC   NC338855  26.837  17.492   9.450
 7339POPC   PO438856  26.847  17.551   9.150
 7339POPC   GL138857  26.780  17.531   8.850
 7339POPC   GL238858  26.732  17.613   8.850
 7339POPC   C1A38859  26.842  17.515   8.550
 7339POPC   D2A38860  26.854  17.495   8.250
 7339POPC   C3A38861  26.854  17.526   7.950
 7339POPC   C4A38862  26.820  17.539   7.650
 7339POPC   C1B38863  26.564  17.650   8.550
 7339POPC   C2B38864  26.576  17.616   8.250
 7339POPC   C3B38865  26.606  17.659   7.950
 7339POPC   C4B38866  26.608  17.633   7.650
 7340POPC   NC338867  30.675  33.811   9.450
 7340POPC   PO438868  30.678  33.798   9.150
 7340POPC   GL138869  30.711  33.758   8.850
 7340POPC   GL238870  30.657  33.889   8.850
 7340POPC   C1A38871  30.675  33.845   8.550
 7340POPC   D2A38872  30.722  33.766   8.250
 7340POPC   C3A38873  30.650  33.771   7.950
 7340POPC   C4A38874  30.722  33.768   7.650
 7340POPC   C1B38875  30.710  34.081   8.550
 7340POPC   C2B38876  30.727  34.006   8.250
 7340POPC   C3B38877  30.731  34.022   7.950
 7340POPC   C4B38878  30.663  34.062   7.650
 7341POPC   NC338879  43.079  27.550   9.450
 7341POPC   PO438880  43.129  27.552   9.150
 7341POPC   GL138881  43.112  27.616   8.850
 7341POPC   GL238882  43.248  27.500   8.850
 7341POPC   C1A38883  43.149  27.560   8.550
 7341POPC   D2A38884  43.145  27.592   8.250
 7341POPC   C3A38885  43.130  27.574   7.950
 7341POPC   C4A38886  43.126  27.549   7.650
 7341POPC   C1B38887  43.306  27.493   8.550
 7341POPC   C2B38888  43.346  27.484   8.250
 7341POPC   C3B38889  43.345  27.528   7.950
 7341POPC   C4B38890  43.378  27.497   7.650
 7342POPC   NC338891   1.953   2.007   9.450
 7342POPC   PO438892   2.003   2.023   9.150
 7342POPC   GL138893   1.966   1.998   8.850
 7342POPC   GL238894   2.025   2.130   8.850
 7342POPC   C1A38895   1.968   2.020   8.550
 7342POPC   D2A38896   1.984   1.988   8.250
 7342POPC   C3A38897   1.964   2.024   7.950
 7342POPC   C4A38898   1.976   2.005   7.650
 7342POPC   C1B38899   2.177   2.213   8.550
 7342POPC   C2B38900   2.188   2.157   8.250
 7342POPC   C3B38901   2.145   2.168   7.950
 7342POPC   C4B38902   2.187   2.197   7.650
 7343POPC   NC338903  26.070  19.865   9.450
 7343POPC   PO438904  26.004  19.821   9.150
 7343POPC   GL138905  26.080  19.876   8.850
 7343POPC   GL238906  25.917  19.772   8.850
 7343POPC   C1A38907  26.043  19.875   8.550
 7343POPC   D2A38908  26.048  19.803   8.250
 7343POPC   C3A38909  26.052  19.829   7.950
 7343POPC   C4A38910  26.041  19.830   7.650
 7343POPC   C1B38911  25.745  19.780   8.550
 7343POPC   C2B38912  25.809  19.805   8.250
 7343POPC   C3B38913  25.817  19.852   7.950
 7343POPC   C4B38914  25.823  19.797   7.650
 7344POPC   NC338915  33.793  44.701   9.450
 7344POPC   PO438916  33.802  44.697   9.150
 7344POPC   GL138917  33.802  44.676   8.850
 7344POPC   GL238918  33.946  44.720   8.850
 7344POPC   C1A38919  33.754  44.682   8.550
 7344POPC   D2A38920  33.752  44.710   8.250
 7344POPC   C3A38921  33.766  44.675   7.950
 7344POPC   C4A38922  33.846  44.705   7.650
 7344POPC   C1B38923  34.025  44.820   8.550
 7344POPC   C2B38924  33.974  44.768   8.250
 7344POPC   C3B38925  33.996  44.799   7.950
 7344POPC   C4B38926  33.989  44.822   7.650
 7345POPC   NC338927  19.847  18.277   9.450
 7345POPC   PO438928  19.868  18.281   9.150
 7345POPC   GL138929  19.865  18.284   8.850
 7345POPC   GL238930  19.909  18.210   8.850
 7345POPC   C1A38931  19.861  18.254   8.550
 7345POPC   D2A38932  19.788  18.331   8.250
 7345POPC   C3A38933  19.802  18.271   7.950
 7345POPC   C4A38934  19.881  18.304   7.650
 7345POPC   C1B38935  19.950  18.040   8.550
 7345POPC   C2B38936  19.964  18.091   8.250
 7345POPC   C3B38937  19.934  18.115   7.950
 7345POPC   C4B38938  20.001  18.103   7.650
 7346POPC   NC338939   8.970  42.317   9.450
 7346POPC   PO438940   8.991  42.372   9.150
 7346POPC   GL138941   8.959  42.294   8.850
 7346POPC   GL238942   8.990  42.505   8.850
 7346POPC   C1A38943   8.931  42.347   8.550
 7346POPC   D2A38944   8.948  42.348   8.250
 7346POPC   C3A38945   8.942  42.285   7.950
 7346POPC   C4A38946   8.934  42.288   7.650
 7346POPC   C1B38947   8.990  42.594   8.550
 7346POPC   C2B38948   8.964  42.603   8.250
 7346POPC   C3B38949   8.991  42.576   7.950
 7346POPC   C4B38950   8.995  42.535   7.650
 7347POPC   NC338951  22.174   1.962   9.450
 7347POPC   PO438952  22.160   2.003   9.150
 7347POPC   GL138953  22.136   1.962   8.850
 7347POPC   GL238954  22.253   1.983   8.850
 7347POPC   C1A38955  22.124   1.995   8.550
 7347POPC   D2A38956  22.204   2.022   8.250
 7347POPC   C3A38957  22.184   2.002   7.950
 7347POPC   C4A38958  22.192   2.011   7.650
 7347POPC   C1B38959  22.398   2.070   8.550
 7347POPC   C2B38960  22.446   2.099   8.250
 7347POPC   C3B38961  22.410   2.096   7.950
 7347POPC   C4B38962  22.428   2.077   7.650
 7348POPC   NC338963  43.880   8.975   9.450
 7348POPC   PO438964  43.841   9.021   9.150
 7348POPC   GL138965  43.852   8.969   8.850
 7348POPC   GL238966  43.985   9.043   8.850
 7348POPC   C1A38967  43.919   8.940   8.550
 7348POPC   D2A38968  43.928   8.935   8.250
 7348POPC   C3A38969  43.897   9.012   7.950
 7348POPC   C4A38970  43.889   8.934   7.650
 7348POPC   C1B38971  43.989   9.212   8.550
 7348POPC   C2B38972  44.003   9.222   8.250
 7348POPC   C3B38973  44.024   9.190   7.950
 7348POPC   C4B38974  43.978   9.228   7.650
 7349POPC   NC338975   3.543  27.586   9.450
 7349POPC   PO438976   3.591  27.554   9.150
 7349POPC   GL138977   3.544  27.639   8.850
 7349POPC   GL238978   3.531  27.668   8.850
 7349POPC   C1A38979   3.557  27.620   8.550
 7349POPC   D2A38980   3.512  27.627   8.250
 7349POPC   C3A38981   3.575  27.625   7.950
 7349POPC   C4A38982   3.567  27.613   7.650
 7349POPC   C1B38983   3.601  27.887   8.550
 7349POPC   C2B38984   3.563  27.807   8.250
 7349POPC   C3B38985   3.532  27.836   7.950
 7349POPC   C4B38986   3.608  27.889   7.650
 7350POPC   NC338987  39.964  43.151   9.450
 7350POPC   PO438988  40.043  43.093   9.150
 7350POPC   GL138989  39.964  43.151   8.850
 7350POPC   GL238990  39.965  43.185   8.850
 7350POPC   C1A38991  40.023  43.062   8.550
 7350POPC   D2A38992  39.961  43.154   8.250
 7350POPC   C3A38993  40.002  43.147   7.950
 7350POPC   C4A38994  40.016  43.120   7.650
 7350POPC   C1B38995  39.828  43.267   8.550
 7350POPC   C2B38996  39.836  43.326   8.250
 7350POPC   C3B38997  39.861  43.323   7.950
 7350POPC   C4B38998  39.860  43.337   7.650
 7351POPC   NC338999  19.039  36.938   9.450
 7351POPC   PO439000  19.044  36.857   9.150
 7351POPC   GL139001  19.073  36.890   8.850
 7351POPC   GL239002  19.091  36.784   8.850
 7351POPC   C1A39003  19.051  36.925   8.550
 7351POPC   D2A39004  19.039  36.951   8.250
 7351POPC   C3A39005  19.050  36.860   7.950
 7351POPC   C4A39006  19.056  36.913   7.650
 7351POPC   C1B39007  19.025  36.659   8.550
 7351POPC   C2B39008  19.013  36.696   8.250
 7351POPC   C3B39009  18.987  36.673   7.950
 7351POPC   C4B39010  19.017  36.680   7.650
 7352POPC   NC339011  12.034  31.489   9.450
 7352POPC   PO439012  12.104  31.434   9.150
 7352POPC   GL139013  12.120  31.460   8.850
 7352POPC   GL239014  12.039  31.336   8.850
 7352POPC   C1A39015  12.097  31.467   8.550
 7352POPC   D2A39016  12.065  31.489   8.250
 7352POPC   C3A39017  12.034  31.461   7.950
 7352POPC   C4A39018  12.042  31.521   7.650
 7352POPC   C1B39019  12.009  31.281   8.550
 7352POPC   C2B39020  12.008  31.227   8.250
 7352POPC   C3B39021  12.006  31.287   7.950
 7352POPC   C4B39022  11.964  31.192   7.650
 7353POPC   NC339023  43.936  41.582   9.450
 7353POPC   PO439024  43.910  41.527   9.150
 7353POPC   GL139025  43.867  41.545   8.850
 7353POPC   GL239026  43.884  41.677   8.850
 7353POPC   C1A39027  43.868  41.549   8.550
 7353POPC   D2A39028  43.900  41.579   8.250
 7353POPC   C3A39029  43.931  41.516   7.950
 7353POPC   C4A39030  43.915  41.522   7.650
 7353POPC   C1B39031  43.827  41.846   8.550
 7353POPC   C2B39032  43.909  41.801   8.250
 7353POPC   C3B39033  43.823  41.855   7.950
 7353POPC   C4B39034  43.862  41.770   7.650
 7354POPC   NC339035  22.201  14.362   9.450
 7354POPC   PO439036  22.138  14.374   9.150
 7354POPC   GL139037  22.129  14.361   8.850
 7354POPC   GL239038  22.247  14.337   8.850
 7354POPC   C1A39039  22.122  14.414   8.550
 7354POPC   D2A39040  22.154  14.410   8.250
 7354POPC   C3A39041  22.211  14.431   7.950
 7354POPC   C4A39042  22.128  14.450   7.650
 7354POPC   C1B39043  22.303  14.165   8.550
 7354POPC   C2B39044  22.276  14.161   8.250
 7354POPC   C3B39045  22.254  14.140   7.950
 7354POPC   C4B39046  22.325  14.146   7.650
 7355POPC   NC339047  33.004  39.201   9.450
 7355POPC   PO439048  33.025  39.261   9.150
 7355POPC   GL139049  33.017  39.258   8.850
 7355POPC   GL239050  33.132  39.337   8.850
 7355POPC   C1A39051  32.994  39.214   8.550
 7355POPC   D2A39052  33.000  39.196   8.250
 7355POPC   C3A39053  33.040  39.280   7.950
 7355POPC   C4A39054  33.057  39.273   7.650
 7355POPC   C1B39055  33.207  39.390   8.550
 7355POPC   C2B39056  33.281  39.310   8.250
 7355POPC   C3B39057  33.195  39.305   7.950
 7355POPC   C4B39058  33.254  39.322   7.650
 7356POPC   NC339059  11.317  39.189   9.450
 7356POPC   PO439060  11.257  39.192   9.150
 7356POPC   GL139061  11.314  39.242   8.850
 7356POPC   GL239062  11.419  39.305   8.850
 7356POPC   C1A39063  11.317  39.252   8.550
 7356POPC   D2A39064  11.321  39.194   8.250
 7356POPC   C3A39065  11.282  39.210   7.950
 7356POPC   C4A39066  11.272  39.248   7.650
 7356POPC   C1B39067  11.518  39.369   8.550
 7356POPC   C2B39068  11.500  39.403   8.250
 7356POPC   C3B39069  11.464  39.415   7.950
 7356POPC   C4B39070  11.510  39.438   7.650
 7357POPC   NC339071   4.361  44.695   9.450
 7357POPC   PO439072   4.342  44.623   9.150
 7357POPC   GL139073   4.334  44.642   8.850
 7357POPC   GL239074   4.460  44.598   8.850
 7357POPC   C1A39075   4.279  44.707   8.550
 7357POPC   D2A39076   4.356  44.624   8.250
 7357POPC   C3A39077   4.362  44.628   7.950
 7357POPC   C4A39078   4.314  44.678   7.650
 7357POPC   C1B39079   4.495  44.564   8.550
 7357POPC   C2B39080   4.554  44.479   8.250
 7357POPC   C3B39081   4.492  44.477   7.950
 7357POPC   C4B39082   4.498  44.482   7.650
 7358POPC   NC339083  43.892   2.774   9.450
 7358POPC   PO439084  43.886   2.725   9.150
 7358POPC   GL139085  43.846   2.732   8.850
 7358POPC   GL239086  43.887   2.663   8.850
 7358POPC   C1A39087  43.846   2.753   8.550
 7358POPC   D2A39088  43.858   2.807   8.250
 7358POPC   C3A39089  43.896   2.760   7.950
 7358POPC   C4A39090  43.935   2.744   7.650
 7358POPC   C1B39091  43.938   2.573   8.550
 7358POPC   C2B39092  44.005   2.556   8.250
 7358POPC   C3B39093  43.993   2.482   7.950
 7358POPC   C4B39094  43.967   2.569   7.650
 7359POPC   NC339095  41.599  19.872   9.450
 7359POPC   PO439096  41.602  19.818   9.150
 7359POPC   GL139097  41.540  19.884   8.850
 7359POPC   GL239098  41.423  19.890   8.850
 7359POPC   C1A39099  41.585  19.788   8.550
 7359POPC   D2A39100  41.520  19.862   8.250
 7359POPC   C3A39101  41.523  19.877   7.950
 7359POPC   C4A39102  41.517  19.840   7.650
 7359POPC   C1B39103  41.345  19.925   8.550
 7359POPC   C2B39104  41.347  19.930   8.250
 7359POPC   C3B39105  41.310  19.938   7.950
 7359POPC   C4B39106  41.387  19.978   7.650
 7360POPC   NC339107   1.993   5.104   9.450
 7360POPC   PO439108   1.974   5.122   9.150
 7360POPC   GL139109   2.016   5.096   8.850
 7360POPC   GL239110   2.079   5.099   8.850
 7360POPC   C1A39111   1.974   5.089   8.550
 7360POPC   D2A39112   2.011   5.118   8.250
 7360POPC   C3A39113   1.998   5.131   7.950
 7360POPC   C4A39114   2.019   5.136   7.650
 7360POPC   C1B39115   2.250   5.143   8.550
 7360POPC   C2B39116   2.218   5.115   8.250
 7360POPC   C3B39117   2.285   5.097   7.950
 7360POPC   C4B39118   2.190   5.152   7.650
 7361POPC   NC339119  26.006  36.146   9.450
 7361POPC   PO439120  26.044  36.106   9.150
 7361POPC   GL139121  26.040  36.151   8.850
 7361POPC   GL239122  26.137  36.166   8.850
 7361POPC   C1A39123  26.014  36.166   8.550
 7361POPC   D2A39124  26.043  36.159   8.250
 7361POPC   C3A39125  26.044  36.084   7.950
 7361POPC   C4A39126  26.085  36.093   7.650
 7361POPC   C1B39127  26.263  36.090   8.550
 7361POPC   C2B39128  26.309  36.141   8.250
 7361POPC   C3B39129  26.293  36.086   7.950
 7361POPC   C4B39130  26.256  36.101   7.650
 7362POPC   NC339131  24.457  33.773   9.450
 7362POPC   PO439132  24.524  33.754   9.150
 7362POPC   GL139133  24.531  33.796   8.850
 7362POPC   GL239134  24.542  33.912   8.850
 7362POPC   C1A39135  24.461  33.762   8.550
 7362POPC   D2A39136  24.519  33.810   8.250
 7362POPC   C3A39137  24.531  33.818   7.950
 7362POPC   C4A39138  24.498  33.812   7.650
 7362POPC   C1B39139  24.574  34.012   8.550
 7362POPC   C2B39140  24.595  33.980   8.250
 7362POPC   C3B39141  24.581  33.993   7.950
 7362POPC   C4B39142  24.564  34.056   7.650
 7363POPC   NC339143  29.127   4.319   9.450
 7363POPC   PO439144  29.168   4.277   9.150
 7363POPC   GL139145  29.187   4.289   8.850
 7363POPC   GL239146  29.306   4.271   8.850
 7363POPC   C1A39147  29.182   4.339   8.550
 7363POPC   D2A39148  29.183   4.268   8.250
 7363POPC   C3A39149  29.176   4.336   7.950
 7363POPC   C4A39150  29.135   4.332   7.650
 7363POPC   C1B39151  29.368   4.243   8.550
 7363POPC   C2B39152  29.402   4.192   8.250
 7363POPC   C3B39153  29.390   4.185   7.950
 7363POPC   C4B39154  29.414   4.224   7.650
 7364POPC   NC339155  22.139  36.088   9.450
 7364POPC   PO439156  22.150  36.134   9.150
 7364POPC   GL139157  22.180  36.111   8.850
 7364POPC   GL239158  22.261  36.048   8.850
 7364POPC   C1A39159  22.211  36.136   8.550
 7364POPC   D2A39160  22.202  36.081   8.250
 7364POPC   C3A39161  22.197  36.153   7.950
 7364POPC   C4A39162  22.199  36.080   7.650
 7364POPC   C1B39163  22.354  36.022   8.550
 7364POPC   C2B39164  22.421  36.078   8.250
 7364POPC   C3B39165  22.373  36.033   7.950
 7364POPC   C4B39166  22.401  36.011   7.650
 7365POPC   NC339167  36.856  23.683   9.450
 7365POPC   PO439168  36.917  23.764   9.150
 7365POPC   GL139169  36.931  23.691   8.850
 7365POPC   GL239170  36.976  23.860   8.850
 7365POPC   C1A39171  36.946  23.699   8.550
 7365POPC   D2A39172  36.912  23.678   8.250
 7365POPC   C3A39173  36.934  23.733   7.950
 7365POPC   C4A39174  36.885  23.694   7.650
 7365POPC   C1B39175  37.005  23.950   8.550
 7365POPC   C2B39176  36.979  23.955   8.250
 7365POPC   C3B39177  36.981  23.970   7.950
 7365POPC   C4B39178  36.979  23.966   7.650
 7366POPC   NC339179  40.798  29.132   9.450
 7366POPC   PO439180  40.817  29.158   9.150
 7366POPC   GL139181  40.743  29.183   8.850
 7366POPC   GL239182  40.732  29.046   8.850
 7366POPC   C1A39183  40.803  29.099   8.550
 7366POPC   D2A39184  40.749  29.130   8.250
 7366POPC   C3A39185  40.760  29.154   7.950
 7366POPC   C4A39186  40.772  29.128   7.650
 7366POPC   C1B39187  40.668  28.913   8.550
 7366POPC   C2B39188  40.630  28.954   8.250
 7366POPC   C3B39189  40.722  28.900   7.950
 7366POPC   C4B39190  40.632  28.904   7.650
 7367POPC   NC339191  12.118  16.724   9.450
 7367POPC   PO439192  12.077  16.777   9.150
 7367POPC   GL139193  12.101  16.753   8.850
 7367POPC   GL239194  12.225  16.809   8.850
 7367POPC   C1A39195  12.040  16.750   8.550
 7367POPC   D2A39196  12.061  16.770   8.250
 7367POPC   C3A39197  12.058  16.738   7.950
 7367POPC   C4A39198  12.094  16.771   7.650
 7367POPC   C1B39199  12.264  16.818   8.550
 7367POPC   C2B39200  12.312  16.803   8.250
 7367POPC   C3B39201  12.340  16.822   7.950
 7367POPC   C4B39202  12.348  16.792   7.650
 7368POPC   NC339203  21.362  24.441   9.450
 7368POPC   PO439204  21.379  24.520   9.150
 7368POPC   GL139205  21.339  24.442   8.850
 7368POPC   GL239206  21.378  24.389   8.850
 7368POPC   C1A39207  21.407  24.483   8.550
 7368POPC   D2A39208  21.417  24.469   8.250
 7368POPC   C3A39209  21.350  24.470   7.950
 7368POPC   C4A39210  21.435  24.518   7.650
 7368POPC   C1B39211  21.303  24.231   8.550
 7368POPC   C2B39212  21.301  24.264   8.250
 7368POPC   C3B39213  21.334  24.253   7.950
 7368POPC   C4B39214  21.335  24.299   7.650
 7369POPC   NC339215  28.413  29.099   9.450
 7369POPC   PO439216  28.326  29.142   9.150
 7369POPC   GL139217  28.378  29.194   8.850
 7369POPC   GL239218  28.403  29.219   8.850
 7369POPC   C1A39219  28.355  29.110   8.550
 7369POPC   D2A39220  28.377  29.189   8.250
 7369POPC   C3A39221  28.407  29.172   7.950
 7369POPC   C4A39222  28.334  29.140   7.650
 7369POPC   C1B39223  28.481  29.346   8.550
 7369POPC   C2B39224  28.451  29.344   8.250
 7369POPC   C3B39225  28.494  29.376   7.950
 7369POPC   C4B39226  28.489  29.338   7.650
 7370POPC   NC339227   3.518  19.792   9.450
 7370POPC   PO439228   3.497  19.805   9.150
 7370POPC   GL139229   3.554  19.841   8.850
 7370POPC   GL239230   3.656  19.794   8.850
 7370POPC   C1A39231   3.582  19.796   8.550
 7370POPC   D2A39232   3.535  19.806   8.250
 7370POPC   C3A39233   3.532  19.872   7.950
 7370POPC   C4A39234   3.591  19.813   7.650
 7370POPC   C1B39235   3.687  19.673   8.550
 7370POPC   C2B39236   3.718  19.682   8.250
 7370POPC   C3B39237   3.755  19.666   7.950
 7370POPC   C4B39238   3.741  19.629   7.650
 7371POPC   NC339239  24.502  40.761   9.450
 7371POPC   PO439240  24.490  40.748   9.150
 7371POPC   GL139241  24.505  40.822   8.850
 7371POPC   GL239242  24.539  40.647   8.850
 7371POPC   C1A39243  24.520  40.782   8.550
 7371POPC   D2A39244  24.515  40.787   8.250
 7371POPC   C3A39245  24.490  40.738   7.950
 7371POPC   C4A39246  24.451  40.748   7.650
 7371POPC   C1B39247  24.595  40.592   8.550
 7371POPC   C2B39248  24.631  40.606   8.250
 7371POPC   C3B39249  24.563  40.525   7.950
 7371POPC   C4B39250  24.593  40.543   7.650
 7372POPC   NC339251   2.004   2.753   9.450
 7372POPC   PO439252   1.952   2.799   9.150
 7372POPC   GL139253   2.037   2.747   8.850
 7372POPC   GL239254   1.875   2.663   8.850
 7372POPC   C1A39255   1.958   2.800   8.550
 7372POPC   D2A39256   1.941   2.797   8.250
 7372POPC   C3A39257   2.026   2.722   7.950
 7372POPC   C4A39258   1.999   2.798   7.650
 7372POPC   C1B39259   1.789   2.558   8.550
 7372POPC   C2B39260   1.858   2.525   8.250
 7372POPC   C3B39261   1.785   2.534   7.950
 7372POPC   C4B39262   1.812   2.533   7.650
 7373POPC   NC339263   4.349   9.767   9.450
 7373POPC   PO439264   4.354   9.739   9.150
 7373POPC   GL139265   4.366   9.777   8.850
 7373POPC   GL239266   4.305   9.867   8.850
 7373POPC   C1A39267   4.274   9.755   8.550
 7373POPC   D2A39268   4.279   9.796   8.250
 7373POPC   C3A39269   4.360   9.789   7.950
 7373POPC   C4A39270   4.317   9.707   7.650
 7373POPC   C1B39271   4.395  10.020   8.550
 7373POPC   C2B39272   4.339  10.040   8.250
 7373POPC   C3B39273   4.365   9.947   7.950
 7373POPC   C4B39274   4.375  10.027   7.650
 7374POPC   NC339275  29.122   0.430   9.450
 7374POPC   PO439276  29.143   0.412   9.150
 7374POPC   GL139277  29.191   0.482   8.850
 7374POPC   GL239278  29.123   0.321   8.850
 7374POPC   C1A39279  29.185   0.484   8.550
 7374POPC   D2A39280  29.118   0.460   8.250
 7374POPC   C3A39281  29.126   0.425   7.950
 7374POPC   C4A39282  29.179   0.453   7.650
 7374POPC   C1B39283  29.080   0.233   8.550
 7374POPC   C2B39284  29.116   0.220   8.250
 7374POPC   C3B39285  29.079   0.235   7.950
 7374POPC   C4B39286  29.043   0.189   7.650
 7375POPC   NC339287  22.904  36.158   9.450
 7375POPC   PO439288  22.951  36.095   9.150
 7375POPC   GL139289  22.891  36.143   8.850
 7375POPC   GL239290  22.853  36.079   8.850
 7375POPC   C1A39291  22.940  36.135   8.550
 7375POPC   D2A39292  22.941  36.095   8.250
 7375POPC   C3A39293  22.903  36.117   7.950
 7375POPC   C4A39294  22.979  36.116   7.650
 7375POPC   C1B39295  22.727  36.073   8.550
 7375POPC   C2B39296  22.739  36.051   8.250
 7375POPC   C3B39297  22.693  36.037   7.950
 7375POPC   C4B39298  22.731  36.054   7.650
 7376POPC   NC339299  39.995   7.377   9.450
 7376POPC   PO439300  39.986   7.465   9.150
 7376POPC   GL139301  39.995   7.419   8.850
 7376POPC   GL239302  40.020   7.316   8.850
 7376POPC   C1A39303  39.965   7.421   8.550
 7376POPC   D2A39304  40.056   7.430   8.250
 7376POPC   C3A39305  40.055   7.423   7.950
 7376POPC   C4A39306  40.038   7.381   7.650
 7376POPC   C1B39307  40.020   7.128   8.550
 7376POPC   C2B39308  40.040   7.145   8.250
 7376POPC   C3B39309  40.051   7.160   7.950
 7376POPC   C4B39310  39.966   7.132   7.650
 7377POPC   NC339311  42.328  29.191   9.450
 7377POPC   PO439312  42.304  29.096   9.150
 7377POPC   GL139313  42.371  29.120   8.850
 7377POPC   GL239314  42.467  29.158   8.850
 7377POPC   C1A39315  42.347  29.153   8.550
 7377POPC   D2A39316  42.345  29.133   8.250
 7377POPC   C3A39317  42.317  29.171   7.950
 7377POPC   C4A39318  42.345  29.193   7.650
 7377POPC   C1B39319  42.609  29.167   8.550
 7377POPC   C2B39320  42.564  29.216   8.250
 7377POPC   C3B39321  42.598  29.216   7.950
 7377POPC   C4B39322  42.540  29.195   7.650
 7378POPC   NC339323  18.323  36.144   9.450
 7378POPC   PO439324  18.244  36.122   9.150
 7378POPC   GL139325  18.320  36.150   8.850
 7378POPC   GL239326  18.361  36.135   8.850
 7378POPC   C1A39327  18.307  36.093   8.550
 7378POPC   D2A39328  18.312  36.081   8.250
 7378POPC   C3A39329  18.243  36.085   7.950
 7378POPC   C4A39330  18.277  36.083   7.650
 7378POPC   C1B39331  18.463  36.223   8.550
 7378POPC   C2B39332  18.509  36.190   8.250
 7378POPC   C3B39333  18.465  36.250   7.950
 7378POPC   C4B39334  18.542  36.214   7.650
 7379POPC   NC339335   0.411  22.152   9.450
 7379POPC   PO439336   0.457  22.132   9.150
 7379POPC   GL139337   0.436  22.125   8.850
 7379POPC   GL239338   0.384  22.193   8.850
 7379POPC   C1A39339   0.404  22.200   8.550
 7379POPC   D2A39340   0.480  22.130   8.250
 7379POPC   C3A39341   0.411  22.120   7.950
 7379POPC   C4A39342   0.450  22.143   7.650
 7379POPC   C1B39343   0.208  22.296   8.550
 7379POPC   C2B39344   0.274  22.257   8.250
 7379POPC   C3B39345   0.188  22.300   7.950
 7379POPC   C4B39346   0.227  22.284   7.650
 7380POPC   NC339347  18.270  10.494   9.450
 7380POPC   PO439348  18.290  10.533   9.150
 7380POPC   GL139349  18.264  10.484   8.850
 7380POPC   GL239350  18.200  10.624   8.850
 7380POPC   C1A39351  18.308  10.501   8.550
 7380POPC   D2A39352  18.325  10.538   8.250
 7380POPC   C3A39353  18.293  10.505   7.950
 7380POPC   C4A39354  18.270  10.538   7.650
 7380POPC   C1B39355  18.083  10.721   8.550
 7380POPC   C2B39356  18.069  10.656   8.250
 7380POPC   C3B39357  18.062  10.650   7.950
 7380POPC   C4B39358  18.071  10.657   7.650
 7381POPC   NC339359   2.731   5.076   9.450
 7381POPC   PO439360   2.763   5.058   9.150
 7381POPC   GL139361   2.775   5.063   8.850
 7381POPC   GL239362   2.861   4.983   8.850
 7381POPC   C1A39363   2.784   5.062   8.550
 7381POPC   D2A39364   2.758   5.063   8.250
 7381POPC   C3A39365   2.784   5.071   7.950
 7381POPC   C4A39366   2.799   5.128   7.650
 7381POPC   C1B39367   2.933   4.946   8.550
 7381POPC   C2B39368   2.969   4.942   8.250
 7381POPC   C3B39369   2.941   4.924   7.950
 7381POPC   C4B39370   2.952   4.981   7.650
 7382POPC   NC339371  29.179  16.774   9.450
 7382POPC   PO439372  29.155  16.753   9.150
 7382POPC   GL139373  29.123  16.761   8.850
 7382POPC   GL239374  29.050  16.858   8.850
 7382POPC   C1A39375  29.133  16.727   8.550
 7382POPC   D2A39376  29.186  16.743   8.250
 7382POPC   C3A39377  29.190  16.686   7.950
 7382POPC   C4A39378  29.169  16.777   7.650
 7382POPC   C1B39379  28.973  16.880   8.550
 7382POPC   C2B39380  28.939  16.933   8.250
 7382POPC   C3B39381  28.969  16.885   7.950
 7382POPC   C4B39382  28.970  16.890   7.650
 7383POPC   NC339383  32.977  40.770   9.450
 7383POPC   PO439384  33.023  40.756   9.150
 7383POPC   GL139385  33.007  40.735   8.850
 7383POPC   GL239386  33.021  40.710   8.850
 7383POPC   C1A39387  33.032  40.781   8.550
 7383POPC   D2A39388  33.021  40.825   8.250
 7383POPC   C3A39389  32.995  40.796   7.950
 7383POPC   C4A39390  33.063  40.784   7.650
 7383POPC   C1B39391  32.932  40.553   8.550
 7383POPC   C2B39392  32.944  40.510   8.250
 7383POPC   C3B39393  32.953  40.518   7.950
 7383POPC   C4B39394  32.945  40.526   7.650
 7384POPC   NC339395   8.986  27.544   9.450
 7384POPC   PO439396   8.935  27.548   9.150
 7384POPC   GL139397   8.975  27.559   8.850
 7384POPC   GL239398   8.966  27.500   8.850
 7384POPC   C1A39399   9.013  27.627   8.550
 7384POPC   D2A39400   8.946  27.569   8.250
 7384POPC   C3A39401   8.998  27.553   7.950
 7384POPC   C4A39402   8.956  27.628   7.650
 7384POPC   C1B39403   8.919  27.359   8.550
 7384POPC   C2B39404   8.967  27.342   8.250
 7384POPC   C3B39405   8.951  27.382   7.950
 7384POPC   C4B39406   8.929  27.349   7.650
 7385POPC   NC339407   7.410  25.307   9.450
 7385POPC   PO439408   7.457  25.240   9.150
 7385POPC   GL139409   7.446  25.315   8.850
 7385POPC   GL239410   7.446  25.157   8.850
 7385POPC   C1A39411   7.470  25.256   8.550
 7385POPC   D2A39412   7.445  25.287   8.250
 7385POPC   C3A39413   7.418  25.306   7.950
 7385POPC   C4A39414   7.428  25.309   7.650
 7385POPC   C1B39415   7.572  25.008   8.550
 7385POPC   C2B39416   7.585  25.004   8.250
 7385POPC   C3B39417   7.536  25.059   7.950
 7385POPC   C4B39418   7.494  25.083   7.650
 7386POPC   NC339419   1.960   8.997   9.450
 7386POPC   PO439420   2.029   9.020   9.150
 7386POPC   GL139421   1.944   8.929   8.850
 7386POPC   GL239422   2.058   8.914   8.850
 7386POPC   C1A39423   2.023   8.986   8.550
 7386POPC   D2A39424   2.003   8.938   8.250
 7386POPC   C3A39425   2.024   8.971   7.950
 7386POPC   C4A39426   2.016   9.003   7.650
 7386POPC   C1B39427   2.154   8.785   8.550
 7386POPC   C2B39428   2.198   8.823   8.250
 7386POPC   C3B39429   2.115   8.768   7.950
 7386POPC   C4B39430   2.134   8.816   7.650
 7387POPC   NC339431  19.041  25.299   9.450
 7387POPC   PO439432  19.014  25.251   9.150
 7387POPC   GL139433  19.031  25.250   8.850
 7387POPC   GL239434  19.173  25.341   8.850
 7387POPC   C1A39435  19.044  25.283   8.550
 7387POPC   D2A39436  19.020  25.279   8.250
 7387POPC   C3A39437  19.017  25.224   7.950
 7387POPC   C4A39438  19.059  25.312   7.650
 7387POPC   C1B39439  19.293  25.421   8.550
 7387POPC   C2B39440  19.274  25.380   8.250
 7387POPC   C3B39441  19.256  25.425   7.950
 7387POPC   C4B39442  19.272  25.421   7.650
 7388POPC   NC339443  19.068   9.007   9.450
 7388POPC   PO439444  19.051   8.955   9.150
 7388POPC   GL139445  19.044   8.972   8.850
 7388POPC   GL239446  19.166   8.915   8.850
 7388POPC   C1A39447  19.106   8.973   8.550
 7388POPC   D2A39448  19.036   8.942   8.250
 7388POPC   C3A39449  19.073   8.992   7.950
 7388POPC   C4A39450  19.056   9.004   7.650
 7388POPC   C1B39451  19.327   8.966   8.550
 7388POPC   C2B39452  19.285   8.900   8.250
 7388POPC   C3B39453  19.259   8.896   7.950
 7388POPC   C4B39454  19.335   8.921   7.650
 7389POPC   NC339455  43.124  26.768   9.450
 7389POPC   PO439456  43.070  26.787   9.150
 7389POPC   GL139457  43.108  26.790   8.850
 7389POPC   GL239458  43.107  26.645   8.850
 7389POPC   C1A39459  43.133  26.822   8.550
 7389POPC   D2A39460  43.065  26.816   8.250
 7389POPC   C3A39461  43.136  26.821   7.950
 7389POPC   C4A39462  43.101  26.799   7.650
 7389POPC   C1B39463  43.111  26.618   8.550
 7389POPC   C2B39464  43.087  26.578   8.250
 7389POPC   C3B39465  43.110  26.541   7.950
 7389POPC   C4B39466  43.067  26.571   7.650
 7390POPC   NC339467  23.759  15.167   9.450
 7390POPC   PO439468  23.674  15.199   9.150
 7390POPC   GL139469  23.674  15.132   8.850
 7390POPC   GL239470  23.605  15.281   8.850
 7390POPC   C1A39471  23.705  15.151   8.550
 7390POPC   D2A39472  23.698  15.216   8.250
 7390POPC   C3A39473  23.697  15.193   7.950
 7390POPC   C4A39474  23.715  15.193   7.650
 7390POPC   C1B39475  23.520  15.429   8.550
 7390POPC   C2B39476  23.588  15.351   8.250
 7390POPC   C3B39477  23.566  15.422   7.950
 7390POPC   C4B39478  23.530  15.419   7.650
 7391POPC   NC339479  36.871  11.253   9.450
 7391POPC   PO439480  36.870  11.255   9.150
 7391POPC   GL139481  36.922  11.340   8.850
 7391POPC   GL239482  36.989  11.282   8.850
 7391POPC   C1A39483  36.919  11.283   8.550
 7391POPC   D2A39484  36.936  11.346   8.250
 7391POPC   C3A39485  36.866  11.342   7.950
 7391POPC   C4A39486  36.918  11.319   7.650
 7391POPC   C1B39487  37.141  11.274   8.550
 7391POPC   C2B39488  37.152  11.281   8.250
 7391POPC   C3B39489  37.133  11.273   7.950
 7391POPC   C4B39490  37.120  11.256   7.650
 7392POPC   NC339491   2.008  28.384   9.450
 7392POPC   PO439492   2.022  28.339   9.150
 7392POPC   GL139493   2.038  28.354   8.850
 7392POPC   GL239494   2.117  28.390   8.850
 7392POPC   C1A39495   1.962  28.345   8.550
 7392POPC   D2A39496   2.015  28.349   8.250
 7392POPC   C3A39497   1.956  28.322   7.950
 7392POPC   C4A39498   1.994  28.400   7.650
 7392POPC   C1B39499   2.248  28.448   8.550
 7392POPC   C2B39500   2.260  28.413   8.250
 7392POPC   C3B39501   2.251  28.424   7.950
 7392POPC   C4B39502   2.242  28.437   7.650
 7393POPC   NC339503   9.700  22.974   9.450
 7393POPC   PO439504   9.748  22.899   9.150
 7393POPC   GL139505   9.796  22.934   8.850
 7393POPC   GL239506   9.758  22.849   8.850
 7393POPC   C1A39507   9.794  22.936   8.550
 7393POPC   D2A39508   9.789  22.919   8.250
 7393POPC   C3A39509   9.777  22.953   7.950
 7393POPC   C4A39510   9.795  22.938   7.650
 7393POPC   C1B39511   9.694  22.739   8.550
 7393POPC   C2B39512   9.705  22.707   8.250
 7393POPC   C3B39513   9.646  22.725   7.950
 7393POPC   C4B39514   9.644  22.722   7.650
 7394POPC   NC339515  26.827  24.522   9.450
 7394POPC   PO439516  26.831  24.535   9.150
 7394POPC   GL139517  26.779  24.446   8.850
 7394POPC   GL239518  26.760  24.587   8.850
 7394POPC   C1A39519  26.789  24.525   8.550
 7394POPC   D2A39520  26.811  24.481   8.250
 7394POPC   C3A39521  26.837  24.484   7.950
 7394POPC   C4A39522  26.847  24.503   7.650
 7394POPC   C1B39523  26.682  24.683   8.550
 7394POPC   C2B39524  26.689  24.694   8.250
 7394POPC   C3B39525  26.640  24.688   7.950
 7394POPC   C4B39526  26.689  24.683   7.650
 7395POPC   NC339527  42.329  41.530   9.450
 7395POPC   PO439528  42.357  41.549   9.150
 7395POPC   GL139529  42.370  41.564   8.850
 7395POPC   GL239530  42.403  41.505   8.850
 7395POPC   C1A39531  42.328  41.565   8.550
 7395POPC   D2A39532  42.316  41.540   8.250
 7395POPC   C3A39533  42.344  41.575   7.950
 7395POPC   C4A39534  42.300  41.530   7.650
 7395POPC   C1B39535  42.526  41.401   8.550
 7395POPC   C2B39536  42.567  41.384   8.250
 7395POPC   C3B39537  42.526  41.410   7.950
 7395POPC   C4B39538  42.579  41.357   7.650
 7396POPC   NC339539  15.153   1.229   9.450
 7396POPC   PO439540  15.173   1.258   9.150
 7396POPC   GL139541  15.131   1.194   8.850
 7396POPC   GL239542  15.217   1.130   8.850
 7396POPC   C1A39543  15.211   1.181   8.550
 7396POPC   D2A39544  15.146   1.239   8.250
 7396POPC   C3A39545  15.132   1.168   7.950
 7396POPC   C4A39546  15.158   1.167   7.650
 7396POPC   C1B39547  15.195   1.013   8.550
 7396POPC   C2B39548  15.235   0.964   8.250
 7396POPC   C3B39549  15.193   1.008   7.950
 7396POPC   C4B39550  15.254   0.950   7.650
 7397POPC   NC339551  42.308  42.367   9.450
 7397POPC   PO439552  42.375  42.369   9.150
 7397POPC   GL139553  42.292  42.341   8.850
 7397POPC   GL239554  42.416  42.360   8.850
 7397POPC   C1A39555  42.288  42.321   8.550
 7397POPC   D2A39556  42.323  42.303   8.250
 7397POPC   C3A39557  42.351  42.370   7.950
 7397POPC   C4A39558  42.371  42.313   7.650
 7397POPC   C1B39559  42.629  42.304   8.550
 7397POPC   C2B39560  42.583  42.345   8.250
 7397POPC   C3B39561  42.542  42.301   7.950
 7397POPC   C4B39562  42.580  42.302   7.650
 7398POPC   NC339563   5.085  33.064   9.450
 7398POPC   PO439564   5.070  33.018   9.150
 7398POPC   GL139565   5.104  33.033   8.850
 7398POPC   GL239566   5.192  32.982   8.850
 7398POPC   C1A39567   5.061  33.012   8.550
 7398POPC   D2A39568   5.100  33.012   8.250
 7398POPC   C3A39569   5.142  33.066   7.950
 7398POPC   C4A39570   5.104  33.005   7.650
 7398POPC   C1B39571   5.300  32.891   8.550
 7398POPC   C2B39572   5.338  32.944   8.250
 7398POPC   C3B39573   5.298  32.891   7.950
 7398POPC   C4B39574   5.335  32.956   7.650
 7399POPC   NC339575  26.844  39.192   9.450
 7399POPC   PO439576  26.783  39.259   9.150
 7399POPC   GL139577  26.781  39.231   8.850
 7399POPC   GL239578  26.903  39.360   8.850
 7399POPC   C1A39579  26.777  39.186   8.550
 7399POPC   D2A39580  26.864  39.215   8.250
 7399POPC   C3A39581  26.857  39.271   7.950
 7399POPC   C4A39582  26.810  39.280   7.650
 7399POPC   C1B39583  26.953  39.487   8.550
 7399POPC   C2B39584  26.895  39.419   8.250
 7399POPC   C3B39585  26.888  39.413   7.950
 7399POPC   C4B39586  26.949  39.407   7.650
 7400POPC   NC339587  26.080  15.927   9.450
 7400POPC   PO439588  26.087  15.911   9.150
 7400POPC   GL139589  26.070  15.968   8.850
 7400POPC   GL239590  26.099  15.879   8.850
 7400POPC   C1A39591  26.053  15.963   8.550
 7400POPC   D2A39592  25.995  15.912   8.250
 7400POPC   C3A39593  26.056  15.959   7.950
 7400POPC   C4A39594  26.022  15.927   7.650
 7400POPC   C1B39595  26.054  15.690   8.550
 7400POPC   C2B39596  26.115  15.711   8.250
 7400POPC   C3B39597  26.070  15.716   7.950
 7400POPC   C4B39598  26.092  15.688   7.650
 7401POPC   NC339599  41.520  26.808   9.450
 7401POPC   PO439600  41.522  26.815   9.150
 7401POPC   GL139601  41.579  26.787   8.850
 7401POPC   GL239602  41.630  26.672   8.850
 7401POPC   C1A39603  41.567  26.831   8.550
 7401POPC   D2A39604  41.554  26.832   8.250
 7401POPC   C3A39605  41.513  26.825   7.950
 7401POPC   C4A39606  41.582  26.830   7.650
 7401POPC   C1B39607  41.709  26.597   8.550
 7401POPC   C2B39608  41.750  26.640   8.250
 7401POPC   C3B39609  41.744  26.612   7.950
 7401POPC   C4B39610  41.694  26.611   7.650
 7402POPC   NC339611  30.713  36.150   9.450
 7402POPC   PO439612  30.677  36.112   9.150
 7402POPC   GL139613  30.741  36.078   8.850
 7402POPC   GL239614  30.681  36.226   8.850
 7402POPC   C1A39615  30.735  36.176   8.550
 7402POPC   D2A39616  30.716  36.102   8.250
 7402POPC   C3A39617  30.698  36.170   7.950
 7402POPC   C4A39618  30.681  36.125   7.650
 7402POPC   C1B39619  30.609  36.361   8.550
 7402POPC   C2B39620  30.609  36.377   8.250
 7402POPC   C3B39621  30.570  36.304   7.950
 7402POPC   C4B39622  30.606  36.394   7.650
 7403POPC   NC339623  14.428  17.527   9.450
 7403POPC   PO439624  14.391  17.521   9.150
 7403POPC   GL139625  14.390  17.510   8.850
 7403POPC   GL239626  14.514  17.427   8.850
 7403POPC   C1A39627  14.381  17.496   8.550
 7403POPC   D2A39628  14.444  17.514   8.250
 7403POPC   C3A39629  14.436  17.508   7.950
 7403POPC   C4A39630  14.407  17.557   7.650
 7403POPC   C1B39631  14.592  17.362   8.550
 7403POPC   C2B39632  14.622  17.365   8.250
 7403POPC   C3B39633  14.584  17.404   7.950
 7403POPC   C4B39634  14.600  17.369   7.650
 7404POPC   NC339635  43.154  41.513   9.450
 7404POPC   PO439636  43.103  41.570   9.150
 7404POPC   GL139637  43.094  41.599   8.850
 7404POPC   GL239638  43.049  41.644   8.850
 7404POPC   C1A39639  43.076  41.582   8.550
 7404POPC   D2A39640  43.133  41.532   8.250
 7404POPC   C3A39641  43.121  41.553   7.950
 7404POPC   C4A39642  43.131  41.600   7.650
 7404POPC   C1B39643  42.943  41.692   8.550
 7404POPC   C2B39644  42.948  41.767   8.250
 7404POPC   C3B39645  42.929  41.781   7.950
 7404POPC   C4B39646  42.892  41.693   7.650
 7405POPC   NC339647  25.295   5.895   9.450
 7405POPC   PO439648  25.253   5.848   9.150
 7405POPC   GL139649  25.290   5.836   8.850
 7405POPC   GL239650  25.252   5.713   8.850
 7405POPC   C1A39651  25.314   5.857   8.550
 7405POPC   D2A39652  25.299   5.896   8.250
 7405POPC   C3A39653  25.221   5.876   7.950
 7405POPC   C4A39654  25.265   5.852   7.650
 7405POPC   C1B39655  25.283   5.602   8.550
 7405POPC   C2B39656  25.251   5.581   8.250
 7405POPC   C3B39657  25.267   5.579   7.950
 7405POPC   C4B39658  25.271   5.666   7.650
 7406POPC   NC339659  19.791   1.183   9.450
 7406POPC   PO439660  19.814   1.246   9.150
 7406POPC   GL139661  19.843   1.232   8.850
 7406POPC   GL239662  19.964   1.215   8.850
 7406POPC   C1A39663  19.821   1.221   8.550
 7406POPC   D2A39664  19.829   1.183   8.250
 7406POPC   C3A39665  19.854   1.232   7.950
 7406POPC   C4A39666  19.803   1.175   7.650
 7406POPC   C1B39667  20.073   1.290   8.550
 7406POPC   C2B39668  20.068   1.255   8.250
 7406POPC   C3B39669  20.129   1.262   7.950
 7406POPC   C4B39670  20.129   1.262   7.650
 7407POPC   NC339671   6.612  32.994   9.450
 7407POPC   PO439672   6.636  33.037   9.150
 7407POPC   GL139673   6.683  32.981   8.850
 7407POPC   GL239674   6.517  33.113   8.850
 7407POPC   C1A39675   6.634  33.055   8.550
 7407POPC   D2A39676   6.618  33.052   8.250
 7407POPC   C3A39677   6.600  32.978   7.950
 7407POPC   C4A39678   6.609  33.007   7.650
 7407POPC   C1B39679   6.459  33.185   8.550
 7407POPC   C2B39680   6.440  33.206   8.250
 7407POPC   C3B39681   6.484  33.207   7.950
 7407POPC   C4B39682   6.492  33.243   7.650
 7408POPC   NC339683  44.626  31.479   9.450
 7408POPC   PO439684  44.642  31.434   9.150
 7408POPC   GL139685  44.614  31.487   8.850
 7408POPC   GL239686  44.675  31.551   8.850
 7408POPC   C1A39687  44.658  31.463   8.550
 7408POPC   D2A39688  44.670  31.427   8.250
 7408POPC   C3A39689  44.682  31.430   7.950
 7408POPC   C4A39690  44.631  31.512   7.650
 7408POPC   C1B39691  44.803  31.664   8.550
 7408POPC   C2B39692  44.733  31.667   8.250
 7408POPC   C3B39693  44.804  31.742   7.950
 7408POPC   C4B39694  44.755  31.714   7.650
 7409POPC   NC339695  11.279  16.003   9.450
 7409POPC   PO439696  11.347  15.969   9.150
 7409POPC   GL139697  11.325  15.978   8.850
 7409POPC   GL239698  11.414  15.947   8.850
 7409POPC   C1A39699  11.291  15.950   8.550
 7409POPC   D2A39700  11.324  15.997   8.250
 7409POPC   C3A39701  11.309  15.965   7.950
 7409POPC   C4A39702  11.331  15.912   7.650
 7409POPC   C1B39703  11.513  15.912   8.550
 7409POPC   C2B39704  11.494  15.878   8.250
 7409POPC   C3B39705  11.507  15.866   7.950
 7409POPC   C4B39706  11.512  15.870   7.650
 7410POPC   NC339707   2.719  38.498   9.450
 7410POPC   PO439708   2.762  38.444   9.150
 7410POPC   GL139709   2.736  38.458   8.850
 7410POPC   GL239710   2.674  38.530   8.850
 7410POPC   C1A39711   2.762  38.426   8.550
 7410POPC   D2A39712   2.795  38.476   8.250
 7410POPC   C3A39713   2.747  38.479   7.950
 7410POPC   C4A39714   2.749  38.485   7.650
 7410POPC   C1B39715   2.662  38.629   8.550
 7410POPC   C2B39716   2.664  38.686   8.250
 7410POPC   C3B39717   2.585  38.642   7.950
 7410POPC   C4B39718   2.604  38.704   7.650
 7411POPC   NC339719  15.964  35.306   9.450
 7411POPC   PO439720  15.977  35.347   9.150
 7411POPC   GL139721  15.945  35.357   8.850
 7411POPC   GL239722  15.939  35.474   8.850
 7411POPC   C1A39723  15.952  35.308   8.550
 7411POPC   D2A39724  15.935  35.320   8.250
 7411POPC   C3A39725  15.915  35.401   7.950
 7411POPC   C4A39726  15.966  35.308   7.650
 7411POPC   C1B39727  15.822  35.586   8.550
 7411POPC   C2B39728  15.862  35.627   8.250
 7411POPC   C3B39729  15.889  35.620   7.950
 7411POPC   C4B39730  15.856  35.583   7.650
 7412POPC   NC339731  33.046  27.600   9.450
 7412POPC   PO439732  33.067  27.562   9.150
 7412POPC   GL139733  33.068  27.631   8.850
 7412POPC   GL239734  33.068  27.464   8.850
 7412POPC   C1A39735  33.034  27.588   8.550
 7412POPC   D2A39736  33.054  27.555   8.250
 7412POPC   C3A39737  33.038  27.601   7.950
 7412POPC   C4A39738  33.005  27.637   7.650
 7412POPC   C1B39739  33.114  27.392   8.550
 7412POPC   C2B39740  33.118  27.346   8.250
 7412POPC   C3B39741  33.065  27.322   7.950
 7412POPC   C4B39742  33.072  27.323   7.650
 7413POPC   NC339743  33.024   9.011   9.450
 7413POPC   PO439744  33.022   8.949   9.150
 7413POPC   GL139745  33.069   9.001   8.850
 7413POPC   GL239746  32.965   9.109   8.850
 7413POPC   C1A39747  33.030   8.942   8.550
 7413POPC   D2A39748  33.007   8.958   8.250
 7413POPC   C3A39749  33.037   9.021   7.950
 7413POPC   C4A39750  33.042   8.967   7.650
 7413POPC   C1B39751  32.849   9.131   8.550
 7413POPC   C2B39752  32.913   9.190   8.250
 7413POPC   C3B39753  32.908   9.184   7.950
 7413POPC   C4B39754  32.850   9.209   7.650
 7414POPC   NC339755  42.340  40.756   9.450
 7414POPC   PO439756  42.300  40.782   9.150
 7414POPC   GL139757  42.293  40.746   8.850
 7414POPC   GL239758  42.322  40.713   8.850
 7414POPC   C1A39759  42.346  40.827   8.550
 7414POPC   D2A39760  42.359  40.753   8.250
 7414POPC   C3A39761  42.319  40.811   7.950
 7414POPC   C4A39762  42.364  40.784   7.650
 7414POPC   C1B39763  42.217  40.548   8.550
 7414POPC   C2B39764  42.213  40.527   8.250
 7414POPC   C3B39765  42.278  40.587   7.950
 7414POPC   C4B39766  42.228  40.596   7.650
 7415POPC   NC339767  11.265   4.280   9.450
 7415POPC   PO439768  11.276   4.306   9.150
 7415POPC   GL139769  11.338   4.358   8.850
 7415POPC   GL239770  11.210   4.240   8.850
 7415POPC   C1A39771  11.252   4.365   8.550
 7415POPC   D2A39772  11.278   4.313   8.250
 7415POPC   C3A39773  11.282   4.268   7.950
 7415POPC   C4A39774  11.310   4.362   7.650
 7415POPC   C1B39775  11.214   4.071   8.550
 7415POPC   C2B39776  11.205   4.036   8.250
 7415POPC   C3B39777  11.210   4.111   7.950
 7415POPC   C4B39778  11.199   4.083   7.650
 7416POPC   NC339779  22.130  21.352   9.450
 7416POPC   PO439780  22.119  21.376   9.150
 7416POPC   GL139781  22.176  21.359   8.850
 7416POPC   GL239782  22.143  21.234   8.850
 7416POPC   C1A39783  22.188  21.403   8.550
 7416POPC   D2A39784  22.146  21.385   8.250
 7416POPC   C3A39785  22.135  21.420   7.950
 7416POPC   C4A39786  22.211  21.433   7.650
 7416POPC   C1B39787  22.117  21.091   8.550
 7416POPC   C2B39788  22.150  21.155   8.250
 7416POPC   C3B39789  22.075  21.128   7.950
 7416POPC   C4B39790  22.170  21.128   7.650
 7417POPC   NC339791  38.418  41.514   9.450
 7417POPC   PO439792  38.415  41.575   9.150
 7417POPC   GL139793  38.440  41.547   8.850
 7417POPC   GL239794  38.507  41.732   8.850
 7417POPC   C1A39795  38.446  41.528   8.550
 7417POPC   D2A39796  38.429  41.592   8.250
 7417POPC   C3A39797  38.443  41.537   7.950
 7417POPC   C4A39798  38.430  41.511   7.650
 7417POPC   C1B39799  38.462  41.788   8.550
 7417POPC   C2B39800  38.449  41.819   8.250
 7417POPC   C3B39801  38.449  41.851   7.950
 7417POPC   C4B39802  38.470  41.837   7.650
 7418POPC   NC339803  37.651   5.821   9.450
 7418POPC   PO439804  37.633   5.847   9.150
 7418POPC   GL139805  37.727   5.894   8.850
 7418POPC   GL239806  37.766   5.749   8.850
 7418POPC   C1A39807  37.662   5.903   8.550
 7418POPC   D2A39808  37.687   5.857   8.250
 7418POPC   C3A39809  37.662   5.886   7.950
 7418POPC   C4A39810  37.675   5.821   7.650
 7418POPC   C1B39811  37.816   5.676   8.550
 7418POPC   C2B39812  37.851   5.683   8.250
 7418POPC   C3B39813  37.857   5.683   7.950
 7418POPC   C4B39814  37.831   5.712   7.650
 7419POPC   NC339815  34.589  26.779   9.450
 7419POPC   PO439816  34.608  26.784   9.150
 7419POPC   GL139817  34.620  26.867   8.850
 7419POPC   GL239818  34.670  26.828   8.850
 7419POPC   C1A39819  34.546  26.825   8.550
 7419POPC   D2A39820  34.576  26.823   8.250
 7419POPC   C3A39821  34.562  26.802   7.950
 7419POPC   C4A39822  34.546  26.781   7.650
 7419POPC   C1B39823  34.865  26.902   8.550
 7419POPC   C2B39824  34.771  26.911   8.250
 7419POPC   C3B39825  34.850  26.895   7.950
 7419POPC   C4B39826  34.797  26.911   7.650
 7420POPC   NC339827  28.417  27.593   9.450
 7420POPC   PO439828  28.401  27.587   9.150
 7420POPC   GL139829  28.335  27.560   8.850
 7420POPC   GL239830  28.431  27.530   8.850
 7420POPC   C1A39831  28.370  27.604   8.550
 7420POPC   D2A39832  28.342  27.631   8.250
 7420POPC   C3A39833  28.367  27.563   7.950
 7420POPC   C4A39834  28.366  27.628   7.650
 7420POPC   C1B39835  28.556  27.473   8.550
 7420POPC   C2B39836  28.555  27.456   8.250
 7420POPC   C3B39837  28.565  27.425   7.950
 7420POPC   C4B39838  28.559  27.473   7.650
 7421POPC   NC339839  28.358   1.224   9.450
 7421POPC   PO439840  28.390   1.194   9.150
 7421POPC   GL139841  28.330   1.217   8.850
 7421POPC   GL239842  28.318   1.284   8.850
 7421POPC   C1A39843  28.380   1.255   8.550
 7421POPC   D2A39844  28.372   1.248   8.250
 7421POPC   C3A39845  28.329   1.203   7.950
 7421POPC   C4A39846  28.352   1.247   7.650
 7421POPC   C1B39847  28.277   1.424   8.550
 7421POPC   C2B39848  28.288   1.483   8.250
 7421POPC   C3B39849  28.218   1.483   7.950
 7421POPC   C4B39850  28.296   1.440   7.650
 7422POPC   NC339851  31.432   5.128   9.450
 7422POPC   PO439852  31.466   5.048   9.150
 7422POPC   GL139853  31.460   5.082   8.850
 7422POPC   GL239854  31.585   5.111   8.850
 7422POPC   C1A39855  31.456   5.064   8.550
 7422POPC   D2A39856  31.452   5.076   8.250
 7422POPC   C3A39857  31.496   5.137   7.950
 7422POPC   C4A39858  31.474   5.059   7.650
 7422POPC   C1B39859  31.743   5.086   8.550
 7422POPC   C2B39860  31.744   5.130   8.250
 7422POPC   C3B39861  31.755   5.125   7.950
 7422POPC   C4B39862  31.694   5.169   7.650
 7423POPC   NC339863  12.832  37.708   9.450
 7423POPC   PO439864  12.823  37.671   9.150
 7423POPC   GL139865  12.888  37.690   8.850
 7423POPC   GL239866  12.938  37.682   8.850
 7423POPC   C1A39867  12.810  37.665   8.550
 7423POPC   D2A39868  12.896  37.638   8.250
 7423POPC   C3A39869  12.860  37.641   7.950
 7423POPC   C4A39870  12.832  37.688   7.650
 7423POPC   C1B39871  13.077  37.710   8.550
 7423POPC   C2B39872  13.092  37.730   8.250
 7423POPC   C3B39873  13.130  37.653   7.950
 7423POPC   C4B39874  13.103  37.640   7.650
 7424POPC   NC339875  40.033  18.235   9.450
 7424POPC   PO439876  40.000  18.242   9.150
 7424POPC   GL139877  39.990  18.246   8.850
 7424POPC   GL239878  40.155  18.343   8.850
 7424POPC   C1A39879  39.988  18.266   8.550
 7424POPC   D2A39880  40.006  18.318   8.250
 7424POPC   C3A39881  40.000  18.236   7.950
 7424POPC   C4A39882  40.032  18.322   7.650
 7424POPC   C1B39883  40.231  18.285   8.550
 7424POPC   C2B39884  40.244  18.332   8.250
 7424POPC   C3B39885  40.292  18.267   7.950
 7424POPC   C4B39886  40.270  18.349   7.650
 7425POPC   NC339887   1.951  17.544   9.450
 7425POPC   PO439888   2.005  17.467   9.150
 7425POPC   GL139889   1.945  17.501   8.850
 7425POPC   GL239890   2.078  17.551   8.850
 7425POPC   C1A39891   1.974  17.499   8.550
 7425POPC   D2A39892   1.971  17.512   8.250
 7425POPC   C3A39893   1.994  17.506   7.950
 7425POPC   C4A39894   1.966  17.519   7.650
 7425POPC   C1B39895   2.211  17.691   8.550
 7425POPC   C2B39896   2.224  17.674   8.250
 7425POPC   C3B39897   2.172  17.615   7.950
 7425POPC   C4B39898   2.192  17.609   7.650
 7426POPC   NC339899  20.625  29.161   9.450
 7426POPC   PO439900  20.617  29.112   9.150
 7426POPC   GL139901  20.585  29.106   8.850
 7426POPC   GL239902  20.622  29.289   8.850
 7426POPC   C1A39903  20.567  29.149   8.550
 7426POPC   D2A39904  20.593  29.182   8.250
 7426POPC   C3A39905  20.598  29.132   7.950
 7426POPC   C4A39906  20.636  29.151   7.650
 7426POPC   C1B39907  20.635  29.414   8.550
 7426POPC   C2B39908  20.651  29.381   8.250
 7426POPC   C3B39909  20.637  29.386   7.950
 7426POPC   C4B39910  20.584  29.375   7.650
 7427POPC   NC339911   0.482  40.051   9.450
 7427POPC   PO439912   0.463  40.041   9.150
 7427POPC   GL139913   0.415  39.957   8.850
 7427POPC   GL239914   0.479  40.073   8.850
 7427POPC   C1A39915   0.429  40.018   8.550
 7427POPC   D2A39916   0.423  40.044   8.250
 7427POPC   C3A39917   0.465  40.056   7.950
 7427POPC   C4A39918   0.424  40.015   7.650
 7427POPC   C1B39919   0.594  40.210   8.550
 7427POPC   C2B39920   0.615  40.159   8.250
 7427POPC   C3B39921   0.667  40.159   7.950
 7427POPC   C4B39922   0.575  40.184   7.650
 7428POPC   NC339923  20.578  33.014   9.450
 7428POPC   PO439924  20.584  33.048   9.150
 7428POPC   GL139925  20.564  33.057   8.850
 7428POPC   GL239926  20.458  33.005   8.850
 7428POPC   C1A39927  20.587  33.003   8.550
 7428POPC   D2A39928  20.634  33.000   8.250
 7428POPC   C3A39929  20.629  33.038   7.950
 7428POPC   C4A39930  20.616  33.051   7.650
 7428POPC   C1B39931  20.386  32.976   8.550
 7428POPC   C2B39932  20.411  32.985   8.250
 7428POPC   C3B39933  20.367  33.048   7.950
 7428POPC   C4B39934  20.357  32.959   7.650
 7429POPC   NC339935  11.337  12.806   9.450
 7429POPC   PO439936  11.287  12.861   9.150
 7429POPC   GL139937  11.292  12.855   8.850
 7429POPC   GL239938  11.376  12.717   8.850
 7429POPC   C1A39939  11.290  12.881   8.550
 7429POPC   D2A39940  11.267  12.896   8.250
 7429POPC   C3A39941  11.280  12.871   7.950
 7429POPC   C4A39942  11.257  12.811   7.650
 7429POPC   C1B39943  11.465  12.657   8.550
 7429POPC   C2B39944  11.470  12.677   8.250
 7429POPC   C3B39945  11.434  12.685   7.950
 7429POPC   C4B39946  11.491  12.687   7.650
 7430POPC   NC339947  29.167  19.102   9.450
 7430POPC   PO439948  29.170  19.087   9.150
 7430POPC   GL139949  29.159  19.091   8.850
 7430POPC   GL239950  29.231  19.040   8.850
 7430POPC   C1A39951  29.134  19.090   8.550
 7430POPC   D2A39952  29.101  19.051   8.250
 7430POPC   C3A39953  29.165  19.094   7.950
 7430POPC   C4A39954  29.128  19.089   7.650
 7430POPC   C1B39955  29.342  18.984   8.550
 7430POPC   C2B39956  29.337  18.976   8.250
 7430POPC   C3B39957  29.377  18.994   7.950
 7430POPC   C4B39958  29.368  18.966   7.650
 7431POPC   NC339959  23.746  19.079   9.450
 7431POPC   PO439960  23.758  19.041   9.150
 7431POPC   GL139961  23.715  19.016   8.850
 7431POPC   GL239962  23.872  19.043   8.850
 7431POPC   C1A39963  23.675  19.028   8.550
 7431POPC   D2A39964  23.688  19.096   8.250
 7431POPC   C3A39965  23.743  19.102   7.950
 7431POPC   C4A39966  23.738  19.064   7.650
 7431POPC   C1B39967  23.909  18.958   8.550
 7431POPC   C2B39968  23.956  18.948   8.250
 7431POPC   C3B39969  23.900  18.937   7.950
 7431POPC   C4B39970  23.963  19.001   7.650
 7432POPC   NC339971  33.810  15.921   9.450
 7432POPC   PO439972  33.751  15.936   9.150
 7432POPC   GL139973  33.801  15.996   8.850
 7432POPC   GL239974  33.729  15.825   8.850
 7432POPC   C1A39975  33.798  15.948   8.550
 7432POPC   D2A39976  33.846  15.967   8.250
 7432POPC   C3A39977  33.822  15.968   7.950
 7432POPC   C4A39978  33.757  15.969   7.650
 7432POPC   C1B39979  33.714  15.702   8.550
 7432POPC   C2B39980  33.701  15.727   8.250
 7432POPC   C3B39981  33.757  15.760   7.950
 7432POPC   C4B39982  33.707  15.760   7.650
 7433POPC   NC339983   6.676  39.264   9.450
 7433POPC   PO439984   6.648  39.226   9.150
 7433POPC   GL139985   6.606  39.213   8.850
 7433POPC   GL239986   6.745  39.360   8.850
 7433POPC   C1A39987   6.641  39.226   8.550
 7433POPC   D2A39988   6.677  39.270   8.250
 7433POPC   C3A39989   6.654  39.218   7.950
 7433POPC   C4A39990   6.665  39.209   7.650
 7433POPC   C1B39991   6.735  39.406   8.550
 7433POPC   C2B39992   6.781  39.481   8.250
 7433POPC   C3B39993   6.805  39.408   7.950
 7433POPC   C4B39994   6.774  39.394   7.650
 7434POPC   NC339995   1.247  30.721   9.450
 7434POPC   PO439996   1.255  30.699   9.150
 7434POPC   GL139997   1.200  30.720   8.850
 7434POPC   GL239998   1.167  30.633   8.850
 7434POPC   C1A39999   1.167  30.735   8.550
 7434POPC   D2A40000   1.167  30.735   8.250
 7434POPC   C3A40001   1.182  30.713   7.950
 7434POPC   C4A40002   1.253  30.647   7.650
 7434POPC   C1B40003   1.112  30.514   8.550
 7434POPC   C2B40004   1.061  30.476   8.250
 7434POPC   C3B40005   1.107  30.500   7.950
 7434POPC   C4B40006   1.098  30.515   7.650
 7435POPC   NC340007  26.022   8.246   9.450
 7435POPC   PO440008  25.999   8.173   9.150
 7435POPC   GL140009  26.015   8.157   8.850
 7435POPC   GL240010  26.135   8.300   8.850
 7435POPC   C1A40011  26.036   8.183   8.550
 7435POPC   D2A40012  25.999   8.208   8.250
 7435POPC   C3A40013  26.041   8.199   7.950
 7435POPC   C4A40014  26.087   8.217   7.650
 7435POPC   C1B40015  26.191   8.408   8.550
 7435POPC   C2B40016  26.130   8.453   8.250
 7435POPC   C3B40017  26.209   8.407   7.950
 7435POPC   C4B40018  26.170   8.387   7.650
 7436POPC   NC340019  36.904   3.500   9.450
 7436POPC   PO440020  36.874   3.513   9.150
 7436POPC   GL140021  36.925   3.510   8.850
 7436POPC   GL240022  36.923   3.662   8.850
 7436POPC   C1A40023  36.856   3.519   8.550
 7436POPC   D2A40024  36.936   3.502   8.250
 7436POPC   C3A40025  36.921   3.538   7.950
 7436POPC   C4A40026  36.898   3.532   7.650
 7436POPC   C1B40027  36.932   3.780   8.550
 7436POPC   C2B40028  36.905   3.808   8.250
 7436POPC   C3B40029  36.911   3.833   7.950
 7436POPC   C4B40030  36.951   3.816   7.650
 7437POPC   NC340031  28.389  44.686   9.450
 7437POPC   PO440032  28.390  44.630   9.150
 7437POPC   GL140033  28.331  44.677   8.850
 7437POPC   GL240034  28.328  44.586   8.850
 7437POPC   C1A40035  28.355  44.614   8.550
 7437POPC   D2A40036  28.395  44.708   8.250
 7437POPC   C3A40037  28.343  44.673   7.950
 7437POPC   C4A40038  28.370  44.636   7.650
 7437POPC   C1B40039  28.196  44.444   8.550
 7437POPC   C2B40040  28.165  44.479   8.250
 7437POPC   C3B40041  28.245  44.517   7.950
 7437POPC   C4B40042  28.190  44.446   7.650
 7438POPC   NC340043  31.484   7.405   9.450
 7438POPC   PO440044  31.485   7.387   9.150
 7438POPC   GL140045  31.503   7.427   8.850
 7438POPC   GL240046  31.331   7.426   8.850
 7438POPC   C1A40047  31.444   7.419   8.550
 7438POPC   D2A40048  31.462   7.425   8.250
 7438POPC   C3A40049  31.461   7.424   7.950
 7438POPC   C4A40050  31.447   7.379   7.650
 7438POPC   C1B40051  31.181   7.345   8.550
 7438POPC   C2B40052  31.274   7.322   8.250
 7438POPC   C3B40053  31.223   7.375   7.950
 7438POPC   C4B40054  31.260   7.360   7.650
 7439POPC   NC340055  35.385  20.596   9.450
 7439POPC   PO440056  35.372  20.591   9.150
 7439POPC   GL140057  35.310  20.593   8.850
 7439POPC   GL240058  35.496  20.697   8.850
 7439POPC   C1A40059  35.358  20.627   8.550
 7439POPC   D2A40060  35.348  20.657   8.250
 7439POPC   C3A40061  35.356  20.573   7.950
 7439POPC   C4A40062  35.349  20.633   7.650
 7439POPC   C1B40063  35.617  20.710   8.550
 7439POPC   C2B40064  35.585  20.728   8.250
 7439POPC   C3B40065  35.571  20.720   7.950
 7439POPC   C4B40066  35.606  20.694   7.650
 7440POPC   NC340067  19.057  11.304   9.450
 7440POPC   PO440068  19.097  11.303   9.150
 7440POPC   GL140069  19.087  11.278   8.850
 7440POPC   GL240070  18.963  11.382   8.850
 7440POPC   C1A40071  19.098  11.267   8.550
 7440POPC   D2A40072  19.068  11.254   8.250
 7440POPC   C3A40073  19.047  11.280   7.950
 7440POPC   C4A40074  19.056  11.285   7.650
 7440POPC   C1B40075  18.856  11.343   8.550
 7440POPC   C2B40076  18.772  11.420   8.250
 7440POPC   C3B40077  18.813  11.418   7.950
 7440POPC   C4B40078  18.857  11.372   7.650
 7441POPC   NC340079  26.014  37.630   9.450
 7441POPC   PO440080  26.001  37.721   9.150
 7441POPC   GL140081  26.033  37.673   8.850
 7441POPC   GL240082  25.964  37.652   8.850
 7441POPC   C1A40083  26.039  37.638   8.550
 7441POPC   D2A40084  26.087  37.632   8.250
 7441POPC   C3A40085  26.087  37.650   7.950
 7441POPC   C4A40086  25.995  37.714   7.650
 7441POPC   C1B40087  25.818  37.757   8.550
 7441POPC   C2B40088  25.756  37.697   8.250
 7441POPC   C3B40089  25.828  37.731   7.950
 7441POPC   C4B40090  25.841  37.664   7.650
 7442POPC   NC340091  44.681   3.551   9.450
 7442POPC   PO440092  44.654   3.541   9.150
 7442POPC   GL140093  44.700   3.507   8.850
 7442POPC   GL240094  44.829   3.498   8.850
 7442POPC   C1A40095  44.672   3.563   8.550
 7442POPC   D2A40096  44.636   3.561   8.250
 7442POPC   C3A40097  44.653   3.546   7.950
 7442POPC   C4A40098  44.612   3.535   7.650
 7442POPC   C1B40099  44.870   3.451   8.550
 7442POPC   C2B40100  44.910   3.463   8.250
 7442POPC   C3B40101  44.936   3.444   7.950
 7442POPC   C4B40102  44.919   3.500   7.650
 7443POPC   NC340103  22.131  17.537   9.450
 7443POPC   PO440104  22.194  17.469   9.150
 7443POPC   GL140105  22.157  17.509   8.850
 7443POPC   GL240106  22.256  17.605   8.850
 7443POPC   C1A40107  22.141  17.547   8.550
 7443POPC   D2A40108  22.207  17.493   8.250
 7443POPC   C3A40109  22.175  17.481   7.950
 7443POPC   C4A40110  22.153  17.507   7.650
 7443POPC   C1B40111  22.311  17.764   8.550
 7443POPC   C2B40112  22.230  17.724   8.250
 7443POPC   C3B40113  22.326  17.685   7.950
 7443POPC   C4B40114  22.274  17.722   7.650
 7444POPC   NC340115  20.635  16.685   9.450
 7444POPC   PO440116  20.614  16.704   9.150
 7444POPC   GL140117  20.601  16.781   8.850
 7444POPC   GL240118  20.762  16.655   8.850
 7444POPC   C1A40119  20.592  16.723   8.550
 7444POPC   D2A40120  20.655  16.714   8.250
 7444POPC   C3A40121  20.633  16.691   7.950
 7444POPC   C4A40122  20.616  16.713   7.650
 7444POPC   C1B40123  20.814  16.593   8.550
 7444POPC   C2B40124  20.824  16.664   8.250
 7444POPC   C3B40125  20.816  16.617   7.950
 7444POPC   C4B40126  20.843  16.608   7.650
 7445POPC   NC340127  18.327  20.586   9.450
 7445POPC   PO440128  18.236  20.655   9.150
 7445POPC   GL140129  18.268  20.576   8.850
 7445POPC   GL240130  18.278  20.693   8.850
 7445POPC   C1A40131  18.306  20.588   8.550
 7445POPC   D2A40132  18.234  20.611   8.250
 7445POPC   C3A40133  18.326  20.613   7.950
 7445POPC   C4A40134  18.284  20.595   7.650
 7445POPC   C1B40135  18.411  20.848   8.550
 7445POPC   C2B40136  18.383  20.831   8.250
 7445POPC   C3B40137  18.341  20.895   7.950
 7445POPC   C4B40138  18.371  20.809   7.650
 7446POPC   NC340139  43.925  28.415   9.450
 7446POPC   PO440140  43.874  28.329   9.150
 7446POPC   GL140141  43.901  28.396   8.850
 7446POPC   GL240142  43.854  28.276   8.850
 7446POPC   C1A40143  43.935  28.346   8.550
 7446POPC   D2A40144  43.895  28.355   8.250
 7446POPC   C3A40145  43.866  28.352   7.950
 7446POPC   C4A40146  43.884  28.410   7.650
 7446POPC   C1B40147  43.749  28.109   8.550
 7446POPC   C2B40148  43.808  28.110   8.250
 7446POPC   C3B40149  43.792  28.130   7.950
 7446POPC   C4B40150  43.728  28.121   7.650
 7447POPC   NC340151  22.139  15.193   9.450
 7447POPC   PO440152  22.174  15.216   9.150
 7447POPC   GL140153  22.123  15.144   8.850
 7447POPC   GL240154  22.165  15.332   8.850
 7447POPC   C1A40155  22.120  15.155   8.550
 7447POPC   D2A40156  22.199  15.139   8.250
 7447POPC   C3A40157  22.178  15.209   7.950
 7447POPC   C4A40158  22.140  15.205   7.650
 7447POPC   C1B40159  22.102  15.392   8.550
 7447POPC   C2B40160  22.070  15.407   8.250
 7447POPC   C3B40161  22.118  15.411   7.950
 7447POPC   C4B40162  22.085  15.418   7.650
 7448POPC   NC340163  18.287  39.181   9.450
 7448POPC   PO440164  18.287  39.262   9.150
 7448POPC   GL140165  18.271  39.264   8.850
 7448POPC   GL240166  18.249  39.137   8.850
 7448POPC   C1A40167  18.286  39.248   8.550
 7448POPC   D2A40168  18.246  39.243   8.250
 7448POPC   C3A40169  18.300  39.247   7.950
 7448POPC   C4A40170  18.322  39.222   7.650
 7448POPC   C1B40171  18.188  39.018   8.550
 7448POPC   C2B40172  18.112  38.982   8.250
 7448POPC   C3B40173  18.150  39.059   7.950
 7448POPC   C4B40174  18.123  39.013   7.650
 7449POPC   NC340175  41.544   1.986   9.450
 7449POPC   PO440176  41.554   2.000   9.150
 7449POPC   GL140177  41.518   2.023   8.850
 7449POPC   GL240178  41.717   1.955   8.850
 7449POPC   C1A40179  41.594   1.955   8.550
 7449POPC   D2A40180  41.553   1.957   8.250
 7449POPC   C3A40181  41.579   1.999   7.950
 7449POPC   C4A40182  41.543   1.982   7.650
 7449POPC   C1B40183  41.787   1.881   8.550
 7449POPC   C2B40184  41.831   1.975   8.250
 7449POPC   C3B40185  41.784   1.965   7.950
 7449POPC   C4B40186  41.801   1.904   7.650
 7450POPC   NC340187   0.487  13.659   9.450
 7450POPC   PO440188   0.426  13.599   9.150
 7450POPC   GL140189   0.402  13.648   8.850
 7450POPC   GL240190   0.287  13.658   8.850
 7450POPC   C1A40191   0.412  13.639   8.550
 7450POPC   D2A40192   0.462  13.630   8.250
 7450POPC   C3A40193   0.407  13.596   7.950
 7450POPC   C4A40194   0.467  13.600   7.650
 7450POPC   C1B40195   0.244  13.733   8.550
 7450POPC   C2B40196   0.167  13.768   8.250
 7450POPC   C3B40197   0.173  13.780   7.950
 7450POPC   C4B40198   0.183  13.760   7.650
 7451POPC   NC340199   1.209   5.115   9.450
 7451POPC   PO440200   1.256   5.052   9.150
 7451POPC   GL140201   1.188   5.109   8.850
 7451POPC   GL240202   1.194   4.964   8.850
 7451POPC   C1A40203   1.218   5.065   8.550
 7451POPC   D2A40204   1.208   5.053   8.250
 7451POPC   C3A40205   1.235   5.099   7.950
 7451POPC   C4A40206   1.210   5.136   7.650
 7451POPC   C1B40207   1.064   4.853   8.550
 7451POPC   C2B40208   1.104   4.908   8.250
 7451POPC   C3B40209   1.075   4.868   7.950
 7451POPC   C4B40210   1.059   4.862   7.650
 7452POPC   NC340211   9.709  39.966   9.450
 7452POPC   PO440212   9.715  40.010   9.150
 7452POPC   GL140213   9.751  39.999   8.850
 7452POPC   GL240214   9.865  40.061   8.850
 7452POPC   C1A40215   9.702  39.980   8.550
 7452POPC   D2A40216   9.705  39.980   8.250
 7452POPC   C3A40217   9.752  39.998   7.950
 7452POPC   C4A40218   9.793  39.959   7.650
 7452POPC   C1B40219   9.925  40.114   8.550
 7452POPC   C2B40220   9.903  40.143   8.250
 7452POPC   C3B40221   9.975  40.194   7.950
 7452POPC   C4B40222   9.961  40.197   7.650
 7453POPC   NC340223  36.120  30.722   9.450
 7453POPC   PO440224  36.079  30.680   9.150
 7453POPC   GL140225  36.148  30.740   8.850
 7453POPC   GL240226  36.214  30.761   8.850
 7453POPC   C1A40227  36.155  30.693   8.550
 7453POPC   D2A40228  36.081  30.648   8.250
 7453POPC   C3A40229  36.143  30.665   7.950
 7453POPC   C4A40230  36.126  30.741   7.650
 7453POPC   C1B40231  36.395  30.787   8.550
 7453POPC   C2B40232  36.385  30.809   8.250
 7453POPC   C3B40233  36.402  30.749   7.950
 7453POPC   C4B40234  36.358  30.798   7.650
 7454POPC   NC340235  22.191  33.800   9.450
 7454POPC   PO440236  22.128  33.815   9.150
 7454POPC   GL140237  22.132  33.818   8.850
 7454POPC   GL240238  22.274  33.739   8.850
 7454POPC   C1A40239  22.208  33.779   8.550
 7454POPC   D2A40240  22.127  33.804   8.250
 7454POPC   C3A40241  22.112  33.820   7.950
 7454POPC   C4A40242  22.126  33.805   7.650
 7454POPC   C1B40243  22.309  33.603   8.550
 7454POPC   C2B40244  22.385  33.575   8.250
 7454POPC   C3B40245  22.297  33.583   7.950
 7454POPC   C4B40246  22.304  33.636   7.650
 7455POPC   NC340247  11.322  12.121   9.450
 7455POPC   PO440248  11.257  12.101   9.150
 7455POPC   GL140249  11.267  12.027   8.850
 7455POPC   GL240250  11.382  11.994   8.850
 7455POPC   C1A40251  11.272  12.101   8.550
 7455POPC   D2A40252  11.284  12.079   8.250
 7455POPC   C3A40253  11.294  12.044   7.950
 7455POPC   C4A40254  11.297  12.030   7.650
 7455POPC   C1B40255  11.411  11.836   8.550
 7455POPC   C2B40256  11.380  11.848   8.250
 7455POPC   C3B40257  11.382  11.836   7.950
 7455POPC   C4B40258  11.362  11.866   7.650
 7456POPC   NC340259   2.779  15.221   9.450
 7456POPC   PO440260   2.749  15.158   9.150
 7456POPC   GL140261   2.733  15.175   8.850
 7456POPC   GL240262   2.640  15.231   8.850
 7456POPC   C1A40263   2.744  15.198   8.550
 7456POPC   D2A40264   2.751  15.170   8.250
 7456POPC   C3A40265   2.780  15.170   7.950
 7456POPC   C4A40266   2.792  15.211   7.650
 7456POPC   C1B40267   2.583  15.322   8.550
 7456POPC   C2B40268   2.556  15.300   8.250
 7456POPC   C3B40269   2.514  15.268   7.950
 7456POPC   C4B40270   2.601  15.322   7.650
 7457POPC   NC340271  19.883  21.397   9.450
 7457POPC   PO440272  19.857  21.348   9.150
 7457POPC   GL140273  19.865  21.393   8.850
 7457POPC   GL240274  19.720  21.304   8.850
 7457POPC   C1A40275  19.871  21.358   8.550
 7457POPC   D2A40276  19.815  21.375   8.250
 7457POPC   C3A40277  19.813  21.430   7.950
 7457POPC   C4A40278  19.819  21.405   7.650
 7457POPC   C1B40279  19.732  21.176   8.550
 7457POPC   C2B40280  19.656  21.160   8.250
 7457POPC   C3B40281  19.664  21.177   7.950
 7457POPC   C4B40282  19.672  21.236   7.650
 7458POPC   NC340283  25.297  18.324   9.450
 7458POPC   PO440284  25.218  18.257   9.150
 7458POPC   GL140285  25.257  18.276   8.850
 7458POPC   GL240286  25.220  18.445   8.850
 7458POPC   C1A40287  25.268  18.247   8.550
 7458POPC   D2A40288  25.266  18.287   8.250
 7458POPC   C3A40289  25.285  18.309   7.950
 7458POPC   C4A40290  25.244  18.317   7.650
 7458POPC   C1B40291  25.249  18.573   8.550
 7458POPC   C2B40292  25.237  18.534   8.250
 7458POPC   C3B40293  25.178  18.575   7.950
 7458POPC   C4B40294  25.212  18.513   7.650
 7459POPC   NC340295  35.401   1.953   9.450
 7459POPC   PO440296  35.368   1.950   9.150
 7459POPC   GL140297  35.393   1.954   8.850
 7459POPC   GL240298  35.471   1.993   8.850
 7459POPC   C1A40299  35.389   1.984   8.550
 7459POPC   D2A40300  35.310   1.983   8.250
 7459POPC   C3A40301  35.394   2.012   7.950
 7459POPC   C4A40302  35.323   2.016   7.650
 7459POPC   C1B40303  35.603   1.975   8.550
 7459POPC   C2B40304  35.615   1.938   8.250
 7459POPC   C3B40305  35.583   1.938   7.950
 7459POPC   C4B40306  35.558   1.928   7.650
 7460POPC   NC340307   7.419  12.883   9.450
 7460POPC   PO440308   7.375  12.868   9.150
 7460POPC   GL140309   7.393  12.888   8.850
 7460POPC   GL240310   7.553  12.833   8.850
 7460POPC   C1A40311   7.402  12.845   8.550
 7460POPC   D2A40312   7.424  12.813   8.250
 7460POPC   C3A40313   7.411  12.840   7.950
 7460POPC   C4A40314   7.452  12.824   7.650
 7460POPC   C1B40315   7.619  12.739   8.550
 7460POPC   C2B40316   7.670  12.787   8.250
 7460POPC   C3B40317   7.662  12.705   7.950
 7460POPC   C4B40318   7.645  12.710   7.650
 7461POPC   NC340319  43.065   8.177   9.450
 7461POPC   PO440320  43.138   8.235   9.150
 7461POPC   GL140321  43.148   8.234   8.850
 7461POPC   GL240322  43.041   8.248   8.850
 7461POPC   C1A40323  43.155   8.182   8.550
 7461POPC   D2A40324  43.141   8.157   8.250
 7461POPC   C3A40325  43.129   8.179   7.950
 7461POPC   C4A40326  43.153   8.223   7.650
 7461POPC   C1B40327  42.889   8.268   8.550
 7461POPC   C2B40328  42.910   8.315   8.250
 7461POPC   C3B40329  42.904   8.272   7.950
 7461POPC   C4B40330  42.903   8.307   7.650
 7462POPC   NC340331  12.804  11.347   9.450
 7462POPC   PO440332  12.823  11.338   9.150
 7462POPC   GL140333  12.811  11.334   8.850
 7462POPC   GL240334  12.957  11.250   8.850
 7462POPC   C1A40335  12.865  11.277   8.550
 7462POPC   D2A40336  12.876  11.272   8.250
 7462POPC   C3A40337  12.816  11.321   7.950
 7462POPC   C4A40338  12.812  11.287   7.650
 7462POPC   C1B40339  13.044  11.268   8.550
 7462POPC   C2B40340  13.046  11.268   8.250
 7462POPC   C3B40341  13.131  11.260   7.950
 7462POPC   C4B40342  13.138  11.275   7.650
 7463POPC   NC340343   6.683  43.102   9.450
 7463POPC   PO440344   6.688  43.145   9.150
 7463POPC   GL140345   6.629  43.105   8.850
 7463POPC   GL240346   6.510  43.129   8.850
 7463POPC   C1A40347   6.616  43.151   8.550
 7463POPC   D2A40348   6.650  43.072   8.250
 7463POPC   C3A40349   6.622  43.140   7.950
 7463POPC   C4A40350   6.693  43.074   7.650
 7463POPC   C1B40351   6.393  43.125   8.550
 7463POPC   C2B40352   6.426  43.109   8.250
 7463POPC   C3B40353   6.431  43.091   7.950
 7463POPC   C4B40354   6.432  43.104   7.650
 7464POPC   NC340355  26.071  15.204   9.450
 7464POPC   PO440356  26.012  15.220   9.150
 7464POPC   GL140357  26.058  15.153   8.850
 7464POPC   GL240358  26.096  15.057   8.850
 7464POPC   C1A40359  26.016  15.193   8.550
 7464POPC   D2A40360  26.027  15.197   8.250
 7464POPC   C3A40361  26.091  15.189   7.950
 7464POPC   C4A40362  26.080  15.214   7.650
 7464POPC   C1B40363  26.100  14.917   8.550
 7464POPC   C2B40364  26.115  14.967   8.250
 7464POPC   C3B40365  26.081  14.896   7.950
 7464POPC   C4B40366  26.089  14.951   7.650
 7465POPC   NC340367  36.907  42.312   9.450
 7465POPC   PO440368  36.942  42.303   9.150
 7465POPC   GL140369  36.877  42.291   8.850
 7465POPC   GL240370  37.049  42.331   8.850
 7465POPC   C1A40371  36.929  42.373   8.550
 7465POPC   D2A40372  36.893  42.339   8.250
 7465POPC   C3A40373  36.879  42.367   7.950
 7465POPC   C4A40374  36.904  42.314   7.650
 7465POPC   C1B40375  37.084  42.216   8.550
 7465POPC   C2B40376  37.176  42.261   8.250
 7465POPC   C3B40377  37.113  42.226   7.950
 7465POPC   C4B40378  37.094  42.205   7.650
 7466POPC   NC340379  33.020  37.686   9.450
 7466POPC   PO440380  33.023  37.710   9.150
 7466POPC   GL140381  32.991  37.680   8.850
 7466POPC   GL240382  32.985  37.807   8.850
 7466POPC   C1A40383  33.014  37.671   8.550
 7466POPC   D2A40384  33.022  37.655   8.250
 7466POPC   C3A40385  33.022  37.666   7.950
 7466POPC   C4A40386  32.998  37.703   7.650
 7466POPC   C1B40387  32.999  37.928   8.550
 7466POPC   C2B40388  33.044  37.922   8.250
 7466POPC   C3B40389  33.053  37.891   7.950
 7466POPC   C4B40390  33.026  37.958   7.650
 7467POPC   NC340391  29.098  30.700   9.450
 7467POPC   PO440392  29.156  30.708   9.150
 7467POPC   GL140393  29.130  30.701   8.850
 7467POPC   GL240394  29.022  30.662   8.850
 7467POPC   C1A40395  29.123  30.729   8.550
 7467POPC   D2A40396  29.138  30.740   8.250
 7467POPC   C3A40397  29.126  30.740   7.950
 7467POPC   C4A40398  29.154  30.713   7.650
 7467POPC   C1B40399  28.980  30.519   8.550
 7467POPC   C2B40400  28.923  30.572   8.250
 7467POPC   C3B40401  28.920  30.569   7.950
 7467POPC   C4B40402  28.912  30.603   7.650
 7468POPC   NC340403  32.219  29.913   9.450
 7468POPC   PO440404  32.200  29.960   9.150
 7468POPC   GL140405  32.255  29.899   8.850
 7468POPC   GL240406  32.275  29.800   8.850
 7468POPC   C1A40407  32.265  29.924   8.550
 7468POPC   D2A40408  32.246  29.882   8.250
 7468POPC   C3A40409  32.211  29.908   7.950
 7468POPC   C4A40410  32.289  29.889   7.650
 7468POPC   C1B40411  32.208  29.653   8.550
 7468POPC   C2B40412  32.203  29.636   8.250
 7468POPC   C3B40413  32.226  29.706   7.950
 7468POPC   C4B40414  32.269  29.706   7.650
 7469POPC   NC340415  33.751  43.850   9.450
 7469POPC   PO440416  33.811  43.931   9.150
 7469POPC   GL140417  33.820  43.910   8.850
 7469POPC   GL240418  33.755  44.014   8.850
 7469POPC   C1A40419  33.841  43.884   8.550
 7469POPC   D2A40420  33.816  43.862   8.250
 7469POPC   C3A40421  33.835  43.874   7.950
 7469POPC   C4A40422  33.819  43.874   7.650
 7469POPC   C1B40423  33.635  44.090   8.550
 7469POPC   C2B40424  33.649  44.129   8.250
 7469POPC   C3B40425  33.654  44.094   7.950
 7469POPC   C4B40426  33.693  44.063   7.650
 7470POPC   NC340427  21.432  18.290   9.450
 7470POPC   PO440428  21.354  18.281   9.150
 7470POPC   GL140429  21.358  18.295   8.850
 7470POPC   GL240430  21.504  18.214   8.850
 7470POPC   C1A40431  21.434  18.264   8.550
 7470POPC   D2A40432  21.428  18.321   8.250
 7470POPC   C3A40433  21.428  18.284   7.950
 7470POPC   C4A40434  21.361  18.259   7.650
 7470POPC   C1B40435  21.628  18.102   8.550
 7470POPC   C2B40436  21.617  18.096   8.250
 7470POPC   C3B40437  21.634  18.159   7.950
 7470POPC   C4B40438  21.583  18.104   7.650
 7471POPC   NC340439  16.775  36.869   9.450
 7471POPC   PO440440  16.725  36.908   9.150
 7471POPC   GL140441  16.735  36.926   8.850
 7471POPC   GL240442  16.774  36.744   8.850
 7471POPC   C1A40443  16.682  36.916   8.550
 7471POPC   D2A40444  16.726  36.878   8.250
 7471POPC   C3A40445  16.756  36.879   7.950
 7471POPC   C4A40446  16.756  36.901   7.650
 7471POPC   C1B40447  16.836  36.686   8.550
 7471POPC   C2B40448  16.858  36.661   8.250
 7471POPC   C3B40449  16.889  36.692   7.950
 7471POPC   C4B40450  16.838  36.720   7.650
 7472POPC   NC340451   1.169   4.352   9.450
 7472POPC   PO440452   1.239   4.362   9.150
 7472POPC   GL140453   1.165   4.325   8.850
 7472POPC   GL240454   1.277   4.234   8.850
 7472POPC   C1A40455   1.171   4.284   8.550
 7472POPC   D2A40456   1.168   4.273   8.250
 7472POPC   C3A40457   1.263   4.333   7.950
 7472POPC   C4A40458   1.218   4.362   7.650
 7472POPC   C1B40459   1.383   4.180   8.550
 7472POPC   C2B40460   1.390   4.087   8.250
 7472POPC   C3B40461   1.417   4.099   7.950
 7472POPC   C4B40462   1.388   4.158   7.650
 7473POPC   NC340463  25.280   8.171   9.450
 7473POPC   PO440464  25.271   8.168   9.150
 7473POPC   GL140465  25.253   8.162   8.850
 7473POPC   GL240466  25.385   8.219   8.850
 7473POPC   C1A40467  25.242   8.189   8.550
 7473POPC   D2A40468  25.309   8.207   8.250
 7473POPC   C3A40469  25.258   8.157   7.950
 7473POPC   C4A40470  25.280   8.157   7.650
 7473POPC   C1B40471  25.506   8.259   8.550
 7473POPC   C2B40472  25.528   8.274   8.250
 7473POPC   C3B40473  25.525   8.198   7.950
 7473POPC   C4B40474  25.541   8.235   7.650
 7474POPC   NC340475   8.925  18.235   9.450
 7474POPC   PO440476   8.929  18.234   9.150
 7474POPC   GL140477   8.950  18.323   8.850
 7474POPC   GL240478   9.027  18.184   8.850
 7474POPC   C1A40479   8.992  18.253   8.550
 7474POPC   D2A40480   8.934  18.252   8.250
 7474POPC   C3A40481   9.019  18.319   7.950
 7474POPC   C4A40482   8.961  18.331   7.650
 7474POPC   C1B40483   9.133  18.171   8.550
 7474POPC   C2B40484   9.152  18.090   8.250
 7474POPC   C3B40485   9.127  18.126   7.950
 7474POPC   C4B40486   9.168  18.158   7.650
 7475POPC   NC340487  33.823  19.106   9.450
 7475POPC   PO440488  33.791  19.070   9.150
 7475POPC   GL140489  33.828  19.075   8.850
 7475POPC   GL240490  33.774  18.902   8.850
 7475POPC   C1A40491  33.849  19.026   8.550
 7475POPC   D2A40492  33.787  19.044   8.250
 7475POPC   C3A40493  33.831  19.060   7.950
 7475POPC   C4A40494  33.814  19.054   7.650
 7475POPC   C1B40495  33.778  18.802   8.550
 7475POPC   C2B40496  33.793  18.796   8.250
 7475POPC   C3B40497  33.814  18.820   7.950
 7475POPC   C4B40498  33.816  18.812   7.650
 7476POPC   NC340499   0.449   1.211   9.450
 7476POPC   PO440500   0.400   1.222   9.150
 7476POPC   GL140501   0.418   1.205   8.850
 7476POPC   GL240502   0.551   1.110   8.850
 7476POPC   C1A40503   0.434   1.184   8.550
 7476POPC   D2A40504   0.394   1.172   8.250
 7476POPC   C3A40505   0.432   1.200   7.950
 7476POPC   C4A40506   0.437   1.209   7.650
 7476POPC   C1B40507   0.623   1.021   8.550
 7476POPC   C2B40508   0.639   1.026   8.250
 7476POPC   C3B40509   0.624   1.080   7.950
 7476POPC   C4B40510   0.614   1.048   7.650
 7477POPC   NC340511   8.181  26.832   9.450
 7477POPC   PO440512   8.161  26.836   9.150
 7477POPC   GL140513   8.202  26.862   8.850
 7477POPC   GL240514   8.223  26.741   8.850
 7477POPC   C1A40515   8.226  26.772   8.550
 7477POPC   D2A40516   8.233  26.810   8.250
 7477POPC   C3A40517   8.161  26.783   7.950
 7477POPC   C4A40518   8.203  26.812   7.650
 7477POPC   C1B40519   8.301  26.587   8.550
 7477POPC   C2B40520   8.238  26.546   8.250
 7477POPC   C3B40521   8.273  26.533   7.950
 7477POPC   C4B40522   8.243  26.559   7.650
 7478POPC   NC340523  42.368   4.346   9.450
 7478POPC   PO440524  42.380   4.305   9.150
 7478POPC   GL140525  42.349   4.305   8.850
 7478POPC   GL240526  42.227   4.210   8.850
 7478POPC   C1A40527  42.373   4.351   8.550
 7478POPC   D2A40528  42.371   4.347   8.250
 7478POPC   C3A40529  42.312   4.336   7.950
 7478POPC   C4A40530  42.384   4.309   7.650
 7478POPC   C1B40531  42.133   4.120   8.550
 7478POPC   C2B40532  42.140   4.132   8.250
 7478POPC   C3B40533  42.217   4.166   7.950
 7478POPC   C4B40534  42.142   4.123   7.650
 7479POPC   NC340535   3.556  10.497   9.450
 7479POPC   PO440536   3.556  10.484   9.150
 7479POPC   GL140537   3.556  10.524   8.850
 7479POPC   GL240538   3.625  10.457   8.850
 7479POPC   C1A40539   3.551  10.480   8.550
 7479POPC   D2A40540   3.498  10.548   8.250
 7479POPC   C3A40541   3.528  10.487   7.950
 7479POPC   C4A40542   3.590  10.511   7.650
 7479POPC   C1B40543   3.703  10.363   8.550
 7479POPC   C2B40544   3.693  10.404   8.250
 7479POPC   C3B40545   3.747  10.348   7.950
 7479POPC   C4B40546   3.684  10.338   7.650
 7480POPC   NC340547  11.327   8.183   9.450
 7480POPC   PO440548  11.268   8.220   9.150
 7480POPC   GL140549  11.319   8.242   8.850
 7480POPC   GL240550  11.397   8.241   8.850
 7480POPC   C1A40551  11.273   8.241   8.550
 7480POPC   D2A40552  11.313   8.176   8.250
 7480POPC   C3A40553  11.258   8.213   7.950
 7480POPC   C4A40554  11.280   8.147   7.650
 7480POPC   C1B40555  11.508   8.340   8.550
 7480POPC   C2B40556  11.503   8.379   8.250
 7480POPC   C3B40557  11.514   8.397   7.950
 7480POPC   C4B40558  11.471   8.344   7.650
 7481POPC   NC340559  37.645   6.626   9.450
 7481POPC   PO440560  37.715   6.606   9.150
 7481POPC   GL140561  37.667   6.682   8.850
 7481POPC   GL240562  37.630   6.757   8.850
 7481POPC   C1A40563  37.691   6.667   8.550
 7481POPC   D2A40564  37.725   6.661   8.250
 7481POPC   C3A40565  37.658   6.639   7.950
 7481POPC   C4A40566  37.668   6.689   7.650
 7481POPC   C1B40567  37.604   6.884   8.550
 7481POPC   C2B40568  37.590   6.930   8.250
 7481POPC   C3B40569  37.668   6.899   7.950
 7481POPC   C4B40570  37.606   6.885   7.650
 7482POPC   NC340571  21.338  14.432   9.450
 7482POPC   PO440572  21.347  14.420   9.150
 7482POPC   GL140573  21.406  14.399   8.850
 7482POPC   GL240574  21.471  14.341   8.850
 7482POPC   C1A40575  21.356  14.411   8.550
 7482POPC   D2A40576  21.372  14.437   8.250
 7482POPC   C3A40577  21.434  14.427   7.950
 7482POPC   C4A40578  21.414  14.380   7.650
 7482POPC   C1B40579  21.659  14.347   8.550
 7482POPC   C2B40580  21.597  14.306   8.250
 7482POPC   C3B40581  21.672  14.346   7.950
 7482POPC   C4B40582  21.628  14.370   7.650
 7483POPC   NC340583  29.904  20.585   9.450
 7483POPC   PO440584  29.916  20.570   9.150
 7483POPC   GL140585  29.931  20.566   8.850
 7483POPC   GL240586  29.799  20.735   8.850
 7483POPC   C1A40587  29.884  20.569   8.550
 7483POPC   D2A40588  29.897  20.623   8.250
 7483POPC   C3A40589  29.960  20.576   7.950
 7483POPC   C4A40590  29.893  20.621   7.650
 7483POPC   C1B40591  29.760  20.834   8.550
 7483POPC   C2B40592  29.796  20.826   8.250
 7483POPC   C3B40593  29.806  20.804   7.950
 7483POPC   C4B40594  29.750  20.821   7.650
 7484POPC   NC340595  25.312   0.476   9.450
 7484POPC   PO440596  25.237   0.446   9.150
 7484POPC   GL140597  25.243   0.399   8.850
 7484POPC   GL240598  25.202   0.366   8.850
 7484POPC   C1A40599  25.249   0.431   8.550
 7484POPC   D2A40600  25.286   0.410   8.250
 7484POPC   C3A40601  25.247   0.460   7.950
 7484POPC   C4A40602  25.267   0.417   7.650
 7484POPC   C1B40603  25.063   0.365   8.550
 7484POPC   C2B40604  25.039   0.302   8.250
 7484POPC   C3B40605  24.997   0.272   7.950
 7484POPC   C4B40606  25.090   0.337   7.650
 7485POPC   NC340607  36.897  16.685   9.450
 7485POPC   PO440608  36.931  16.740   9.150
 7485POPC   GL140609  36.923  16.753   8.850
 7485POPC   GL240610  36.742  16.767   8.850
 7485POPC   C1A40611  36.896  16.716   8.550
 7485POPC   D2A40612  36.922  16.755   8.250
 7485POPC   C3A40613  36.910  16.705   7.950
 7485POPC   C4A40614  36.947  16.743   7.650
 7485POPC   C1B40615  36.659  16.812   8.550
 7485POPC   C2B40616  36.705  16.862   8.250
 7485POPC   C3B40617  36.721  16.885   7.950
 7485POPC   C4B40618  36.681  16.883   7.650
 7486POPC   NC340619  29.874   2.034   9.450
 7486POPC   PO440620  29.871   2.008   9.150
 7486POPC   GL140621  29.968   1.959   8.850
 7486POPC   GL240622  29.833   2.015   8.850
 7486POPC   C1A40623  29.932   1.983   8.550
 7486POPC   D2A40624  29.965   2.024   8.250
 7486POPC   C3A40625  29.935   2.018   7.950
 7486POPC   C4A40626  29.944   1.940   7.650
 7486POPC   C1B40627  29.699   2.112   8.550
 7486POPC   C2B40628  29.644   2.088   8.250
 7486POPC   C3B40629  29.694   2.104   7.950
 7486POPC   C4B40630  29.634   2.091   7.650
 7487POPC   NC340631  33.046   5.125   9.450
 7487POPC   PO440632  32.977   5.072   9.150
 7487POPC   GL140633  33.072   5.044   8.850
 7487POPC   GL240634  33.155   5.108   8.850
 7487POPC   C1A40635  33.042   5.116   8.550
 7487POPC   D2A40636  33.013   5.069   8.250
 7487POPC   C3A40637  32.981   5.120   7.950
 7487POPC   C4A40638  33.061   5.098   7.650
 7487POPC   C1B40639  33.227   5.179   8.550
 7487POPC   C2B40640  33.232   5.253   8.250
 7487POPC   C3B40641  33.228   5.198   7.950
 7487POPC   C4B40642  33.219   5.167   7.650
 7488POPC   NC340643  37.667  19.085   9.450
 7488POPC   PO440644  37.709  19.033   9.150
 7488POPC   GL140645  37.644  19.042   8.850
 7488POPC   GL240646  37.685  18.980   8.850
 7488POPC   C1A40647  37.714  19.108   8.550
 7488POPC   D2A40648  37.717  19.083   8.250
 7488POPC   C3A40649  37.689  19.030   7.950
 7488POPC   C4A40650  37.670  19.067   7.650
 7488POPC   C1B40651  37.661  18.841   8.550
 7488POPC   C2B40652  37.633  18.811   8.250
 7488POPC   C3B40653  37.663  18.797   7.950
 7488POPC   C4B40654  37.660  18.839   7.650
 7489POPC   NC340655  34.592  13.588   9.450
 7489POPC   PO440656  34.557  13.619   9.150
 7489POPC   GL140657  34.585  13.647   8.850
 7489POPC   GL240658  34.499  13.658   8.850
 7489POPC   C1A40659  34.555  13.602   8.550
 7489POPC   D2A40660  34.538  13.597   8.250
 7489POPC   C3A40661  34.599  13.676   7.950
 7489POPC   C4A40662  34.556  13.651   7.650
 7489POPC   C1B40663  34.372  13.815   8.550
 7489POPC   C2B40664  34.411  13.818   8.250
 7489POPC   C3B40665  34.360  13.747   7.950
 7489POPC   C4B40666  34.353  13.774   7.650
 7490POPC   NC340667  32.235  39.232   9.450
 7490POPC   PO440668  32.279  39.214   9.150
 7490POPC   GL140669  32.270  39.218   8.850
 7490POPC   GL240670  32.149  39.341   8.850
 7490POPC   C1A40671  32.200  39.206   8.550
 7490POPC   D2A40672  32.224  39.210   8.250
 7490POPC   C3A40673  32.288  39.252   7.950
 7490POPC   C4A40674  32.291  39.194   7.650
 7490POPC   C1B40675  32.035  39.432   8.550
 7490POPC   C2B40676  32.042  39.358   8.250
 7490POPC   C3B40677  32.069  39.377   7.950
 7490POPC   C4B40678  32.021  39.365   7.650
 7491POPC   NC340679  29.158  31.499   9.450
 7491POPC   PO440680  29.115  31.462   9.150
 7491POPC   GL140681  29.110  31.498   8.850
 7491POPC   GL240682  29.292  31.494   8.850
 7491POPC   C1A40683  29.172  31.443   8.550
 7491POPC   D2A40684  29.175  31.440   8.250
 7491POPC   C3A40685  29.181  31.430   7.950
 7491POPC   C4A40686  29.122  31.424   7.650
 7491POPC   C1B40687  29.345  31.474   8.550
 7491POPC   C2B40688  29.438  31.550   8.250
 7491POPC   C3B40689  29.380  31.521   7.950
 7491POPC   C4B40690  29.412  31.547   7.650
 7492POPC   NC340691  12.836  26.802   9.450
 7492POPC   PO440692  12.865  26.792   9.150
 7492POPC   GL140693  12.879  26.839   8.850
 7492POPC   GL240694  12.776  26.718   8.850
 7492POPC   C1A40695  12.807  26.819   8.550
 7492POPC   D2A40696  12.858  26.794   8.250
 7492POPC   C3A40697  12.863  26.799   7.950
 7492POPC   C4A40698  12.897  26.778   7.650
 7492POPC   C1B40699  12.651  26.717   8.550
 7492POPC   C2B40700  12.626  26.706   8.250
 7492POPC   C3B40701  12.618  26.690   7.950
 7492POPC   C4B40702  12.645  26.660   7.650
 7493POPC   NC340703  31.508   0.407   9.450
 7493POPC   PO440704  31.441   0.469   9.150
 7493POPC   GL140705  31.434   0.422   8.850
 7493POPC   GL240706  31.535   0.337   8.850
 7493POPC   C1A40707  31.519   0.458   8.550
 7493POPC   D2A40708  31.434   0.422   8.250
 7493POPC   C3A40709  31.461   0.473   7.950
 7493POPC   C4A40710  31.424   0.451   7.650
 7493POPC   C1B40711  31.683   0.319   8.550
 7493POPC   C2B40712  31.664   0.284   8.250
 7493POPC   C3B40713  31.633   0.240   7.950
 7493POPC   C4B40714  31.704   0.273   7.650
 7494POPC   NC340715  34.604  39.220   9.450
 7494POPC   PO440716  34.574  39.277   9.150
 7494POPC   GL140717  34.565  39.181   8.850
 7494POPC   GL240718  34.506  39.350   8.850
 7494POPC   C1A40719  34.559  39.246   8.550
 7494POPC   D2A40720  34.564  39.255   8.250
 7494POPC   C3A40721  34.527  39.219   7.950
 7494POPC   C4A40722  34.534  39.245   7.650
 7494POPC   C1B40723  34.453  39.452   8.550
 7494POPC   C2B40724  34.427  39.471   8.250
 7494POPC   C3B40725  34.414  39.435   7.950
 7494POPC   C4B40726  34.460  39.438   7.650
 7495POPC   NC340727  11.289  33.052   9.450
 7495POPC   PO440728  11.285  33.044   9.150
 7495POPC   GL140729  11.295  32.982   8.850
 7495POPC   GL240730  11.208  33.126   8.850
 7495POPC   C1A40731  11.332  32.996   8.550
 7495POPC   D2A40732  11.265  33.031   8.250
 7495POPC   C3A40733  11.293  32.999   7.950
 7495POPC   C4A40734  11.349  33.040   7.650
 7495POPC   C1B40735  11.118  33.164   8.550
 7495POPC   C2B40736  11.093  33.254   8.250
 7495POPC   C3B40737  11.177  33.251   7.950
 7495POPC   C4B40738  11.120  33.214   7.650
 7496POPC   NC340739  35.347   8.240   9.450
 7496POPC   PO440740  35.354   8.239   9.150
 7496POPC   GL140741  35.356   8.226   8.850
 7496POPC   GL240742  35.260   8.241   8.850
 7496POPC   C1A40743  35.368   8.171   8.550
 7496POPC   D2A40744  35.344   8.165   8.250
 7496POPC   C3A40745  35.339   8.236   7.950
 7496POPC   C4A40746  35.335   8.226   7.650
 7496POPC   C1B40747  35.100   8.217   8.550
 7496POPC   C2B40748  35.129   8.248   8.250
 7496POPC   C3B40749  35.093   8.212   7.950
 7496POPC   C4B40750  35.146   8.213   7.650
 7497POPC   NC340751   9.019  22.165   9.450
 7497POPC   PO440752   8.940  22.161   9.150
 7497POPC   GL140753   8.931  22.158   8.850
 7497POPC   GL240754   8.881  22.229   8.850
 7497POPC   C1A40755   8.985  22.149   8.550
 7497POPC   D2A40756   8.954  22.161   8.250
 7497POPC   C3A40757   9.001  22.204   7.950
 7497POPC   C4A40758   8.973  22.165   7.650
 7497POPC   C1B40759   8.753  22.324   8.550
 7497POPC   C2B40760   8.810  22.300   8.250
 7497POPC   C3B40761   8.826  22.323   7.950
 7497POPC   C4B40762   8.797  22.329   7.650
 7498POPC   NC340763  19.828  19.035   9.450
 7498POPC   PO440764  19.824  19.085   9.150
 7498POPC   GL140765  19.827  19.022   8.850
 7498POPC   GL240766  19.796  18.926   8.850
 7498POPC   C1A40767  19.798  19.044   8.550
 7498POPC   D2A40768  19.870  19.071   8.250
 7498POPC   C3A40769  19.846  19.020   7.950
 7498POPC   C4A40770  19.843  19.073   7.650
 7498POPC   C1B40771  19.780  18.776   8.550
 7498POPC   C2B40772  19.799  18.773   8.250
 7498POPC   C3B40773  19.747  18.777   7.950
 7498POPC   C4B40774  19.832  18.786   7.650
 7499POPC   NC340775  22.931  21.389   9.450
 7499POPC   PO440776  22.979  21.431   9.150
 7499POPC   GL140777  22.902  21.405   8.850
 7499POPC   GL240778  22.893  21.246   8.850
 7499POPC   C1A40779  22.939  21.405   8.550
 7499POPC   D2A40780  22.922  21.427   8.250
 7499POPC   C3A40781  22.918  21.435   7.950
 7499POPC   C4A40782  22.905  21.387   7.650
 7499POPC   C1B40783  22.835  21.126   8.550
 7499POPC   C2B40784  22.825  21.142   8.250
 7499POPC   C3B40785  22.876  21.136   7.950
 7499POPC   C4B40786  22.825  21.163   7.650
 7500POPC   NC340787   8.965  40.773   9.450
 7500POPC   PO440788   8.947  40.751   9.150
 7500POPC   GL140789   9.022  40.769   8.850
 7500POPC   GL240790   8.997  40.663   8.850
 7500POPC   C1A40791   8.965  40.823   8.550
 7500POPC   D2A40792   8.925  40.789   8.250
 7500POPC   C3A40793   8.935  40.735   7.950
 7500POPC   C4A40794   8.951  40.764   7.650
 7500POPC   C1B40795   9.019  40.512   8.550
 7500POPC   C2B40796   9.028  40.519   8.250
 7500POPC   C3B40797   9.044  40.544   7.950
 7500POPC   C4B40798   9.056  40.500   7.650
 7501POPC   NC340799  31.445   8.151   9.450
 7501POPC   PO440800  31.462   8.240   9.150
 7501POPC   GL140801  31.490   8.169   8.850
 7501POPC   GL240802  31.464   8.076   8.850
 7501POPC   C1A40803  31.476   8.236   8.550
 7501POPC   D2A40804  31.453   8.216   8.250
 7501POPC   C3A40805  31.446   8.152   7.950
 7501POPC   C4A40806  31.435   8.187   7.650
 7501POPC   C1B40807  31.412   7.902   8.550
 7501POPC   C2B40808  31.438   7.914   8.250
 7501POPC   C3B40809  31.417   7.955   7.950
 7501POPC   C4B40810  31.420   7.916   7.650
 7502POPC   NC340811  22.973   1.225   9.450
 7502POPC   PO440812  22.927   1.217   9.150
 7502POPC   GL140813  22.960   1.244   8.850
 7502POPC   GL240814  22.799   1.247   8.850
 7502POPC   C1A40815  22.908   1.173   8.550
 7502POPC   D2A40816  22.963   1.261   8.250
 7502POPC   C3A40817  22.986   1.204   7.950
 7502POPC   C4A40818  22.985   1.259   7.650
 7502POPC   C1B40819  22.754   1.389   8.550
 7502POPC   C2B40820  22.727   1.362   8.250
 7502POPC   C3B40821  22.722   1.336   7.950
 7502POPC   C4B40822  22.691   1.332   7.650
 7503POPC   NC340823  32.239  37.649   9.450
 7503POPC   PO440824  32.240  37.725   9.150
 7503POPC   GL140825  32.248  37.680   8.850
 7503POPC   GL240826  32.300  37.623   8.850
 7503POPC   C1A40827  32.251  37.685   8.550
 7503POPC   D2A40828  32.209  37.677   8.250
 7503POPC   C3A40829  32.210  37.659   7.950
 7503POPC   C4A40830  32.229  37.674   7.650
 7503POPC   C1B40831  32.448  37.454   8.550
 7503POPC   C2B40832  32.404  37.553   8.250
 7503POPC   C3B40833  32.388  37.532   7.950
 7503POPC   C4B40834  32.386  37.527   7.650
 7504POPC   NC340835  22.945  15.912   9.450
 7504POPC   PO440836  22.973  15.981   9.150
 7504POPC   GL140837  22.909  15.966   8.850
 7504POPC   GL240838  23.016  15.872   8.850
 7504POPC   C1A40839  22.901  16.004   8.550
 7504POPC   D2A40840  22.901  15.977   8.250
 7504POPC   C3A40841  22.955  15.986   7.950
 7504POPC   C4A40842  22.961  15.915   7.650
 7504POPC   C1B40843  23.044  15.775   8.550
 7504POPC   C2B40844  23.076  15.745   8.250
 7504POPC   C3B40845  23.064  15.699   7.950
 7504POPC   C4B40846  23.080  15.771   7.650
 7505POPC   NC340847  33.067  36.915   9.450
 7505POPC   PO440848  33.052  36.935   9.150
 7505POPC   GL140849  32.990  36.925   8.850
 7505POPC   GL240850  33.032  36.828   8.850
 7505POPC   C1A40851  33.064  36.864   8.550
 7505POPC   D2A40852  33.013  36.900   8.250
 7505POPC   C3A40853  33.034  36.893   7.950
 7505POPC   C4A40854  32.982  36.896   7.650
 7505POPC   C1B40855  33.006  36.691   8.550
 7505POPC   C2B40856  33.021  36.672   8.250
 7505POPC   C3B40857  32.984  36.679   7.950
 7505POPC   C4B40858  33.051  36.617   7.650
 7506POPC   NC340859   4.300  36.124   9.450
 7506POPC   PO440860   4.288  36.108   9.150
 7506POPC   GL140861   4.366  36.096   8.850
 7506POPC   GL240862   4.430  36.147   8.850
 7506POPC   C1A40863   4.296  36.124   8.550
 7506POPC   D2A40864   4.333  36.114   8.250
 7506POPC   C3A40865   4.270  36.177   7.950
 7506POPC   C4A40866   4.366  36.089   7.650
 7506POPC   C1B40867   4.548  36.098   8.550
 7506POPC   C2B40868   4.596  36.080   8.250
 7506POPC   C3B40869   4.575  36.091   7.950
 7506POPC   C4B40870   4.569  36.074   7.650
 7507POPC   NC340871  41.596  16.778   9.450
 7507POPC   PO440872  41.592  16.709   9.150
 7507POPC   GL140873  41.522  16.682   8.850
 7507POPC   GL240874  41.473  16.783   8.850
 7507POPC   C1A40875  41.566  16.702   8.550
 7507POPC   D2A40876  41.558  16.755   8.250
 7507POPC   C3A40877  41.522  16.761   7.950
 7507POPC   C4A40878  41.568  16.710   7.650
 7507POPC   C1B40879  41.315  16.929   8.550
 7507POPC   C2B40880  41.316  16.909   8.250
 7507POPC   C3B40881  41.375  16.844   7.950
 7507POPC   C4B40882  41.334  16.859   7.650
 7508POPC   NC340883  17.552  31.453   9.450
 7508POPC   PO440884  17.545  31.450   9.150
 7508POPC   GL140885  17.488  31.486   8.850
 7508POPC   GL240886  17.576  31.511   8.850
 7508POPC   C1A40887  17.523  31.456   8.550
 7508POPC   D2A40888  17.474  31.496   8.250
 7508POPC   C3A40889  17.466  31.455   7.950
 7508POPC   C4A40890  17.463  31.494   7.650
 7508POPC   C1B40891  17.667  31.626   8.550
 7508POPC   C2B40892  17.721  31.633   8.250
 7508POPC   C3B40893  17.708  31.630   7.950
 7508POPC   C4B40894  17.697  31.583   7.650
 7509POPC   NC340895  25.230  30.731   5.550
 7509POPC   PO440896  25.307  30.715   5.850
 7509POPC   GL140897  25.305  30.727   6.150
 7509POPC   GL240898  25.341  30.816   6.150
 7509POPC   C1A40899  25.266  30.734   6.450
 7509POPC   D2A40900  25.307  30.739   6.750
 7509POPC   C3A40901  25.302  30.713   7.050
 7509POPC   C4A40902  25.235  30.658   7.350
 7509POPC   C1B40903  25.421  30.955   6.450
 7509POPC   C2B40904  25.360  30.931   6.750
 7509POPC   C3B40905  25.386  30.913   7.050
 7509POPC   C4B40906  25.411  30.936   7.350
 7510POPC   NC340907  22.943   5.852   5.550
 7510POPC   PO440908  22.902   5.849   5.850
 7510POPC   GL140909  22.940   5.918   6.150
 7510POPC   GL240910  23.018   5.862   6.150
 7510POPC   C1A40911  22.898   5.902   6.450
 7510POPC   D2A40912  22.929   5.842   6.750
 7510POPC   C3A40913  22.917   5.835   7.050
 7510POPC   C4A40914  22.936   5.886   7.350
 7510POPC   C1B40915  23.155   5.910   6.450
 7510POPC   C2B40916  23.222   5.911   6.750
 7510POPC   C3B40917  23.177   5.929   7.050
 7510POPC   C4B40918  23.193   5.935   7.350
 7511POPC   NC340919  17.470  17.531   5.550
 7511POPC   PO440920  17.551  17.550   5.850
 7511POPC   GL140921  17.515  17.498   6.150
 7511POPC   GL240922  17.443  17.621   6.150
 7511POPC   C1A40923  17.486  17.512   6.450
 7511POPC   D2A40924  17.505  17.461   6.750
 7511POPC   C3A40925  17.552  17.550   7.050
 7511POPC   C4A40926  17.536  17.552   7.350
 7511POPC   C1B40927  17.318  17.663   6.450
 7511POPC   C2B40928  17.396  17.727   6.750
 7511POPC   C3B40929  17.325  17.719   7.050
 7511POPC   C4B40930  17.377  17.725   7.350
 7512POPC   NC340931  38.445  10.546   5.550
 7512POPC   PO440932  38.420  10.566   5.850
 7512POPC   GL140933  38.494  10.529   6.150
 7512POPC   GL240934  38.400  10.428   6.150
 7512POPC   C1A40935  38.491  10.566   6.450
 7512POPC   D2A40936  38.501  10.527   6.750
 7512POPC   C3A40937  38.440  10.488   7.050
 7512POPC   C4A40938  38.444  10.488   7.350
 7512POPC   C1B40939  38.329  10.302   6.450
 7512POPC   C2B40940  38.325  10.311   6.750
 7512POPC   C3B40941  38.340  10.310   7.050
 7512POPC   C4B40942  38.337  10.313   7.350
 7513POPC   NC340943   2.746  36.166   5.550
 7513POPC   PO440944   2.742  36.145   5.850
 7513POPC   GL140945   2.745  36.081   6.150
 7513POPC   GL240946   2.659  36.249   6.150
 7513POPC   C1A40947   2.749  36.146   6.450
 7513POPC   D2A40948   2.723  36.151   6.750
 7513POPC   C3A40949   2.754  36.175   7.050
 7513POPC   C4A40950   2.784  36.136   7.350
 7513POPC   C1B40951   2.574  36.321   6.450
 7513POPC   C2B40952   2.639  36.303   6.750
 7513POPC   C3B40953   2.626  36.325   7.050
 7513POPC   C4B40954   2.591  36.275   7.350
 7514POPC   NC340955  39.200  29.186   5.550
 7514POPC   PO440956  39.220  29.170   5.850
 7514POPC   GL140957  39.199  29.170   6.150
 7514POPC   GL240958  39.304  29.202   6.150
 7514POPC   C1A40959  39.262  29.138   6.450
 7514POPC   D2A40960  39.218  29.113   6.750
 7514POPC   C3A40961  39.263  29.195   7.050
 7514POPC   C4A40962  39.266  29.170   7.350
 7514POPC   C1B40963  39.417  29.306   6.450
 7514POPC   C2B40964  39.396  29.295   6.750
 7514POPC   C3B40965  39.399  29.258   7.050
 7514POPC   C4B40966  39.416  29.235   7.350
 7515POPC   NC340967   6.627  24.482   5.550
 7515POPC   PO440968   6.682  24.492   5.850
 7515POPC   GL140969   6.674  24.458   6.150
 7515POPC   GL240970   6.743  24.580   6.150
 7515POPC   C1A40971   6.600  24.451   6.450
 7515POPC   D2A40972   6.595  24.531   6.750
 7515POPC   C3A40973   6.667  24.491   7.050
 7515POPC   C4A40974   6.603  24.456   7.350
 7515POPC   C1B40975   6.829  24.675   6.450
 7515POPC   C2B40976   6.808  24.689   6.750
 7515POPC   C3B40977   6.864  24.629   7.050
 7515POPC   C4B40978   6.776  24.717   7.350
 7516POPC   NC340979  39.977  37.718   5.550
 7516POPC   PO440980  39.968  37.688   5.850
 7516POPC   GL140981  40.048  37.671   6.150
 7516POPC   GL240982  39.947  37.812   6.150
 7516POPC   C1A40983  39.962  37.710   6.450
 7516POPC   D2A40984  39.962  37.661   6.750
 7516POPC   C3A40985  39.969  37.687   7.050
 7516POPC   C4A40986  40.028  37.718   7.350
 7516POPC   C1B40987  39.868  37.846   6.450
 7516POPC   C2B40988  39.806  37.896   6.750
 7516POPC   C3B40989  39.833  37.840   7.050
 7516POPC   C4B40990  39.876  37.841   7.350
 7517POPC   NC340991  23.707  28.348   5.550
 7517POPC   PO440992  23.726  28.385   5.850
 7517POPC   GL140993  23.755  28.388   6.150
 7517POPC   GL240994  23.687  28.526   6.150
 7517POPC   C1A40995  23.759  28.375   6.450
 7517POPC   D2A40996  23.715  28.396   6.750
 7517POPC   C3A40997  23.701  28.360   7.050
 7517POPC   C4A40998  23.737  28.390   7.350
 7517POPC   C1B40999  23.611  28.633   6.450
 7517POPC   C2B41000  23.579  28.557   6.750
 7517POPC   C3B41001  23.594  28.544   7.050
 7517POPC   C4B41002  23.611  28.618   7.350
 7518POPC   NC341003  22.912   8.969   5.550
 7518POPC   PO441004  22.891   8.982   5.850
 7518POPC   GL141005  22.936   8.997   6.150
 7518POPC   GL241006  22.988   8.901   6.150
 7518POPC   C1A41007  22.978   8.972   6.450
 7518POPC   D2A41008  22.942   8.983   6.750
 7518POPC   C3A41009  22.975   8.937   7.050
 7518POPC   C4A41010  22.930   8.932   7.350
 7518POPC   C1B41011  23.100   8.806   6.450
 7518POPC   C2B41012  23.125   8.798   6.750
 7518POPC   C3B41013  23.054   8.778   7.050
 7518POPC   C4B41014  23.038   8.786   7.350
 7519POPC   NC341015  34.534  39.201   5.550
 7519POPC   PO441016  34.553  39.273   5.850
 7519POPC   GL141017  34.549  39.246   6.150
 7519POPC   GL241018  34.667  39.318   6.150
 7519POPC   C1A41019  34.546  39.229   6.450
 7519POPC   D2A41020  34.535  39.220   6.750
 7519POPC   C3A41021  34.608  39.242   7.050
 7519POPC   C4A41022  34.572  39.225   7.350
 7519POPC   C1B41023  34.759  39.345   6.450
 7519POPC   C2B41024  34.770  39.347   6.750
 7519POPC   C3B41025  34.740  39.354   7.050
 7519POPC   C4B41026  34.775  39.442   7.350
 7520POPC   NC341027  17.510   0.418   5.550
 7520POPC   PO441028  17.466   0.443   5.850
 7520POPC   GL141029  17.483   0.410   6.150
 7520POPC   GL241030  17.557   0.526   6.150
 7520POPC   C1A41031  17.516   0.402   6.450
 7520POPC   D2A41032  17.481   0.403   6.750
 7520POPC   C3A41033  17.541   0.434   7.050
 7520POPC   C4A41034  17.542   0.435   7.350
 7520POPC   C1B41035  17.669   0.596   6.450
 7520POPC   C2B41036  17.711   0.669   6.750
 7520POPC   C3B41037  17.628   0.616   7.050
 7520POPC   C4B41038  17.701   0.674   7.350
 7521POPC   NC341039   9.752   5.060   5.550
 7521POPC   PO441040   9.794   5.067   5.850
 7521POPC   GL141041   9.708   5.057   6.150
 7521POPC   GL241042   9.798   5.014   6.150
 7521POPC   C1A41043   9.776   5.065   6.450
 7521POPC   D2A41044   9.711   5.113   6.750
 7521POPC   C3A41045   9.763   5.131   7.050
 7521POPC   C4A41046   9.772   5.095   7.350
 7521POPC   C1B41047   9.939   4.981   6.450
 7521POPC   C2B41048   9.966   4.893   6.750
 7521POPC   C3B41049   9.901   4.956   7.050
 7521POPC   C4B41050   9.938   4.912   7.350
 7522POPC   NC341051  19.804  13.674   5.550
 7522POPC   PO441052  19.859  13.596   5.850
 7522POPC   GL141053  19.805  13.656   6.150
 7522POPC   GL241054  19.722  13.692   6.150
 7522POPC   C1A41055  19.802  13.662   6.450
 7522POPC   D2A41056  19.814  13.665   6.750
 7522POPC   C3A41057  19.801  13.581   7.050
 7522POPC   C4A41058  19.791  13.653   7.350
 7522POPC   C1B41059  19.636  13.717   6.450
 7522POPC   C2B41060  19.623  13.637   6.750
 7522POPC   C3B41061  19.574  13.692   7.050
 7522POPC   C4B41062  19.628  13.629   7.350
 7523POPC   NC341063  40.018  26.770   5.550
 7523POPC   PO441064  39.980  26.804   5.850
 7523POPC   GL141065  40.029  26.844   6.150
 7523POPC   GL241066  39.890  26.832   6.150
 7523POPC   C1A41067  40.049  26.863   6.450
 7523POPC   D2A41068  40.028  26.855   6.750
 7523POPC   C3A41069  39.997  26.816   7.050
 7523POPC   C4A41070  40.033  26.820   7.350
 7523POPC   C1B41071  39.769  26.888   6.450
 7523POPC   C2B41072  39.721  26.815   6.750
 7523POPC   C3B41073  39.750  26.836   7.050
 7523POPC   C4B41074  39.754  26.874   7.350
 7524POPC   NC341075  34.575  11.288   5.550
 7524POPC   PO441076  34.549  11.294   5.850
 7524POPC   GL141077  34.611  11.342   6.150
 7524POPC   GL241078  34.653  11.191   6.150
 7524POPC   C1A41079  34.610  11.287   6.450
 7524POPC   D2A41080  34.613  11.348   6.750
 7524POPC   C3A41081  34.567  11.266   7.050
 7524POPC   C4A41082  34.551  11.324   7.350
 7524POPC   C1B41083  34.747  11.145   6.450
 7524POPC   C2B41084  34.744  11.179   6.750
 7524POPC   C3B41085  34.751  11.211   7.050
 7524POPC   C4B41086  34.773  11.200   7.350
 7525POPC   NC341087  33.802   8.196   5.550
 7525POPC   PO441088  33.847   8.160   5.850
 7525POPC   GL141089  33.842   8.153   6.150
 7525POPC   GL241090  33.950   8.242   6.150
 7525POPC   C1A41091  33.844   8.153   6.450
 7525POPC   D2A41092  33.826   8.189   6.750
 7525POPC   C3A41093  33.784   8.156   7.050
 7525POPC   C4A41094  33.848   8.154   7.350
 7525POPC   C1B41095  34.053   8.340   6.450
 7525POPC   C2B41096  34.067   8.299   6.750
 7525POPC   C3B41097  33.977   8.303   7.050
 7525POPC   C4B41098  33.995   8.270   7.350
 7526POPC   NC341099   3.504  40.015   5.550
 7526POPC   PO441100   3.562  40.042   5.850
 7526POPC   GL141101   3.515  39.982   6.150
 7526POPC   GL241102   3.678  40.019   6.150
 7526POPC   C1A41103   3.570  40.041   6.450
 7526POPC   D2A41104   3.565  39.977   6.750
 7526POPC   C3A41105   3.547  39.997   7.050
 7526POPC   C4A41106   3.498  40.002   7.350
 7526POPC   C1B41107   3.772  40.130   6.450
 7526POPC   C2B41108   3.790  40.111   6.750
 7526POPC   C3B41109   3.747  40.096   7.050
 7526POPC   C4B41110   3.778  40.092   7.350
 7527POPC   NC341111  35.344  31.506   5.550
 7527POPC   PO441112  35.354  31.502   5.850
 7527POPC   GL141113  35.400  31.436   6.150
 7527POPC   GL241114  35.519  31.434   6.150
 7527POPC   C1A41115  35.351  31.463   6.450
 7527POPC   D2A41116  35.317  31.480   6.750
 7527POPC   C3A41117  35.388  31.498   7.050
 7527POPC   C4A41118  35.333  31.440   7.350
 7527POPC   C1B41119  35.597  31.385   6.450
 7527POPC   C2B41120  35.626  31.366   6.750
 7527POPC   C3B41121  35.551  31.374   7.050
 7527POPC   C4B41122  35.622  31.359   7.350
 7528POPC   NC341123  22.166  17.523   5.550
 7528POPC   PO441124  22.157  17.490   5.850
 7528POPC   GL141125  22.186  17.520   6.150
 7528POPC   GL241126  22.051  17.369   6.150
 7528POPC   C1A41127  22.148  17.461   6.450
 7528POPC   D2A41128  22.188  17.493   6.750
 7528POPC   C3A41129  22.205  17.540   7.050
 7528POPC   C4A41130  22.143  17.525   7.350
 7528POPC   C1B41131  21.993  17.255   6.450
 7528POPC   C2B41132  22.044  17.319   6.750
 7528POPC   C3B41133  22.003  17.311   7.050
 7528POPC   C4B41134  22.049  17.282   7.350
 7529POPC   NC341135  26.024  12.114   5.550
 7529POPC   PO441136  25.998  12.104   5.850
 7529POPC   GL141137  25.993  12.052   6.150
 7529POPC   GL241138  25.867  12.038   6.150
 7529POPC   C1A41139  26.066  12.070   6.450
 7529POPC   D2A41140  25.992  12.080   6.750
 7529POPC   C3A41141  26.063  12.121   7.050
 7529POPC   C4A41142  26.076  12.048   7.350
 7529POPC   C1B41143  25.818  12.040   6.450
 7529POPC   C2B41144  25.792  12.085   6.750
 7529POPC   C3B41145  25.767  12.076   7.050
 7529POPC   C4B41146  25.790  12.022   7.350
 7530POPC   NC341147  38.461  31.476   5.550
 7530POPC   PO441148  38.468  31.473   5.850
 7530POPC   GL141149  38.452  31.462   6.150
 7530POPC   GL241150  38.327  31.506   6.150
 7530POPC   C1A41151  38.498  31.476   6.450
 7530POPC   D2A41152  38.443  31.470   6.750
 7530POPC   C3A41153  38.499  31.491   7.050
 7530POPC   C4A41154  38.407  31.493   7.350
 7530POPC   C1B41155  38.220  31.600   6.450
 7530POPC   C2B41156  38.190  31.534   6.750
 7530POPC   C3B41157  38.233  31.558   7.050
 7530POPC   C4B41158  38.212  31.568   7.350
 7531POPC   NC341159   3.540  22.940   5.550
 7531POPC   PO441160   3.566  22.892   5.850
 7531POPC   GL141161   3.509  22.978   6.150
 7531POPC   GL241162   3.490  23.014   6.150
 7531POPC   C1A41163   3.554  22.979   6.450
 7531POPC   D2A41164   3.584  22.902   6.750
 7531POPC   C3A41165   3.509  22.912   7.050
 7531POPC   C4A41166   3.527  22.939   7.350
 7531POPC   C1B41167   3.376  23.132   6.450
 7531POPC   C2B41168   3.457  23.201   6.750
 7531POPC   C3B41169   3.468  23.181   7.050
 7531POPC   C4B41170   3.396  23.207   7.350
 7532POPC   NC341171   6.602  25.301   5.550
 7532POPC   PO441172   6.603  25.311   5.850
 7532POPC   GL141173   6.637  25.288   6.150
 7532POPC   GL241174   6.588  25.107   6.150
 7532POPC   C1A41175   6.639  25.220   6.450
 7532POPC   D2A41176   6.689  25.305   6.750
 7532POPC   C3A41177   6.623  25.242   7.050
 7532POPC   C4A41178   6.639  25.216   7.350
 7532POPC   C1B41179   6.523  25.066   6.450
 7532POPC   C2B41180   6.562  25.000   6.750
 7532POPC   C3B41181   6.573  25.084   7.050
 7532POPC   C4B41182   6.550  24.997   7.350
 7533POPC   NC341183  12.066   1.985   5.550
 7533POPC   PO441184  12.033   2.038   5.850
 7533POPC   GL141185  12.041   2.004   6.150
 7533POPC   GL241186  12.138   2.035   6.150
 7533POPC   C1A41187  12.113   2.032   6.450
 7533POPC   D2A41188  12.107   2.016   6.750
 7533POPC   C3A41189  12.026   2.033   7.050
 7533POPC   C4A41190  12.050   1.982   7.350
 7533POPC   C1B41191  12.299   2.063   6.450
 7533POPC   C2B41192  12.277   2.095   6.750
 7533POPC   C3B41193  12.318   2.084   7.050
 7533POPC   C4B41194  12.252   2.070   7.350
 7534POPC   NC341195  37.688  43.851   5.550
 7534POPC   PO441196  37.691  43.934   5.850
 7534POPC   GL141197  37.695  43.848   6.150
 7534POPC   GL241198  37.569  43.896   6.150
 7534POPC   C1A41199  37.638  43.855   6.450
 7534POPC   D2A41200  37.637  43.886   6.750
 7534POPC   C3A41201  37.661  43.840   7.050
 7534POPC   C4A41202  37.646  43.870   7.350
 7534POPC   C1B41203  37.471  44.017   6.450
 7534POPC   C2B41204  37.428  43.921   6.750
 7534POPC   C3B41205  37.445  43.935   7.050
 7534POPC   C4B41206  37.486  44.009   7.350
 7535POPC   NC341207  12.824  43.925   5.550
 7535POPC   PO441208  12.829  43.864   5.850
 7535POPC   GL141209  12.846  43.842   6.150
 7535POPC   GL241210  13.009  43.801   6.150
 7535POPC   C1A41211  12.823  43.876   6.450
 7535POPC   D2A41212  12.839  43.935   6.750
 7535POPC   C3A41213  12.848  43.864   7.050
 7535POPC   C4A41214  12.843  43.854   7.350
 7535POPC   C1B41215  13.050  43.806   6.450
 7535POPC   C2B41216  13.099  43.799   6.750
 7535POPC   C3B41217  13.075  43.753   7.050
 7535POPC   C4B41218  13.092  43.757   7.350
 7536POPC   NC341219   7.447  24.532   5.550
 7536POPC   PO441220   7.453  24.537   5.850
 7536POPC   GL141221   7.461  24.525   6.150
 7536POPC   GL241222   7.268  24.444   6.150
 7536POPC   C1A41223   7.399  24.511   6.450
 7536POPC   D2A41224   7.396  24.478   6.750
 7536POPC   C3A41225   7.452  24.485   7.050
 7536POPC   C4A41226   7.395  24.538   7.350
 7536POPC   C1B41227   7.224  24.408   6.450
 7536POPC   C2B41228   7.147  24.419   6.750
 7536POPC   C3B41229   7.166  24.375   7.050
 7536POPC   C4B41230   7.222  24.445   7.350
 7537POPC   NC341231  29.106   5.906   5.550
 7537POPC   PO441232  29.166   5.839   5.850
 7537POPC   GL141233  29.163   5.871   6.150
 7537POPC   GL241234  29.264   5.960   6.150
 7537POPC   C1A41235  29.117   5.856   6.450
 7537POPC   D2A41236  29.136   5.838   6.750
 7537POPC   C3A41237  29.112   5.905   7.050
 7537POPC   C4A41238  29.146   5.837   7.350
 7537POPC   C1B41239  29.343   5.954   6.450
 7537POPC   C2B41240  29.405   5.941   6.750
 7537POPC   C3B41241  29.382   6.011   7.050
 7537POPC   C4B41242  29.389   5.942   7.350
 7538POPC   NC341243  15.977   4.348   5.550
 7538POPC   PO441244  15.985   4.272   5.850
 7538POPC   GL141245  15.976   4.271   6.150
 7538POPC   GL241246  16.068   4.456   6.150
 7538POPC   C1A41247  15.960   4.352   6.450
 7538POPC   D2A41248  15.912   4.336   6.750
 7538POPC   C3A41249  15.938   4.271   7.050
 7538POPC   C4A41250  15.996   4.347   7.350
 7538POPC   C1B41251  16.076   4.544   6.450
 7538POPC   C2B41252  16.149   4.526   6.750
 7538POPC   C3B41253  16.160   4.498   7.050
 7538POPC   C4B41254  16.109   4.550   7.350
 7539POPC   NC341255  20.654  24.464   5.550
 7539POPC   PO441256  20.573  24.479   5.850
 7539POPC   GL141257  20.614  24.517   6.150
 7539POPC   GL241258  20.711  24.533   6.150
 7539POPC   C1A41259  20.641  24.471   6.450
 7539POPC   D2A41260  20.582  24.457   6.750
 7539POPC   C3A41261  20.601  24.532   7.050
 7539POPC   C4A41262  20.596  24.478   7.350
 7539POPC   C1B41263  20.859  24.535   6.450
 7539POPC   C2B41264  20.894  24.495   6.750
 7539POPC   C3B41265  20.816  24.566   7.050
 7539POPC   C4B41266  20.878  24.506   7.350
 7540POPC   NC341267   8.211  39.199   5.550
 7540POPC   PO441268   8.214  39.273   5.850
 7540POPC   GL141269   8.236  39.263   6.150
 7540POPC   GL241270   8.090  39.223   6.150
 7540POPC   C1A41271   8.154  39.215   6.450
 7540POPC   D2A41272   8.240  39.264   6.750
 7540POPC   C3A41273   8.230  39.246   7.050
 7540POPC   C4A41274   8.156  39.236   7.350
 7540POPC   C1B41275   7.984  39.267   6.450
 7540POPC   C2B41276   7.901  39.214   6.750
 7540POPC   C3B41277   7.949  39.274   7.050
 7540POPC   C4B41278   7.934  39.247   7.350
 7541POPC   NC341279   1.263  14.418   5.550
 7541POPC   PO441280   1.178  14.375   5.850
 7541POPC   GL141281   1.195  14.423   6.150
 7541POPC   GL241282   1.302  14.364   6.150
 7541POPC   C1A41283   1.257  14.383   6.450
 7541POPC   D2A41284   1.234  14.382   6.750
 7541POPC   C3A41285   1.204  14.445   7.050
 7541POPC   C4A41286   1.164  14.435   7.350
 7541POPC   C1B41287   1.476  14.430   6.450
 7541POPC   C2B41288   1.478  14.405   6.750
 7541POPC   C3B41289   1.442  14.379   7.050
 7541POPC   C4B41290   1.430  14.436   7.350
 7542POPC   NC341291  24.445  28.323   5.550
 7542POPC   PO441292  24.517  28.372   5.850
 7542POPC   GL141293  24.531  28.415   6.150
 7542POPC   GL241294  24.365  28.331   6.150
 7542POPC   C1A41295  24.456  28.346   6.450
 7542POPC   D2A41296  24.514  28.360   6.750
 7542POPC   C3A41297  24.463  28.339   7.050
 7542POPC   C4A41298  24.521  28.394   7.350
 7542POPC   C1B41299  24.190  28.368   6.450
 7542POPC   C2B41300  24.206  28.397   6.750
 7542POPC   C3B41301  24.197  28.417   7.050
 7542POPC   C4B41302  24.246  28.426   7.350
 7543POPC   NC341303  19.108  42.291   5.550
 7543POPC   PO441304  19.068  42.357   5.850
 7543POPC   GL141305  19.014  42.329   6.150
 7543POPC   GL241306  18.926  42.371   6.150
 7543POPC   C1A41307  19.059  42.323   6.450
 7543POPC   D2A41308  19.088  42.309   6.750
 7543POPC   C3A41309  19.060  42.368   7.050
 7543POPC   C4A41310  19.099  42.342   7.350
 7543POPC   C1B41311  18.814  42.282   6.450
 7543POPC   C2B41312  18.787  42.293   6.750
 7543POPC   C3B41313  18.805  42.326   7.050
 7543POPC   C4B41314  18.836  42.329   7.350
 7544POPC   NC341315  42.314   1.239   5.550
 7544POPC   PO441316  42.341   1.226   5.850
 7544POPC   GL141317  42.350   1.208   6.150
 7544POPC   GL241318  42.255   1.304   6.150
 7544POPC   C1A41319  42.335   1.260   6.450
 7544POPC   D2A41320  42.362   1.190   6.750
 7544POPC   C3A41321  42.346   1.258   7.050
 7544POPC   C4A41322  42.358   1.223   7.350
 7544POPC   C1B41323  42.271   1.451   6.450
 7544POPC   C2B41324  42.259   1.484   6.750
 7544POPC   C3B41325  42.200   1.469   7.050
 7544POPC   C4B41326  42.285   1.408   7.350
 7545POPC   NC341327   4.356   9.017   5.550
 7545POPC   PO441328   4.298   8.928   5.850
 7545POPC   GL141329   4.329   8.999   6.150
 7545POPC   GL241330   4.345   8.836   6.150
 7545POPC   C1A41331   4.276   8.965   6.450
 7545POPC   D2A41332   4.274   8.943   6.750
 7545POPC   C3A41333   4.321   8.988   7.050
 7545POPC   C4A41334   4.300   8.961   7.350
 7545POPC   C1B41335   4.456   8.765   6.450
 7545POPC   C2B41336   4.403   8.736   6.750
 7545POPC   C3B41337   4.440   8.749   7.050
 7545POPC   C4B41338   4.381   8.703   7.350
 7546POPC   NC341339  32.219   0.439   5.550
 7546POPC   PO441340  32.297   0.407   5.850
 7546POPC   GL141341  32.277   0.473   6.150
 7546POPC   GL241342  32.249   0.267   6.150
 7546POPC   C1A41343  32.272   0.439   6.450
 7546POPC   D2A41344  32.285   0.475   6.750
 7546POPC   C3A41345  32.198   0.440   7.050
 7546POPC   C4A41346  32.270   0.444   7.350
 7546POPC   C1B41347  32.266   0.184   6.450
 7546POPC   C2B41348  32.266   0.184   6.750
 7546POPC   C3B41349  32.321   0.159   7.050
 7546POPC   C4B41350  32.300   0.211   7.350
 7547POPC   NC341351  11.337  27.587   5.550
 7547POPC   PO441352  11.349  27.563   5.850
 7547POPC   GL141353  11.272  27.578   6.150
 7547POPC   GL241354  11.270  27.710   6.150
 7547POPC   C1A41355  11.300  27.606   6.450
 7547POPC   D2A41356  11.259  27.606   6.750
 7547POPC   C3A41357  11.288  27.616   7.050
 7547POPC   C4A41358  11.309  27.555   7.350
 7547POPC   C1B41359  11.233  27.879   6.450
 7547POPC   C2B41360  11.263  27.852   6.750
 7547POPC   C3B41361  11.308  27.846   7.050
 7547POPC   C4B41362  11.289  27.889   7.350
 7548POPC   NC341363   8.960  41.577   5.550
 7548POPC   PO441364   8.929  41.509   5.850
 7548POPC   GL141365   8.937  41.517   6.150
 7548POPC   GL241366   8.811  41.582   6.150
 7548POPC   C1A41367   8.984  41.548   6.450
 7548POPC   D2A41368   8.945  41.585   6.750
 7548POPC   C3A41369   9.017  41.596   7.050
 7548POPC   C4A41370   8.958  41.545   7.350
 7548POPC   C1B41371   8.703  41.558   6.450
 7548POPC   C2B41372   8.702  41.534   6.750
 7548POPC   C3B41373   8.686  41.584   7.050
 7548POPC   C4B41374   8.723  41.573   7.350
 7549POPC   NC341375  12.846   3.551   5.550
 7549POPC   PO441376  12.807   3.505   5.850
 7549POPC   GL141377  12.847   3.503   6.150
 7549POPC   GL241378  12.739   3.435   6.150
 7549POPC   C1A41379  12.809   3.517   6.450
 7549POPC   D2A41380  12.882   3.516   6.750
 7549POPC   C3A41381  12.845   3.533   7.050
 7549POPC   C4A41382  12.884   3.499   7.350
 7549POPC   C1B41383  12.679   3.368   6.450
 7549POPC   C2B41384  12.654   3.325   6.750
 7549POPC   C3B41385  12.674   3.386   7.050
 7549POPC   C4B41386  12.726   3.395   7.350
 7550POPC   NC341387   0.468   8.161   5.550
 7550POPC   PO441388   0.426   8.171   5.850
 7550POPC   GL141389   0.446   8.188   6.150
 7550POPC   GL241390   0.495   8.103   6.150
 7550POPC   C1A41391   0.395   8.176   6.450
 7550POPC   D2A41392   0.406   8.170   6.750
 7550POPC   C3A41393   0.442   8.204   7.050
 7550POPC   C4A41394   0.389   8.227   7.350
 7550POPC   C1B41395   0.672   8.025   6.450
 7550POPC   C2B41396   0.641   8.028   6.750
 7550POPC   C3B41397   0.641   8.089   7.050
 7550POPC   C4B41398   0.679   7.998   7.350
 7551POPC   NC341399  33.795  12.892   5.550
 7551POPC   PO441400  33.788  12.808   5.850
 7551POPC   GL141401  33.833  12.845   6.150
 7551POPC   GL241402  33.950  12.857   6.150
 7551POPC   C1A41403  33.819  12.817   6.450
 7551POPC   D2A41404  33.786  12.893   6.750
 7551POPC   C3A41405  33.821  12.885   7.050
 7551POPC   C4A41406  33.816  12.829   7.350
 7551POPC   C1B41407  34.011  12.909   6.450
 7551POPC   C2B41408  34.057  12.887   6.750
 7551POPC   C3B41409  34.032  12.885   7.050
 7551POPC   C4B41410  34.048  12.887   7.350
 7552POPC   NC341411   5.851  31.522   5.550
 7552POPC   PO441412   5.888  31.505   5.850
 7552POPC   GL141413   5.896  31.470   6.150
 7552POPC   GL241414   5.974  31.487   6.150
 7552POPC   C1A41415   5.884  31.520   6.450
 7552POPC   D2A41416   5.914  31.499   6.750
 7552POPC   C3A41417   5.887  31.478   7.050
 7552POPC   C4A41418   5.872  31.460   7.350
 7552POPC   C1B41419   6.146  31.531   6.450
 7552POPC   C2B41420   6.068  31.509   6.750
 7552POPC   C3B41421   6.112  31.520   7.050
 7552POPC   C4B41422   6.148  31.470   7.350
 7553POPC   NC341423  25.255  18.242   5.550
 7553POPC   PO441424  25.273  18.239   5.850
 7553POPC   GL141425  25.218  18.305   6.150
 7553POPC   GL241426  25.177  18.219   6.150
 7553POPC   C1A41427  25.240  18.312   6.450
 7553POPC   D2A41428  25.249  18.326   6.750
 7553POPC   C3A41429  25.267  18.273   7.050
 7553POPC   C4A41430  25.284  18.238   7.350
 7553POPC   C1B41431  25.016  18.216   6.450
 7553POPC   C2B41432  25.001  18.213   6.750
 7553POPC   C3B41433  24.995  18.151   7.050
 7553POPC   C4B41434  25.045  18.152   7.350
 7554POPC   NC341435  12.045  24.497   5.550
 7554POPC   PO441436  12.027  24.454   5.850
 7554POPC   GL141437  12.051  24.520   6.150
 7554POPC   GL241438  11.916  24.416   6.150
 7554POPC   C1A41439  12.109  24.480   6.450
 7554POPC   D2A41440  12.057  24.520   6.750
 7554POPC   C3A41441  12.045  24.442   7.050
 7554POPC   C4A41442  12.051  24.490   7.350
 7554POPC   C1B41443  11.868  24.416   6.450
 7554POPC   C2B41444  11.852  24.412   6.750
 7554POPC   C3B41445  11.805  24.365   7.050
 7554POPC   C4B41446  11.820  24.419   7.350
 7555POPC   NC341447  22.212   8.971   5.550
 7555POPC   PO441448  22.196   8.964   5.850
 7555POPC   GL141449  22.121   9.014   6.150
 7555POPC   GL241450  22.009   8.987   6.150
 7555POPC   C1A41451  22.137   8.980   6.450
 7555POPC   D2A41452  22.172   8.982   6.750
 7555POPC   C3A41453  22.174   9.006   7.050
 7555POPC   C4A41454  22.139   8.928   7.350
 7555POPC   C1B41455  21.968   8.993   6.450
 7555POPC   C2B41456  21.944   9.038   6.750
 7555POPC   C3B41457  21.955   9.048   7.050
 7555POPC   C4B41458  21.912   8.998   7.350
 7556POPC   NC341459  19.849  25.271   5.550
 7556POPC   PO441460  19.785  25.277   5.850
 7556POPC   GL141461  19.875  25.293   6.150
 7556POPC   GL241462  19.955  25.263   6.150
 7556POPC   C1A41463  19.882  25.272   6.450
 7556POPC   D2A41464  19.815  25.308   6.750
 7556POPC   C3A41465  19.794  25.216   7.050
 7556POPC   C4A41466  19.865  25.236   7.350
 7556POPC   C1B41467  20.092  25.227   6.450
 7556POPC   C2B41468  20.031  25.187   6.750
 7556POPC   C3B41469  20.027  25.152   7.050
 7556POPC   C4B41470  20.106  25.163   7.350
 7557POPC   NC341471  36.914  36.079   5.550
 7557POPC   PO441472  36.945  36.165   5.850
 7557POPC   GL141473  36.884  36.161   6.150
 7557POPC   GL241474  36.752  36.115   6.150
 7557POPC   C1A41475  36.948  36.100   6.450
 7557POPC   D2A41476  36.943  36.109   6.750
 7557POPC   C3A41477  36.918  36.098   7.050
 7557POPC   C4A41478  36.947  36.137   7.350
 7557POPC   C1B41479  36.640  36.121   6.450
 7557POPC   C2B41480  36.669  36.040   6.750
 7557POPC   C3B41481  36.646  36.099   7.050
 7557POPC   C4B41482  36.625  36.122   7.350
 7558POPC   NC341483  36.172  33.048   5.550
 7558POPC   PO441484  36.132  32.995   5.850
 7558POPC   GL141485  36.096  33.043   6.150
 7558POPC   GL241486  36.171  32.865   6.150
 7558POPC   C1A41487  36.109  33.011   6.450
 7558POPC   D2A41488  36.160  33.057   6.750
 7558POPC   C3A41489  36.133  32.999   7.050
 7558POPC   C4A41490  36.145  33.019   7.350
 7558POPC   C1B41491  36.244  32.804   6.450
 7558POPC   C2B41492  36.229  32.843   6.750
 7558POPC   C3B41493  36.254  32.794   7.050
 7558POPC   C4B41494  36.238  32.760   7.350
 7559POPC   NC341495   1.231  15.952   5.550
 7559POPC   PO441496   1.199  15.906   5.850
 7559POPC   GL141497   1.198  15.994   6.150
 7559POPC   GL241498   1.121  16.102   6.150
 7559POPC   C1A41499   1.234  15.906   6.450
 7559POPC   D2A41500   1.245  15.947   6.750
 7559POPC   C3A41501   1.195  15.986   7.050
 7559POPC   C4A41502   1.232  15.968   7.350
 7559POPC   C1B41503   1.163  16.199   6.450
 7559POPC   C2B41504   1.153  16.159   6.750
 7559POPC   C3B41505   1.076  16.206   7.050
 7559POPC   C4B41506   1.111  16.165   7.350
 7560POPC   NC341507   0.487  13.627   5.550
 7560POPC   PO441508   0.473  13.600   5.850
 7560POPC   GL141509   0.482  13.645   6.150
 7560POPC   GL241510   0.408  13.545   6.150
 7560POPC   C1A41511   0.435  13.626   6.450
 7560POPC   D2A41512   0.394  13.581   6.750
 7560POPC   C3A41513   0.433  13.651   7.050
 7560POPC   C4A41514   0.460  13.623   7.350
 7560POPC   C1B41515   0.343  13.383   6.450
 7560POPC   C2B41516   0.362  13.400   6.750
 7560POPC   C3B41517   0.331  13.351   7.050
 7560POPC   C4B41518   0.403  13.432   7.350
 7561POPC   NC341519  44.615  18.313   5.550
 7561POPC   PO441520  44.701  18.241   5.850
 7561POPC   GL141521  44.652  18.275   6.150
 7561POPC   GL241522  44.723  18.215   6.150
 7561POPC   C1A41523  44.634  18.270   6.450
 7561POPC   D2A41524  44.641  18.287   6.750
 7561POPC   C3A41525  44.705  18.235   7.050
 7561POPC   C4A41526  44.682  18.313   7.350
 7561POPC   C1B41527  44.882  18.122   6.450
 7561POPC   C2B41528  44.884  18.155   6.750
 7561POPC   C3B41529  44.912  18.111   7.050
 7561POPC   C4B41530  44.861  18.184   7.350
 7562POPC   NC341531  40.758  20.641   5.550
 7562POPC   PO441532  40.802  20.595   5.850
 7562POPC   GL141533  40.821  20.654   6.150
 7562POPC   GL241534  40.796  20.485   6.150
 7562POPC   C1A41535  40.805  20.651   6.450
 7562POPC   D2A41536  40.786  20.609   6.750
 7562POPC   C3A41537  40.794  20.601   7.050
 7562POPC   C4A41538  40.824  20.620   7.350
 7562POPC   C1B41539  40.782  20.373   6.450
 7562POPC   C2B41540  40.778  20.412   6.750
 7562POPC   C3B41541  40.747  20.365   7.050
 7562POPC   C4B41542  40.782  20.321   7.350
 7563POPC   NC341543  40.772  15.977   5.550
 7563POPC   PO441544  40.813  16.003   5.850
 7563POPC   GL141545  40.767  15.907   6.150
 7563POPC   GL241546  40.932  15.969   6.150
 7563POPC   C1A41547  40.778  15.988   6.450
 7563POPC   D2A41548  40.817  15.921   6.750
 7563POPC   C3A41549  40.829  15.942   7.050
 7563POPC   C4A41550  40.743  15.993   7.350
 7563POPC   C1B41551  40.996  15.974   6.450
 7563POPC   C2B41552  41.071  15.978   6.750
 7563POPC   C3B41553  41.035  15.975   7.050
 7563POPC   C4B41554  40.999  16.016   7.350
 7564POPC   NC341555  27.582  44.697   5.550
 7564POPC   PO441556  27.560  44.658   5.850
 7564POPC   GL141557  27.563  44.661   6.150
 7564POPC   GL241558  27.504  44.662   6.150
 7564POPC   C1A41559  27.555  44.635   6.450
 7564POPC   D2A41560  27.620  44.640   6.750
 7564POPC   C3A41561  27.630  44.692   7.050
 7564POPC   C4A41562  27.562  44.696   7.350
 7564POPC   C1B41563  27.378  44.551   6.450
 7564POPC   C2B41564  27.324  44.601   6.750
 7564POPC   C3B41565  27.344  44.560   7.050
 7564POPC   C4B41566  27.391  44.616   7.350
 7565POPC   NC341567  33.045  30.671   5.550
 7565POPC   PO441568  33.022  30.669   5.850
 7565POPC   GL141569  33.030  30.732   6.150
 7565POPC   GL241570  32.937  30.741   6.150
 7565POPC   C1A41571  33.021  30.725   6.450
 7565POPC   D2A41572  33.056  30.667   6.750
 7565POPC   C3A41573  32.991  30.709   7.050
 7565POPC   C4A41574  33.020  30.663   7.350
 7565POPC   C1B41575  32.727  30.698   6.450
 7565POPC   C2B41576  32.752  30.691   6.750
 7565POPC   C3B41577  32.810  30.683   7.050
 7565POPC   C4B41578  32.739  30.725   7.350
 7566POPC   NC341579  12.803  15.195   5.550
 7566POPC   PO441580  12.809  15.205   5.850
 7566POPC   GL141581  12.857  15.200   6.150
 7566POPC   GL241582  12.813  15.051   6.150
 7566POPC   C1A41583  12.827  15.168   6.450
 7566POPC   D2A41584  12.819  15.175   6.750
 7566POPC   C3A41585  12.838  15.209   7.050
 7566POPC   C4A41586  12.842  15.224   7.350
 7566POPC   C1B41587  12.633  15.024   6.450
 7566POPC   C2B41588  12.636  15.022   6.750
 7566POPC   C3B41589  12.633  15.002   7.050
 7566POPC   C4B41590  12.675  14.981   7.350
 7567POPC   NC341591  35.309  22.135   5.550
 7567POPC   PO441592  35.312  22.182   5.850
 7567POPC   GL141593  35.376  22.201   6.150
 7567POPC   GL241594  35.280  22.203   6.150
 7567POPC   C1A41595  35.344  22.124   6.450
 7567POPC   D2A41596  35.322  22.187   6.750
 7567POPC   C3A41597  35.341  22.201   7.050
 7567POPC   C4A41598  35.348  22.127   7.350
 7567POPC   C1B41599  35.064  22.267   6.450
 7567POPC   C2B41600  35.072  22.201   6.750
 7567POPC   C3B41601  35.143  22.222   7.050
 7567POPC   C4B41602  35.128  22.196   7.350
 7568POPC   NC341603  43.926  26.842   5.550
 7568POPC   PO441604  43.921  26.781   5.850
 7568POPC   GL141605  43.849  26.867   6.150
 7568POPC   GL241606  43.844  26.947   6.150
 7568POPC   C1A41607  43.901  26.777   6.450
 7568POPC   D2A41608  43.844  26.785   6.750
 7568POPC   C3A41609  43.894  26.845   7.050
 7568POPC   C4A41610  43.870  26.827   7.350
 7568POPC   C1B41611  43.861  27.099   6.450
 7568POPC   C2B41612  43.921  27.050   6.750
 7568POPC   C3B41613  43.883  27.028   7.050
 7568POPC   C4B41614  43.911  27.103   7.350
 7569POPC   NC341615   1.209  10.502   5.550
 7569POPC   PO441616   1.203  10.477   5.850
 7569POPC   GL141617   1.216  10.564   6.150
 7569POPC   GL241618   1.307  10.569   6.150
 7569POPC   C1A41619   1.239  10.480   6.450
 7569POPC   D2A41620   1.167  10.519   6.750
 7569POPC   C3A41621   1.222  10.483   7.050
 7569POPC   C4A41622   1.203  10.495   7.350
 7569POPC   C1B41623   1.470  10.630   6.450
 7569POPC   C2B41624   1.481  10.639   6.750
 7569POPC   C3B41625   1.396  10.626   7.050
 7569POPC   C4B41626   1.460  10.649   7.350
 7570POPC   NC341627  18.327  43.074   5.550
 7570POPC   PO441628  18.312  43.152   5.850
 7570POPC   GL141629  18.288  43.098   6.150
 7570POPC   GL241630  18.326  42.970   6.150
 7570POPC   C1A41631  18.304  43.130   6.450
 7570POPC   D2A41632  18.309  43.075   6.750
 7570POPC   C3A41633  18.284  43.141   7.050
 7570POPC   C4A41634  18.300  43.095   7.350
 7570POPC   C1B41635  18.417  42.972   6.450
 7570POPC   C2B41636  18.412  42.963   6.750
 7570POPC   C3B41637  18.452  42.956   7.050
 7570POPC   C4B41638  18.432  42.920   7.350
 7571POPC   NC341639   8.982   1.979   5.550
 7571POPC   PO441640   8.966   2.030   5.850
 7571POPC   GL141641   8.942   1.981   6.150
 7571POPC   GL241642   8.912   1.914   6.150
 7571POPC   C1A41643   8.969   2.007   6.450
 7571POPC   D2A41644   8.952   2.008   6.750
 7571POPC   C3A41645   8.994   1.993   7.050
 7571POPC   C4A41646   9.007   1.967   7.350
 7571POPC   C1B41647   8.823   1.874   6.450
 7571POPC   C2B41648   8.754   1.813   6.750
 7571POPC   C3B41649   8.774   1.878   7.050
 7571POPC   C4B41650   8.750   1.834   7.350
 7572POPC   NC341651  33.763   5.906   5.550
 7572POPC   PO441652  33.775   5.915   5.850
 7572POPC   GL141653  33.781   5.859   6.150
 7572POPC   GL241654  33.899   5.968   6.150
 7572POPC   C1A41655  33.787   5.844   6.450
 7572POPC   D2A41656  33.797   5.895   6.750
 7572POPC   C3A41657  33.776   5.903   7.050
 7572POPC   C4A41658  33.784   5.904   7.350
 7572POPC   C1B41659  33.963   6.051   6.450
 7572POPC   C2B41660  33.976   6.104   6.750
 7572POPC   C3B41661  33.939   6.065   7.050
 7572POPC   C4B41662  33.929   6.069   7.350
 7573POPC   NC341663   7.424  13.604   5.550
 7573POPC   PO441664   7.434  13.645   5.850
 7573POPC   GL141665   7.423  13.589   6.150
 7573POPC   GL241666   7.504  13.718   6.150
 7573POPC   C1A41667   7.423  13.623   6.450
 7573POPC   D2A41668   7.400  13.620   6.750
 7573POPC   C3A41669   7.456  13.597   7.050
 7573POPC   C4A41670   7.378  13.635   7.350
 7573POPC   C1B41671   7.497  13.912   6.450
 7573POPC   C2B41672   7.540  13.909   6.750
 7573POPC   C3B41673   7.499  13.904   7.050
 7573POPC   C4B41674   7.514  13.818   7.350
 7574POPC   NC341675  26.843  19.817   5.550
 7574POPC   PO441676  26.808  19.854   5.850
 7574POPC   GL141677  26.838  19.801   6.150
 7574POPC   GL241678  26.746  19.911   6.150
 7574POPC   C1A41679  26.829  19.868   6.450
 7574POPC   D2A41680  26.846  19.883   6.750
 7574POPC   C3A41681  26.824  19.837   7.050
 7574POPC   C4A41682  26.813  19.846   7.350
 7574POPC   C1B41683  26.710  19.985   6.450
 7574POPC   C2B41684  26.691  20.071   6.750
 7574POPC   C3B41685  26.649  20.048   7.050
 7574POPC   C4B41686  26.652  20.030   7.350
 7575POPC   NC341687  18.275  42.291   5.550
 7575POPC   PO441688  18.319  42.365   5.850
 7575POPC   GL141689  18.314  42.344   6.150
 7575POPC   GL241690  18.391  42.334   6.150
 7575POPC   C1A41691  18.252  42.353   6.450
 7575POPC   D2A41692  18.314  42.374   6.750
 7575POPC   C3A41693  18.256  42.362   7.050
 7575POPC   C4A41694  18.256  42.372   7.350
 7575POPC   C1B41695  18.543  42.284   6.450
 7575POPC   C2B41696  18.543  42.330   6.750
 7575POPC   C3B41697  18.526  42.301   7.050
 7575POPC   C4B41698  18.513  42.358   7.350
 7576POPC   NC341699  12.894  10.477   5.550
 7576POPC   PO441700  12.881  10.557   5.850
 7576POPC   GL141701  12.835  10.526   6.150
 7576POPC   GL241702  12.760  10.563   6.150
 7576POPC   C1A41703  12.836  10.523   6.450
 7576POPC   D2A41704  12.864  10.513   6.750
 7576POPC   C3A41705  12.855  10.531   7.050
 7576POPC   C4A41706  12.865  10.489   7.350
 7576POPC   C1B41707  12.663  10.619   6.450
 7576POPC   C2B41708  12.674  10.699   6.750
 7576POPC   C3B41709  12.626  10.704   7.050
 7576POPC   C4B41710  12.637  10.703   7.350
 7577POPC   NC341711   1.192  13.644   5.550
 7577POPC   PO441712   1.198  13.582   5.850
 7577POPC   GL141713   1.209  13.644   6.150
 7577POPC   GL241714   1.342  13.606   6.150
 7577POPC   C1A41715   1.258  13.665   6.450
 7577POPC   D2A41716   1.248  13.591   6.750
 7577POPC   C3A41717   1.170  13.643   7.050
 7577POPC   C4A41718   1.254  13.649   7.350
 7577POPC   C1B41719   1.447  13.712   6.450
 7577POPC   C2B41720   1.470  13.663   6.750
 7577POPC   C3B41721   1.464  13.632   7.050
 7577POPC   C4B41722   1.505  13.694   7.350
 7578POPC   NC341723   6.674  29.135   5.550
 7578POPC   PO441724   6.610  29.120   5.850
 7578POPC   GL141725   6.626  29.181   6.150
 7578POPC   GL241726   6.730  29.104   6.150
 7578POPC   C1A41727   6.622  29.122   6.450
 7578POPC   D2A41728   6.624  29.181   6.750
 7578POPC   C3A41729   6.690  29.194   7.050
 7578POPC   C4A41730   6.642  29.130   7.350
 7578POPC   C1B41731   6.791  28.967   6.450
 7578POPC   C2B41732   6.785  28.935   6.750
 7578POPC   C3B41733   6.846  28.923   7.050
 7578POPC   C4B41734   6.861  29.017   7.350
 7579POPC   NC341735   5.045   2.014   5.550
 7579POPC   PO441736   5.084   1.987   5.850
 7579POPC   GL141737   5.064   1.973   6.150
 7579POPC   GL241738   5.040   2.129   6.150
 7579POPC   C1A41739   5.095   2.034   6.450
 7579POPC   D2A41740   5.050   2.012   6.750
 7579POPC   C3A41741   5.051   2.035   7.050
 7579POPC   C4A41742   5.057   2.036   7.350
 7579POPC   C1B41743   4.899   2.192   6.450
 7579POPC   C2B41744   4.946   2.212   6.750
 7579POPC   C3B41745   4.954   2.217   7.050
 7579POPC   C4B41746   4.934   2.186   7.350
 7580POPC   NC341747  16.743  11.281   5.550
 7580POPC   PO441748  16.723  11.343   5.850
 7580POPC   GL141749  16.764  11.310   6.150
 7580POPC   GL241750  16.837  11.150   6.150
 7580POPC   C1A41751  16.711  11.333   6.450
 7580POPC   D2A41752  16.742  11.266   6.750
 7580POPC   C3A41753  16.709  11.258   7.050
 7580POPC   C4A41754  16.694  11.270   7.350
 7580POPC   C1B41755  16.867  11.062   6.450
 7580POPC   C2B41756  16.883  11.104   6.750
 7580POPC   C3B41757  16.878  11.044   7.050
 7580POPC   C4B41758  16.875  11.071   7.350
 7581POPC   NC341759  29.121  12.116   5.550
 7581POPC   PO441760  29.140  12.102   5.850
 7581POPC   GL141761  29.162  12.068   6.150
 7581POPC   GL241762  29.016  11.999   6.150
 7581POPC   C1A41763  29.168  12.122   6.450
 7581POPC   D2A41764  29.130  12.071   6.750
 7581POPC   C3A41765  29.169  12.053   7.050
 7581POPC   C4A41766  29.150  12.125   7.350
 7581POPC   C1B41767  29.028  11.930   6.450
 7581POPC   C2B41768  28.970  11.841   6.750
 7581POPC   C3B41769  28.966  11.904   7.050
 7581POPC   C4B41770  29.019  11.903   7.350
 7582POPC   NC341771  28.411  43.105   5.550
 7582POPC   PO441772  28.334  43.156   5.850
 7582POPC   GL141773  28.342  43.120   6.150
 7582POPC   GL241774  28.252  43.252   6.150
 7582POPC   C1A41775  28.324  43.078   6.450
 7582POPC   D2A41776  28.413  43.067   6.750
 7582POPC   C3A41777  28.405  43.073   7.050
 7582POPC   C4A41778  28.386  43.139   7.350
 7582POPC   C1B41779  28.239  43.273   6.450
 7582POPC   C2B41780  28.173  43.276   6.750
 7582POPC   C3B41781  28.238  43.286   7.050
 7582POPC   C4B41782  28.201  43.313   7.350
 7583POPC   NC341783  24.484  43.913   5.550
 7583POPC   PO441784  24.529  43.891   5.850
 7583POPC   GL141785  24.492  43.901   6.150
 7583POPC   GL241786  24.480  44.028   6.150
 7583POPC   C1A41787  24.514  43.908   6.450
 7583POPC   D2A41788  24.497  43.931   6.750
 7583POPC   C3A41789  24.508  43.895   7.050
 7583POPC   C4A41790  24.486  43.900   7.350
 7583POPC   C1B41791  24.506  44.118   6.450
 7583POPC   C2B41792  24.477  44.090   6.750
 7583POPC   C3B41793  24.513  44.089   7.050
 7583POPC   C4B41794  24.455  44.140   7.350
 7584POPC   NC341795   5.886  35.356   5.550
 7584POPC   PO441796   5.871  35.330   5.850
 7584POPC   GL141797   5.827  35.372   6.150
 7584POPC   GL241798   5.894  35.272   6.150
 7584POPC   C1A41799   5.876  35.365   6.450
 7584POPC   D2A41800   5.821  35.386   6.750
 7584POPC   C3A41801   5.890  35.317   7.050
 7584POPC   C4A41802   5.854  35.324   7.350
 7584POPC   C1B41803   5.868  35.107   6.450
 7584POPC   C2B41804   5.841  35.103   6.750
 7584POPC   C3B41805   5.907  35.094   7.050
 7584POPC   C4B41806   5.924  35.095   7.350
 7585POPC   NC341807  11.272  13.663   5.550
 7585POPC   PO441808  11.337  13.579   5.850
 7585POPC   GL141809  11.272  13.627   6.150
 7585POPC   GL241810  11.354  13.506   6.150
 7585POPC   C1A41811  11.312  13.642   6.450
 7585POPC   D2A41812  11.330  13.586   6.750
 7585POPC   C3A41813  11.305  13.614   7.050
 7585POPC   C4A41814  11.316  13.642   7.350
 7585POPC   C1B41815  11.413  13.368   6.450
 7585POPC   C2B41816  11.439  13.406   6.750
 7585POPC   C3B41817  11.380  13.402   7.050
 7585POPC   C4B41818  11.464  13.448   7.350
 7586POPC   NC341819  44.671  23.762   5.550
 7586POPC   PO441820  44.683  23.704   5.850
 7586POPC   GL141821  44.641  23.697   6.150
 7586POPC   GL241822  44.744  23.782   6.150
 7586POPC   C1A41823  44.665  23.692   6.450
 7586POPC   D2A41824  44.628  23.703   6.750
 7586POPC   C3A41825  44.621  23.681   7.050
 7586POPC   C4A41826  44.645  23.749   7.350
 7586POPC   C1B41827  44.875  23.885   6.450
 7586POPC   C2B41828  44.873  23.849   6.750
 7586POPC   C3B41829  44.900  23.862   7.050
 7586POPC   C4B41830  44.870  23.817   7.350
 7587POPC   NC341831  26.030  44.711   5.550
 7587POPC   PO441832  26.056  44.634   5.850
 7587POPC   GL141833  26.087  44.632   6.150
 7587POPC   GL241834  26.203  44.657   6.150
 7587POPC   C1A41835  26.076  44.617   6.450
 7587POPC   D2A41836  26.079  44.711   6.750
 7587POPC   C3A41837  26.047  44.657   7.050
 7587POPC   C4A41838  26.007  44.677   7.350
 7587POPC   C1B41839  26.254  44.589   6.450
 7587POPC   C2B41840  26.271  44.557   6.750
 7587POPC   C3B41841  26.253  44.631   7.050
 7587POPC   C4B41842  26.274  44.550   7.350
 7588POPC   NC341843  33.812  39.966   5.550
 7588POPC   PO441844  33.783  40.004   5.850
 7588POPC   GL141845  33.780  39.959   6.150
 7588POPC   GL241846  33.838  40.104   6.150
 7588POPC   C1A41847  33.758  40.048   6.450
 7588POPC   D2A41848  33.751  40.045   6.750
 7588POPC   C3A41849  33.779  40.025   7.050
 7588POPC   C4A41850  33.782  40.029   7.350
 7588POPC   C1B41851  33.807  40.306   6.450
 7588POPC   C2B41852  33.749  40.265   6.750
 7588POPC   C3B41853  33.761  40.252   7.050
 7588POPC   C4B41854  33.772  40.292   7.350
 7589POPC   NC341855  34.589   2.815   5.550
 7589POPC   PO441856  34.554   2.719   5.850
 7589POPC   GL141857  34.610   2.801   6.150
 7589POPC   GL241858  34.555   2.858   6.150
 7589POPC   C1A41859  34.530   2.811   6.450
 7589POPC   D2A41860  34.558   2.777   6.750
 7589POPC   C3A41861  34.533   2.719   7.050
 7589POPC   C4A41862  34.539   2.727   7.350
 7589POPC   C1B41863  34.603   3.052   6.450
 7589POPC   C2B41864  34.659   2.968   6.750
 7589POPC   C3B41865  34.667   3.040   7.050
 7589POPC   C4B41866  34.593   2.966   7.350
 7590POPC   NC341867  21.349  36.156   5.550
 7590POPC   PO441868  21.430  36.133   5.850
 7590POPC   GL141869  21.410  36.167   6.150
 7590POPC   GL241870  21.358  36.290   6.150
 7590POPC   C1A41871  21.387  36.121   6.450
 7590POPC   D2A41872  21.353  36.145   6.750
 7590POPC   C3A41873  21.423  36.105   7.050
 7590POPC   C4A41874  21.359  36.097   7.350
 7590POPC   C1B41875  21.334  36.349   6.450
 7590POPC   C2B41876  21.363  36.420   6.750
 7590POPC   C3B41877  21.344  36.400   7.050
 7590POPC   C4B41878  21.383  36.418   7.350
 7591POPC   NC341879  30.720  36.091   5.550
 7591POPC   PO441880  30.734  36.096   5.850
 7591POPC   GL141881  30.678  36.130   6.150
 7591POPC   GL241882  30.569  36.166   6.150
 7591POPC   C1A41883  30.745  36.122   6.450
 7591POPC   D2A41884  30.648  36.095   6.750
 7591POPC   C3A41885  30.709  36.121   7.050
 7591POPC   C4A41886  30.707  36.119   7.350
 7591POPC   C1B41887  30.453  36.245   6.450
 7591POPC   C2B41888  30.516  36.323   6.750
 7591POPC   C3B41889  30.481  36.296   7.050
 7591POPC   C4B41890  30.474  36.240   7.350
 7592POPC   NC341891  34.577   2.021   5.550
 7592POPC   PO441892  34.548   2.024   5.850
 7592POPC   GL141893  34.551   2.037   6.150
 7592POPC   GL241894  34.444   1.990   6.150
 7592POPC   C1A41895  34.561   1.959   6.450
 7592POPC   D2A41896  34.610   1.990   6.750
 7592POPC   C3A41897  34.609   1.993   7.050
 7592POPC   C4A41898  34.586   1.996   7.350
 7592POPC   C1B41899  34.356   1.868   6.450
 7592POPC   C2B41900  34.353   1.913   6.750
 7592POPC   C3B41901  34.356   1.899   7.050
 7592POPC   C4B41902  34.321   1.885   7.350
 7593POPC   NC341903  28.335  41.595   5.550
 7593POPC   PO441904  28.408  41.528   5.850
 7593POPC   GL141905  28.410  41.564   6.150
 7593POPC   GL241906  28.292  41.536   6.150
 7593POPC   C1A41907  28.332  41.562   6.450
 7593POPC   D2A41908  28.401  41.550   6.750
 7593POPC   C3A41909  28.395  41.546   7.050
 7593POPC   C4A41910  28.345  41.588   7.350
 7593POPC   C1B41911  28.195  41.461   6.450
 7593POPC   C2B41912  28.120  41.404   6.750
 7593POPC   C3B41913  28.155  41.415   7.050
 7593POPC   C4B41914  28.188  41.406   7.350
 7594POPC   NC341915  43.081  29.149   5.550
 7594POPC   PO441916  43.103  29.163   5.850
 7594POPC   GL141917  43.141  29.109   6.150
 7594POPC   GL241918  43.183  29.076   6.150
 7594POPC   C1A41919  43.074  29.185   6.450
 7594POPC   D2A41920  43.077  29.137   6.750
 7594POPC   C3A41921  43.154  29.169   7.050
 7594POPC   C4A41922  43.139  29.121   7.350
 7594POPC   C1B41923  43.325  28.973   6.450
 7594POPC   C2B41924  43.299  28.960   6.750
 7594POPC   C3B41925  43.304  29.004   7.050
 7594POPC   C4B41926  43.284  28.942   7.350
 7595POPC   NC341927  29.097   6.596   5.550
 7595POPC   PO441928  29.187   6.656   5.850
 7595POPC   GL141929  29.172   6.686   6.150
 7595POPC   GL241930  29.154   6.735   6.150
 7595POPC   C1A41931  29.175   6.691   6.450
 7595POPC   D2A41932  29.158   6.601   6.750
 7595POPC   C3A41933  29.144   6.620   7.050
 7595POPC   C4A41934  29.169   6.629   7.350
 7595POPC   C1B41935  29.060   6.878   6.450
 7595POPC   C2B41936  29.115   6.878   6.750
 7595POPC   C3B41937  29.058   6.910   7.050
 7595POPC   C4B41938  29.051   6.904   7.350
 7596POPC   NC341939  23.716  11.297   5.550
 7596POPC   PO441940  23.681  11.309   5.850
 7596POPC   GL141941  23.700  11.287   6.150
 7596POPC   GL241942  23.768  11.380   6.150
 7596POPC   C1A41943  23.715  11.254   6.450
 7596POPC   D2A41944  23.762  11.270   6.750
 7596POPC   C3A41945  23.710  11.255   7.050
 7596POPC   C4A41946  23.757  11.274   7.350
 7596POPC   C1B41947  23.864  11.563   6.450
 7596POPC   C2B41948  23.816  11.524   6.750
 7596POPC   C3B41949  23.834  11.544   7.050
 7596POPC   C4B41950  23.846  11.495   7.350
 7597POPC   NC341951  18.238   1.985   5.550
 7597POPC   PO441952  18.328   2.036   5.850
 7597POPC   GL141953  18.233   1.948   6.150
 7597POPC   GL241954  18.198   2.055   6.150
 7597POPC   C1A41955  18.281   1.971   6.450
 7597POPC   D2A41956  18.302   2.019   6.750
 7597POPC   C3A41957  18.321   1.966   7.050
 7597POPC   C4A41958  18.275   1.940   7.350
 7597POPC   C1B41959  18.114   2.135   6.450
 7597POPC   C2B41960  18.155   2.133   6.750
 7597POPC   C3B41961  18.095   2.232   7.050
 7597POPC   C4B41962  18.171   2.156   7.350
 7598POPC   NC341963   9.718  33.754   5.550
 7598POPC   PO441964   9.776  33.831   5.850
 7598POPC   GL141965   9.720  33.784   6.150
 7598POPC   GL241966   9.818  33.913   6.150
 7598POPC   C1A41967   9.758  33.760   6.450
 7598POPC   D2A41968   9.759  33.814   6.750
 7598POPC   C3A41969   9.731  33.794   7.050
 7598POPC   C4A41970   9.776  33.846   7.350
 7598POPC   C1B41971   9.898  33.969   6.450
 7598POPC   C2B41972   9.976  33.921   6.750
 7598POPC   C3B41973   9.959  33.994   7.050
 7598POPC   C4B41974   9.946  33.990   7.350
 7599POPC   NC341975  36.952  23.737   5.550
 7599POPC   PO441976  36.861  23.702   5.850
 7599POPC   GL141977  36.903  23.752   6.150
 7599POPC   GL241978  36.958  23.598   6.150
 7599POPC   C1A41979  36.866  23.668   6.450
 7599POPC   D2A41980  36.940  23.694   6.750
 7599POPC   C3A41981  36.875  23.715   7.050
 7599POPC   C4A41982  36.917  23.678   7.350
 7599POPC   C1B41983  37.031  23.454   6.450
 7599POPC   C2B41984  37.066  23.471   6.750
 7599POPC   C3B41985  37.068  23.535   7.050
 7599POPC   C4B41986  37.038  23.455   7.350
 7600POPC   NC341987  26.060  35.333   5.550
 7600POPC   PO441988  26.035  35.385   5.850
 7600POPC   GL141989  26.010  35.353   6.150
 7600POPC   GL241990  25.995  35.453   6.150
 7600POPC   C1A41991  25.999  35.318   6.450
 7600POPC   D2A41992  26.025  35.334   6.750
 7600POPC   C3A41993  26.050  35.374   7.050
 7600POPC   C4A41994  26.084  35.309   7.350
 7600POPC   C1B41995  25.949  35.543   6.450
 7600POPC   C2B41996  25.980  35.611   6.750
 7600POPC   C3B41997  25.915  35.537   7.050
 7600POPC   C4B41998  25.943  35.563   7.350
 7601POPC   NC341999  42.384  39.203   5.550
 7601POPC   PO442000  42.369  39.277   5.850
 7601POPC   GL142001  42.328  39.279   6.150
 7601POPC   GL242002  42.475  39.183   6.150
 7601POPC   C1A42003  42.372  39.237   6.450
 7601POPC   D2A42004  42.291  39.208   6.750
 7601POPC   C3A42005  42.333  39.184   7.050
 7601POPC   C4A42006  42.301  39.185   7.350
 7601POPC   C1B42007  42.568  39.121   6.450
 7601POPC   C2B42008  42.578  39.073   6.750
 7601POPC   C3B42009  42.585  39.142   7.050
 7601POPC   C4B42010  42.536  39.106   7.350
 7602POPC   NC342011  38.502   2.739   5.550
 7602POPC   PO442012  38.441   2.793   5.850
 7602POPC   GL142013  38.408   2.808   6.150
 7602POPC   GL242014  38.382   2.652   6.150
 7602POPC   C1A42015  38.472   2.725   6.450
 7602POPC   D2A42016  38.446   2.764   6.750
 7602POPC   C3A42017  38.473   2.749   7.050
 7602POPC   C4A42018  38.428   2.804   7.350
 7602POPC   C1B42019  38.329   2.615   6.450
 7602POPC   C2B42020  38.262   2.538   6.750
 7602POPC   C3B42021  38.320   2.549   7.050
 7602POPC   C4B42022  38.305   2.540   7.350
 7603POPC   NC342023   8.997  15.919   5.550
 7603POPC   PO442024   8.986  16.000   5.850
 7603POPC   GL142025   8.992  15.971   6.150
 7603POPC   GL242026   9.080  15.970   6.150
 7603POPC   C1A42027   8.942  15.988   6.450
 7603POPC   D2A42028   8.930  15.920   6.750
 7603POPC   C3A42029   8.976  15.983   7.050
 7603POPC   C4A42030   9.021  15.983   7.350
 7603POPC   C1B42031   9.266  16.044   6.450
 7603POPC   C2B42032   9.211  16.042   6.750
 7603POPC   C3B42033   9.176  15.998   7.050
 7603POPC   C4B42034   9.254  15.998   7.350
 7604POPC   NC342035  27.564   8.937   5.550
 7604POPC   PO442036  27.569   9.010   5.850
 7604POPC   GL142037  27.584   8.991   6.150
 7604POPC   GL242038  27.687   8.949   6.150
 7604POPC   C1A42039  27.636   8.986   6.450
 7604POPC   D2A42040  27.609   8.945   6.750
 7604POPC   C3A42041  27.594   9.004   7.050
 7604POPC   C4A42042  27.555   8.976   7.350
 7604POPC   C1B42043  27.891   9.008   6.450
 7604POPC   C2B42044  27.873   8.978   6.750
 7604POPC   C3B42045  27.856   8.958   7.050
 7604POPC   C4B42046  27.877   8.956   7.350
 7605POPC   NC342047  28.377  36.164   5.550
 7605POPC   PO442048  28.337  36.168   5.850
 7605POPC   GL142049  28.337  36.132   6.150
 7605POPC   GL242050  28.318  36.033   6.150
 7605POPC   C1A42051  28.334  36.156   6.450
 7605POPC   D2A42052  28.411  36.148   6.750
 7605POPC   C3A42053  28.320  36.088   7.050
 7605POPC   C4A42054  28.347  36.135   7.350
 7605POPC   C1B42055  28.337  35.906   6.450
 7605POPC   C2B42056  28.330  35.852   6.750
 7605POPC   C3B42057  28.265  35.860   7.050
 7605POPC   C4B42058  28.328  35.864   7.350
 7606POPC   NC342059   8.221  24.476   5.550
 7606POPC   PO442060   8.182  24.475   5.850
 7606POPC   GL142061   8.149  24.517   6.150
 7606POPC   GL242062   8.293  24.624   6.150
 7606POPC   C1A42063   8.169  24.506   6.450
 7606POPC   D2A42064   8.188  24.497   6.750
 7606POPC   C3A42065   8.154  24.504   7.050
 7606POPC   C4A42066   8.221  24.458   7.350
 7606POPC   C1B42067   8.275  24.747   6.450
 7606POPC   C2B42068   8.276  24.676   6.750
 7606POPC   C3B42069   8.310  24.695   7.050
 7606POPC   C4B42070   8.275  24.674   7.350
 7607POPC   NC342071  21.345   8.214   5.550
 7607POPC   PO442072  21.423   8.197   5.850
 7607POPC   GL142073  21.363   8.203   6.150
 7607POPC   GL242074  21.343   8.054   6.150
 7607POPC   C1A42075  21.408   8.163   6.450
 7607POPC   D2A42076  21.428   8.183   6.750
 7607POPC   C3A42077  21.360   8.202   7.050
 7607POPC   C4A42078  21.362   8.236   7.350
 7607POPC   C1B42079  21.370   7.958   6.450
 7607POPC   C2B42080  21.319   7.984   6.750
 7607POPC   C3B42081  21.404   7.918   7.050
 7607POPC   C4B42082  21.334   7.926   7.350
 7608POPC   NC342083   2.757   6.664   5.550
 7608POPC   PO442084   2.802   6.642   5.850
 7608POPC   GL142085   2.768   6.648   6.150
 7608POPC   GL242086   2.682   6.667   6.150
 7608POPC   C1A42087   2.721   6.633   6.450
 7608POPC   D2A42088   2.769   6.672   6.750
 7608POPC   C3A42089   2.746   6.672   7.050
 7608POPC   C4A42090   2.787   6.634   7.350
 7608POPC   C1B42091   2.522   6.696   6.450
 7608POPC   C2B42092   2.540   6.768   6.750
 7608POPC   C3B42093   2.548   6.733   7.050
 7608POPC   C4B42094   2.517   6.776   7.350
 7609POPC   NC342095   9.712  34.596   5.550
 7609POPC   PO442096   9.720  34.547   5.850
 7609POPC   GL142097   9.759  34.550   6.150
 7609POPC   GL242098   9.922  34.528   6.150
 7609POPC   C1A42099   9.773  34.569   6.450
 7609POPC   D2A42100   9.795  34.603   6.750
 7609POPC   C3A42101   9.719  34.559   7.050
 7609POPC   C4A42102   9.779  34.535   7.350
 7609POPC   C1B42103   9.961  34.532   6.450
 7609POPC   C2B42104   9.976  34.525   6.750
 7609POPC   C3B42105  10.036  34.532   7.050
 7609POPC   C4B42106   9.990  34.517   7.350
 7610POPC   NC342107  43.902   2.022   5.550
 7610POPC   PO442108  43.885   1.975   5.850
 7610POPC   GL142109  43.872   1.967   6.150
 7610POPC   GL242110  43.845   1.825   6.150
 7610POPC   C1A42111  43.904   2.023   6.450
 7610POPC   D2A42112  43.913   2.013   6.750
 7610POPC   C3A42113  43.921   1.941   7.050
 7610POPC   C4A42114  43.856   2.007   7.350
 7610POPC   C1B42115  43.821   1.754   6.450
 7610POPC   C2B42116  43.880   1.720   6.750
 7610POPC   C3B42117  43.902   1.771   7.050
 7610POPC   C4B42118  43.827   1.707   7.350
 7611POPC   NC342119  13.642  44.659   5.550
 7611POPC   PO442120  13.629  44.644   5.850
 7611POPC   GL142121  13.599  44.703   6.150
 7611POPC   GL242122  13.754  44.540   6.150
 7611POPC   C1A42123  13.627  44.659   6.450
 7611POPC   D2A42124  13.662  44.684   6.750
 7611POPC   C3A42125  13.606  44.612   7.050
 7611POPC   C4A42126  13.623  44.636   7.350
 7611POPC   C1B42127  13.820  44.436   6.450
 7611POPC   C2B42128  13.763  44.486   6.750
 7611POPC   C3B42129  13.841  44.450   7.050
 7611POPC   C4B42130  13.750  44.449   7.350
 7612POPC   NC342131   7.436  36.172   5.550
 7612POPC   PO442132   7.437  36.170   5.850
 7612POPC   GL142133   7.464  36.093   6.150
 7612POPC   GL242134   7.461  36.051   6.150
 7612POPC   C1A42135   7.430  36.133   6.450
 7612POPC   D2A42136   7.447  36.100   6.750
 7612POPC   C3A42137   7.404  36.164   7.050
 7612POPC   C4A42138   7.465  36.140   7.350
 7612POPC   C1B42139   7.441  35.907   6.450
 7612POPC   C2B42140   7.457  35.862   6.750
 7612POPC   C3B42141   7.401  35.915   7.050
 7612POPC   C4B42142   7.481  35.881   7.350
 7613POPC   NC342143  37.716  21.340   5.550
 7613POPC   PO442144  37.648  21.399   5.850
 7613POPC   GL142145  37.635  21.394   6.150
 7613POPC   GL242146  37.837  21.387   6.150
 7613POPC   C1A42147  37.632  21.360   6.450
 7613POPC   D2A42148  37.641  21.379   6.750
 7613POPC   C3A42149  37.648  21.364   7.050
 7613POPC   C4A42150  37.632  21.357   7.350
 7613POPC   C1B42151  37.880  21.483   6.450
 7613POPC   C2B42152  37.918  21.498   6.750
 7613POPC   C3B42153  37.940  21.484   7.050
 7613POPC   C4B42154  37.926  21.473   7.350
 7614POPC   NC342155  22.123  12.824   5.550
 7614POPC   PO442156  22.167  12.878   5.850
 7614POPC   GL142157  22.203  12.848   6.150
 7614POPC   GL242158  22.004  12.812   6.150
 7614POPC   C1A42159  22.154  12.848   6.450
 7614POPC   D2A42160  22.168  12.820   6.750
 7614POPC   C3A42161  22.208  12.859   7.050
 7614POPC   C4A42162  22.147  12.847   7.350
 7614POPC   C1B42163  21.960  12.760   6.450
 7614POPC   C2B42164  21.929  12.789   6.750
 7614POPC   C3B42165  21.903  12.759   7.050
 7614POPC   C4B42166  21.909  12.807   7.350
 7615POPC   NC342167  13.610   8.986   5.550
 7615POPC   PO442168  13.583   8.962   5.850
 7615POPC   GL142169  13.633   8.944   6.150
 7615POPC   GL242170  13.703   8.855   6.150
 7615POPC   C1A42171  13.625   8.979   6.450
 7615POPC   D2A42172  13.635   8.993   6.750
 7615POPC   C3A42173  13.675   8.968   7.050
 7615POPC   C4A42174  13.646   9.009   7.350
 7615POPC   C1B42175  13.740   8.693   6.450
 7615POPC   C2B42176  13.712   8.781   6.750
 7615POPC   C3B42177  13.685   8.691   7.050
 7615POPC   C4B42178  13.663   8.729   7.350
 7616POPC   NC342179  12.884  27.587   5.550
 7616POPC   PO442180  12.860  27.624   5.850
 7616POPC   GL142181  12.873  27.581   6.150
 7616POPC   GL242182  12.815  27.738   6.150
 7616POPC   C1A42183  12.826  27.609   6.450
 7616POPC   D2A42184  12.844  27.627   6.750
 7616POPC   C3A42185  12.896  27.558   7.050
 7616POPC   C4A42186  12.875  27.551   7.350
 7616POPC   C1B42187  12.863  27.796   6.450
 7616POPC   C2B42188  12.841  27.803   6.750
 7616POPC   C3B42189  12.820  27.846   7.050
 7616POPC   C4B42190  12.879  27.818   7.350
 7617POPC   NC342191  36.155  40.038   5.550
 7617POPC   PO442192  36.159  40.010   5.850
 7617POPC   GL142193  36.145  40.028   6.150
 7617POPC   GL242194  36.157  39.850   6.150
 7617POPC   C1A42195  36.112  39.968   6.450
 7617POPC   D2A42196  36.121  40.000   6.750
 7617POPC   C3A42197  36.175  39.992   7.050
 7617POPC   C4A42198  36.090  40.020   7.350
 7617POPC   C1B42199  36.214  39.718   6.450
 7617POPC   C2B42200  36.160  39.741   6.750
 7617POPC   C3B42201  36.183  39.792   7.050
 7617POPC   C4B42202  36.190  39.788   7.350
 7618POPC   NC342203  41.607   5.077   5.550
 7618POPC   PO442204  41.519   5.106   5.850
 7618POPC   GL142205  41.564   5.081   6.150
 7618POPC   GL242206  41.561   5.017   6.150
 7618POPC   C1A42207  41.602   5.085   6.450
 7618POPC   D2A42208  41.561   5.109   6.750
 7618POPC   C3A42209  41.535   5.062   7.050
 7618POPC   C4A42210  41.607   5.081   7.350
 7618POPC   C1B42211  41.532   4.882   6.450
 7618POPC   C2B42212  41.569   4.873   6.750
 7618POPC   C3B42213  41.530   4.835   7.050
 7618POPC   C4B42214  41.536   4.801   7.350
 7619POPC   NC342215  13.661  42.308   5.550
 7619POPC   PO442216  13.677  42.288   5.850
 7619POPC   GL142217  13.641  42.289   6.150
 7619POPC   GL242218  13.529  42.231   6.150
 7619POPC   C1A42219  13.613  42.329   6.450
 7619POPC   D2A42220  13.614  42.374   6.750
 7619POPC   C3A42221  13.676  42.315   7.050
 7619POPC   C4A42222  13.599  42.341   7.350
 7619POPC   C1B42223  13.425  42.205   6.450
 7619POPC   C2B42224  13.448  42.228   6.750
 7619POPC   C3B42225  13.378  42.156   7.050
 7619POPC   C4B42226  13.391  42.192   7.350
 7620POPC   NC342227  36.920  14.431   5.550
 7620POPC   PO442228  36.883  14.367   5.850
 7620POPC   GL142229  36.889  14.386   6.150
 7620POPC   GL242230  36.998  14.314   6.150
 7620POPC   C1A42231  36.915  14.361   6.450
 7620POPC   D2A42232  36.859  14.431   6.750
 7620POPC   C3A42233  36.869  14.406   7.050
 7620POPC   C4A42234  36.854  14.378   7.350
 7620POPC   C1B42235  37.101  14.297   6.450
 7620POPC   C2B42236  37.087  14.259   6.750
 7620POPC   C3B42237  37.122  14.267   7.050
 7620POPC   C4B42238  37.133  14.246   7.350
 7621POPC   NC342239  37.646   2.755   5.550
 7621POPC   PO442240  37.689   2.805   5.850
 7621POPC   GL142241  37.638   2.769   6.150
 7621POPC   GL242242  37.731   2.643   6.150
 7621POPC   C1A42243  37.683   2.757   6.450
 7621POPC   D2A42244  37.729   2.777   6.750
 7621POPC   C3A42245  37.693   2.777   7.050
 7621POPC   C4A42246  37.723   2.811   7.350
 7621POPC   C1B42247  37.782   2.506   6.450
 7621POPC   C2B42248  37.746   2.496   6.750
 7621POPC   C3B42249  37.754   2.513   7.050
 7621POPC   C4B42250  37.768   2.509   7.350
 7622POPC   NC342251  40.756  31.486   5.550
 7622POPC   PO442252  40.766  31.492   5.850
 7622POPC   GL142253  40.808  31.514   6.150
 7622POPC   GL242254  40.851  31.335   6.150
 7622POPC   C1A42255  40.790  31.461   6.450
 7622POPC   D2A42256  40.739  31.432   6.750
 7622POPC   C3A42257  40.749  31.505   7.050
 7622POPC   C4A42258  40.790  31.467   7.350
 7622POPC   C1B42259  40.881  31.227   6.450
 7622POPC   C2B42260  40.883  31.229   6.750
 7622POPC   C3B42261  40.857  31.185   7.050
 7622POPC   C4B42262  40.817  31.223   7.350
 7623POPC   NC342263  25.248  34.562   5.550
 7623POPC   PO442264  25.269  34.576   5.850
 7623POPC   GL142265  25.263  34.552   6.150
 7623POPC   GL242266  25.336  34.496   6.150
 7623POPC   C1A42267  25.296  34.609   6.450
 7623POPC   D2A42268  25.222  34.612   6.750
 7623POPC   C3A42269  25.277  34.595   7.050
 7623POPC   C4A42270  25.234  34.581   7.350
 7623POPC   C1B42271  25.369  34.310   6.450
 7623POPC   C2B42272  25.342  34.344   6.750
 7623POPC   C3B42273  25.328  34.319   7.050
 7623POPC   C4B42274  25.330  34.376   7.350
 7624POPC   NC342275   1.965  23.712   5.550
 7624POPC   PO442276   2.032  23.694   5.850
 7624POPC   GL142277   1.959  23.744   6.150
 7624POPC   GL242278   1.858  23.634   6.150
 7624POPC   C1A42279   1.997  23.745   6.450
 7624POPC   D2A42280   2.002  23.714   6.750
 7624POPC   C3A42281   2.009  23.762   7.050
 7624POPC   C4A42282   1.963  23.676   7.350
 7624POPC   C1B42283   1.782  23.635   6.450
 7624POPC   C2B42284   1.748  23.613   6.750
 7624POPC   C3B42285   1.734  23.652   7.050
 7624POPC   C4B42286   1.803  23.582   7.350
 7625POPC   NC342287  23.693   7.468   5.550
 7625POPC   PO442288  23.760   7.373   5.850
 7625POPC   GL142289  23.708   7.416   6.150
 7625POPC   GL242290  23.837   7.389   6.150
 7625POPC   C1A42291  23.722   7.406   6.450
 7625POPC   D2A42292  23.740   7.408   6.750
 7625POPC   C3A42293  23.719   7.388   7.050
 7625POPC   C4A42294  23.717   7.391   7.350
 7625POPC   C1B42295  23.940   7.475   6.450
 7625POPC   C2B42296  23.934   7.416   6.750
 7625POPC   C3B42297  24.010   7.441   7.050
 7625POPC   C4B42298  23.956   7.458   7.350
 7626POPC   NC342299   1.186  36.951   5.550
 7626POPC   PO442300   1.180  36.919   5.850
 7626POPC   GL142301   1.250  36.902   6.150
 7626POPC   GL242302   1.145  36.808   6.150
 7626POPC   C1A42303   1.254  36.940   6.450
 7626POPC   D2A42304   1.175  36.942   6.750
 7626POPC   C3A42305   1.235  36.909   7.050
 7626POPC   C4A42306   1.181  36.914   7.350
 7626POPC   C1B42307   1.031  36.659   6.450
 7626POPC   C2B42308   1.087  36.740   6.750
 7626POPC   C3B42309   1.051  36.714   7.050
 7626POPC   C4B42310   1.037  36.729   7.350
 7627POPC   NC342311  16.733  32.987   5.550
 7627POPC   PO442312  16.718  33.009   5.850
 7627POPC   GL142313  16.765  33.012   6.150
 7627POPC   GL242314  16.753  32.867   6.150
 7627POPC   C1A42315  16.705  33.009   6.450
 7627POPC   D2A42316  16.742  33.045   6.750
 7627POPC   C3A42317  16.699  33.043   7.050
 7627POPC   C4A42318  16.682  32.998   7.350
 7627POPC   C1B42319  16.795  32.737   6.450
 7627POPC   C2B42320  16.809  32.734   6.750
 7627POPC   C3B42321  16.822  32.742   7.050
 7627POPC   C4B42322  16.759  32.810   7.350
 7628POPC   NC342323  30.718  20.567   5.550
 7628POPC   PO442324  30.736  20.605   5.850
 7628POPC   GL142325  30.742  20.651   6.150
 7628POPC   GL242326  30.667  20.736   6.150
 7628POPC   C1A42327  30.707  20.592   6.450
 7628POPC   D2A42328  30.696  20.591   6.750
 7628POPC   C3A42329  30.738  20.630   7.050
 7628POPC   C4A42330  30.665  20.594   7.350
 7628POPC   C1B42331  30.500  20.820   6.450
 7628POPC   C2B42332  30.572  20.780   6.750
 7628POPC   C3B42333  30.581  20.832   7.050
 7628POPC   C4B42334  30.539  20.778   7.350
 7629POPC   NC342335  41.563  12.059   5.550
 7629POPC   PO442336  41.524  12.051   5.850
 7629POPC   GL142337  41.516  12.033   6.150
 7629POPC   GL242338  41.611  12.182   6.150
 7629POPC   C1A42339  41.563  12.111   6.450
 7629POPC   D2A42340  41.513  12.106   6.750
 7629POPC   C3A42341  41.529  12.062   7.050
 7629POPC   C4A42342  41.554  12.056   7.350
 7629POPC   C1B42343  41.648  12.274   6.450
 7629POPC   C2B42344  41.638  12.248   6.750
 7629POPC   C3B42345  41.637  12.313   7.050
 7629POPC   C4B42346  41.729  12.329   7.350
 7630POPC   NC342347  40.792  39.195   5.550
 7630POPC   PO442348  40.775  39.258   5.850
 7630POPC   GL142349  40.740  39.276   6.150
 7630POPC   GL242350  40.784  39.094   6.150
 7630POPC   C1A42351  40.748  39.261   6.450
 7630POPC   D2A42352  40.831  39.221   6.750
 7630POPC   C3A42353  40.768  39.237   7.050
 7630POPC   C4A42354  40.830  39.194   7.350
 7630POPC   C1B42355  40.775  38.952   6.450
 7630POPC   C2B42356  40.786  38.934   6.750
 7630POPC   C3B42357  40.795  39.008   7.050
 7630POPC   C4B42358  40.748  38.935   7.350
 7631POPC   NC342359  11.345   8.206   5.550
 7631POPC   PO442360  11.320   8.188   5.850
 7631POPC   GL142361  11.298   8.207   6.150
 7631POPC   GL242362  11.173   8.119   6.150
 7631POPC   C1A42363  11.327   8.185   6.450
 7631POPC   D2A42364  11.315   8.201   6.750
 7631POPC   C3A42365  11.318   8.196   7.050
 7631POPC   C4A42366  11.282   8.209   7.350
 7631POPC   C1B42367  11.094   8.044   6.450
 7631POPC   C2B42368  11.150   8.033   6.750
 7631POPC   C3B42369  11.096   8.035   7.050
 7631POPC   C4B42370  11.079   8.006   7.350
 7632POPC   NC342371   7.413  10.524   5.550
 7632POPC   PO442372   7.392  10.553   5.850
 7632POPC   GL142373   7.462  10.532   6.150
 7632POPC   GL242374   7.488  10.376   6.150
 7632POPC   C1A42375   7.426  10.481   6.450
 7632POPC   D2A42376   7.433  10.570   6.750
 7632POPC   C3A42377   7.426  10.498   7.050
 7632POPC   C4A42378   7.445  10.574   7.350
 7632POPC   C1B42379   7.563  10.312   6.450
 7632POPC   C2B42380   7.578  10.278   6.750
 7632POPC   C3B42381   7.524  10.339   7.050
 7632POPC   C4B42382   7.553  10.315   7.350
 7633POPC   NC342383   4.296   1.226   5.550
 7633POPC   PO442384   4.329   1.199   5.850
 7633POPC   GL142385   4.346   1.215   6.150
 7633POPC   GL242386   4.188   1.191   6.150
 7633POPC   C1A42387   4.343   1.258   6.450
 7633POPC   D2A42388   4.326   1.261   6.750
 7633POPC   C3A42389   4.330   1.234   7.050
 7633POPC   C4A42390   4.292   1.217   7.350
 7633POPC   C1B42391   4.047   1.135   6.450
 7633POPC   C2B42392   4.086   1.079   6.750
 7633POPC   C3B42393   4.109   1.113   7.050
 7633POPC   C4B42394   4.108   1.099   7.350
 7634POPC   NC342395  35.385   9.006   5.550
 7634POPC   PO442396  35.350   9.010   5.850
 7634POPC   GL142397  35.359   8.930   6.150
 7634POPC   GL242398  35.306   9.121   6.150
 7634POPC   C1A42399  35.309   8.987   6.450
 7634POPC   D2A42400  35.396   8.980   6.750
 7634POPC   C3A42401  35.371   8.952   7.050
 7634POPC   C4A42402  35.368   9.002   7.350
 7634POPC   C1B42403  35.233   9.163   6.450
 7634POPC   C2B42404  35.265   9.158   6.750
 7634POPC   C3B42405  35.288   9.187   7.050
 7634POPC   C4B42406  35.292   9.181   7.350
 7635POPC   NC342407  12.041  39.201   5.550
 7635POPC   PO442408  12.111  39.247   5.850
 7635POPC   GL142409  12.061  39.234   6.150
 7635POPC   GL242410  11.933  39.334   6.150
 7635POPC   C1A42411  12.109  39.280   6.450
 7635POPC   D2A42412  12.046  39.204   6.750
 7635POPC   C3A42413  12.102  39.200   7.050
 7635POPC   C4A42414  12.118  39.242   7.350
 7635POPC   C1B42415  11.881  39.415   6.450
 7635POPC   C2B42416  11.920  39.358   6.750
 7635POPC   C3B42417  11.895  39.351   7.050
 7635POPC   C4B42418  11.840  39.353   7.350
 7636POPC   NC342419  36.094  22.156   5.550
 7636POPC   PO442420  36.108  22.187   5.850
 7636POPC   GL142421  36.084  22.115   6.150
 7636POPC   GL242422  36.193  22.027   6.150
 7636POPC   C1A42423  36.175  22.121   6.450
 7636POPC   D2A42424  36.144  22.141   6.750
 7636POPC   C3A42425  36.112  22.160   7.050
 7636POPC   C4A42426  36.106  22.173   7.350
 7636POPC   C1B42427  36.247  21.941   6.450
 7636POPC   C2B42428  36.275  21.980   6.750
 7636POPC   C3B42429  36.185  21.923   7.050
 7636POPC   C4B42430  36.201  21.934   7.350
 7637POPC   NC342431  36.928   3.508   5.550
 7637POPC   PO442432  36.885   3.505   5.850
 7637POPC   GL142433  36.873   3.560   6.150
 7637POPC   GL242434  36.840   3.639   6.150
 7637POPC   C1A42435  36.878   3.542   6.450
 7637POPC   D2A42436  36.911   3.514   6.750
 7637POPC   C3A42437  36.874   3.493   7.050
 7637POPC   C4A42438  36.865   3.572   7.350
 7637POPC   C1B42439  36.848   3.791   6.450
 7637POPC   C2B42440  36.880   3.786   6.750
 7637POPC   C3B42441  36.900   3.755   7.050
 7637POPC   C4B42442  36.881   3.773   7.350
 7638POPC   NC342443  10.537  31.515   5.550
 7638POPC   PO442444  10.535  31.514   5.850
 7638POPC   GL142445  10.560  31.479   6.150
 7638POPC   GL242446  10.475  31.423   6.150
 7638POPC   C1A42447  10.564  31.449   6.450
 7638POPC   D2A42448  10.544  31.486   6.750
 7638POPC   C3A42449  10.550  31.457   7.050
 7638POPC   C4A42450  10.483  31.451   7.350
 7638POPC   C1B42451  10.320  31.360   6.450
 7638POPC   C2B42452  10.343  31.333   6.750
 7638POPC   C3B42453  10.338  31.316   7.050
 7638POPC   C4B42454  10.310  31.340   7.350
 7639POPC   NC342455  32.278   4.281   5.550
 7639POPC   PO442456  32.210   4.346   5.850
 7639POPC   GL142457  32.265   4.353   6.150
 7639POPC   GL242458  32.234   4.400   6.150
 7639POPC   C1A42459  32.231   4.331   6.450
 7639POPC   D2A42460  32.206   4.351   6.750
 7639POPC   C3A42461  32.265   4.271   7.050
 7639POPC   C4A42462  32.229   4.314   7.350
 7639POPC   C1B42463  32.216   4.543   6.450
 7639POPC   C2B42464  32.226   4.599   6.750
 7639POPC   C3B42465  32.210   4.588   7.050
 7639POPC   C4B42466  32.222   4.533   7.350
 7640POPC   NC342467   6.640  36.941   5.550
 7640POPC   PO442468   6.634  36.932   5.850
 7640POPC   GL142469   6.678  36.893   6.150
 7640POPC   GL242470   6.758  36.816   6.150
 7640POPC   C1A42471   6.683  36.908   6.450
 7640POPC   D2A42472   6.620  36.924   6.750
 7640POPC   C3A42473   6.676  36.907   7.050
 7640POPC   C4A42474   6.597  36.877   7.350
 7640POPC   C1B42475   6.912  36.786   6.450
 7640POPC   C2B42476   6.874  36.866   6.750
 7640POPC   C3B42477   6.918  36.826   7.050
 7640POPC   C4B42478   6.863  36.836   7.350
 7641POPC   NC342479   8.241  25.227   5.550
 7641POPC   PO442480   8.210  25.243   5.850
 7641POPC   GL142481   8.171  25.260   6.150
 7641POPC   GL242482   8.234  25.162   6.150
 7641POPC   C1A42483   8.239  25.249   6.450
 7641POPC   D2A42484   8.159  25.241   6.750
 7641POPC   C3A42485   8.200  25.270   7.050
 7641POPC   C4A42486   8.208  25.292   7.350
 7641POPC   C1B42487   8.256  25.059   6.450
 7641POPC   C2B42488   8.233  25.039   6.750
 7641POPC   C3B42489   8.255  25.033   7.050
 7641POPC   C4B42490   8.278  25.010   7.350
 7642POPC   NC342491  43.844  11.340   5.550
 7642POPC   PO442492  43.907  11.254   5.850
 7642POPC   GL142493  43.931  11.274   6.150
 7642POPC   GL242494  43.887  11.159   6.150
 7642POPC   C1A42495  43.862  11.345   6.450
 7642POPC   D2A42496  43.899  11.288   6.750
 7642POPC   C3A42497  43.933  11.259   7.050
 7642POPC   C4A42498  43.852  11.343   7.350
 7642POPC   C1B42499  43.874  11.041   6.450
 7642POPC   C2B42500  43.892  11.062   6.750
 7642POPC   C3B42501  43.952  11.035   7.050
 7642POPC   C4B42502  43.917  11.066   7.350
 7643POPC   NC342503  26.055  23.680   5.550
 7643POPC   PO442504  26.027  23.753   5.850
 7643POPC   GL142505  26.054  23.664   6.150
 7643POPC   GL242506  26.120  23.615   6.150
 7643POPC   C1A42507  26.066  23.690   6.450
 7643POPC   D2A42508  26.084  23.701   6.750
 7643POPC   C3A42509  26.035  23.746   7.050
 7643POPC   C4A42510  26.008  23.750   7.350
 7643POPC   C1B42511  26.222  23.560   6.450
 7643POPC   C2B42512  26.197  23.530   6.750
 7643POPC   C3B42513  26.198  23.574   7.050
 7643POPC   C4B42514  26.284  23.566   7.350
 7644POPC   NC342515  24.461  22.193   5.550
 7644POPC   PO442516  24.457  22.211   5.850
 7644POPC   GL142517  24.473  22.186   6.150
 7644POPC   GL242518  24.470  22.045   6.150
 7644POPC   C1A42519  24.457  22.179   6.450
 7644POPC   D2A42520  24.441  22.163   6.750
 7644POPC   C3A42521  24.502  22.179   7.050
 7644POPC   C4A42522  24.467  22.188   7.350
 7644POPC   C1B42523  24.546  21.944   6.450
 7644POPC   C2B42524  24.508  21.947   6.750
 7644POPC   C3B42525  24.492  21.896   7.050
 7644POPC   C4B42526  24.476  21.914   7.350
 7645POPC   NC342527   5.838  32.978   5.550
 7645POPC   PO442528   5.826  32.988   5.850
 7645POPC   GL142529   5.865  33.025   6.150
 7645POPC   GL242530   5.946  32.961   6.150
 7645POPC   C1A42531   5.916  33.006   6.450
 7645POPC   D2A42532   5.854  33.060   6.750
 7645POPC   C3A42533   5.856  32.992   7.050
 7645POPC   C4A42534   5.836  32.988   7.350
 7645POPC   C1B42535   6.077  32.895   6.450
 7645POPC   C2B42536   6.030  32.915   6.750
 7645POPC   C3B42537   6.067  32.867   7.050
 7645POPC   C4B42538   6.088  32.845   7.350
 7646POPC   NC342539  23.735  35.314   5.550
 7646POPC   PO442540  23.693  35.326   5.850
 7646POPC   GL142541  23.710  35.316   6.150
 7646POPC   GL242542  23.567  35.294   6.150
 7646POPC   C1A42543  23.675  35.350   6.450
 7646POPC   D2A42544  23.728  35.324   6.750
 7646POPC   C3A42545  23.721  35.380   7.050
 7646POPC   C4A42546  23.715  35.325   7.350
 7646POPC   C1B42547  23.443  35.290   6.450
 7646POPC   C2B42548  23.451  35.260   6.750
 7646POPC   C3B42549  23.501  35.331   7.050
 7646POPC   C4B42550  23.492  35.328   7.350
 7647POPC   NC342551  27.595  27.629   5.550
 7647POPC   PO442552  27.602  27.592   5.850
 7647POPC   GL142553  27.569  27.633   6.150
 7647POPC   GL242554  27.632  27.427   6.150
 7647POPC   C1A42555  27.567  27.579   6.450
 7647POPC   D2A42556  27.628  27.586   6.750
 7647POPC   C3A42557  27.600  27.544   7.050
 7647POPC   C4A42558  27.637  27.613   7.350
 7647POPC   C1B42559  27.599  27.366   6.450
 7647POPC   C2B42560  27.630  27.303   6.750
 7647POPC   C3B42561  27.636  27.376   7.050
 7647POPC   C4B42562  27.597  27.319   7.350
 7648POPC   NC342563  24.472  12.895   5.550
 7648POPC   PO442564  24.500  12.856   5.850
 7648POPC   GL142565  24.527  12.836   6.150
 7648POPC   GL242566  24.555  12.722   6.150
 7648POPC   C1A42567  24.483  12.894   6.450
 7648POPC   D2A42568  24.535  12.889   6.750
 7648POPC   C3A42569  24.536  12.899   7.050
 7648POPC   C4A42570  24.523  12.834   7.350
 7648POPC   C1B42571  24.613  12.605   6.450
 7648POPC   C2B42572  24.608  12.579   6.750
 7648POPC   C3B42573  24.576  12.665   7.050
 7648POPC   C4B42574  24.590  12.636   7.350
 7649POPC   NC342575  35.347  19.799   5.550
 7649POPC   PO442576  35.398  19.791   5.850
 7649POPC   GL142577  35.341  19.824   6.150
 7649POPC   GL242578  35.451  19.778   6.150
 7649POPC   C1A42579  35.360  19.828   6.450
 7649POPC   D2A42580  35.344  19.804   6.750
 7649POPC   C3A42581  35.317  19.788   7.050
 7649POPC   C4A42582  35.377  19.822   7.350
 7649POPC   C1B42583  35.474  19.618   6.450
 7649POPC   C2B42584  35.434  19.599   6.750
 7649POPC   C3B42585  35.506  19.649   7.050
 7649POPC   C4B42586  35.525  19.648   7.350
 7650POPC   NC342587   9.794  15.999   5.550
 7650POPC   PO442588   9.702  15.925   5.850
 7650POPC   GL142589   9.755  15.999   6.150
 7650POPC   GL242590   9.854  15.918   6.150
 7650POPC   C1A42591   9.728  15.918   6.450
 7650POPC   D2A42592   9.702  15.978   6.750
 7650POPC   C3A42593   9.786  15.943   7.050
 7650POPC   C4A42594   9.797  15.978   7.350
 7650POPC   C1B42595   9.934  15.906   6.450
 7650POPC   C2B42596   9.993  15.885   6.750
 7650POPC   C3B42597  10.018  15.911   7.050
 7650POPC   C4B42598  10.029  15.889   7.350
 7651POPC   NC342599  26.031  36.879   5.550
 7651POPC   PO442600  26.055  36.877   5.850
 7651POPC   GL142601  26.060  36.928   6.150
 7651POPC   GL242602  25.987  37.038   6.150
 7651POPC   C1A42603  26.055  36.942   6.450
 7651POPC   D2A42604  26.032  36.906   6.750
 7651POPC   C3A42605  26.064  36.884   7.050
 7651POPC   C4A42606  26.042  36.861   7.350
 7651POPC   C1B42607  25.890  37.106   6.450
 7651POPC   C2B42608  25.834  37.102   6.750
 7651POPC   C3B42609  25.862  37.085   7.050
 7651POPC   C4B42610  25.853  37.060   7.350
 7652POPC   NC342611  35.329  26.806   5.550
 7652POPC   PO442612  35.312  26.788   5.850
 7652POPC   GL142613  35.367  26.865   6.150
 7652POPC   GL242614  35.393  26.916   6.150
 7652POPC   C1A42615  35.372  26.860   6.450
 7652POPC   D2A42616  35.302  26.847   6.750
 7652POPC   C3A42617  35.302  26.791   7.050
 7652POPC   C4A42618  35.315  26.791   7.350
 7652POPC   C1B42619  35.454  27.019   6.450
 7652POPC   C2B42620  35.453  27.055   6.750
 7652POPC   C3B42621  35.442  27.082   7.050
 7652POPC   C4B42622  35.407  27.025   7.350
 7653POPC   NC342623   8.216  41.564   5.550
 7653POPC   PO442624   8.178  41.519   5.850
 7653POPC   GL142625   8.189  41.583   6.150
 7653POPC   GL242626   8.294  41.442   6.150
 7653POPC   C1A42627   8.165  41.553   6.450
 7653POPC   D2A42628   8.186  41.593   6.750
 7653POPC   C3A42629   8.187  41.532   7.050
 7653POPC   C4A42630   8.192  41.554   7.350
 7653POPC   C1B42631   8.418  41.399   6.450
 7653POPC   C2B42632   8.372  41.452   6.750
 7653POPC   C3B42633   8.365  41.380   7.050
 7653POPC   C4B42634   8.440  41.364   7.350
 7654POPC   NC342635  33.771   9.707   5.550
 7654POPC   PO442636  33.766   9.740   5.850
 7654POPC   GL142637  33.752   9.766   6.150
 7654POPC   GL242638  33.961   9.724   6.150
 7654POPC   C1A42639  33.781   9.766   6.450
 7654POPC   D2A42640  33.781   9.712   6.750
 7654POPC   C3A42641  33.813   9.749   7.050
 7654POPC   C4A42642  33.753   9.741   7.350
 7654POPC   C1B42643  34.051   9.791   6.450
 7654POPC   C2B42644  34.023   9.821   6.750
 7654POPC   C3B42645  34.074   9.725   7.050
 7654POPC   C4B42646  34.077   9.816   7.350
 7655POPC   NC342647  17.543   6.636   5.550
 7655POPC   PO442648  17.463   6.651   5.850
 7655POPC   GL142649  17.481   6.660   6.150
 7655POPC   GL242650  17.453   6.807   6.150
 7655POPC   C1A42651  17.495   6.618   6.450
 7655POPC   D2A42652  17.477   6.602   6.750
 7655POPC   C3A42653  17.553   6.623   7.050
 7655POPC   C4A42654  17.489   6.617   7.350
 7655POPC   C1B42655  17.429   6.887   6.450
 7655POPC   C2B42656  17.509   6.853   6.750
 7655POPC   C3B42657  17.446   6.858   7.050
 7655POPC   C4B42658  17.419   6.941   7.350
 7656POPC   NC342659  34.581  12.058   5.550
 7656POPC   PO442660  34.546  12.121   5.850
 7656POPC   GL142661  34.534  12.054   6.150
 7656POPC   GL242662  34.549  12.177   6.150
 7656POPC   C1A42663  34.560  12.028   6.450
 7656POPC   D2A42664  34.528  12.072   6.750
 7656POPC   C3A42665  34.531  12.053   7.050
 7656POPC   C4A42666  34.615  12.050   7.350
 7656POPC   C1B42667  34.602  12.272   6.450
 7656POPC   C2B42668  34.615  12.361   6.750
 7656POPC   C3B42669  34.596  12.348   7.050
 7656POPC   C4B42670  34.650  12.324   7.350
 7657POPC   NC342671  28.376  43.877   5.550
 7657POPC   PO442672  28.326  43.880   5.850
 7657POPC   GL142673  28.354  43.904   6.150
 7657POPC   GL242674  28.466  43.910   6.150
 7657POPC   C1A42675  28.366  43.899   6.450
 7657POPC   D2A42676  28.418  43.836   6.750
 7657POPC   C3A42677  28.358  43.847   7.050
 7657POPC   C4A42678  28.413  43.861   7.350
 7657POPC   C1B42679  28.574  43.867   6.450
 7657POPC   C2B42680  28.662  43.864   6.750
 7657POPC   C3B42681  28.603  43.887   7.050
 7657POPC   C4B42682  28.636  43.816   7.350
 7658POPC   NC342683   3.546  36.860   5.550
 7658POPC   PO442684   3.585  36.930   5.850
 7658POPC   GL142685   3.564  36.893   6.150
 7658POPC   GL242686   3.479  37.037   6.150
 7658POPC   C1A42687   3.517  36.877   6.450
 7658POPC   D2A42688   3.502  36.873   6.750
 7658POPC   C3A42689   3.539  36.873   7.050
 7658POPC   C4A42690   3.512  36.913   7.350
 7658POPC   C1B42691   3.429  37.148   6.450
 7658POPC   C2B42692   3.451  37.071   6.750
 7658POPC   C3B42693   3.451  37.122   7.050
 7658POPC   C4B42694   3.449  37.127   7.350
 7659POPC   NC342695  36.095  14.354   5.550
 7659POPC   PO442696  36.148  14.412   5.850
 7659POPC   GL142697  36.110  14.427   6.150
 7659POPC   GL242698  36.143  14.327   6.150
 7659POPC   C1A42699  36.171  14.416   6.450
 7659POPC   D2A42700  36.161  14.356   6.750
 7659POPC   C3A42701  36.098  14.422   7.050
 7659POPC   C4A42702  36.109  14.446   7.350
 7659POPC   C1B42703  36.079  14.158   6.450
 7659POPC   C2B42704  36.105  14.146   6.750
 7659POPC   C3B42705  36.090  14.114   7.050
 7659POPC   C4B42706  36.085  14.174   7.350
 7660POPC   NC342707  34.545  35.381   5.550
 7660POPC   PO442708  34.617  35.360   5.850
 7660POPC   GL142709  34.529  35.315   6.150
 7660POPC   GL242710  34.542  35.227   6.150
 7660POPC   C1A42711  34.605  35.302   6.450
 7660POPC   D2A42712  34.566  35.329   6.750
 7660POPC   C3A42713  34.613  35.329   7.050
 7660POPC   C4A42714  34.538  35.369   7.350
 7660POPC   C1B42715  34.542  35.056   6.450
 7660POPC   C2B42716  34.553  35.056   6.750
 7660POPC   C3B42717  34.541  35.125   7.050
 7660POPC   C4B42718  34.497  35.085   7.350
 7661POPC   NC342719  39.220   7.422   5.550
 7661POPC   PO442720  39.260   7.395   5.850
 7661POPC   GL142721  39.226   7.416   6.150
 7661POPC   GL242722  39.143   7.524   6.150
 7661POPC   C1A42723  39.264   7.425   6.450
 7661POPC   D2A42724  39.271   7.431   6.750
 7661POPC   C3A42725  39.187   7.418   7.050
 7661POPC   C4A42726  39.261   7.383   7.350
 7661POPC   C1B42727  39.031   7.630   6.450
 7661POPC   C2B42728  39.085   7.604   6.750
 7661POPC   C3B42729  39.066   7.637   7.050
 7661POPC   C4B42730  39.091   7.572   7.350
 7662POPC   NC342731  32.289  33.013   5.550
 7662POPC   PO442732  32.277  33.040   5.850
 7662POPC   GL142733  32.287  33.068   6.150
 7662POPC   GL242734  32.139  32.951   6.150
 7662POPC   C1A42735  32.250  33.001   6.450
 7662POPC   D2A42736  32.234  32.975   6.750
 7662POPC   C3A42737  32.202  33.069   7.050
 7662POPC   C4A42738  32.202  33.034   7.350
 7662POPC   C1B42739  32.001  32.920   6.450
 7662POPC   C2B42740  31.992  32.922   6.750
 7662POPC   C3B42741  32.055  32.884   7.050
 7662POPC   C4B42742  31.991  32.853   7.350
 7663POPC   NC342743  15.186  15.147   5.550
 7663POPC   PO442744  15.201  15.188   5.850
 7663POPC   GL142745  15.176  15.188   6.150
 7663POPC   GL242746  15.269  15.259   6.150
 7663POPC   C1A42747  15.145  15.207   6.450
 7663POPC   D2A42748  15.170  15.187   6.750
 7663POPC   C3A42749  15.194  15.176   7.050
 7663POPC   C4A42750  15.174  15.201   7.350
 7663POPC   C1B42751  15.224  15.395   6.450
 7663POPC   C2B42752  15.289  15.421   6.750
 7663POPC   C3B42753  15.267  15.385   7.050
 7663POPC   C4B42754  15.270  15.433   7.350
 7664POPC   NC342755  32.292  16.681   5.550
 7664POPC   PO442756  32.232  16.715   5.850
 7664POPC   GL142757  32.254  16.708   6.150
 7664POPC   GL242758  32.329  16.621   6.150
 7664POPC   C1A42759  32.278  16.709   6.450
 7664POPC   D2A42760  32.219  16.757   6.750
 7664POPC   C3A42761  32.203  16.751   7.050
 7664POPC   C4A42762  32.210  16.777   7.350
 7664POPC   C1B42763  32.302  16.478   6.450
 7664POPC   C2B42764  32.346  16.499   6.750
 7664POPC   C3B42765  32.298  16.516   7.050
 7664POPC   C4B42766  32.343  16.465   7.350
 7665POPC   NC342767   9.778  13.636   5.550
 7665POPC   PO442768   9.793  13.623   5.850
 7665POPC   GL142769   9.769  13.629   6.150
 7665POPC   GL242770   9.663  13.703   6.150
 7665POPC   C1A42771   9.736  13.625   6.450
 7665POPC   D2A42772   9.734  13.594   6.750
 7665POPC   C3A42773   9.740  13.673   7.050
 7665POPC   C4A42774   9.765  13.590   7.350
 7665POPC   C1B42775   9.646  13.858   6.450
 7665POPC   C2B42776   9.647  13.864   6.750
 7665POPC   C3B42777   9.722  13.848   7.050
 7665POPC   C4B42778   9.636  13.878   7.350
 7666POPC   NC342779  43.138  43.146   5.550
 7666POPC   PO442780  43.104  43.122   5.850
 7666POPC   GL142781  43.118  43.081   6.150
 7666POPC   GL242782  43.171  43.005   6.150
 7666POPC   C1A42783  43.139  43.095   6.450
 7666POPC   D2A42784  43.097  43.069   6.750
 7666POPC   C3A42785  43.136  43.118   7.050
 7666POPC   C4A42786  43.113  43.160   7.350
 7666POPC   C1B42787  43.187  42.910   6.450
 7666POPC   C2B42788  43.192  42.866   6.750
 7666POPC   C3B42789  43.234  42.848   7.050
 7666POPC   C4B42790  43.208  42.850   7.350
 7667POPC   NC342791  17.555  24.506   5.550
 7667POPC   PO442792  17.544  24.530   5.850
 7667POPC   GL142793  17.511  24.496   6.150
 7667POPC   GL242794  17.635  24.502   6.150
 7667POPC   C1A42795  17.523  24.539   6.450
 7667POPC   D2A42796  17.471  24.518   6.750
 7667POPC   C3A42797  17.465  24.474   7.050
 7667POPC   C4A42798  17.502  24.468   7.350
 7667POPC   C1B42799  17.773  24.589   6.450
 7667POPC   C2B42800  17.785  24.590   6.750
 7667POPC   C3B42801  17.767  24.557   7.050
 7667POPC   C4B42802  17.746  24.577   7.350
 7668POPC   NC342803  42.300  43.114   5.550
 7668POPC   PO442804  42.351  43.135   5.850
 7668POPC   GL142805  42.346  43.087   6.150
 7668POPC   GL242806  42.405  43.015   6.150
 7668POPC   C1A42807  42.319  43.098   6.450
 7668POPC   D2A42808  42.347  43.100   6.750
 7668POPC   C3A42809  42.299  43.117   7.050
 7668POPC   C4A42810  42.329  43.115   7.350
 7668POPC   C1B42811  42.372  42.849   6.450
 7668POPC   C2B42812  42.406  42.882   6.750
 7668POPC   C3B42813  42.415  42.859   7.050
 7668POPC   C4B42814  42.409  42.836   7.350
 7669POPC   NC342815   5.079   9.748   5.550
 7669POPC   PO442816   5.081   9.772   5.850
 7669POPC   GL142817   5.121   9.772   6.150
 7669POPC   GL242818   4.930   9.791   6.150
 7669POPC   C1A42819   5.116   9.746   6.450
 7669POPC   D2A42820   5.116   9.702   6.750
 7669POPC   C3A42821   5.056   9.788   7.050
 7669POPC   C4A42822   5.101   9.766   7.350
 7669POPC   C1B42823   4.803   9.752   6.450
 7669POPC   C2B42824   4.875   9.796   6.750
 7669POPC   C3B42825   4.850   9.822   7.050
 7669POPC   C4B42826   4.860   9.739   7.350
 7670POPC   NC342827  39.260  30.700   5.550
 7670POPC   PO442828  39.247  30.648   5.850
 7670POPC   GL142829  39.182  30.662   6.150
 7670POPC   GL242830  39.304  30.842   6.150
 7670POPC   C1A42831  39.206  30.746   6.450
 7670POPC   D2A42832  39.214  30.675   6.750
 7670POPC   C3A42833  39.260  30.716   7.050
 7670POPC   C4A42834  39.267  30.725   7.350
 7670POPC   C1B42835  39.309  30.918   6.450
 7670POPC   C2B42836  39.355  30.956   6.750
 7670POPC   C3B42837  39.329  30.884   7.050
 7670POPC   C4B42838  39.344  30.959   7.350
 7671POPC   NC342839  24.496  30.703   5.550
 7671POPC   PO442840  24.456  30.688   5.850
 7671POPC   GL142841  24.448  30.685   6.150
 7671POPC   GL242842  24.438  30.760   6.150
 7671POPC   C1A42843  24.537  30.736   6.450
 7671POPC   D2A42844  24.504  30.693   6.750
 7671POPC   C3A42845  24.504  30.723   7.050
 7671POPC   C4A42846  24.465  30.728   7.350
 7671POPC   C1B42847  24.389  30.950   6.450
 7671POPC   C2B42848  24.373  30.954   6.750
 7671POPC   C3B42849  24.381  30.917   7.050
 7671POPC   C4B42850  24.401  30.934   7.350
 7672POPC   NC342851  23.692   9.749   5.550
 7672POPC   PO442852  23.669   9.771   5.850
 7672POPC   GL142853  23.762   9.766   6.150
 7672POPC   GL242854  23.724   9.862   6.150
 7672POPC   C1A42855  23.675   9.783   6.450
 7672POPC   D2A42856  23.716   9.781   6.750
 7672POPC   C3A42857  23.730   9.754   7.050
 7672POPC   C4A42858  23.671   9.738   7.350
 7672POPC   C1B42859  23.739   9.942   6.450
 7672POPC   C2B42860  23.760  10.016   6.750
 7672POPC   C3B42861  23.787  10.020   7.050
 7672POPC   C4B42862  23.775  10.025   7.350
 7673POPC   NC342863  20.605   1.983   5.550
 7673POPC   PO442864  20.632   2.022   5.850
 7673POPC   GL142865  20.626   1.956   6.150
 7673POPC   GL242866  20.700   1.871   6.150
 7673POPC   C1A42867  20.606   1.983   6.450
 7673POPC   D2A42868  20.657   1.956   6.750
 7673POPC   C3A42869  20.607   1.984   7.050
 7673POPC   C4A42870  20.609   2.016   7.350
 7673POPC   C1B42871  20.718   1.777   6.450
 7673POPC   C2B42872  20.683   1.733   6.750
 7673POPC   C3B42873  20.700   1.735   7.050
 7673POPC   C4B42874  20.729   1.799   7.350
 7674POPC   NC342875  26.780  26.084   5.550
 7674POPC   PO442876  26.819  26.049   5.850
 7674POPC   GL142877  26.778  26.021   6.150
 7674POPC   GL242878  26.692  26.006   6.150
 7674POPC   C1A42879  26.817  26.068   6.450
 7674POPC   D2A42880  26.770  26.082   6.750
 7674POPC   C3A42881  26.836  25.994   7.050
 7674POPC   C4A42882  26.829  26.001   7.350
 7674POPC   C1B42883  26.594  25.945   6.450
 7674POPC   C2B42884  26.555  25.932   6.750
 7674POPC   C3B42885  26.594  25.884   7.050
 7674POPC   C4B42886  26.639  25.973   7.350
 7675POPC   NC342887  34.540  36.905   5.550
 7675POPC   PO442888  34.528  36.914   5.850
 7675POPC   GL142889  34.589  36.935   6.150
 7675POPC   GL242890  34.707  36.957   6.150
 7675POPC   C1A42891  34.612  36.879   6.450
 7675POPC   D2A42892  34.527  36.906   6.750
 7675POPC   C3A42893  34.535  36.856   7.050
 7675POPC   C4A42894  34.573  36.934   7.350
 7675POPC   C1B42895  34.783  37.039   6.450
 7675POPC   C2B42896  34.782  37.069   6.750
 7675POPC   C3B42897  34.785  37.107   7.050
 7675POPC   C4B42898  34.773  37.017   7.350
 7676POPC   NC342899  32.296  39.192   5.550
 7676POPC   PO442900  32.251  39.265   5.850
 7676POPC   GL142901  32.251  39.195   6.150
 7676POPC   GL242902  32.257  39.130   6.150
 7676POPC   C1A42903  32.223  39.275   6.450
 7676POPC   D2A42904  32.218  39.217   6.750
 7676POPC   C3A42905  32.277  39.257   7.050
 7676POPC   C4A42906  32.210  39.216   7.350
 7676POPC   C1B42907  32.312  38.963   6.450
 7676POPC   C2B42908  32.294  38.957   6.750
 7676POPC   C3B42909  32.363  38.970   7.050
 7676POPC   C4B42910  32.362  39.008   7.350
 7677POPC   NC342911  40.791  13.610   5.550
 7677POPC   PO442912  40.741  13.598   5.850
 7677POPC   GL142913  40.770  13.628   6.150
 7677POPC   GL242914  40.887  13.549   6.150
 7677POPC   C1A42915  40.770  13.644   6.450
 7677POPC   D2A42916  40.749  13.614   6.750
 7677POPC   C3A42917  40.824  13.602   7.050
 7677POPC   C4A42918  40.740  13.600   7.350
 7677POPC   C1B42919  41.020  13.543   6.450
 7677POPC   C2B42920  41.031  13.491   6.750
 7677POPC   C3B42921  41.013  13.562   7.050
 7677POPC   C4B42922  41.014  13.486   7.350
 7678POPC   NC342923  22.116  25.254   5.550
 7678POPC   PO442924  22.157  25.301   5.850
 7678POPC   GL142925  22.182  25.303   6.150
 7678POPC   GL242926  22.233  25.365   6.150
 7678POPC   C1A42927  22.117  25.229   6.450
 7678POPC   D2A42928  22.143  25.310   6.750
 7678POPC   C3A42929  22.138  25.282   7.050
 7678POPC   C4A42930  22.129  25.288   7.350
 7678POPC   C1B42931  22.388  25.387   6.450
 7678POPC   C2B42932  22.414  25.416   6.750
 7678POPC   C3B42933  22.337  25.365   7.050
 7678POPC   C4B42934  22.404  25.395   7.350
 7679POPC   NC342935  24.507   6.683   5.550
 7679POPC   PO442936  24.513   6.665   5.850
 7679POPC   GL142937  24.474   6.685   6.150
 7679POPC   GL242938  24.640   6.686   6.150
 7679POPC   C1A42939  24.482   6.617   6.450
 7679POPC   D2A42940  24.497   6.606   6.750
 7679POPC   C3A42941  24.489   6.650   7.050
 7679POPC   C4A42942  24.448   6.596   7.350
 7679POPC   C1B42943  24.684   6.715   6.450
 7679POPC   C2B42944  24.714   6.698   6.750
 7679POPC   C3B42945  24.738   6.711   7.050
 7679POPC   C4B42946  24.766   6.734   7.350
 7680POPC   NC342947  30.706   8.948   5.550
 7680POPC   PO442948  30.727   8.955   5.850
 7680POPC   GL142949  30.656   8.966   6.150
 7680POPC   GL242950  30.782   8.833   6.150
 7680POPC   C1A42951  30.650   8.957   6.450
 7680POPC   D2A42952  30.697   8.941   6.750
 7680POPC   C3A42953  30.721   8.970   7.050
 7680POPC   C4A42954  30.714   8.928   7.350
 7680POPC   C1B42955  30.795   8.726   6.450
 7680POPC   C2B42956  30.768   8.726   6.750
 7680POPC   C3B42957  30.804   8.751   7.050
 7680POPC   C4B42958  30.771   8.783   7.350
 7681POPC   NC342959  38.456  12.124   5.550
 7681POPC   PO442960  38.463  12.100   5.850
 7681POPC   GL142961  38.455  12.091   6.150
 7681POPC   GL242962  38.574  12.034   6.150
 7681POPC   C1A42963  38.429  12.063   6.450
 7681POPC   D2A42964  38.476  12.095   6.750
 7681POPC   C3A42965  38.474  12.066   7.050
 7681POPC   C4A42966  38.437  12.070   7.350
 7681POPC   C1B42967  38.655  11.853   6.450
 7681POPC   C2B42968  38.616  11.915   6.750
 7681POPC   C3B42969  38.638  11.844   7.050
 7681POPC   C4B42970  38.635  11.933   7.350
 7682POPC   NC342971  16.751  12.096   5.550
 7682POPC   PO442972  16.770  12.086   5.850
 7682POPC   GL142973  16.775  12.048   6.150
 7682POPC   GL242974  16.607  12.128   6.150
 7682POPC   C1A42975  16.738  12.037   6.450
 7682POPC   D2A42976  16.756  12.065   6.750
 7682POPC   C3A42977  16.687  12.031   7.050
 7682POPC   C4A42978  16.697  12.081   7.350
 7682POPC   C1B42979  16.551  12.227   6.450
 7682POPC   C2B42980  16.559  12.193   6.750
 7682POPC   C3B42981  16.493  12.179   7.050
 7682POPC   C4B42982  16.481  12.236   7.350
 7683POPC   NC342983  42.372  23.720   5.550
 7683POPC   PO442984  42.336  23.716   5.850
 7683POPC   GL142985  42.331  23.756   6.150
 7683POPC   GL242986  42.439  23.786   6.150
 7683POPC   C1A42987  42.349  23.704   6.450
 7683POPC   D2A42988  42.303  23.741   6.750
 7683POPC   C3A42989  42.371  23.665   7.050
 7683POPC   C4A42990  42.291  23.695   7.350
 7683POPC   C1B42991  42.549  23.899   6.450
 7683POPC   C2B42992  42.531  23.860   6.750
 7683POPC   C3B42993  42.494  23.877   7.050
 7683POPC   C4B42994  42.484  23.923   7.350
 7684POPC   NC342995  19.866   2.717   5.550
 7684POPC   PO442996  19.815   2.735   5.850
 7684POPC   GL142997  19.849   2.809   6.150
 7684POPC   GL242998  19.723   2.708   6.150
 7684POPC   C1A42999  19.803   2.732   6.450
 7684POPC   D2A43000  19.813   2.789   6.750
 7684POPC   C3A43001  19.821   2.757   7.050
 7684POPC   C4A43002  19.878   2.752   7.350
 7684POPC   C1B43003  19.717   2.532   6.450
 7684POPC   C2B43004  19.659   2.523   6.750
 7684POPC   C3B43005  19.727   2.528   7.050
 7684POPC   C4B43006  19.703   2.564   7.350
 7685POPC   NC343007   1.206  23.679   5.550
 7685POPC   PO443008   1.235  23.739   5.850
 7685POPC   GL143009   1.166  23.731   6.150
 7685POPC   GL243010   1.356  23.731   6.150
 7685POPC   C1A43011   1.251  23.709   6.450
 7685POPC   D2A43012   1.204  23.714   6.750
 7685POPC   C3A43013   1.224  23.732   7.050
 7685POPC   C4A43014   1.244  23.737   7.350
 7685POPC   C1B43015   1.454  23.747   6.450
 7685POPC   C2B43016   1.483  23.672   6.750
 7685POPC   C3B43017   1.432  23.704   7.050
 7685POPC   C4B43018   1.490  23.667   7.350
 7686POPC   NC343019  40.742  18.293   5.550
 7686POPC   PO443020  40.769  18.284   5.850
 7686POPC   GL143021  40.740  18.257   6.150
 7686POPC   GL243022  40.874  18.348   6.150
 7686POPC   C1A43023  40.758  18.307   6.450
 7686POPC   D2A43024  40.777  18.273   6.750
 7686POPC   C3A43025  40.745  18.314   7.050
 7686POPC   C4A43026  40.734  18.290   7.350
 7686POPC   C1B43027  40.971  18.420   6.450
 7686POPC   C2B43028  41.002  18.421   6.750
 7686POPC   C3B43029  40.969  18.412   7.050
 7686POPC   C4B43030  41.035  18.379   7.350
 7687POPC   NC343031  22.958  21.367   5.550
 7687POPC   PO443032  22.900  21.422   5.850
 7687POPC   GL143033  22.893  21.417   6.150
 7687POPC   GL243034  23.037  21.336   6.150
 7687POPC   C1A43035  22.968  21.376   6.450
 7687POPC   D2A43036  22.916  21.410   6.750
 7687POPC   C3A43037  22.888  21.365   7.050
 7687POPC   C4A43038  22.944  21.367   7.350
 7687POPC   C1B43039  23.212  21.257   6.450
 7687POPC   C2B43040  23.186  21.253   6.750
 7687POPC   C3B43041  23.177  21.283   7.050
 7687POPC   C4B43042  23.135  21.278   7.350
 7688POPC   NC343043   1.210   8.976   5.550
 7688POPC   PO443044   1.168   8.992   5.850
 7688POPC   GL143045   1.246   8.953   6.150
 7688POPC   GL243046   1.150   8.880   6.150
 7688POPC   C1A43047   1.189   8.938   6.450
 7688POPC   D2A43048   1.168   9.007   6.750
 7688POPC   C3A43049   1.230   8.952   7.050
 7688POPC   C4A43050   1.194   8.955   7.350
 7688POPC   C1B43051   1.113   8.750   6.450
 7688POPC   C2B43052   1.091   8.722   6.750
 7688POPC   C3B43053   1.155   8.738   7.050
 7688POPC   C4B43054   1.084   8.721   7.350
 7689POPC   NC343055  19.833  32.295   5.550
 7689POPC   PO443056  19.855  32.245   5.850
 7689POPC   GL143057  19.831  32.200   6.150
 7689POPC   GL243058  19.663  32.215   6.150
 7689POPC   C1A43059  19.856  32.285   6.450
 7689POPC   D2A43060  19.864  32.277   6.750
 7689POPC   C3A43061  19.833  32.289   7.050
 7689POPC   C4A43062  19.829  32.246   7.350
 7689POPC   C1B43063  19.596  32.253   6.450
 7689POPC   C2B43064  19.589  32.198   6.750
 7689POPC   C3B43065  19.577  32.248   7.050
 7689POPC   C4B43066  19.571  32.231   7.350
 7690POPC   NC343067  33.770   0.474   5.550
 7690POPC   PO443068  33.772   0.474   5.850
 7690POPC   GL143069  33.829   0.394   6.150
 7690POPC   GL243070  33.670   0.336   6.150
 7690POPC   C1A43071  33.828   0.470   6.450
 7690POPC   D2A43072  33.834   0.435   6.750
 7690POPC   C3A43073  33.787   0.408   7.050
 7690POPC   C4A43074  33.849   0.438   7.350
 7690POPC   C1B43075  33.586   0.232   6.450
 7690POPC   C2B43076  33.601   0.249   6.750
 7690POPC   C3B43077  33.601   0.236   7.050
 7690POPC   C4B43078  33.679   0.275   7.350
 7691POPC   NC343079  26.854  40.030   5.550
 7691POPC   PO443080  26.864  40.019   5.850
 7691POPC   GL143081  26.829  40.002   6.150
 7691POPC   GL243082  26.730  39.962   6.150
 7691POPC   C1A43083  26.798  40.012   6.450
 7691POPC   D2A43084  26.783  40.046   6.750
 7691POPC   C3A43085  26.848  40.026   7.050
 7691POPC   C4A43086  26.793  40.021   7.350
 7691POPC   C1B43087  26.633  39.829   6.450
 7691POPC   C2B43088  26.611  39.810   6.750
 7691POPC   C3B43089  26.675  39.874   7.050
 7691POPC   C4B43090  26.652  39.786   7.350
 7692POPC   NC343091  33.062  40.781   5.550
 7692POPC   PO443092  33.068  40.746   5.850
 7692POPC   GL143093  33.071  40.745   6.150
 7692POPC   GL243094  32.964  40.695   6.150
 7692POPC   C1A43095  32.992  40.741   6.450
 7692POPC   D2A43096  33.047  40.800   6.750
 7692POPC   C3A43097  33.060  40.741   7.050
 7692POPC   C4A43098  33.053  40.826   7.350
 7692POPC   C1B43099  32.812  40.582   6.450
 7692POPC   C2B43100  32.812  40.614   6.750
 7692POPC   C3B43101  32.891  40.599   7.050
 7692POPC   C4B43102  32.796  40.561   7.350
 7693POPC   NC343103  11.324  12.855   5.550
 7693POPC   PO443104  11.301  12.826   5.850
 7693POPC   GL143105  11.315  12.804   6.150
 7693POPC   GL243106  11.279  12.759   6.150
 7693POPC   C1A43107  11.328  12.868   6.450
 7693POPC   D2A43108  11.251  12.840   6.750
 7693POPC   C3A43109  11.329  12.886   7.050
 7693POPC   C4A43110  11.296  12.821   7.350
 7693POPC   C1B43111  11.163  12.610   6.450
 7693POPC   C2B43112  11.172  12.589   6.750
 7693POPC   C3B43113  11.188  12.646   7.050
 7693POPC   C4B43114  11.212  12.620   7.350
 7694POPC   NC343115  18.323   2.739   5.550
 7694POPC   PO443116  18.267   2.761   5.850
 7694POPC   GL143117  18.328   2.726   6.150
 7694POPC   GL243118  18.131   2.720   6.150
 7694POPC   C1A43119  18.329   2.778   6.450
 7694POPC   D2A43120  18.306   2.763   6.750
 7694POPC   C3A43121  18.313   2.727   7.050
 7694POPC   C4A43122  18.275   2.766   7.350
 7694POPC   C1B43123  18.028   2.676   6.450
 7694POPC   C2B43124  18.031   2.693   6.750
 7694POPC   C3B43125  18.033   2.741   7.050
 7694POPC   C4B43126  18.014   2.671   7.350
 7695POPC   NC343127   5.063  31.472   5.550
 7695POPC   PO443128   5.087  31.424   5.850
 7695POPC   GL143129   5.054  31.460   6.150
 7695POPC   GL243130   5.262  31.429   6.150
 7695POPC   C1A43131   5.067  31.461   6.450
 7695POPC   D2A43132   5.083  31.439   6.750
 7695POPC   C3A43133   5.129  31.459   7.050
 7695POPC   C4A43134   5.087  31.450   7.350
 7695POPC   C1B43135   5.375  31.485   6.450
 7695POPC   C2B43136   5.338  31.445   6.750
 7695POPC   C3B43137   5.383  31.488   7.050
 7695POPC   C4B43138   5.294  31.487   7.350
 7696POPC   NC343139  30.703   4.336   5.550
 7696POPC   PO443140  30.670   4.353   5.850
 7696POPC   GL143141  30.739   4.326   6.150
 7696POPC   GL243142  30.803   4.420   6.150
 7696POPC   C1A43143  30.682   4.315   6.450
 7696POPC   D2A43144  30.733   4.365   6.750
 7696POPC   C3A43145  30.656   4.306   7.050
 7696POPC   C4A43146  30.724   4.356   7.350
 7696POPC   C1B43147  30.844   4.513   6.450
 7696POPC   C2B43148  30.865   4.555   6.750
 7696POPC   C3B43149  30.786   4.530   7.050
 7696POPC   C4B43150  30.857   4.537   7.350
 7697POPC   NC343151  43.081  38.440   5.550
 7697POPC   PO443152  43.079  38.493   5.850
 7697POPC   GL143153  43.093  38.461   6.150
 7697POPC   GL243154  43.086  38.304   6.150
 7697POPC   C1A43155  43.068  38.436   6.450
 7697POPC   D2A43156  43.114  38.455   6.750
 7697POPC   C3A43157  43.126  38.493   7.050
 7697POPC   C4A43158  43.114  38.488   7.350
 7697POPC   C1B43159  43.147  38.225   6.450
 7697POPC   C2B43160  43.156  38.194   6.750
 7697POPC   C3B43161  43.117  38.227   7.050
 7697POPC   C4B43162  43.150  38.247   7.350
 7698POPC   NC343163  33.012  37.640   5.550
 7698POPC   PO443164  33.009  37.666   5.850
 7698POPC   GL143165  33.034  37.713   6.150
 7698POPC   GL243166  33.190  37.689   6.150
 7698POPC   C1A43167  32.982  37.717   6.450
 7698POPC   D2A43168  33.058  37.693   6.750
 7698POPC   C3A43169  33.074  37.645   7.050
 7698POPC   C4A43170  33.022  37.636   7.350
 7698POPC   C1B43171  33.272  37.596   6.450
 7698POPC   C2B43172  33.245  37.571   6.750
 7698POPC   C3B43173  33.294  37.616   7.050
 7698POPC   C4B43174  33.247  37.570   7.350
 7699POPC   NC343175  38.483  40.794   5.550
 7699POPC   PO443176  38.490  40.765   5.850
 7699POPC   GL143177  38.428  40.816   6.150
 7699POPC   GL243178  38.457  40.932   6.150
 7699POPC   C1A43179  38.487  40.758   6.450
 7699POPC   D2A43180  38.442  40.809   6.750
 7699POPC   C3A43181  38.424  40.745   7.050
 7699POPC   C4A43182  38.485  40.785   7.350
 7699POPC   C1B43183  38.534  40.978   6.450
 7699POPC   C2B43184  38.585  41.041   6.750
 7699POPC   C3B43185  38.598  40.986   7.050
 7699POPC   C4B43186  38.540  40.964   7.350
 7700POPC   NC343187  43.152  36.171   5.550
 7700POPC   PO443188  43.155  36.103   5.850
 7700POPC   GL143189  43.130  36.099   6.150
 7700POPC   GL243190  43.098  35.984   6.150
 7700POPC   C1A43191  43.141  36.159   6.450
 7700POPC   D2A43192  43.109  36.132   6.750
 7700POPC   C3A43193  43.102  36.162   7.050
 7700POPC   C4A43194  43.072  36.165   7.350
 7700POPC   C1B43195  43.096  35.876   6.450
 7700POPC   C2B43196  43.096  35.905   6.750
 7700POPC   C3B43197  43.089  35.862   7.050
 7700POPC   C4B43198  43.041  35.909   7.350
 7701POPC   NC343199  26.827  36.087   5.550
 7701POPC   PO443200  26.820  36.139   5.850
 7701POPC   GL143201  26.811  36.084   6.150
 7701POPC   GL243202  26.756  35.980   6.150
 7701POPC   C1A43203  26.827  36.094   6.450
 7701POPC   D2A43204  26.769  36.134   6.750
 7701POPC   C3A43205  26.858  36.139   7.050
 7701POPC   C4A43206  26.841  36.104   7.350
 7701POPC   C1B43207  26.744  35.885   6.450
 7701POPC   C2B43208  26.769  35.846   6.750
 7701POPC   C3B43209  26.801  35.919   7.050
 7701POPC   C4B43210  26.818  35.921   7.350
 7702POPC   NC343211  16.768  25.312   5.550
 7702POPC   PO443212  16.691  25.257   5.850
 7702POPC   GL143213  16.721  25.231   6.150
 7702POPC   GL243214  16.677  25.114   6.150
 7702POPC   C1A43215  16.720  25.265   6.450
 7702POPC   D2A43216  16.723  25.241   6.750
 7702POPC   C3A43217  16.748  25.272   7.050
 7702POPC   C4A43218  16.751  25.232   7.350
 7702POPC   C1B43219  16.702  25.039   6.450
 7702POPC   C2B43220  16.660  25.002   6.750
 7702POPC   C3B43221  16.631  25.026   7.050
 7702POPC   C4B43222  16.620  25.004   7.350
 7703POPC   NC343223  33.815  13.579   5.550
 7703POPC   PO443224  33.848  13.650   5.850
 7703POPC   GL143225  33.831  13.658   6.150
 7703POPC   GL243226  33.780  13.778   6.150
 7703POPC   C1A43227  33.825  13.609   6.450
 7703POPC   D2A43228  33.799  13.662   6.750
 7703POPC   C3A43229  33.846  13.603   7.050
 7703POPC   C4A43230  33.786  13.650   7.350
 7703POPC   C1B43231  33.672  13.813   6.450
 7703POPC   C2B43232  33.688  13.816   6.750
 7703POPC   C3B43233  33.666  13.817   7.050
 7703POPC   C4B43234  33.670  13.903   7.350
 7704POPC   NC343235  16.780  24.487   5.550
 7704POPC   PO443236  16.756  24.476   5.850
 7704POPC   GL143237  16.710  24.539   6.150
 7704POPC   GL243238  16.632  24.417   6.150
 7704POPC   C1A43239  16.742  24.451   6.450
 7704POPC   D2A43240  16.754  24.473   6.750
 7704POPC   C3A43241  16.707  24.490   7.050
 7704POPC   C4A43242  16.777  24.508   7.350
 7704POPC   C1B43243  16.494  24.383   6.450
 7704POPC   C2B43244  16.550  24.313   6.750
 7704POPC   C3B43245  16.567  24.342   7.050
 7704POPC   C4B43246  16.527  24.333   7.350
 7705POPC   NC343247  25.233  12.036   5.550
 7705POPC   PO443248  25.297  12.120   5.850
 7705POPC   GL143249  25.312  12.086   6.150
 7705POPC   GL243250  25.325  12.159   6.150
 7705POPC   C1A43251  25.251  12.072   6.450
 7705POPC   D2A43252  25.285  12.083   6.750
 7705POPC   C3A43253  25.220  12.104   7.050
 7705POPC   C4A43254  25.312  12.050   7.350
 7705POPC   C1B43255  25.494  12.216   6.450
 7705POPC   C2B43256  25.488  12.227   6.750
 7705POPC   C3B43257  25.413  12.285   7.050
 7705POPC   C4B43258  25.439  12.215   7.350
 7706POPC   NC343259  23.683  26.072   5.550
 7706POPC   PO443260  23.687  26.031   5.850
 7706POPC   GL143261  23.728  26.006   6.150
 7706POPC   GL243262  23.700  25.918   6.150
 7706POPC   C1A43263  23.742  26.031   6.450
 7706POPC   D2A43264  23.696  25.994   6.750
 7706POPC   C3A43265  23.711  26.022   7.050
 7706POPC   C4A43266  23.684  26.032   7.350
 7706POPC   C1B43267  23.631  25.851   6.450
 7706POPC   C2B43268  23.635  25.804   6.750
 7706POPC   C3B43269  23.634  25.811   7.050
 7706POPC   C4B43270  23.601  25.811   7.350
 7707POPC   NC343271   5.829   6.681   5.550
 7707POPC   PO443272   5.837   6.607   5.850
 7707POPC   GL143273   5.829   6.596   6.150
 7707POPC   GL243274   5.775   6.671   6.150
 7707POPC   C1A43275   5.845   6.660   6.450
 7707POPC   D2A43276   5.831   6.684   6.750
 7707POPC   C3A43277   5.869   6.654   7.050
 7707POPC   C4A43278   5.850   6.642   7.350
 7707POPC   C1B43279   5.633   6.723   6.450
 7707POPC   C2B43280   5.661   6.700   6.750
 7707POPC   C3B43281   5.595   6.684   7.050
 7707POPC   C4B43282   5.665   6.753   7.350
 7708POPC   NC343283  33.036  15.966   5.550
 7708POPC   PO443284  32.998  15.906   5.850
 7708POPC   GL143285  33.031  15.939   6.150
 7708POPC   GL243286  33.064  15.804   6.150
 7708POPC   C1A43287  32.976  15.996   6.450
 7708POPC   D2A43288  33.053  15.978   6.750
 7708POPC   C3A43289  33.008  15.953   7.050
 7708POPC   C4A43290  33.053  15.953   7.350
 7708POPC   C1B43291  33.168  15.711   6.450
 7708POPC   C2B43292  33.118  15.734   6.750
 7708POPC   C3B43293  33.182  15.736   7.050
 7708POPC   C4B43294  33.103  15.788   7.350
 7709POPC   NC343295   6.692  29.927   5.550
 7709POPC   PO443296   6.639  29.923   5.850
 7709POPC   GL143297   6.597  29.905   6.150
 7709POPC   GL243298   6.551  29.771   6.150
 7709POPC   C1A43299   6.599  29.944   6.450
 7709POPC   D2A43300   6.659  29.874   6.750
 7709POPC   C3A43301   6.686  29.963   7.050
 7709POPC   C4A43302   6.673  29.875   7.350
 7709POPC   C1B43303   6.568  29.738   6.450
 7709POPC   C2B43304   6.488  29.673   6.750
 7709POPC   C3B43305   6.567  29.697   7.050
 7709POPC   C4B43306   6.519  29.688   7.350
 7710POPC   NC343307  12.812   7.464   5.550
 7710POPC   PO443308  12.851   7.450   5.850
 7710POPC   GL143309  12.821   7.460   6.150
 7710POPC   GL243310  12.782   7.491   6.150
 7710POPC   C1A43311  12.854   7.443   6.450
 7710POPC   D2A43312  12.837   7.459   6.750
 7710POPC   C3A43313  12.804   7.389   7.050
 7710POPC   C4A43314  12.846   7.388   7.350
 7710POPC   C1B43315  12.693   7.616   6.450
 7710POPC   C2B43316  12.644   7.549   6.750
 7710POPC   C3B43317  12.648   7.584   7.050
 7710POPC   C4B43318  12.654   7.600   7.350
 7711POPC   NC343319  33.024  42.373   5.550
 7711POPC   PO443320  33.049  42.297   5.850
 7711POPC   GL143321  33.066  42.384   6.150
 7711POPC   GL243322  32.881  42.337   6.150
 7711POPC   C1A43323  33.025  42.294   6.450
 7711POPC   D2A43324  32.998  42.322   6.750
 7711POPC   C3A43325  33.001  42.327   7.050
 7711POPC   C4A43326  32.977  42.379   7.350
 7711POPC   C1B43327  32.809  42.340   6.450
 7711POPC   C2B43328  32.756  42.313   6.750
 7711POPC   C3B43329  32.778  42.300   7.050
 7711POPC   C4B43330  32.820  42.336   7.350
 7712POPC   NC343331  12.039  42.336   5.550
 7712POPC   PO443332  12.042  42.338   5.850
 7712POPC   GL143333  12.055  42.365   6.150
 7712POPC   GL243334  11.940  42.332   6.150
 7712POPC   C1A43335  12.087  42.374   6.450
 7712POPC   D2A43336  12.035  42.368   6.750
 7712POPC   C3A43337  12.035  42.285   7.050
 7712POPC   C4A43338  12.092  42.337   7.350
 7712POPC   C1B43339  11.878  42.288   6.450
 7712POPC   C2B43340  11.877  42.193   6.750
 7712POPC   C3B43341  11.823  42.269   7.050
 7712POPC   C4B43342  11.863  42.215   7.350
 7713POPC   NC343343  35.332  34.571   5.550
 7713POPC   PO443344  35.351  34.608   5.850
 7713POPC   GL143345  35.394  34.570   6.150
 7713POPC   GL243346  35.314  34.695   6.150
 7713POPC   C1A43347  35.336  34.564   6.450
 7713POPC   D2A43348  35.366  34.568   6.750
 7713POPC   C3A43349  35.357  34.528   7.050
 7713POPC   C4A43350  35.341  34.611   7.350
 7713POPC   C1B43351  35.350  34.832   6.450
 7713POPC   C2B43352  35.352  34.871   6.750
 7713POPC   C3B43353  35.352  34.840   7.050
 7713POPC   C4B43354  35.348  34.818   7.350
 7714POPC   NC343355  16.681  15.972   5.550
 7714POPC   PO443356  16.716  15.983   5.850
 7714POPC   GL143357  16.758  15.986   6.150
 7714POPC   GL243358  16.610  16.063   6.150
 7714POPC   C1A43359  16.739  15.999   6.450
 7714POPC   D2A43360  16.681  15.952   6.750
 7714POPC   C3A43361  16.698  15.944   7.050
 7714POPC   C4A43362  16.778  15.968   7.350
 7714POPC   C1B43363  16.567  16.101   6.450
 7714POPC   C2B43364  16.504  16.140   6.750
 7714POPC   C3B43365  16.543  16.123   7.050
 7714POPC   C4B43366  16.526  16.110   7.350
 7715POPC   NC343367  25.219  15.992   5.550
 7715POPC   PO443368  25.291  15.952   5.850
 7715POPC   GL143369  25.227  15.957   6.150
 7715POPC   GL243370  25.201  15.998   6.150
 7715POPC   C1A43371  25.294  15.990   6.450
 7715POPC   D2A43372  25.234  15.995   6.750
 7715POPC   C3A43373  25.235  15.980   7.050
 7715POPC   C4A43374  25.301  15.999   7.350
 7715POPC   C1B43375  25.004  16.041   6.450
 7715POPC   C2B43376  25.023  16.074   6.750
 7715POPC   C3B43377  25.016  16.009   7.050
 7715POPC   C4B43378  25.010  16.079   7.350
 7716POPC   NC343379  41.588  40.743   5.550
 7716POPC   PO443380  41.555  40.771   5.850
 7716POPC   GL143381  41.538  40.771   6.150
 7716POPC   GL243382  41.641  40.860   6.150
 7716POPC   C1A43383  41.557  40.755   6.450
 7716POPC   D2A43384  41.546  40.780   6.750
 7716POPC   C3A43385  41.554  40.822   7.050
 7716POPC   C4A43386  41.591  40.761   7.350
 7716POPC   C1B43387  41.595  40.976   6.450
 7716POPC   C2B43388  41.603  40.973   6.750
 7716POPC   C3B43389  41.674  41.054   7.050
 7716POPC   C4B43390  41.641  41.045   7.350
 7717POPC   NC343391   5.066  21.365   5.550
 7717POPC   PO443392   5.068  21.409   5.850
 7717POPC   GL143393   5.098  21.337   6.150
 7717POPC   GL243394   4.940  21.489   6.150
 7717POPC   C1A43395   5.064  21.410   6.450
 7717POPC   D2A43396   5.057  21.413   6.750
 7717POPC   C3A43397   5.092  21.361   7.050
 7717POPC   C4A43398   5.065  21.419   7.350
 7717POPC   C1B43399   4.885  21.493   6.450
 7717POPC   C2B43400   4.897  21.443   6.750
 7717POPC   C3B43401   4.867  21.450   7.050
 7717POPC   C4B43402   4.849  21.520   7.350
 7718POPC   NC343403  26.025  30.720   5.550
 7718POPC   PO443404  26.016  30.698   5.850
 7718POPC   GL143405  26.056  30.702   6.150
 7718POPC   GL243406  25.941  30.561   6.150
 7718POPC   C1A43407  26.087  30.742   6.450
 7718POPC   D2A43408  26.039  30.719   6.750
 7718POPC   C3A43409  26.034  30.664   7.050
 7718POPC   C4A43410  26.040  30.716   7.350
 7718POPC   C1B43411  25.896  30.511   6.450
 7718POPC   C2B43412  25.905  30.537   6.750
 7718POPC   C3B43413  25.859  30.482   7.050
 7718POPC   C4B43414  25.922  30.542   7.350
 7719POPC   NC343415  14.432  33.027   5.550
 7719POPC   PO443416  14.438  33.005   5.850
 7719POPC   GL143417  14.387  33.036   6.150
 7719POPC   GL243418  14.291  33.062   6.150
 7719POPC   C1A43419  14.431  32.975   6.450
 7719POPC   D2A43420  14.432  33.015   6.750
 7719POPC   C3A43421  14.392  33.047   7.050
 7719POPC   C4A43422  14.354  33.052   7.350
 7719POPC   C1B43423  14.161  32.986   6.450
 7719POPC   C2B43424  14.116  33.021   6.750
 7719POPC   C3B43425  14.142  33.058   7.050
 7719POPC   C4B43426  14.128  33.062   7.350
 7720POPC   NC343427  32.255   9.796   5.550
 7720POPC   PO443428  32.280   9.794   5.850
 7720POPC   GL143429  32.247   9.762   6.150
 7720POPC   GL243430  32.355   9.693   6.150
 7720POPC   C1A43431  32.213   9.774   6.450
 7720POPC   D2A43432  32.264   9.779   6.750
 7720POPC   C3A43433  32.226   9.774   7.050
 7720POPC   C4A43434  32.254   9.747   7.350
 7720POPC   C1B43435  32.362   9.589   6.450
 7720POPC   C2B43436  32.370   9.591   6.750
 7720POPC   C3B43437  32.434   9.496   7.050
 7720POPC   C4B43438  32.396   9.547   7.350
 7721POPC   NC343439  31.520  19.033   5.550
 7721POPC   PO443440  31.427  19.077   5.850
 7721POPC   GL143441  31.457  19.015   6.150
 7721POPC   GL243442  31.568  19.119   6.150
 7721POPC   C1A43443  31.465  19.056   6.450
 7721POPC   D2A43444  31.452  19.019   6.750
 7721POPC   C3A43445  31.440  19.023   7.050
 7721POPC   C4A43446  31.435  19.054   7.350
 7721POPC   C1B43447  31.675  19.175   6.450
 7721POPC   C2B43448  31.738  19.183   6.750
 7721POPC   C3B43449  31.739  19.207   7.050
 7721POPC   C4B43450  31.729  19.173   7.350
 7722POPC   NC343451  36.880  27.608   5.550
 7722POPC   PO443452  36.923  27.594   5.850
 7722POPC   GL143453  36.917  27.620   6.150
 7722POPC   GL243454  37.033  27.652   6.150
 7722POPC   C1A43455  36.938  27.577   6.450
 7722POPC   D2A43456  36.928  27.637   6.750
 7722POPC   C3A43457  36.903  27.596   7.050
 7722POPC   C4A43458  36.932  27.563   7.350
 7722POPC   C1B43459  37.043  27.739   6.450
 7722POPC   C2B43460  37.041  27.758   6.750
 7722POPC   C3B43461  37.115  27.736   7.050
 7722POPC   C4B43462  37.045  27.805   7.350
 7723POPC   NC343463  44.685   8.233   5.550
 7723POPC   PO443464  44.618   8.172   5.850
 7723POPC   GL143465  44.643   8.182   6.150
 7723POPC   GL243466  44.683   8.276   6.150
 7723POPC   C1A43467  44.688   8.213   6.450
 7723POPC   D2A43468  44.674   8.209   6.750
 7723POPC   C3A43469  44.624   8.231   7.050
 7723POPC   C4A43470  44.673   8.165   7.350
 7723POPC   C1B43471  44.783   8.405   6.450
 7723POPC   C2B43472  44.785   8.461   6.750
 7723POPC   C3B43473  44.752   8.451   7.050
 7723POPC   C4B43474  44.797   8.450   7.350
 7724POPC   NC343475   5.912  42.293   5.550
 7724POPC   PO443476   5.896  42.364   5.850
 7724POPC   GL143477   5.849  42.329   6.150
 7724POPC   GL243478   5.741  42.285   6.150
 7724POPC   C1A43479   5.883  42.298   6.450
 7724POPC   D2A43480   5.845  42.324   6.750
 7724POPC   C3A43481   5.919  42.365   7.050
 7724POPC   C4A43482   5.903  42.360   7.350
 7724POPC   C1B43483   5.659  42.169   6.450
 7724POPC   C2B43484   5.675  42.207   6.750
 7724POPC   C3B43485   5.680  42.209   7.050
 7724POPC   C4B43486   5.635  42.197   7.350
 7725POPC   NC343487   2.783   4.357   5.550
 7725POPC   PO443488   2.763   4.304   5.850
 7725POPC   GL143489   2.766   4.310   6.150
 7725POPC   GL243490   2.760   4.423   6.150
 7725POPC   C1A43491   2.743   4.329   6.450
 7725POPC   D2A43492   2.744   4.335   6.750
 7725POPC   C3A43493   2.725   4.314   7.050
 7725POPC   C4A43494   2.727   4.333   7.350
 7725POPC   C1B43495   2.705   4.605   6.450
 7725POPC   C2B43496   2.721   4.546   6.750
 7725POPC   C3B43497   2.684   4.526   7.050
 7725POPC   C4B43498   2.741   4.575   7.350
 7726POPC   NC343499  29.138  27.544   5.550
 7726POPC   PO443500  29.176  27.616   5.850
 7726POPC   GL143501  29.125  27.635   6.150
 7726POPC   GL243502  29.302  27.644   6.150
 7726POPC   C1A43503  29.156  27.574   6.450
 7726POPC   D2A43504  29.165  27.626   6.750
 7726POPC   C3A43505  29.162  27.601   7.050
 7726POPC   C4A43506  29.158  27.610   7.350
 7726POPC   C1B43507  29.328  27.703   6.450
 7726POPC   C2B43508  29.400  27.702   6.750
 7726POPC   C3B43509  29.332  27.658   7.050
 7726POPC   C4B43510  29.401  27.697   7.350
 7727POPC   NC343511  12.811  41.569   5.550
 7727POPC   PO443512  12.889  41.515   5.850
 7727POPC   GL143513  12.805  41.540   6.150
 7727POPC   GL243514  12.956  41.598   6.150
 7727POPC   C1A43515  12.836  41.588   6.450
 7727POPC   D2A43516  12.817  41.556   6.750
 7727POPC   C3A43517  12.871  41.527   7.050
 7727POPC   C4A43518  12.868  41.604   7.350
 7727POPC   C1B43519  13.121  41.646   6.450
 7727POPC   C2B43520  13.124  41.670   6.750
 7727POPC   C3B43521  13.080  41.600   7.050
 7727POPC   C4B43522  13.131  41.625   7.350
 7728POPC   NC343523  30.670  37.701   5.550
 7728POPC   PO443524  30.669  37.690   5.850
 7728POPC   GL143525  30.743  37.703   6.150
 7728POPC   GL243526  30.693  37.850   6.150
 7728POPC   C1A43527  30.737  37.660   6.450
 7728POPC   D2A43528  30.671  37.699   6.750
 7728POPC   C3A43529  30.746  37.668   7.050
 7728POPC   C4A43530  30.697  37.649   7.350
 7728POPC   C1B43531  30.648  37.882   6.450
 7728POPC   C2B43532  30.609  37.941   6.750
 7728POPC   C3B43533  30.639  37.939   7.050
 7728POPC   C4B43534  30.595  37.871   7.350
 7729POPC   NC343535  29.932   5.098   5.550
 7729POPC   PO443536  29.963   5.108   5.850
 7729POPC   GL143537  29.924   5.061   6.150
 7729POPC   GL243538  29.896   5.176   6.150
 7729POPC   C1A43539  29.886   5.047   6.450
 7729POPC   D2A43540  29.895   5.099   6.750
 7729POPC   C3A43541  29.916   5.088   7.050
 7729POPC   C4A43542  29.901   5.061   7.350
 7729POPC   C1B43543  29.895   5.294   6.450
 7729POPC   C2B43544  29.946   5.314   6.750
 7729POPC   C3B43545  29.887   5.321   7.050
 7729POPC   C4B43546  29.940   5.336   7.350
 7730POPC   NC343547  12.896  18.253   5.550
 7730POPC   PO443548  12.857  18.263   5.850
 7730POPC   GL143549  12.832  18.321   6.150
 7730POPC   GL243550  12.813  18.201   6.150
 7730POPC   C1A43551  12.817  18.330   6.450
 7730POPC   D2A43552  12.870  18.326   6.750
 7730POPC   C3A43553  12.862  18.313   7.050
 7730POPC   C4A43554  12.881  18.254   7.350
 7730POPC   C1B43555  12.688  18.050   6.450
 7730POPC   C2B43556  12.733  18.014   6.750
 7730POPC   C3B43557  12.728  18.087   7.050
 7730POPC   C4B43558  12.709  18.089   7.350
 7731POPC   NC343559  11.305  41.565   5.550
 7731POPC   PO443560  11.287  41.529   5.850
 7731POPC   GL143561  11.306  41.557   6.150
 7731POPC   GL243562  11.396  41.698   6.150
 7731POPC   C1A43563  11.304  41.565   6.450
 7731POPC   D2A43564  11.335  41.594   6.750
 7731POPC   C3A43565  11.311  41.598   7.050
 7731POPC   C4A43566  11.265  41.539   7.350
 7731POPC   C1B43567  11.388  41.749   6.450
 7731POPC   C2B43568  11.415  41.802   6.750
 7731POPC   C3B43569  11.432  41.771   7.050
 7731POPC   C4B43570  11.376  41.824   7.350
 7732POPC   NC343571   2.753  17.476   5.550
 7732POPC   PO443572   2.814  17.470   5.850
 7732POPC   GL143573   2.730  17.492   6.150
 7732POPC   GL243574   2.745  17.406   6.150
 7732POPC   C1A43575   2.793  17.486   6.450
 7732POPC   D2A43576   2.792  17.498   6.750
 7732POPC   C3A43577   2.808  17.515   7.050
 7732POPC   C4A43578   2.744  17.487   7.350
 7732POPC   C1B43579   2.808  17.271   6.450
 7732POPC   C2B43580   2.726  17.286   6.750
 7732POPC   C3B43581   2.756  17.291   7.050
 7732POPC   C4B43582   2.801  17.211   7.350
 7733POPC   NC343583  39.185  15.999   5.550
 7733POPC   PO443584  39.242  15.948   5.850
 7733POPC   GL143585  39.184  15.977   6.150
 7733POPC   GL243586  39.361  16.029   6.150
 7733POPC   C1A43587  39.214  15.937   6.450
 7733POPC   D2A43588  39.209  15.986   6.750
 7733POPC   C3A43589  39.238  16.001   7.050
 7733POPC   C4A43590  39.200  15.913   7.350
 7733POPC   C1B43591  39.505  16.034   6.450
 7733POPC   C2B43592  39.521  16.026   6.750
 7733POPC   C3B43593  39.430  15.985   7.050
 7733POPC   C4B43594  39.495  16.002   7.350
 7734POPC   NC343595  34.600   5.115   5.550
 7734POPC   PO443596  34.539   5.084   5.850
 7734POPC   GL143597  34.532   5.113   6.150
 7734POPC   GL243598  34.490   5.008   6.150
 7734POPC   C1A43599  34.549   5.134   6.450
 7734POPC   D2A43600  34.624   5.085   6.750
 7734POPC   C3A43601  34.602   5.060   7.050
 7734POPC   C4A43602  34.535   5.047   7.350
 7734POPC   C1B43603  34.502   4.863   6.450
 7734POPC   C2B43604  34.484   4.839   6.750
 7734POPC   C3B43605  34.533   4.881   7.050
 7734POPC   C4B43606  34.468   4.874   7.350
 7735POPC   NC343607  33.030  34.621   5.550
 7735POPC   PO443608  33.035  34.566   5.850
 7735POPC   GL143609  33.012  34.612   6.150
 7735POPC   GL243610  32.898  34.515   6.150
 7735POPC   C1A43611  33.048  34.542   6.450
 7735POPC   D2A43612  33.031  34.595   6.750
 7735POPC   C3A43613  32.978  34.593   7.050
 7735POPC   C4A43614  32.981  34.559   7.350
 7735POPC   C1B43615  32.762  34.521   6.450
 7735POPC   C2B43616  32.769  34.516   6.750
 7735POPC   C3B43617  32.735  34.556   7.050
 7735POPC   C4B43618  32.792  34.533   7.350
 7736POPC   NC343619  12.093  19.789   5.550
 7736POPC   PO443620  12.028  19.820   5.850
 7736POPC   GL143621  12.043  19.822   6.150
 7736POPC   GL243622  11.960  19.815   6.150
 7736POPC   C1A43623  12.072  19.809   6.450
 7736POPC   D2A43624  12.048  19.880   6.750
 7736POPC   C3A43625  12.050  19.861   7.050
 7736POPC   C4A43626  12.062  19.882   7.350
 7736POPC   C1B43627  11.836  19.819   6.450
 7736POPC   C2B43628  11.815  19.816   6.750
 7736POPC   C3B43629  11.876  19.799   7.050
 7736POPC   C4B43630  11.784  19.796   7.350
 7737POPC   NC343631   2.000  17.490   5.550
 7737POPC   PO443632   2.003  17.503   5.850
 7737POPC   GL143633   2.001  17.534   6.150
 7737POPC   GL243634   2.046  17.428   6.150
 7737POPC   C1A43635   2.028  17.545   6.450
 7737POPC   D2A43636   1.987  17.475   6.750
 7737POPC   C3A43637   1.958  17.546   7.050
 7737POPC   C4A43638   2.005  17.461   7.350
 7737POPC   C1B43639   2.168  17.342   6.450
 7737POPC   C2B43640   2.111  17.291   6.750
 7737POPC   C3B43641   2.198  17.303   7.050
 7737POPC   C4B43642   2.114  17.300   7.350
 7738POPC   NC343643  34.625  24.512   5.550
 7738POPC   PO443644  34.554  24.488   5.850
 7738POPC   GL143645  34.564  24.471   6.150
 7738POPC   GL243646  34.480  24.399   6.150
 7738POPC   C1A43647  34.608  24.465   6.450
 7738POPC   D2A43648  34.578  24.478   6.750
 7738POPC   C3A43649  34.625  24.514   7.050
 7738POPC   C4A43650  34.536  24.480   7.350
 7738POPC   C1B43651  34.402  24.306   6.450
 7738POPC   C2B43652  34.372  24.359   6.750
 7738POPC   C3B43653  34.372  24.320   7.050
 7738POPC   C4B43654  34.367  24.363   7.350
 7739POPC   NC343655  22.902  19.813   5.550
 7739POPC   PO443656  22.941  19.877   5.850
 7739POPC   GL143657  22.894  19.809   6.150
 7739POPC   GL243658  22.911  19.990   6.150
 7739POPC   C1A43659  22.925  19.821   6.450
 7739POPC   D2A43660  22.958  19.865   6.750
 7739POPC   C3A43661  22.950  19.871   7.050
 7739POPC   C4A43662  22.944  19.805   7.350
 7739POPC   C1B43663  22.790  20.094   6.450
 7739POPC   C2B43664  22.813  20.083   6.750
 7739POPC   C3B43665  22.809  20.065   7.050
 7739POPC   C4B43666  22.822  20.018   7.350
 7740POPC   NC343667  40.784  17.516   5.550
 7740POPC   PO443668  40.775  17.536   5.850
 7740POPC   GL143669  40.743  17.485   6.150
 7740POPC   GL243670  40.743  17.382   6.150
 7740POPC   C1A43671  40.790  17.534   6.450
 7740POPC   D2A43672  40.764  17.496   6.750
 7740POPC   C3A43673  40.822  17.488   7.050
 7740POPC   C4A43674  40.774  17.553   7.350
 7740POPC   C1B43675  40.602  17.274   6.450
 7740POPC   C2B43676  40.621  17.265   6.750
 7740POPC   C3B43677  40.616  17.267   7.050
 7740POPC   C4B43678  40.684  17.293   7.350
 7741POPC   NC343679   3.557   2.722   5.550
 7741POPC   PO443680   3.557   2.745   5.850
 7741POPC   GL143681   3.569   2.734   6.150
 7741POPC   GL243682   3.417   2.819   6.150
 7741POPC   C1A43683   3.580   2.790   6.450
 7741POPC   D2A43684   3.525   2.754   6.750
 7741POPC   C3A43685   3.496   2.769   7.050
 7741POPC   C4A43686   3.532   2.790   7.350
 7741POPC   C1B43687   3.250   2.727   6.450
 7741POPC   C2B43688   3.271   2.753   6.750
 7741POPC   C3B43689   3.337   2.810   7.050
 7741POPC   C4B43690   3.315   2.777   7.350
 7742POPC   NC343691  35.395  41.531   5.550
 7742POPC   PO443692  35.311  41.552   5.850
 7742POPC   GL143693  35.340  41.556   6.150
 7742POPC   GL243694  35.295  41.530   6.150
 7742POPC   C1A43695  35.378  41.520   6.450
 7742POPC   D2A43696  35.331  41.543   6.750
 7742POPC   C3A43697  35.333  41.561   7.050
 7742POPC   C4A43698  35.362  41.589   7.350
 7742POPC   C1B43699  35.137  41.356   6.450
 7742POPC   C2B43700  35.184  41.409   6.750
 7742POPC   C3B43701  35.153  41.441   7.050
 7742POPC   C4B43702  35.186  41.386   7.350
 7743POPC   NC343703  30.708  17.487   5.550
 7743POPC   PO443704  30.709  17.530   5.850
 7743POPC   GL143705  30.653  17.482   6.150
 7743POPC   GL243706  30.850  17.480   6.150
 7743POPC   C1A43707  30.664  17.540   6.450
 7743POPC   D2A43708  30.729  17.555   6.750
 7743POPC   C3A43709  30.684  17.557   7.050
 7743POPC   C4A43710  30.710  17.472   7.350
 7743POPC   C1B43711  30.942  17.411   6.450
 7743POPC   C2B43712  30.954  17.409   6.750
 7743POPC   C3B43713  30.924  17.411   7.050
 7743POPC   C4B43714  30.958  17.406   7.350
 7744POPC   NC343715  37.717  25.217   5.550
 7744POPC   PO443716  37.686  25.281   5.850
 7744POPC   GL143717  37.726  25.280   6.150
 7744POPC   GL243718  37.802  25.306   6.150
 7744POPC   C1A43719  37.695  25.231   6.450
 7744POPC   D2A43720  37.652  25.267   6.750
 7744POPC   C3A43721  37.640  25.273   7.050
 7744POPC   C4A43722  37.636  25.275   7.350
 7744POPC   C1B43723  37.871  25.394   6.450
 7744POPC   C2B43724  37.917  25.418   6.750
 7744POPC   C3B43725  37.832  25.441   7.050
 7744POPC   C4B43726  37.897  25.418   7.350
 7745POPC   NC343727   1.231  21.425   5.550
 7745POPC   PO443728   1.250  21.436   5.850
 7745POPC   GL143729   1.170  21.339   6.150
 7745POPC   GL243730   1.162  21.268   6.150
 7745POPC   C1A43731   1.231  21.338   6.450
 7745POPC   D2A43732   1.226  21.400   6.750
 7745POPC   C3A43733   1.263  21.410   7.050
 7745POPC   C4A43734   1.171  21.413   7.350
 7745POPC   C1B43735   1.095  21.158   6.450
 7745POPC   C2B43736   1.068  21.200   6.750
 7745POPC   C3B43737   1.038  21.156   7.050
 7745POPC   C4B43738   1.010  21.239   7.350
 7746POPC   NC343739  26.852   1.212   5.550
 7746POPC   PO443740  26.820   1.207   5.850
 7746POPC   GL143741  26.843   1.227   6.150
 7746POPC   GL243742  26.932   1.256   6.150
 7746POPC   C1A43743  26.783   1.223   6.450
 7746POPC   D2A43744  26.819   1.199   6.750
 7746POPC   C3A43745  26.820   1.198   7.050
 7746POPC   C4A43746  26.844   1.228   7.350
 7746POPC   C1B43747  27.047   1.244   6.450
 7746POPC   C2B43748  27.094   1.194   6.750
 7746POPC   C3B43749  27.044   1.239   7.050
 7746POPC   C4B43750  27.040   1.250   7.350
 7747POPC   NC343751  29.150   8.185   5.550
 7747POPC   PO443752  29.185   8.230   5.850
 7747POPC   GL143753  29.134   8.246   6.150
 7747POPC   GL243754  29.130   8.040   6.150
 7747POPC   C1A43755  29.106   8.201   6.450
 7747POPC   D2A43756  29.146   8.185   6.750
 7747POPC   C3A43757  29.096   8.168   7.050
 7747POPC   C4A43758  29.145   8.231   7.350
 7747POPC   C1B43759  29.132   7.981   6.450
 7747POPC   C2B43760  29.166   7.983   6.750
 7747POPC   C3B43761  29.168   7.956   7.050
 7747POPC   C4B43762  29.152   7.994   7.350
 7748POPC   NC343763  44.686  37.701   5.550
 7748POPC   PO443764  44.642  37.697   5.850
 7748POPC   GL143765  44.711  37.705   6.150
 7748POPC   GL243766  44.658  37.786   6.150
 7748POPC   C1A43767  44.707  37.662   6.450
 7748POPC   D2A43768  44.632  37.682   6.750
 7748POPC   C3A43769  44.681  37.702   7.050
 7748POPC   C4A43770  44.629  37.668   7.350
 7748POPC   C1B43771  44.634  37.907   6.450
 7748POPC   C2B43772  44.646  37.939   6.750
 7748POPC   C3B43773  44.627  37.884   7.050
 7748POPC   C4B43774  44.643  37.920   7.350
 7749POPC   NC343775  19.099   1.169   5.550
 7749POPC   PO443776  19.091   1.223   5.850
 7749POPC   GL143777  19.090   1.167   6.150
 7749POPC   GL243778  19.215   1.143   6.150
 7749POPC   C1A43779  19.014   1.241   6.450
 7749POPC   D2A43780  19.077   1.197   6.750
 7749POPC   C3A43781  19.050   1.164   7.050
 7749POPC   C4A43782  19.038   1.199   7.350
 7749POPC   C1B43783  19.291   1.144   6.450
 7749POPC   C2B43784  19.310   1.094   6.750
 7749POPC   C3B43785  19.261   1.106   7.050
 7749POPC   C4B43786  19.242   1.120   7.350
 7750POPC   NC343787  39.229  27.600   5.550
 7750POPC   PO443788  39.252  27.577   5.850
 7750POPC   GL143789  39.188  27.615   6.150
 7750POPC   GL243790  39.197  27.725   6.150
 7750POPC   C1A43791  39.221  27.642   6.450
 7750POPC   D2A43792  39.261  27.615   6.750
 7750POPC   C3A43793  39.189  27.609   7.050
 7750POPC   C4A43794  39.209  27.553   7.350
 7750POPC   C1B43795  39.036  27.786   6.450
 7750POPC   C2B43796  39.056  27.830   6.750
 7750POPC   C3B43797  39.023  27.752   7.050
 7750POPC   C4B43798  39.107  27.813   7.350
 7751POPC   NC343799   5.883  39.230   5.550
 7751POPC   PO443800   5.891  39.212   5.850
 7751POPC   GL143801   5.899  39.275   6.150
 7751POPC   GL243802   5.912  39.324   6.150
 7751POPC   C1A43803   5.915  39.217   6.450
 7751POPC   D2A43804   5.855  39.264   6.750
 7751POPC   C3A43805   5.839  39.263   7.050
 7751POPC   C4A43806   5.906  39.274   7.350
 7751POPC   C1B43807   6.031  39.464   6.450
 7751POPC   C2B43808   6.023  39.439   6.750
 7751POPC   C3B43809   5.981  39.395   7.050
 7751POPC   C4B43810   5.999  39.489   7.350
 7752POPC   NC343811  36.161  37.709   5.550
 7752POPC   PO443812  36.153  37.630   5.850
 7752POPC   GL143813  36.143  37.699   6.150
 7752POPC   GL243814  35.991  37.579   6.150
 7752POPC   C1A43815  36.161  37.677   6.450
 7752POPC   D2A43816  36.092  37.709   6.750
 7752POPC   C3A43817  36.111  37.709   7.050
 7752POPC   C4A43818  36.166  37.693   7.350
 7752POPC   C1B43819  35.974  37.488   6.450
 7752POPC   C2B43820  35.953  37.512   6.750
 7752POPC   C3B43821  35.938  37.496   7.050
 7752POPC   C4B43822  35.935  37.480   7.350
 7753POPC   NC343823  35.366   1.956   5.550
 7753POPC   PO443824  35.338   1.967   5.850
 7753POPC   GL143825  35.350   2.029   6.150
 7753POPC   GL243826  35.297   2.142   6.150
 7753POPC   C1A43827  35.319   2.015   6.450
 7753POPC   D2A43828  35.398   2.021   6.750
 7753POPC   C3A43829  35.375   1.984   7.050
 7753POPC   C4A43830  35.308   1.964   7.350
 7753POPC   C1B43831  35.297   2.235   6.450
 7753POPC   C2B43832  35.374   2.229   6.750
 7753POPC   C3B43833  35.284   2.280   7.050
 7753POPC   C4B43834  35.313   2.203   7.350
 7754POPC   NC343835  21.424   2.770   5.550
 7754POPC   PO443836  21.396   2.796   5.850
 7754POPC   GL143837  21.371   2.745   6.150
 7754POPC   GL243838  21.522   2.851   6.150
 7754POPC   C1A43839  21.370   2.743   6.450
 7754POPC   D2A43840  21.403   2.726   6.750
 7754POPC   C3A43841  21.342   2.807   7.050
 7754POPC   C4A43842  21.354   2.726   7.350
 7754POPC   C1B43843  21.610   2.955   6.450
 7754POPC   C2B43844  21.555   2.949   6.750
 7754POPC   C3B43845  21.551   2.944   7.050
 7754POPC   C4B43846  21.543   2.887   7.350
 7755POPC   NC343847   3.585   3.513   5.550
 7755POPC   PO443848   3.531   3.573   5.850
 7755POPC   GL143849   3.585   3.524   6.150
 7755POPC   GL243850   3.638   3.509   6.150
 7755POPC   C1A43851   3.562   3.536   6.450
 7755POPC   D2A43852   3.492   3.504   6.750
 7755POPC   C3A43853   3.515   3.520   7.050
 7755POPC   C4A43854   3.553   3.514   7.350
 7755POPC   C1B43855   3.820   3.486   6.450
 7755POPC   C2B43856   3.760   3.458   6.750
 7755POPC   C3B43857   3.764   3.455   7.050
 7755POPC   C4B43858   3.736   3.432   7.350
 7756POPC   NC343859  19.097  36.868   5.550
 7756POPC   PO443860  19.042  36.890   5.850
 7756POPC   GL143861  19.020  36.931   6.150
 7756POPC   GL243862  19.078  36.753   6.150
 7756POPC   C1A43863  19.093  36.868   6.450
 7756POPC   D2A43864  19.066  36.863   6.750
 7756POPC   C3A43865  19.051  36.951   7.050
 7756POPC   C4A43866  19.050  36.885   7.350
 7756POPC   C1B43867  19.173  36.729   6.450
 7756POPC   C2B43868  19.225  36.655   6.750
 7756POPC   C3B43869  19.236  36.652   7.050
 7756POPC   C4B43870  19.238  36.683   7.350
 7757POPC   NC343871  15.130  23.673   5.550
 7757POPC   PO443872  15.189  23.731   5.850
 7757POPC   GL143873  15.189  23.689   6.150
 7757POPC   GL243874  15.106  23.686   6.150
 7757POPC   C1A43875  15.213  23.682   6.450
 7757POPC   D2A43876  15.148  23.727   6.750
 7757POPC   C3A43877  15.200  23.743   7.050
 7757POPC   C4A43878  15.173  23.726   7.350
 7757POPC   C1B43879  14.949  23.610   6.450
 7757POPC   C2B43880  14.909  23.581   6.750
 7757POPC   C3B43881  14.915  23.598   7.050
 7757POPC   C4B43882  14.923  23.585   7.350
 7758POPC   NC343883  30.696  29.968   5.550
 7758POPC   PO443884  30.743  29.871   5.850
 7758POPC   GL143885  30.651  29.888   6.150
 7758POPC   GL243886  30.534  29.924   6.150
 7758POPC   C1A43887  30.703  29.943   6.450
 7758POPC   D2A43888  30.696  29.919   6.750
 7758POPC   C3A43889  30.739  29.909   7.050
 7758POPC   C4A43890  30.719  29.934   7.350
 7758POPC   C1B43891  30.450  29.966   6.450
 7758POPC   C2B43892  30.474  29.908   6.750
 7758POPC   C3B43893  30.476  29.979   7.050
 7758POPC   C4B43894  30.434  29.933   7.350
 7759POPC   NC343895  12.041  27.641   5.550
 7759POPC   PO443896  12.122  27.634   5.850
 7759POPC   GL143897  12.074  27.553   6.150
 7759POPC   GL243898  12.177  27.583   6.150
 7759POPC   C1A43899  12.096  27.642   6.450
 7759POPC   D2A43900  12.077  27.556   6.750
 7759POPC   C3A43901  12.045  27.616   7.050
 7759POPC   C4A43902  12.092  27.624   7.350
 7759POPC   C1B43903  12.352  27.537   6.450
 7759POPC   C2B43904  12.298  27.588   6.750
 7759POPC   C3B43905  12.311  27.540   7.050
 7759POPC   C4B43906  12.301  27.575   7.350
 7760POPC   NC343907  29.190  38.489   5.550
 7760POPC   PO443908  29.152  38.476   5.850
 7760POPC   GL143909  29.139  38.418   6.150
 7760POPC   GL243910  29.214  38.384   6.150
 7760POPC   C1A43911  29.109  38.420   6.450
 7760POPC   D2A43912  29.112  38.501   6.750
 7760POPC   C3A43913  29.173  38.448   7.050
 7760POPC   C4A43914  29.162  38.485   7.350
 7760POPC   C1B43915  29.389  38.299   6.450
 7760POPC   C2B43916  29.361  38.317   6.750
 7760POPC   C3B43917  29.396  38.308   7.050
 7760POPC   C4B43918  29.378  38.351   7.350
 7761POPC   NC343919  43.115  40.831   5.550
 7761POPC   PO443920  43.099  40.824   5.850
 7761POPC   GL143921  43.135  40.773   6.150
 7761POPC   GL243922  43.096  40.626   6.150
 7761POPC   C1A43923  43.150  40.758   6.450
 7761POPC   D2A43924  43.093  40.751   6.750
 7761POPC   C3A43925  43.107  40.819   7.050
 7761POPC   C4A43926  43.068  40.751   7.350
 7761POPC   C1B43927  43.204  40.516   6.450
 7761POPC   C2B43928  43.187  40.582   6.750
 7761POPC   C3B43929  43.194  40.520   7.050
 7761POPC   C4B43930  43.133  40.577   7.350
 7762POPC   NC343931  41.540  14.434   5.550
 7762POPC   PO443932  41.575  14.386   5.850
 7762POPC   GL143933  41.606  14.367   6.150
 7762POPC   GL243934  41.515  14.297   6.150
 7762POPC   C1A43935  41.537  14.357   6.450
 7762POPC   D2A43936  41.525  14.391   6.750
 7762POPC   C3A43937  41.566  14.402   7.050
 7762POPC   C4A43938  41.517  14.373   7.350
 7762POPC   C1B43939  41.437  14.224   6.450
 7762POPC   C2B43940  41.417  14.235   6.750
 7762POPC   C3B43941  41.428  14.168   7.050
 7762POPC   C4B43942  41.432  14.163   7.350
 7763POPC   NC343943  26.034   2.729   5.550
 7763POPC   PO443944  26.041   2.745   5.850
 7763POPC   GL143945  26.012   2.785   6.150
 7763POPC   GL243946  25.957   2.778   6.150
 7763POPC   C1A43947  26.003   2.776   6.450
 7763POPC   D2A43948  25.992   2.799   6.750
 7763POPC   C3A43949  26.006   2.731   7.050
 7763POPC   C4A43950  26.012   2.811   7.350
 7763POPC   C1B43951  25.841   2.733   6.450
 7763POPC   C2B43952  25.763   2.762   6.750
 7763POPC   C3B43953  25.784   2.809   7.050
 7763POPC   C4B43954  25.830   2.776   7.350
 7764POPC   NC343955  27.544   3.515   5.550
 7764POPC   PO443956  27.580   3.531   5.850
 7764POPC   GL143957  27.609   3.529   6.150
 7764POPC   GL243958  27.750   3.526   6.150
 7764POPC   C1A43959  27.596   3.534   6.450
 7764POPC   D2A43960  27.571   3.561   6.750
 7764POPC   C3A43961  27.543   3.514   7.050
 7764POPC   C4A43962  27.621   3.583   7.350
 7764POPC   C1B43963  27.851   3.549   6.450
 7764POPC   C2B43964  27.866   3.542   6.750
 7764POPC   C3B43965  27.877   3.515   7.050
 7764POPC   C4B43966  27.869   3.555   7.350
 7765POPC   NC343967  34.574  38.453   5.550
 7765POPC   PO443968  34.625  38.453   5.850
 7765POPC   GL143969  34.536  38.503   6.150
 7765POPC   GL243970  34.678  38.446   6.150
 7765POPC   C1A43971  34.538  38.425   6.450
 7765POPC   D2A43972  34.526  38.461   6.750
 7765POPC   C3A43973  34.570  38.449   7.050
 7765POPC   C4A43974  34.562  38.492   7.350
 7765POPC   C1B43975  34.781  38.484   6.450
 7765POPC   C2B43976  34.862  38.481   6.750
 7765POPC   C3B43977  34.805  38.475   7.050
 7765POPC   C4B43978  34.870  38.449   7.350
 7766POPC   NC343979  44.685  27.553   5.550
 7766POPC   PO443980  44.669  27.590   5.850
 7766POPC   GL143981  44.620  27.559   6.150
 7766POPC   GL243982  44.571  27.463   6.150
 7766POPC   C1A43983  44.619  27.543   6.450
 7766POPC   D2A43984  44.668  27.593   6.750
 7766POPC   C3A43985  44.690  27.560   7.050
 7766POPC   C4A43986  44.705  27.609   7.350
 7766POPC   C1B43987  44.474  27.456   6.450
 7766POPC   C2B43988  44.458  27.400   6.750
 7766POPC   C3B43989  44.455  27.429   7.050
 7766POPC   C4B43990  44.477  27.382   7.350
 7767POPC   NC343991   8.952  33.829   5.550
 7767POPC   PO443992   8.956  33.794   5.850
 7767POPC   GL143993   8.979  33.819   6.150
 7767POPC   GL243994   8.844  33.778   6.150
 7767POPC   C1A43995   8.923  33.820   6.450
 7767POPC   D2A43996   8.998  33.791   6.750
 7767POPC   C3A43997   8.943  33.840   7.050
 7767POPC   C4A43998   8.987  33.813   7.350
 7767POPC   C1B43999   8.792  33.651   6.450
 7767POPC   C2B44000   8.791  33.650   6.750
 7767POPC   C3B44001   8.752  33.683   7.050
 7767POPC   C4B44002   8.709  33.720   7.350
 7768POPC   NC344003  16.733  30.703   5.550
 7768POPC   PO444004  16.697  30.652   5.850
 7768POPC   GL144005  16.768  30.731   6.150
 7768POPC   GL244006  16.640  30.598   6.150
 7768POPC   C1A44007  16.737  30.727   6.450
 7768POPC   D2A44008  16.687  30.707   6.750
 7768POPC   C3A44009  16.723  30.727   7.050
 7768POPC   C4A44010  16.759  30.707   7.350
 7768POPC   C1B44011  16.620  30.451   6.450
 7768POPC   C2B44012  16.584  30.492   6.750
 7768POPC   C3B44013  16.630  30.524   7.050
 7768POPC   C4B44014  16.600  30.481   7.350
 7769POPC   NC344015  27.642  36.083   5.550
 7769POPC   PO444016  27.624  36.149   5.850
 7769POPC   GL144017  27.592  36.085   6.150
 7769POPC   GL244018  27.647  35.975   6.150
 7769POPC   C1A44019  27.544  36.135   6.450
 7769POPC   D2A44020  27.609  36.173   6.750
 7769POPC   C3A44021  27.552  36.114   7.050
 7769POPC   C4A44022  27.568  36.131   7.350
 7769POPC   C1B44023  27.759  35.951   6.450
 7769POPC   C2B44024  27.679  35.891   6.750
 7769POPC   C3B44025  27.736  35.959   7.050
 7769POPC   C4B44026  27.698  35.937   7.350
 7770POPC   NC344027  11.294   7.450   5.550
 7770POPC   PO444028  11.287   7.467   5.850
 7770POPC   GL144029  11.333   7.451   6.150
 7770POPC   GL244030  11.236   7.553   6.150
 7770POPC   C1A44031  11.325   7.452   6.450
 7770POPC   D2A44032  11.317   7.436   6.750
 7770POPC   C3A44033  11.344   7.396   7.050
 7770POPC   C4A44034  11.320   7.448   7.350
 7770POPC   C1B44035  11.174   7.641   6.450
 7770POPC   C2B44036  11.173   7.659   6.750
 7770POPC   C3B44037  11.228   7.650   7.050
 7770POPC   C4B44038  11.154   7.642   7.350
 7771POPC   NC344039  41.563  33.024   5.550
 7771POPC   PO444040  41.526  32.995   5.850
 7771POPC   GL144041  41.572  33.044   6.150
 7771POPC   GL244042  41.474  33.108   6.150
 7771POPC   C1A44043  41.548  32.995   6.450
 7771POPC   D2A44044  41.522  33.023   6.750
 7771POPC   C3A44045  41.550  32.996   7.050
 7771POPC   C4A44046  41.539  33.051   7.350
 7771POPC   C1B44047  41.300  33.131   6.450
 7771POPC   C2B44048  41.317  33.126   6.750
 7771POPC   C3B44049  41.349  33.190   7.050
 7771POPC   C4B44050  41.346  33.161   7.350
 7772POPC   NC344051  14.361  23.686   5.550
 7772POPC   PO444052  14.385  23.676   5.850
 7772POPC   GL144053  14.435  23.738   6.150
 7772POPC   GL244054  14.349  23.625   6.150
 7772POPC   C1A44055  14.443  23.737   6.450
 7772POPC   D2A44056  14.366  23.680   6.750
 7772POPC   C3A44057  14.360  23.670   7.050
 7772POPC   C4A44058  14.406  23.701   7.350
 7772POPC   C1B44059  14.269  23.525   6.450
 7772POPC   C2B44060  14.269  23.507   6.750
 7772POPC   C3B44061  14.235  23.491   7.050
 7772POPC   C4B44062  14.272  23.507   7.350
 7773POPC   NC344063  32.235  15.967   5.550
 7773POPC   PO444064  32.207  15.907   5.850
 7773POPC   GL144065  32.295  15.956   6.150
 7773POPC   GL244066  32.175  15.845   6.150
 7773POPC   C1A44067  32.272  16.003   6.450
 7773POPC   D2A44068  32.252  16.005   6.750
 7773POPC   C3A44069  32.218  15.990   7.050
 7773POPC   C4A44070  32.287  15.983   7.350
 7773POPC   C1B44071  32.083  15.762   6.450
 7773POPC   C2B44072  32.111  15.815   6.750
 7773POPC   C3B44073  32.084  15.732   7.050
 7773POPC   C4B44074  32.046  15.800   7.350
 7774POPC   NC344075   0.441   8.999   5.550
 7774POPC   PO444076   0.404   8.993   5.850
 7774POPC   GL144077   0.469   8.999   6.150
 7774POPC   GL244078   0.518   8.874   6.150
 7774POPC   C1A44079   0.471   8.938   6.450
 7774POPC   D2A44080   0.395   8.973   6.750
 7774POPC   C3A44081   0.396   8.979   7.050
 7774POPC   C4A44082   0.389   9.005   7.350
 7774POPC   C1B44083   0.517   8.728   6.450
 7774POPC   C2B44084   0.533   8.780   6.750
 7774POPC   C3B44085   0.551   8.758   7.050
 7774POPC   C4B44086   0.514   8.692   7.350
 7775POPC   NC344087  26.819  23.718   5.550
 7775POPC   PO444088  26.818  23.747   5.850
 7775POPC   GL144089  26.801  23.709   6.150
 7775POPC   GL244090  26.867  23.811   6.150
 7775POPC   C1A44091  26.809  23.749   6.450
 7775POPC   D2A44092  26.768  23.747   6.750
 7775POPC   C3A44093  26.777  23.743   7.050
 7775POPC   C4A44094  26.855  23.677   7.350
 7775POPC   C1B44095  26.942  23.967   6.450
 7775POPC   C2B44096  26.965  23.955   6.750
 7775POPC   C3B44097  26.881  23.944   7.050
 7775POPC   C4B44098  26.880  23.979   7.350
 7776POPC   NC344099  34.612  32.240   5.550
 7776POPC   PO444100  34.534  32.219   5.850
 7776POPC   GL144101  34.624  32.290   6.150
 7776POPC   GL244102  34.513  32.112   6.150
 7776POPC   C1A44103  34.622  32.284   6.450
 7776POPC   D2A44104  34.605  32.209   6.750
 7776POPC   C3A44105  34.620  32.253   7.050
 7776POPC   C4A44106  34.563  32.298   7.350
 7776POPC   C1B44107  34.529  32.029   6.450
 7776POPC   C2B44108  34.479  32.055   6.750
 7776POPC   C3B44109  34.467  32.041   7.050
 7776POPC   C4B44110  34.543  31.982   7.350
 7777POPC   NC344111  23.703  34.565   5.550
 7777POPC   PO444112  23.713  34.619   5.850
 7777POPC   GL144113  23.685  34.615   6.150
 7777POPC   GL244114  23.677  34.517   6.150
 7777POPC   C1A44115  23.709  34.582   6.450
 7777POPC   D2A44116  23.758  34.567   6.750
 7777POPC   C3A44117  23.706  34.574   7.050
 7777POPC   C4A44118  23.721  34.619   7.350
 7777POPC   C1B44119  23.550  34.419   6.450
 7777POPC   C2B44120  23.494  34.358   6.750
 7777POPC   C3B44121  23.584  34.438   7.050
 7777POPC   C4B44122  23.564  34.436   7.350
 7778POPC   NC344123  39.244   2.740   5.550
 7778POPC   PO444124  39.201   2.757   5.850
 7778POPC   GL144125  39.220   2.748   6.150
 7778POPC   GL244126  39.070   2.755   6.150
 7778POPC   C1A44127  39.264   2.765   6.450
 7778POPC   D2A44128  39.184   2.760   6.750
 7778POPC   C3A44129  39.280   2.808   7.050
 7778POPC   C4A44130  39.259   2.770   7.350
 7778POPC   C1B44131  39.012   2.726   6.450
 7778POPC   C2B44132  38.944   2.726   6.750
 7778POPC   C3B44133  38.998   2.699   7.050
 7778POPC   C4B44134  38.967   2.747   7.350
 7779POPC   NC344135   5.850   9.734   5.550
 7779POPC   PO444136   5.858   9.767   5.850
 7779POPC   GL144137   5.875   9.763   6.150
 7779POPC   GL244138   5.861   9.599   6.150
 7779POPC   C1A44139   5.878   9.715   6.450
 7779POPC   D2A44140   5.857   9.769   6.750
 7779POPC   C3A44141   5.881   9.744   7.050
 7779POPC   C4A44142   5.890   9.765   7.350
 7779POPC   C1B44143   5.918   9.478   6.450
 7779POPC   C2B44144   5.974   9.524   6.750
 7779POPC   C3B44145   5.985   9.481   7.050
 7779POPC   C4B44146   5.942   9.552   7.350
 7780POPC   NC344147  28.414  10.532   5.550
 7780POPC   PO444148  28.351  10.520   5.850
 7780POPC   GL144149  28.350  10.556   6.150
 7780POPC   GL244150  28.529  10.551   6.150
 7780POPC   C1A44151  28.328  10.529   6.450
 7780POPC   D2A44152  28.358  10.557   6.750
 7780POPC   C3A44153  28.395  10.493   7.050
 7780POPC   C4A44154  28.352  10.478   7.350
 7780POPC   C1B44155  28.641  10.526   6.450
 7780POPC   C2B44156  28.588  10.468   6.750
 7780POPC   C3B44157  28.644  10.456   7.050
 7780POPC   C4B44158  28.577  10.447   7.350
 7781POPC   NC344159  22.960  29.121   5.550
 7781POPC   PO444160  22.889  29.185   5.850
 7781POPC   GL144161  22.924  29.152   6.150
 7781POPC   GL244162  22.855  29.199   6.150
 7781POPC   C1A44163  22.951  29.112   6.450
 7781POPC   D2A44164  22.975  29.190   6.750
 7781POPC   C3A44165  22.926  29.096   7.050
 7781POPC   C4A44166  22.926  29.123   7.350
 7781POPC   C1B44167  22.729  29.191   6.450
 7781POPC   C2B44168  22.696  29.220   6.750
 7781POPC   C3B44169  22.712  29.175   7.050
 7781POPC   C4B44170  22.668  29.256   7.350
 7782POPC   NC344171   5.114  44.617   5.550
 7782POPC   PO444172   5.075  44.632   5.850
 7782POPC   GL144173   5.109  44.670   6.150
 7782POPC   GL244174   5.096  44.561   6.150
 7782POPC   C1A44175   5.140  44.671   6.450
 7782POPC   D2A44176   5.074  44.707   6.750
 7782POPC   C3A44177   5.088  44.615   7.050
 7782POPC   C4A44178   5.116  44.708   7.350
 7782POPC   C1B44179   5.071  44.407   6.450
 7782POPC   C2B44180   4.991  44.463   6.750
 7782POPC   C3B44181   5.057  44.464   7.050
 7782POPC   C4B44182   4.999  44.451   7.350
 7783POPC   NC344183  25.267  26.787   5.550
 7783POPC   PO444184  25.256  26.824   5.850
 7783POPC   GL144185  25.285  26.811   6.150
 7783POPC   GL244186  25.197  26.890   6.150
 7783POPC   C1A44187  25.230  26.770   6.450
 7783POPC   D2A44188  25.301  26.771   6.750
 7783POPC   C3A44189  25.270  26.845   7.050
 7783POPC   C4A44190  25.307  26.861   7.350
 7783POPC   C1B44191  25.178  27.043   6.450
 7783POPC   C2B44192  25.195  27.064   6.750
 7783POPC   C3B44193  25.122  27.054   7.050
 7783POPC   C4B44194  25.186  27.065   7.350
 7784POPC   NC344195   9.746   8.973   5.550
 7784POPC   PO444196   9.713   8.958   5.850
 7784POPC   GL144197   9.741   9.013   6.150
 7784POPC   GL244198   9.645   9.085   6.150
 7784POPC   C1A44199   9.795   8.950   6.450
 7784POPC   D2A44200   9.726   8.969   6.750
 7784POPC   C3A44201   9.769   8.924   7.050
 7784POPC   C4A44202   9.705   8.952   7.350
 7784POPC   C1B44203   9.593   9.207   6.450
 7784POPC   C2B44204   9.561   9.162   6.750
 7784POPC   C3B44205   9.629   9.138   7.050
 7784POPC   C4B44206   9.631   9.175   7.350
 7785POPC   NC344207  26.005  43.849   5.550
 7785POPC   PO444208  26.084  43.843   5.850
 7785POPC   GL144209  26.037  43.916   6.150
 7785POPC   GL244210  25.963  43.842   6.150
 7785POPC   C1A44211  25.992  43.851   6.450
 7785POPC   D2A44212  26.037  43.927   6.750
 7785POPC   C3A44213  26.023  43.882   7.050
 7785POPC   C4A44214  26.058  43.866   7.350
 7785POPC   C1B44215  25.785  43.738   6.450
 7785POPC   C2B44216  25.853  43.723   6.750
 7785POPC   C3B44217  25.840  43.801   7.050
 7785POPC   C4B44218  25.788  43.745   7.350
 7786POPC   NC344219  27.623  43.112   5.550
 7786POPC   PO444220  27.589  43.131   5.850
 7786POPC   GL144221  27.564  43.144   6.150
 7786POPC   GL244222  27.712  43.150   6.150
 7786POPC   C1A44223  27.582  43.081   6.450
 7786POPC   D2A44224  27.601  43.095   6.750
 7786POPC   C3A44225  27.627  43.134   7.050
 7786POPC   C4A44226  27.620  43.154   7.350
 7786POPC   C1B44227  27.848  43.178   6.450
 7786POPC   C2B44228  27.784  43.270   6.750
 7786POPC   C3B44229  27.823  43.251   7.050
 7786POPC   C4B44230  27.779  43.182   7.350
 7787POPC   NC344231  22.174  34.587   5.550
 7787POPC   PO444232  22.183  34.526   5.850
 7787POPC   GL144233  22.147  34.579   6.150
 7787POPC   GL244234  22.313  34.469   6.150
 7787POPC   C1A44235  22.140  34.542   6.450
 7787POPC   D2A44236  22.208  34.583   6.750
 7787POPC   C3A44237  22.114  34.597   7.050
 7787POPC   C4A44238  22.167  34.563   7.350
 7787POPC   C1B44239  22.329  34.453   6.450
 7787POPC   C2B44240  22.390  34.414   6.750
 7787POPC   C3B44241  22.341  34.441   7.050
 7787POPC   C4B44242  22.421  34.494   7.350
 7788POPC   NC344243  27.582  23.665   5.550
 7788POPC   PO444244  27.570  23.705   5.850
 7788POPC   GL144245  27.581  23.747   6.150
 7788POPC   GL244246  27.721  23.619   6.150
 7788POPC   C1A44247  27.571  23.764   6.450
 7788POPC   D2A44248  27.587  23.707   6.750
 7788POPC   C3A44249  27.607  23.683   7.050
 7788POPC   C4A44250  27.587  23.701   7.350
 7788POPC   C1B44251  27.784  23.522   6.450
 7788POPC   C2B44252  27.709  23.496   6.750
 7788POPC   C3B44253  27.788  23.545   7.050
 7788POPC   C4B44254  27.792  23.553   7.350
 7789POPC   NC344255  12.096   2.780   5.550
 7789POPC   PO444256  12.082   2.784   5.850
 7789POPC   GL144257  12.088   2.785   6.150
 7789POPC   GL244258  12.128   2.897   6.150
 7789POPC   C1A44259  12.072   2.766   6.450
 7789POPC   D2A44260  12.056   2.758   6.750
 7789POPC   C3A44261  12.114   2.724   7.050
 7789POPC   C4A44262  12.117   2.802   7.350
 7789POPC   C1B44263  12.302   2.958   6.450
 7789POPC   C2B44264  12.292   2.971   6.750
 7789POPC   C3B44265  12.273   2.951   7.050
 7789POPC   C4B44266  12.231   2.911   7.350
 7790POPC   NC344267   3.507  26.086   5.550
 7790POPC   PO444268   3.516  26.049   5.850
 7790POPC   GL144269   3.572  25.993   6.150
 7790POPC   GL244270   3.642  25.994   6.150
 7790POPC   C1A44271   3.589  26.091   6.450
 7790POPC   D2A44272   3.518  26.044   6.750
 7790POPC   C3A44273   3.571  26.005   7.050
 7790POPC   C4A44274   3.569  26.019   7.350
 7790POPC   C1B44275   3.815  26.030   6.450
 7790POPC   C2B44276   3.777  26.033   6.750
 7790POPC   C3B44277   3.760  26.066   7.050
 7790POPC   C4B44278   3.811  26.091   7.350
 7791POPC   NC344279  31.480  44.648   5.550
 7791POPC   PO444280  31.472  44.710   5.850
 7791POPC   GL144281  31.444  44.644   6.150
 7791POPC   GL244282  31.507  44.588   6.150
 7791POPC   C1A44283  31.456  44.695   6.450
 7791POPC   D2A44284  31.444  44.673   6.750
 7791POPC   C3A44285  31.506  44.630   7.050
 7791POPC   C4A44286  31.498  44.708   7.350
 7791POPC   C1B44287  31.494  44.462   6.450
 7791POPC   C2B44288  31.483  44.397   6.750
 7791POPC   C3B44289  31.495  44.428   7.050
 7791POPC   C4B44290  31.532  44.463   7.350
 7792POPC   NC344291  18.307   8.988   5.550
 7792POPC   PO444292  18.294   9.020   5.850
 7792POPC   GL144293  18.297   8.991   6.150
 7792POPC   GL244294  18.364   9.021   6.150
 7792POPC   C1A44295  18.278   8.955   6.450
 7792POPC   D2A44296  18.238   8.935   6.750
 7792POPC   C3A44297  18.309   8.974   7.050
 7792POPC   C4A44298  18.269   8.980   7.350
 7792POPC   C1B44299  18.488   9.075   6.450
 7792POPC   C2B44300  18.561   9.059   6.750
 7792POPC   C3B44301  18.470   9.040   7.050
 7792POPC   C4B44302  18.518   9.099   7.350
 7793POPC   NC344303  32.253  32.230   5.550
 7793POPC   PO444304  32.232  32.239   5.850
 7793POPC   GL144305  32.277  32.226   6.150
 7793POPC   GL244306  32.355  32.303   6.150
 7793POPC   C1A44307  32.221  32.262   6.450
 7793POPC   D2A44308  32.294  32.265   6.750
 7793POPC   C3A44309  32.252  32.260   7.050
 7793POPC   C4A44310  32.229  32.262   7.350
 7793POPC   C1B44311  32.379  32.430   6.450
 7793POPC   C2B44312  32.441  32.444   6.750
 7793POPC   C3B44313  32.428  32.493   7.050
 7793POPC   C4B44314  32.389  32.448   7.350
 7794POPC   NC344315  35.382  36.872   5.550
 7794POPC   PO444316  35.351  36.945   5.850
 7794POPC   GL144317  35.318  36.862   6.150
 7794POPC   GL244318  35.436  36.822   6.150
 7794POPC   C1A44319  35.327  36.905   6.450
 7794POPC   D2A44320  35.383  36.878   6.750
 7794POPC   C3A44321  35.329  36.929   7.050
 7794POPC   C4A44322  35.376  36.890   7.350
 7794POPC   C1B44323  35.558  36.792   6.450
 7794POPC   C2B44324  35.604  36.809   6.750
 7794POPC   C3B44325  35.550  36.782   7.050
 7794POPC   C4B44326  35.591  36.852   7.350
 7795POPC   NC344327  21.371  43.111   5.550
 7795POPC   PO444328  21.385  43.088   5.850
 7795POPC   GL144329  21.418  43.145   6.150
 7795POPC   GL244330  21.407  42.983   6.150
 7795POPC   C1A44331  21.362  43.091   6.450
 7795POPC   D2A44332  21.432  43.147   6.750
 7795POPC   C3A44333  21.433  43.126   7.050
 7795POPC   C4A44334  21.344  43.089   7.350
 7795POPC   C1B44335  21.366  42.839   6.450
 7795POPC   C2B44336  21.416  42.874   6.750
 7795POPC   C3B44337  21.415  42.848   7.050
 7795POPC   C4B44338  21.347  42.902   7.350
 7796POPC   NC344339   6.662   5.860   5.550
 7796POPC   PO444340   6.596   5.898   5.850
 7796POPC   GL144341   6.617   5.868   6.150
 7796POPC   GL244342   6.624   5.798   6.150
 7796POPC   C1A44343   6.676   5.860   6.450
 7796POPC   D2A44344   6.663   5.887   6.750
 7796POPC   C3A44345   6.632   5.903   7.050
 7796POPC   C4A44346   6.694   5.840   7.350
 7796POPC   C1B44347   6.503   5.650   6.450
 7796POPC   C2B44348   6.528   5.593   6.750
 7796POPC   C3B44349   6.582   5.662   7.050
 7796POPC   C4B44350   6.568   5.608   7.350
 7797POPC   NC344351  22.929  23.683   5.550
 7797POPC   PO444352  22.961  23.744   5.850
 7797POPC   GL144353  22.933  23.676   6.150
 7797POPC   GL244354  22.826  23.771   6.150
 7797POPC   C1A44355  22.982  23.727   6.450
 7797POPC   D2A44356  22.916  23.696   6.750
 7797POPC   C3A44357  22.915  23.738   7.050
 7797POPC   C4A44358  22.970  23.674   7.350
 7797POPC   C1B44359  22.784  23.876   6.450
 7797POPC   C2B44360  22.781  23.894   6.750
 7797POPC   C3B44361  22.754  23.878   7.050
 7797POPC   C4B44362  22.789  23.918   7.350
 7798POPC   NC344363  36.167  19.016   5.550
 7798POPC   PO444364  36.173  19.093   5.850
 7798POPC   GL144365  36.163  19.068   6.150
 7798POPC   GL244366  36.045  19.129   6.150
 7798POPC   C1A44367  36.110  19.062   6.450
 7798POPC   D2A44368  36.103  19.088   6.750
 7798POPC   C3A44369  36.095  19.066   7.050
 7798POPC   C4A44370  36.161  19.033   7.350
 7798POPC   C1B44371  35.899  19.130   6.450
 7798POPC   C2B44372  35.887  19.056   6.750
 7798POPC   C3B44373  35.877  19.104   7.050
 7798POPC   C4B44374  35.878  19.107   7.350
 7799POPC   NC344375  11.276  11.326   5.550
 7799POPC   PO444376  11.287  11.297   5.850
 7799POPC   GL144377  11.281  11.266   6.150
 7799POPC   GL244378  11.382  11.151   6.150
 7799POPC   C1A44379  11.312  11.261   6.450
 7799POPC   D2A44380  11.313  11.349   6.750
 7799POPC   C3A44381  11.275  11.321   7.050
 7799POPC   C4A44382  11.348  11.341   7.350
 7799POPC   C1B44383  11.342  11.075   6.450
 7799POPC   C2B44384  11.368  11.018   6.750
 7799POPC   C3B44385  11.368  11.082   7.050
 7799POPC   C4B44386  11.395  11.028   7.350
 7800POPC   NC344387  30.719  41.596   5.550
 7800POPC   PO444388  30.661  41.569   5.850
 7800POPC   GL144389  30.722  41.537   6.150
 7800POPC   GL244390  30.797  41.596   6.150
 7800POPC   C1A44391  30.667  41.564   6.450
 7800POPC   D2A44392  30.722  41.578   6.750
 7800POPC   C3A44393  30.648  41.531   7.050
 7800POPC   C4A44394  30.710  41.577   7.350
 7800POPC   C1B44395  30.910  41.665   6.450
 7800POPC   C2B44396  30.916  41.735   6.750
 7800POPC   C3B44397  30.863  41.655   7.050
 7800POPC   C4B44398  30.908  41.696   7.350
 7801POPC   NC344399  23.713   3.517   5.550
 7801POPC   PO444400  23.758   3.536   5.850
 7801POPC   GL144401  23.718   3.521   6.150
 7801POPC   GL244402  23.773   3.476   6.150
 7801POPC   C1A44403  23.680   3.564   6.450
 7801POPC   D2A44404  23.684   3.509   6.750
 7801POPC   C3A44405  23.750   3.501   7.050
 7801POPC   C4A44406  23.707   3.497   7.350
 7801POPC   C1B44407  23.800   3.287   6.450
 7801POPC   C2B44408  23.828   3.362   6.750
 7801POPC   C3B44409  23.798   3.328   7.050
 7801POPC   C4B44410  23.803   3.278   7.350
 7802POPC   NC344411  28.328  39.280   5.550
 7802POPC   PO444412  28.348  39.261   5.850
 7802POPC   GL144413  28.413  39.183   6.150
 7802POPC   GL244414  28.500  39.157   6.150
 7802POPC   C1A44415  28.402  39.265   6.450
 7802POPC   D2A44416  28.360  39.188   6.750
 7802POPC   C3A44417  28.393  39.184   7.050
 7802POPC   C4A44418  28.392  39.268   7.350
 7802POPC   C1B44419  28.560  39.155   6.450
 7802POPC   C2B44420  28.616  39.149   6.750
 7802POPC   C3B44421  28.635  39.118   7.050
 7802POPC   C4B44422  28.625  39.135   7.350
 7803POPC   NC344423  27.557  43.924   5.550
 7803POPC   PO444424  27.596  43.869   5.850
 7803POPC   GL144425  27.592  43.909   6.150
 7803POPC   GL244426  27.464  43.967   6.150
 7803POPC   C1A44427  27.559  43.920   6.450
 7803POPC   D2A44428  27.595  43.934   6.750
 7803POPC   C3A44429  27.596  43.912   7.050
 7803POPC   C4A44430  27.608  43.869   7.350
 7803POPC   C1B44431  27.422  44.017   6.450
 7803POPC   C2B44432  27.376  44.068   6.750
 7803POPC   C3B44433  27.414  44.049   7.050
 7803POPC   C4B44434  27.388  44.071   7.350
 7804POPC   NC344435  37.709   7.376   5.550
 7804POPC   PO444436  37.713   7.446   5.850
 7804POPC   GL144437  37.689   7.441   6.150
 7804POPC   GL244438  37.789   7.360   6.150
 7804POPC   C1A44439  37.669   7.446   6.450
 7804POPC   D2A44440  37.716   7.441   6.750
 7804POPC   C3A44441  37.683   7.377   7.050
 7804POPC   C4A44442  37.716   7.381   7.350
 7804POPC   C1B44443  37.881   7.377   6.450
 7804POPC   C2B44444  37.909   7.315   6.750
 7804POPC   C3B44445  37.872   7.281   7.050
 7804POPC   C4B44446  37.887   7.371   7.350
 7805POPC   NC344447   3.505  16.746   5.550
 7805POPC   PO444448   3.545  16.765   5.850
 7805POPC   GL144449   3.565  16.720   6.150
 7805POPC   GL244450   3.651  16.674   6.150
 7805POPC   C1A44451   3.493  16.749   6.450
 7805POPC   D2A44452   3.499  16.775   6.750
 7805POPC   C3A44453   3.537  16.735   7.050
 7805POPC   C4A44454   3.589  16.772   7.350
 7805POPC   C1B44455   3.766  16.650   6.450
 7805POPC   C2B44456   3.799  16.608   6.750
 7805POPC   C3B44457   3.747  16.645   7.050
 7805POPC   C4B44458   3.790  16.650   7.350
 7806POPC   NC344459  19.049  41.590   5.550
 7806POPC   PO444460  19.027  41.560   5.850
 7806POPC   GL144461  19.030  41.534   6.150
 7806POPC   GL244462  19.045  41.474   6.150
 7806POPC   C1A44463  19.055  41.590   6.450
 7806POPC   D2A44464  19.044  41.566   6.750
 7806POPC   C3A44465  19.102  41.533   7.050
 7806POPC   C4A44466  19.051  41.550   7.350
 7806POPC   C1B44467  19.052  41.309   6.450
 7806POPC   C2B44468  18.994  41.275   6.750
 7806POPC   C3B44469  18.965  41.330   7.050
 7806POPC   C4B44470  19.014  41.315   7.350
 7807POPC   NC344471  26.014  28.391   5.550
 7807POPC   PO444472  26.078  28.396   5.850
 7807POPC   GL144473  26.035  28.415   6.150
 7807POPC   GL244474  25.951  28.341   6.150
 7807POPC   C1A44475  26.045  28.414   6.450
 7807POPC   D2A44476  26.045  28.320   6.750
 7807POPC   C3A44477  26.008  28.348   7.050
 7807POPC   C4A44478  26.078  28.362   7.350
 7807POPC   C1B44479  25.753  28.304   6.450
 7807POPC   C2B44480  25.778  28.294   6.750
 7807POPC   C3B44481  25.837  28.320   7.050
 7807POPC   C4B44482  25.767  28.308   7.350
 7808POPC   NC344483  42.304  16.711   5.550
 7808POPC   PO444484  42.367  16.760   5.850
 7808POPC   GL144485  42.380  16.713   6.150
 7808POPC   GL244486  42.422  16.664   6.150
 7808POPC   C1A44487  42.328  16.774   6.450
 7808POPC   D2A44488  42.301  16.759   6.750
 7808POPC   C3A44489  42.346  16.726   7.050
 7808POPC   C4A44490  42.332  16.697   7.350
 7808POPC   C1B44491  42.585  16.612   6.450
 7808POPC   C2B44492  42.519  16.611   6.750
 7808POPC   C3B44493  42.571  16.585   7.050
 7808POPC   C4B44494  42.562  16.611   7.350
 7809POPC   NC344495  29.928  40.794   5.550
 7809POPC   PO444496  29.966  40.812   5.850
 7809POPC   GL144497  29.919  40.764   6.150
 7809POPC   GL244498  30.076  40.812   6.150
 7809POPC   C1A44499  29.925  40.808   6.450
 7809POPC   D2A44500  29.930  40.767   6.750
 7809POPC   C3A44501  29.932  40.751   7.050
 7809POPC   C4A44502  29.875  40.800   7.350
 7809POPC   C1B44503  30.189  40.890   6.450
 7809POPC   C2B44504  30.165  40.892   6.750
 7809POPC   C3B44505  30.152  40.909   7.050
 7809POPC   C4B44506  30.166  40.913   7.350
 7810POPC   NC344507  29.154  29.955   5.550
 7810POPC   PO444508  29.164  29.951   5.850
 7810POPC   GL144509  29.138  29.896   6.150
 7810POPC   GL244510  29.028  29.904   6.150
 7810POPC   C1A44511  29.105  29.907   6.450
 7810POPC   D2A44512  29.146  29.878   6.750
 7810POPC   C3A44513  29.103  29.895   7.050
 7810POPC   C4A44514  29.159  29.900   7.350
 7810POPC   C1B44515  28.870  29.825   6.450
 7810POPC   C2B44516  28.860  29.867   6.750
 7810POPC   C3B44517  28.943  29.879   7.050
 7810POPC   C4B44518  28.916  29.847   7.350
 7811POPC   NC344519   2.797  29.188   5.550
 7811POPC   PO444520   2.787  29.173   5.850
 7811POPC   GL144521   2.790  29.095   6.150
 7811POPC   GL244522   2.919  29.209   6.150
 7811POPC   C1A44523   2.727  29.187   6.450
 7811POPC   D2A44524   2.768  29.184   6.750
 7811POPC   C3A44525   2.809  29.149   7.050
 7811POPC   C4A44526   2.728  29.133   7.350
 7811POPC   C1B44527   3.029  29.248   6.450
 7811POPC   C2B44528   2.980  29.283   6.750
 7811POPC   C3B44529   3.027  29.241   7.050
 7811POPC   C4B44530   2.963  29.234   7.350
 7812POPC   NC344531  15.210  16.711   5.550
 7812POPC   PO444532  15.182  16.757   5.850
 7812POPC   GL144533  15.199  16.755   6.150
 7812POPC   GL244534  15.059  16.625   6.150
 7812POPC   C1A44535  15.168  16.744   6.450
 7812POPC   D2A44536  15.217  16.718   6.750
 7812POPC   C3A44537  15.165  16.749   7.050
 7812POPC   C4A44538  15.173  16.730   7.350
 7812POPC   C1B44539  14.966  16.551   6.450
 7812POPC   C2B44540  15.023  16.626   6.750
 7812POPC   C3B44541  14.975  16.625   7.050
 7812POPC   C4B44542  14.928  16.625   7.350
 7813POPC   NC344543  44.632  22.151   5.550
 7813POPC   PO444544  44.629  22.126   5.850
 7813POPC   GL144545  44.683  22.144   6.150
 7813POPC   GL244546  44.554  22.297   6.150
 7813POPC   C1A44547  44.648  22.180   6.450
 7813POPC   D2A44548  44.613  22.144   6.750
 7813POPC   C3A44549  44.663  22.130   7.050
 7813POPC   C4A44550  44.620  22.119   7.350
 7813POPC   C1B44551  44.551  22.348   6.450
 7813POPC   C2B44552  44.540  22.422   6.750
 7813POPC   C3B44553  44.533  22.347   7.050
 7813POPC   C4B44554  44.564  22.404   7.350
 7814POPC   NC344555  38.421  22.912   5.550
 7814POPC   PO444556  38.434  22.943   5.850
 7814POPC   GL144557  38.445  22.947   6.150
 7814POPC   GL244558  38.382  23.098   6.150
 7814POPC   C1A44559  38.484  22.965   6.450
 7814POPC   D2A44560  38.433  22.898   6.750
 7814POPC   C3A44561  38.498  22.948   7.050
 7814POPC   C4A44562  38.489  22.889   7.350
 7814POPC   C1B44563  38.364  23.209   6.450
 7814POPC   C2B44564  38.370  23.140   6.750
 7814POPC   C3B44565  38.403  23.176   7.050
 7814POPC   C4B44566  38.429  23.228   7.350
 7815POPC   NC344567  16.706  37.663   5.550
 7815POPC   PO444568  16.701  37.726   5.850
 7815POPC   GL144569  16.718  37.670   6.150
 7815POPC   GL244570  16.674  37.563   6.150
 7815POPC   C1A44571  16.733  37.630   6.450
 7815POPC   D2A44572  16.750  37.705   6.750
 7815POPC   C3A44573  16.733  37.642   7.050
 7815POPC   C4A44574  16.750  37.660   7.350
 7815POPC   C1B44575  16.712  37.439   6.450
 7815POPC   C2B44576  16.679  37.448   6.750
 7815POPC   C3B44577  16.623  37.465   7.050
 7815POPC   C4B44578  16.629  37.488   7.350
 7816POPC   NC344579  20.638  44.703   5.550
 7816POPC   PO444580  20.570  44.680   5.850
 7816POPC   GL144581  20.640  44.637   6.150
 7816POPC   GL244582  20.480  44.634   6.150
 7816POPC   C1A44583  20.590  44.654   6.450
 7816POPC   D2A44584  20.621  44.613   6.750
 7816POPC   C3A44585  20.565  44.671   7.050
 7816POPC   C4A44586  20.579  44.614   7.350
 7816POPC   C1B44587  20.368  44.696   6.450
 7816POPC   C2B44588  20.376  44.659   6.750
 7816POPC   C3B44589  20.366  44.662   7.050
 7816POPC   C4B44590  20.338  44.663   7.350
 7817POPC   NC344591  24.489   9.005   5.550
 7817POPC   PO444592  24.445   9.011   5.850
 7817POPC   GL144593  24.484   8.926   6.150
 7817POPC   GL244594  24.593   8.998   6.150
 7817POPC   C1A44595  24.520   8.981   6.450
 7817POPC   D2A44596  24.504   8.933   6.750
 7817POPC   C3A44597  24.535   8.999   7.050
 7817POPC   C4A44598  24.453   9.017   7.350
 7817POPC   C1B44599  24.707   9.063   6.450
 7817POPC   C2B44600  24.653   9.059   6.750
 7817POPC   C3B44601  24.657   9.144   7.050
 7817POPC   C4B44602  24.654   9.073   7.350
 7818POPC   NC344603  40.035  39.186   5.550
 7818POPC   PO444604  39.987  39.245   5.850
 7818POPC   GL144605  40.034  39.231   6.150
 7818POPC   GL244606  40.093  39.257   6.150
 7818POPC   C1A44607  39.998  39.211   6.450
 7818POPC   D2A44608  39.977  39.251   6.750
 7818POPC   C3A44609  40.054  39.208   7.050
 7818POPC   C4A44610  39.989  39.217   7.350
 7818POPC   C1B44611  40.301  39.181   6.450
 7818POPC   C2B44612  40.296  39.220   6.750
 7818POPC   C3B44613  40.273  39.154   7.050
 7818POPC   C4B44614  40.214  39.199   7.350
 7819POPC   NC344615  41.536  19.878   5.550
 7819POPC   PO444616  41.551  19.881   5.850
 7819POPC   GL144617  41.561  19.839   6.150
 7819POPC   GL244618  41.623  19.928   6.150
 7819POPC   C1A44619  41.555  19.871   6.450
 7819POPC   D2A44620  41.519  19.878   6.750
 7819POPC   C3A44621  41.553  19.830   7.050
 7819POPC   C4A44622  41.557  19.877   7.350
 7819POPC   C1B44623  41.630  20.070   6.450
 7819POPC   C2B44624  41.691  20.110   6.750
 7819POPC   C3B44625  41.681  20.077   7.050
 7819POPC   C4B44626  41.611  20.054   7.350
 7820POPC   NC344627  27.570  31.465   5.550
 7820POPC   PO444628  27.639  31.481   5.850
 7820POPC   GL144629  27.543  31.515   6.150
 7820POPC   GL244630  27.476  31.370   6.150
 7820POPC   C1A44631  27.546  31.493   6.450
 7820POPC   D2A44632  27.610  31.428   6.750
 7820POPC   C3A44633  27.555  31.439   7.050
 7820POPC   C4A44634  27.548  31.424   7.350
 7820POPC   C1B44635  27.409  31.314   6.450
 7820POPC   C2B44636  27.408  31.330   6.750
 7820POPC   C3B44637  27.372  31.281   7.050
 7820POPC   C4B44638  27.444  31.364   7.350
 7821POPC   NC344639  13.671   5.078   5.550
 7821POPC   PO444640  13.663   5.055   5.850
 7821POPC   GL144641  13.662   5.057   6.150
 7821POPC   GL244642  13.734   5.122   6.150
 7821POPC   C1A44643  13.604   5.103   6.450
 7821POPC   D2A44644  13.583   5.044   6.750
 7821POPC   C3A44645  13.639   5.099   7.050
 7821POPC   C4A44646  13.661   5.058   7.350
 7821POPC   C1B44647  13.852   5.215   6.450
 7821POPC   C2B44648  13.902   5.180   6.750
 7821POPC   C3B44649  13.852   5.206   7.050
 7821POPC   C4B44650  13.865   5.138   7.350
 7822POPC   NC344651   4.360  11.292   5.550
 7822POPC   PO444652   4.334  11.295   5.850
 7822POPC   GL144653   4.301  11.319   6.150
 7822POPC   GL244654   4.397  11.143   6.150
 7822POPC   C1A44655   4.297  11.291   6.450
 7822POPC   D2A44656   4.366  11.283   6.750
 7822POPC   C3A44657   4.284  11.277   7.050
 7822POPC   C4A44658   4.359  11.260   7.350
 7822POPC   C1B44659   4.351  11.093   6.450
 7822POPC   C2B44660   4.359  11.024   6.750
 7822POPC   C3B44661   4.379  11.024   7.050
 7822POPC   C4B44662   4.366  11.013   7.350
 7823POPC   NC344663  24.471  15.188   5.550
 7823POPC   PO444664  24.498  15.135   5.850
 7823POPC   GL144665  24.455  15.136   6.150
 7823POPC   GL244666  24.532  15.085   6.150
 7823POPC   C1A44667  24.440  15.183   6.450
 7823POPC   D2A44668  24.525  15.180   6.750
 7823POPC   C3A44669  24.484  15.170   7.050
 7823POPC   C4A44670  24.539  15.220   7.350
 7823POPC   C1B44671  24.617  14.978   6.450
 7823POPC   C2B44672  24.642  14.997   6.750
 7823POPC   C3B44673  24.639  14.931   7.050
 7823POPC   C4B44674  24.642  14.910   7.350
 7824POPC   NC344675   2.025  11.283   5.550
 7824POPC   PO444676   1.991  11.273   5.850
 7824POPC   GL144677   1.992  11.276   6.150
 7824POPC   GL244678   1.889  11.329   6.150
 7824POPC   C1A44679   2.014  11.278   6.450
 7824POPC   D2A44680   1.945  11.269   6.750
 7824POPC   C3A44681   2.016  11.265   7.050
 7824POPC   C4A44682   1.994  11.334   7.350
 7824POPC   C1B44683   1.703  11.258   6.450
 7824POPC   C2B44684   1.757  11.329   6.750
 7824POPC   C3B44685   1.745  11.257   7.050
 7824POPC   C4B44686   1.790  11.251   7.350
 7825POPC   NC344687  33.784  22.198   5.550
 7825POPC   PO444688  33.837  22.183   5.850
 7825POPC   GL144689  33.784  22.168   6.150
 7825POPC   GL244690  33.750  22.037   6.150
 7825POPC   C1A44691  33.806  22.131   6.450
 7825POPC   D2A44692  33.802  22.137   6.750
 7825POPC   C3A44693  33.831  22.179   7.050
 7825POPC   C4A44694  33.796  22.139   7.350
 7825POPC   C1B44695  33.604  22.012   6.450
 7825POPC   C2B44696  33.577  22.019   6.750
 7825POPC   C3B44697  33.612  22.009   7.050
 7825POPC   C4B44698  33.588  21.962   7.350
 7826POPC   NC344699   6.677  12.806   5.550
 7826POPC   PO444700   6.674  12.833   5.850
 7826POPC   GL144701   6.633  12.881   6.150
 7826POPC   GL244702   6.726  12.936   6.150
 7826POPC   C1A44703   6.596  12.809   6.450
 7826POPC   D2A44704   6.643  12.876   6.750
 7826POPC   C3A44705   6.629  12.856   7.050
 7826POPC   C4A44706   6.597  12.890   7.350
 7826POPC   C1B44707   6.922  12.949   6.450
 7826POPC   C2B44708   6.867  12.971   6.750
 7826POPC   C3B44709   6.840  12.973   7.050
 7826POPC   C4B44710   6.834  12.900   7.350
 7827POPC   NC344711   2.793  14.414   5.550
 7827POPC   PO444712   2.772  14.440   5.850
 7827POPC   GL144713   2.744  14.354   6.150
 7827POPC   GL244714   2.697  14.266   6.150
 7827POPC   C1A44715   2.776  14.394   6.450
 7827POPC   D2A44716   2.732  14.369   6.750
 7827POPC   C3A44717   2.770  14.371   7.050
 7827POPC   C4A44718   2.801  14.410   7.350
 7827POPC   C1B44719   2.617  14.228   6.450
 7827POPC   C2B44720   2.633  14.234   6.750
 7827POPC   C3B44721   2.551  14.180   7.050
 7827POPC   C4B44722   2.634  14.237   7.350
 7828POPC   NC344723  27.550  30.712   5.550
 7828POPC   PO444724  27.594  30.695   5.850
 7828POPC   GL144725  27.642  30.731   6.150
 7828POPC   GL244726  27.584  30.583   6.150
 7828POPC   C1A44727  27.627  30.681   6.450
 7828POPC   D2A44728  27.566  30.732   6.750
 7828POPC   C3A44729  27.615  30.677   7.050
 7828POPC   C4A44730  27.597  30.654   7.350
 7828POPC   C1B44731  27.508  30.487   6.450
 7828POPC   C2B44732  27.504  30.453   6.750
 7828POPC   C3B44733  27.498  30.431   7.050
 7828POPC   C4B44734  27.557  30.488   7.350
 7829POPC   NC344735   1.991  14.393   5.550
 7829POPC   PO444736   1.976  14.409   5.850
 7829POPC   GL144737   1.984  14.401   6.150
 7829POPC   GL244738   1.961  14.527   6.150
 7829POPC   C1A44739   2.039  14.372   6.450
 7829POPC   D2A44740   1.944  14.421   6.750
 7829POPC   C3A44741   2.023  14.383   7.050
 7829POPC   C4A44742   1.977  14.426   7.350
 7829POPC   C1B44743   1.922  14.668   6.450
 7829POPC   C2B44744   1.861  14.598   6.750
 7829POPC   C3B44745   1.948  14.689   7.050
 7829POPC   C4B44746   1.880  14.643   7.350
 7830POPC   NC344747  39.998  38.500   5.550
 7830POPC   PO444748  39.995  38.492   5.850
 7830POPC   GL144749  39.989  38.454   6.150
 7830POPC   GL244750  39.993  38.533   6.150
 7830POPC   C1A44751  40.052  38.435   6.450
 7830POPC   D2A44752  39.998  38.441   6.750
 7830POPC   C3A44753  40.055  38.406   7.050
 7830POPC   C4A44754  40.013  38.499   7.350
 7830POPC   C1B44755  39.912  38.735   6.450
 7830POPC   C2B44756  40.002  38.706   6.750
 7830POPC   C3B44757  39.932  38.700   7.050
 7830POPC   C4B44758  39.966  38.672   7.350
 7831POPC   NC344759  23.752   1.942   5.550
 7831POPC   PO444760  23.759   1.972   5.850
 7831POPC   GL144761  23.740   1.981   6.150
 7831POPC   GL244762  23.851   1.938   6.150
 7831POPC   C1A44763  23.708   2.023   6.450
 7831POPC   D2A44764  23.759   1.983   6.750
 7831POPC   C3A44765  23.734   1.995   7.050
 7831POPC   C4A44766  23.671   1.978   7.350
 7831POPC   C1B44767  23.919   1.863   6.450
 7831POPC   C2B44768  23.919   1.850   6.750
 7831POPC   C3B44769  23.965   1.920   7.050
 7831POPC   C4B44770  23.959   1.889   7.350
 7832POPC   NC344771  17.540  33.052   5.550
 7832POPC   PO444772  17.555  33.073   5.850
 7832POPC   GL144773  17.503  33.065   6.150
 7832POPC   GL244774  17.568  33.123   6.150
 7832POPC   C1A44775  17.466  33.040   6.450
 7832POPC   D2A44776  17.528  32.996   6.750
 7832POPC   C3A44777  17.487  33.038   7.050
 7832POPC   C4A44778  17.514  33.032   7.350
 7832POPC   C1B44779  17.571  33.319   6.450
 7832POPC   C2B44780  17.554  33.264   6.750
 7832POPC   C3B44781  17.540  33.230   7.050
 7832POPC   C4B44782  17.579  33.272   7.350
 7833POPC   NC344783  17.529  36.883   5.550
 7833POPC   PO444784  17.544  36.880   5.850
 7833POPC   GL144785  17.538  36.854   6.150
 7833POPC   GL244786  17.389  36.877   6.150
 7833POPC   C1A44787  17.524  36.867   6.450
 7833POPC   D2A44788  17.485  36.862   6.750
 7833POPC   C3A44789  17.508  36.900   7.050
 7833POPC   C4A44790  17.525  36.920   7.350
 7833POPC   C1B44791  17.244  36.842   6.450
 7833POPC   C2B44792  17.259  36.902   6.750
 7833POPC   C3B44793  17.262  36.888   7.050
 7833POPC   C4B44794  17.270  36.836   7.350
 7834POPC   NC344795  14.381  39.995   5.550
 7834POPC   PO444796  14.371  40.008   5.850
 7834POPC   GL144797  14.371  40.051   6.150
 7834POPC   GL244798  14.475  40.086   6.150
 7834POPC   C1A44799  14.361  39.961   6.450
 7834POPC   D2A44800  14.398  40.041   6.750
 7834POPC   C3A44801  14.354  40.021   7.050
 7834POPC   C4A44802  14.433  39.999   7.350
 7834POPC   C1B44803  14.514  40.231   6.450
 7834POPC   C2B44804  14.566  40.197   6.750
 7834POPC   C3B44805  14.545  40.251   7.050
 7834POPC   C4B44806  14.542  40.251   7.350
 7835POPC   NC344807  31.434   9.715   5.550
 7835POPC   PO444808  31.484   9.741   5.850
 7835POPC   GL144809  31.501   9.728   6.150
 7835POPC   GL244810  31.448   9.629   6.150
 7835POPC   C1A44811  31.438   9.731   6.450
 7835POPC   D2A44812  31.453   9.771   6.750
 7835POPC   C3A44813  31.509   9.762   7.050
 7835POPC   C4A44814  31.448   9.751   7.350
 7835POPC   C1B44815  31.413   9.457   6.450
 7835POPC   C2B44816  31.443   9.543   6.750
 7835POPC   C3B44817  31.462   9.546   7.050
 7835POPC   C4B44818  31.468   9.467   7.350
 7836POPC   NC344819  10.558   8.197   5.550
 7836POPC   PO444820  10.538   8.179   5.850
 7836POPC   GL144821  10.558   8.196   6.150
 7836POPC   GL244822  10.598   8.078   6.150
 7836POPC   C1A44823  10.523   8.166   6.450
 7836POPC   D2A44824  10.521   8.224   6.750
 7836POPC   C3A44825  10.535   8.159   7.050
 7836POPC   C4A44826  10.569   8.245   7.350
 7836POPC   C1B44827  10.739   8.080   6.450
 7836POPC   C2B44828  10.734   8.041   6.750
 7836POPC   C3B44829  10.706   8.032   7.050
 7836POPC   C4B44830  10.757   8.041   7.350
 7837POPC   NC344831  21.408  33.809   5.550
 7837POPC   PO444832  21.393  33.771   5.850
 7837POPC   GL144833  21.434  33.792   6.150
 7837POPC   GL244834  21.329  33.941   6.150
 7837POPC   C1A44835  21.402  33.807   6.450
 7837POPC   D2A44836  21.424  33.843   6.750
 7837POPC   C3A44837  21.354  33.788   7.050
 7837POPC   C4A44838  21.346  33.817   7.350
 7837POPC   C1B44839  21.343  34.075   6.450
 7837POPC   C2B44840  21.401  34.025   6.750
 7837POPC   C3B44841  21.404  34.027   7.050
 7837POPC   C4B44842  21.353  34.022   7.350
 7838POPC   NC344843  17.549  40.052   5.550
 7838POPC   PO444844  17.465  40.037   5.850
 7838POPC   GL144845  17.526  39.979   6.150
 7838POPC   GL244846  17.347  39.947   6.150
 7838POPC   C1A44847  17.526  39.999   6.450
 7838POPC   D2A44848  17.532  40.027   6.750
 7838POPC   C3A44849  17.490  40.055   7.050
 7838POPC   C4A44850  17.503  40.049   7.350
 7838POPC   C1B44851  17.257  39.930   6.450
 7838POPC   C2B44852  17.256  39.883   6.750
 7838POPC   C3B44853  17.283  39.906   7.050
 7838POPC   C4B44854  17.289  39.951   7.350
 7839POPC   NC344855   6.628   7.411   5.550
 7839POPC   PO444856   6.619   7.390   5.850
 7839POPC   GL144857   6.678   7.432   6.150
 7839POPC   GL244858   6.520   7.402   6.150
 7839POPC   C1A44859   6.676   7.382   6.450
 7839POPC   D2A44860   6.638   7.414   6.750
 7839POPC   C3A44861   6.655   7.442   7.050
 7839POPC   C4A44862   6.672   7.371   7.350
 7839POPC   C1B44863   6.345   7.469   6.450
 7839POPC   C2B44864   6.392   7.433   6.750
 7839POPC   C3B44865   6.376   7.415   7.050
 7839POPC   C4B44866   6.349   7.447   7.350
 7840POPC   NC344867  29.143   7.436   5.550
 7840POPC   PO444868  29.111   7.446   5.850
 7840POPC   GL144869  29.187   7.378   6.150
 7840POPC   GL244870  29.074   7.534   6.150
 7840POPC   C1A44871  29.140   7.459   6.450
 7840POPC   D2A44872  29.181   7.451   6.750
 7840POPC   C3A44873  29.166   7.372   7.050
 7840POPC   C4A44874  29.135   7.399   7.350
 7840POPC   C1B44875  29.073   7.713   6.450
 7840POPC   C2B44876  29.062   7.616   6.750
 7840POPC   C3B44877  29.090   7.645   7.050
 7840POPC   C4B44878  29.132   7.620   7.350
 7841POPC   NC344879  19.794  36.945   5.550
 7841POPC   PO444880  19.854  36.887   5.850
 7841POPC   GL144881  19.880  36.873   6.150
 7841POPC   GL244882  19.710  36.837   6.150
 7841POPC   C1A44883  19.844  36.895   6.450
 7841POPC   D2A44884  19.877  36.856   6.750
 7841POPC   C3A44885  19.809  36.888   7.050
 7841POPC   C4A44886  19.829  36.886   7.350
 7841POPC   C1B44887  19.659  36.690   6.450
 7841POPC   C2B44888  19.639  36.715   6.750
 7841POPC   C3B44889  19.642  36.692   7.050
 7841POPC   C4B44890  19.680  36.677   7.350
 7842POPC   NC344891  18.279  10.510   5.550
 7842POPC   PO444892  18.240  10.511   5.850
 7842POPC   GL144893  18.261  10.562   6.150
 7842POPC   GL244894  18.321  10.379   6.150
 7842POPC   C1A44895  18.252  10.539   6.450
 7842POPC   D2A44896  18.265  10.574   6.750
 7842POPC   C3A44897  18.313  10.528   7.050
 7842POPC   C4A44898  18.283  10.516   7.350
 7842POPC   C1B44899  18.272  10.255   6.450
 7842POPC   C2B44900  18.261  10.235   6.750
 7842POPC   C3B44901  18.281  10.306   7.050
 7842POPC   C4B44902  18.292  10.235   7.350
 7843POPC   NC344903  20.650  21.404   5.550
 7843POPC   PO444904  20.562  21.402   5.850
 7843POPC   GL144905  20.580  21.383   6.150
 7843POPC   GL244906  20.529  21.514   6.150
 7843POPC   C1A44907  20.639  21.407   6.450
 7843POPC   D2A44908  20.649  21.385   6.750
 7843POPC   C3A44909  20.578  21.380   7.050
 7843POPC   C4A44910  20.578  21.421   7.350
 7843POPC   C1B44911  20.436  21.512   6.450
 7843POPC   C2B44912  20.442  21.518   6.750
 7843POPC   C3B44913  20.439  21.595   7.050
 7843POPC   C4B44914  20.469  21.583   7.350
 7844POPC   NC344915  43.135  22.966   5.550
 7844POPC   PO444916  43.120  22.941   5.850
 7844POPC   GL144917  43.123  22.987   6.150
 7844POPC   GL244918  42.975  22.955   6.150
 7844POPC   C1A44919  43.089  22.961   6.450
 7844POPC   D2A44920  43.125  22.907   6.750
 7844POPC   C3A44921  43.133  22.958   7.050
 7844POPC   C4A44922  43.149  22.899   7.350
 7844POPC   C1B44923  42.898  23.012   6.450
 7844POPC   C2B44924  42.824  23.002   6.750
 7844POPC   C3B44925  42.848  22.959   7.050
 7844POPC   C4B44926  42.854  22.971   7.350
 7845POPC   NC344927  42.358  22.909   5.550
 7845POPC   PO444928  42.349  22.931   5.850
 7845POPC   GL144929  42.307  22.979   6.150
 7845POPC   GL244930  42.373  22.828   6.150
 7845POPC   C1A44931  42.346  22.937   6.450
 7845POPC   D2A44932  42.348  22.899   6.750
 7845POPC   C3A44933  42.294  22.971   7.050
 7845POPC   C4A44934  42.317  22.916   7.350
 7845POPC   C1B44935  42.436  22.738   6.450
 7845POPC   C2B44936  42.452  22.711   6.750
 7845POPC   C3B44937  42.454  22.670   7.050
 7845POPC   C4B44938  42.454  22.695   7.350
 7846POPC   NC344939  23.735  12.817   5.550
 7846POPC   PO444940  23.684  12.859   5.850
 7846POPC   GL144941  23.715  12.882   6.150
 7846POPC   GL244942  23.827  12.823   6.150
 7846POPC   C1A44943  23.728  12.860   6.450
 7846POPC   D2A44944  23.724  12.814   6.750
 7846POPC   C3A44945  23.674  12.809   7.050
 7846POPC   C4A44946  23.752  12.819   7.350
 7846POPC   C1B44947  23.964  12.835   6.450
 7846POPC   C2B44948  23.933  12.752   6.750
 7846POPC   C3B44949  23.958  12.773   7.050
 7846POPC   C4B44950  23.910  12.846   7.350
 7847POPC   NC344951  26.040  34.605   5.550
 7847POPC   PO444952  26.050  34.602   5.850
 7847POPC   GL144953  26.037  34.613   6.150
 7847POPC   GL244954  26.093  34.715   6.150
 7847POPC   C1A44955  26.053  34.603   6.450
 7847POPC   D2A44956  25.994  34.529   6.750
 7847POPC   C3A44957  26.005  34.570   7.050
 7847POPC   C4A44958  26.003  34.538   7.350
 7847POPC   C1B44959  26.179  34.801   6.450
 7847POPC   C2B44960  26.140  34.787   6.750
 7847POPC   C3B44961  26.151  34.774   7.050
 7847POPC   C4B44962  26.180  34.786   7.350
 7848POPC   NC344963  43.073   9.736   5.550
 7848POPC   PO444964  43.148   9.776   5.850
 7848POPC   GL144965  43.095   9.783   6.150
 7848POPC   GL244966  42.970   9.637   6.150
 7848POPC   C1A44967  43.112   9.756   6.450
 7848POPC   D2A44968  43.114   9.746   6.750
 7848POPC   C3A44969  43.143   9.711   7.050
 7848POPC   C4A44970  43.145   9.789   7.350
 7848POPC   C1B44971  42.932   9.585   6.450
 7848POPC   C2B44972  42.930   9.633   6.750
 7848POPC   C3B44973  42.950   9.632   7.050
 7848POPC   C4B44974  42.937   9.573   7.350
 7849POPC   NC344975  12.044  34.562   5.550
 7849POPC   PO444976  12.125  34.566   5.850
 7849POPC   GL144977  12.053  34.557   6.150
 7849POPC   GL244978  12.230  34.500   6.150
 7849POPC   C1A44979  12.122  34.595   6.450
 7849POPC   D2A44980  12.118  34.529   6.750
 7849POPC   C3A44981  12.026  34.564   7.050
 7849POPC   C4A44982  12.107  34.537   7.350
 7849POPC   C1B44983  12.354  34.460   6.450
 7849POPC   C2B44984  12.291  34.476   6.750
 7849POPC   C3B44985  12.353  34.535   7.050
 7849POPC   C4B44986  12.274  34.459   7.350
 7850POPC   NC344987   0.476  40.773   5.550
 7850POPC   PO444988   0.397  40.806   5.850
 7850POPC   GL144989   0.401  40.785   6.150
 7850POPC   GL244990   0.376  40.714   6.150
 7850POPC   C1A44991   0.410  40.790   6.450
 7850POPC   D2A44992   0.469  40.780   6.750
 7850POPC   C3A44993   0.421  40.772   7.050
 7850POPC   C4A44994   0.419  40.815   7.350
 7850POPC   C1B44995   0.307  40.537   6.450
 7850POPC   C2B44996   0.284  40.606   6.750
 7850POPC   C3B44997   0.276  40.561   7.050
 7850POPC   C4B44998   0.265  40.576   7.350
 7851POPC   NC344999  10.572  34.555   5.550
 7851POPC   PO445000  10.477  34.619   5.850
 7851POPC   GL145001  10.490  34.558   6.150
 7851POPC   GL245002  10.393  34.510   6.150
 7851POPC   C1A45003  10.547  34.583   6.450
 7851POPC   D2A45004  10.555  34.621   6.750
 7851POPC   C3A45005  10.515  34.577   7.050
 7851POPC   C4A45006  10.522  34.596   7.350
 7851POPC   C1B45007  10.329  34.500   6.450
 7851POPC   C2B45008  10.326  34.486   6.750
 7851POPC   C3B45009  10.253  34.476   7.050
 7851POPC   C4B45010  10.266  34.427   7.350
 7852POPC   NC345011  27.565  39.974   5.550
 7852POPC   PO445012  27.620  39.984   5.850
 7852POPC   GL145013  27.576  39.995   6.150
 7852POPC   GL245014  27.588  40.122   6.150
 7852POPC   C1A45015  27.599  39.989   6.450
 7852POPC   D2A45016  27.571  39.983   6.750
 7852POPC   C3A45017  27.609  39.975   7.050
 7852POPC   C4A45018  27.636  40.023   7.350
 7852POPC   C1B45019  27.474  40.202   6.450
 7852POPC   C2B45020  27.506  40.268   6.750
 7852POPC   C3B45021  27.484  40.288   7.050
 7852POPC   C4B45022  27.508  40.205   7.350
 7853POPC   NC345023  40.827  42.322   5.550
 7853POPC   PO445024  40.743  42.296   5.850
 7853POPC   GL145025  40.775  42.296   6.150
 7853POPC   GL245026  40.880  42.293   6.150
 7853POPC   C1A45027  40.745  42.360   6.450
 7853POPC   D2A45028  40.805  42.322   6.750
 7853POPC   C3A45029  40.747  42.377   7.050
 7853POPC   C4A45030  40.739  42.380   7.350
 7853POPC   C1B45031  41.016  42.213   6.450
 7853POPC   C2B45032  40.985  42.145   6.750
 7853POPC   C3B45033  41.020  42.192   7.050
 7853POPC   C4B45034  40.977  42.120   7.350
 7854POPC   NC345035  22.936  26.078   5.550
 7854POPC   PO445036  22.909  26.064   5.850
 7854POPC   GL145037  22.909  26.055   6.150
 7854POPC   GL245038  22.958  26.200   6.150
 7854POPC   C1A45039  22.900  26.066   6.450
 7854POPC   D2A45040  22.962  26.077   6.750
 7854POPC   C3A45041  22.914  26.076   7.050
 7854POPC   C4A45042  22.971  26.042   7.350
 7854POPC   C1B45043  22.896  26.287   6.450
 7854POPC   C2B45044  22.994  26.283   6.750
 7854POPC   C3B45045  22.990  26.280   7.050
 7854POPC   C4B45046  22.946  26.273   7.350
 7855POPC   NC345047  42.318   2.804   5.550
 7855POPC   PO445048  42.354   2.740   5.850
 7855POPC   GL145049  42.295   2.761   6.150
 7855POPC   GL245050  42.433   2.861   6.150
 7855POPC   C1A45051  42.314   2.776   6.450
 7855POPC   D2A45052  42.365   2.771   6.750
 7855POPC   C3A45053  42.322   2.730   7.050
 7855POPC   C4A45054  42.336   2.805   7.350
 7855POPC   C1B45055  42.502   3.016   6.450
 7855POPC   C2B45056  42.483   3.015   6.750
 7855POPC   C3B45057  42.518   3.013   7.050
 7855POPC   C4B45058  42.444   3.006   7.350
 7856POPC   NC345059  11.342  32.235   5.550
 7856POPC   PO445060  11.291  32.297   5.850
 7856POPC   GL145061  11.342  32.220   6.150
 7856POPC   GL245062  11.332  32.369   6.150
 7856POPC   C1A45063  11.342  32.270   6.450
 7856POPC   D2A45064  11.289  32.230   6.750
 7856POPC   C3A45065  11.273  32.252   7.050
 7856POPC   C4A45066  11.324  32.274   7.350
 7856POPC   C1B45067  11.265  32.523   6.450
 7856POPC   C2B45068  11.276  32.449   6.750
 7856POPC   C3B45069  11.234  32.477   7.050
 7856POPC   C4B45070  11.321  32.504   7.350
 7857POPC   NC345071  19.818  15.202   5.550
 7857POPC   PO445072  19.828  15.167   5.850
 7857POPC   GL145073  19.823  15.191   6.150
 7857POPC   GL245074  19.916  15.128   6.150
 7857POPC   C1A45075  19.846  15.210   6.450
 7857POPC   D2A45076  19.806  15.177   6.750
 7857POPC   C3A45077  19.789  15.203   7.050
 7857POPC   C4A45078  19.819  15.208   7.350
 7857POPC   C1B45079  20.086  15.099   6.450
 7857POPC   C2B45080  20.018  15.051   6.750
 7857POPC   C3B45081  20.086  15.121   7.050
 7857POPC   C4B45082  20.084  15.099   7.350
 7858POPC   NC345083  39.248   8.215   5.550
 7858POPC   PO445084  39.252   8.237   5.850
 7858POPC   GL145085  39.211   8.149   6.150
 7858POPC   GL245086  39.063   8.152   6.150
 7858POPC   C1A45087  39.184   8.179   6.450
 7858POPC   D2A45088  39.272   8.241   6.750
 7858POPC   C3A45089  39.241   8.230   7.050
 7858POPC   C4A45090  39.195   8.195   7.350
 7858POPC   C1B45091  38.977   8.168   6.450
 7858POPC   C2B45092  38.974   8.152   6.750
 7858POPC   C3B45093  38.997   8.161   7.050
 7858POPC   C4B45094  38.975   8.207   7.350
 7859POPC   NC345095   0.429  43.860   5.550
 7859POPC   PO445096   0.406  43.840   5.850
 7859POPC   GL145097   0.438  43.930   6.150
 7859POPC   GL245098   0.553  43.909   6.150
 7859POPC   C1A45099   0.393  43.915   6.450
 7859POPC   D2A45100   0.454  43.878   6.750
 7859POPC   C3A45101   0.405  43.934   7.050
 7859POPC   C4A45102   0.452  43.902   7.350
 7859POPC   C1B45103   0.682  43.831   6.450
 7859POPC   C2B45104   0.647  43.869   6.750
 7859POPC   C3B45105   0.653  43.890   7.050
 7859POPC   C4B45106   0.699  43.866   7.350
 7860POPC   NC345107   1.180   1.259   5.550
 7860POPC   PO445108   1.183   1.245   5.850
 7860POPC   GL145109   1.262   1.187   6.150
 7860POPC   GL245110   1.278   1.167   6.150
 7860POPC   C1A45111   1.264   1.229   6.450
 7860POPC   D2A45112   1.225   1.224   6.750
 7860POPC   C3A45113   1.169   1.194   7.050
 7860POPC   C4A45114   1.200   1.189   7.350
 7860POPC   C1B45115   1.445   1.090   6.450
 7860POPC   C2B45116   1.394   1.072   6.750
 7860POPC   C3B45117   1.427   1.076   7.050
 7860POPC   C4B45118   1.394   1.041   7.350
 7861POPC   NC345119   6.621   6.675   5.550
 7861POPC   PO445120   6.630   6.604   5.850
 7861POPC   GL145121   6.608   6.644   6.150
 7861POPC   GL245122   6.726   6.602   6.150
 7861POPC   C1A45123   6.662   6.662   6.450
 7861POPC   D2A45124   6.609   6.688   6.750
 7861POPC   C3A45125   6.663   6.622   7.050
 7861POPC   C4A45126   6.622   6.643   7.350
 7861POPC   C1B45127   6.872   6.459   6.450
 7861POPC   C2B45128   6.783   6.495   6.750
 7861POPC   C3B45129   6.865   6.434   7.050
 7861POPC   C4B45130   6.794   6.480   7.350
 7862POPC   NC345131  24.474  33.000   5.550
 7862POPC   PO445132  24.480  32.989   5.850
 7862POPC   GL145133  24.463  33.003   6.150
 7862POPC   GL245134  24.405  32.961   6.150
 7862POPC   C1A45135  24.521  32.996   6.450
 7862POPC   D2A45136  24.480  32.984   6.750
 7862POPC   C3A45137  24.456  33.007   7.050
 7862POPC   C4A45138  24.529  33.034   7.350
 7862POPC   C1B45139  24.406  32.856   6.450
 7862POPC   C2B45140  24.337  32.860   6.750
 7862POPC   C3B45141  24.352  32.840   7.050
 7862POPC   C4B45142  24.366  32.813   7.350
 7863POPC   NC345143   2.758  20.597   5.550
 7863POPC   PO445144   2.752  20.616   5.850
 7863POPC   GL145145   2.810  20.638   6.150
 7863POPC   GL245146   2.788  20.746   6.150
 7863POPC   C1A45147   2.722  20.590   6.450
 7863POPC   D2A45148   2.808  20.566   6.750
 7863POPC   C3A45149   2.813  20.612   7.050
 7863POPC   C4A45150   2.758  20.564   7.350
 7863POPC   C1B45151   2.894  20.787   6.450
 7863POPC   C2B45152   2.853  20.844   6.750
 7863POPC   C3B45153   2.882  20.827   7.050
 7863POPC   C4B45154   2.946  20.772   7.350
 7864POPC   NC345155  11.287  21.351   5.550
 7864POPC   PO445156  11.331  21.383   5.850
 7864POPC   GL145157  11.286  21.415   6.150
 7864POPC   GL245158  11.359  21.280   6.150
 7864POPC   C1A45159  11.349  21.378   6.450
 7864POPC   D2A45160  11.269  21.362   6.750
 7864POPC   C3A45161  11.346  21.426   7.050
 7864POPC   C4A45162  11.321  21.348   7.350
 7864POPC   C1B45163  11.498  21.248   6.450
 7864POPC   C2B45164  11.551  21.196   6.750
 7864POPC   C3B45165  11.494  21.242   7.050
 7864POPC   C4B45166  11.512  21.227   7.350
 7865POPC   NC345167  27.590  26.059   5.550
 7865POPC   PO445168  27.565  26.028   5.850
 7865POPC   GL145169  27.576  26.020   6.150
 7865POPC   GL245170  27.502  25.970   6.150
 7865POPC   C1A45171  27.552  26.082   6.450
 7865POPC   D2A45172  27.576  26.046   6.750
 7865POPC   C3A45173  27.583  26.087   7.050
 7865POPC   C4A45174  27.628  26.032   7.350
 7865POPC   C1B45175  27.434  25.876   6.450
 7865POPC   C2B45176  27.387  25.857   6.750
 7865POPC   C3B45177  27.389  25.914   7.050
 7865POPC   C4B45178  27.416  25.913   7.350
 7866POPC   NC345179   0.487   9.782   5.550
 7866POPC   PO445180   0.423   9.709   5.850
 7866POPC   GL145181   0.404   9.718   6.150
 7866POPC   GL245182   0.563   9.732   6.150
 7866POPC   C1A45183   0.483   9.792   6.450
 7866POPC   D2A45184   0.401   9.745   6.750
 7866POPC   C3A45185   0.429   9.760   7.050
 7866POPC   C4A45186   0.450   9.782   7.350
 7866POPC   C1B45187   0.685   9.810   6.450
 7866POPC   C2B45188   0.670   9.779   6.750
 7866POPC   C3B45189   0.688   9.829   7.050
 7866POPC   C4B45190   0.721   9.847   7.350
 7867POPC   NC345191  10.560   4.339   5.550
 7867POPC   PO445192  10.574   4.295   5.850
 7867POPC   GL145193  10.522   4.276   6.150
 7867POPC   GL245194  10.514   4.241   6.150
 7867POPC   C1A45195  10.562   4.294   6.450
 7867POPC   D2A45196  10.489   4.289   6.750
 7867POPC   C3A45197  10.495   4.317   7.050
 7867POPC   C4A45198  10.520   4.314   7.350
 7867POPC   C1B45199  10.456   4.121   6.450
 7867POPC   C2B45200  10.447   4.065   6.750
 7867POPC   C3B45201  10.518   4.056   7.050
 7867POPC   C4B45202  10.517   4.091   7.350
 7868POPC   NC345203   0.412   4.277   5.550
 7868POPC   PO445204   0.422   4.282   5.850
 7868POPC   GL145205   0.482   4.311   6.150
 7868POPC   GL245206   0.292   4.340   6.150
 7868POPC   C1A45207   0.395   4.298   6.450
 7868POPC   D2A45208   0.468   4.286   6.750
 7868POPC   C3A45209   0.404   4.365   7.050
 7868POPC   C4A45210   0.422   4.326   7.350
 7868POPC   C1B45211   0.207   4.400   6.450
 7868POPC   C2B45212   0.218   4.414   6.750
 7868POPC   C3B45213   0.218   4.378   7.050
 7868POPC   C4B45214   0.219   4.346   7.350
 7869POPC   NC345215  23.737  43.116   5.550
 7869POPC   PO445216  23.666  43.101   5.850
 7869POPC   GL145217  23.745  43.124   6.150
 7869POPC   GL245218  23.734  43.021   6.150
 7869POPC   C1A45219  23.678  43.080   6.450
 7869POPC   D2A45220  23.745  43.105   6.750
 7869POPC   C3A45221  23.715  43.089   7.050
 7869POPC   C4A45222  23.744  43.121   7.350
 7869POPC   C1B45223  23.803  42.881   6.450
 7869POPC   C2B45224  23.874  42.946   6.750
 7869POPC   C3B45225  23.873  42.892   7.050
 7869POPC   C4B45226  23.865  42.881   7.350
 7870POPC   NC345227  11.268  40.026   5.550
 7870POPC   PO445228  11.287  40.021   5.850
 7870POPC   GL145229  11.277  40.041   6.150
 7870POPC   GL245230  11.286  40.099   6.150
 7870POPC   C1A45231  11.308  40.045   6.450
 7870POPC   D2A45232  11.271  39.963   6.750
 7870POPC   C3A45233  11.263  40.056   7.050
 7870POPC   C4A45234  11.348  39.960   7.350
 7870POPC   C1B45235  11.227  40.255   6.450
 7870POPC   C2B45236  11.193  40.262   6.750
 7870POPC   C3B45237  11.183  40.222   7.050
 7870POPC   C4B45238  11.182  40.186   7.350
 7871POPC   NC345239   2.791  38.476   5.550
 7871POPC   PO445240   2.811  38.452   5.850
 7871POPC   GL145241   2.748  38.422   6.150
 7871POPC   GL245242   2.685  38.581   6.150
 7871POPC   C1A45243   2.770  38.420   6.450
 7871POPC   D2A45244   2.798  38.488   6.750
 7871POPC   C3A45245   2.803  38.419   7.050
 7871POPC   C4A45246   2.753  38.486   7.350
 7871POPC   C1B45247   2.570  38.668   6.450
 7871POPC   C2B45248   2.620  38.629   6.750
 7871POPC   C3B45249   2.577  38.619   7.050
 7871POPC   C4B45250   2.629  38.607   7.350
 7872POPC   NC345251  32.975   5.126   5.550
 7872POPC   PO445252  32.986   5.076   5.850
 7872POPC   GL145253  33.000   5.095   6.150
 7872POPC   GL245254  33.078   5.234   6.150
 7872POPC   C1A45255  32.999   5.106   6.450
 7872POPC   D2A45256  33.035   5.114   6.750
 7872POPC   C3A45257  32.992   5.087   7.050
 7872POPC   C4A45258  32.984   5.071   7.350
 7872POPC   C1B45259  33.103   5.303   6.450
 7872POPC   C2B45260  33.053   5.336   6.750
 7872POPC   C3B45261  33.052   5.326   7.050
 7872POPC   C4B45262  33.108   5.322   7.350
 7873POPC   NC345263  29.191  17.525   5.550
 7873POPC   PO445264  29.164  17.511   5.850
 7873POPC   GL145265  29.124  17.511   6.150
 7873POPC   GL245266  29.106  17.647   6.150
 7873POPC   C1A45267  29.134  17.552   6.450
 7873POPC   D2A45268  29.189  17.542   6.750
 7873POPC   C3A45269  29.178  17.522   7.050
 7873POPC   C4A45270  29.192  17.513   7.350
 7873POPC   C1B45271  28.980  17.708   6.450
 7873POPC   C2B45272  28.975  17.737   6.750
 7873POPC   C3B45273  28.970  17.740   7.050
 7873POPC   C4B45274  28.990  17.725   7.350
 7874POPC   NC345275  15.184  35.339   5.550
 7874POPC   PO445276  15.164  35.389   5.850
 7874POPC   GL145277  15.130  35.333   6.150
 7874POPC   GL245278  15.193  35.441   6.150
 7874POPC   C1A45279  15.146  35.336   6.450
 7874POPC   D2A45280  15.130  35.356   6.750
 7874POPC   C3A45281  15.228  35.321   7.050
 7874POPC   C4A45282  15.208  35.364   7.350
 7874POPC   C1B45283  15.328  35.565   6.450
 7874POPC   C2B45284  15.278  35.611   6.750
 7874POPC   C3B45285  15.274  35.581   7.050
 7874POPC   C4B45286  15.279  35.620   7.350
 7875POPC   NC345287  24.440   2.781   5.550
 7875POPC   PO445288  24.486   2.806   5.850
 7875POPC   GL145289  24.517   2.798   6.150
 7875POPC   GL245290  24.533   2.825   6.150
 7875POPC   C1A45291  24.511   2.732   6.450
 7875POPC   D2A45292  24.477   2.784   6.750
 7875POPC   C3A45293  24.524   2.811   7.050
 7875POPC   C4A45294  24.464   2.811   7.350
 7875POPC   C1B45295  24.714   2.914   6.450
 7875POPC   C2B45296  24.658   2.939   6.750
 7875POPC   C3B45297  24.687   2.955   7.050
 7875POPC   C4B45298  24.677   2.906   7.350
 7876POPC   NC345299  24.470  24.493   5.550
 7876POPC   PO445300  24.440  24.494   5.850
 7876POPC   GL145301  24.520  24.465   6.150
 7876POPC   GL245302  24.384  24.482   6.150
 7876POPC   C1A45303  24.473  24.495   6.450
 7876POPC   D2A45304  24.538  24.452   6.750
 7876POPC   C3A45305  24.481  24.499   7.050
 7876POPC   C4A45306  24.472  24.504   7.350
 7876POPC   C1B45307  24.241  24.523   6.450
 7876POPC   C2B45308  24.212  24.505   6.750
 7876POPC   C3B45309  24.252  24.579   7.050
 7876POPC   C4B45310  24.226  24.603   7.350
 7877POPC   NC345311  30.702   1.257   5.550
 7877POPC   PO445312  30.682   1.194   5.850
 7877POPC   GL145313  30.720   1.244   6.150
 7877POPC   GL245314  30.627   1.144   6.150
 7877POPC   C1A45315  30.714   1.210   6.450
 7877POPC   D2A45316  30.711   1.196   6.750
 7877POPC   C3A45317  30.725   1.242   7.050
 7877POPC   C4A45318  30.700   1.202   7.350
 7877POPC   C1B45319  30.445   1.068   6.450
 7877POPC   C2B45320  30.440   1.152   6.750
 7877POPC   C3B45321  30.458   1.115   7.050
 7877POPC   C4B45322  30.488   1.155   7.350
 7878POPC   NC345323   7.415  14.380   5.550
 7878POPC   PO445324   7.408  14.443   5.850
 7878POPC   GL145325   7.407  14.395   6.150
 7878POPC   GL245326   7.501  14.497   6.150
 7878POPC   C1A45327   7.407  14.388   6.450
 7878POPC   D2A45328   7.403  14.415   6.750
 7878POPC   C3A45329   7.382  14.389   7.050
 7878POPC   C4A45330   7.403  14.425   7.350
 7878POPC   C1B45331   7.579  14.634   6.450
 7878POPC   C2B45332   7.596  14.579   6.750
 7878POPC   C3B45333   7.574  14.611   7.050
 7878POPC   C4B45334   7.609  14.595   7.350
 7879POPC   NC345335  15.975  36.939   5.550
 7879POPC   PO445336  15.927  36.949   5.850
 7879POPC   GL145337  15.967  36.879   6.150
 7879POPC   GL245338  15.959  37.020   6.150
 7879POPC   C1A45339  15.934  36.941   6.450
 7879POPC   D2A45340  15.921  36.899   6.750
 7879POPC   C3A45341  15.960  36.864   7.050
 7879POPC   C4A45342  15.920  36.904   7.350
 7879POPC   C1B45343  15.968  37.198   6.450
 7879POPC   C2B45344  15.980  37.119   6.750
 7879POPC   C3B45345  15.971  37.191   7.050
 7879POPC   C4B45346  15.991  37.153   7.350
 7880POPC   NC345347   4.324  34.591   5.550
 7880POPC   PO445348   4.334  34.613   5.850
 7880POPC   GL145349   4.337  34.586   6.150
 7880POPC   GL245350   4.446  34.554   6.150
 7880POPC   C1A45351   4.332  34.558   6.450
 7880POPC   D2A45352   4.362  34.571   6.750
 7880POPC   C3A45353   4.285  34.555   7.050
 7880POPC   C4A45354   4.270  34.550   7.350
 7880POPC   C1B45355   4.551  34.571   6.450
 7880POPC   C2B45356   4.561  34.543   6.750
 7880POPC   C3B45357   4.517  34.533   7.050
 7880POPC   C4B45358   4.526  34.560   7.350
 7881POPC   NC345359  37.705  22.164   5.550
 7881POPC   PO445360  37.688  22.168   5.850
 7881POPC   GL145361  37.721  22.182   6.150
 7881POPC   GL245362  37.645  22.045   6.150
 7881POPC   C1A45363  37.690  22.199   6.450
 7881POPC   D2A45364  37.638  22.180   6.750
 7881POPC   C3A45365  37.633  22.117   7.050
 7881POPC   C4A45366  37.688  22.146   7.350
 7881POPC   C1B45367  37.534  21.983   6.450
 7881POPC   C2B45368  37.530  21.962   6.750
 7881POPC   C3B45369  37.580  21.990   7.050
 7881POPC   C4B45370  37.503  21.939   7.350
 7882POPC   NC345371  26.074  17.521   5.550
 7882POPC   PO445372  26.088  17.525   5.850
 7882POPC   GL145373  26.021  17.541   6.150
 7882POPC   GL245374  25.918  17.563   6.150
 7882POPC   C1A45375  26.034  17.539   6.450
 7882POPC   D2A45376  26.047  17.537   6.750
 7882POPC   C3A45377  26.036  17.490   7.050
 7882POPC   C4A45378  26.017  17.535   7.350
 7882POPC   C1B45379  25.825  17.570   6.450
 7882POPC   C2B45380  25.831  17.617   6.750
 7882POPC   C3B45381  25.835  17.661   7.050
 7882POPC   C4B45382  25.832  17.641   7.350
 7883POPC   NC345383  36.158  33.789   5.550
 7883POPC   PO445384  36.174  33.802   5.850
 7883POPC   GL145385  36.098  33.848   6.150
 7883POPC   GL245386  36.071  33.919   6.150
 7883POPC   C1A45387  36.154  33.789   6.450
 7883POPC   D2A45388  36.098  33.773   6.750
 7883POPC   C3A45389  36.088  33.794   7.050
 7883POPC   C4A45390  36.138  33.767   7.350
 7883POPC   C1B45391  36.023  33.970   6.450
 7883POPC   C2B45392  35.984  33.970   6.750
 7883POPC   C3B45393  35.984  34.035   7.050
 7883POPC   C4B45394  35.979  34.028   7.350
 7884POPC   NC345395  12.060  36.949   5.550
 7884POPC   PO445396  12.072  36.920   5.850
 7884POPC   GL145397  12.094  36.938   6.150
 7884POPC   GL245398  11.965  36.866   6.150
 7884POPC   C1A45399  12.097  36.871   6.450
 7884POPC   D2A45400  12.118  36.868   6.750
 7884POPC   C3A45401  12.121  36.897   7.050
 7884POPC   C4A45402  12.071  36.895   7.350
 7884POPC   C1B45403  11.808  36.905   6.450
 7884POPC   C2B45404  11.875  36.842   6.750
 7884POPC   C3B45405  11.819  36.869   7.050
 7884POPC   C4B45406  11.851  36.840   7.350
 7885POPC   NC345407  13.608  27.639   5.550
 7885POPC   PO445408  13.674  27.604   5.850
 7885POPC   GL145409  13.675  27.580   6.150
 7885POPC   GL245410  13.575  27.524   6.150
 7885POPC   C1A45411  13.601  27.575   6.450
 7885POPC   D2A45412  13.677  27.560   6.750
 7885POPC   C3A45413  13.639  27.638   7.050
 7885POPC   C4A45414  13.598  27.585   7.350
 7885POPC   C1B45415  13.413  27.430   6.450
 7885POPC   C2B45416  13.411  27.495   6.750
 7885POPC   C3B45417  13.384  27.444   7.050
 7885POPC   C4B45418  13.431  27.451   7.350
 7886POPC   NC345419  12.843  19.871   5.550
 7886POPC   PO445420  12.835  19.861   5.850
 7886POPC   GL145421  12.830  19.864   6.150
 7886POPC   GL245422  12.792  19.805   6.150
 7886POPC   C1A45423  12.889  19.871   6.450
 7886POPC   D2A45424  12.811  19.842   6.750
 7886POPC   C3A45425  12.813  19.794   7.050
 7886POPC   C4A45426  12.863  19.832   7.350
 7886POPC   C1B45427  12.654  19.700   6.450
 7886POPC   C2B45428  12.595  19.760   6.750
 7886POPC   C3B45429  12.669  19.761   7.050
 7886POPC   C4B45430  12.597  19.686   7.350
 7887POPC   NC345431   2.803  40.786   5.550
 7887POPC   PO445432   2.753  40.744   5.850
 7887POPC   GL145433   2.722  40.827   6.150
 7887POPC   GL245434   2.839  40.743   6.150
 7887POPC   C1A45435   2.729  40.761   6.450
 7887POPC   D2A45436   2.750  40.754   6.750
 7887POPC   C3A45437   2.815  40.798   7.050
 7887POPC   C4A45438   2.739  40.750   7.350
 7887POPC   C1B45439   2.968  40.713   6.450
 7887POPC   C2B45440   2.977  40.737   6.750
 7887POPC   C3B45441   2.961  40.710   7.050
 7887POPC   C4B45442   3.000  40.680   7.350
 7888POPC   NC345443  43.132  12.041   5.550
 7888POPC   PO445444  43.075  12.064   5.850
 7888POPC   GL145445  43.124  12.099   6.150
 7888POPC   GL245446  43.097  11.984   6.150
 7888POPC   C1A45447  43.107  12.108   6.450
 7888POPC   D2A45448  43.075  12.034   6.750
 7888POPC   C3A45449  43.103  12.100   7.050
 7888POPC   C4A45450  43.073  12.066   7.350
 7888POPC   C1B45451  43.105  11.815   6.450
 7888POPC   C2B45452  43.082  11.876   6.750
 7888POPC   C3B45453  43.016  11.842   7.050
 7888POPC   C4B45454  43.015  11.879   7.350
 7889POPC   NC345455  15.184   5.114   5.550
 7889POPC   PO445456  15.217   5.074   5.850
 7889POPC   GL145457  15.131   5.073   6.150
 7889POPC   GL245458  15.146   4.999   6.150
 7889POPC   C1A45459  15.182   5.048   6.450
 7889POPC   D2A45460  15.141   5.126   6.750
 7889POPC   C3A45461  15.211   5.071   7.050
 7889POPC   C4A45462  15.195   5.079   7.350
 7889POPC   C1B45463  15.118   4.910   6.450
 7889POPC   C2B45464  15.122   4.895   6.750
 7889POPC   C3B45465  15.134   4.811   7.050
 7889POPC   C4B45466  15.117   4.859   7.350
 7890POPC   NC345467   7.471  42.298   5.550
 7890POPC   PO445468   7.449  42.324   5.850
 7890POPC   GL145469   7.462  42.365   6.150
 7890POPC   GL245470   7.485  42.218   6.150
 7890POPC   C1A45471   7.459  42.316   6.450
 7890POPC   D2A45472   7.389  42.303   6.750
 7890POPC   C3A45473   7.469  42.291   7.050
 7890POPC   C4A45474   7.468  42.299   7.350
 7890POPC   C1B45475   7.459  42.049   6.450
 7890POPC   C2B45476   7.419  42.068   6.750
 7890POPC   C3B45477   7.492  42.053   7.050
 7890POPC   C4B45478   7.459  42.067   7.350
 7891POPC   NC345479  43.071  34.585   5.550
 7891POPC   PO445480  43.067  34.604   5.850
 7891POPC   GL145481  43.150  34.606   6.150
 7891POPC   GL245482  43.013  34.430   6.150
 7891POPC   C1A45483  43.063  34.618   6.450
 7891POPC   D2A45484  43.065  34.542   6.750
 7891POPC   C3A45485  43.147  34.612   7.050
 7891POPC   C4A45486  43.062  34.564   7.350
 7891POPC   C1B45487  43.047  34.354   6.450
 7891POPC   C2B45488  43.031  34.336   6.750
 7891POPC   C3B45489  43.026  34.332   7.050
 7891POPC   C4B45490  42.954  34.306   7.350
 7892POPC   NC345491  10.524  26.836   5.550
 7892POPC   PO445492  10.573  26.846   5.850
 7892POPC   GL145493  10.514  26.865   6.150
 7892POPC   GL245494  10.596  26.762   6.150
 7892POPC   C1A45495  10.488  26.781   6.450
 7892POPC   D2A45496  10.567  26.776   6.750
 7892POPC   C3A45497  10.489  26.773   7.050
 7892POPC   C4A45498  10.485  26.807   7.350
 7892POPC   C1B45499  10.720  26.694   6.450
 7892POPC   C2B45500  10.687  26.673   6.750
 7892POPC   C3B45501  10.739  26.647   7.050
 7892POPC   C4B45502  10.729  26.658   7.350
 7893POPC   NC345503  40.033  22.126   5.550
 7893POPC   PO445504  40.027  22.118   5.850
 7893POPC   GL145505  40.049  22.208   6.150
 7893POPC   GL245506  39.871  22.174   6.150
 7893POPC   C1A45507  40.035  22.127   6.450
 7893POPC   D2A45508  40.003  22.118   6.750
 7893POPC   C3A45509  39.971  22.138   7.050
 7893POPC   C4A45510  39.971  22.206   7.350
 7893POPC   C1B45511  39.756  22.101   6.450
 7893POPC   C2B45512  39.762  22.171   6.750
 7893POPC   C3B45513  39.770  22.108   7.050
 7893POPC   C4B45514  39.767  22.150   7.350
 7894POPC   NC345515  43.088   5.881   5.550
 7894POPC   PO445516  43.064   5.897   5.850
 7894POPC   GL145517  43.128   5.872   6.150
 7894POPC   GL245518  43.207   5.827   6.150
 7894POPC   C1A45519  43.120   5.826   6.450
 7894POPC   D2A45520  43.098   5.918   6.750
 7894POPC   C3A45521  43.082   5.896   7.050
 7894POPC   C4A45522  43.099   5.827   7.350
 7894POPC   C1B45523  43.362   5.806   6.450
 7894POPC   C2B45524  43.384   5.884   6.750
 7894POPC   C3B45525  43.365   5.815   7.050
 7894POPC   C4B45526  43.351   5.828   7.350
 7895POPC   NC345527  41.545  35.347   5.550
 7895POPC   PO445528  41.581  35.308   5.850
 7895POPC   GL145529  41.601  35.360   6.150
 7895POPC   GL245530  41.552  35.490   6.150
 7895POPC   C1A45531  41.519  35.329   6.450
 7895POPC   D2A45532  41.519  35.365   6.750
 7895POPC   C3A45533  41.607  35.328   7.050
 7895POPC   C4A45534  41.566  35.376   7.350
 7895POPC   C1B45535  41.568  35.574   6.450
 7895POPC   C2B45536  41.621  35.642   6.750
 7895POPC   C3B45537  41.622  35.618   7.050
 7895POPC   C4B45538  41.593  35.581   7.350
 7896POPC   NC345539  15.933  12.820   5.550
 7896POPC   PO445540  15.964  12.898   5.850
 7896POPC   GL145541  15.937  12.826   6.150
 7896POPC   GL245542  15.900  13.002   6.150
 7896POPC   C1A45543  15.943  12.855   6.450
 7896POPC   D2A45544  15.939  12.819   6.750
 7896POPC   C3A45545  15.973  12.868   7.050
 7896POPC   C4A45546  16.002  12.807   7.350
 7896POPC   C1B45547  15.905  13.093   6.450
 7896POPC   C2B45548  15.900  13.068   6.750
 7896POPC   C3B45549  15.988  13.089   7.050
 7896POPC   C4B45550  15.963  13.144   7.350
 7897POPC   NC345551  40.780  11.265   5.550
 7897POPC   PO445552  40.803  11.308   5.850
 7897POPC   GL145553  40.791  11.269   6.150
 7897POPC   GL245554  40.904  11.318   6.150
 7897POPC   C1A45555  40.767  11.324   6.450
 7897POPC   D2A45556  40.790  11.315   6.750
 7897POPC   C3A45557  40.757  11.324   7.050
 7897POPC   C4A45558  40.768  11.285   7.350
 7897POPC   C1B45559  41.033  11.441   6.450
 7897POPC   C2B45560  41.041  11.443   6.750
 7897POPC   C3B45561  40.969  11.388   7.050
 7897POPC   C4B45562  41.025  11.419   7.350
 7898POPC   NC345563  30.668  22.207   5.550
 7898POPC   PO445564  30.649  22.163   5.850
 7898POPC   GL145565  30.671  22.141   6.150
 7898POPC   GL245566  30.592  22.225   6.150
 7898POPC   C1A45567  30.671  22.191   6.450
 7898POPC   D2A45568  30.691  22.140   6.750
 7898POPC   C3A45569  30.712  22.137   7.050
 7898POPC   C4A45570  30.733  22.126   7.350
 7898POPC   C1B45571  30.431  22.281   6.450
 7898POPC   C2B45572  30.471  22.231   6.750
 7898POPC   C3B45573  30.427  22.256   7.050
 7898POPC   C4B45574  30.426  22.203   7.350
 7899POPC   NC345575  19.082  18.313   5.550
 7899POPC   PO445576  19.076  18.255   5.850
 7899POPC   GL145577  19.090  18.329   6.150
 7899POPC   GL245578  18.987  18.168   6.150
 7899POPC   C1A45579  19.015  18.233   6.450
 7899POPC   D2A45580  19.062  18.298   6.750
 7899POPC   C3A45581  19.045  18.295   7.050
 7899POPC   C4A45582  19.031  18.248   7.350
 7899POPC   C1B45583  18.960  18.032   6.450
 7899POPC   C2B45584  18.913  18.048   6.750
 7899POPC   C3B45585  18.913  18.031   7.050
 7899POPC   C4B45586  18.992  18.072   7.350
 7900POPC   NC345587  42.353  44.702   5.550
 7900POPC   PO445588  42.352  44.618   5.850
 7900POPC   GL145589  42.298  44.615   6.150
 7900POPC   GL245590  42.258  44.512   6.150
 7900POPC   C1A45591  42.368  44.635   6.450
 7900POPC   D2A45592  42.349  44.689   6.750
 7900POPC   C3A45593  42.311  44.665   7.050
 7900POPC   C4A45594  42.325  44.708   7.350
 7900POPC   C1B45595  42.273  44.464   6.450
 7900POPC   C2B45596  42.264  44.451   6.750
 7900POPC   C3B45597  42.239  44.404   7.050
 7900POPC   C4B45598  42.199  44.453   7.350
 7901POPC   NC345599   1.959  19.070   5.550
 7901POPC   PO445600   1.986  19.038   5.850
 7901POPC   GL145601   2.033  19.040   6.150
 7901POPC   GL245602   2.076  18.951   6.150
 7901POPC   C1A45603   2.020  19.068   6.450
 7901POPC   D2A45604   2.016  19.044   6.750
 7901POPC   C3A45605   2.012  19.027   7.050
 7901POPC   C4A45606   2.010  19.027   7.350
 7901POPC   C1B45607   2.109  18.898   6.450
 7901POPC   C2B45608   2.172  18.845   6.750
 7901POPC   C3B45609   2.138  18.851   7.050
 7901POPC   C4B45610   2.143  18.839   7.350
 7902POPC   NC345611  26.791  22.930   5.550
 7902POPC   PO445612  26.865  22.917   5.850
 7902POPC   GL145613  26.813  22.890   6.150
 7902POPC   GL245614  26.863  22.853   6.150
 7902POPC   C1A45615  26.805  22.920   6.450
 7902POPC   D2A45616  26.790  22.939   6.750
 7902POPC   C3A45617  26.775  22.961   7.050
 7902POPC   C4A45618  26.777  22.924   7.350
 7902POPC   C1B45619  26.839  22.693   6.450
 7902POPC   C2B45620  26.892  22.743   6.750
 7902POPC   C3B45621  26.834  22.693   7.050
 7902POPC   C4B45622  26.848  22.648   7.350
 7903POPC   NC345623  34.600   6.597   5.550
 7903POPC   PO445624  34.583   6.601   5.850
 7903POPC   GL145625  34.581   6.688   6.150
 7903POPC   GL245626  34.518   6.747   6.150
 7903POPC   C1A45627  34.554   6.656   6.450
 7903POPC   D2A45628  34.607   6.600   6.750
 7903POPC   C3A45629  34.534   6.662   7.050
 7903POPC   C4A45630  34.568   6.640   7.350
 7903POPC   C1B45631  34.365   6.822   6.450
 7903POPC   C2B45632  34.330   6.813   6.750
 7903POPC   C3B45633  34.380   6.757   7.050
 7903POPC   C4B45634  34.401   6.759   7.350
 7904POPC   NC345635  12.034  28.359   5.550
 7904POPC   PO445636  12.096  28.414   5.850
 7904POPC   GL145637  12.042  28.329   6.150
 7904POPC   GL245638  11.978  28.315   6.150
 7904POPC   C1A45639  12.069  28.330   6.450
 7904POPC   D2A45640  12.091  28.414   6.750
 7904POPC   C3A45641  12.032  28.405   7.050
 7904POPC   C4A45642  12.105  28.400   7.350
 7904POPC   C1B45643  11.948  28.159   6.450
 7904POPC   C2B45644  11.934  28.199   6.750
 7904POPC   C3B45645  11.874  28.157   7.050
 7904POPC   C4B45646  11.888  28.231   7.350
 7905POPC   NC345647  20.607  36.938   5.550
 7905POPC   PO445648  20.573  36.925   5.850
 7905POPC   GL145649  20.649  36.905   6.150
 7905POPC   GL245650  20.744  36.919   6.150
 7905POPC   C1A45651  20.634  36.885   6.450
 7905POPC   D2A45652  20.633  36.867   6.750
 7905POPC   C3A45653  20.587  36.905   7.050
 7905POPC   C4A45654  20.581  36.860   7.350
 7905POPC   C1B45655  20.815  37.017   6.450
 7905POPC   C2B45656  20.799  37.030   6.750
 7905POPC   C3B45657  20.853  36.970   7.050
 7905POPC   C4B45658  20.801  36.978   7.350
 7906POPC   NC345659  43.134  23.702   5.550
 7906POPC   PO445660  43.115  23.666   5.850
 7906POPC   GL145661  43.074  23.730   6.150
 7906POPC   GL245662  43.126  23.803   6.150
 7906POPC   C1A45663  43.142  23.755   6.450
 7906POPC   D2A45664  43.075  23.741   6.750
 7906POPC   C3A45665  43.098  23.762   7.050
 7906POPC   C4A45666  43.093  23.689   7.350
 7906POPC   C1B45667  43.129  23.934   6.450
 7906POPC   C2B45668  43.083  23.986   6.750
 7906POPC   C3B45669  43.097  24.008   7.050
 7906POPC   C4B45670  43.066  23.945   7.350
 7907POPC   NC345671  37.656  11.337   5.550
 7907POPC   PO445672  37.671  11.269   5.850
 7907POPC   GL145673  37.662  11.338   6.150
 7907POPC   GL245674  37.765  11.237   6.150
 7907POPC   C1A45675  37.671  11.285   6.450
 7907POPC   D2A45676  37.640  11.286   6.750
 7907POPC   C3A45677  37.647  11.308   7.050
 7907POPC   C4A45678  37.674  11.341   7.350
 7907POPC   C1B45679  37.788  11.056   6.450
 7907POPC   C2B45680  37.825  11.125   6.750
 7907POPC   C3B45681  37.813  11.105   7.050
 7907POPC   C4B45682  37.755  11.116   7.350
 7908POPC   NC345683  13.654  26.062   5.550
 7908POPC   PO445684  13.671  26.006   5.850
 7908POPC   GL145685  13.645  26.034   6.150
 7908POPC   GL245686  13.756  25.930   6.150
 7908POPC   C1A45687  13.619  26.028   6.450
 7908POPC   D2A45688  13.638  26.012   6.750
 7908POPC   C3A45689  13.642  26.010   7.050
 7908POPC   C4A45690  13.632  26.003   7.350
 7908POPC   C1B45691  13.798  25.852   6.450
 7908POPC   C2B45692  13.755  25.897   6.750
 7908POPC   C3B45693  13.781  25.838   7.050
 7908POPC   C4B45694  13.808  25.846   7.350
 7909POPC   NC345695   8.937   4.310   5.550
 7909POPC   PO445696   9.013   4.328   5.850
 7909POPC   GL145697   8.950   4.306   6.150
 7909POPC   GL245698   8.963   4.217   6.150
 7909POPC   C1A45699   8.991   4.338   6.450
 7909POPC   D2A45700   8.987   4.330   6.750
 7909POPC   C3A45701   8.933   4.347   7.050
 7909POPC   C4A45702   8.968   4.277   7.350
 7909POPC   C1B45703   8.990   4.100   6.450
 7909POPC   C2B45704   8.917   4.083   6.750
 7909POPC   C3B45705   8.966   4.051   7.050
 7909POPC   C4B45706   8.950   4.101   7.350
 7910POPC   NC345707  36.863   6.634   5.550
 7910POPC   PO445708  36.923   6.655   5.850
 7910POPC   GL145709  36.878   6.654   6.150
 7910POPC   GL245710  36.840   6.784   6.150
 7910POPC   C1A45711  36.884   6.597   6.450
 7910POPC   D2A45712  36.873   6.627   6.750
 7910POPC   C3A45713  36.875   6.691   7.050
 7910POPC   C4A45714  36.895   6.650   7.350
 7910POPC   C1B45715  36.725   6.862   6.450
 7910POPC   C2B45716  36.746   6.881   6.750
 7910POPC   C3B45717  36.802   6.872   7.050
 7910POPC   C4B45718  36.731   6.872   7.350
 7911POPC   NC345719   3.552  37.633   5.550
 7911POPC   PO445720   3.537  37.720   5.850
 7911POPC   GL145721   3.559  37.633   6.150
 7911POPC   GL245722   3.467  37.762   6.150
 7911POPC   C1A45723   3.515  37.717   6.450
 7911POPC   D2A45724   3.511  37.674   6.750
 7911POPC   C3A45725   3.578  37.709   7.050
 7911POPC   C4A45726   3.559  37.722   7.350
 7911POPC   C1B45727   3.436  37.898   6.450
 7911POPC   C2B45728   3.382  37.889   6.750
 7911POPC   C3B45729   3.357  37.919   7.050
 7911POPC   C4B45730   3.436  37.868   7.350
 7912POPC   NC345731   5.064  11.337   5.550
 7912POPC   PO445732   5.080  11.295   5.850
 7912POPC   GL145733   5.081  11.260   6.150
 7912POPC   GL245734   5.199  11.188   6.150
 7912POPC   C1A45735   5.096  11.287   6.450
 7912POPC   D2A45736   5.132  11.255   6.750
 7912POPC   C3A45737   5.046  11.254   7.050
 7912POPC   C4A45738   5.067  11.340   7.350
 7912POPC   C1B45739   5.231  11.111   6.450
 7912POPC   C2B45740   5.185  11.129   6.750
 7912POPC   C3B45741   5.261  11.041   7.050
 7912POPC   C4B45742   5.264  11.120   7.350
 7913POPC   NC345743   3.516  43.890   5.550
 7913POPC   PO445744   3.522  43.918   5.850
 7913POPC   GL145745   3.546  43.905   6.150
 7913POPC   GL245746   3.656  43.951   6.150
 7913POPC   C1A45747   3.574  43.928   6.450
 7913POPC   D2A45748   3.514  43.845   6.750
 7913POPC   C3A45749   3.557  43.874   7.050
 7913POPC   C4A45750   3.508  43.916   7.350
 7913POPC   C1B45751   3.666  44.136   6.450
 7913POPC   C2B45752   3.691  44.058   6.750
 7913POPC   C3B45753   3.695  44.120   7.050
 7913POPC   C4B45754   3.704  44.088   7.350
 7914POPC   NC345755  37.684   6.635   5.550
 7914POPC   PO445756  37.666   6.666   5.850
 7914POPC   GL145757  37.718   6.664   6.150
 7914POPC   GL245758  37.710   6.564   6.150
 7914POPC   C1A45759  37.709   6.608   6.450
 7914POPC   D2A45760  37.689   6.613   6.750
 7914POPC   C3A45761  37.726   6.681   7.050
 7914POPC   C4A45762  37.725   6.607   7.350
 7914POPC   C1B45763  37.739   6.352   6.450
 7914POPC   C2B45764  37.688   6.427   6.750
 7914POPC   C3B45765  37.723   6.444   7.050
 7914POPC   C4B45766  37.737   6.353   7.350
 7915POPC   NC345767   9.777   6.610   5.550
 7915POPC   PO445768   9.766   6.642   5.850
 7915POPC   GL145769   9.786   6.625   6.150
 7915POPC   GL245770   9.656   6.699   6.150
 7915POPC   C1A45771   9.720   6.596   6.450
 7915POPC   D2A45772   9.699   6.610   6.750
 7915POPC   C3A45773   9.755   6.684   7.050
 7915POPC   C4A45774   9.747   6.693   7.350
 7915POPC   C1B45775   9.581   6.825   6.450
 7915POPC   C2B45776   9.609   6.812   6.750
 7915POPC   C3B45777   9.604   6.817   7.050
 7915POPC   C4B45778   9.593   6.812   7.350
 7916POPC   NC345779   0.424  29.151   5.550
 7916POPC   PO445780   0.458  29.156   5.850
 7916POPC   GL145781   0.442  29.111   6.150
 7916POPC   GL245782   0.333  29.074   6.150
 7916POPC   C1A45783   0.398  29.160   6.450
 7916POPC   D2A45784   0.463  29.130   6.750
 7916POPC   C3A45785   0.412  29.137   7.050
 7916POPC   C4A45786   0.398  29.162   7.350
 7916POPC   C1B45787   0.257  29.065   6.450
 7916POPC   C2B45788   0.244  29.050   6.750
 7916POPC   C3B45789   0.235  29.015   7.050
 7916POPC   C4B45790   0.180  29.048   7.350
 7917POPC   NC345791  19.047  25.225   5.550
 7917POPC   PO445792  19.014  25.264   5.850
 7917POPC   GL145793  19.068  25.235   6.150
 7917POPC   GL245794  19.139  25.189   6.150
 7917POPC   C1A45795  19.060  25.216   6.450
 7917POPC   D2A45796  19.069  25.223   6.750
 7917POPC   C3A45797  19.052  25.240   7.050
 7917POPC   C4A45798  19.102  25.307   7.350
 7917POPC   C1B45799  19.241  25.086   6.450
 7917POPC   C2B45800  19.208  25.068   6.750
 7917POPC   C3B45801  19.236  25.126   7.050
 7917POPC   C4B45802  19.233  25.104   7.350
 7918POPC   NC345803  28.319  21.421   5.550
 7918POPC   PO445804  28.320  21.423   5.850
 7918POPC   GL145805  28.370  21.362   6.150
 7918POPC   GL245806  28.334  21.268   6.150
 7918POPC   C1A45807  28.387  21.425   6.450
 7918POPC   D2A45808  28.323  21.353   6.750
 7918POPC   C3A45809  28.385  21.370   7.050
 7918POPC   C4A45810  28.339  21.430   7.350
 7918POPC   C1B45811  28.334  21.170   6.450
 7918POPC   C2B45812  28.298  21.123   6.750
 7918POPC   C3B45813  28.344  21.106   7.050
 7918POPC   C4B45814  28.355  21.103   7.350
 7919POPC   NC345815   5.918  24.533   5.550
 7919POPC   PO445816   5.911  24.497   5.850
 7919POPC   GL145817   5.893  24.485   6.150
 7919POPC   GL245818   5.902  24.414   6.150
 7919POPC   C1A45819   5.887  24.471   6.450
 7919POPC   D2A45820   5.820  24.480   6.750
 7919POPC   C3A45821   5.859  24.452   7.050
 7919POPC   C4A45822   5.841  24.532   7.350
 7919POPC   C1B45823   5.890  24.221   6.450
 7919POPC   C2B45824   5.969  24.200   6.750
 7919POPC   C3B45825   5.966  24.249   7.050
 7919POPC   C4B45826   5.964  24.245   7.350
 7920POPC   NC345827  22.949  15.208   5.550
 7920POPC   PO445828  22.895  15.152   5.850
 7920POPC   GL145829  22.961  15.190   6.150
 7920POPC   GL245830  22.883  15.096   6.150
 7920POPC   C1A45831  22.933  15.163   6.450
 7920POPC   D2A45832  22.890  15.182   6.750
 7920POPC   C3A45833  22.923  15.179   7.050
 7920POPC   C4A45834  22.975  15.198   7.350
 7920POPC   C1B45835  22.831  14.936   6.450
 7920POPC   C2B45836  22.870  14.978   6.750
 7920POPC   C3B45837  22.854  14.970   7.050
 7920POPC   C4B45838  22.792  15.004   7.350
 7921POPC   NC345839  43.104  25.294   5.550
 7921POPC   PO445840  43.146  25.308   5.850
 7921POPC   GL145841  43.137  25.269   6.150
 7921POPC   GL245842  43.184  25.254   6.150
 7921POPC   C1A45843  43.132  25.299   6.450
 7921POPC   D2A45844  43.067  25.217   6.750
 7921POPC   C3A45845  43.099  25.225   7.050
 7921POPC   C4A45846  43.108  25.224   7.350
 7921POPC   C1B45847  43.306  25.219   6.450
 7921POPC   C2B45848  43.314  25.233   6.750
 7921POPC   C3B45849  43.337  25.241   7.050
 7921POPC   C4B45850  43.350  25.158   7.350
 7922POPC   NC345851   2.767   1.259   5.550
 7922POPC   PO445852   2.813   1.172   5.850
 7922POPC   GL145853   2.739   1.223   6.150
 7922POPC   GL245854   2.862   1.092   6.150
 7922POPC   C1A45855   2.790   1.245   6.450
 7922POPC   D2A45856   2.730   1.256   6.750
 7922POPC   C3A45857   2.807   1.249   7.050
 7922POPC   C4A45858   2.746   1.226   7.350
 7922POPC   C1B45859   2.958   1.042   6.450
 7922POPC   C2B45860   2.939   1.011   6.750
 7922POPC   C3B45861   2.893   1.024   7.050
 7922POPC   C4B45862   2.923   0.998   7.350
 7923POPC   NC345863  43.866  40.781   5.550
 7923POPC   PO445864  43.926  40.819   5.850
 7923POPC   GL145865  43.841  40.805   6.150
 7923POPC   GL245866  43.929  40.658   6.150
 7923POPC   C1A45867  43.897  40.818   6.450
 7923POPC   D2A45868  43.860  40.752   6.750
 7923POPC   C3A45869  43.879  40.798   7.050
 7923POPC   C4A45870  43.909  40.773   7.350
 7923POPC   C1B45871  44.070  40.600   6.450
 7923POPC   C2B45872  43.985  40.554   6.750
 7923POPC   C3B45873  44.039  40.576   7.050
 7923POPC   C4B45874  44.051  40.612   7.350
 7924POPC   NC345875  12.033  29.922   5.550
 7924POPC   PO445876  12.064  29.878   5.850
 7924POPC   GL145877  12.036  29.969   6.150
 7924POPC   GL245878  12.054  29.818   6.150
 7924POPC   C1A45879  12.030  29.940   6.450
 7924POPC   D2A45880  12.123  29.959   6.750
 7924POPC   C3A45881  12.048  29.954   7.050
 7924POPC   C4A45882  12.095  29.875   7.350
 7924POPC   C1B45883  11.991  29.731   6.450
 7924POPC   C2B45884  11.934  29.723   6.750
 7924POPC   C3B45885  12.005  29.677   7.050
 7924POPC   C4B45886  11.913  29.675   7.350
 7925POPC   NC345887   2.757  21.424   5.550
 7925POPC   PO445888   2.766  21.433   5.850
 7925POPC   GL145889   2.805  21.338   6.150
 7925POPC   GL245890   2.697  21.498   6.150
 7925POPC   C1A45891   2.734  21.366   6.450
 7925POPC   D2A45892   2.760  21.337   6.750
 7925POPC   C3A45893   2.741  21.338   7.050
 7925POPC   C4A45894   2.777  21.404   7.350
 7925POPC   C1B45895   2.641  21.598   6.450
 7925POPC   C2B45896   2.687  21.595   6.750
 7925POPC   C3B45897   2.727  21.614   7.050
 7925POPC   C4B45898   2.641  21.632   7.350
 7926POPC   NC345899   3.559  19.882   5.550
 7926POPC   PO445900   3.548  19.840   5.850
 7926POPC   GL145901   3.558  19.860   6.150
 7926POPC   GL245902   3.622  19.793   6.150
 7926POPC   C1A45903   3.530  19.816   6.450
 7926POPC   D2A45904   3.546  19.797   6.750
 7926POPC   C3A45905   3.558  19.883   7.050
 7926POPC   C4A45906   3.517  19.822   7.350
 7926POPC   C1B45907   3.774  19.824   6.450
 7926POPC   C2B45908   3.775  19.838   6.750
 7926POPC   C3B45909   3.830  19.843   7.050
 7926POPC   C4B45910   3.741  19.851   7.350
 7927POPC   NC345911  37.701  13.659   5.550
 7927POPC   PO445912  37.675  13.618   5.850
 7927POPC   GL145913  37.682  13.644   6.150
 7927POPC   GL245914  37.617  13.721   6.150
 7927POPC   C1A45915  37.710  13.640   6.450
 7927POPC   D2A45916  37.663  13.636   6.750
 7927POPC   C3A45917  37.687  13.676   7.050
 7927POPC   C4A45918  37.692  13.590   7.350
 7927POPC   C1B45919  37.526  13.868   6.450
 7927POPC   C2B45920  37.512  13.827   6.750
 7927POPC   C3B45921  37.518  13.835   7.050
 7927POPC   C4B45922  37.552  13.828   7.350
 7928POPC   NC345923  29.884   0.412   5.550
 7928POPC   PO445924  29.936   0.455   5.850
 7928POPC   GL145925  29.951   0.452   6.150
 7928POPC   GL245926  30.035   0.434   6.150
 7928POPC   C1A45927  29.894   0.409   6.450
 7928POPC   D2A45928  29.886   0.450   6.750
 7928POPC   C3A45929  29.938   0.458   7.050
 7928POPC   C4A45930  29.894   0.448   7.350
 7928POPC   C1B45931  30.212   0.453   6.450
 7928POPC   C2B45932  30.124   0.447   6.750
 7928POPC   C3B45933  30.122   0.399   7.050
 7928POPC   C4B45934  30.139   0.440   7.350
 7929POPC   NC345935  36.858  25.259   5.550
 7929POPC   PO445936  36.857  25.275   5.850
 7929POPC   GL145937  36.949  25.309   6.150
 7929POPC   GL245938  36.784  25.257   6.150
 7929POPC   C1A45939  36.859  25.266   6.450
 7929POPC   D2A45940  36.946  25.270   6.750
 7929POPC   C3A45941  36.864  25.304   7.050
 7929POPC   C4A45942  36.918  25.261   7.350
 7929POPC   C1B45943  36.634  25.327   6.450
 7929POPC   C2B45944  36.704  25.366   6.750
 7929POPC   C3B45945  36.695  25.271   7.050
 7929POPC   C4B45946  36.687  25.345   7.350
 7930POPC   NC345947  13.669  22.130   5.550
 7930POPC   PO445948  13.677  22.133   5.850
 7930POPC   GL145949  13.627  22.157   6.150
 7930POPC   GL245950  13.554  22.192   6.150
 7930POPC   C1A45951  13.649  22.180   6.450
 7930POPC   D2A45952  13.667  22.212   6.750
 7930POPC   C3A45953  13.635  22.165   7.050
 7930POPC   C4A45954  13.658  22.153   7.350
 7930POPC   C1B45955  13.379  22.275   6.450
 7930POPC   C2B45956  13.444  22.298   6.750
 7930POPC   C3B45957  13.386  22.260   7.050
 7930POPC   C4B45958  13.379  22.320   7.350
 7931POPC   NC345959   9.703  23.698   5.550
 7931POPC   PO445960   9.782  23.712   5.850
 7931POPC   GL145961   9.701  23.763   6.150
 7931POPC   GL245962   9.591  23.716   6.150
 7931POPC   C1A45963   9.792  23.743   6.450
 7931POPC   D2A45964   9.743  23.691   6.750
 7931POPC   C3A45965   9.731  23.720   7.050
 7931POPC   C4A45966   9.738  23.711   7.350
 7931POPC   C1B45967   9.509  23.703   6.450
 7931POPC   C2B45968   9.450  23.730   6.750
 7931POPC   C3B45969   9.532  23.693   7.050
 7931POPC   C4B45970   9.472  23.755   7.350
 7932POPC   NC345971  22.167   5.117   5.550
 7932POPC   PO445972  22.197   5.092   5.850
 7932POPC   GL145973  22.210   5.060   6.150
 7932POPC   GL245974  22.274   5.031   6.150
 7932POPC   C1A45975  22.207   5.085   6.450
 7932POPC   D2A45976  22.188   5.087   6.750
 7932POPC   C3A45977  22.139   5.051   7.050
 7932POPC   C4A45978  22.148   5.067   7.350
 7932POPC   C1B45979  22.422   5.068   6.450
 7932POPC   C2B45980  22.441   5.042   6.750
 7932POPC   C3B45981  22.396   5.009   7.050
 7932POPC   C4B45982  22.367   5.031   7.350
 7933POPC   NC345983   0.427  22.920   5.550
 7933POPC   PO445984   0.438  22.922   5.850
 7933POPC   GL145985   0.441  22.984   6.150
 7933POPC   GL245986   0.563  22.968   6.150
 7933POPC   C1A45987   0.414  22.954   6.450
 7933POPC   D2A45988   0.431  22.963   6.750
 7933POPC   C3A45989   0.420  22.935   7.050
 7933POPC   C4A45990   0.439  22.951   7.350
 7933POPC   C1B45991   0.640  23.112   6.450
 7933POPC   C2B45992   0.642  23.102   6.750
 7933POPC   C3B45993   0.663  23.109   7.050
 7933POPC   C4B45994   0.699  23.042   7.350
 7934POPC   NC345995  14.367  30.673   5.550
 7934POPC   PO445996  14.374  30.673   5.850
 7934POPC   GL145997  14.375  30.721   6.150
 7934POPC   GL245998  14.528  30.630   6.150
 7934POPC   C1A45999  14.392  30.662   6.450
 7934POPC   D2A46000  14.406  30.666   6.750
 7934POPC   C3A46001  14.433  30.672   7.050
 7934POPC   C4A46002  14.414  30.702   7.350
 7934POPC   C1B46003  14.639  30.591   6.450
 7934POPC   C2B46004  14.579  30.571   6.750
 7934POPC   C3B46005  14.649  30.562   7.050
 7934POPC   C4B46006  14.600  30.599   7.350
 7935POPC   NC346007   4.290  13.593   5.550
 7935POPC   PO446008   4.321  13.591   5.850
 7935POPC   GL146009   4.296  13.662   6.150
 7935POPC   GL246010   4.308  13.764   6.150
 7935POPC   C1A46011   4.358  13.672   6.450
 7935POPC   D2A46012   4.328  13.662   6.750
 7935POPC   C3A46013   4.330  13.614   7.050
 7935POPC   C4A46014   4.355  13.644   7.350
 7935POPC   C1B46015   4.354  13.860   6.450
 7935POPC   C2B46016   4.358  13.830   6.750
 7935POPC   C3B46017   4.326  13.924   7.050
 7935POPC   C4B46018   4.316  13.867   7.350
 7936POPC   NC346019  30.658   0.390   5.550
 7936POPC   PO446020  30.702   0.431   5.850
 7936POPC   GL146021  30.687   0.435   6.150
 7936POPC   GL246022  30.556   0.490   6.150
 7936POPC   C1A46023  30.715   0.432   6.450
 7936POPC   D2A46024  30.669   0.395   6.750
 7936POPC   C3A46025  30.654   0.452   7.050
 7936POPC   C4A46026  30.664   0.465   7.350
 7936POPC   C1B46027  30.441   0.506   6.450
 7936POPC   C2B46028  30.428   0.503   6.750
 7936POPC   C3B46029  30.404   0.455   7.050
 7936POPC   C4B46030  30.462   0.488   7.350
 7937POPC   NC346031  34.578  22.203   5.550
 7937POPC   PO446032  34.573  22.179   5.850
 7937POPC   GL146033  34.585  22.179   6.150
 7937POPC   GL246034  34.572  22.288   6.150
 7937POPC   C1A46035  34.601  22.118   6.450
 7937POPC   D2A46036  34.624  22.185   6.750
 7937POPC   C3A46037  34.572  22.132   7.050
 7937POPC   C4A46038  34.553  22.138   7.350
 7937POPC   C1B46039  34.569  22.385   6.450
 7937POPC   C2B46040  34.570  22.389   6.750
 7937POPC   C3B46041  34.514  22.422   7.050
 7937POPC   C4B46042  34.519  22.401   7.350
 7938POPC   NC346043  28.417  18.257   5.550
 7938POPC   PO446044  28.354  18.245   5.850
 7938POPC   GL146045  28.338  18.235   6.150
 7938POPC   GL246046  28.406  18.188   6.150
 7938POPC   C1A46047  28.380  18.320   6.450
 7938POPC   D2A46048  28.327  18.234   6.750
 7938POPC   C3A46049  28.360  18.274   7.050
 7938POPC   C4A46050  28.383  18.327   7.350
 7938POPC   C1B46051  28.541  18.088   6.450
 7938POPC   C2B46052  28.554  18.036   6.750
 7938POPC   C3B46053  28.506  18.096   7.050
 7938POPC   C4B46054  28.537  18.078   7.350
 7939POPC   NC346055  12.035  35.383   5.550
 7939POPC   PO446056  12.100  35.335   5.850
 7939POPC   GL146057  12.098  35.375   6.150
 7939POPC   GL246058  11.990  35.383   6.150
 7939POPC   C1A46059  12.119  35.354   6.450
 7939POPC   D2A46060  12.081  35.320   6.750
 7939POPC   C3A46061  12.075  35.311   7.050
 7939POPC   C4A46062  12.108  35.372   7.350
 7939POPC   C1B46063  11.814  35.437   6.450
 7939POPC   C2B46064  11.809  35.470   6.750
 7939POPC   C3B46065  11.865  35.436   7.050
 7939POPC   C4B46066  11.834  35.429   7.350
 7940POPC   NC346067   2.018  29.122   5.550
 7940POPC   PO446068   1.994  29.103   5.850
 7940POPC   GL146069   1.964  29.128   6.150
 7940POPC   GL246070   1.893  29.144   6.150
 7940POPC   C1A46071   2.000  29.164   6.450
 7940POPC   D2A46072   1.957  29.100   6.750
 7940POPC   C3A46073   1.974  29.172   7.050
 7940POPC   C4A46074   1.956  29.143   7.350
 7940POPC   C1B46075   1.706  29.188   6.450
 7940POPC   C2B46076   1.724  29.177   6.750
 7940POPC   C3B46077   1.782  29.119   7.050
 7940POPC   C4B46078   1.780  29.115   7.350
 7941POPC   NC346079  19.837  12.867   5.550
 7941POPC   PO446080  19.821  12.855   5.850
 7941POPC   GL146081  19.795  12.876   6.150
 7941POPC   GL246082  19.974  12.865   6.150
 7941POPC   C1A46083  19.827  12.808   6.450
 7941POPC   D2A46084  19.879  12.812   6.750
 7941POPC   C3A46085  19.867  12.887   7.050
 7941POPC   C4A46086  19.811  12.817   7.350
 7941POPC   C1B46087  20.068  12.790   6.450
 7941POPC   C2B46088  20.064  12.825   6.750
 7941POPC   C3B46089  20.035  12.809   7.050
 7941POPC   C4B46090  20.065  12.811   7.350
 7942POPC   NC346091   8.176  26.778   5.550
 7942POPC   PO446092   8.167  26.838   5.850
 7942POPC   GL146093   8.170  26.773   6.150
 7942POPC   GL246094   8.128  26.802   6.150
 7942POPC   C1A46095   8.214  26.853   6.450
 7942POPC   D2A46096   8.214  26.831   6.750
 7942POPC   C3A46097   8.227  26.803   7.050
 7942POPC   C4A46098   8.234  26.832   7.350
 7942POPC   C1B46099   7.936  26.734   6.450
 7942POPC   C2B46100   7.964  26.760   6.750
 7942POPC   C3B46101   7.983  26.735   7.050
 7942POPC   C4B46102   7.983  26.734   7.350
 7943POPC   NC346103  23.723  44.650   5.550
 7943POPC   PO446104  23.754  44.651   5.850
 7943POPC   GL146105  23.699  44.634   6.150
 7943POPC   GL246106  23.638  44.753   6.150
 7943POPC   C1A46107  23.712  44.685   6.450
 7943POPC   D2A46108  23.665  44.700   6.750
 7943POPC   C3A46109  23.760  44.643   7.050
 7943POPC   C4A46110  23.745  44.670   7.350
 7943POPC   C1B46111  23.525  44.819   6.450
 7943POPC   C2B46112  23.501  44.825   6.750
 7943POPC   C3B46113  23.576  44.820   7.050
 7943POPC   C4B46114  23.497  44.871   7.350
 7944POPC   NC346115  11.341  18.275   5.550
 7944POPC   PO446116  11.259  18.278   5.850
 7944POPC   GL146117  11.326  18.242   6.150
 7944POPC   GL246118  11.176  18.295   6.150
 7944POPC   C1A46119  11.310  18.243   6.450
 7944POPC   D2A46120  11.344  18.267   6.750
 7944POPC   C3A46121  11.340  18.263   7.050
 7944POPC   C4A46122  11.280  18.311   7.350
 7944POPC   C1B46123  11.102  18.171   6.450
 7944POPC   C2B46124  11.049  18.183   6.750
 7944POPC   C3B46125  11.100  18.190   7.050
 7944POPC   C4B46126  11.054  18.164   7.350
 7945POPC   NC346127  41.581   6.619   5.550
 7945POPC   PO446128  41.595   6.625   5.850
 7945POPC   GL146129  41.583   6.694   6.150
 7945POPC   GL246130  41.399   6.699   6.150
 7945POPC   C1A46131  41.517   6.634   6.450
 7945POPC   D2A46132  41.608   6.633   6.750
 7945POPC   C3A46133  41.598   6.634   7.050
 7945POPC   C4A46134  41.540   6.673   7.350
 7945POPC   C1B46135  41.296   6.729   6.450
 7945POPC   C2B46136  41.313   6.663   6.750
 7945POPC   C3B46137  41.314   6.680   7.050
 7945POPC   C4B46138  41.337   6.642   7.350
 7946POPC   NC346139  31.507  21.419   5.550
 7946POPC   PO446140  31.471  21.408   5.850
 7946POPC   GL146141  31.477  21.404   6.150
 7946POPC   GL246142  31.325  21.425   6.150
 7946POPC   C1A46143  31.425  21.411   6.450
 7946POPC   D2A46144  31.432  21.420   6.750
 7946POPC   C3A46145  31.455  21.361   7.050
 7946POPC   C4A46146  31.430  21.407   7.350
 7946POPC   C1B46147  31.243  21.355   6.450
 7946POPC   C2B46148  31.255  21.388   6.750
 7946POPC   C3B46149  31.238  21.424   7.050
 7946POPC   C4B46150  31.246  21.376   7.350
 7947POPC   NC346151  31.450  36.910   5.550
 7947POPC   PO446152  31.449  36.899   5.850
 7947POPC   GL146153  31.438  36.893   6.150
 7947POPC   GL246154  31.396  36.875   6.150
 7947POPC   C1A46155  31.466  36.943   6.450
 7947POPC   D2A46156  31.437  36.950   6.750
 7947POPC   C3A46157  31.503  36.895   7.050
 7947POPC   C4A46158  31.482  36.868   7.350
 7947POPC   C1B46159  31.196  36.874   6.450
 7947POPC   C2B46160  31.262  36.887   6.750
 7947POPC   C3B46161  31.239  36.895   7.050
 7947POPC   C4B46162  31.211  36.878   7.350
 7948POPC   NC346163  27.637  29.173   5.550
 7948POPC   PO446164  27.548  29.096   5.850
 7948POPC   GL146165  27.612  29.116   6.150
 7948POPC   GL246166  27.567  29.301   6.150
 7948POPC   C1A46167  27.629  29.160   6.450
 7948POPC   D2A46168  27.614  29.109   6.750
 7948POPC   C3A46169  27.621  29.109   7.050
 7948POPC   C4A46170  27.556  29.101   7.350
 7948POPC   C1B46171  27.555  29.428   6.450
 7948POPC   C2B46172  27.602  29.404   6.750
 7948POPC   C3B46173  27.546  29.369   7.050
 7948POPC   C4B46174  27.556  29.396   7.350
 7949POPC   NC346175  23.718  39.999   5.550
 7949POPC   PO446176  23.729  39.977   5.850
 7949POPC   GL146177  23.702  40.040   6.150
 7949POPC   GL246178  23.877  40.005   6.150
 7949POPC   C1A46179  23.710  40.001   6.450
 7949POPC   D2A46180  23.712  39.993   6.750
 7949POPC   C3A46181  23.719  40.056   7.050
 7949POPC   C4A46182  23.722  40.053   7.350
 7949POPC   C1B46183  23.942  40.091   6.450
 7949POPC   C2B46184  23.981  40.133   6.750
 7949POPC   C3B46185  23.957  40.122   7.050
 7949POPC   C4B46186  23.966  40.060   7.350
 7950POPC   NC346187  16.684  38.470   5.550
 7950POPC   PO446188  16.687  38.433   5.850
 7950POPC   GL146189  16.766  38.406   6.150
 7950POPC   GL246190  16.844  38.392   6.150
 7950POPC   C1A46191  16.768  38.463   6.450
 7950POPC   D2A46192  16.696  38.410   6.750
 7950POPC   C3A46193  16.761  38.420   7.050
 7950POPC   C4A46194  16.765  38.478   7.350
 7950POPC   C1B46195  16.908  38.308   6.450
 7950POPC   C2B46196  16.844  38.253   6.750
 7950POPC   C3B46197  16.843  38.268   7.050
 7950POPC   C4B46198  16.859  38.242   7.350
 7951POPC   NC346199  26.050  29.173   5.550
 7951POPC   PO446200  26.056  29.170   5.850
 7951POPC   GL146201  26.008  29.125   6.150
 7951POPC   GL246202  26.080  29.075   6.150
 7951POPC   C1A46203  26.001  29.132   6.450
 7951POPC   D2A46204  25.997  29.127   6.750
 7951POPC   C3A46205  26.011  29.126   7.050
 7951POPC   C4A46206  26.077  29.166   7.350
 7951POPC   C1B46207  26.216  28.929   6.450
 7951POPC   C2B46208  26.209  28.899   6.750
 7951POPC   C3B46209  26.210  28.900   7.050
 7951POPC   C4B46210  26.148  28.895   7.350
 7952POPC   NC346211  41.550  21.388   5.550
 7952POPC   PO446212  41.586  21.355   5.850
 7952POPC   GL146213  41.584  21.408   6.150
 7952POPC   GL246214  41.449  21.324   6.150
 7952POPC   C1A46215  41.545  21.388   6.450
 7952POPC   D2A46216  41.597  21.409   6.750
 7952POPC   C3A46217  41.583  21.400   7.050
 7952POPC   C4A46218  41.518  21.351   7.350
 7952POPC   C1B46219  41.427  21.232   6.450
 7952POPC   C2B46220  41.358  21.216   6.750
 7952POPC   C3B46221  41.413  21.250   7.050
 7952POPC   C4B46222  41.367  21.211   7.350
 7953POPC   NC346223  12.095   7.414   5.550
 7953POPC   PO446224  12.066   7.375   5.850
 7953POPC   GL146225  12.108   7.398   6.150
 7953POPC   GL246226  11.919   7.368   6.150
 7953POPC   C1A46227  12.032   7.406   6.450
 7953POPC   D2A46228  12.094   7.414   6.750
 7953POPC   C3A46229  12.103   7.422   7.050
 7953POPC   C4A46230  12.108   7.386   7.350
 7953POPC   C1B46231  11.813   7.391   6.450
 7953POPC   C2B46232  11.849   7.427   6.750
 7953POPC   C3B46233  11.866   7.357   7.050
 7953POPC   C4B46234  11.821   7.394   7.350
 7954POPC   NC346235   1.223  12.833   5.550
 7954POPC   PO446236   1.247  12.878   5.850
 7954POPC   GL146237   1.195  12.840   6.150
 7954POPC   GL246238   1.216  12.988   6.150
 7954POPC   C1A46239   1.247  12.823   6.450
 7954POPC   D2A46240   1.225  12.889   6.750
 7954POPC   C3A46241   1.258  12.871   7.050
 7954POPC   C4A46242   1.215  12.860   7.350
 7954POPC   C1B46243   1.189  13.124   6.450
 7954POPC   C2B46244   1.209  13.052   6.750
 7954POPC   C3B46245   1.169  13.060   7.050
 7954POPC   C4B46246   1.245  13.073   7.350
 7955POPC   NC346247  12.113  23.727   5.550
 7955POPC   PO446248  12.062  23.710   5.850
 7955POPC   GL146249  12.100  23.751   6.150
 7955POPC   GL246250  11.984  23.744   6.150
 7955POPC   C1A46251  12.035  23.717   6.450
 7955POPC   D2A46252  12.036  23.744   6.750
 7955POPC   C3A46253  12.058  23.674   7.050
 7955POPC   C4A46254  12.114  23.745   7.350
 7955POPC   C1B46255  11.821  23.733   6.450
 7955POPC   C2B46256  11.798  23.692   6.750
 7955POPC   C3B46257  11.813  23.645   7.050
 7955POPC   C4B46258  11.848  23.656   7.350
 7956POPC   NC346259  43.098  39.236   5.550
 7956POPC   PO446260  43.102  39.219   5.850
 7956POPC   GL146261  43.085  39.257   6.150
 7956POPC   GL246262  43.170  39.321   6.150
 7956POPC   C1A46263  43.080  39.203   6.450
 7956POPC   D2A46264  43.077  39.241   6.750
 7956POPC   C3A46265  43.123  39.222   7.050
 7956POPC   C4A46266  43.151  39.242   7.350
 7956POPC   C1B46267  43.299  39.400   6.450
 7956POPC   C2B46268  43.304  39.393   6.750
 7956POPC   C3B46269  43.289  39.364   7.050
 7956POPC   C4B46270  43.366  39.404   7.350
 7957POPC   NC346271  40.784   8.942   5.550
 7957POPC   PO446272  40.821   8.949   5.850
 7957POPC   GL146273  40.741   8.936   6.150
 7957POPC   GL246274  40.736   9.140   6.150
 7957POPC   C1A46275  40.741   9.020   6.450
 7957POPC   D2A46276  40.762   9.011   6.750
 7957POPC   C3A46277  40.747   8.936   7.050
 7957POPC   C4A46278  40.803   9.021   7.350
 7957POPC   C1B46279  40.814   9.195   6.450
 7957POPC   C2B46280  40.773   9.225   6.750
 7957POPC   C3B46281  40.781   9.196   7.050
 7957POPC   C4B46282  40.757   9.241   7.350
 7958POPC   NC346283   7.398  15.980   5.550
 7958POPC   PO446284   7.382  15.913   5.850
 7958POPC   GL146285   7.420  15.968   6.150
 7958POPC   GL246286   7.515  16.028   6.150
 7958POPC   C1A46287   7.388  16.005   6.450
 7958POPC   D2A46288   7.410  15.980   6.750
 7958POPC   C3A46289   7.470  15.933   7.050
 7958POPC   C4A46290   7.439  15.934   7.350
 7958POPC   C1B46291   7.588  16.103   6.450
 7958POPC   C2B46292   7.589  16.133   6.750
 7958POPC   C3B46293   7.640  16.170   7.050
 7958POPC   C4B46294   7.571  16.105   7.350
 7959POPC   NC346295  15.176  36.143   5.550
 7959POPC   PO446296  15.188  36.149   5.850
 7959POPC   GL146297  15.201  36.120   6.150
 7959POPC   GL246298  15.313  36.173   6.150
 7959POPC   C1A46299  15.219  36.170   6.450
 7959POPC   D2A46300  15.175  36.119   6.750
 7959POPC   C3A46301  15.210  36.154   7.050
 7959POPC   C4A46302  15.201  36.125   7.350
 7959POPC   C1B46303  15.476  36.145   6.450
 7959POPC   C2B46304  15.427  36.108   6.750
 7959POPC   C3B46305  15.462  36.165   7.050
 7959POPC   C4B46306  15.428  36.172   7.350
 7960POPC   NC346307  22.172  43.080   5.550
 7960POPC   PO446308  22.176  43.150   5.850
 7960POPC   GL146309  22.117  43.100   6.150
 7960POPC   GL246310  22.011  43.115   6.150
 7960POPC   C1A46311  22.128  43.098   6.450
 7960POPC   D2A46312  22.168  43.064   6.750
 7960POPC   C3A46313  22.206  43.090   7.050
 7960POPC   C4A46314  22.201  43.078   7.350
 7960POPC   C1B46315  21.895  43.216   6.450
 7960POPC   C2B46316  21.952  43.160   6.750
 7960POPC   C3B46317  21.941  43.125   7.050
 7960POPC   C4B46318  21.954  43.124   7.350
 7961POPC   NC346319  25.262  39.249   5.550
 7961POPC   PO446320  25.306  39.243   5.850
 7961POPC   GL146321  25.271  39.201   6.150
 7961POPC   GL246322  25.354  39.158   6.150
 7961POPC   C1A46323  25.217  39.246   6.450
 7961POPC   D2A46324  25.268  39.221   6.750
 7961POPC   C3A46325  25.293  39.243   7.050
 7961POPC   C4A46326  25.269  39.221   7.350
 7961POPC   C1B46327  25.474  39.108   6.450
 7961POPC   C2B46328  25.447  39.072   6.750
 7961POPC   C3B46329  25.480  39.096   7.050
 7961POPC   C4B46330  25.441  39.086   7.350
 7962POPC   NC346331  22.980  32.289   5.550
 7962POPC   PO446332  22.892  32.229   5.850
 7962POPC   GL146333  22.975  32.247   6.150
 7962POPC   GL246334  23.063  32.347   6.150
 7962POPC   C1A46335  22.968  32.257   6.450
 7962POPC   D2A46336  22.910  32.284   6.750
 7962POPC   C3A46337  22.925  32.291   7.050
 7962POPC   C4A46338  22.982  32.296   7.350
 7962POPC   C1B46339  23.129  32.367   6.450
 7962POPC   C2B46340  23.154  32.353   6.750
 7962POPC   C3B46341  23.129  32.354   7.050
 7962POPC   C4B46342  23.164  32.381   7.350
 7963POPC   NC346343  18.329  33.067   5.550
 7963POPC   PO446344  18.284  33.059   5.850
 7963POPC   GL146345  18.245  32.999   6.150
 7963POPC   GL246346  18.164  32.913   6.150
 7963POPC   C1A46347  18.293  32.988   6.450
 7963POPC   D2A46348  18.242  33.064   6.750
 7963POPC   C3A46349  18.233  33.019   7.050
 7963POPC   C4A46350  18.249  33.027   7.350
 7963POPC   C1B46351  18.093  32.853   6.450
 7963POPC   C2B46352  18.033  32.893   6.750
 7963POPC   C3B46353  18.051  32.877   7.050
 7963POPC   C4B46354  18.030  32.871   7.350
 7964POPC   NC346355  41.574  40.004   5.550
 7964POPC   PO446356  41.589  40.020   5.850
 7964POPC   GL146357  41.526  39.991   6.150
 7964POPC   GL246358  41.642  40.085   6.150
 7964POPC   C1A46359  41.572  39.961   6.450
 7964POPC   D2A46360  41.574  40.047   6.750
 7964POPC   C3A46361  41.594  39.982   7.050
 7964POPC   C4A46362  41.578  40.015   7.350
 7964POPC   C1B46363  41.773  40.176   6.450
 7964POPC   C2B46364  41.752  40.190   6.750
 7964POPC   C3B46365  41.717  40.155   7.050
 7964POPC   C4B46366  41.801  40.127   7.350
 7965POPC   NC346367   4.290  27.585   5.550
 7965POPC   PO446368   4.300  27.592   5.850
 7965POPC   GL146369   4.300  27.568   6.150
 7965POPC   GL246370   4.448  27.620   6.150
 7965POPC   C1A46371   4.336  27.610   6.450
 7965POPC   D2A46372   4.360  27.608   6.750
 7965POPC   C3A46373   4.310  27.601   7.050
 7965POPC   C4A46374   4.348  27.578   7.350
 7965POPC   C1B46375   4.542  27.610   6.450
 7965POPC   C2B46376   4.542  27.599   6.750
 7965POPC   C3B46377   4.541  27.658   7.050
 7965POPC   C4B46378   4.564  27.576   7.350
 7966POPC   NC346379   6.635  31.489   5.550
 7966POPC   PO446380   6.630  31.483   5.850
 7966POPC   GL146381   6.616  31.482   6.150
 7966POPC   GL246382   6.580  31.440   6.150
 7966POPC   C1A46383   6.616  31.522   6.450
 7966POPC   D2A46384   6.693  31.472   6.750
 7966POPC   C3A46385   6.678  31.485   7.050
 7966POPC   C4A46386   6.600  31.507   7.350
 7966POPC   C1B46387   6.409  31.315   6.450
 7966POPC   C2B46388   6.487  31.350   6.750
 7966POPC   C3B46389   6.434  31.296   7.050
 7966POPC   C4B46390   6.472  31.363   7.350
 7967POPC   NC346391   0.476  25.289   5.550
 7967POPC   PO446392   0.452  25.295   5.850
 7967POPC   GL146393   0.414  25.273   6.150
 7967POPC   GL246394   0.363  25.333   6.150
 7967POPC   C1A46395   0.469  25.244   6.450
 7967POPC   D2A46396   0.441  25.273   6.750
 7967POPC   C3A46397   0.398  25.299   7.050
 7967POPC   C4A46398   0.449  25.256   7.350
 7967POPC   C1B46399   0.338  25.452   6.450
 7967POPC   C2B46400   0.300  25.459   6.750
 7967POPC   C3B46401   0.317  25.489   7.050
 7967POPC   C4B46402   0.305  25.484   7.350
 7968POPC   NC346403   2.755   1.945   5.550
 7968POPC   PO446404   2.815   1.944   5.850
 7968POPC   GL146405   2.765   1.960   6.150
 7968POPC   GL246406   2.911   1.997   6.150
 7968POPC   C1A46407   2.730   1.990   6.450
 7968POPC   D2A46408   2.725   2.039   6.750
 7968POPC   C3A46409   2.762   2.016   7.050
 7968POPC   C4A46410   2.720   2.021   7.350
 7968POPC   C1B46411   3.015   2.006   6.450
 7968POPC   C2B46412   3.029   1.988   6.750
 7968POPC   C3B46413   3.012   1.997   7.050
 7968POPC   C4B46414   2.967   1.960   7.350
 7969POPC   NC346415  17.496   3.537   5.550
 7969POPC   PO446416  17.477   3.511   5.850
 7969POPC   GL146417  17.550   3.581   6.150
 7969POPC   GL246418  17.476   3.630   6.150
 7969POPC   C1A46419  17.524   3.545   6.450
 7969POPC   D2A46420  17.553   3.553   6.750
 7969POPC   C3A46421  17.517   3.541   7.050
 7969POPC   C4A46422  17.548   3.585   7.350
 7969POPC   C1B46423  17.480   3.762   6.450
 7969POPC   C2B46424  17.480   3.820   6.750
 7969POPC   C3B46425  17.436   3.760   7.050
 7969POPC   C4B46426  17.511   3.757   7.350
 7970POPC   NC346427   1.193  39.184   5.550
 7970POPC   PO446428   1.255  39.193   5.850
 7970POPC   GL146429   1.187  39.269   6.150
 7970POPC   GL246430   1.274  39.323   6.150
 7970POPC   C1A46431   1.196  39.234   6.450
 7970POPC   D2A46432   1.258  39.281   6.750
 7970POPC   C3A46433   1.227  39.194   7.050
 7970POPC   C4A46434   1.222  39.186   7.350
 7970POPC   C1B46435   1.234  39.467   6.450
 7970POPC   C2B46436   1.239  39.445   6.750
 7970POPC   C3B46437   1.278  39.505   7.050
 7970POPC   C4B46438   1.191  39.524   7.350
 7971POPC   NC346439   0.479  24.507   5.550
 7971POPC   PO446440   0.477  24.511   5.850
 7971POPC   GL146441   0.440  24.475   6.150
 7971POPC   GL246442   0.397  24.348   6.150
 7971POPC   C1A46443   0.442  24.487   6.450
 7971POPC   D2A46444   0.461  24.486   6.750
 7971POPC   C3A46445   0.452  24.516   7.050
 7971POPC   C4A46446   0.474  24.493   7.350
 7971POPC   C1B46447   0.252  24.291   6.450
 7971POPC   C2B46448   0.249  24.313   6.750
 7971POPC   C3B46449   0.276  24.301   7.050
 7971POPC   C4B46450   0.260  24.288   7.350
 7972POPC   NC346451   5.092  42.305   5.550
 7972POPC   PO446452   5.141  42.384   5.850
 7972POPC   GL146453   5.046  42.297   6.150
 7972POPC   GL246454   5.121  42.243   6.150
 7972POPC   C1A46455   5.118  42.290   6.450
 7972POPC   D2A46456   5.107  42.383   6.750
 7972POPC   C3A46457   5.063  42.296   7.050
 7972POPC   C4A46458   5.139  42.383   7.350
 7972POPC   C1B46459   5.256  42.117   6.450
 7972POPC   C2B46460   5.264  42.161   6.750
 7972POPC   C3B46461   5.272  42.105   7.050
 7972POPC   C4B46462   5.245  42.115   7.350
 7973POPC   NC346463  13.581  31.431   5.550
 7973POPC   PO446464  13.646  31.517   5.850
 7973POPC   GL146465  13.614  31.424   6.150
 7973POPC   GL246466  13.662  31.641   6.150
 7973POPC   C1A46467  13.644  31.471   6.450
 7973POPC   D2A46468  13.622  31.461   6.750
 7973POPC   C3A46469  13.643  31.473   7.050
 7973POPC   C4A46470  13.660  31.425   7.350
 7973POPC   C1B46471  13.660  31.687   6.450
 7973POPC   C2B46472  13.617  31.699   6.750
 7973POPC   C3B46473  13.639  31.765   7.050
 7973POPC   C4B46474  13.678  31.752   7.350
 7974POPC   NC346475  36.861  13.646   5.550
 7974POPC   PO446476  36.909  13.581   5.850
 7974POPC   GL146477  36.904  13.597   6.150
 7974POPC   GL246478  36.911  13.460   6.150
 7974POPC   C1A46479  36.854  13.641   6.450
 7974POPC   D2A46480  36.874  13.660   6.750
 7974POPC   C3A46481  36.921  13.640   7.050
 7974POPC   C4A46482  36.914  13.659   7.350
 7974POPC   C1B46483  36.945  13.396   6.450
 7974POPC   C2B46484  36.899  13.414   6.750
 7974POPC   C3B46485  36.911  13.342   7.050
 7974POPC   C4B46486  36.982  13.415   7.350
 7975POPC   NC346487   0.422  19.828   5.550
 7975POPC   PO446488   0.454  19.812   5.850
 7975POPC   GL146489   0.459  19.848   6.150
 7975POPC   GL246490   0.314  19.695   6.150
 7975POPC   C1A46491   0.419  19.813   6.450
 7975POPC   D2A46492   0.483  19.854   6.750
 7975POPC   C3A46493   0.440  19.866   7.050
 7975POPC   C4A46494   0.473  19.834   7.350
 7975POPC   C1B46495   0.296  19.679   6.450
 7975POPC   C2B46496   0.263  19.634   6.750
 7975POPC   C3B46497   0.290  19.697   7.050
 7975POPC   C4B46498   0.307  19.686   7.350
 7976POPC   NC346499   1.244   5.906   5.550
 7976POPC   PO446500   1.252   5.843   5.850
 7976POPC   GL146501   1.192   5.912   6.150
 7976POPC   GL246502   1.127   5.970   6.150
 7976POPC   C1A46503   1.240   5.871   6.450
 7976POPC   D2A46504   1.258   5.835   6.750
 7976POPC   C3A46505   1.228   5.884   7.050
 7976POPC   C4A46506   1.262   5.831   7.350
 7976POPC   C1B46507   0.976   6.030   6.450
 7976POPC   C2B46508   0.997   6.001   6.750
 7976POPC   C3B46509   1.030   5.982   7.050
 7976POPC   C4B46510   1.018   6.043   7.350
 7977POPC   NC346511   0.430  11.253   5.550
 7977POPC   PO446512   0.463  11.297   5.850
 7977POPC   GL146513   0.468  11.292   6.150
 7977POPC   GL246514   0.298  11.312   6.150
 7977POPC   C1A46515   0.412  11.256   6.450
 7977POPC   D2A46516   0.457  11.320   6.750
 7977POPC   C3A46517   0.429  11.328   7.050
 7977POPC   C4A46518   0.479  11.314   7.350
 7977POPC   C1B46519   0.213  11.319   6.450
 7977POPC   C2B46520   0.215  11.339   6.750
 7977POPC   C3B46521   0.215  11.333   7.050
 7977POPC   C4B46522   0.165  11.400   7.350
 7978POPC   NC346523  35.325  42.351   5.550
 7978POPC   PO446524  35.316  42.295   5.850
 7978POPC   GL146525  35.327  42.296   6.150
 7978POPC   GL246526  35.307  42.485   6.150
 7978POPC   C1A46527  35.318  42.350   6.450
 7978POPC   D2A46528  35.372  42.361   6.750
 7978POPC   C3A46529  35.372  42.292   7.050
 7978POPC   C4A46530  35.379  42.326   7.350
 7978POPC   C1B46531  35.196  42.568   6.450
 7978POPC   C2B46532  35.182  42.532   6.750
 7978POPC   C3B46533  35.245  42.516   7.050
 7978POPC   C4B46534  35.158  42.583   7.350
 7979POPC   NC346535  19.019   4.335   5.550
 7979POPC   PO446536  19.097   4.300   5.850
 7979POPC   GL146537  19.045   4.315   6.150
 7979POPC   GL246538  19.099   4.451   6.150
 7979POPC   C1A46539  19.031   4.348   6.450
 7979POPC   D2A46540  19.047   4.353   6.750
 7979POPC   C3A46541  19.077   4.300   7.050
 7979POPC   C4A46542  19.029   4.365   7.350
 7979POPC   C1B46543  19.236   4.564   6.450
 7979POPC   C2B46544  19.153   4.502   6.750
 7979POPC   C3B46545  19.195   4.526   7.050
 7979POPC   C4B46546  19.242   4.536   7.350
 7980POPC   NC346547  21.406  26.045   5.550
 7980POPC   PO446548  21.365  26.006   5.850
 7980POPC   GL146549  21.381  26.064   6.150
 7980POPC   GL246550  21.221  26.096   6.150
 7980POPC   C1A46551  21.352  26.000   6.450
 7980POPC   D2A46552  21.389  26.011   6.750
 7980POPC   C3A46553  21.352  26.041   7.050
 7980POPC   C4A46554  21.349  25.994   7.350
 7980POPC   C1B46555  21.143  26.076   6.450
 7980POPC   C2B46556  21.106  26.128   6.750
 7980POPC   C3B46557  21.145  26.117   7.050
 7980POPC   C4B46558  21.155  26.145   7.350
 7981POPC   NC346559  22.143  24.465   5.550
 7981POPC   PO446560  22.165  24.482   5.850
 7981POPC   GL146561  22.150  24.460   6.150
 7981POPC   GL246562  22.026  24.418   6.150
 7981POPC   C1A46563  22.134  24.460   6.450
 7981POPC   D2A46564  22.122  24.490   6.750
 7981POPC   C3A46565  22.173  24.476   7.050
 7981POPC   C4A46566  22.133  24.527   7.350
 7981POPC   C1B46567  21.998  24.362   6.450
 7981POPC   C2B46568  21.918  24.331   6.750
 7981POPC   C3B46569  21.962  24.382   7.050
 7981POPC   C4B46570  21.913  24.394   7.350
 7982POPC   NC346571  26.853   8.224   5.550
 7982POPC   PO446572  26.845   8.150   5.850
 7982POPC   GL146573  26.781   8.215   6.150
 7982POPC   GL246574  26.659   8.140   6.150
 7982POPC   C1A46575  26.782   8.234   6.450
 7982POPC   D2A46576  26.812   8.174   6.750
 7982POPC   C3A46577  26.852   8.230   7.050
 7982POPC   C4A46578  26.826   8.178   7.350
 7982POPC   C1B46579  26.638   8.114   6.450
 7982POPC   C2B46580  26.549   8.096   6.750
 7982POPC   C3B46581  26.585   8.098   7.050
 7982POPC   C4B46582  26.558   8.090   7.350
 7983POPC   NC346583   5.905  21.338   5.550
 7983POPC   PO446584   5.845  21.352   5.850
 7983POPC   GL146585   5.865  21.430   6.150
 7983POPC   GL246586   5.936  21.277   6.150
 7983POPC   C1A46587   5.902  21.364   6.450
 7983POPC   D2A46588   5.917  21.351   6.750
 7983POPC   C3A46589   5.883  21.427   7.050
 7983POPC   C4A46590   5.894  21.381   7.350
 7983POPC   C1B46591   6.089  21.189   6.450
 7983POPC   C2B46592   6.069  21.185   6.750
 7983POPC   C3B46593   6.073  21.238   7.050
 7983POPC   C4B46594   6.089  21.223   7.350
 7984POPC   NC346595   9.014  39.189   5.550
 7984POPC   PO446596   9.016  39.280   5.850
 7984POPC   GL146597   8.928  39.196   6.150
 7984POPC   GL246598   8.840  39.254   6.150
 7984POPC   C1A46599   9.018  39.259   6.450
 7984POPC   D2A46600   8.938  39.269   6.750
 7984POPC   C3A46601   8.982  39.222   7.050
 7984POPC   C4A46602   8.948  39.219   7.350
 7984POPC   C1B46603   8.711  39.267   6.450
 7984POPC   C2B46604   8.723  39.191   6.750
 7984POPC   C3B46605   8.749  39.195   7.050
 7984POPC   C4B46606   8.710  39.224   7.350
 7985POPC   NC346607   5.124  38.504   5.550
 7985POPC   PO446608   5.043  38.503   5.850
 7985POPC   GL146609   5.049  38.502   6.150
 7985POPC   GL246610   5.142  38.319   6.150
 7985POPC   C1A46611   5.099  38.493   6.450
 7985POPC   D2A46612   5.120  38.489   6.750
 7985POPC   C3A46613   5.066  38.467   7.050
 7985POPC   C4A46614   5.045  38.494   7.350
 7985POPC   C1B46615   5.150  38.192   6.450
 7985POPC   C2B46616   5.137  38.223   6.750
 7985POPC   C3B46617   5.053  38.184   7.050
 7985POPC   C4B46618   5.099  38.180   7.350
 7986POPC   NC346619  24.452  29.940   5.550
 7986POPC   PO446620  24.532  29.941   5.850
 7986POPC   GL146621  24.479  29.929   6.150
 7986POPC   GL246622  24.615  29.981   6.150
 7986POPC   C1A46623  24.473  29.935   6.450
 7986POPC   D2A46624  24.492  29.947   6.750
 7986POPC   C3A46625  24.447  29.892   7.050
 7986POPC   C4A46626  24.464  29.919   7.350
 7986POPC   C1B46627  24.631  30.114   6.450
 7986POPC   C2B46628  24.683  30.113   6.750
 7986POPC   C3B46629  24.610  30.129   7.050
 7986POPC   C4B46630  24.615  30.108   7.350
 7987POPC   NC346631  17.493  44.668   5.550
 7987POPC   PO446632  17.483  44.618   5.850
 7987POPC   GL146633  17.547  44.698   6.150
 7987POPC   GL246634  17.511  44.564   6.150
 7987POPC   C1A46635  17.481  44.697   6.450
 7987POPC   D2A46636  17.490  44.687   6.750
 7987POPC   C3A46637  17.457  44.678   7.050
 7987POPC   C4A46638  17.487  44.650   7.350
 7987POPC   C1B46639  17.526  44.424   6.450
 7987POPC   C2B46640  17.481  44.440   6.750
 7987POPC   C3B46641  17.567  44.416   7.050
 7987POPC   C4B46642  17.530  44.408   7.350
 7988POPC   NC346643  33.768   6.625   5.550
 7988POPC   PO446644  33.840   6.650   5.850
 7988POPC   GL146645  33.848   6.618   6.150
 7988POPC   GL246646  33.756   6.547   6.150
 7988POPC   C1A46647  33.823   6.640   6.450
 7988POPC   D2A46648  33.784   6.675   6.750
 7988POPC   C3A46649  33.837   6.676   7.050
 7988POPC   C4A46650  33.841   6.615   7.350
 7988POPC   C1B46651  33.656   6.442   6.450
 7988POPC   C2B46652  33.716   6.422   6.750
 7988POPC   C3B46653  33.738   6.431   7.050
 7988POPC   C4B46654  33.677   6.414   7.350
 7989POPC   NC346655  33.023  38.473   5.550
 7989POPC   PO446656  33.011  38.505   5.850
 7989POPC   GL146657  32.981  38.494   6.150
 7989POPC   GL246658  32.860  38.425   6.150
 7989POPC   C1A46659  33.053  38.432   6.450
 7989POPC   D2A46660  33.010  38.487   6.750
 7989POPC   C3A46661  32.994  38.406   7.050
 7989POPC   C4A46662  33.020  38.429   7.350
 7989POPC   C1B46663  32.746  38.447   6.450
 7989POPC   C2B46664  32.823  38.427   6.750
 7989POPC   C3B46665  32.814  38.457   7.050
 7989POPC   C4B46666  32.754  38.452   7.350
 7990POPC   NC346667  32.221  44.650   5.550
 7990POPC   PO446668  32.268  44.624   5.850
 7990POPC   GL146669  32.288  44.660   6.150
 7990POPC   GL246670  32.395  44.760   6.150
 7990POPC   C1A46671  32.260  44.621   6.450
 7990POPC   D2A46672  32.276  44.673   6.750
 7990POPC   C3A46673  32.234  44.666   7.050
 7990POPC   C4A46674  32.237  44.702   7.350
 7990POPC   C1B46675  32.496  44.780   6.450
 7990POPC   C2B46676  32.441  44.798   6.750
 7990POPC   C3B46677  32.470  44.759   7.050
 7990POPC   C4B46678  32.462  44.766   7.350
 7991POPC   NC346679  25.299   6.620   5.550
 7991POPC   PO446680  25.228   6.668   5.850
 7991POPC   GL146681  25.257   6.599   6.150
 7991POPC   GL246682  25.332   6.589   6.150
 7991POPC   C1A46683  25.277   6.600   6.450
 7991POPC   D2A46684  25.277   6.634   6.750
 7991POPC   C3A46685  25.313   6.694   7.050
 7991POPC   C4A46686  25.265   6.636   7.350
 7991POPC   C1B46687  25.492   6.442   6.450
 7991POPC   C2B46688  25.418   6.431   6.750
 7991POPC   C3B46689  25.408   6.477   7.050
 7991POPC   C4B46690  25.407   6.456   7.350
 7992POPC   NC346691  29.934  37.686   5.550
 7992POPC   PO446692  29.957  37.723   5.850
 7992POPC   GL146693  29.940  37.719   6.150
 7992POPC   GL246694  29.803  37.708   6.150
 7992POPC   C1A46695  29.958  37.712   6.450
 7992POPC   D2A46696  29.968  37.662   6.750
 7992POPC   C3A46697  29.880  37.662   7.050
 7992POPC   C4A46698  29.873  37.716   7.350
 7992POPC   C1B46699  29.686  37.755   6.450
 7992POPC   C2B46700  29.712  37.811   6.750
 7992POPC   C3B46701  29.742  37.819   7.050
 7992POPC   C4B46702  29.665  37.826   7.350
 7993POPC   NC346703  27.560  17.518   5.550
 7993POPC   PO446704  27.587  17.499   5.850
 7993POPC   GL146705  27.620  17.466   6.150
 7993POPC   GL246706  27.716  17.475   6.150
 7993POPC   C1A46707  27.589  17.481   6.450
 7993POPC   D2A46708  27.599  17.487   6.750
 7993POPC   C3A46709  27.632  17.531   7.050
 7993POPC   C4A46710  27.617  17.540   7.350
 7993POPC   C1B46711  27.801  17.443   6.450
 7993POPC   C2B46712  27.795  17.456   6.750
 7993POPC   C3B46713  27.826  17.449   7.050
 7993POPC   C4B46714  27.862  17.513   7.350
 7994POPC   NC346715  41.554  18.268   5.550
 7994POPC   PO446716  41.549  18.318   5.850
 7994POPC   GL146717  41.524  18.250   6.150
 7994POPC   GL246718  41.500  18.182   6.150
 7994POPC   C1A46719  41.568  18.293   6.450
 7994POPC   D2A46720  41.527  18.244   6.750
 7994POPC   C3A46721  41.548  18.291   7.050
 7994POPC   C4A46722  41.512  18.286   7.350
 7994POPC   C1B46723  41.494  18.006   6.450
 7994POPC   C2B46724  41.460  18.036   6.750
 7994POPC   C3B46725  41.468  18.006   7.050
 7994POPC   C4B46726  41.433  18.040   7.350
 7995POPC   NC346727   3.506  25.227   5.550
 7995POPC   PO446728   3.552  25.308   5.850
 7995POPC   GL146729   3.571  25.296   6.150
 7995POPC   GL246730   3.588  25.162   6.150
 7995POPC   C1A46731   3.579  25.284   6.450
 7995POPC   D2A46732   3.537  25.298   6.750
 7995POPC   C3A46733   3.571  25.284   7.050
 7995POPC   C4A46734   3.522  25.290   7.350
 7995POPC   C1B46735   3.699  25.123   6.450
 7995POPC   C2B46736   3.724  25.107   6.750
 7995POPC   C3B46737   3.700  25.126   7.050
 7995POPC   C4B46738   3.757  25.073   7.350
 7996POPC   NC346739  20.567  29.906   5.550
 7996POPC   PO446740  20.657  29.885   5.850
 7996POPC   GL146741  20.569  29.892   6.150
 7996POPC   GL246742  20.696  29.909   6.150
 7996POPC   C1A46743  20.573  29.936   6.450
 7996POPC   D2A46744  20.610  29.958   6.750
 7996POPC   C3A46745  20.635  29.932   7.050
 7996POPC   C4A46746  20.615  29.891   7.350
 7996POPC   C1B46747  20.858  29.793   6.450
 7996POPC   C2B46748  20.878  29.794   6.750
 7996POPC   C3B46749  20.856  29.811   7.050
 7996POPC   C4B46750  20.876  29.812   7.350
 7997POPC   NC346751  15.181  14.400   5.550
 7997POPC   PO446752  15.206  14.451   5.850
 7997POPC   GL146753  15.175  14.354   6.150
 7997POPC   GL246754  15.034  14.398   6.150
 7997POPC   C1A46755  15.184  14.355   6.450
 7997POPC   D2A46756  15.162  14.369   6.750
 7997POPC   C3A46757  15.194  14.381   7.050
 7997POPC   C4A46758  15.188  14.413   7.350
 7997POPC   C1B46759  14.950  14.448   6.450
 7997POPC   C2B46760  14.899  14.478   6.750
 7997POPC   C3B46761  14.974  14.462   7.050
 7997POPC   C4B46762  14.927  14.484   7.350
 7998POPC   NC346763  19.096  26.806   5.550
 7998POPC   PO446764  19.023  26.824   5.850
 7998POPC   GL146765  19.073  26.783   6.150
 7998POPC   GL246766  18.932  26.794   6.150
 7998POPC   C1A46767  19.048  26.818   6.450
 7998POPC   D2A46768  19.016  26.803   6.750
 7998POPC   C3A46769  19.020  26.848   7.050
 7998POPC   C4A46770  19.098  26.862   7.350
 7998POPC   C1B46771  18.860  26.783   6.450
 7998POPC   C2B46772  18.834  26.763   6.750
 7998POPC   C3B46773  18.858  26.737   7.050
 7998POPC   C4B46774  18.790  26.773   7.350
 7999POPC   NC346775  14.409  43.902   5.550
 7999POPC   PO446776  14.420  43.928   5.850
 7999POPC   GL146777  14.403  43.898   6.150
 7999POPC   GL246778  14.496  43.906   6.150
 7999POPC   C1A46779  14.370  43.871   6.450
 7999POPC   D2A46780  14.430  43.850   6.750
 7999POPC   C3A46781  14.400  43.877   7.050
 7999POPC   C4A46782  14.415  43.901   7.350
 7999POPC   C1B46783  14.604  44.010   6.450
 7999POPC   C2B46784  14.603  44.029   6.750
 7999POPC   C3B46785  14.583  43.981   7.050
 7999POPC   C4B46786  14.573  44.000   7.350
 8000POPC   NC346787  41.546   0.444   5.550
 8000POPC   PO446788  41.510   0.482   5.850
 8000POPC   GL146789  41.518   0.412   6.150
 8000POPC   GL246790  41.619   0.385   6.150
 8000POPC   C1A46791  41.605   0.417   6.450
 8000POPC   D2A46792  41.583   0.432   6.750
 8000POPC   C3A46793  41.519   0.427   7.050
 8000POPC   C4A46794  41.514   0.479   7.350
 8000POPC   C1B46795  41.747   0.196   6.450
 8000POPC   C2B46796  41.718   0.196   6.750
 8000POPC   C3B46797  41.739   0.270   7.050
 8000POPC   C4B46798  41.731   0.220   7.350
 8001POPC   NC346799   5.132  43.155   5.550
 8001POPC   PO446800   5.118  43.115   5.850
 8001POPC   GL146801   5.071  43.087   6.150
 8001POPC   GL246802   5.080  43.195   6.150
 8001POPC   C1A46803   5.045  43.148   6.450
 8001POPC   D2A46804   5.076  43.156   6.750
 8001POPC   C3A46805   5.101  43.068   7.050
 8001POPC   C4A46806   5.134  43.100   7.350
 8001POPC   C1B46807   5.179  43.391   6.450
 8001POPC   C2B46808   5.175  43.395   6.750
 8001POPC   C3B46809   5.106  43.343   7.050
 8001POPC   C4B46810   5.189  43.317   7.350
 8002POPC   NC346811  44.638   8.993   5.550
 8002POPC   PO446812  44.667   8.982   5.850
 8002POPC   GL146813  44.691   8.964   6.150
 8002POPC   GL246814  44.601   8.899   6.150
 8002POPC   C1A46815  44.637   9.020   6.450
 8002POPC   D2A46816  44.656   8.931   6.750
 8002POPC   C3A46817  44.661   8.927   7.050
 8002POPC   C4A46818  44.673   8.970   7.350
 8002POPC   C1B46819  44.591   8.702   6.450
 8002POPC   C2B46820  44.568   8.760   6.750
 8002POPC   C3B46821  44.598   8.710   7.050
 8002POPC   C4B46822  44.570   8.718   7.350
 8003POPC   NC346823  36.109   6.602   5.550
 8003POPC   PO446824  36.170   6.684   5.850
 8003POPC   GL146825  36.156   6.685   6.150
 8003POPC   GL246826  36.158   6.789   6.150
 8003POPC   C1A46827  36.164   6.636   6.450
 8003POPC   D2A46828  36.109   6.692   6.750
 8003POPC   C3A46829  36.155   6.652   7.050
 8003POPC   C4A46830  36.120   6.608   7.350
 8003POPC   C1B46831  36.167   6.929   6.450
 8003POPC   C2B46832  36.149   6.889   6.750
 8003POPC   C3B46833  36.091   6.916   7.050
 8003POPC   C4B46834  36.098   6.862   7.350
 8004POPC   NC346835   2.724  41.568   5.550
 8004POPC   PO446836   2.772  41.585   5.850
 8004POPC   GL146837   2.770  41.605   6.150
 8004POPC   GL246838   2.737  41.397   6.150
 8004POPC   C1A46839   2.755  41.541   6.450
 8004POPC   D2A46840   2.779  41.593   6.750
 8004POPC   C3A46841   2.754  41.606   7.050
 8004POPC   C4A46842   2.794  41.590   7.350
 8004POPC   C1B46843   2.769  41.308   6.450
 8004POPC   C2B46844   2.760  41.301   6.750
 8004POPC   C3B46845   2.750  41.345   7.050
 8004POPC   C4B46846   2.773  41.294   7.350
 8005POPC   NC346847  13.657   2.780   5.550
 8005POPC   PO446848  13.619   2.753   5.850
 8005POPC   GL146849  13.673   2.763   6.150
 8005POPC   GL246850  13.559   2.802   6.150
 8005POPC   C1A46851  13.647   2.812   6.450
 8005POPC   D2A46852  13.609   2.770   6.750
 8005POPC   C3A46853  13.616   2.739   7.050
 8005POPC   C4A46854  13.588   2.812   7.350
 8005POPC   C1B46855  13.407   2.856   6.450
 8005POPC   C2B46856  13.382   2.916   6.750
 8005POPC   C3B46857  13.357   2.901   7.050
 8005POPC   C4B46858  13.451   2.848   7.350
 8006POPC   NC346859  24.496   7.456   5.550
 8006POPC   PO446860  24.518   7.423   5.850
 8006POPC   GL146861  24.470   7.425   6.150
 8006POPC   GL246862  24.391   7.277   6.150
 8006POPC   C1A46863  24.489   7.374   6.450
 8006POPC   D2A46864  24.507   7.392   6.750
 8006POPC   C3A46865  24.491   7.462   7.050
 8006POPC   C4A46866  24.471   7.449   7.350
 8006POPC   C1B46867  24.343   7.193   6.450
 8006POPC   C2B46868  24.331   7.177   6.750
 8006POPC   C3B46869  24.295   7.184   7.050
 8006POPC   C4B46870  24.370   7.261   7.350
 8007POPC   NC346871   6.635  43.865   5.550
 8007POPC   PO446872   6.599  43.894   5.850
 8007POPC   GL146873   6.670  43.858   6.150
 8007POPC   GL246874   6.507  43.921   6.150
 8007POPC   C1A46875   6.606  43.911   6.450
 8007POPC   D2A46876   6.691  43.846   6.750
 8007POPC   C3A46877   6.665  43.857   7.050
 8007POPC   C4A46878   6.661  43.930   7.350
 8007POPC   C1B46879   6.410  43.860   6.450
 8007POPC   C2B46880   6.386  43.944   6.750
 8007POPC   C3B46881   6.436  43.918   7.050
 8007POPC   C4B46882   6.372  43.876   7.350
 8008POPC   NC346883  28.324  26.022   5.550
 8008POPC   PO446884  28.388  26.032   5.850
 8008POPC   GL146885  28.363  26.041   6.150
 8008POPC   GL246886  28.338  25.887   6.150
 8008POPC   C1A46887  28.339  25.998   6.450
 8008POPC   D2A46888  28.344  26.048   6.750
 8008POPC   C3A46889  28.362  26.026   7.050
 8008POPC   C4A46890  28.345  26.080   7.350
 8008POPC   C1B46891  28.293  25.862   6.450
 8008POPC   C2B46892  28.257  25.800   6.750
 8008POPC   C3B46893  28.231  25.814   7.050
 8008POPC   C4B46894  28.310  25.787   7.350
 8009POPC   NC346895  43.880  27.595   5.550
 8009POPC   PO446896  43.902  27.565   5.850
 8009POPC   GL146897  43.869  27.610   6.150
 8009POPC   GL246898  43.828  27.453   6.150
 8009POPC   C1A46899  43.882  27.564   6.450
 8009POPC   D2A46900  43.935  27.594   6.750
 8009POPC   C3A46901  43.850  27.632   7.050
 8009POPC   C4A46902  43.857  27.602   7.350
 8009POPC   C1B46903  43.739  27.343   6.450
 8009POPC   C2B46904  43.790  27.331   6.750
 8009POPC   C3B46905  43.746  27.338   7.050
 8009POPC   C4B46906  43.809  27.341   7.350
 8010POPC   NC346907  37.635  39.233   5.550
 8010POPC   PO446908  37.633  39.193   5.850
 8010POPC   GL146909  37.693  39.227   6.150
 8010POPC   GL246910  37.522  39.212   6.150
 8010POPC   C1A46911  37.693  39.242   6.450
 8010POPC   D2A46912  37.719  39.267   6.750
 8010POPC   C3A46913  37.684  39.229   7.050
 8010POPC   C4A46914  37.686  39.259   7.350
 8010POPC   C1B46915  37.410  39.155   6.450
 8010POPC   C2B46916  37.482  39.111   6.750
 8010POPC   C3B46917  37.474  39.117   7.050
 8010POPC   C4B46918  37.401  39.132   7.350
 8011POPC   NC346919   1.221   9.704   5.550
 8011POPC   PO446920   1.222   9.721   5.850
 8011POPC   GL146921   1.209   9.755   6.150
 8011POPC   GL246922   1.305   9.716   6.150
 8011POPC   C1A46923   1.203   9.782   6.450
 8011POPC   D2A46924   1.260   9.785   6.750
 8011POPC   C3A46925   1.209   9.746   7.050
 8011POPC   C4A46926   1.263   9.746   7.350
 8011POPC   C1B46927   1.423   9.590   6.450
 8011POPC   C2B46928   1.441   9.630   6.750
 8011POPC   C3B46929   1.369   9.627   7.050
 8011POPC   C4B46930   1.399   9.607   7.350
 8012POPC   NC346931  39.260  39.985   5.550
 8012POPC   PO446932  39.220  40.054   5.850
 8012POPC   GL146933  39.188  40.019   6.150
 8012POPC   GL246934  39.315  40.038   6.150
 8012POPC   C1A46935  39.253  39.984   6.450
 8012POPC   D2A46936  39.268  40.014   6.750
 8012POPC   C3A46937  39.225  40.001   7.050
 8012POPC   C4A46938  39.280  40.016   7.350
 8012POPC   C1B46939  39.510  40.074   6.450
 8012POPC   C2B46940  39.507  40.085   6.750
 8012POPC   C3B46941  39.492  40.083   7.050
 8012POPC   C4B46942  39.481  40.099   7.350
 8013POPC   NC346943  34.617  40.798   5.550
 8013POPC   PO446944  34.610  40.770   5.850
 8013POPC   GL146945  34.597  40.768   6.150
 8013POPC   GL246946  34.597  40.875   6.150
 8013POPC   C1A46947  34.587  40.777   6.450
 8013POPC   D2A46948  34.533  40.820   6.750
 8013POPC   C3A46949  34.592  40.830   7.050
 8013POPC   C4A46950  34.588  40.751   7.350
 8013POPC   C1B46951  34.632  41.047   6.450
 8013POPC   C2B46952  34.635  41.062   6.750
 8013POPC   C3B46953  34.647  41.062   7.050
 8013POPC   C4B46954  34.642  41.073   7.350
 8014POPC   NC346955  19.029  32.238   5.550
 8014POPC   PO446956  19.076  32.222   5.850
 8014POPC   GL146957  19.066  32.263   6.150
 8014POPC   GL246958  19.167  32.286   6.150
 8014POPC   C1A46959  19.087  32.238   6.450
 8014POPC   D2A46960  19.101  32.217   6.750
 8014POPC   C3A46961  19.012  32.274   7.050
 8014POPC   C4A46962  19.058  32.230   7.350
 8014POPC   C1B46963  19.272  32.344   6.450
 8014POPC   C2B46964  19.291  32.404   6.750
 8014POPC   C3B46965  19.240  32.399   7.050
 8014POPC   C4B46966  19.253  32.421   7.350
 8015POPC   NC346967  36.895  24.463   5.550
 8015POPC   PO446968  36.936  24.470   5.850
 8015POPC   GL146969  36.953  24.507   6.150
 8015POPC   GL246970  36.743  24.489   6.150
 8015POPC   C1A46971  36.947  24.535   6.450
 8015POPC   D2A46972  36.869  24.532   6.750
 8015POPC   C3A46973  36.892  24.515   7.050
 8015POPC   C4A46974  36.858  24.531   7.350
 8015POPC   C1B46975  36.642  24.531   6.450
 8015POPC   C2B46976  36.626  24.502   6.750
 8015POPC   C3B46977  36.614  24.568   7.050
 8015POPC   C4B46978  36.668  24.560   7.350
 8016POPC   NC346979  26.812  19.017   5.550
 8016POPC   PO446980  26.836  19.034   5.850
 8016POPC   GL146981  26.829  19.057   6.150
 8016POPC   GL246982  26.791  19.123   6.150
 8016POPC   C1A46983  26.826  19.015   6.450
 8016POPC   D2A46984  26.801  19.078   6.750
 8016POPC   C3A46985  26.771  19.108   7.050
 8016POPC   C4A46986  26.773  19.034   7.350
 8016POPC   C1B46987  26.656  19.287   6.450
 8016POPC   C2B46988  26.743  19.318   6.750
 8016POPC   C3B46989  26.743  19.259   7.050
 8016POPC   C4B46990  26.697  19.236   7.350
 8017POPC   NC346991  11.348  25.256   5.550
 8017POPC   PO446992  11.313  25.242   5.850
 8017POPC   GL146993  11.271  25.294   6.150
 8017POPC   GL246994  11.452  25.261   6.150
 8017POPC   C1A46995  11.262  25.244   6.450
 8017POPC   D2A46996  11.330  25.294   6.750
 8017POPC   C3A46997  11.327  25.236   7.050
 8017POPC   C4A46998  11.334  25.265   7.350
 8017POPC   C1B46999  11.515  25.270   6.450
 8017POPC   C2B47000  11.514  25.211   6.750
 8017POPC   C3B47001  11.501  25.268   7.050
 8017POPC   C4B47002  11.537  25.234   7.350
 8018POPC   NC347003  25.283   5.862   5.550
 8018POPC   PO447004  25.230   5.821   5.850
 8018POPC   GL147005  25.266   5.899   6.150
 8018POPC   GL247006  25.317   5.941   6.150
 8018POPC   C1A47007  25.266   5.916   6.450
 8018POPC   D2A47008  25.248   5.872   6.750
 8018POPC   C3A47009  25.248   5.885   7.050
 8018POPC   C4A47010  25.264   5.914   7.350
 8018POPC   C1B47011  25.483   6.042   6.450
 8018POPC   C2B47012  25.465   6.014   6.750
 8018POPC   C3B47013  25.475   6.095   7.050
 8018POPC   C4B47014  25.407   6.099   7.350
 8019POPC   NC347015  26.852  31.515   5.550
 8019POPC   PO447016  26.846  31.471   5.850
 8019POPC   GL147017  26.771  31.460   6.150
 8019POPC   GL247018  26.912  31.521   6.150
 8019POPC   C1A47019  26.845  31.439   6.450
 8019POPC   D2A47020  26.769  31.441   6.750
 8019POPC   C3A47021  26.861  31.437   7.050
 8019POPC   C4A47022  26.785  31.519   7.350
 8019POPC   C1B47023  27.021  31.597   6.450
 8019POPC   C2B47024  27.051  31.579   6.750
 8019POPC   C3B47025  27.098  31.522   7.050
 8019POPC   C4B47026  27.093  31.523   7.350
 8020POPC   NC347027  28.363  16.748   5.550
 8020POPC   PO447028  28.366  16.777   5.850
 8020POPC   GL147029  28.320  16.740   6.150
 8020POPC   GL247030  28.281  16.737   6.150
 8020POPC   C1A47031  28.337  16.727   6.450
 8020POPC   D2A47032  28.320  16.729   6.750
 8020POPC   C3A47033  28.370  16.727   7.050
 8020POPC   C4A47034  28.343  16.716   7.350
 8020POPC   C1B47035  28.087  16.748   6.450
 8020POPC   C2B47036  28.137  16.762   6.750
 8020POPC   C3B47037  28.094  16.783   7.050
 8020POPC   C4B47038  28.159  16.761   7.350
 8021POPC   NC347039  12.867  23.693   5.550
 8021POPC   PO447040  12.802  23.686   5.850
 8021POPC   GL147041  12.891  23.669   6.150
 8021POPC   GL247042  12.948  23.852   6.150
 8021POPC   C1A47043  12.820  23.664   6.450
 8021POPC   D2A47044  12.886  23.693   6.750
 8021POPC   C3A47045  12.898  23.675   7.050
 8021POPC   C4A47046  12.843  23.705   7.350
 8021POPC   C1B47047  13.049  23.903   6.450
 8021POPC   C2B47048  13.007  23.918   6.750
 8021POPC   C3B47049  13.063  23.904   7.050
 8021POPC   C4B47050  12.990  23.929   7.350
 8022POPC   NC347051  15.993   2.009   5.550
 8022POPC   PO447052  15.939   1.988   5.850
 8022POPC   GL147053  15.907   2.019   6.150
 8022POPC   GL247054  15.934   2.130   6.150
 8022POPC   C1A47055  15.966   1.997   6.450
 8022POPC   D2A47056  15.994   2.002   6.750
 8022POPC   C3A47057  15.919   1.971   7.050
 8022POPC   C4A47058  15.938   2.013   7.350
 8022POPC   C1B47059  15.880   2.184   6.450
 8022POPC   C2B47060  15.853   2.217   6.750
 8022POPC   C3B47061  15.893   2.259   7.050
 8022POPC   C4B47062  15.932   2.246   7.350
 8023POPC   NC347063  43.903   5.856   5.550
 8023POPC   PO447064  43.934   5.880   5.850
 8023POPC   GL147065  43.913   5.908   6.150
 8023POPC   GL247066  44.016   5.969   6.150
 8023POPC   C1A47067  43.912   5.902   6.450
 8023POPC   D2A47068  43.920   5.858   6.750
 8023POPC   C3A47069  43.867   5.860   7.050
 8023POPC   C4A47070  43.899   5.905   7.350
 8023POPC   C1B47071  44.050   6.058   6.450
 8023POPC   C2B47072  44.093   6.064   6.750
 8023POPC   C3B47073  44.057   6.050   7.050
 8023POPC   C4B47074  44.091   6.030   7.350
 8024POPC   NC347075  44.631  21.415   5.550
 8024POPC   PO447076  44.661  21.349   5.850
 8024POPC   GL147077  44.690  21.418   6.150
 8024POPC   GL247078  44.746  21.513   6.150
 8024POPC   C1A47079  44.712  21.373   6.450
 8024POPC   D2A47080  44.710  21.344   6.750
 8024POPC   C3A47081  44.671  21.401   7.050
 8024POPC   C4A47082  44.676  21.373   7.350
 8024POPC   C1B47083  44.835  21.518   6.450
 8024POPC   C2B47084  44.810  21.563   6.750
 8024POPC   C3B47085  44.867  21.505   7.050
 8024POPC   C4B47086  44.855  21.501   7.350
 8025POPC   NC347087  14.415  31.469   5.550
 8025POPC   PO447088  14.412  31.425   5.850
 8025POPC   GL147089  14.423  31.479   6.150
 8025POPC   GL247090  14.551  31.497   6.150
 8025POPC   C1A47091  14.450  31.481   6.450
 8025POPC   D2A47092  14.356  31.521   6.750
 8025POPC   C3A47093  14.380  31.493   7.050
 8025POPC   C4A47094  14.429  31.492   7.350
 8025POPC   C1B47095  14.590  31.576   6.450
 8025POPC   C2B47096  14.588  31.618   6.750
 8025POPC   C3B47097  14.591  31.619   7.050
 8025POPC   C4B47098  14.602  31.593   7.350
 8026POPC   NC347099   8.204  37.723   5.550
 8026POPC   PO447100   8.204  37.640   5.850
 8026POPC   GL147101   8.219  37.666   6.150
 8026POPC   GL247102   8.243  37.774   6.150
 8026POPC   C1A47103   8.229  37.672   6.450
 8026POPC   D2A47104   8.159  37.669   6.750
 8026POPC   C3A47105   8.214  37.709   7.050
 8026POPC   C4A47106   8.171  37.673   7.350
 8026POPC   C1B47107   8.324  37.844   6.450
 8026POPC   C2B47108   8.325  37.850   6.750
 8026POPC   C3B47109   8.341  37.862   7.050
 8026POPC   C4B47110   8.339  37.852   7.350
 8027POPC   NC347111  10.489   5.843   5.550
 8027POPC   PO447112  10.566   5.845   5.850
 8027POPC   GL147113  10.555   5.879   6.150
 8027POPC   GL247114  10.487   5.778   6.150
 8027POPC   C1A47115  10.499   5.822   6.450
 8027POPC   D2A47116  10.532   5.886   6.750
 8027POPC   C3A47117  10.545   5.871   7.050
 8027POPC   C4A47118  10.499   5.840   7.350
 8027POPC   C1B47119  10.517   5.603   6.450
 8027POPC   C2B47120  10.445   5.630   6.750
 8027POPC   C3B47121  10.501   5.660   7.050
 8027POPC   C4B47122  10.447   5.667   7.350
 8028POPC   NC347123  22.894  31.480   5.550
 8028POPC   PO447124  22.925  31.472   5.850
 8028POPC   GL147125  22.984  31.509   6.150
 8028POPC   GL247126  22.837  31.544   6.150
 8028POPC   C1A47127  22.959  31.507   6.450
 8028POPC   D2A47128  22.902  31.446   6.750
 8028POPC   C3A47129  22.968  31.493   7.050
 8028POPC   C4A47130  22.940  31.447   7.350
 8028POPC   C1B47131  22.731  31.598   6.450
 8028POPC   C2B47132  22.746  31.653   6.750
 8028POPC   C3B47133  22.753  31.606   7.050
 8028POPC   C4B47134  22.784  31.615   7.350
 8029POPC   NC347135  33.774  39.203   5.550
 8029POPC   PO447136  33.823  39.250   5.850
 8029POPC   GL147137  33.808  39.248   6.150
 8029POPC   GL247138  33.869  39.162   6.150
 8029POPC   C1A47139  33.845  39.181   6.450
 8029POPC   D2A47140  33.789  39.273   6.750
 8029POPC   C3A47141  33.818  39.229   7.050
 8029POPC   C4A47142  33.762  39.255   7.350
 8029POPC   C1B47143  33.930  38.990   6.450
 8029POPC   C2B47144  33.970  39.033   6.750
 8029POPC   C3B47145  33.915  39.070   7.050
 8029POPC   C4B47146  33.965  38.987   7.350
 8030POPC   NC347147  25.257  29.188   5.550
 8030POPC   PO447148  25.268  29.187   5.850
 8030POPC   GL147149  25.300  29.176   6.150
 8030POPC   GL247150  25.366  29.227   6.150
 8030POPC   C1A47151  25.305  29.134   6.450
 8030POPC   D2A47152  25.289  29.124   6.750
 8030POPC   C3A47153  25.274  29.125   7.050
 8030POPC   C4A47154  25.293  29.186   7.350
 8030POPC   C1B47155  25.428  29.330   6.450
 8030POPC   C2B47156  25.352  29.346   6.750
 8030POPC   C3B47157  25.345  29.374   7.050
 8030POPC   C4B47158  25.421  29.338   7.350
 8031POPC   NC347159  12.822  15.923   5.550
 8031POPC   PO447160  12.889  15.910   5.850
 8031POPC   GL147161  12.818  15.914   6.150
 8031POPC   GL247162  12.985  16.032   6.150
 8031POPC   C1A47163  12.883  15.929   6.450
 8031POPC   D2A47164  12.828  15.945   6.750
 8031POPC   C3A47165  12.899  15.978   7.050
 8031POPC   C4A47166  12.874  15.942   7.350
 8031POPC   C1B47167  13.027  16.122   6.450
 8031POPC   C2B47168  12.979  16.097   6.750
 8031POPC   C3B47169  13.030  16.133   7.050
 8031POPC   C4B47170  13.040  16.117   7.350
 8032POPC   NC347171  10.501  35.347   5.550
 8032POPC   PO447172  10.533  35.364   5.850
 8032POPC   GL147173  10.537  35.337   6.150
 8032POPC   GL247174  10.449  35.276   6.150
 8032POPC   C1A47175  10.503  35.390   6.450
 8032POPC   D2A47176  10.571  35.357   6.750
 8032POPC   C3A47177  10.513  35.383   7.050
 8032POPC   C4A47178  10.516  35.375   7.350
 8032POPC   C1B47179  10.337  35.155   6.450
 8032POPC   C2B47180  10.388  35.185   6.750
 8032POPC   C3B47181  10.335  35.135   7.050
 8032POPC   C4B47182  10.362  35.119   7.350
 8033POPC   NC347183   9.763  19.837   5.550
 8033POPC   PO447184   9.711  19.869   5.850
 8033POPC   GL147185   9.779  19.878   6.150
 8033POPC   GL247186   9.580  19.824   6.150
 8033POPC   C1A47187   9.704  19.814   6.450
 8033POPC   D2A47188   9.728  19.861   6.750
 8033POPC   C3A47189   9.755  19.831   7.050
 8033POPC   C4A47190   9.732  19.818   7.350
 8033POPC   C1B47191   9.505  19.804   6.450
 8033POPC   C2B47192   9.540  19.825   6.750
 8033POPC   C3B47193   9.544  19.772   7.050
 8033POPC   C4B47194   9.539  19.783   7.350
 8034POPC   NC347195  21.436  12.842   5.550
 8034POPC   PO447196  21.429  12.810   5.850
 8034POPC   GL147197  21.353  12.827   6.150
 8034POPC   GL247198  21.334  12.773   6.150
 8034POPC   C1A47199  21.411  12.885   6.450
 8034POPC   D2A47200  21.429  12.846   6.750
 8034POPC   C3A47201  21.375  12.854   7.050
 8034POPC   C4A47202  21.389  12.887   7.350
 8034POPC   C1B47203  21.213  12.651   6.450
 8034POPC   C2B47204  21.234  12.695   6.750
 8034POPC   C3B47205  21.258  12.641   7.050
 8034POPC   C4B47206  21.214  12.695   7.350
 8035POPC   NC347207  21.343   5.855   5.550
 8035POPC   PO447208  21.425   5.887   5.850
 8035POPC   GL147209  21.342   5.834   6.150
 8035POPC   GL247210  21.226   5.816   6.150
 8035POPC   C1A47211  21.436   5.867   6.450
 8035POPC   D2A47212  21.390   5.852   6.750
 8035POPC   C3A47213  21.393   5.840   7.050
 8035POPC   C4A47214  21.435   5.917   7.350
 8035POPC   C1B47215  21.185   5.802   6.450
 8035POPC   C2B47216  21.164   5.787   6.750
 8035POPC   C3B47217  21.129   5.735   7.050
 8035POPC   C4B47218  21.123   5.814   7.350
 8036POPC   NC347219  30.668   3.502   5.550
 8036POPC   PO447220  30.728   3.525   5.850
 8036POPC   GL147221  30.663   3.496   6.150
 8036POPC   GL247222  30.741   3.602   6.150
 8036POPC   C1A47223  30.689   3.588   6.450
 8036POPC   D2A47224  30.700   3.537   6.750
 8036POPC   C3A47225  30.708   3.535   7.050
 8036POPC   C4A47226  30.715   3.535   7.350
 8036POPC   C1B47227  30.824   3.810   6.450
 8036POPC   C2B47228  30.821   3.783   6.750
 8036POPC   C3B47229  30.856   3.800   7.050
 8036POPC   C4B47230  30.788   3.758   7.350
 8037POPC   NC347231   4.367   8.182   5.550
 8037POPC   PO447232   4.324   8.235   5.850
 8037POPC   GL147233   4.312   8.215   6.150
 8037POPC   GL247234   4.416   8.128   6.150
 8037POPC   C1A47235   4.298   8.199   6.450
 8037POPC   D2A47236   4.299   8.158   6.750
 8037POPC   C3A47237   4.350   8.152   7.050
 8037POPC   C4A47238   4.288   8.245   7.350
 8037POPC   C1B47239   4.448   7.941   6.450
 8037POPC   C2B47240   4.428   7.954   6.750
 8037POPC   C3B47241   4.430   8.014   7.050
 8037POPC   C4B47242   4.430   7.968   7.350
 8038POPC   NC347243  28.352  15.910   5.550
 8038POPC   PO447244  28.401  15.923   5.850
 8038POPC   GL147245  28.395  15.922   6.150
 8038POPC   GL247246  28.264  16.037   6.150
 8038POPC   C1A47247  28.321  15.921   6.450
 8038POPC   D2A47248  28.322  15.913   6.750
 8038POPC   C3A47249  28.374  15.932   7.050
 8038POPC   C4A47250  28.409  15.970   7.350
 8038POPC   C1B47251  28.144  16.064   6.450
 8038POPC   C2B47252  28.105  15.976   6.750
 8038POPC   C3B47253  28.092  16.057   7.050
 8038POPC   C4B47254  28.104  15.991   7.350
 8039POPC   NC347255  14.399  42.378   5.550
 8039POPC   PO447256  14.433  42.343   5.850
 8039POPC   GL147257  14.373  42.291   6.150
 8039POPC   GL247258  14.578  42.297   6.150
 8039POPC   C1A47259  14.407  42.305   6.450
 8039POPC   D2A47260  14.411  42.327   6.750
 8039POPC   C3A47261  14.361  42.317   7.050
 8039POPC   C4A47262  14.415  42.297   7.350
 8039POPC   C1B47263  14.607  42.310   6.450
 8039POPC   C2B47264  14.702  42.299   6.750
 8039POPC   C3B47265  14.618  42.285   7.050
 8039POPC   C4B47266  14.626  42.297   7.350
 8040POPC   NC347267  40.783  40.000   5.550
 8040POPC   PO447268  40.775  40.006   5.850
 8040POPC   GL147269  40.807  40.050   6.150
 8040POPC   GL247270  40.704  40.069   6.150
 8040POPC   C1A47271  40.780  40.017   6.450
 8040POPC   D2A47272  40.782  39.999   6.750
 8040POPC   C3A47273  40.820  40.038   7.050
 8040POPC   C4A47274  40.800  39.996   7.350
 8040POPC   C1B47275  40.629  40.207   6.450
 8040POPC   C2B47276  40.585  40.241   6.750
 8040POPC   C3B47277  40.571  40.191   7.050
 8040POPC   C4B47278  40.644  40.156   7.350
 8041POPC   NC347279  19.009   9.750   5.550
 8041POPC   PO447280  19.026   9.765   5.850
 8041POPC   GL147281  19.067   9.722   6.150
 8041POPC   GL247282  19.061   9.850   6.150
 8041POPC   C1A47283  19.034   9.725   6.450
 8041POPC   D2A47284  19.054   9.758   6.750
 8041POPC   C3A47285  19.095   9.770   7.050
 8041POPC   C4A47286  19.061   9.702   7.350
 8041POPC   C1B47287  19.131  10.036   6.450
 8041POPC   C2B47288  19.149   9.991   6.750
 8041POPC   C3B47289  19.090  10.012   7.050
 8041POPC   C4B47290  19.150   9.985   7.350
 8042POPC   NC347291  17.532  33.840   5.550
 8042POPC   PO447292  17.526  33.843   5.850
 8042POPC   GL147293  17.494  33.821   6.150
 8042POPC   GL247294  17.443  33.844   6.150
 8042POPC   C1A47295  17.554  33.834   6.450
 8042POPC   D2A47296  17.537  33.847   6.750
 8042POPC   C3A47297  17.480  33.810   7.050
 8042POPC   C4A47298  17.497  33.782   7.350
 8042POPC   C1B47299  17.290  34.021   6.450
 8042POPC   C2B47300  17.282  33.955   6.750
 8042POPC   C3B47301  17.329  33.996   7.050
 8042POPC   C4B47302  17.290  33.952   7.350
 8043POPC   NC347303  15.991  36.150   5.550
 8043POPC   PO447304  16.001  36.114   5.850
 8043POPC   GL147305  15.964  36.102   6.150
 8043POPC   GL247306  15.886  36.021   6.150
 8043POPC   C1A47307  15.921  36.161   6.450
 8043POPC   D2A47308  15.911  36.086   6.750
 8043POPC   C3A47309  15.936  36.137   7.050
 8043POPC   C4A47310  15.992  36.101   7.350
 8043POPC   C1B47311  15.928  35.911   6.450
 8043POPC   C2B47312  15.926  35.858   6.750
 8043POPC   C3B47313  15.889  35.889   7.050
 8043POPC   C4B47314  15.900  35.914   7.350
 8044POPC   NC347315  17.543   5.069   5.550
 8044POPC   PO447316  17.551   5.117   5.850
 8044POPC   GL147317  17.480   5.091   6.150
 8044POPC   GL247318  17.479   5.267   6.150
 8044POPC   C1A47319  17.495   5.098   6.450
 8044POPC   D2A47320  17.513   5.080   6.750
 8044POPC   C3A47321  17.521   5.057   7.050
 8044POPC   C4A47322  17.542   5.099   7.350
 8044POPC   C1B47323  17.506   5.382   6.450
 8044POPC   C2B47324  17.510   5.334   6.750
 8044POPC   C3B47325  17.529   5.308   7.050
 8044POPC   C4B47326  17.512   5.360   7.350
 8045POPC   NC347327  29.949  17.547   5.550
 8045POPC   PO447328  29.913  17.529   5.850
 8045POPC   GL147329  29.933  17.494   6.150
 8045POPC   GL247330  30.006  17.632   6.150
 8045POPC   C1A47331  29.927  17.479   6.450
 8045POPC   D2A47332  29.939  17.480   6.750
 8045POPC   C3A47333  29.945  17.546   7.050
 8045POPC   C4A47334  29.961  17.516   7.350
 8045POPC   C1B47335  30.025  17.767   6.450
 8045POPC   C2B47336  30.045  17.747   6.750
 8045POPC   C3B47337  30.079  17.745   7.050
 8045POPC   C4B47338  30.043  17.689   7.350
 8046POPC   NC347339   3.530  18.290   5.550
 8046POPC   PO447340   3.546  18.316   5.850
 8046POPC   GL147341   3.571  18.314   6.150
 8046POPC   GL247342   3.472  18.189   6.150
 8046POPC   C1A47343   3.582  18.301   6.450
 8046POPC   D2A47344   3.527  18.236   6.750
 8046POPC   C3A47345   3.503  18.300   7.050
 8046POPC   C4A47346   3.549  18.255   7.350
 8046POPC   C1B47347   3.348  18.139   6.450
 8046POPC   C2B47348   3.326  18.162   6.750
 8046POPC   C3B47349   3.306  18.142   7.050
 8046POPC   C4B47350   3.290  18.182   7.350
 8047POPC   NC347351   0.453  12.100   5.550
 8047POPC   PO447352   0.434  12.090   5.850
 8047POPC   GL147353   0.416  12.059   6.150
 8047POPC   GL247354   0.424  11.953   6.150
 8047POPC   C1A47355   0.487  12.094   6.450
 8047POPC   D2A47356   0.427  12.054   6.750
 8047POPC   C3A47357   0.479  12.057   7.050
 8047POPC   C4A47358   0.460  12.106   7.350
 8047POPC   C1B47359   0.363  11.806   6.450
 8047POPC   C2B47360   0.318  11.801   6.750
 8047POPC   C3B47361   0.303  11.835   7.050
 8047POPC   C4B47362   0.308  11.849   7.350
 8048POPC   NC347363  39.224  26.788   5.550
 8048POPC   PO447364  39.234  26.816   5.850
 8048POPC   GL147365  39.237  26.839   6.150
 8048POPC   GL247366  39.139  26.681   6.150
 8048POPC   C1A47367  39.214  26.863   6.450
 8048POPC   D2A47368  39.265  26.849   6.750
 8048POPC   C3A47369  39.195  26.785   7.050
 8048POPC   C4A47370  39.208  26.778   7.350
 8048POPC   C1B47371  39.151  26.574   6.450
 8048POPC   C2B47372  39.070  26.630   6.750
 8048POPC   C3B47373  39.147  26.595   7.050
 8048POPC   C4B47374  39.079  26.598   7.350
 8049POPC   NC347375  10.510  12.869   5.550
 8049POPC   PO447376  10.564  12.897   5.850
 8049POPC   GL147377  10.484  12.802   6.150
 8049POPC   GL247378  10.444  12.959   6.150
 8049POPC   C1A47379  10.563  12.835   6.450
 8049POPC   D2A47380  10.501  12.878   6.750
 8049POPC   C3A47381  10.546  12.881   7.050
 8049POPC   C4A47382  10.485  12.829   7.350
 8049POPC   C1B47383  10.429  13.016   6.450
 8049POPC   C2B47384  10.381  13.053   6.750
 8049POPC   C3B47385  10.409  13.113   7.050
 8049POPC   C4B47386  10.381  13.108   7.350
 8050POPC   NC347387   8.971  10.574   5.550
 8050POPC   PO447388   8.997  10.552   5.850
 8050POPC   GL147389   8.974  10.515   6.150
 8050POPC   GL247390   8.944  10.591   6.150
 8050POPC   C1A47391   8.991  10.496   6.450
 8050POPC   D2A47392   8.927  10.477   6.750
 8050POPC   C3A47393   8.930  10.490   7.050
 8050POPC   C4A47394   8.979  10.539   7.350
 8050POPC   C1B47395   8.825  10.770   6.450
 8050POPC   C2B47396   8.826  10.776   6.750
 8050POPC   C3B47397   8.816  10.695   7.050
 8050POPC   C4B47398   8.855  10.729   7.350
 8051POPC   NC347399   1.241  20.635   5.550
 8051POPC   PO447400   1.169  20.631   5.850
 8051POPC   GL147401   1.241  20.618   6.150
 8051POPC   GL247402   1.337  20.499   6.150
 8051POPC   C1A47403   1.168  20.608   6.450
 8051POPC   D2A47404   1.166  20.616   6.750
 8051POPC   C3A47405   1.166  20.603   7.050
 8051POPC   C4A47406   1.212  20.607   7.350
 8051POPC   C1B47407   1.411  20.489   6.450
 8051POPC   C2B47408   1.361  20.465   6.750
 8051POPC   C3B47409   1.417  20.436   7.050
 8051POPC   C4B47410   1.363  20.456   7.350
 8052POPC   NC347411  28.341  14.429   5.550
 8052POPC   PO447412  28.373  14.390   5.850
 8052POPC   GL147413  28.319  14.372   6.150
 8052POPC   GL247414  28.286  14.418   6.150
 8052POPC   C1A47415  28.349  14.452   6.450
 8052POPC   D2A47416  28.391  14.384   6.750
 8052POPC   C3A47417  28.398  14.391   7.050
 8052POPC   C4A47418  28.356  14.403   7.350
 8052POPC   C1B47419  28.169  14.497   6.450
 8052POPC   C2B47420  28.147  14.433   6.750
 8052POPC   C3B47421  28.173  14.469   7.050
 8052POPC   C4B47422  28.173  14.489   7.350
 8053POPC   NC347423  19.049   8.942   5.550
 8053POPC   PO447424  19.041   8.996   5.850
 8053POPC   GL147425  19.027   8.999   6.150
 8053POPC   GL247426  19.193   9.041   6.150
 8053POPC   C1A47427  19.026   8.953   6.450
 8053POPC   D2A47428  19.054   8.974   6.750
 8053POPC   C3A47429  19.047   8.995   7.050
 8053POPC   C4A47430  19.013   8.984   7.350
 8053POPC   C1B47431  19.286   9.055   6.450
 8053POPC   C2B47432  19.294   9.117   6.750
 8053POPC   C3B47433  19.253   9.110   7.050
 8053POPC   C4B47434  19.272   9.071   7.350
 8054POPC   NC347435  11.287  19.824   5.550
 8054POPC   PO447436  11.259  19.787   5.850
 8054POPC   GL147437  11.266  19.859   6.150
 8054POPC   GL247438  11.328  19.989   6.150
 8054POPC   C1A47439  11.319  19.790   6.450
 8054POPC   D2A47440  11.264  19.860   6.750
 8054POPC   C3A47441  11.279  19.861   7.050
 8054POPC   C4A47442  11.291  19.795   7.350
 8054POPC   C1B47443  11.299  20.057   6.450
 8054POPC   C2B47444  11.302  20.064   6.750
 8054POPC   C3B47445  11.376  20.112   7.050
 8054POPC   C4B47446  11.344  20.048   7.350
 8055POPC   NC347447  39.271  41.537   5.550
 8055POPC   PO447448  39.262  41.578   5.850
 8055POPC   GL147449  39.277  41.522   6.150
 8055POPC   GL247450  39.379  41.641   6.150
 8055POPC   C1A47451  39.212  41.565   6.450
 8055POPC   D2A47452  39.182  41.513   6.750
 8055POPC   C3A47453  39.193  41.553   7.050
 8055POPC   C4A47454  39.261  41.591   7.350
 8055POPC   C1B47455  39.477  41.663   6.450
 8055POPC   C2B47456  39.430  41.697   6.750
 8055POPC   C3B47457  39.499  41.657   7.050
 8055POPC   C4B47458  39.447  41.707   7.350
 8056POPC   NC347459  16.723   4.337   5.550
 8056POPC   PO447460  16.711   4.332   5.850
 8056POPC   GL147461  16.695   4.311   6.150
 8056POPC   GL247462  16.683   4.424   6.150
 8056POPC   C1A47463  16.754   4.275   6.450
 8056POPC   D2A47464  16.757   4.268   6.750
 8056POPC   C3A47465  16.749   4.365   7.050
 8056POPC   C4A47466  16.749   4.272   7.350
 8056POPC   C1B47467  16.698   4.615   6.450
 8056POPC   C2B47468  16.699   4.523   6.750
 8056POPC   C3B47469  16.653   4.531   7.050
 8056POPC   C4B47470  16.746   4.580   7.350
 8057POPC   NC347471  40.813   2.743   5.550
 8057POPC   PO447472  40.756   2.799   5.850
 8057POPC   GL147473  40.828   2.814   6.150
 8057POPC   GL247474  40.858   2.700   6.150
 8057POPC   C1A47475  40.756   2.736   6.450
 8057POPC   D2A47476  40.829   2.747   6.750
 8057POPC   C3A47477  40.767   2.782   7.050
 8057POPC   C4A47478  40.831   2.747   7.350
 8057POPC   C1B47479  40.958   2.585   6.450
 8057POPC   C2B47480  40.985   2.562   6.750
 8057POPC   C3B47481  40.908   2.599   7.050
 8057POPC   C4B47482  40.923   2.596   7.350
 8058POPC   NC347483  43.090   2.734   5.550
 8058POPC   PO447484  43.092   2.768   5.850
 8058POPC   GL147485  43.150   2.745   6.150
 8058POPC   GL247486  43.113   2.607   6.150
 8058POPC   C1A47487  43.157   2.786   6.450
 8058POPC   D2A47488  43.108   2.743   6.750
 8058POPC   C3A47489  43.128   2.749   7.050
 8058POPC   C4A47490  43.152   2.766   7.350
 8058POPC   C1B47491  43.095   2.508   6.450
 8058POPC   C2B47492  43.128   2.509   6.750
 8058POPC   C3B47493  43.080   2.563   7.050
 8058POPC   C4B47494  43.099   2.559   7.350
 8059POPC   NC347495  13.670  15.226   5.550
 8059POPC   PO447496  13.608  15.226   5.850
 8059POPC   GL147497  13.651  15.140   6.150
 8059POPC   GL247498  13.737  15.092   6.150
 8059POPC   C1A47499  13.628  15.181   6.450
 8059POPC   D2A47500  13.613  15.140   6.750
 8059POPC   C3A47501  13.676  15.224   7.050
 8059POPC   C4A47502  13.605  15.182   7.350
 8059POPC   C1B47503  13.755  14.972   6.450
 8059POPC   C2B47504  13.812  15.011   6.750
 8059POPC   C3B47505  13.773  15.048   7.050
 8059POPC   C4B47506  13.779  15.044   7.350
 8060POPC   NC347507  22.185  32.247   5.550
 8060POPC   PO447508  22.164  32.200   5.850
 8060POPC   GL147509  22.171  32.209   6.150
 8060POPC   GL247510  22.137  32.107   6.150
 8060POPC   C1A47511  22.194  32.256   6.450
 8060POPC   D2A47512  22.175  32.279   6.750
 8060POPC   C3A47513  22.188  32.279   7.050
 8060POPC   C4A47514  22.180  32.235   7.350
 8060POPC   C1B47515  22.185  31.959   6.450
 8060POPC   C2B47516  22.245  31.964   6.750
 8060POPC   C3B47517  22.218  31.979   7.050
 8060POPC   C4B47518  22.212  32.020   7.350
 8061POPC   NC347519  29.194  21.423   5.550
 8061POPC   PO447520  29.167  21.343   5.850
 8061POPC   GL147521  29.191  21.351   6.150
 8061POPC   GL247522  29.179  21.532   6.150
 8061POPC   C1A47523  29.133  21.416   6.450
 8061POPC   D2A47524  29.183  21.351   6.750
 8061POPC   C3A47525  29.107  21.362   7.050
 8061POPC   C4A47526  29.099  21.355   7.350
 8061POPC   C1B47527  29.135  21.677   6.450
 8061POPC   C2B47528  29.112  21.606   6.750
 8061POPC   C3B47529  29.140  21.677   7.050
 8061POPC   C4B47530  29.113  21.665   7.350
 8062POPC   NC347531  19.034  12.052   5.550
 8062POPC   PO447532  19.066  12.115   5.850
 8062POPC   GL147533  19.062  12.061   6.150
 8062POPC   GL247534  19.181  12.009   6.150
 8062POPC   C1A47535  19.031  12.078   6.450
 8062POPC   D2A47536  19.019  12.073   6.750
 8062POPC   C3A47537  19.101  12.097   7.050
 8062POPC   C4A47538  19.075  12.068   7.350
 8062POPC   C1B47539  19.263  12.016   6.450
 8062POPC   C2B47540  19.318  12.041   6.750
 8062POPC   C3B47541  19.333  12.011   7.050
 8062POPC   C4B47542  19.320  12.034   7.350
 8063POPC   NC347543   7.374   9.738   5.550
 8063POPC   PO447544   7.377   9.703   5.850
 8063POPC   GL147545   7.393   9.766   6.150
 8063POPC   GL247546   7.312   9.693   6.150
 8063POPC   C1A47547   7.387   9.779   6.450
 8063POPC   D2A47548   7.434   9.732   6.750
 8063POPC   C3A47549   7.462   9.735   7.050
 8063POPC   C4A47550   7.401   9.794   7.350
 8063POPC   C1B47551   7.180   9.737   6.450
 8063POPC   C2B47552   7.186   9.718   6.750
 8063POPC   C3B47553   7.151   9.727   7.050
 8063POPC   C4B47554   7.221   9.651   7.350
 8064POPC   NC347555  25.298   8.233   5.550
 8064POPC   PO447556  25.310   8.226   5.850
 8064POPC   GL147557  25.233   8.236   6.150
 8064POPC   GL247558  25.384   8.291   6.150
 8064POPC   C1A47559  25.229   8.232   6.450
 8064POPC   D2A47560  25.303   8.160   6.750
 8064POPC   C3A47561  25.238   8.231   7.050
 8064POPC   C4A47562  25.232   8.161   7.350
 8064POPC   C1B47563  25.478   8.334   6.450
 8064POPC   C2B47564  25.474   8.346   6.750
 8064POPC   C3B47565  25.507   8.366   7.050
 8064POPC   C4B47566  25.515   8.340   7.350
 8065POPC   NC347567  39.274  19.103   5.550
 8065POPC   PO447568  39.245  19.073   5.850
 8065POPC   GL147569  39.273  19.091   6.150
 8065POPC   GL247570  39.248  18.976   6.150
 8065POPC   C1A47571  39.250  19.104   6.450
 8065POPC   D2A47572  39.250  19.021   6.750
 8065POPC   C3A47573  39.223  19.052   7.050
 8065POPC   C4A47574  39.279  19.079   7.350
 8065POPC   C1B47575  39.340  18.832   6.450
 8065POPC   C2B47576  39.347  18.855   6.750
 8065POPC   C3B47577  39.351  18.820   7.050
 8065POPC   C4B47578  39.360  18.841   7.350
 8066POPC   NC347579   5.046  24.507   5.550
 8066POPC   PO447580   5.053  24.461   5.850
 8066POPC   GL147581   5.129  24.514   6.150
 8066POPC   GL247582   5.098  24.362   6.150
 8066POPC   C1A47583   5.129  24.487   6.450
 8066POPC   D2A47584   5.047  24.512   6.750
 8066POPC   C3A47585   5.143  24.488   7.050
 8066POPC   C4A47586   5.129  24.514   7.350
 8066POPC   C1B47587   5.082  24.284   6.450
 8066POPC   C2B47588   5.097  24.282   6.750
 8066POPC   C3B47589   5.095  24.287   7.050
 8066POPC   C4B47590   5.081  24.203   7.350
 8067POPC   NC347591   8.950  32.264   5.550
 8067POPC   PO447592   8.947  32.296   5.850
 8067POPC   GL147593   8.963  32.276   6.150
 8067POPC   GL247594   9.088  32.271   6.150
 8067POPC   C1A47595   9.017  32.255   6.450
 8067POPC   D2A47596   8.956  32.239   6.750
 8067POPC   C3A47597   8.979  32.234   7.050
 8067POPC   C4A47598   8.990  32.263   7.350
 8067POPC   C1B47599   9.191  32.362   6.450
 8067POPC   C2B47600   9.171  32.343   6.750
 8067POPC   C3B47601   9.182  32.382   7.050
 8067POPC   C4B47602   9.211  32.375   7.350
 8068POPC   NC347603  19.837  31.493   5.550
 8068POPC   PO447604  19.879  31.474   5.850
 8068POPC   GL147605  19.877  31.484   6.150
 8068POPC   GL247606  19.821  31.571   6.150
 8068POPC   C1A47607  19.802  31.452   6.450
 8068POPC   D2A47608  19.851  31.509   6.750
 8068POPC   C3A47609  19.827  31.426   7.050
 8068POPC   C4A47610  19.829  31.436   7.350
 8068POPC   C1B47611  19.850  31.707   6.450
 8068POPC   C2B47612  19.777  31.698   6.750
 8068POPC   C3B47613  19.781  31.745   7.050
 8068POPC   C4B47614  19.802  31.714   7.350
 8069POPC   NC347615   3.551  19.106   5.550
 8069POPC   PO447616   3.499  19.062   5.850
 8069POPC   GL147617   3.537  19.061   6.150
 8069POPC   GL247618   3.618  19.020   6.150
 8069POPC   C1A47619   3.563  19.070   6.450
 8069POPC   D2A47620   3.493  19.105   6.750
 8069POPC   C3A47621   3.574  19.068   7.050
 8069POPC   C4A47622   3.500  19.062   7.350
 8069POPC   C1B47623   3.678  18.922   6.450
 8069POPC   C2B47624   3.684  18.856   6.750
 8069POPC   C3B47625   3.686  18.861   7.050
 8069POPC   C4B47626   3.746  18.937   7.350
 8070POPC   NC347627  32.985  21.376   5.550
 8070POPC   PO447628  32.979  21.406   5.850
 8070POPC   GL147629  33.051  21.423   6.150
 8070POPC   GL247630  32.954  21.448   6.150
 8070POPC   C1A47631  33.006  21.336   6.450
 8070POPC   D2A47632  33.000  21.434   6.750
 8070POPC   C3A47633  33.008  21.362   7.050
 8070POPC   C4A47634  32.981  21.406   7.350
 8070POPC   C1B47635  32.861  21.598   6.450
 8070POPC   C2B47636  32.848  21.522   6.750
 8070POPC   C3B47637  32.810  21.554   7.050
 8070POPC   C4B47638  32.869  21.563   7.350
 8071POPC   NC347639  15.969   1.221   5.550
 8071POPC   PO447640  15.946   1.171   5.850
 8071POPC   GL147641  15.956   1.169   6.150
 8071POPC   GL247642  16.091   1.214   6.150
 8071POPC   C1A47643  15.934   1.173   6.450
 8071POPC   D2A47644  15.948   1.232   6.750
 8071POPC   C3A47645  15.906   1.250   7.050
 8071POPC   C4A47646  15.928   1.181   7.350
 8071POPC   C1B47647  16.185   1.174   6.450
 8071POPC   C2B47648  16.178   1.221   6.750
 8071POPC   C3B47649  16.201   1.140   7.050
 8071POPC   C4B47650  16.198   1.196   7.350
 8072POPC   NC347651  17.497   5.851   5.550
 8072POPC   PO447652  17.479   5.909   5.850
 8072POPC   GL147653  17.477   5.829   6.150
 8072POPC   GL247654  17.387   5.769   6.150
 8072POPC   C1A47655  17.460   5.862   6.450
 8072POPC   D2A47656  17.462   5.829   6.750
 8072POPC   C3A47657  17.506   5.882   7.050
 8072POPC   C4A47658  17.515   5.884   7.350
 8072POPC   C1B47659  17.320   5.737   6.450
 8072POPC   C2B47660  17.329   5.679   6.750
 8072POPC   C3B47661  17.299   5.659   7.050
 8072POPC   C4B47662  17.313   5.690   7.350
 8073POPC   NC347663  38.449  41.536   5.550
 8073POPC   PO447664  38.483  41.558   5.850
 8073POPC   GL147665  38.501  41.585   6.150
 8073POPC   GL247666  38.609  41.584   6.150
 8073POPC   C1A47667  38.449  41.527   6.450
 8073POPC   D2A47668  38.495  41.543   6.750
 8073POPC   C3A47669  38.418  41.517   7.050
 8073POPC   C4A47670  38.476  41.591   7.350
 8073POPC   C1B47671  38.664  41.544   6.450
 8073POPC   C2B47672  38.728  41.492   6.750
 8073POPC   C3B47673  38.735  41.492   7.050
 8073POPC   C4B47674  38.746  41.568   7.350
 8074POPC   NC347675  12.053  26.016   5.550
 8074POPC   PO447676  12.111  26.088   5.850
 8074POPC   GL147677  12.049  25.996   6.150
 8074POPC   GL247678  12.058  25.970   6.150
 8074POPC   C1A47679  12.077  26.022   6.450
 8074POPC   D2A47680  12.094  25.995   6.750
 8074POPC   C3A47681  12.091  26.010   7.050
 8074POPC   C4A47682  12.097  26.061   7.350
 8074POPC   C1B47683  12.184  25.803   6.450
 8074POPC   C2B47684  12.144  25.769   6.750
 8074POPC   C3B47685  12.158  25.774   7.050
 8074POPC   C4B47686  12.100  25.809   7.350
 8075POPC   NC347687  19.091   0.452   5.550
 8075POPC   PO447688  19.027   0.409   5.850
 8075POPC   GL147689  19.107   0.472   6.150
 8075POPC   GL247690  18.943   0.404   6.150
 8075POPC   C1A47691  19.025   0.407   6.450
 8075POPC   D2A47692  19.025   0.422   6.750
 8075POPC   C3A47693  19.044   0.465   7.050
 8075POPC   C4A47694  19.047   0.460   7.350
 8075POPC   C1B47695  18.864   0.274   6.450
 8075POPC   C2B47696  18.831   0.351   6.750
 8075POPC   C3B47697  18.843   0.286   7.050
 8075POPC   C4B47698  18.805   0.307   7.350
 8076POPC   NC347699  24.488   9.791   5.550
 8076POPC   PO447700  24.518   9.731   5.850
 8076POPC   GL147701  24.493   9.700   6.150
 8076POPC   GL247702  24.426   9.883   6.150
 8076POPC   C1A47703  24.452   9.713   6.450
 8076POPC   D2A47704  24.514   9.710   6.750
 8076POPC   C3A47705  24.524   9.761   7.050
 8076POPC   C4A47706  24.526   9.758   7.350
 8076POPC   C1B47707  24.294   9.968   6.450
 8076POPC   C2B47708  24.293   9.937   6.750
 8076POPC   C3B47709  24.336   9.906   7.050
 8076POPC   C4B47710  24.284   9.910   7.350
 8077POPC   NC347711  40.022  33.012   5.550
 8077POPC   PO447712  39.988  33.014   5.850
 8077POPC   GL147713  39.968  32.998   6.150
 8077POPC   GL247714  39.876  33.057   6.150
 8077POPC   C1A47715  39.990  32.980   6.450
 8077POPC   D2A47716  39.996  33.008   6.750
 8077POPC   C3A47717  40.037  33.070   7.050
 8077POPC   C4A47718  40.019  33.019   7.350
 8077POPC   C1B47719  39.783  33.109   6.450
 8077POPC   C2B47720  39.762  33.145   6.750
 8077POPC   C3B47721  39.778  33.117   7.050
 8077POPC   C4B47722  39.807  33.119   7.350
 8078POPC   NC347723   5.861   9.021   5.550
 8078POPC   PO447724   5.900   9.018   5.850
 8078POPC   GL147725   5.865   9.017   6.150
 8078POPC   GL247726   5.972   9.045   6.150
 8078POPC   C1A47727   5.883   8.968   6.450
 8078POPC   D2A47728   5.828   9.011   6.750
 8078POPC   C3A47729   5.870   9.016   7.050
 8078POPC   C4A47730   5.836   8.937   7.350
 8078POPC   C1B47731   5.995   9.202   6.450
 8078POPC   C2B47732   6.011   9.164   6.750
 8078POPC   C3B47733   5.997   9.242   7.050
 8078POPC   C4B47734   5.991   9.148   7.350
 8079POPC   NC347735  20.585  28.340   5.550
 8079POPC   PO447736  20.647  28.356   5.850
 8079POPC   GL147737  20.607  28.346   6.150
 8079POPC   GL247738  20.572  28.262   6.150
 8079POPC   C1A47739  20.607  28.350   6.450
 8079POPC   D2A47740  20.587  28.352   6.750
 8079POPC   C3A47741  20.644  28.395   7.050
 8079POPC   C4A47742  20.585  28.410   7.350
 8079POPC   C1B47743  20.426  28.208   6.450
 8079POPC   C2B47744  20.476  28.172   6.750
 8079POPC   C3B47745  20.445  28.149   7.050
 8079POPC   C4B47746  20.412  28.166   7.350
 8080POPC   NC347747  33.766  31.497   5.550
 8080POPC   PO447748  33.777  31.492   5.850
 8080POPC   GL147749  33.780  31.472   6.150
 8080POPC   GL247750  33.878  31.535   6.150
 8080POPC   C1A47751  33.805  31.508   6.450
 8080POPC   D2A47752  33.756  31.472   6.750
 8080POPC   C3A47753  33.848  31.491   7.050
 8080POPC   C4A47754  33.773  31.423   7.350
 8080POPC   C1B47755  33.975  31.642   6.450
 8080POPC   C2B47756  33.953  31.609   6.750
 8080POPC   C3B47757  34.018  31.645   7.050
 8080POPC   C4B47758  33.985  31.676   7.350
 8081POPC   NC347759  40.009  19.046   5.550
 8081POPC   PO447760  40.047  19.099   5.850
 8081POPC   GL147761  40.004  19.040   6.150
 8081POPC   GL247762  40.103  19.028   6.150
 8081POPC   C1A47763  39.980  19.072   6.450
 8081POPC   D2A47764  39.965  19.084   6.750
 8081POPC   C3A47765  39.997  19.047   7.050
 8081POPC   C4A47766  39.977  19.065   7.350
 8081POPC   C1B47767  40.280  19.008   6.450
 8081POPC   C2B47768  40.231  18.960   6.750
 8081POPC   C3B47769  40.230  18.958   7.050
 8081POPC   C4B47770  40.273  19.016   7.350
 8082POPC   NC347771  27.572   8.219   5.550
 8082POPC   PO447772  27.643   8.240   5.850
 8082POPC   GL147773  27.563   8.212   6.150
 8082POPC   GL247774  27.444   8.172   6.150
 8082POPC   C1A47775  27.574   8.236   6.450
 8082POPC   D2A47776  27.581   8.157   6.750
 8082POPC   C3A47777  27.618   8.179   7.050
 8082POPC   C4A47778  27.571   8.211   7.350
 8082POPC   C1B47779  27.406   8.079   6.450
 8082POPC   C2B47780  27.388   8.043   6.750
 8082POPC   C3B47781  27.419   8.018   7.050
 8082POPC   C4B47782  27.406   8.087   7.350
 8083POPC   NC347783  33.779  15.951   5.550
 8083POPC   PO447784  33.752  15.906   5.850
 8083POPC   GL147785  33.794  15.971   6.150
 8083POPC   GL247786  33.819  15.793   6.150
 8083POPC   C1A47787  33.777  15.921   6.450
 8083POPC   D2A47788  33.785  15.985   6.750
 8083POPC   C3A47789  33.824  15.950   7.050
 8083POPC   C4A47790  33.831  15.995   7.350
 8083POPC   C1B47791  33.912  15.719   6.450
 8083POPC   C2B47792  33.908  15.681   6.750
 8083POPC   C3B47793  33.825  15.696   7.050
 8083POPC   C4B47794  33.887  15.749   7.350
 8084POPC   NC347795  43.901   1.215   5.550
 8084POPC   PO447796  43.873   1.238   5.850
 8084POPC   GL147797  43.929   1.242   6.150
 8084POPC   GL247798  43.757   1.220   6.150
 8084POPC   C1A47799  43.856   1.184   6.450
 8084POPC   D2A47800  43.894   1.246   6.750
 8084POPC   C3A47801  43.864   1.263   7.050
 8084POPC   C4A47802  43.879   1.234   7.350
 8084POPC   C1B47803  43.621   1.343   6.450
 8084POPC   C2B47804  43.649   1.253   6.750
 8084POPC   C3B47805  43.640   1.250   7.050
 8084POPC   C4B47806  43.665   1.269   7.350
 8085POPC   NC347807   8.930   5.063   5.550
 8085POPC   PO447808   8.967   5.094   5.850
 8085POPC   GL147809   8.981   5.049   6.150
 8085POPC   GL247810   9.073   5.067   6.150
 8085POPC   C1A47811   8.962   5.094   6.450
 8085POPC   D2A47812   8.945   5.111   6.750
 8085POPC   C3A47813   8.964   5.131   7.050
 8085POPC   C4A47814   8.968   5.093   7.350
 8085POPC   C1B47815   9.198   5.044   6.450
 8085POPC   C2B47816   9.242   5.041   6.750
 8085POPC   C3B47817   9.229   5.046   7.050
 8085POPC   C4B47818   9.221   5.031   7.350
 8086POPC   NC347819  35.309  16.759   5.550
 8086POPC   PO447820  35.365  16.716   5.850
 8086POPC   GL147821  35.324  16.757   6.150
 8086POPC   GL247822  35.218  16.657   6.150
 8086POPC   C1A47823  35.350  16.692   6.450
 8086POPC   D2A47824  35.312  16.776   6.750
 8086POPC   C3A47825  35.398  16.700   7.050
 8086POPC   C4A47826  35.385  16.740   7.350
 8086POPC   C1B47827  35.172  16.568   6.450
 8086POPC   C2B47828  35.147  16.552   6.750
 8086POPC   C3B47829  35.203  16.563   7.050
 8086POPC   C4B47830  35.119  16.609   7.350
 8087POPC   NC347831  34.606   8.189   5.550
 8087POPC   PO447832  34.533   8.209   5.850
 8087POPC   GL147833  34.532   8.232   6.150
 8087POPC   GL247834  34.652   8.250   6.150
 8087POPC   C1A47835  34.560   8.208   6.450
 8087POPC   D2A47836  34.561   8.168   6.750
 8087POPC   C3A47837  34.534   8.225   7.050
 8087POPC   C4A47838  34.624   8.165   7.350
 8087POPC   C1B47839  34.742   8.321   6.450
 8087POPC   C2B47840  34.835   8.365   6.750
 8087POPC   C3B47841  34.761   8.300   7.050
 8087POPC   C4B47842  34.817   8.359   7.350
 8088POPC   NC347843   8.175  30.703   5.550
 8088POPC   PO447844   8.171  30.691   5.850
 8088POPC   GL147845   8.160  30.729   6.150
 8088POPC   GL247846   8.243  30.823   6.150
 8088POPC   C1A47847   8.191  30.727   6.450
 8088POPC   D2A47848   8.226  30.702   6.750
 8088POPC   C3A47849   8.196  30.684   7.050
 8088POPC   C4A47850   8.216  30.669   7.350
 8088POPC   C1B47851   8.197  30.987   6.450
 8088POPC   C2B47852   8.169  30.923   6.750
 8088POPC   C3B47853   8.223  30.942   7.050
 8088POPC   C4B47854   8.180  30.965   7.350
 8089POPC   NC347855   1.209  26.067   5.550
 8089POPC   PO447856   1.262  26.091   5.850
 8089POPC   GL147857   1.191  26.047   6.150
 8089POPC   GL247858   1.090  26.061   6.150
 8089POPC   C1A47859   1.189  26.025   6.450
 8089POPC   D2A47860   1.177  26.050   6.750
 8089POPC   C3A47861   1.186  26.065   7.050
 8089POPC   C4A47862   1.183  25.993   7.350
 8089POPC   C1B47863   0.933  26.028   6.450
 8089POPC   C2B47864   0.928  25.956   6.750
 8089POPC   C3B47865   0.992  26.000   7.050
 8089POPC   C4B47866   1.002  26.010   7.350
 8090POPC   NC347867   4.328  33.000   5.550
 8090POPC   PO447868   4.305  33.006   5.850
 8090POPC   GL147869   4.329  32.987   6.150
 8090POPC   GL247870   4.213  33.055   6.150
 8090POPC   C1A47871   4.323  32.995   6.450
 8090POPC   D2A47872   4.269  32.976   6.750
 8090POPC   C3A47873   4.352  33.059   7.050
 8090POPC   C4A47874   4.311  33.005   7.350
 8090POPC   C1B47875   4.062  33.155   6.450
 8090POPC   C2B47876   4.086  33.102   6.750
 8090POPC   C3B47877   4.069  33.182   7.050
 8090POPC   C4B47878   4.141  33.172   7.350
 8091POPC   NC347879  28.409  17.525   5.550
 8091POPC   PO447880  28.322  17.553   5.850
 8091POPC   GL147881  28.379  17.529   6.150
 8091POPC   GL247882  28.382  17.607   6.150
 8091POPC   C1A47883  28.369  17.543   6.450
 8091POPC   D2A47884  28.350  17.511   6.750
 8091POPC   C3A47885  28.324  17.461   7.050
 8091POPC   C4A47886  28.350  17.499   7.350
 8091POPC   C1B47887  28.416  17.742   6.450
 8091POPC   C2B47888  28.436  17.768   6.750
 8091POPC   C3B47889  28.414  17.730   7.050
 8091POPC   C4B47890  28.478  17.793   7.350
 8092POPC   NC347891  13.593  40.782   5.550
 8092POPC   PO447892  13.578  40.733   5.850
 8092POPC   GL147893  13.579  40.770   6.150
 8092POPC   GL247894  13.511  40.874   6.150
 8092POPC   C1A47895  13.662  40.830   6.450
 8092POPC   D2A47896  13.624  40.809   6.750
 8092POPC   C3A47897  13.632  40.781   7.050
 8092POPC   C4A47898  13.609  40.795   7.350
 8092POPC   C1B47899  13.476  40.938   6.450
 8092POPC   C2B47900  13.471  40.990   6.750
 8092POPC   C3B47901  13.517  40.979   7.050
 8092POPC   C4B47902  13.518  41.010   7.350
 8093POPC   NC347903  36.120   5.121   5.550
 8093POPC   PO447904  36.159   5.096   5.850
 8093POPC   GL147905  36.090   5.078   6.150
 8093POPC   GL247906  36.218   5.161   6.150
 8093POPC   C1A47907  36.135   5.117   6.450
 8093POPC   D2A47908  36.116   5.080   6.750
 8093POPC   C3A47909  36.146   5.120   7.050
 8093POPC   C4A47910  36.085   5.100   7.350
 8093POPC   C1B47911  36.311   5.270   6.450
 8093POPC   C2B47912  36.281   5.344   6.750
 8093POPC   C3B47913  36.235   5.302   7.050
 8093POPC   C4B47914  36.305   5.295   7.350
 8094POPC   NC347915  22.134  11.279   5.550
 8094POPC   PO447916  22.128  11.330   5.850
 8094POPC   GL147917  22.208  11.266   6.150
 8094POPC   GL247918  22.072  11.334   6.150
 8094POPC   C1A47919  22.133  11.330   6.450
 8094POPC   D2A47920  22.171  11.259   6.750
 8094POPC   C3A47921  22.140  11.345   7.050
 8094POPC   C4A47922  22.140  11.306   7.350
 8094POPC   C1B47923  21.923  11.289   6.450
 8094POPC   C2B47924  21.946  11.327   6.750
 8094POPC   C3B47925  21.886  11.333   7.050
 8094POPC   C4B47926  21.949  11.295   7.350
 8095POPC   NC347927  11.274  40.738   5.550
 8095POPC   PO447928  11.332  40.768   5.850
 8095POPC   GL147929  11.332  40.833   6.150
 8095POPC   GL247930  11.419  40.781   6.150
 8095POPC   C1A47931  11.265  40.801   6.450
 8095POPC   D2A47932  11.290  40.760   6.750
 8095POPC   C3A47933  11.307  40.782   7.050
 8095POPC   C4A47934  11.350  40.778   7.350
 8095POPC   C1B47935  11.523  40.833   6.450
 8095POPC   C2B47936  11.568  40.846   6.750
 8095POPC   C3B47937  11.596  40.783   7.050
 8095POPC   C4B47938  11.576  40.846   7.350
 8096POPC   NC347939   1.222  24.470   5.550
 8096POPC   PO447940   1.212  24.485   5.850
 8096POPC   GL147941   1.229  24.504   6.150
 8096POPC   GL247942   1.364  24.514   6.150
 8096POPC   C1A47943   1.253  24.493   6.450
 8096POPC   D2A47944   1.179  24.480   6.750
 8096POPC   C3A47945   1.258  24.514   7.050
 8096POPC   C4A47946   1.255  24.507   7.350
 8096POPC   C1B47947   1.506  24.553   6.450
 8096POPC   C2B47948   1.462  24.507   6.750
 8096POPC   C3B47949   1.464  24.523   7.050
 8096POPC   C4B47950   1.495  24.567   7.350
 8097POPC   NC347951  11.322  16.780   5.550
 8097POPC   PO447952  11.310  16.687   5.850
 8097POPC   GL147953  11.260  16.712   6.150
 8097POPC   GL247954  11.201  16.610   6.150
 8097POPC   C1A47955  11.330  16.724   6.450
 8097POPC   D2A47956  11.313  16.765   6.750
 8097POPC   C3A47957  11.253  16.743   7.050
 8097POPC   C4A47958  11.319  16.766   7.350
 8097POPC   C1B47959  11.206  16.560   6.450
 8097POPC   C2B47960  11.189  16.541   6.750
 8097POPC   C3B47961  11.147  16.502   7.050
 8097POPC   C4B47962  11.166  16.491   7.350
 8098POPC   NC347963  19.071  35.371   5.550
 8098POPC   PO447964  19.093  35.366   5.850
 8098POPC   GL147965  19.075  35.394   6.150
 8098POPC   GL247966  19.087  35.279   6.150
 8098POPC   C1A47967  19.038  35.365   6.450
 8098POPC   D2A47968  19.056  35.352   6.750
 8098POPC   C3A47969  19.046  35.387   7.050
 8098POPC   C4A47970  19.027  35.361   7.350
 8098POPC   C1B47971  19.149  35.106   6.450
 8098POPC   C2B47972  19.214  35.106   6.750
 8098POPC   C3B47973  19.174  35.088   7.050
 8098POPC   C4B47974  19.143  35.114   7.350
 8099POPC   NC347975   5.073  29.913   5.550
 8099POPC   PO447976   5.058  29.959   5.850
 8099POPC   GL147977   5.081  29.931   6.150
 8099POPC   GL247978   5.048  30.033   6.150
 8099POPC   C1A47979   5.130  29.896   6.450
 8099POPC   D2A47980   5.076  29.893   6.750
 8099POPC   C3A47981   5.132  29.894   7.050
 8099POPC   C4A47982   5.133  29.910   7.350
 8099POPC   C1B47983   5.021  30.181   6.450
 8099POPC   C2B47984   5.113  30.217   6.750
 8099POPC   C3B47985   5.018  30.153   7.050
 8099POPC   C4B47986   5.106  30.166   7.350
 8100POPC   NC347987  34.580  16.683   5.550
 8100POPC   PO447988  34.536  16.727   5.850
 8100POPC   GL147989  34.564  16.686   6.150
 8100POPC   GL247990  34.483  16.644   6.150
 8100POPC   C1A47991  34.548  16.701   6.450
 8100POPC   D2A47992  34.597  16.687   6.750
 8100POPC   C3A47993  34.538  16.770   7.050
 8100POPC   C4A47994  34.542  16.758   7.350
 8100POPC   C1B47995  34.378  16.642   6.450
 8100POPC   C2B47996  34.326  16.594   6.750
 8100POPC   C3B47997  34.389  16.582   7.050
 8100POPC   C4B47998  34.380  16.678   7.350
 8101POPC   NC347999  39.272  33.827   5.550
 8101POPC   PO448000  39.262  33.840   5.850
 8101POPC   GL148001  39.181  33.782   6.150
 8101POPC   GL248002  39.174  33.905   6.150
 8101POPC   C1A48003  39.181  33.806   6.450
 8101POPC   D2A48004  39.226  33.814   6.750
 8101POPC   C3A48005  39.248  33.848   7.050
 8101POPC   C4A48006  39.233  33.824   7.350
 8101POPC   C1B48007  39.207  34.072   6.450
 8101POPC   C2B48008  39.204  34.044   6.750
 8101POPC   C3B48009  39.174  34.047   7.050
 8101POPC   C4B48010  39.137  33.990   7.350
 8102POPC   NC348011   6.662  39.233   5.550
 8102POPC   PO448012   6.602  39.237   5.850
 8102POPC   GL148013   6.690  39.220   6.150
 8102POPC   GL248014   6.697  39.088   6.150
 8102POPC   C1A48015   6.634  39.205   6.450
 8102POPC   D2A48016   6.668  39.209   6.750
 8102POPC   C3A48017   6.668  39.276   7.050
 8102POPC   C4A48018   6.681  39.186   7.350
 8102POPC   C1B48019   6.715  38.993   6.450
 8102POPC   C2B48020   6.757  38.976   6.750
 8102POPC   C3B48021   6.745  38.956   7.050
 8102POPC   C4B48022   6.760  39.028   7.350
 8103POPC   NC348023  35.305  13.673   5.550
 8103POPC   PO448024  35.335  13.630   5.850
 8103POPC   GL148025  35.380  13.650   6.150
 8103POPC   GL248026  35.352  13.761   6.150
 8103POPC   C1A48027  35.330  13.654   6.450
 8103POPC   D2A48028  35.401  13.656   6.750
 8103POPC   C3A48029  35.368  13.654   7.050
 8103POPC   C4A48030  35.309  13.627   7.350
 8103POPC   C1B48031  35.335  13.833   6.450
 8103POPC   C2B48032  35.373  13.833   6.750
 8103POPC   C3B48033  35.325  13.889   7.050
 8103POPC   C4B48034  35.358  13.883   7.350
 8104POPC   NC348035  24.529  19.810   5.550
 8104POPC   PO448036  24.478  19.858   5.850
 8104POPC   GL148037  24.527  19.829   6.150
 8104POPC   GL248038  24.637  19.785   6.150
 8104POPC   C1A48039  24.508  19.836   6.450
 8104POPC   D2A48040  24.457  19.874   6.750
 8104POPC   C3A48041  24.476  19.812   7.050
 8104POPC   C4A48042  24.504  19.825   7.350
 8104POPC   C1B48043  24.720  19.790   6.450
 8104POPC   C2B48044  24.753  19.824   6.750
 8104POPC   C3B48045  24.737  19.779   7.050
 8104POPC   C4B48046  24.759  19.839   7.350
 8105POPC   NC348047  10.494  18.299   5.550
 8105POPC   PO448048  10.534  18.299   5.850
 8105POPC   GL148049  10.542  18.263   6.150
 8105POPC   GL248050  10.512  18.439   6.150
 8105POPC   C1A48051  10.554  18.331   6.450
 8105POPC   D2A48052  10.475  18.289   6.750
 8105POPC   C3A48053  10.550  18.291   7.050
 8105POPC   C4A48054  10.525  18.235   7.350
 8105POPC   C1B48055  10.531  18.563   6.450
 8105POPC   C2B48056  10.538  18.544   6.750
 8105POPC   C3B48057  10.524  18.533   7.050
 8105POPC   C4B48058  10.499  18.580   7.350
 8106POPC   NC348059  31.521   2.024   5.550
 8106POPC   PO448060  31.470   1.999   5.850
 8106POPC   GL148061  31.464   1.943   6.150
 8106POPC   GL248062  31.599   2.051   6.150
 8106POPC   C1A48063  31.500   1.948   6.450
 8106POPC   D2A48064  31.459   2.032   6.750
 8106POPC   C3A48065  31.460   1.966   7.050
 8106POPC   C4A48066  31.466   1.979   7.350
 8106POPC   C1B48067  31.689   2.068   6.450
 8106POPC   C2B48068  31.753   2.079   6.750
 8106POPC   C3B48069  31.740   2.027   7.050
 8106POPC   C4B48070  31.759   2.075   7.350
 8107POPC   NC348071  35.311   5.900   5.550
 8107POPC   PO448072  35.333   5.887   5.850
 8107POPC   GL148073  35.372   5.825   6.150
 8107POPC   GL248074  35.437   6.000   6.150
 8107POPC   C1A48075  35.339   5.915   6.450
 8107POPC   D2A48076  35.350   5.875   6.750
 8107POPC   C3A48077  35.351   5.902   7.050
 8107POPC   C4A48078  35.389   5.835   7.350
 8107POPC   C1B48079  35.482   6.132   6.450
 8107POPC   C2B48080  35.474   6.105   6.750
 8107POPC   C3B48081  35.496   6.082   7.050
 8107POPC   C4B48082  35.419   6.141   7.350
 8108POPC   NC348083   7.371   2.005   5.550
 8108POPC   PO448084   7.378   1.973   5.850
 8108POPC   GL148085   7.468   1.966   6.150
 8108POPC   GL248086   7.312   2.125   6.150
 8108POPC   C1A48087   7.389   2.008   6.450
 8108POPC   D2A48088   7.428   1.956   6.750
 8108POPC   C3A48089   7.373   1.984   7.050
 8108POPC   C4A48090   7.447   1.984   7.350
 8108POPC   C1B48091   7.201   2.198   6.450
 8108POPC   C2B48092   7.263   2.146   6.750
 8108POPC   C3B48093   7.205   2.150   7.050
 8108POPC   C4B48094   7.212   2.126   7.350
 8109POPC   NC348095  12.096   8.946   5.550
 8109POPC   PO448096  12.074   8.963   5.850
 8109POPC   GL148097  12.097   8.960   6.150
 8109POPC   GL248098  12.206   8.980   6.150
 8109POPC   C1A48099  12.119   8.974   6.450
 8109POPC   D2A48100  12.064   9.001   6.750
 8109POPC   C3A48101  12.111   8.991   7.050
 8109POPC   C4A48102  12.096   8.925   7.350
 8109POPC   C1B48103  12.304   9.060   6.450
 8109POPC   C2B48104  12.348   9.043   6.750
 8109POPC   C3B48105  12.312   9.078   7.050
 8109POPC   C4B48106  12.342   9.059   7.350
 8110POPC   NC348107   4.276  10.484   5.550
 8110POPC   PO448108   4.282  10.503   5.850
 8110POPC   GL148109   4.320  10.552   6.150
 8110POPC   GL248110   4.232  10.570   6.150
 8110POPC   C1A48111   4.293  10.525   6.450
 8110POPC   D2A48112   4.293  10.484   6.750
 8110POPC   C3A48113   4.355  10.506   7.050
 8110POPC   C4A48114   4.360  10.496   7.350
 8110POPC   C1B48115   4.130  10.656   6.450
 8110POPC   C2B48116   4.096  10.661   6.750
 8110POPC   C3B48117   4.096  10.707   7.050
 8110POPC   C4B48118   4.158  10.727   7.350
 8111POPC   NC348119  31.501   5.842   5.550
 8111POPC   PO448120  31.520   5.881   5.850
 8111POPC   GL148121  31.460   5.850   6.150
 8111POPC   GL248122  31.361   5.904   6.150
 8111POPC   C1A48123  31.440   5.867   6.450
 8111POPC   D2A48124  31.458   5.852   6.750
 8111POPC   C3A48125  31.471   5.870   7.050
 8111POPC   C4A48126  31.483   5.897   7.350
 8111POPC   C1B48127  31.271   5.917   6.450
 8111POPC   C2B48128  31.264   5.828   6.750
 8111POPC   C3B48129  31.223   5.876   7.050
 8111POPC   C4B48130  31.185   5.918   7.350
 8112POPC   NC348131  36.092  10.504   5.550
 8112POPC   PO448132  36.123  10.560   5.850
 8112POPC   GL148133  36.153  10.573   6.150
 8112POPC   GL248134  36.220  10.513   6.150
 8112POPC   C1A48135  36.158  10.476   6.450
 8112POPC   D2A48136  36.102  10.571   6.750
 8112POPC   C3A48137  36.101  10.475   7.050
 8112POPC   C4A48138  36.145  10.489   7.350
 8112POPC   C1B48139  36.398  10.465   6.450
 8112POPC   C2B48140  36.409  10.522   6.750
 8112POPC   C3B48141  36.358  10.523   7.050
 8112POPC   C4B48142  36.335  10.530   7.350
 8113POPC   NC348143  16.749  36.145   5.550
 8113POPC   PO448144  16.777  36.136   5.850
 8113POPC   GL148145  16.727  36.158   6.150
 8113POPC   GL248146  16.678  36.277   6.150
 8113POPC   C1A48147  16.752  36.146   6.450
 8113POPC   D2A48148  16.754  36.152   6.750
 8113POPC   C3A48149  16.697  36.082   7.050
 8113POPC   C4A48150  16.709  36.128   7.350
 8113POPC   C1B48151  16.591  36.409   6.450
 8113POPC   C2B48152  16.606  36.331   6.750
 8113POPC   C3B48153  16.619  36.385   7.050
 8113POPC   C4B48154  16.658  36.360   7.350
 8114POPC   NC348155  11.250  10.492   5.550
 8114POPC   PO448156  11.251  10.548   5.850
 8114POPC   GL148157  11.301  10.562   6.150
 8114POPC   GL248158  11.258  10.657   6.150
 8114POPC   C1A48159  11.319  10.494   6.450
 8114POPC   D2A48160  11.337  10.550   6.750
 8114POPC   C3A48161  11.279  10.526   7.050
 8114POPC   C4A48162  11.274  10.552   7.350
 8114POPC   C1B48163  11.203  10.742   6.450
 8114POPC   C2B48164  11.194  10.763   6.750
 8114POPC   C3B48165  11.156  10.752   7.050
 8114POPC   C4B48166  11.198  10.750   7.350
 8115POPC   NC348167  15.156  12.845   5.550
 8115POPC   PO448168  15.185  12.869   5.850
 8115POPC   GL148169  15.228  12.851   6.150
 8115POPC   GL248170  15.082  12.907   6.150
 8115POPC   C1A48171  15.149  12.858   6.450
 8115POPC   D2A48172  15.197  12.810   6.750
 8115POPC   C3A48173  15.130  12.819   7.050
 8115POPC   C4A48174  15.158  12.867   7.350
 8115POPC   C1B48175  15.001  13.033   6.450
 8115POPC   C2B48176  14.974  13.034   6.750
 8115POPC   C3B48177  15.041  13.003   7.050
 8115POPC   C4B48178  14.989  13.035   7.350
 8116POPC   NC348179  43.886   0.433   5.550
 8116POPC   PO448180  43.919   0.450   5.850
 8116POPC   GL148181  43.924   0.408   6.150
 8116POPC   GL248182  43.744   0.425   6.150
 8116POPC   C1A48183  43.889   0.418   6.450
 8116POPC   D2A48184  43.852   0.438   6.750
 8116POPC   C3A48185  43.847   0.430   7.050
 8116POPC   C4A48186  43.892   0.468   7.350
 8116POPC   C1B48187  43.611   0.467   6.450
 8116POPC   C2B48188  43.673   0.482   6.750
 8116POPC   C3B48189  43.669   0.521   7.050
 8116POPC   C4B48190  43.634   0.460   7.350
 8117POPC   NC348191  16.776  41.516   5.550
 8117POPC   PO448192  16.734  41.525   5.850
 8117POPC   GL148193  16.767  41.518   6.150
 8117POPC   GL248194  16.693  41.674   6.150
 8117POPC   C1A48195  16.726  41.585   6.450
 8117POPC   D2A48196  16.775  41.588   6.750
 8117POPC   C3A48197  16.768  41.577   7.050
 8117POPC   C4A48198  16.700  41.586   7.350
 8117POPC   C1B48199  16.595  41.752   6.450
 8117POPC   C2B48200  16.598  41.762   6.750
 8117POPC   C3B48201  16.552  41.743   7.050
 8117POPC   C4B48202  16.631  41.738   7.350
 8118POPC   NC348203  35.383  33.847   5.550
 8118POPC   PO448204  35.317  33.751   5.850
 8118POPC   GL148205  35.402  33.772   6.150
 8118POPC   GL248206  35.448  33.736   6.150
 8118POPC   C1A48207  35.372  33.757   6.450
 8118POPC   D2A48208  35.375  33.787   6.750
 8118POPC   C3A48209  35.309  33.768   7.050
 8118POPC   C4A48210  35.378  33.819   7.350
 8118POPC   C1B48211  35.521  33.684   6.450
 8118POPC   C2B48212  35.543  33.687   6.750
 8118POPC   C3B48213  35.602  33.707   7.050
 8118POPC   C4B48214  35.519  33.637   7.350
 8119POPC   NC348215  29.187   0.453   5.550
 8119POPC   PO448216  29.174   0.430   5.850
 8119POPC   GL148217  29.128   0.416   6.150
 8119POPC   GL248218  29.050   0.460   6.150
 8119POPC   C1A48219  29.192   0.476   6.450
 8119POPC   D2A48220  29.136   0.443   6.750
 8119POPC   C3A48221  29.137   0.435   7.050
 8119POPC   C4A48222  29.110   0.440   7.350
 8119POPC   C1B48223  28.945   0.563   6.450
 8119POPC   C2B48224  28.924   0.542   6.750
 8119POPC   C3B48225  28.901   0.537   7.050
 8119POPC   C4B48226  28.952   0.565   7.350
 8120POPC   NC348227  18.264  18.276   5.550
 8120POPC   PO448228  18.330  18.239   5.850
 8120POPC   GL148229  18.293  18.280   6.150
 8120POPC   GL248230  18.212  18.266   6.150
 8120POPC   C1A48231  18.275  18.312   6.450
 8120POPC   D2A48232  18.239  18.279   6.750
 8120POPC   C3A48233  18.321  18.316   7.050
 8120POPC   C4A48234  18.279  18.261   7.350
 8120POPC   C1B48235  18.089  18.222   6.450
 8120POPC   C2B48236  18.022  18.165   6.750
 8120POPC   C3B48237  18.073  18.210   7.050
 8120POPC   C4B48238  18.049  18.190   7.350
 8121POPC   NC348239  36.886  30.732   5.550
 8121POPC   PO448240  36.856  30.729   5.850
 8121POPC   GL148241  36.916  30.676   6.150
 8121POPC   GL248242  36.921  30.633   6.150
 8121POPC   C1A48243  36.895  30.739   6.450
 8121POPC   D2A48244  36.919  30.688   6.750
 8121POPC   C3A48245  36.886  30.702   7.050
 8121POPC   C4A48246  36.856  30.650   7.350
 8121POPC   C1B48247  37.001  30.462   6.450
 8121POPC   C2B48248  37.025  30.441   6.750
 8121POPC   C3B48249  36.976  30.482   7.050
 8121POPC   C4B48250  37.016  30.486   7.350
 8122POPC   NC348251  21.412  29.178   5.550
 8122POPC   PO448252  21.418  29.193   5.850
 8122POPC   GL148253  21.350  29.153   6.150
 8122POPC   GL248254  21.458  29.228   6.150
 8122POPC   C1A48255  21.421  29.099   6.450
 8122POPC   D2A48256  21.396  29.116   6.750
 8122POPC   C3A48257  21.409  29.107   7.050
 8122POPC   C4A48258  21.418  29.141   7.350
 8122POPC   C1B48259  21.545  29.248   6.450
 8122POPC   C2B48260  21.613  29.256   6.750
 8122POPC   C3B48261  21.632  29.338   7.050
 8122POPC   C4B48262  21.586  29.293   7.350
 8123POPC   NC348263   6.642   2.807   5.550
 8123POPC   PO448264   6.658   2.786   5.850
 8123POPC   GL148265   6.659   2.745   6.150
 8123POPC   GL248266   6.528   2.840   6.150
 8123POPC   C1A48267   6.643   2.766   6.450
 8123POPC   D2A48268   6.619   2.809   6.750
 8123POPC   C3A48269   6.631   2.727   7.050
 8123POPC   C4A48270   6.665   2.720   7.350
 8123POPC   C1B48271   6.379   2.849   6.450
 8123POPC   C2B48272   6.432   2.883   6.750
 8123POPC   C3B48273   6.448   2.803   7.050
 8123POPC   C4B48274   6.394   2.837   7.350
 8124POPC   NC348275   8.985  19.817   5.550
 8124POPC   PO448276   8.997  19.824   5.850
 8124POPC   GL148277   8.971  19.845   6.150
 8124POPC   GL248278   9.045  19.756   6.150
 8124POPC   C1A48279   8.949  19.862   6.450
 8124POPC   D2A48280   8.945  19.851   6.750
 8124POPC   C3A48281   8.950  19.789   7.050
 8124POPC   C4A48282   8.970  19.823   7.350
 8124POPC   C1B48283   9.201  19.721   6.450
 8124POPC   C2B48284   9.160  19.688   6.750
 8124POPC   C3B48285   9.216  19.695   7.050
 8124POPC   C4B48286   9.194  19.723   7.350
 8125POPC   NC348287  29.926  28.372   5.550
 8125POPC   PO448288  29.873  28.366   5.850
 8125POPC   GL148289  29.911  28.334   6.150
 8125POPC   GL248290  29.800  28.412   6.150
 8125POPC   C1A48291  29.900  28.347   6.450
 8125POPC   D2A48292  29.927  28.407   6.750
 8125POPC   C3A48293  29.958  28.372   7.050
 8125POPC   C4A48294  29.935  28.405   7.350
 8125POPC   C1B48295  29.689  28.573   6.450
 8125POPC   C2B48296  29.763  28.511   6.750
 8125POPC   C3B48297  29.749  28.490   7.050
 8125POPC   C4B48298  29.752  28.534   7.350
 8126POPC   NC348299  15.148  36.868   5.550
 8126POPC   PO448300  15.196  36.936   5.850
 8126POPC   GL148301  15.206  36.876   6.150
 8126POPC   GL248302  15.309  36.838   6.150
 8126POPC   C1A48303  15.215  36.894   6.450
 8126POPC   D2A48304  15.185  36.856   6.750
 8126POPC   C3A48305  15.166  36.897   7.050
 8126POPC   C4A48306  15.163  36.897   7.350
 8126POPC   C1B48307  15.396  36.743   6.450
 8126POPC   C2B48308  15.345  36.695   6.750
 8126POPC   C3B48309  15.305  36.751   7.050
 8126POPC   C4B48310  15.350  36.751   7.350
 8127POPC   NC348311  15.199   3.572   5.550
 8127POPC   PO448312  15.194   3.546   5.850
 8127POPC   GL148313  15.179   3.563   6.150
 8127POPC   GL248314  15.092   3.520   6.150
 8127POPC   C1A48315  15.208   3.495   6.450
 8127POPC   D2A48316  15.228   3.498   6.750
 8127POPC   C3A48317  15.169   3.574   7.050
 8127POPC   C4A48318  15.177   3.561   7.350
 8127POPC   C1B48319  14.968   3.526   6.450
 8127POPC   C2B48320  14.934   3.563   6.750
 8127POPC   C3B48321  14.933   3.574   7.050
 8127POPC   C4B48322  14.922   3.548   7.350
 8128POPC   NC348323  12.835  29.106   5.550
 8128POPC   PO448324  12.858  29.096   5.850
 8128POPC   GL148325  12.830  29.181   6.150
 8128POPC   GL248326  12.757  29.270   6.150
 8128POPC   C1A48327  12.839  29.187   6.450
 8128POPC   D2A48328  12.882  29.143   6.750
 8128POPC   C3A48329  12.860  29.120   7.050
 8128POPC   C4A48330  12.899  29.187   7.350
 8128POPC   C1B48331  12.674  29.389   6.450
 8128POPC   C2B48332  12.661  29.375   6.750
 8128POPC   C3B48333  12.727  29.327   7.050
 8128POPC   C4B48334  12.671  29.354   7.350
 8129POPC   NC348335  40.054  43.926   5.550
 8129POPC   PO448336  39.994  43.900   5.850
 8129POPC   GL148337  40.056  43.857   6.150
 8129POPC   GL248338  40.110  43.754   6.150
 8129POPC   C1A48339  39.980  43.869   6.450
 8129POPC   D2A48340  40.057  43.930   6.750
 8129POPC   C3A48341  39.962  43.923   7.050
 8129POPC   C4A48342  39.962  43.889   7.350
 8129POPC   C1B48343  40.118  43.676   6.450
 8129POPC   C2B48344  40.071  43.641   6.750
 8129POPC   C3B48345  40.126  43.710   7.050
 8129POPC   C4B48346  40.149  43.680   7.350
 8130POPC   NC348347  23.684  40.815   5.550
 8130POPC   PO448348  23.759  40.800   5.850
 8130POPC   GL148349  23.680  40.786   6.150
 8130POPC   GL248350  23.667  40.923   6.150
 8130POPC   C1A48351  23.715  40.766   6.450
 8130POPC   D2A48352  23.683  40.829   6.750
 8130POPC   C3A48353  23.717  40.779   7.050
 8130POPC   C4A48354  23.700  40.812   7.350
 8130POPC   C1B48355  23.670  41.062   6.450
 8130POPC   C2B48356  23.662  41.003   6.750
 8130POPC   C3B48357  23.696  41.047   7.050
 8130POPC   C4B48358  23.662  41.001   7.350
 8131POPC   NC348359  38.436  14.431   5.550
 8131POPC   PO448360  38.469  14.406   5.850
 8131POPC   GL148361  38.438  14.429   6.150
 8131POPC   GL248362  38.518  14.494   6.150
 8131POPC   C1A48363  38.459  14.413   6.450
 8131POPC   D2A48364  38.459  14.416   6.750
 8131POPC   C3A48365  38.448  14.429   7.050
 8131POPC   C4A48366  38.407  14.366   7.350
 8131POPC   C1B48367  38.631  14.564   6.450
 8131POPC   C2B48368  38.621  14.562   6.750
 8131POPC   C3B48369  38.636  14.576   7.050
 8131POPC   C4B48370  38.586  14.577   7.350
 8132POPC   NC348371  12.803  16.754   5.550
 8132POPC   PO448372  12.855  16.720   5.850
 8132POPC   GL148373  12.866  16.731   6.150
 8132POPC   GL248374  12.787  16.877   6.150
 8132POPC   C1A48375  12.900  16.769   6.450
 8132POPC   D2A48376  12.881  16.688   6.750
 8132POPC   C3A48377  12.894  16.700   7.050
 8132POPC   C4A48378  12.893  16.710   7.350
 8132POPC   C1B48379  12.808  16.998   6.450
 8132POPC   C2B48380  12.790  16.954   6.750
 8132POPC   C3B48381  12.790  17.011   7.050
 8132POPC   C4B48382  12.806  16.932   7.350
 8133POPC   NC348383  15.927  34.604   5.550
 8133POPC   PO448384  15.965  34.616   5.850
 8133POPC   GL148385  15.910  34.581   6.150
 8133POPC   GL248386  15.931  34.654   6.150
 8133POPC   C1A48387  16.003  34.622   6.450
 8133POPC   D2A48388  15.982  34.599   6.750
 8133POPC   C3A48389  15.976  34.561   7.050
 8133POPC   C4A48390  15.988  34.572   7.350
 8133POPC   C1B48391  15.935  34.851   6.450
 8133POPC   C2B48392  15.920  34.808   6.750
 8133POPC   C3B48393  16.018  34.836   7.050
 8133POPC   C4B48394  15.981  34.808   7.350
 8134POPC   NC348395  29.105  41.510   5.550
 8134POPC   PO448396  29.188  41.525   5.850
 8134POPC   GL148397  29.137  41.565   6.150
 8134POPC   GL248398  29.127  41.414   6.150
 8134POPC   C1A48399  29.133  41.595   6.450
 8134POPC   D2A48400  29.137  41.522   6.750
 8134POPC   C3A48401  29.184  41.600   7.050
 8134POPC   C4A48402  29.191  41.510   7.350
 8134POPC   C1B48403  29.173  41.275   6.450
 8134POPC   C2B48404  29.160  41.316   6.750
 8134POPC   C3B48405  29.161  41.356   7.050
 8134POPC   C4B48406  29.151  41.336   7.350
 8135POPC   NC348407  43.093  20.621   5.550
 8135POPC   PO448408  43.150  20.590   5.850
 8135POPC   GL148409  43.133  20.614   6.150
 8135POPC   GL248410  43.151  20.731   6.150
 8135POPC   C1A48411  43.138  20.611   6.450
 8135POPC   D2A48412  43.144  20.622   6.750
 8135POPC   C3A48413  43.144  20.563   7.050
 8135POPC   C4A48414  43.092  20.576   7.350
 8135POPC   C1B48415  43.187  20.844   6.450
 8135POPC   C2B48416  43.161  20.820   6.750
 8135POPC   C3B48417  43.240  20.856   7.050
 8135POPC   C4B48418  43.175  20.870   7.350
 8136POPC   NC348419  12.064   9.699   5.550
 8136POPC   PO448420  12.121   9.764   5.850
 8136POPC   GL148421  12.077   9.768   6.150
 8136POPC   GL248422  12.132   9.647   6.150
 8136POPC   C1A48423  12.065   9.795   6.450
 8136POPC   D2A48424  12.070   9.783   6.750
 8136POPC   C3A48425  12.054   9.794   7.050
 8136POPC   C4A48426  12.034   9.754   7.350
 8136POPC   C1B48427  12.190   9.525   6.450
 8136POPC   C2B48428  12.255   9.589   6.750
 8136POPC   C3B48429  12.272   9.589   7.050
 8136POPC   C4B48430  12.200   9.534   7.350
 8137POPC   NC348431  28.414   5.830   5.550
 8137POPC   PO448432  28.338   5.864   5.850
 8137POPC   GL148433  28.349   5.888   6.150
 8137POPC   GL248434  28.294   5.874   6.150
 8137POPC   C1A48435  28.391   5.861   6.450
 8137POPC   D2A48436  28.407   5.862   6.750
 8137POPC   C3A48437  28.419   5.846   7.050
 8137POPC   C4A48438  28.411   5.881   7.350
 8137POPC   C1B48439  28.101   5.890   6.450
 8137POPC   C2B48440  28.108   5.839   6.750
 8137POPC   C3B48441  28.160   5.812   7.050
 8137POPC   C4B48442  28.169   5.890   7.350
 8138POPC   NC348443   2.000   8.223   5.550
 8138POPC   PO448444   1.998   8.198   5.850
 8138POPC   GL148445   2.024   8.155   6.150
 8138POPC   GL248446   1.840   8.225   6.150
 8138POPC   C1A48447   1.980   8.213   6.450
 8138POPC   D2A48448   2.011   8.150   6.750
 8138POPC   C3A48449   1.996   8.189   7.050
 8138POPC   C4A48450   2.029   8.208   7.350
 8138POPC   C1B48451   1.718   8.195   6.450
 8138POPC   C2B48452   1.718   8.192   6.750
 8138POPC   C3B48453   1.696   8.239   7.050
 8138POPC   C4B48454   1.701   8.217   7.350
 8139POPC   NC348455  17.552  12.853   5.550
 8139POPC   PO448456  17.552  12.825   5.850
 8139POPC   GL148457  17.493  12.804   6.150
 8139POPC   GL248458  17.621  12.890   6.150
 8139POPC   C1A48459  17.494  12.875   6.450
 8139POPC   D2A48460  17.514  12.885   6.750
 8139POPC   C3A48461  17.468  12.809   7.050
 8139POPC   C4A48462  17.547  12.881   7.350
 8139POPC   C1B48463  17.746  12.905   6.450
 8139POPC   C2B48464  17.771  12.909   6.750
 8139POPC   C3B48465  17.742  12.887   7.050
 8139POPC   C4B48466  17.712  12.845   7.350
 8140POPC   NC348467   4.350   3.559   5.550
 8140POPC   PO448468   4.295   3.585   5.850
 8140POPC   GL148469   4.269   3.516   6.150
 8140POPC   GL248470   4.329   3.689   6.150
 8140POPC   C1A48471   4.286   3.517   6.450
 8140POPC   D2A48472   4.299   3.565   6.750
 8140POPC   C3A48473   4.365   3.560   7.050
 8140POPC   C4A48474   4.289   3.573   7.350
 8140POPC   C1B48475   4.263   3.838   6.450
 8140POPC   C2B48476   4.241   3.804   6.750
 8140POPC   C3B48477   4.255   3.821   7.050
 8140POPC   C4B48478   4.298   3.823   7.350
 8141POPC   NC348479  40.753  36.171   5.550
 8141POPC   PO448480  40.786  36.157   5.850
 8141POPC   GL148481  40.757  36.140   6.150
 8141POPC   GL248482  40.888  36.122   6.150
 8141POPC   C1A48483  40.770  36.167   6.450
 8141POPC   D2A48484  40.767  36.143   6.750
 8141POPC   C3A48485  40.800  36.116   7.050
 8141POPC   C4A48486  40.791  36.161   7.350
 8141POPC   C1B48487  41.033  36.043   6.450
 8141POPC   C2B48488  41.020  36.014   6.750
 8141POPC   C3B48489  41.014  36.071   7.050
 8141POPC   C4B48490  40.986  36.057   7.350
 8142POPC   NC348491  24.527  34.548   5.550
 8142POPC   PO448492  24.527  34.613   5.850
 8142POPC   GL148493  24.498  34.534   6.150
 8142POPC   GL248494  24.581  34.587   6.150
 8142POPC   C1A48495  24.453  34.586   6.450
 8142POPC   D2A48496  24.455  34.624   6.750
 8142POPC   C3A48497  24.523  34.614   7.050
 8142POPC   C4A48498  24.518  34.588   7.350
 8142POPC   C1B48499  24.693  34.601   6.450
 8142POPC   C2B48500  24.738  34.654   6.750
 8142POPC   C3B48501  24.749  34.592   7.050
 8142POPC   C4B48502  24.739  34.619   7.350
 8143POPC   NC348503  36.161   2.742   5.550
 8143POPC   PO448504  36.117   2.746   5.850
 8143POPC   GL148505  36.136   2.769   6.150
 8143POPC   GL248506  36.264   2.777   6.150
 8143POPC   C1A48507  36.177   2.803   6.450
 8143POPC   D2A48508  36.155   2.757   6.750
 8143POPC   C3A48509  36.169   2.792   7.050
 8143POPC   C4A48510  36.097   2.739   7.350
 8143POPC   C1B48511  36.379   2.715   6.450
 8143POPC   C2B48512  36.390   2.709   6.750
 8143POPC   C3B48513  36.398   2.739   7.050
 8143POPC   C4B48514  36.338   2.786   7.350
 8144POPC   NC348515   5.875   5.127   5.550
 8144POPC   PO448516   5.847   5.050   5.850
 8144POPC   GL148517   5.842   5.120   6.150
 8144POPC   GL248518   5.942   5.224   6.150
 8144POPC   C1A48519   5.896   5.074   6.450
 8144POPC   D2A48520   5.841   5.105   6.750
 8144POPC   C3A48521   5.912   5.128   7.050
 8144POPC   C4A48522   5.897   5.118   7.350
 8144POPC   C1B48523   5.997   5.328   6.450
 8144POPC   C2B48524   5.971   5.276   6.750
 8144POPC   C3B48525   5.976   5.312   7.050
 8144POPC   C4B48526   5.974   5.286   7.350
 8145POPC   NC348527  43.135  15.137   5.550
 8145POPC   PO448528  43.080  15.142   5.850
 8145POPC   GL148529  43.100  15.211   6.150
 8145POPC   GL248530  43.252  15.109   6.150
 8145POPC   C1A48531  43.135  15.183   6.450
 8145POPC   D2A48532  43.151  15.140   6.750
 8145POPC   C3A48533  43.096  15.136   7.050
 8145POPC   C4A48534  43.131  15.214   7.350
 8145POPC   C1B48535  43.335  15.040   6.450
 8145POPC   C2B48536  43.324  15.068   6.750
 8145POPC   C3B48537  43.312  15.089   7.050
 8145POPC   C4B48538  43.370  15.099   7.350
 8146POPC   NC348539  28.340  40.738   5.550
 8146POPC   PO448540  28.356  40.795   5.850
 8146POPC   GL148541  28.360  40.791   6.150
 8146POPC   GL248542  28.513  40.793   6.150
 8146POPC   C1A48543  28.322  40.816   6.450
 8146POPC   D2A48544  28.389  40.777   6.750
 8146POPC   C3A48545  28.333  40.794   7.050
 8146POPC   C4A48546  28.394  40.792   7.350
 8146POPC   C1B48547  28.640  40.842   6.450
 8146POPC   C2B48548  28.612  40.830   6.750
 8146POPC   C3B48549  28.605  40.783   7.050
 8146POPC   C4B48550  28.616  40.780   7.350
 8147POPC   NC348551  16.742  33.787   5.550
 8147POPC   PO448552  16.773  33.788   5.850
 8147POPC   GL148553  16.751  33.758   6.150
 8147POPC   GL248554  16.700  33.949   6.150
 8147POPC   C1A48555  16.697  33.841   6.450
 8147POPC   D2A48556  16.706  33.843   6.750
 8147POPC   C3A48557  16.697  33.751   7.050
 8147POPC   C4A48558  16.758  33.847   7.350
 8147POPC   C1B48559  16.743  34.082   6.450
 8147POPC   C2B48560  16.765  34.094   6.750
 8147POPC   C3B48561  16.727  34.036   7.050
 8147POPC   C4B48562  16.701  34.060   7.350
 8148POPC   NC348563   2.019  38.499   5.550
 8148POPC   PO448564   2.034  38.490   5.850
 8148POPC   GL148565   1.959  38.420   6.150
 8148POPC   GL248566   1.968  38.314   6.150
 8148POPC   C1A48567   1.987  38.410   6.450
 8148POPC   D2A48568   1.973  38.489   6.750
 8148POPC   C3A48569   1.989  38.473   7.050
 8148POPC   C4A48570   2.019  38.416   7.350
 8148POPC   C1B48571   2.048  38.195   6.450
 8148POPC   C2B48572   1.966  38.219   6.750
 8148POPC   C3B48573   1.985  38.179   7.050
 8148POPC   C4B48574   2.037  38.211   7.350
 8149POPC   NC348575  29.151  23.702   5.550
 8149POPC   PO448576  29.122  23.705   5.850
 8149POPC   GL148577  29.097  23.713   6.150
 8149POPC   GL248578  29.296  23.777   6.150
 8149POPC   C1A48579  29.190  23.736   6.450
 8149POPC   D2A48580  29.133  23.718   6.750
 8149POPC   C3A48581  29.106  23.721   7.050
 8149POPC   C4A48582  29.193  23.706   7.350
 8149POPC   C1B48583  29.417  23.863   6.450
 8149POPC   C2B48584  29.355  23.788   6.750
 8149POPC   C3B48585  29.418  23.869   7.050
 8149POPC   C4B48586  29.348  23.804   7.350
 8150POPC   NC348587   3.511  29.885   5.550
 8150POPC   PO448588   3.505  29.952   5.850
 8150POPC   GL148589   3.514  29.951   6.150
 8150POPC   GL248590   3.509  29.871   6.150
 8150POPC   C1A48591   3.550  29.963   6.450
 8150POPC   D2A48592   3.538  29.886   6.750
 8150POPC   C3A48593   3.548  29.955   7.050
 8150POPC   C4A48594   3.554  29.965   7.350
 8150POPC   C1B48595   3.426  29.686   6.450
 8150POPC   C2B48596   3.403  29.688   6.750
 8150POPC   C3B48597   3.351  29.724   7.050
 8150POPC   C4B48598   3.357  29.750   7.350
 8151POPC   NC348599  14.430   3.493   5.550
 8151POPC   PO448600  14.447   3.587   5.850
 8151POPC   GL148601  14.363   3.497   6.150
 8151POPC   GL248602  14.471   3.495   6.150
 8151POPC   C1A48603  14.452   3.503   6.450
 8151POPC   D2A48604  14.375   3.571   6.750
 8151POPC   C3A48605  14.417   3.542   7.050
 8151POPC   C4A48606  14.357   3.542   7.350
 8151POPC   C1B48607  14.668   3.442   6.450
 8151POPC   C2B48608  14.624   3.484   6.750
 8151POPC   C3B48609  14.590   3.460   7.050
 8151POPC   C4B48610  14.645   3.418   7.350
 8152POPC   NC348611   8.246  36.104   5.550
 8152POPC   PO448612   8.173  36.081   5.850
 8152POPC   GL148613   8.150  36.096   6.150
 8152POPC   GL248614   8.146  35.998   6.150
 8152POPC   C1A48615   8.226  36.080   6.450
 8152POPC   D2A48616   8.199  36.105   6.750
 8152POPC   C3A48617   8.212  36.098   7.050
 8152POPC   C4A48618   8.201  36.168   7.350
 8152POPC   C1B48619   8.155  35.843   6.450
 8152POPC   C2B48620   8.134  35.842   6.750
 8152POPC   C3B48621   8.102  35.899   7.050
 8152POPC   C4B48622   8.086  35.931   7.350
 8153POPC   NC348623   6.688   1.230   5.550
 8153POPC   PO448624   6.656   1.164   5.850
 8153POPC   GL148625   6.687   1.188   6.150
 8153POPC   GL248626   6.619   1.379   6.150
 8153POPC   C1A48627   6.637   1.228   6.450
 8153POPC   D2A48628   6.636   1.173   6.750
 8153POPC   C3A48629   6.677   1.177   7.050
 8153POPC   C4A48630   6.668   1.217   7.350
 8153POPC   C1B48631   6.640   1.484   6.450
 8153POPC   C2B48632   6.640   1.493   6.750
 8153POPC   C3B48633   6.599   1.469   7.050
 8153POPC   C4B48634   6.573   1.461   7.350
 8154POPC   NC348635  43.091   0.414   5.550
 8154POPC   PO448636  43.134   0.463   5.850
 8154POPC   GL148637  43.068   0.400   6.150
 8154POPC   GL248638  43.001   0.308   6.150
 8154POPC   C1A48639  43.073   0.465   6.450
 8154POPC   D2A48640  43.148   0.435   6.750
 8154POPC   C3A48641  43.085   0.453   7.050
 8154POPC   C4A48642  43.131   0.458   7.350
 8154POPC   C1B48643  42.895   0.306   6.450
 8154POPC   C2B48644  42.961   0.230   6.750
 8154POPC   C3B48645  42.919   0.224   7.050
 8154POPC   C4B48646  42.975   0.286   7.350
 8155POPC   NC348647  35.384   3.557   5.550
 8155POPC   PO448648  35.337   3.580   5.850
 8155POPC   GL148649  35.312   3.543   6.150
 8155POPC   GL248650  35.342   3.658   6.150
 8155POPC   C1A48651  35.309   3.587   6.450
 8155POPC   D2A48652  35.355   3.578   6.750
 8155POPC   C3A48653  35.321   3.531   7.050
 8155POPC   C4A48654  35.311   3.525   7.350
 8155POPC   C1B48655  35.274   3.793   6.450
 8155POPC   C2B48656  35.297   3.763   6.750
 8155POPC   C3B48657  35.277   3.748   7.050
 8155POPC   C4B48658  35.310   3.814   7.350
 8156POPC   NC348659  43.930  43.154   5.550
 8156POPC   PO448660  43.878  43.140   5.850
 8156POPC   GL148661  43.867  43.114   6.150
 8156POPC   GL248662  43.825  43.036   6.150
 8156POPC   C1A48663  43.851  43.122   6.450
 8156POPC   D2A48664  43.933  43.129   6.750
 8156POPC   C3A48665  43.907  43.064   7.050
 8156POPC   C4A48666  43.868  43.110   7.350
 8156POPC   C1B48667  43.648  42.950   6.450
 8156POPC   C2B48668  43.733  42.915   6.750
 8156POPC   C3B48669  43.689  42.924   7.050
 8156POPC   C4B48670  43.689  42.981   7.350
 8157POPC   NC348671  22.894   6.650   5.550
 8157POPC   PO448672  22.938   6.650   5.850
 8157POPC   GL148673  22.940   6.670   6.150
 8157POPC   GL248674  22.865   6.538   6.150
 8157POPC   C1A48675  22.945   6.609   6.450
 8157POPC   D2A48676  22.923   6.614   6.750
 8157POPC   C3A48677  22.912   6.637   7.050
 8157POPC   C4A48678  22.915   6.660   7.350
 8157POPC   C1B48679  22.902   6.430   6.450
 8157POPC   C2B48680  22.880   6.409   6.750
 8157POPC   C3B48681  22.899   6.445   7.050
 8157POPC   C4B48682  22.885   6.358   7.350
 8158POPC   NC348683  39.270  15.131   5.550
 8158POPC   PO448684  39.272  15.215   5.850
 8158POPC   GL148685  39.241  15.196   6.150
 8158POPC   GL248686  39.130  15.131   6.150
 8158POPC   C1A48687  39.223  15.136   6.450
 8158POPC   D2A48688  39.251  15.155   6.750
 8158POPC   C3A48689  39.267  15.215   7.050
 8158POPC   C4A48690  39.212  15.210   7.350
 8158POPC   C1B48691  38.984  15.110   6.450
 8158POPC   C2B48692  38.958  15.106   6.750
 8158POPC   C3B48693  38.985  15.151   7.050
 8158POPC   C4B48694  38.966  15.115   7.350
 8159POPC   NC348695  41.529  23.722   5.550
 8159POPC   PO448696  41.607  23.746   5.850
 8159POPC   GL148697  41.590  23.744   6.150
 8159POPC   GL248698  41.653  23.672   6.150
 8159POPC   C1A48699  41.542  23.687   6.450
 8159POPC   D2A48700  41.598  23.669   6.750
 8159POPC   C3A48701  41.586  23.684   7.050
 8159POPC   C4A48702  41.578  23.678   7.350
 8159POPC   C1B48703  41.759  23.639   6.450
 8159POPC   C2B48704  41.811  23.625   6.750
 8159POPC   C3B48705  41.762  23.627   7.050
 8159POPC   C4B48706  41.818  23.627   7.350
 8160POPC   NC348707   9.734  22.896   5.550
 8160POPC   PO448708   9.757  22.960   5.850
 8160POPC   GL148709   9.798  22.914   6.150
 8160POPC   GL248710   9.774  23.095   6.150
 8160POPC   C1A48711   9.778  22.895   6.450
 8160POPC   D2A48712   9.736  22.961   6.750
 8160POPC   C3A48713   9.755  22.905   7.050
 8160POPC   C4A48714   9.778  22.927   7.350
 8160POPC   C1B48715   9.895  23.150   6.450
 8160POPC   C2B48716   9.905  23.156   6.750
 8160POPC   C3B48717   9.838  23.199   7.050
 8160POPC   C4B48718   9.834  23.125   7.350
 8161POPC   NC348719  36.902  22.144   5.550
 8161POPC   PO448720  36.856  22.212   5.850
 8161POPC   GL148721  36.952  22.183   6.150
 8161POPC   GL248722  36.985  22.310   6.150
 8161POPC   C1A48723  36.899  22.186   6.450
 8161POPC   D2A48724  36.891  22.149   6.750
 8161POPC   C3A48725  36.913  22.200   7.050
 8161POPC   C4A48726  36.949  22.183   7.350
 8161POPC   C1B48727  36.971  22.417   6.450
 8161POPC   C2B48728  36.980  22.425   6.750
 8161POPC   C3B48729  37.012  22.389   7.050
 8161POPC   C4B48730  36.975  22.352   7.350
 8162POPC   NC348731  17.478  23.720   5.550
 8162POPC   PO448732  17.461  23.667   5.850
 8162POPC   GL148733  17.465  23.670   6.150
 8162POPC   GL248734  17.348  23.647   6.150
 8162POPC   C1A48735  17.543  23.690   6.450
 8162POPC   D2A48736  17.494  23.763   6.750
 8162POPC   C3A48737  17.556  23.731   7.050
 8162POPC   C4A48738  17.464  23.682   7.350
 8162POPC   C1B48739  17.294  23.592   6.450
 8162POPC   C2B48740  17.254  23.627   6.750
 8162POPC   C3B48741  17.312  23.688   7.050
 8162POPC   C4B48742  17.255  23.683   7.350
 8163POPC   NC348743  32.257  36.860   5.550
 8163POPC   PO448744  32.272  36.929   5.850
 8163POPC   GL148745  32.217  36.911   6.150
 8163POPC   GL248746  32.129  36.980   6.150
 8163POPC   C1A48747  32.199  36.938   6.450
 8163POPC   D2A48748  32.241  36.857   6.750
 8163POPC   C3A48749  32.250  36.899   7.050
 8163POPC   C4A48750  32.248  36.910   7.350
 8163POPC   C1B48751  32.068  37.066   6.450
 8163POPC   C2B48752  32.116  37.050   6.750
 8163POPC   C3B48753  32.067  37.086   7.050
 8163POPC   C4B48754  32.067  37.093   7.350
 8164POPC   NC348755   7.435  22.169   5.550
 8164POPC   PO448756   7.457  22.181   5.850
 8164POPC   GL148757   7.463  22.205   6.150
 8164POPC   GL248758   7.493  22.018   6.150
 8164POPC   C1A48759   7.386  22.209   6.450
 8164POPC   D2A48760   7.442  22.151   6.750
 8164POPC   C3A48761   7.454  22.189   7.050
 8164POPC   C4A48762   7.404  22.125   7.350
 8164POPC   C1B48763   7.541  21.964   6.450
 8164POPC   C2B48764   7.582  21.993   6.750
 8164POPC   C3B48765   7.573  21.977   7.050
 8164POPC   C4B48766   7.612  21.953   7.350
 8165POPC   NC348767  35.333  20.575   5.550
 8165POPC   PO448768  35.332  20.592   5.850
 8165POPC   GL148769  35.335  20.574   6.150
 8165POPC   GL248770  35.351  20.770   6.150
 8165POPC   C1A48771  35.311  20.646   6.450
 8165POPC   D2A48772  35.342  20.611   6.750
 8165POPC   C3A48773  35.312  20.629   7.050
 8165POPC   C4A48774  35.328  20.636   7.350
 8165POPC   C1B48775  35.262  20.872   6.450
 8165POPC   C2B48776  35.333  20.883   6.750
 8165POPC   C3B48777  35.322  20.899   7.050
 8165POPC   C4B48778  35.303  20.838   7.350
 8166POPC   NC348779  34.538  20.570   5.550
 8166POPC   PO448780  34.588  20.652   5.850
 8166POPC   GL148781  34.563  20.646   6.150
 8166POPC   GL248782  34.489  20.614   6.150
 8166POPC   C1A48783  34.623  20.638   6.450
 8166POPC   D2A48784  34.561  20.607   6.750
 8166POPC   C3A48785  34.536  20.622   7.050
 8166POPC   C4A48786  34.531  20.640   7.350
 8166POPC   C1B48787  34.374  20.553   6.450
 8166POPC   C2B48788  34.344  20.525   6.750
 8166POPC   C3B48789  34.331  20.508   7.050
 8166POPC   C4B48790  34.341  20.514   7.350
 8167POPC   NC348791  12.858  26.029   5.550
 8167POPC   PO448792  12.883  26.062   5.850
 8167POPC   GL148793  12.896  25.999   6.150
 8167POPC   GL248794  12.796  26.169   6.150
 8167POPC   C1A48795  12.835  26.068   6.450
 8167POPC   D2A48796  12.815  26.080   6.750
 8167POPC   C3A48797  12.887  25.992   7.050
 8167POPC   C4A48798  12.887  26.088   7.350
 8167POPC   C1B48799  12.678  26.212   6.450
 8167POPC   C2B48800  12.718  26.262   6.750
 8167POPC   C3B48801  12.729  26.274   7.050
 8167POPC   C4B48802  12.684  26.208   7.350
 8168POPC   NC348803  39.227  14.442   5.550
 8168POPC   PO448804  39.221  14.409   5.850
 8168POPC   GL148805  39.227  14.390   6.150
 8168POPC   GL248806  39.358  14.425   6.150
 8168POPC   C1A48807  39.184  14.407   6.450
 8168POPC   D2A48808  39.206  14.437   6.750
 8168POPC   C3A48809  39.224  14.427   7.050
 8168POPC   C4A48810  39.182  14.377   7.350
 8168POPC   C1B48811  39.452  14.510   6.450
 8168POPC   C2B48812  39.506  14.453   6.750
 8168POPC   C3B48813  39.518  14.493   7.050
 8168POPC   C4B48814  39.463  14.468   7.350
 8169POPC   NC348815   4.366  32.261   5.550
 8169POPC   PO448816   4.271  32.244   5.850
 8169POPC   GL148817   4.296  32.259   6.150
 8169POPC   GL248818   4.257  32.329   6.150
 8169POPC   C1A48819   4.363  32.278   6.450
 8169POPC   D2A48820   4.311  32.210   6.750
 8169POPC   C3A48821   4.324  32.216   7.050
 8169POPC   C4A48822   4.273  32.214   7.350
 8169POPC   C1B48823   4.322  32.448   6.450
 8169POPC   C2B48824   4.301  32.448   6.750
 8169POPC   C3B48825   4.247  32.518   7.050
 8169POPC   C4B48826   4.321  32.496   7.350
 8170POPC   NC348827  43.850  12.122   5.550
 8170POPC   PO448828  43.858  12.041   5.850
 8170POPC   GL148829  43.910  12.060   6.150
 8170POPC   GL248830  44.044  12.085   6.150
 8170POPC   C1A48831  43.922  12.088   6.450
 8170POPC   D2A48832  43.903  12.044   6.750
 8170POPC   C3A48833  43.851  12.092   7.050
 8170POPC   C4A48834  43.889  12.120   7.350
 8170POPC   C1B48835  44.109  12.041   6.450
 8170POPC   C2B48836  44.175  12.039   6.750
 8170POPC   C3B48837  44.117  12.073   7.050
 8170POPC   C4B48838  44.132  12.118   7.350
 8171POPC   NC348839  31.425  37.674   5.550
 8171POPC   PO448840  31.444  37.634   5.850
 8171POPC   GL148841  31.423  37.668   6.150
 8171POPC   GL248842  31.438  37.563   6.150
 8171POPC   C1A48843  31.426  37.683   6.450
 8171POPC   D2A48844  31.484  37.635   6.750
 8171POPC   C3A48845  31.500  37.728   7.050
 8171POPC   C4A48846  31.437  37.674   7.350
 8171POPC   C1B48847  31.446  37.407   6.450
 8171POPC   C2B48848  31.375  37.409   6.750
 8171POPC   C3B48849  31.456  37.417   7.050
 8171POPC   C4B48850  31.421  37.474   7.350
 8172POPC   NC348851   5.866   5.879   5.550
 8172POPC   PO448852   5.833   5.846   5.850
 8172POPC   GL148853   5.917   5.917   6.150
 8172POPC   GL248854   5.740   5.900   6.150
 8172POPC   C1A48855   5.824   5.830   6.450
 8172POPC   D2A48856   5.820   5.836   6.750
 8172POPC   C3A48857   5.853   5.820   7.050
 8172POPC   C4A48858   5.877   5.825   7.350
 8172POPC   C1B48859   5.641   6.015   6.450
 8172POPC   C2B48860   5.626   6.024   6.750
 8172POPC   C3B48861   5.668   6.002   7.050
 8172POPC   C4B48862   5.705   6.014   7.350
 8173POPC   NC348863  33.832  14.358   5.550
 8173POPC   PO448864  33.783  14.373   5.850
 8173POPC   GL148865  33.787  14.373   6.150
 8173POPC   GL248866  33.717  14.334   6.150
 8173POPC   C1A48867  33.836  14.376   6.450
 8173POPC   D2A48868  33.836  14.404   6.750
 8173POPC   C3A48869  33.809  14.415   7.050
 8173POPC   C4A48870  33.789  14.383   7.350
 8173POPC   C1B48871  33.657  14.147   6.450
 8173POPC   C2B48872  33.671  14.176   6.750
 8173POPC   C3B48873  33.633  14.181   7.050
 8173POPC   C4B48874  33.653  14.176   7.350
 8174POPC   NC348875  40.788  26.034   5.550
 8174POPC   PO448876  40.830  26.070   5.850
 8174POPC   GL148877  40.823  26.050   6.150
 8174POPC   GL248878  40.915  25.961   6.150
 8174POPC   C1A48879  40.733  26.075   6.450
 8174POPC   D2A48880  40.744  26.021   6.750
 8174POPC   C3A48881  40.756  26.025   7.050
 8174POPC   C4A48882  40.790  26.052   7.350
 8174POPC   C1B48883  41.000  25.918   6.450
 8174POPC   C2B48884  40.992  25.892   6.750
 8174POPC   C3B48885  40.939  25.847   7.050
 8174POPC   C4B48886  40.965  25.858   7.350
 8175POPC   NC348887  18.288  38.416   5.550
 8175POPC   PO448888  18.252  38.431   5.850
 8175POPC   GL148889  18.284  38.417   6.150
 8175POPC   GL248890  18.177  38.445   6.150
 8175POPC   C1A48891  18.287  38.502   6.450
 8175POPC   D2A48892  18.326  38.438   6.750
 8175POPC   C3A48893  18.305  38.465   7.050
 8175POPC   C4A48894  18.284  38.484   7.350
 8175POPC   C1B48895  18.088  38.414   6.450
 8175POPC   C2B48896  17.991  38.431   6.750
 8175POPC   C3B48897  18.007  38.415   7.050
 8175POPC   C4B48898  18.076  38.425   7.350
 8176POPC   NC348899   8.989   2.721   5.550
 8176POPC   PO448900   8.976   2.766   5.850
 8176POPC   GL148901   8.993   2.777   6.150
 8176POPC   GL248902   8.841   2.779   6.150
 8176POPC   C1A48903   9.015   2.801   6.450
 8176POPC   D2A48904   9.000   2.740   6.750
 8176POPC   C3A48905   8.980   2.811   7.050
 8176POPC   C4A48906   8.972   2.751   7.350
 8176POPC   C1B48907   8.771   2.684   6.450
 8176POPC   C2B48908   8.755   2.699   6.750
 8176POPC   C3B48909   8.699   2.753   7.050
 8176POPC   C4B48910   8.753   2.703   7.350
 8177POPC   NC348911  11.303  28.393   5.550
 8177POPC   PO448912  11.329  28.399   5.850
 8177POPC   GL148913  11.311  28.336   6.150
 8177POPC   GL248914  11.411  28.352   6.150
 8177POPC   C1A48915  11.281  28.399   6.450
 8177POPC   D2A48916  11.280  28.413   6.750
 8177POPC   C3A48917  11.267  28.322   7.050
 8177POPC   C4A48918  11.256  28.325   7.350
 8177POPC   C1B48919  11.525  28.318   6.450
 8177POPC   C2B48920  11.504  28.329   6.750
 8177POPC   C3B48921  11.498  28.305   7.050
 8177POPC   C4B48922  11.525  28.342   7.350
 8178POPC   NC348923  37.699  32.269   5.550
 8178POPC   PO448924  37.633  32.209   5.850
 8178POPC   GL148925  37.630  32.256   6.150
 8178POPC   GL248926  37.557  32.268   6.150
 8178POPC   C1A48927  37.709  32.206   6.450
 8178POPC   D2A48928  37.658  32.209   6.750
 8178POPC   C3A48929  37.704  32.223   7.050
 8178POPC   C4A48930  37.677  32.204   7.350
 8178POPC   C1B48931  37.489  32.297   6.450
 8178POPC   C2B48932  37.439  32.333   6.750
 8178POPC   C3B48933  37.463  32.324   7.050
 8178POPC   C4B48934  37.404  32.340   7.350
 8179POPC   NC348935  35.314  39.271   5.550
 8179POPC   PO448936  35.383  39.229   5.850
 8179POPC   GL148937  35.393  39.255   6.150
 8179POPC   GL248938  35.515  39.268   6.150
 8179POPC   C1A48939  35.337  39.200   6.450
 8179POPC   D2A48940  35.322  39.187   6.750
 8179POPC   C3A48941  35.361  39.243   7.050
 8179POPC   C4A48942  35.393  39.227   7.350
 8179POPC   C1B48943  35.607  39.328   6.450
 8179POPC   C2B48944  35.595  39.341   6.750
 8179POPC   C3B48945  35.577  39.320   7.050
 8179POPC   C4B48946  35.562  39.318   7.350
 8180POPC   NC348947   4.278  39.258   5.550
 8180POPC   PO448948   4.357  39.265   5.850
 8180POPC   GL148949   4.302  39.223   6.150
 8180POPC   GL248950   4.287  39.126   6.150
 8180POPC   C1A48951   4.271  39.252   6.450
 8180POPC   D2A48952   4.342  39.228   6.750
 8180POPC   C3A48953   4.268  39.252   7.050
 8180POPC   C4A48954   4.299  39.198   7.350
 8180POPC   C1B48955   4.349  39.027   6.450
 8180POPC   C2B48956   4.281  38.932   6.750
 8180POPC   C3B48957   4.320  38.968   7.050
 8180POPC   C4B48958   4.278  39.019   7.350
 8181POPC   NC348959  39.215   9.790   5.550
 8181POPC   PO448960  39.276   9.787   5.850
 8181POPC   GL148961  39.192   9.715   6.150
 8181POPC   GL248962  39.231   9.602   6.150
 8181POPC   C1A48963  39.278   9.705   6.450
 8181POPC   D2A48964  39.243   9.742   6.750
 8181POPC   C3A48965  39.256   9.793   7.050
 8181POPC   C4A48966  39.183   9.713   7.350
 8181POPC   C1B48967  39.096   9.492   6.450
 8181POPC   C2B48968  39.104   9.537   6.750
 8181POPC   C3B48969  39.145   9.515   7.050
 8181POPC   C4B48970  39.088   9.546   7.350
 8182POPC   NC348971  34.594  12.848   5.550
 8182POPC   PO448972  34.618  12.846   5.850
 8182POPC   GL148973  34.615  12.812   6.150
 8182POPC   GL248974  34.609  12.724   6.150
 8182POPC   C1A48975  34.597  12.874   6.450
 8182POPC   D2A48976  34.608  12.806   6.750
 8182POPC   C3A48977  34.535  12.847   7.050
 8182POPC   C4A48978  34.565  12.827   7.350
 8182POPC   C1B48979  34.680  12.677   6.450
 8182POPC   C2B48980  34.684  12.583   6.750
 8182POPC   C3B48981  34.682  12.584   7.050
 8182POPC   C4B48982  34.675  12.654   7.350
 8183POPC   NC348983   4.321  33.771   5.550
 8183POPC   PO448984   4.316  33.761   5.850
 8183POPC   GL148985   4.284  33.826   6.150
 8183POPC   GL248986   4.322  33.715   6.150
 8183POPC   C1A48987   4.333  33.764   6.450
 8183POPC   D2A48988   4.311  33.790   6.750
 8183POPC   C3A48989   4.324  33.830   7.050
 8183POPC   C4A48990   4.346  33.841   7.350
 8183POPC   C1B48991   4.308  33.549   6.450
 8183POPC   C2B48992   4.305  33.515   6.750
 8183POPC   C3B48993   4.297  33.555   7.050
 8183POPC   C4B48994   4.321  33.534   7.350
 8184POPC   NC348995  12.870  19.038   5.550
 8184POPC   PO448996  12.843  19.016   5.850
 8184POPC   GL148997  12.832  19.101   6.150
 8184POPC   GL248998  12.713  19.061   6.150
 8184POPC   C1A48999  12.812  19.021   6.450
 8184POPC   D2A49000  12.827  19.018   6.750
 8184POPC   C3A49001  12.859  19.068   7.050
 8184POPC   C4A49002  12.811  19.010   7.350
 8184POPC   C1B49003  12.633  19.088   6.450
 8184POPC   C2B49004  12.642  19.035   6.750
 8184POPC   C3B49005  12.610  19.097   7.050
 8184POPC   C4B49006  12.558  19.099   7.350
 8185POPC   NC349007  27.625   0.467   5.550
 8185POPC   PO449008  27.626   0.465   5.850
 8185POPC   GL149009  27.616   0.409   6.150
 8185POPC   GL249010  27.452   0.518   6.150
 8185POPC   C1A49011  27.578   0.410   6.450
 8185POPC   D2A49012  27.633   0.415   6.750
 8185POPC   C3A49013  27.572   0.413   7.050
 8185POPC   C4A49014  27.639   0.446   7.350
 8185POPC   C1B49015  27.363   0.494   6.450
 8185POPC   C2B49016  27.326   0.469   6.750
 8185POPC   C3B49017  27.356   0.545   7.050
 8185POPC   C4B49018  27.324   0.546   7.350
 8186POPC   NC349019   8.165   3.558   5.550
 8186POPC   PO449020   8.200   3.542   5.850
 8186POPC   GL149021   8.218   3.542   6.150
 8186POPC   GL249022   8.156   3.462   6.150
 8186POPC   C1A49023   8.160   3.515   6.450
 8186POPC   D2A49024   8.186   3.510   6.750
 8186POPC   C3A49025   8.192   3.549   7.050
 8186POPC   C4A49026   8.148   3.586   7.350
 8186POPC   C1B49027   8.055   3.331   6.450
 8186POPC   C2B49028   7.984   3.349   6.750
 8186POPC   C3B49029   7.996   3.374   7.050
 8186POPC   C4B49030   8.076   3.321   7.350
 8187POPC   NC349031  24.501  18.315   5.550
 8187POPC   PO449032  24.441  18.304   5.850
 8187POPC   GL149033  24.507  18.297   6.150
 8187POPC   GL249034  24.412  18.214   6.150
 8187POPC   C1A49035  24.452  18.321   6.450
 8187POPC   D2A49036  24.447  18.288   6.750
 8187POPC   C3A49037  24.483  18.282   7.050
 8187POPC   C4A49038  24.507  18.325   7.350
 8187POPC   C1B49039  24.285  18.136   6.450
 8187POPC   C2B49040  24.248  18.154   6.750
 8187POPC   C3B49041  24.261  18.164   7.050
 8187POPC   C4B49042  24.319  18.106   7.350
 8188POPC   NC349043  26.047  20.593   5.550
 8188POPC   PO449044  26.007  20.635   5.850
 8188POPC   GL149045  25.992  20.634   6.150
 8188POPC   GL249046  26.173  20.664   6.150
 8188POPC   C1A49047  26.028  20.641   6.450
 8188POPC   D2A49048  26.040  20.624   6.750
 8188POPC   C3A49049  26.068  20.623   7.050
 8188POPC   C4A49050  26.053  20.619   7.350
 8188POPC   C1B49051  26.231  20.778   6.450
 8188POPC   C2B49052  26.204  20.741   6.750
 8188POPC   C3B49053  26.195  20.769   7.050
 8188POPC   C4B49054  26.221  20.785   7.350
 8189POPC   NC349055  33.070  39.959   5.550
 8189POPC   PO449056  33.072  39.973   5.850
 8189POPC   GL149057  33.040  40.010   6.150
 8189POPC   GL249058  33.062  39.927   6.150
 8189POPC   C1A49059  33.066  39.959   6.450
 8189POPC   D2A49060  33.001  39.973   6.750
 8189POPC   C3A49061  32.975  39.971   7.050
 8189POPC   C4A49062  33.017  39.964   7.350
 8189POPC   C1B49063  33.069  39.788   6.450
 8189POPC   C2B49064  33.052  39.776   6.750
 8189POPC   C3B49065  33.014  39.733   7.050
 8189POPC   C4B49066  33.052  39.758   7.350
 8190POPC   NC349067  11.256  12.047   5.550
 8190POPC   PO449068  11.286  12.116   5.850
 8190POPC   GL149069  11.340  12.060   6.150
 8190POPC   GL249070  11.165  12.085   6.150
 8190POPC   C1A49071  11.310  12.090   6.450
 8190POPC   D2A49072  11.293  12.033   6.750
 8190POPC   C3A49073  11.305  12.057   7.050
 8190POPC   C4A49074  11.345  12.079   7.350
 8190POPC   C1B49075  11.022  12.134   6.450
 8190POPC   C2B49076  11.067  12.051   6.750
 8190POPC   C3B49077  11.057  12.061   7.050
 8190POPC   C4B49078  11.012  12.106   7.350
 8191POPC   NC349079  14.426  13.631   5.550
 8191POPC   PO449080  14.374  13.599   5.850
 8191POPC   GL149081  14.371  13.631   6.150
 8191POPC   GL249082  14.559  13.720   6.150
 8191POPC   C1A49083  14.391  13.586   6.450
 8191POPC   D2A49084  14.415  13.649   6.750
 8191POPC   C3A49085  14.360  13.619   7.050
 8191POPC   C4A49086  14.423  13.660   7.350
 8191POPC   C1B49087  14.632  13.729   6.450
 8191POPC   C2B49088  14.642  13.692   6.750
 8191POPC   C3B49089  14.665  13.774   7.050
 8191POPC   C4B49090  14.604  13.723   7.350
 8192POPC   NC349091  27.587  22.171   5.550
 8192POPC   PO449092  27.585  22.178   5.850
 8192POPC   GL149093  27.556  22.123   6.150
 8192POPC   GL249094  27.495  22.071   6.150
 8192POPC   C1A49095  27.606  22.175   6.450
 8192POPC   D2A49096  27.622  22.158   6.750
 8192POPC   C3A49097  27.560  22.177   7.050
 8192POPC   C4A49098  27.640  22.211   7.350
 8192POPC   C1B49099  27.419  21.929   6.450
 8192POPC   C2B49100  27.472  22.004   6.750
 8192POPC   C3B49101  27.434  21.923   7.050
 8192POPC   C4B49102  27.454  22.006   7.350
 8193POPC   NC349103  21.406   7.389   5.550
 8193POPC   PO449104  21.349   7.467   5.850
 8193POPC   GL149105  21.375   7.434   6.150
 8193POPC   GL249106  21.514   7.451   6.150
 8193POPC   C1A49107  21.393   7.450   6.450
 8193POPC   D2A49108  21.419   7.404   6.750
 8193POPC   C3A49109  21.412   7.410   7.050
 8193POPC   C4A49110  21.388   7.376   7.350
 8193POPC   C1B49111  21.590   7.497   6.450
 8193POPC   C2B49112  21.596   7.491   6.750
 8193POPC   C3B49113  21.661   7.463   7.050
 8193POPC   C4B49114  21.625   7.471   7.350
 8194POPC   NC349115  24.452  12.093   5.550
 8194POPC   PO449116  24.489  12.093   5.850
 8194POPC   GL149117  24.538  12.043   6.150
 8194POPC   GL249118  24.619  12.053   6.150
 8194POPC   C1A49119  24.484  12.120   6.450
 8194POPC   D2A49120  24.487  12.109   6.750
 8194POPC   C3A49121  24.518  12.056   7.050
 8194POPC   C4A49122  24.461  12.120   7.350
 8194POPC   C1B49123  24.718  12.073   6.450
 8194POPC   C2B49124  24.701  12.162   6.750
 8194POPC   C3B49125  24.704  12.130   7.050
 8194POPC   C4B49126  24.717  12.087   7.350
 8195POPC   NC349127  11.305  29.103   5.550
 8195POPC   PO449128  11.314  29.128   5.850
 8195POPC   GL149129  11.290  29.100   6.150
 8195POPC   GL249130  11.233  29.074   6.150
 8195POPC   C1A49131  11.332  29.141   6.450
 8195POPC   D2A49132  11.341  29.103   6.750
 8195POPC   C3A49133  11.317  29.186   7.050
 8195POPC   C4A49134  11.305  29.120   7.350
 8195POPC   C1B49135  11.052  29.006   6.450
 8195POPC   C2B49136  11.067  28.999   6.750
 8195POPC   C3B49137  11.065  29.087   7.050
 8195POPC   C4B49138  11.112  28.999   7.350
 8196POPC   NC349139  19.870  16.689   5.550
 8196POPC   PO449140  19.840  16.710   5.850
 8196POPC   GL149141  19.807  16.744   6.150
 8196POPC   GL249142  19.940  16.742   6.150
 8196POPC   C1A49143  19.836  16.740   6.450
 8196POPC   D2A49144  19.872  16.724   6.750
 8196POPC   C3A49145  19.797  16.760   7.050
 8196POPC   C4A49146  19.858  16.728   7.350
 8196POPC   C1B49147  20.053  16.750   6.450
 8196POPC   C2B49148  20.091  16.731   6.750
 8196POPC   C3B49149  20.044  16.736   7.050
 8196POPC   C4B49150  20.088  16.785   7.350
 8197POPC   NC349151  22.154  43.901   5.550
 8197POPC   PO449152  22.201  43.931   5.850
 8197POPC   GL149153  22.201  43.911   6.150
 8197POPC   GL249154  22.191  44.022   6.150
 8197POPC   C1A49155  22.188  43.929   6.450
 8197POPC   D2A49156  22.178  43.891   6.750
 8197POPC   C3A49157  22.120  43.907   7.050
 8197POPC   C4A49158  22.164  43.858   7.350
 8197POPC   C1B49159  22.319  44.124   6.450
 8197POPC   C2B49160  22.242  44.140   6.750
 8197POPC   C3B49161  22.247  44.081   7.050
 8197POPC   C4B49162  22.306  44.085   7.350
 8198POPC   NC349163  29.881  41.537   5.550
 8198POPC   PO449164  29.931  41.561   5.850
 8198POPC   GL149165  29.891  41.581   6.150
 8198POPC   GL249166  29.756  41.559   6.150
 8198POPC   C1A49167  29.887  41.603   6.450
 8198POPC   D2A49168  29.959  41.591   6.750
 8198POPC   C3A49169  29.941  41.518   7.050
 8198POPC   C4A49170  29.899  41.604   7.350
 8198POPC   C1B49171  29.688  41.439   6.450
 8198POPC   C2B49172  29.655  41.502   6.750
 8198POPC   C3B49173  29.691  41.520   7.050
 8198POPC   C4B49174  29.660  41.451   7.350
 8199POPC   NC349175  34.553  27.585   5.550
 8199POPC   PO449176  34.546  27.599   5.850
 8199POPC   GL149177  34.579  27.630   6.150
 8199POPC   GL249178  34.490  27.673   6.150
 8199POPC   C1A49179  34.603  27.637   6.450
 8199POPC   D2A49180  34.604  27.599   6.750
 8199POPC   C3A49181  34.626  27.624   7.050
 8199POPC   C4A49182  34.599  27.614   7.350
 8199POPC   C1B49183  34.375  27.675   6.450
 8199POPC   C2B49184  34.324  27.738   6.750
 8199POPC   C3B49185  34.396  27.688   7.050
 8199POPC   C4B49186  34.315  27.745   7.350
 8200POPC   NC349187  18.260  21.422   5.550
 8200POPC   PO449188  18.236  21.405   5.850
 8200POPC   GL149189  18.243  21.358   6.150
 8200POPC   GL249190  18.338  21.491   6.150
 8200POPC   C1A49191  18.266  21.388   6.450
 8200POPC   D2A49192  18.282  21.383   6.750
 8200POPC   C3A49193  18.251  21.348   7.050
 8200POPC   C4A49194  18.252  21.433   7.350
 8200POPC   C1B49195  18.355  21.624   6.450
 8200POPC   C2B49196  18.364  21.585   6.750
 8200POPC   C3B49197  18.405  21.605   7.050
 8200POPC   C4B49198  18.367  21.602   7.350
 8201POPC   NC349199   1.993   1.958   5.550
 8201POPC   PO449200   1.958   1.959   5.850
 8201POPC   GL149201   1.944   2.006   6.150
 8201POPC   GL249202   2.070   1.918   6.150
 8201POPC   C1A49203   1.948   1.960   6.450
 8201POPC   D2A49204   1.957   1.949   6.750
 8201POPC   C3A49205   2.002   2.027   7.050
 8201POPC   C4A49206   2.009   1.977   7.350
 8201POPC   C1B49207   2.073   1.759   6.450
 8201POPC   C2B49208   2.056   1.782   6.750
 8201POPC   C3B49209   2.028   1.751   7.050
 8201POPC   C4B49210   2.048   1.774   7.350
 8202POPC   NC349211  32.978  18.263   5.550
 8202POPC   PO449212  33.074  18.245   5.850
 8202POPC   GL149213  32.982  18.254   6.150
 8202POPC   GL249214  32.942  18.380   6.150
 8202POPC   C1A49215  33.037  18.274   6.450
 8202POPC   D2A49216  33.006  18.253   6.750
 8202POPC   C3A49217  33.073  18.284   7.050
 8202POPC   C4A49218  33.034  18.316   7.350
 8202POPC   C1B49219  32.801  18.408   6.450
 8202POPC   C2B49220  32.851  18.371   6.750
 8202POPC   C3B49221  32.804  18.407   7.050
 8202POPC   C4B49222  32.848  18.372   7.350
 8203POPC   NC349223  41.598  31.503   5.550
 8203POPC   PO449224  41.532  31.439   5.850
 8203POPC   GL149225  41.602  31.446   6.150
 8203POPC   GL249226  41.612  31.344   6.150
 8203POPC   C1A49227  41.549  31.442   6.450
 8203POPC   D2A49228  41.583  31.465   6.750
 8203POPC   C3A49229  41.581  31.446   7.050
 8203POPC   C4A49230  41.569  31.476   7.350
 8203POPC   C1B49231  41.682  31.248   6.450
 8203POPC   C2B49232  41.740  31.251   6.750
 8203POPC   C3B49233  41.653  31.304   7.050
 8203POPC   C4B49234  41.707  31.269   7.350
 8204POPC   NC349235  34.624  34.541   5.550
 8204POPC   PO449236  34.611  34.540   5.850
 8204POPC   GL149237  34.585  34.528   6.150
 8204POPC   GL249238  34.632  34.704   6.150
 8204POPC   C1A49239  34.554  34.542   6.450
 8204POPC   D2A49240  34.583  34.618   6.750
 8204POPC   C3A49241  34.563  34.618   7.050
 8204POPC   C4A49242  34.567  34.537   7.350
 8204POPC   C1B49243  34.602  34.776   6.450
 8204POPC   C2B49244  34.572  34.785   6.750
 8204POPC   C3B49245  34.613  34.865   7.050
 8204POPC   C4B49246  34.587  34.840   7.350
 8205POPC   NC349247  21.401  14.409   5.550
 8205POPC   PO449248  21.400  14.355   5.850
 8205POPC   GL149249  21.343  14.444   6.150
 8205POPC   GL249250  21.523  14.420   6.150
 8205POPC   C1A49251  21.420  14.376   6.450
 8205POPC   D2A49252  21.418  14.395   6.750
 8205POPC   C3A49253  21.348  14.439   7.050
 8205POPC   C4A49254  21.382  14.393   7.350
 8205POPC   C1B49255  21.612  14.487   6.450
 8205POPC   C2B49256  21.606  14.521   6.750
 8205POPC   C3B49257  21.622  14.545   7.050
 8205POPC   C4B49258  21.578  14.483   7.350
 8206POPC   NC349259  24.504  14.444   5.550
 8206POPC   PO449260  24.485  14.391   5.850
 8206POPC   GL149261  24.487  14.360   6.150
 8206POPC   GL249262  24.579  14.319   6.150
 8206POPC   C1A49263  24.480  14.447   6.450
 8206POPC   D2A49264  24.440  14.391   6.750
 8206POPC   C3A49265  24.461  14.429   7.050
 8206POPC   C4A49266  24.457  14.430   7.350
 8206POPC   C1B49267  24.601  14.194   6.450
 8206POPC   C2B49268  24.645  14.172   6.750
 8206POPC   C3B49269  24.609  14.174   7.050
 8206POPC   C4B49270  24.602  14.144   7.350
 8207POPC   NC349271  27.545  42.327   5.550
 8207POPC   PO449272  27.630  42.297   5.850
 8207POPC   GL149273  27.570  42.384   6.150
 8207POPC   GL249274  27.644  42.473   6.150
 8207POPC   C1A49275  27.569  42.336   6.450
 8207POPC   D2A49276  27.554  42.366   6.750
 8207POPC   C3A49277  27.550  42.350   7.050
 8207POPC   C4A49278  27.562  42.341   7.350
 8207POPC   C1B49279  27.633  42.590   6.450
 8207POPC   C2B49280  27.681  42.623   6.750
 8207POPC   C3B49281  27.625  42.559   7.050
 8207POPC   C4B49282  27.660  42.606   7.350
 8208POPC   NC349283  19.798  15.995   5.550
 8208POPC   PO449284  19.872  15.929   5.850
 8208POPC   GL149285  19.883  15.924   6.150
 8208POPC   GL249286  19.888  16.086   6.150
 8208POPC   C1A49287  19.813  15.954   6.450
 8208POPC   D2A49288  19.831  15.991   6.750
 8208POPC   C3A49289  19.823  15.972   7.050
 8208POPC   C4A49290  19.822  15.924   7.350
 8208POPC   C1B49291  19.953  16.165   6.450
 8208POPC   C2B49292  19.962  16.208   6.750
 8208POPC   C3B49293  20.011  16.126   7.050
 8208POPC   C4B49294  19.946  16.215   7.350
 8209POPC   NC349295  22.179  12.052   5.550
 8209POPC   PO449296  22.161  12.114   5.850
 8209POPC   GL149297  22.148  12.027   6.150
 8209POPC   GL249298  22.165  11.998   6.150
 8209POPC   C1A49299  22.162  12.096   6.450
 8209POPC   D2A49300  22.190  12.122   6.750
 8209POPC   C3A49301  22.189  12.095   7.050
 8209POPC   C4A49302  22.135  12.078   7.350
 8209POPC   C1B49303  22.240  11.822   6.450
 8209POPC   C2B49304  22.208  11.881   6.750
 8209POPC   C3B49305  22.240  11.814   7.050
 8209POPC   C4B49306  22.213  11.868   7.350
 8210POPC   NC349307   2.040  10.550   5.550
 8210POPC   PO449308   1.986  10.526   5.850
 8210POPC   GL149309   1.956  10.531   6.150
 8210POPC   GL249310   1.823  10.450   6.150
 8210POPC   C1A49311   2.028  10.565   6.450
 8210POPC   D2A49312   1.947  10.525   6.750
 8210POPC   C3A49313   1.985  10.565   7.050
 8210POPC   C4A49314   2.039  10.501   7.350
 8210POPC   C1B49315   1.795  10.426   6.450
 8210POPC   C2B49316   1.720  10.440   6.750
 8210POPC   C3B49317   1.755  10.443   7.050
 8210POPC   C4B49318   1.735  10.487   7.350
 8211POPC   NC349319   2.009   1.224   5.550
 8211POPC   PO449320   1.946   1.191   5.850
 8211POPC   GL149321   2.019   1.168   6.150
 8211POPC   GL249322   1.881   1.164   6.150
 8211POPC   C1A49323   1.944   1.217   6.450
 8211POPC   D2A49324   2.020   1.236   6.750
 8211POPC   C3A49325   2.039   1.229   7.050
 8211POPC   C4A49326   1.977   1.217   7.350
 8211POPC   C1B49327   1.715   1.239   6.450
 8211POPC   C2B49328   1.781   1.233   6.750
 8211POPC   C3B49329   1.783   1.200   7.050
 8211POPC   C4B49330   1.699   1.164   7.350
 8212POPC   NC349331  43.881  17.472   5.550
 8212POPC   PO449332  43.899  17.537   5.850
 8212POPC   GL149333  43.881  17.547   6.150
 8212POPC   GL249334  43.721  17.500   6.150
 8212POPC   C1A49335  43.884  17.540   6.450
 8212POPC   D2A49336  43.916  17.526   6.750
 8212POPC   C3A49337  43.898  17.470   7.050
 8212POPC   C4A49338  43.886  17.484   7.350
 8212POPC   C1B49339  43.640  17.600   6.450
 8212POPC   C2B49340  43.639  17.618   6.750
 8212POPC   C3B49341  43.646  17.539   7.050
 8212POPC   C4B49342  43.637  17.549   7.350
 8213POPC   NC349343  29.099  40.019   5.550
 8213POPC   PO449344  29.150  40.043   5.850
 8213POPC   GL149345  29.180  39.962   6.150
 8213POPC   GL249346  29.150  39.871   6.150
 8213POPC   C1A49347  29.163  40.036   6.450
 8213POPC   D2A49348  29.142  39.960   6.750
 8213POPC   C3A49349  29.128  40.056   7.050
 8213POPC   C4A49350  29.165  40.009   7.350
 8213POPC   C1B49351  29.157  39.800   6.450
 8213POPC   C2B49352  29.166  39.779   6.750
 8213POPC   C3B49353  29.201  39.745   7.050
 8213POPC   C4B49354  29.201  39.722   7.350
 8214POPC   NC349355  20.603  16.701   5.550
 8214POPC   PO449356  20.603  16.684   5.850
 8214POPC   GL149357  20.585  16.768   6.150
 8214POPC   GL249358  20.511  16.678   6.150
 8214POPC   C1A49359  20.658  16.751   6.450
 8214POPC   D2A49360  20.647  16.765   6.750
 8214POPC   C3A49361  20.646  16.741   7.050
 8214POPC   C4A49362  20.618  16.705   7.350
 8214POPC   C1B49363  20.402  16.562   6.450
 8214POPC   C2B49364  20.407  16.516   6.750
 8214POPC   C3B49365  20.489  16.526   7.050
 8214POPC   C4B49366  20.451  16.531   7.350
 8215POPC   NC349367   4.285  36.170   5.550
 8215POPC   PO449368   4.363  36.172   5.850
 8215POPC   GL149369   4.341  36.129   6.150
 8215POPC   GL249370   4.327  35.998   6.150
 8215POPC   C1A49371   4.291  36.124   6.450
 8215POPC   D2A49372   4.299  36.167   6.750
 8215POPC   C3A49373   4.315  36.131   7.050
 8215POPC   C4A49374   4.310  36.138   7.350
 8215POPC   C1B49375   4.408  35.941   6.450
 8215POPC   C2B49376   4.451  35.868   6.750
 8215POPC   C3B49377   4.455  35.910   7.050
 8215POPC   C4B49378   4.429  35.934   7.350
 8216POPC   NC349379  19.079   2.780   5.550
 8216POPC   PO449380  19.104   2.752   5.850
 8216POPC   GL149381  19.047   2.740   6.150
 8216POPC   GL249382  19.036   2.916   6.150
 8216POPC   C1A49383  19.025   2.785   6.450
 8216POPC   D2A49384  19.024   2.796   6.750
 8216POPC   C3A49385  19.015   2.742   7.050
 8216POPC   C4A49386  19.031   2.752   7.350
 8216POPC   C1B49387  18.975   3.003   6.450
 8216POPC   C2B49388  19.022   3.045   6.750
 8216POPC   C3B49389  18.971   3.040   7.050
 8216POPC   C4B49390  19.041   3.021   7.350
 8217POPC   NC349391  22.915  39.233   5.550
 8217POPC   PO449392  22.931  39.229   5.850
 8217POPC   GL149393  22.982  39.240   6.150
 8217POPC   GL249394  22.951  39.109   6.150
 8217POPC   C1A49395  22.916  39.280   6.450
 8217POPC   D2A49396  22.894  39.184   6.750
 8217POPC   C3A49397  22.907  39.249   7.050
 8217POPC   C4A49398  22.968  39.256   7.350
 8217POPC   C1B49399  23.042  39.048   6.450
 8217POPC   C2B49400  23.077  38.988   6.750
 8217POPC   C3B49401  23.038  38.958   7.050
 8217POPC   C4B49402  23.076  38.993   7.350
 8218POPC   NC349403  23.700  19.825   5.550
 8218POPC   PO449404  23.715  19.823   5.850
 8218POPC   GL149405  23.725  19.822   6.150
 8218POPC   GL249406  23.784  19.928   6.150
 8218POPC   C1A49407  23.735  19.804   6.450
 8218POPC   D2A49408  23.747  19.833   6.750
 8218POPC   C3A49409  23.760  19.871   7.050
 8218POPC   C4A49410  23.756  19.817   7.350
 8218POPC   C1B49411  23.847  20.020   6.450
 8218POPC   C2B49412  23.832  20.000   6.750
 8218POPC   C3B49413  23.883  20.003   7.050
 8218POPC   C4B49414  23.865  20.061   7.350
 8219POPC   NC349415   1.238  43.896   5.550
 8219POPC   PO449416   1.258  43.865   5.850
 8219POPC   GL149417   1.174  43.867   6.150
 8219POPC   GL249418   1.176  43.981   6.150
 8219POPC   C1A49419   1.207  43.845   6.450
 8219POPC   D2A49420   1.187  43.880   6.750
 8219POPC   C3A49421   1.216  43.903   7.050
 8219POPC   C4A49422   1.210  43.872   7.350
 8219POPC   C1B49423   1.100  44.112   6.450
 8219POPC   C2B49424   1.142  44.138   6.750
 8219POPC   C3B49425   1.119  44.077   7.050
 8219POPC   C4B49426   1.124  44.097   7.350
 8220POPC   NC349427  40.804   2.037   5.550
 8220POPC   PO449428  40.774   1.952   5.850
 8220POPC   GL149429  40.740   1.984   6.150
 8220POPC   GL249430  40.837   2.088   6.150
 8220POPC   C1A49431  40.743   1.975   6.450
 8220POPC   D2A49432  40.800   1.950   6.750
 8220POPC   C3A49433  40.766   2.014   7.050
 8220POPC   C4A49434  40.827   2.025   7.350
 8220POPC   C1B49435  40.911   2.150   6.450
 8220POPC   C2B49436  40.899   2.210   6.750
 8220POPC   C3B49437  40.961   2.205   7.050
 8220POPC   C4B49438  40.956   2.178   7.350
 8221POPC   NC349439  39.996  22.928   5.550
 8221POPC   PO449440  40.011  22.905   5.850
 8221POPC   GL149441  40.046  22.925   6.150
 8221POPC   GL249442  40.074  23.005   6.150
 8221POPC   C1A49443  40.013  22.962   6.450
 8221POPC   D2A49444  39.965  22.910   6.750
 8221POPC   C3A49445  40.047  22.927   7.050
 8221POPC   C4A49446  40.014  22.941   7.350
 8221POPC   C1B49447  40.101  23.103   6.450
 8221POPC   C2B49448  40.157  23.129   6.750
 8221POPC   C3B49449  40.161  23.180   7.050
 8221POPC   C4B49450  40.131  23.105   7.350
 8222POPC   NC349451  40.001   2.724   5.550
 8222POPC   PO449452  40.015   2.761   5.850
 8222POPC   GL149453  40.053   2.785   6.150
 8222POPC   GL249454  39.935   2.904   6.150
 8222POPC   C1A49455  39.963   2.761   6.450
 8222POPC   D2A49456  40.056   2.752   6.750
 8222POPC   C3A49457  40.045   2.795   7.050
 8222POPC   C4A49458  39.993   2.780   7.350
 8222POPC   C1B49459  39.862   3.037   6.450
 8222POPC   C2B49460  39.942   3.016   6.750
 8222POPC   C3B49461  39.914   2.955   7.050
 8222POPC   C4B49462  39.849   2.979   7.350
 8223POPC   NC349463  26.005  14.420   5.550
 8223POPC   PO449464  26.061  14.443   5.850
 8223POPC   GL149465  26.066  14.383   6.150
 8223POPC   GL249466  26.140  14.294   6.150
 8223POPC   C1A49467  26.085  14.408   6.450
 8223POPC   D2A49468  26.072  14.416   6.750
 8223POPC   C3A49469  26.032  14.443   7.050
 8223POPC   C4A49470  25.995  14.398   7.350
 8223POPC   C1B49471  26.130  14.189   6.450
 8223POPC   C2B49472  26.190  14.231   6.750
 8223POPC   C3B49473  26.137  14.191   7.050
 8223POPC   C4B49474  26.156  14.145   7.350
 8224POPC   NC349475  19.100  33.021   5.550
 8224POPC   PO449476  19.093  33.063   5.850
 8224POPC   GL149477  19.096  32.997   6.150
 8224POPC   GL249478  18.973  33.099   6.150
 8224POPC   C1A49479  19.047  33.020   6.450
 8224POPC   D2A49480  19.075  33.064   6.750
 8224POPC   C3A49481  19.025  33.072   7.050
 8224POPC   C4A49482  19.042  33.045   7.350
 8224POPC   C1B49483  18.789  33.077   6.450
 8224POPC   C2B49484  18.868  33.076   6.750
 8224POPC   C3B49485  18.784  33.164   7.050
 8224POPC   C4B49486  18.781  33.156   7.350
 8225POPC   NC349487   5.128  10.562   5.550
 8225POPC   PO449488   5.093  10.550   5.850
 8225POPC   GL149489   5.074  10.555   6.150
 8225POPC   GL249490   5.235  10.516   6.150
 8225POPC   C1A49491   5.121  10.513   6.450
 8225POPC   D2A49492   5.111  10.525   6.750
 8225POPC   C3A49493   5.130  10.564   7.050
 8225POPC   C4A49494   5.118  10.499   7.350
 8225POPC   C1B49495   5.319  10.501   6.450
 8225POPC   C2B49496   5.376  10.502   6.750
 8225POPC   C3B49497   5.355  10.490   7.050
 8225POPC   C4B49498   5.308  10.503   7.350
 8226POPC   NC349499  19.864  36.175   5.550
 8226POPC   PO449500  19.855  36.079   5.850
 8226POPC   GL149501  19.850  36.121   6.150
 8226POPC   GL249502  19.916  36.074   6.150
 8226POPC   C1A49503  19.854  36.110   6.450
 8226POPC   D2A49504  19.853  36.143   6.750
 8226POPC   C3A49505  19.831  36.094   7.050
 8226POPC   C4A49506  19.810  36.080   7.350
 8226POPC   C1B49507  20.081  36.048   6.450
 8226POPC   C2B49508  20.087  36.083   6.750
 8226POPC   C3B49509  20.078  36.046   7.050
 8226POPC   C4B49510  20.043  36.053   7.350
 8227POPC   NC349511  31.470  27.572   5.550
 8227POPC   PO449512  31.452  27.619   5.850
 8227POPC   GL149513  31.518  27.622   6.150
 8227POPC   GL249514  31.554  27.526   6.150
 8227POPC   C1A49515  31.468  27.560   6.450
 8227POPC   D2A49516  31.475  27.558   6.750
 8227POPC   C3A49517  31.463  27.588   7.050
 8227POPC   C4A49518  31.522  27.606   7.350
 8227POPC   C1B49519  31.657  27.492   6.450
 8227POPC   C2B49520  31.741  27.476   6.750
 8227POPC   C3B49521  31.698  27.481   7.050
 8227POPC   C4B49522  31.729  27.454   7.350
 8228POPC   NC349523  35.378  27.579   5.550
 8228POPC   PO449524  35.336  27.567   5.850
 8228POPC   GL149525  35.384  27.569   6.150
 8228POPC   GL249526  35.333  27.735   6.150
 8228POPC   C1A49527  35.362  27.607   6.450
 8228POPC   D2A49528  35.385  27.602   6.750
 8228POPC   C3A49529  35.389  27.598   7.050
 8228POPC   C4A49530  35.391  27.560   7.350
 8228POPC   C1B49531  35.323  27.796   6.450
 8228POPC   C2B49532  35.310  27.864   6.750
 8228POPC   C3B49533  35.344  27.866   7.050
 8228POPC   C4B49534  35.293  27.792   7.350
 8229POPC   NC349535   1.996   7.424   5.550
 8229POPC   PO449536   2.008   7.422   5.850
 8229POPC   GL149537   1.983   7.388   6.150
 8229POPC   GL249538   1.912   7.587   6.150
 8229POPC   C1A49539   1.983   7.441   6.450
 8229POPC   D2A49540   1.968   7.378   6.750
 8229POPC   C3A49541   1.997   7.407   7.050
 8229POPC   C4A49542   1.997   7.378   7.350
 8229POPC   C1B49543   1.897   7.620   6.450
 8229POPC   C2B49544   1.958   7.621   6.750
 8229POPC   C3B49545   1.876   7.675   7.050
 8229POPC   C4B49546   1.964   7.694   7.350
 8230POPC   NC349547  14.432  17.550   5.550
 8230POPC   PO449548  14.419  17.523   5.850
 8230POPC   GL149549  14.412  17.534   6.150
 8230POPC   GL249550  14.464  17.401   6.150
 8230POPC   C1A49551  14.403  17.461   6.450
 8230POPC   D2A49552  14.418  17.504   6.750
 8230POPC   C3A49553  14.411  17.510   7.050
 8230POPC   C4A49554  14.443  17.525   7.350
 8230POPC   C1B49555  14.595  17.322   6.450
 8230POPC   C2B49556  14.634  17.312   6.750
 8230POPC   C3B49557  14.590  17.311   7.050
 8230POPC   C4B49558  14.642  17.360   7.350
 8231POPC   NC349559   5.073   5.864   5.550
 8231POPC   PO449560   5.138   5.882   5.850
 8231POPC   GL149561   5.128   5.855   6.150
 8231POPC   GL249562   4.994   5.758   6.150
 8231POPC   C1A49563   5.134   5.850   6.450
 8231POPC   D2A49564   5.080   5.891   6.750
 8231POPC   C3A49565   5.124   5.909   7.050
 8231POPC   C4A49566   5.056   5.830   7.350
 8231POPC   C1B49567   5.010   5.609   6.450
 8231POPC   C2B49568   4.917   5.704   6.750
 8231POPC   C3B49569   5.003   5.616   7.050
 8231POPC   C4B49570   4.957   5.641   7.350
 8232POPC   NC349571  12.093  32.275   5.550
 8232POPC   PO449572  12.061  32.231   5.850
 8232POPC   GL149573  12.076  32.240   6.150
 8232POPC   GL249574  11.992  32.144   6.150
 8232POPC   C1A49575  12.086  32.294   6.450
 8232POPC   D2A49576  12.083  32.220   6.750
 8232POPC   C3A49577  12.101  32.199   7.050
 8232POPC   C4A49578  12.095  32.282   7.350
 8232POPC   C1B49579  11.916  32.076   6.450
 8232POPC   C2B49580  11.954  32.042   6.750
 8232POPC   C3B49581  11.987  32.038   7.050
 8232POPC   C4B49582  11.896  32.034   7.350
 8233POPC   NC349583  12.869   2.773   5.550
 8233POPC   PO449584  12.822   2.732   5.850
 8233POPC   GL149585  12.848   2.740   6.150
 8233POPC   GL249586  12.883   2.682   6.150
 8233POPC   C1A49587  12.834   2.793   6.450
 8233POPC   D2A49588  12.812   2.802   6.750
 8233POPC   C3A49589  12.890   2.775   7.050
 8233POPC   C4A49590  12.803   2.792   7.350
 8233POPC   C1B49591  12.913   2.518   6.450
 8233POPC   C2B49592  12.920   2.523   6.750
 8233POPC   C3B49593  12.981   2.514   7.050
 8233POPC   C4B49594  12.996   2.500   7.350
 8234POPC   NC349595  24.479  36.943   5.550
 8234POPC   PO449596  24.480  36.868   5.850
 8234POPC   GL149597  24.501  36.861   6.150
 8234POPC   GL249598  24.443  37.044   6.150
 8234POPC   C1A49599  24.523  36.888   6.450
 8234POPC   D2A49600  24.507  36.891   6.750
 8234POPC   C3A49601  24.480  36.913   7.050
 8234POPC   C4A49602  24.452  36.861   7.350
 8234POPC   C1B49603  24.513  37.186   6.450
 8234POPC   C2B49604  24.501  37.114   6.750
 8234POPC   C3B49605  24.479  37.181   7.050
 8234POPC   C4B49606  24.471  37.109   7.350
 8235POPC   NC349607  26.817   6.599   5.550
 8235POPC   PO449608  26.858   6.683   5.850
 8235POPC   GL149609  26.836   6.627   6.150
 8235POPC   GL249610  26.886   6.605   6.150
 8235POPC   C1A49611  26.799   6.644   6.450
 8235POPC   D2A49612  26.823   6.615   6.750
 8235POPC   C3A49613  26.813   6.640   7.050
 8235POPC   C4A49614  26.830   6.685   7.350
 8235POPC   C1B49615  27.073   6.518   6.450
 8235POPC   C2B49616  27.082   6.529   6.750
 8235POPC   C3B49617  27.018   6.511   7.050
 8235POPC   C4B49618  27.021   6.503   7.350
 8236POPC   NC349619  39.233  36.906   5.550
 8236POPC   PO449620  39.198  36.866   5.850
 8236POPC   GL149621  39.237  36.912   6.150
 8236POPC   GL249622  39.250  36.768   6.150
 8236POPC   C1A49623  39.195  36.885   6.450
 8236POPC   D2A49624  39.231  36.887   6.750
 8236POPC   C3A49625  39.245  36.866   7.050
 8236POPC   C4A49626  39.199  36.854   7.350
 8236POPC   C1B49627  39.398  36.650   6.450
 8236POPC   C2B49628  39.385  36.676   6.750
 8236POPC   C3B49629  39.321  36.661   7.050
 8236POPC   C4B49630  39.387  36.735   7.350
 8237POPC   NC349631  43.146   5.135   5.550
 8237POPC   PO449632  43.154   5.085   5.850
 8237POPC   GL149633  43.074   5.062   6.150
 8237POPC   GL249634  42.960   5.168   6.150
 8237POPC   C1A49635  43.106   5.063   6.450
 8237POPC   D2A49636  43.104   5.064   6.750
 8237POPC   C3A49637  43.148   5.107   7.050
 8237POPC   C4A49638  43.096   5.106   7.350
 8237POPC   C1B49639  42.855   5.204   6.450
 8237POPC   C2B49640  42.931   5.195   6.750
 8237POPC   C3B49641  42.880   5.202   7.050
 8237POPC   C4B49642  42.846   5.171   7.350
 8238POPC   NC349643  13.663  39.255   5.550
 8238POPC   PO449644  13.666  39.263   5.850
 8238POPC   GL149645  13.655  39.223   6.150
 8238POPC   GL249646  13.746  39.202   6.150
 8238POPC   C1A49647  13.675  39.191   6.450
 8238POPC   D2A49648  13.638  39.228   6.750
 8238POPC   C3A49649  13.645  39.262   7.050
 8238POPC   C4A49650  13.671  39.199   7.350
 8238POPC   C1B49651  13.914  39.249   6.450
 8238POPC   C2B49652  13.845  39.243   6.750
 8238POPC   C3B49653  13.921  39.241   7.050
 8238POPC   C4B49654  13.874  39.194   7.350
 8239POPC   NC349655  37.636  12.106   5.550
 8239POPC   PO449656  37.698  12.106   5.850
 8239POPC   GL149657  37.678  12.032   6.150
 8239POPC   GL249658  37.646  11.961   6.150
 8239POPC   C1A49659  37.676  12.050   6.450
 8239POPC   D2A49660  37.656  12.121   6.750
 8239POPC   C3A49661  37.640  12.049   7.050
 8239POPC   C4A49662  37.671  12.080   7.350
 8239POPC   C1B49663  37.757  11.842   6.450
 8239POPC   C2B49664  37.719  11.830   6.750
 8239POPC   C3B49665  37.750  11.794   7.050
 8239POPC   C4B49666  37.727  11.865   7.350
 8240POPC   NC349667  20.627  31.439   5.550
 8240POPC   PO449668  20.643  31.489   5.850
 8240POPC   GL149669  20.574  31.466   6.150
 8240POPC   GL249670  20.674  31.570   6.150
 8240POPC   C1A49671  20.639  31.446   6.450
 8240POPC   D2A49672  20.609  31.485   6.750
 8240POPC   C3A49673  20.656  31.465   7.050
 8240POPC   C4A49674  20.603  31.511   7.350
 8240POPC   C1B49675  20.781  31.643   6.450
 8240POPC   C2B49676  20.696  31.723   6.750
 8240POPC   C3B49677  20.744  31.701   7.050
 8240POPC   C4B49678  20.717  31.677   7.350
 8241POPC   NC349679  29.935  43.084   5.550
 8241POPC   PO449680  29.932  43.101   5.850
 8241POPC   GL149681  29.915  43.130   6.150
 8241POPC   GL249682  29.808  43.119   6.150
 8241POPC   C1A49683  29.936  43.096   6.450
 8241POPC   D2A49684  29.880  43.158   6.750
 8241POPC   C3A49685  29.970  43.079   7.050
 8241POPC   C4A49686  29.903  43.115   7.350
 8241POPC   C1B49687  29.660  43.190   6.450
 8241POPC   C2B49688  29.664  43.147   6.750
 8241POPC   C3B49689  29.717  43.114   7.050
 8241POPC   C4B49690  29.680  43.170   7.350
 8242POPC   NC349691  11.310  39.228   5.550
 8242POPC   PO449692  11.302  39.217   5.850
 8242POPC   GL149693  11.251  39.247   6.150
 8242POPC   GL249694  11.424  39.333   6.150
 8242POPC   C1A49695  11.320  39.199   6.450
 8242POPC   D2A49696  11.329  39.240   6.750
 8242POPC   C3A49697  11.321  39.208   7.050
 8242POPC   C4A49698  11.327  39.261   7.350
 8242POPC   C1B49699  11.428  39.403   6.450
 8242POPC   C2B49700  11.423  39.434   6.750
 8242POPC   C3B49701  11.510  39.371   7.050
 8242POPC   C4B49702  11.515  39.403   7.350
 8243POPC   NC349703  35.322   5.089   5.550
 8243POPC   PO449704  35.308   5.111   5.850
 8243POPC   GL149705  35.345   5.053   6.150
 8243POPC   GL249706  35.445   5.223   6.150
 8243POPC   C1A49707  35.316   5.056   6.450
 8243POPC   D2A49708  35.347   5.114   6.750
 8243POPC   C3A49709  35.348   5.127   7.050
 8243POPC   C4A49710  35.318   5.085   7.350
 8243POPC   C1B49711  35.413   5.340   6.450
 8243POPC   C2B49712  35.406   5.277   6.750
 8243POPC   C3B49713  35.494   5.284   7.050
 8243POPC   C4B49714  35.427   5.288   7.350
 8244POPC   NC349715  18.296  33.776   5.550
 8244POPC   PO449716  18.295  33.822   5.850
 8244POPC   GL149717  18.299  33.796   6.150
 8244POPC   GL249718  18.314  33.690   6.150
 8244POPC   C1A49719  18.243  33.780   6.450
 8244POPC   D2A49720  18.308  33.753   6.750
 8244POPC   C3A49721  18.273  33.796   7.050
 8244POPC   C4A49722  18.328  33.803   7.350
 8244POPC   C1B49723  18.300  33.517   6.450
 8244POPC   C2B49724  18.322  33.576   6.750
 8244POPC   C3B49725  18.299  33.534   7.050
 8244POPC   C4B49726  18.274  33.593   7.350
 8245POPC   NC349727  36.945  19.804   5.550
 8245POPC   PO449728  36.889  19.810   5.850
 8245POPC   GL149729  36.907  19.817   6.150
 8245POPC   GL249730  37.059  19.822   6.150
 8245POPC   C1A49731  36.899  19.795   6.450
 8245POPC   D2A49732  36.953  19.836   6.750
 8245POPC   C3A49733  36.867  19.817   7.050
 8245POPC   C4A49734  36.859  19.809   7.350
 8245POPC   C1B49735  37.152  19.875   6.450
 8245POPC   C2B49736  37.150  19.917   6.750
 8245POPC   C3B49737  37.111  19.885   7.050
 8245POPC   C4B49738  37.119  19.885   7.350
 8246POPC   NC349739  36.895  16.753   5.550
 8246POPC   PO449740  36.908  16.752   5.850
 8246POPC   GL149741  36.947  16.759   6.150
 8246POPC   GL249742  36.817  16.860   6.150
 8246POPC   C1A49743  36.899  16.780   6.450
 8246POPC   D2A49744  36.939  16.724   6.750
 8246POPC   C3A49745  36.922  16.722   7.050
 8246POPC   C4A49746  36.914  16.730   7.350
 8246POPC   C1B49747  36.757  16.890   6.450
 8246POPC   C2B49748  36.746  16.968   6.750
 8246POPC   C3B49749  36.763  16.887   7.050
 8246POPC   C4B49750  36.716  16.965   7.350
 8247POPC   NC349751  39.206  34.540   5.550
 8247POPC   PO449752  39.254  34.548   5.850
 8247POPC   GL149753  39.220  34.541   6.150
 8247POPC   GL249754  39.083  34.575   6.150
 8247POPC   C1A49755  39.269  34.575   6.450
 8247POPC   D2A49756  39.231  34.603   6.750
 8247POPC   C3A49757  39.272  34.567   7.050
 8247POPC   C4A49758  39.251  34.603   7.350
 8247POPC   C1B49759  39.037  34.685   6.450
 8247POPC   C2B49760  39.022  34.601   6.750
 8247POPC   C3B49761  38.943  34.606   7.050
 8247POPC   C4B49762  39.035  34.616   7.350
 8248POPC   NC349763  22.978   5.045   5.550
 8248POPC   PO449764  22.957   5.137   5.850
 8248POPC   GL149765  22.947   5.131   6.150
 8248POPC   GL249766  23.058   5.106   6.150
 8248POPC   C1A49767  22.977   5.124   6.450
 8248POPC   D2A49768  22.936   5.133   6.750
 8248POPC   C3A49769  22.967   5.064   7.050
 8248POPC   C4A49770  22.959   5.071   7.350
 8248POPC   C1B49771  23.146   5.111   6.450
 8248POPC   C2B49772  23.199   5.050   6.750
 8248POPC   C3B49773  23.165   5.098   7.050
 8248POPC   C4B49774  23.216   5.079   7.350
 8249POPC   NC349775  29.879  44.690   5.550
 8249POPC   PO449776  29.943  44.668   5.850
 8249POPC   GL149777  29.900  44.664   6.150
 8249POPC   GL249778  29.814  44.760   6.150
 8249POPC   C1A49779  29.921  44.661   6.450
 8249POPC   D2A49780  29.950  44.649   6.750
 8249POPC   C3A49781  29.959  44.709   7.050
 8249POPC   C4A49782  29.905  44.675   7.350
 8249POPC   C1B49783  29.703  44.840   6.450
 8249POPC   C2B49784  29.767  44.795   6.750
 8249POPC   C3B49785  29.771  44.851   7.050
 8249POPC   C4B49786  29.691  44.814   7.350
 8250POPC   NC349787  37.651  31.448   5.550
 8250POPC   PO449788  37.712  31.517   5.850
 8250POPC   GL149789  37.657  31.455   6.150
 8250POPC   GL249790  37.592  31.405   6.150
 8250POPC   C1A49791  37.727  31.442   6.450
 8250POPC   D2A49792  37.672  31.459   6.750
 8250POPC   C3A49793  37.654  31.455   7.050
 8250POPC   C4A49794  37.727  31.439   7.350
 8250POPC   C1B49795  37.397  31.398   6.450
 8250POPC   C2B49796  37.436  31.350   6.750
 8250POPC   C3B49797  37.403  31.393   7.050
 8250POPC   C4B49798  37.412  31.409   7.350
 8251POPC   NC349799  38.474   8.184   5.550
 8251POPC   PO449800  38.408   8.225   5.850
 8251POPC   GL149801  38.475   8.227   6.150
 8251POPC   GL249802  38.378   8.098   6.150
 8251POPC   C1A49803  38.437   8.235   6.450
 8251POPC   D2A49804  38.469   8.148   6.750
 8251POPC   C3A49805  38.437   8.149   7.050
 8251POPC   C4A49806  38.424   8.222   7.350
 8251POPC   C1B49807  38.315   8.027   6.450
 8251POPC   C2B49808  38.362   7.977   6.750
 8251POPC   C3B49809  38.352   7.952   7.050
 8251POPC   C4B49810  38.309   7.993   7.350
 8252POPC   NC349811  11.265  36.142   5.550
 8252POPC   PO449812  11.313  36.139   5.850
 8252POPC   GL149813  11.259  36.131   6.150
 8252POPC   GL249814  11.379  36.106   6.150
 8252POPC   C1A49815  11.291  36.174   6.450
 8252POPC   D2A49816  11.329  36.116   6.750
 8252POPC   C3A49817  11.344  36.103   7.050
 8252POPC   C4A49818  11.293  36.101   7.350
 8252POPC   C1B49819  11.523  36.008   6.450
 8252POPC   C2B49820  11.531  36.036   6.750
 8252POPC   C3B49821  11.496  36.013   7.050
 8252POPC   C4B49822  11.537  36.054   7.350
 8253POPC   NC349823  38.491  33.822   5.550
 8253POPC   PO449824  38.411  33.787   5.850
 8253POPC   GL149825  38.436  33.752   6.150
 8253POPC   GL249826  38.403  33.686   6.150
 8253POPC   C1A49827  38.409  33.832   6.450
 8253POPC   D2A49828  38.473  33.838   6.750
 8253POPC   C3A49829  38.480  33.832   7.050
 8253POPC   C4A49830  38.440  33.824   7.350
 8253POPC   C1B49831  38.440  33.596   6.450
 8253POPC   C2B49832  38.441  33.506   6.750
 8253POPC   C3B49833  38.454  33.567   7.050
 8253POPC   C4B49834  38.415  33.534   7.350
 8254POPC   NC349835  12.099  17.497   5.550
 8254POPC   PO449836  12.114  17.511   5.850
 8254POPC   GL149837  12.057  17.476   6.150
 8254POPC   GL249838  12.061  17.649   6.150
 8254POPC   C1A49839  12.078  17.486   6.450
 8254POPC   D2A49840  12.118  17.489   6.750
 8254POPC   C3A49841  12.126  17.552   7.050
 8254POPC   C4A49842  12.066  17.479   7.350
 8254POPC   C1B49843  12.133  17.709   6.450
 8254POPC   C2B49844  12.148  17.764   6.750
 8254POPC   C3B49845  12.099  17.717   7.050
 8254POPC   C4B49846  12.121  17.781   7.350
 8255POPC   NC349847  20.617  43.861   5.550
 8255POPC   PO449848  20.642  43.901   5.850
 8255POPC   GL149849  20.645  43.894   6.150
 8255POPC   GL249850  20.692  43.901   6.150
 8255POPC   C1A49851  20.612  43.848   6.450
 8255POPC   D2A49852  20.633  43.893   6.750
 8255POPC   C3A49853  20.578  43.885   7.050
 8255POPC   C4A49854  20.590  43.908   7.350
 8255POPC   C1B49855  20.833  43.837   6.450
 8255POPC   C2B49856  20.871  43.832   6.750
 8255POPC   C3B49857  20.856  43.824   7.050
 8255POPC   C4B49858  20.852  43.820   7.350
 8256POPC   NC349859  39.972   3.584   5.550
 8256POPC   PO449860  40.034   3.504   5.850
 8256POPC   GL149861  39.967   3.582   6.150
 8256POPC   GL249862  39.995   3.410   6.150
 8256POPC   C1A49863  39.971   3.520   6.450
 8256POPC   D2A49864  40.036   3.501   6.750
 8256POPC   C3A49865  39.998   3.577   7.050
 8256POPC   C4A49866  39.965   3.565   7.350
 8256POPC   C1B49867  40.096   3.344   6.450
 8256POPC   C2B49868  40.036   3.295   6.750
 8256POPC   C3B49869  40.087   3.315   7.050
 8256POPC   C4B49870  40.040   3.292   7.350
 8257POPC   NC349871  39.972  20.587   5.550
 8257POPC   PO449872  39.999  20.653   5.850
 8257POPC   GL149873  40.013  20.593   6.150
 8257POPC   GL249874  40.073  20.501   6.150
 8257POPC   C1A49875  40.006  20.652   6.450
 8257POPC   D2A49876  40.056  20.649   6.750
 8257POPC   C3A49877  40.055  20.656   7.050
 8257POPC   C4A49878  39.968  20.623   7.350
 8257POPC   C1B49879  40.088  20.375   6.450
 8257POPC   C2B49880  40.019  20.354   6.750
 8257POPC   C3B49881  40.002  20.333   7.050
 8257POPC   C4B49882  40.015  20.337   7.350
 8258POPC   NC349883   6.643  14.405   5.550
 8258POPC   PO449884   6.605  14.380   5.850
 8258POPC   GL149885   6.658  14.416   6.150
 8258POPC   GL249886   6.757  14.315   6.150
 8258POPC   C1A49887   6.660  14.376   6.450
 8258POPC   D2A49888   6.611  14.450   6.750
 8258POPC   C3A49889   6.666  14.448   7.050
 8258POPC   C4A49890   6.671  14.405   7.350
 8258POPC   C1B49891   6.835  14.201   6.450
 8258POPC   C2B49892   6.849  14.273   6.750
 8258POPC   C3B49893   6.817  14.209   7.050
 8258POPC   C4B49894   6.862  14.222   7.350
 8259POPC   NC349895  42.324  15.156   5.550
 8259POPC   PO449896  42.345  15.145   5.850
 8259POPC   GL149897  42.331  15.151   6.150
 8259POPC   GL249898  42.262  15.092   6.150
 8259POPC   C1A49899  42.287  15.212   6.450
 8259POPC   D2A49900  42.307  15.194   6.750
 8259POPC   C3A49901  42.299  15.229   7.050
 8259POPC   C4A49902  42.364  15.215   7.350
 8259POPC   C1B49903  42.209  14.974   6.450
 8259POPC   C2B49904  42.252  14.998   6.750
 8259POPC   C3B49905  42.275  14.909   7.050
 8259POPC   C4B49906  42.267  14.979   7.350
 8260POPC   NC349907  38.499  39.240   5.550
 8260POPC   PO449908  38.424  39.227   5.850
 8260POPC   GL149909  38.462  39.182   6.150
 8260POPC   GL249910  38.399  39.293   6.150
 8260POPC   C1A49911  38.437  39.246   6.450
 8260POPC   D2A49912  38.425  39.209   6.750
 8260POPC   C3A49913  38.437  39.261   7.050
 8260POPC   C4A49914  38.410  39.208   7.350
 8260POPC   C1B49915  38.284  39.445   6.450
 8260POPC   C2B49916  38.246  39.421   6.750
 8260POPC   C3B49917  38.232  39.427   7.050
 8260POPC   C4B49918  38.301  39.358   7.350
 8261POPC   NC349919   5.062  15.186   5.550
 8261POPC   PO449920   5.117  15.212   5.850
 8261POPC   GL149921   5.050  15.168   6.150
 8261POPC   GL249922   5.153  15.104   6.150
 8261POPC   C1A49923   5.107  15.130   6.450
 8261POPC   D2A49924   5.081  15.150   6.750
 8261POPC   C3A49925   5.131  15.216   7.050
 8261POPC   C4A49926   5.127  15.206   7.350
 8261POPC   C1B49927   5.261  15.032   6.450
 8261POPC   C2B49928   5.284  15.040   6.750
 8261POPC   C3B49929   5.278  14.984   7.050
 8261POPC   C4B49930   5.328  14.997   7.350
 8262POPC   NC349931  29.192   5.115   5.550
 8262POPC   PO449932  29.113   5.123   5.850
 8262POPC   GL149933  29.176   5.079   6.150
 8262POPC   GL249934  29.265   5.115   6.150
 8262POPC   C1A49935  29.153   5.101   6.450
 8262POPC   D2A49936  29.181   5.088   6.750
 8262POPC   C3A49937  29.170   5.084   7.050
 8262POPC   C4A49938  29.194   5.066   7.350
 8262POPC   C1B49939  29.426   5.152   6.450
 8262POPC   C2B49940  29.418   5.119   6.750
 8262POPC   C3B49941  29.343   5.122   7.050
 8262POPC   C4B49942  29.380   5.195   7.350
 8263POPC   NC349943  22.155  29.129   5.550
 8263POPC   PO449944  22.210  29.131   5.850
 8263POPC   GL149945  22.129  29.188   6.150
 8263POPC   GL249946  22.319  29.163   6.150
 8263POPC   C1A49947  22.175  29.163   6.450
 8263POPC   D2A49948  22.150  29.144   6.750
 8263POPC   C3A49949  22.120  29.101   7.050
 8263POPC   C4A49950  22.203  29.121   7.350
 8263POPC   C1B49951  22.386  29.144   6.450
 8263POPC   C2B49952  22.448  29.151   6.750
 8263POPC   C3B49953  22.444  29.191   7.050
 8263POPC   C4B49954  22.393  29.148   7.350
 8264POPC   NC349955  40.754  25.219   5.550
 8264POPC   PO449956  40.792  25.285   5.850
 8264POPC   GL149957  40.737  25.251   6.150
 8264POPC   GL249958  40.853  25.147   6.150
 8264POPC   C1A49959  40.773  25.238   6.450
 8264POPC   D2A49960  40.816  25.285   6.750
 8264POPC   C3A49961  40.754  25.314   7.050
 8264POPC   C4A49962  40.809  25.280   7.350
 8264POPC   C1B49963  40.883  25.039   6.450
 8264POPC   C2B49964  40.850  25.051   6.750
 8264POPC   C3B49965  40.846  25.063   7.050
 8264POPC   C4B49966  40.801  25.004   7.350
 8265POPC   NC349967  15.225  27.629   5.550
 8265POPC   PO449968  15.206  27.615   5.850
 8265POPC   GL149969  15.202  27.554   6.150
 8265POPC   GL249970  15.176  27.455   6.150
 8265POPC   C1A49971  15.227  27.576   6.450
 8265POPC   D2A49972  15.175  27.549   6.750
 8265POPC   C3A49973  15.185  27.566   7.050
 8265POPC   C4A49974  15.211  27.625   7.350
 8265POPC   C1B49975  15.063  27.332   6.450
 8265POPC   C2B49976  15.056  27.357   6.750
 8265POPC   C3B49977  15.126  27.322   7.050
 8265POPC   C4B49978  15.132  27.351   7.350
 8266POPC   NC349979  12.058  14.399   5.550
 8266POPC   PO449980  12.095  14.450   5.850
 8266POPC   GL149981  12.113  14.368   6.150
 8266POPC   GL249982  11.980  14.491   6.150
 8266POPC   C1A49983  12.125  14.434   6.450
 8266POPC   D2A49984  12.083  14.448   6.750
 8266POPC   C3A49985  12.066  14.416   7.050
 8266POPC   C4A49986  12.119  14.372   7.350
 8266POPC   C1B49987  11.958  14.662   6.450
 8266POPC   C2B49988  11.971  14.605   6.750
 8266POPC   C3B49989  11.976  14.667   7.050
 8266POPC   C4B49990  11.967  14.658   7.350
 8267POPC   NC349991  14.391  24.457   5.550
 8267POPC   PO449992  14.362  24.456   5.850
 8267POPC   GL149993  14.413  24.491   6.150
 8267POPC   GL249994  14.527  24.523   6.150
 8267POPC   C1A49995  14.428  24.462   6.450
 8267POPC   D2A49996  14.386  24.491   6.750
 8267POPC   C3A49997  14.383  24.453   7.050
 8267POPC   C4A49998  14.442  24.471   7.350
 8267POPC   C1B49999  14.578  24.612   6.450
 8267POPC   C2B50000  14.611  24.622   6.750
 8267POPC   C3B50001  14.625  24.594   7.050
 8267POPC   C4B50002  14.613  24.603   7.350
 8268POPC   NC350003  34.537  15.202   5.550
 8268POPC   PO450004  34.567  15.184   5.850
 8268POPC   GL150005  34.539  15.226   6.150
 8268POPC   GL250006  34.418  15.251   6.150
 8268POPC   C1A50007  34.605  15.165   6.450
 8268POPC   D2A50008  34.557  15.194   6.750
 8268POPC   C3A50009  34.581  15.196   7.050
 8268POPC   C4A50010  34.589  15.146   7.350
 8268POPC   C1B50011  34.349  15.184   6.450
 8268POPC   C2B50012  34.301  15.267   6.750
 8268POPC   C3B50013  34.294  15.204   7.050
 8268POPC   C4B50014  34.334  15.280   7.350
 8269POPC   NC350015   3.554  26.781   5.550
 8269POPC   PO450016   3.521  26.839   5.850
 8269POPC   GL150017   3.553  26.850   6.150
 8269POPC   GL250018   3.415  26.750   6.150
 8269POPC   C1A50019   3.562  26.778   6.450
 8269POPC   D2A50020   3.566  26.830   6.750
 8269POPC   C3A50021   3.541  26.800   7.050
 8269POPC   C4A50022   3.500  26.780   7.350
 8269POPC   C1B50023   3.279  26.685   6.450
 8269POPC   C2B50024   3.359  26.700   6.750
 8269POPC   C3B50025   3.299  26.671   7.050
 8269POPC   C4B50026   3.347  26.662   7.350
 8270POPC   NC350027   6.647  22.181   5.550
 8270POPC   PO450028   6.598  22.139   5.850
 8270POPC   GL150029   6.619  22.169   6.150
 8270POPC   GL250030   6.685  22.099   6.150
 8270POPC   C1A50031   6.657  22.201   6.450
 8270POPC   D2A50032   6.655  22.132   6.750
 8270POPC   C3A50033   6.609  22.166   7.050
 8270POPC   C4A50034   6.624  22.206   7.350
 8270POPC   C1B50035   6.781  21.947   6.450
 8270POPC   C2B50036   6.782  21.961   6.750
 8270POPC   C3B50037   6.830  21.973   7.050
 8270POPC   C4B50038   6.815  21.965   7.350
 8271POPC   NC350039  19.042  16.688   5.550
 8271POPC   PO450040  19.073  16.694   5.850
 8271POPC   GL150041  19.022  16.723   6.150
 8271POPC   GL250042  18.919  16.814   6.150
 8271POPC   C1A50043  19.073  16.766   6.450
 8271POPC   D2A50044  19.089  16.720   6.750
 8271POPC   C3A50045  19.050  16.776   7.050
 8271POPC   C4A50046  19.049  16.698   7.350
 8271POPC   C1B50047  18.822  16.860   6.450
 8271POPC   C2B50048  18.850  16.810   6.750
 8271POPC   C3B50049  18.809  16.791   7.050
 8271POPC   C4B50050  18.820  16.795   7.350
 8272POPC   NC350051   9.708  41.603   5.550
 8272POPC   PO450052   9.749  41.564   5.850
 8272POPC   GL150053   9.719  41.528   6.150
 8272POPC   GL250054   9.668  41.674   6.150
 8272POPC   C1A50055   9.733  41.523   6.450
 8272POPC   D2A50056   9.751  41.576   6.750
 8272POPC   C3A50057   9.788  41.539   7.050
 8272POPC   C4A50058   9.770  41.535   7.350
 8272POPC   C1B50059   9.506  41.683   6.450
 8272POPC   C2B50060   9.515  41.732   6.750
 8272POPC   C3B50061   9.577  41.736   7.050
 8272POPC   C4B50062   9.530  41.729   7.350
 8273POPC   NC350063   0.476   7.386   5.550
 8273POPC   PO450064   0.437   7.467   5.850
 8273POPC   GL150065   0.476   7.468   6.150
 8273POPC   GL250066   0.348   7.575   6.150
 8273POPC   C1A50067   0.438   7.433   6.450
 8273POPC   D2A50068   0.470   7.420   6.750
 8273POPC   C3A50069   0.461   7.457   7.050
 8273POPC   C4A50070   0.424   7.458   7.350
 8273POPC   C1B50071   0.360   7.618   6.450
 8273POPC   C2B50072   0.392   7.699   6.750
 8273POPC   C3B50073   0.327   7.680   7.050
 8273POPC   C4B50074   0.304   7.617   7.350
 8274POPC   NC350075  26.047  19.105   5.550
 8274POPC   PO450076  26.090  19.034   5.850
 8274POPC   GL150077  26.090  19.047   6.150
 8274POPC   GL250078  26.054  19.231   6.150
 8274POPC   C1A50079  26.056  19.026   6.450
 8274POPC   D2A50080  26.071  19.035   6.750
 8274POPC   C3A50081  26.065  19.052   7.050
 8274POPC   C4A50082  26.027  19.101   7.350
 8274POPC   C1B50083  26.088  19.261   6.450
 8274POPC   C2B50084  26.004  19.294   6.750
 8274POPC   C3B50085  26.070  19.286   7.050
 8274POPC   C4B50086  26.088  19.345   7.350
 8275POPC   NC350087  25.290   9.742   5.550
 8275POPC   PO450088  25.246   9.750   5.850
 8275POPC   GL150089  25.300   9.786   6.150
 8275POPC   GL250090  25.384   9.610   6.150
 8275POPC   C1A50091  25.285   9.745   6.450
 8275POPC   D2A50092  25.229   9.787   6.750
 8275POPC   C3A50093  25.228   9.788   7.050
 8275POPC   C4A50094  25.254   9.760   7.350
 8275POPC   C1B50095  25.477   9.562   6.450
 8275POPC   C2B50096  25.381   9.593   6.750
 8275POPC   C3B50097  25.415   9.593   7.050
 8275POPC   C4B50098  25.432   9.523   7.350
 8276POPC   NC350099  12.042  36.121   5.550
 8276POPC   PO450100  12.056  36.085   5.850
 8276POPC   GL150101  12.075  36.084   6.150
 8276POPC   GL250102  11.967  36.109   6.150
 8276POPC   C1A50103  12.032  36.172   6.450
 8276POPC   D2A50104  12.100  36.081   6.750
 8276POPC   C3A50105  12.058  36.167   7.050
 8276POPC   C4A50106  12.060  36.117   7.350
 8276POPC   C1B50107  11.793  36.188   6.450
 8276POPC   C2B50108  11.802  36.124   6.750
 8276POPC   C3B50109  11.870  36.164   7.050
 8276POPC   C4B50110  11.789  36.114   7.350
 8277POPC   NC350111   8.997   7.441   5.550
 8277POPC   PO450112   9.020   7.402   5.850
 8277POPC   GL150113   8.991   7.406   6.150
 8277POPC   GL250114   9.100   7.349   6.150
 8277POPC   C1A50115   8.948   7.432   6.450
 8277POPC   D2A50116   8.963   7.389   6.750
 8277POPC   C3A50117   8.928   7.405   7.050
 8277POPC   C4A50118   8.991   7.407   7.350
 8277POPC   C1B50119   9.167   7.342   6.450
 8277POPC   C2B50120   9.188   7.341   6.750
 8277POPC   C3B50121   9.178   7.359   7.050
 8277POPC   C4B50122   9.260   7.387   7.350
 8278POPC   NC350123  12.043  15.914   5.550
 8278POPC   PO450124  12.079  15.996   5.850
 8278POPC   GL150125  12.090  15.928   6.150
 8278POPC   GL250126  11.987  15.890   6.150
 8278POPC   C1A50127  12.050  15.971   6.450
 8278POPC   D2A50128  12.092  16.000   6.750
 8278POPC   C3A50129  12.103  15.978   7.050
 8278POPC   C4A50130  12.074  15.980   7.350
 8278POPC   C1B50131  11.825  15.810   6.450
 8278POPC   C2B50132  11.854  15.827   6.750
 8278POPC   C3B50133  11.860  15.868   7.050
 8278POPC   C4B50134  11.903  15.808   7.350
 8279POPC   NC350135  18.323  37.666   5.550
 8279POPC   PO450136  18.264  37.665   5.850
 8279POPC   GL150137  18.295  37.674   6.150
 8279POPC   GL250138  18.202  37.712   6.150
 8279POPC   C1A50139  18.329  37.711   6.450
 8279POPC   D2A50140  18.290  37.727   6.750
 8279POPC   C3A50141  18.267  37.644   7.050
 8279POPC   C4A50142  18.315  37.728   7.350
 8279POPC   C1B50143  18.031  37.767   6.450
 8279POPC   C2B50144  18.014  37.734   6.750
 8279POPC   C3B50145  18.078  37.744   7.050
 8279POPC   C4B50146  18.035  37.728   7.350
 8280POPC   NC350147  39.973  27.642   5.550
 8280POPC   PO450148  39.972  27.579   5.850
 8280POPC   GL150149  40.009  27.567   6.150
 8280POPC   GL250150  40.066  27.704   6.150
 8280POPC   C1A50151  40.023  27.577   6.450
 8280POPC   D2A50152  39.960  27.588   6.750
 8280POPC   C3A50153  39.991  27.578   7.050
 8280POPC   C4A50154  39.997  27.615   7.350
 8280POPC   C1B50155  40.171  27.788   6.450
 8280POPC   C2B50156  40.089  27.839   6.750
 8280POPC   C3B50157  40.112  27.804   7.050
 8280POPC   C4B50158  40.131  27.762   7.350
 8281POPC   NC350159  19.087  37.689   5.550
 8281POPC   PO450160  19.085  37.654   5.850
 8281POPC   GL150161  19.101  37.700   6.150
 8281POPC   GL250162  18.932  37.775   6.150
 8281POPC   C1A50163  19.090  37.722   6.450
 8281POPC   D2A50164  19.011  37.688   6.750
 8281POPC   C3A50165  19.026  37.637   7.050
 8281POPC   C4A50166  19.093  37.650   7.350
 8281POPC   C1B50167  18.830  37.829   6.450
 8281POPC   C2B50168  18.825  37.834   6.750
 8281POPC   C3B50169  18.887  37.835   7.050
 8281POPC   C4B50170  18.836  37.768   7.350
 8282POPC   NC350171  21.370   1.196   5.550
 8282POPC   PO450172  21.342   1.194   5.850
 8282POPC   GL150173  21.390   1.196   6.150
 8282POPC   GL250174  21.273   1.080   6.150
 8282POPC   C1A50175  21.416   1.164   6.450
 8282POPC   D2A50176  21.408   1.262   6.750
 8282POPC   C3A50177  21.395   1.236   7.050
 8282POPC   C4A50178  21.368   1.218   7.350
 8282POPC   C1B50179  21.206   1.057   6.450
 8282POPC   C2B50180  21.161   1.074   6.750
 8282POPC   C3B50181  21.172   0.997   7.050
 8282POPC   C4B50182  21.204   1.087   7.350
 8283POPC   NC350183  39.205  12.093   5.550
 8283POPC   PO450184  39.221  12.082   5.850
 8283POPC   GL150185  39.191  12.045   6.150
 8283POPC   GL250186  39.248  12.000   6.150
 8283POPC   C1A50187  39.275  12.066   6.450
 8283POPC   D2A50188  39.252  12.054   6.750
 8283POPC   C3A50189  39.259  12.115   7.050
 8283POPC   C4A50190  39.281  12.112   7.350
 8283POPC   C1B50191  39.383  11.891   6.450
 8283POPC   C2B50192  39.336  11.810   6.750
 8283POPC   C3B50193  39.335  11.868   7.050
 8283POPC   C4B50194  39.329  11.878   7.350
 8284POPC   NC350195  22.978  30.667   5.550
 8284POPC   PO450196  22.943  30.647   5.850
 8284POPC   GL150197  22.974  30.742   6.150
 8284POPC   GL250198  22.884  30.766   6.150
 8284POPC   C1A50199  22.922  30.654   6.450
 8284POPC   D2A50200  22.920  30.680   6.750
 8284POPC   C3A50201  22.950  30.681   7.050
 8284POPC   C4A50202  22.923  30.722   7.350
 8284POPC   C1B50203  22.765  30.910   6.450
 8284POPC   C2B50204  22.800  30.939   6.750
 8284POPC   C3B50205  22.738  30.922   7.050
 8284POPC   C4B50206  22.809  30.938   7.350
 8285POPC   NC350207  29.155  29.104   5.550
 8285POPC   PO450208  29.134  29.159   5.850
 8285POPC   GL150209  29.151  29.099   6.150
 8285POPC   GL250210  29.015  29.157   6.150
 8285POPC   C1A50211  29.169  29.131   6.450
 8285POPC   D2A50212  29.194  29.167   6.750
 8285POPC   C3A50213  29.160  29.162   7.050
 8285POPC   C4A50214  29.111  29.181   7.350
 8285POPC   C1B50215  28.966  29.239   6.450
 8285POPC   C2B50216  28.960  29.252   6.750
 8285POPC   C3B50217  28.889  29.305   7.050
 8285POPC   C4B50218  28.929  29.233   7.350
 8286POPC   NC350219  41.599   8.967   5.550
 8286POPC   PO450220  41.601   8.940   5.850
 8286POPC   GL150221  41.509   9.003   6.150
 8286POPC   GL250222  41.472   8.860   6.150
 8286POPC   C1A50223  41.556   8.969   6.450
 8286POPC   D2A50224  41.559   8.981   6.750
 8286POPC   C3A50225  41.520   9.022   7.050
 8286POPC   C4A50226  41.579   8.945   7.350
 8286POPC   C1B50227  41.377   8.801   6.450
 8286POPC   C2B50228  41.365   8.793   6.750
 8286POPC   C3B50229  41.428   8.740   7.050
 8286POPC   C4B50230  41.391   8.808   7.350
 8287POPC   NC350231  12.898  29.903   5.550
 8287POPC   PO450232  12.834  29.912   5.850
 8287POPC   GL150233  12.804  29.924   6.150
 8287POPC   GL250234  12.977  29.797   6.150
 8287POPC   C1A50235  12.832  29.927   6.450
 8287POPC   D2A50236  12.878  29.960   6.750
 8287POPC   C3A50237  12.866  29.961   7.050
 8287POPC   C4A50238  12.847  29.945   7.350
 8287POPC   C1B50239  12.985  29.754   6.450
 8287POPC   C2B50240  12.995  29.781   6.750
 8287POPC   C3B50241  13.005  29.722   7.050
 8287POPC   C4B50242  13.037  29.790   7.350
 8288POPC   NC350243  40.761  12.838   5.550
 8288POPC   PO450244  40.739  12.877   5.850
 8288POPC   GL150245  40.777  12.887   6.150
 8288POPC   GL250246  40.934  12.938   6.150
 8288POPC   C1A50247  40.793  12.812   6.450
 8288POPC   D2A50248  40.828  12.809   6.750
 8288POPC   C3A50249  40.789  12.808   7.050
 8288POPC   C4A50250  40.826  12.812   7.350
 8288POPC   C1B50251  41.002  12.907   6.450
 8288POPC   C2B50252  41.045  12.944   6.750
 8288POPC   C3B50253  41.024  12.985   7.050
 8288POPC   C4B50254  40.984  12.941   7.350
 8289POPC   NC350255   1.262   8.228   5.550
 8289POPC   PO450256   1.222   8.165   5.850
 8289POPC   GL150257   1.179   8.210   6.150
 8289POPC   GL250258   1.162   8.301   6.150
 8289POPC   C1A50259   1.188   8.147   6.450
 8289POPC   D2A50260   1.191   8.166   6.750
 8289POPC   C3A50261   1.182   8.226   7.050
 8289POPC   C4A50262   1.215   8.231   7.350
 8289POPC   C1B50263   1.062   8.416   6.450
 8289POPC   C2B50264   1.039   8.348   6.750
 8289POPC   C3B50265   0.995   8.334   7.050
 8289POPC   C4B50266   1.041   8.391   7.350
 8290POPC   NC350267  38.427  25.275   5.550
 8290POPC   PO450268  38.458  25.220   5.850
 8290POPC   GL150269  38.437  25.269   6.150
 8290POPC   GL250270  38.332  25.324   6.150
 8290POPC   C1A50271  38.459  25.257   6.450
 8290POPC   D2A50272  38.460  25.272   6.750
 8290POPC   C3A50273  38.450  25.260   7.050
 8290POPC   C4A50274  38.473  25.225   7.350
 8290POPC   C1B50275  38.356  25.511   6.450
 8290POPC   C2B50276  38.310  25.478   6.750
 8290POPC   C3B50277  38.261  25.510   7.050
 8290POPC   C4B50278  38.346  25.479   7.350
 8291POPC   NC350279  32.218  40.803   5.550
 8291POPC   PO450280  32.232  40.809   5.850
 8291POPC   GL150281  32.240  40.790   6.150
 8291POPC   GL250282  32.182  40.946   6.150
 8291POPC   C1A50283  32.297  40.780   6.450
 8291POPC   D2A50284  32.256  40.830   6.750
 8291POPC   C3A50285  32.275  40.759   7.050
 8291POPC   C4A50286  32.294  40.813   7.350
 8291POPC   C1B50287  32.215  41.005   6.450
 8291POPC   C2B50288  32.246  40.985   6.750
 8291POPC   C3B50289  32.257  41.024   7.050
 8291POPC   C4B50290  32.223  41.047   7.350
 8292POPC   NC350291  42.340  33.060   5.550
 8292POPC   PO450292  42.327  32.987   5.850
 8292POPC   GL150293  42.304  33.031   6.150
 8292POPC   GL250294  42.466  33.056   6.150
 8292POPC   C1A50295  42.288  32.991   6.450
 8292POPC   D2A50296  42.364  32.990   6.750
 8292POPC   C3A50297  42.339  33.015   7.050
 8292POPC   C4A50298  42.363  33.037   7.350
 8292POPC   C1B50299  42.569  33.030   6.450
 8292POPC   C2B50300  42.608  32.974   6.750
 8292POPC   C3B50301  42.560  33.032   7.050
 8292POPC   C4B50302  42.560  33.025   7.350
 8293POPC   NC350303  15.944  35.353   5.550
 8293POPC   PO450304  15.906  35.339   5.850
 8293POPC   GL150305  15.943  35.377   6.150
 8293POPC   GL250306  15.829  35.241   6.150
 8293POPC   C1A50307  15.928  35.302   6.450
 8293POPC   D2A50308  15.933  35.381   6.750
 8293POPC   C3A50309  15.983  35.349   7.050
 8293POPC   C4A50310  15.983  35.373   7.350
 8293POPC   C1B50311  15.733  35.195   6.450
 8293POPC   C2B50312  15.721  35.156   6.750
 8293POPC   C3B50313  15.707  35.200   7.050
 8293POPC   C4B50314  15.767  35.219   7.350
 8294POPC   NC350315  19.027  44.617   5.550
 8294POPC   PO450316  19.062  44.702   5.850
 8294POPC   GL150317  19.013  44.656   6.150
 8294POPC   GL250318  19.005  44.566   6.150
 8294POPC   C1A50319  19.091  44.700   6.450
 8294POPC   D2A50320  19.073  44.703   6.750
 8294POPC   C3A50321  19.056  44.654   7.050
 8294POPC   C4A50322  19.048  44.670   7.350
 8294POPC   C1B50323  18.982  44.404   6.450
 8294POPC   C2B50324  19.001  44.426   6.750
 8294POPC   C3B50325  18.974  44.422   7.050
 8294POPC   C4B50326  18.972  44.428   7.350
 8295POPC   NC350327  14.394  22.185   5.550
 8295POPC   PO450328  14.385  22.124   5.850
 8295POPC   GL150329  14.360  22.190   6.150
 8295POPC   GL250330  14.328  22.072   6.150
 8295POPC   C1A50331  14.394  22.186   6.450
 8295POPC   D2A50332  14.387  22.197   6.750
 8295POPC   C3A50333  14.371  22.161   7.050
 8295POPC   C4A50334  14.392  22.120   7.350
 8295POPC   C1B50335  14.251  21.993   6.450
 8295POPC   C2B50336  14.235  21.982   6.750
 8295POPC   C3B50337  14.239  22.022   7.050
 8295POPC   C4B50338  14.185  21.988   7.350
 8296POPC   NC350339  33.794  41.533   5.550
 8296POPC   PO450340  33.753  41.553   5.850
 8296POPC   GL150341  33.771  41.519   6.150
 8296POPC   GL250342  33.760  41.462   6.150
 8296POPC   C1A50343  33.751  41.569   6.450
 8296POPC   D2A50344  33.828  41.559   6.750
 8296POPC   C3A50345  33.773  41.533   7.050
 8296POPC   C4A50346  33.786  41.516   7.350
 8296POPC   C1B50347  33.632  41.404   6.450
 8296POPC   C2B50348  33.683  41.340   6.750
 8296POPC   C3B50349  33.632  41.315   7.050
 8296POPC   C4B50350  33.630  41.401   7.350
 8297POPC   NC350351  22.939  13.614   5.550
 8297POPC   PO450352  22.970  13.628   5.850
 8297POPC   GL150353  22.955  13.635   6.150
 8297POPC   GL250354  23.003  13.586   6.150
 8297POPC   C1A50355  22.953  13.633   6.450
 8297POPC   D2A50356  22.933  13.586   6.750
 8297POPC   C3A50357  22.945  13.614   7.050
 8297POPC   C4A50358  22.917  13.606   7.350
 8297POPC   C1B50359  23.102  13.428   6.450
 8297POPC   C2B50360  23.128  13.481   6.750
 8297POPC   C3B50361  23.083  13.477   7.050
 8297POPC   C4B50362  23.134  13.438   7.350
 8298POPC   NC350363  39.959  43.128   5.550
 8298POPC   PO450364  40.019  43.098   5.850
 8298POPC   GL150365  39.995  43.070   6.150
 8298POPC   GL250366  39.962  42.947   6.150
 8298POPC   C1A50367  39.995  43.116   6.450
 8298POPC   D2A50368  39.962  43.069   6.750
 8298POPC   C3A50369  39.958  43.072   7.050
 8298POPC   C4A50370  39.985  43.144   7.350
 8298POPC   C1B50371  39.974  42.883   6.450
 8298POPC   C2B50372  39.991  42.851   6.750
 8298POPC   C3B50373  40.000  42.853   7.050
 8298POPC   C4B50374  40.025  42.831   7.350
 8299POPC   NC350375  30.738  42.321   5.550
 8299POPC   PO450376  30.713  42.330   5.850
 8299POPC   GL150377  30.676  42.286   6.150
 8299POPC   GL250378  30.736  42.405   6.150
 8299POPC   C1A50379  30.667  42.359   6.450
 8299POPC   D2A50380  30.682  42.382   6.750
 8299POPC   C3A50381  30.652  42.323   7.050
 8299POPC   C4A50382  30.694  42.379   7.350
 8299POPC   C1B50383  30.799  42.593   6.450
 8299POPC   C2B50384  30.835  42.569   6.750
 8299POPC   C3B50385  30.867  42.585   7.050
 8299POPC   C4B50386  30.790  42.548   7.350
 8300POPC   NC350387  38.447   3.496   5.550
 8300POPC   PO450388  38.496   3.551   5.850
 8300POPC   GL150389  38.483   3.512   6.150
 8300POPC   GL250390  38.503   3.662   6.150
 8300POPC   C1A50391  38.457   3.563   6.450
 8300POPC   D2A50392  38.470   3.576   6.750
 8300POPC   C3A50393  38.481   3.546   7.050
 8300POPC   C4A50394  38.480   3.564   7.350
 8300POPC   C1B50395  38.536   3.727   6.450
 8300POPC   C2B50396  38.592   3.745   6.750
 8300POPC   C3B50397  38.563   3.764   7.050
 8300POPC   C4B50398  38.579   3.745   7.350
 8301POPC   NC350399  13.624   3.497   5.550
 8301POPC   PO450400  13.582   3.578   5.850
 8301POPC   GL150401  13.661   3.496   6.150
 8301POPC   GL250402  13.767   3.594   6.150
 8301POPC   C1A50403  13.652   3.524   6.450
 8301POPC   D2A50404  13.605   3.520   6.750
 8301POPC   C3A50405  13.602   3.564   7.050
 8301POPC   C4A50406  13.607   3.561   7.350
 8301POPC   C1B50407  13.920   3.562   6.450
 8301POPC   C2B50408  13.877   3.577   6.750
 8301POPC   C3B50409  13.874   3.577   7.050
 8301POPC   C4B50410  13.837   3.591   7.350
 8302POPC   NC350411   9.705  43.854   5.550
 8302POPC   PO450412   9.771  43.847   5.850
 8302POPC   GL150413   9.789  43.903   6.150
 8302POPC   GL250414   9.847  43.869   6.150
 8302POPC   C1A50415   9.755  43.865   6.450
 8302POPC   D2A50416   9.769  43.873   6.750
 8302POPC   C3A50417   9.707  43.846   7.050
 8302POPC   C4A50418   9.737  43.878   7.350
 8302POPC   C1B50419   9.952  43.875   6.450
 8302POPC   C2B50420  10.018  43.783   6.750
 8302POPC   C3B50421   9.986  43.854   7.050
 8302POPC   C4B50422   9.959  43.857   7.350
 8303POPC   NC350423  44.703  43.070   5.550
 8303POPC   PO450424  44.653  43.160   5.850
 8303POPC   GL150425  44.620  43.149   6.150
 8303POPC   GL250426  44.566  42.989   6.150
 8303POPC   C1A50427  44.682  43.132   6.450
 8303POPC   D2A50428  44.636  43.142   6.750
 8303POPC   C3A50429  44.628  43.157   7.050
 8303POPC   C4A50430  44.648  43.087   7.350
 8303POPC   C1B50431  44.590  42.836   6.450
 8303POPC   C2B50432  44.550  42.847   6.750
 8303POPC   C3B50433  44.588  42.908   7.050
 8303POPC   C4B50434  44.608  42.862   7.350
 8304POPC   NC350435  24.522  43.129   5.550
 8304POPC   PO450436  24.476  43.074   5.850
 8304POPC   GL150437  24.481  43.151   6.150
 8304POPC   GL250438  24.639  43.029   6.150
 8304POPC   C1A50439  24.511  43.117   6.450
 8304POPC   D2A50440  24.529  43.158   6.750
 8304POPC   C3A50441  24.471  43.102   7.050
 8304POPC   C4A50442  24.533  43.064   7.350
 8304POPC   C1B50443  24.769  42.992   6.450
 8304POPC   C2B50444  24.754  43.033   6.750
 8304POPC   C3B50445  24.712  43.010   7.050
 8304POPC   C4B50446  24.747  43.043   7.350
 8305POPC   NC350447  13.617  10.530   5.550
 8305POPC   PO450448  13.580  10.522   5.850
 8305POPC   GL150449  13.650  10.498   6.150
 8305POPC   GL250450  13.565  10.415   6.150
 8305POPC   C1A50451  13.623  10.502   6.450
 8305POPC   D2A50452  13.585  10.479   6.750
 8305POPC   C3A50453  13.669  10.520   7.050
 8305POPC   C4A50454  13.669  10.531   7.350
 8305POPC   C1B50455  13.601  10.318   6.450
 8305POPC   C2B50456  13.638  10.303   6.750
 8305POPC   C3B50457  13.643  10.274   7.050
 8305POPC   C4B50458  13.590  10.299   7.350
 8306POPC   NC350459  31.449  19.882   5.550
 8306POPC   PO450460  31.508  19.796   5.850
 8306POPC   GL150461  31.437  19.815   6.150
 8306POPC   GL250462  31.547  19.858   6.150
 8306POPC   C1A50463  31.503  19.793   6.450
 8306POPC   D2A50464  31.433  19.804   6.750
 8306POPC   C3A50465  31.470  19.818   7.050
 8306POPC   C4A50466  31.504  19.819   7.350
 8306POPC   C1B50467  31.649  19.981   6.450
 8306POPC   C2B50468  31.714  19.978   6.750
 8306POPC   C3B50469  31.740  19.895   7.050
 8306POPC   C4B50470  31.738  19.987   7.350
 8307POPC   NC350471  23.677   5.142   5.550
 8307POPC   PO450472  23.702   5.046   5.850
 8307POPC   GL150473  23.669   5.097   6.150
 8307POPC   GL250474  23.589   4.975   6.150
 8307POPC   C1A50475  23.716   5.106   6.450
 8307POPC   D2A50476  23.675   5.099   6.750
 8307POPC   C3A50477  23.686   5.136   7.050
 8307POPC   C4A50478  23.695   5.068   7.350
 8307POPC   C1B50479  23.500   4.905   6.450
 8307POPC   C2B50480  23.585   4.890   6.750
 8307POPC   C3B50481  23.588   4.918   7.050
 8307POPC   C4B50482  23.584   4.925   7.350
 8308POPC   NC350483  43.097  18.292   5.550
 8308POPC   PO450484  43.133  18.290   5.850
 8308POPC   GL150485  43.061  18.260   6.150
 8308POPC   GL250486  43.032  18.133   6.150
 8308POPC   C1A50487  43.158  18.307   6.450
 8308POPC   D2A50488  43.072  18.237   6.750
 8308POPC   C3A50489  43.074  18.316   7.050
 8308POPC   C4A50490  43.085  18.317   7.350
 8308POPC   C1B50491  43.035  18.084   6.450
 8308POPC   C2B50492  43.054  18.091   6.750
 8308POPC   C3B50493  43.050  18.071   7.050
 8308POPC   C4B50494  43.013  18.034   7.350
 8309POPC   NC350495  38.451  26.077   5.550
 8309POPC   PO450496  38.503  26.035   5.850
 8309POPC   GL150497  38.459  26.018   6.150
 8309POPC   GL250498  38.477  26.123   6.150
 8309POPC   C1A50499  38.409  25.992   6.450
 8309POPC   D2A50500  38.465  26.043   6.750
 8309POPC   C3A50501  38.412  26.086   7.050
 8309POPC   C4A50502  38.458  26.004   7.350
 8309POPC   C1B50503  38.532  26.243   6.450
 8309POPC   C2B50504  38.584  26.234   6.750
 8309POPC   C3B50505  38.607  26.275   7.050
 8309POPC   C4B50506  38.600  26.260   7.350
 8310POPC   NC350507  42.334   3.566   5.550
 8310POPC   PO450508  42.326   3.500   5.850
 8310POPC   GL150509  42.314   3.523   6.150
 8310POPC   GL250510  42.389   3.465   6.150
 8310POPC   C1A50511  42.315   3.548   6.450
 8310POPC   D2A50512  42.285   3.542   6.750
 8310POPC   C3A50513  42.312   3.553   7.050
 8310POPC   C4A50514  42.310   3.590   7.350
 8310POPC   C1B50515  42.488   3.322   6.450
 8310POPC   C2B50516  42.441   3.390   6.750
 8310POPC   C3B50517  42.465   3.307   7.050
 8310POPC   C4B50518  42.445   3.391   7.350
 8311POPC   NC350519  19.017  31.467   5.550
 8311POPC   PO450520  19.053  31.498   5.850
 8311POPC   GL150521  19.057  31.491   6.150
 8311POPC   GL250522  19.027  31.628   6.150
 8311POPC   C1A50523  19.013  31.461   6.450
 8311POPC   D2A50524  19.042  31.506   6.750
 8311POPC   C3A50525  19.040  31.503   7.050
 8311POPC   C4A50526  19.098  31.489   7.350
 8311POPC   C1B50527  19.101  31.672   6.450
 8311POPC   C2B50528  19.074  31.765   6.750
 8311POPC   C3B50529  19.117  31.752   7.050
 8311POPC   C4B50530  19.106  31.758   7.350
 8312POPC   NC350531  32.990  32.206   5.550
 8312POPC   PO450532  33.006  32.296   5.850
 8312POPC   GL150533  33.020  32.255   6.150
 8312POPC   GL250534  33.142  32.226   6.150
 8312POPC   C1A50535  33.014  32.223   6.450
 8312POPC   D2A50536  32.994  32.296   6.750
 8312POPC   C3A50537  33.017  32.281   7.050
 8312POPC   C4A50538  33.046  32.258   7.350
 8312POPC   C1B50539  33.253  32.235   6.450
 8312POPC   C2B50540  33.237  32.171   6.750
 8312POPC   C3B50541  33.260  32.154   7.050
 8312POPC   C4B50542  33.234  32.207   7.350
 8313POPC   NC350543  16.697  43.930   5.550
 8313POPC   PO450544  16.770  43.863   5.850
 8313POPC   GL150545  16.684  43.893   6.150
 8313POPC   GL250546  16.869  43.896   6.150
 8313POPC   C1A50547  16.750  43.899   6.450
 8313POPC   D2A50548  16.724  43.838   6.750
 8313POPC   C3A50549  16.747  43.936   7.050
 8313POPC   C4A50550  16.744  43.918   7.350
 8313POPC   C1B50551  16.992  43.949   6.450
 8313POPC   C2B50552  16.993  43.986   6.750
 8313POPC   C3B50553  16.963  43.982   7.050
 8313POPC   C4B50554  16.961  43.908   7.350
 8314POPC   NC350555  14.357  36.157   5.550
 8314POPC   PO450556  14.413  36.137   5.850
 8314POPC   GL150557  14.444  36.103   6.150
 8314POPC   GL250558  14.318  36.245   6.150
 8314POPC   C1A50559  14.383  36.124   6.450
 8314POPC   D2A50560  14.387  36.168   6.750
 8314POPC   C3A50561  14.438  36.127   7.050
 8314POPC   C4A50562  14.358  36.105   7.350
 8314POPC   C1B50563  14.229  36.294   6.450
 8314POPC   C2B50564  14.307  36.346   6.750
 8314POPC   C3B50565  14.261  36.305   7.050
 8314POPC   C4B50566  14.303  36.351   7.350
 8315POPC   NC350567  21.387  19.821   5.550
 8315POPC   PO450568  21.386  19.801   5.850
 8315POPC   GL150569  21.418  19.804   6.150
 8315POPC   GL250570  21.453  19.944   6.150
 8315POPC   C1A50571  21.349  19.826   6.450
 8315POPC   D2A50572  21.430  19.875   6.750
 8315POPC   C3A50573  21.404  19.829   7.050
 8315POPC   C4A50574  21.343  19.812   7.350
 8315POPC   C1B50575  21.424  20.082   6.450
 8315POPC   C2B50576  21.464  20.029   6.750
 8315POPC   C3B50577  21.449  20.079   7.050
 8315POPC   C4B50578  21.448  20.090   7.350
 8316POPC   NC350579  28.396  23.738   5.550
 8316POPC   PO450580  28.394  23.745   5.850
 8316POPC   GL150581  28.353  23.735   6.150
 8316POPC   GL250582  28.435  23.670   6.150
 8316POPC   C1A50583  28.405  23.738   6.450
 8316POPC   D2A50584  28.418  23.749   6.750
 8316POPC   C3A50585  28.323  23.707   7.050
 8316POPC   C4A50586  28.415  23.718   7.350
 8316POPC   C1B50587  28.637  23.619   6.450
 8316POPC   C2B50588  28.631  23.599   6.750
 8316POPC   C3B50589  28.600  23.572   7.050
 8316POPC   C4B50590  28.614  23.657   7.350
 8317POPC   NC350591  27.567   4.308   5.550
 8317POPC   PO450592  27.545   4.277   5.850
 8317POPC   GL150593  27.555   4.278   6.150
 8317POPC   GL250594  27.715   4.383   6.150
 8317POPC   C1A50595  27.579   4.289   6.450
 8317POPC   D2A50596  27.619   4.296   6.750
 8317POPC   C3A50597  27.642   4.354   7.050
 8317POPC   C4A50598  27.588   4.358   7.350
 8317POPC   C1B50599  27.771   4.465   6.450
 8317POPC   C2B50600  27.767   4.424   6.750
 8317POPC   C3B50601  27.753   4.435   7.050
 8317POPC   C4B50602  27.830   4.413   7.350
 8318POPC   NC350603  22.158   2.785   5.550
 8318POPC   PO450604  22.207   2.763   5.850
 8318POPC   GL150605  22.145   2.796   6.150
 8318POPC   GL250606  22.104   2.643   6.150
 8318POPC   C1A50607  22.116   2.763   6.450
 8318POPC   D2A50608  22.190   2.803   6.750
 8318POPC   C3A50609  22.172   2.761   7.050
 8318POPC   C4A50610  22.123   2.812   7.350
 8318POPC   C1B50611  22.022   2.585   6.450
 8318POPC   C2B50612  21.963   2.615   6.750
 8318POPC   C3B50613  21.993   2.523   7.050
 8318POPC   C4B50614  22.030   2.591   7.350
 8319POPC   NC350615  41.532  25.262   5.550
 8319POPC   PO450616  41.605  25.229   5.850
 8319POPC   GL150617  41.538  25.299   6.150
 8319POPC   GL250618  41.393  25.329   6.150
 8319POPC   C1A50619  41.608  25.312   6.450
 8319POPC   D2A50620  41.554  25.255   6.750
 8319POPC   C3A50621  41.569  25.284   7.050
 8319POPC   C4A50622  41.545  25.302   7.350
 8319POPC   C1B50623  41.285  25.325   6.450
 8319POPC   C2B50624  41.351  25.314   6.750
 8319POPC   C3B50625  41.361  25.330   7.050
 8319POPC   C4B50626  41.322  25.371   7.350
 8320POPC   NC350627  44.708   9.760   5.550
 8320POPC   PO450628  44.647   9.720   5.850
 8320POPC   GL150629  44.630   9.792   6.150
 8320POPC   GL250630  44.807   9.837   6.150
 8320POPC   C1A50631  44.712   9.729   6.450
 8320POPC   D2A50632  44.633   9.722   6.750
 8320POPC   C3A50633  44.698   9.708   7.050
 8320POPC   C4A50634  44.655   9.763   7.350
 8320POPC   C1B50635  44.907   9.855   6.450
 8320POPC   C2B50636  44.830   9.904   6.750
 8320POPC   C3B50637  44.883   9.916   7.050
 8320POPC   C4B50638  44.833   9.873   7.350
 8321POPC   NC350639  31.513   8.181   5.550
 8321POPC   PO450640  31.461   8.241   5.850
 8321POPC   GL150641  31.461   8.173   6.150
 8321POPC   GL250642  31.503   8.314   6.150
 8321POPC   C1A50643  31.469   8.231   6.450
 8321POPC   D2A50644  31.426   8.182   6.750
 8321POPC   C3A50645  31.473   8.183   7.050
 8321POPC   C4A50646  31.469   8.202   7.350
 8321POPC   C1B50647  31.631   8.420   6.450
 8321POPC   C2B50648  31.577   8.442   6.750
 8321POPC   C3B50649  31.614   8.415   7.050
 8321POPC   C4B50650  31.609   8.374   7.350
 8322POPC   NC350651  33.017  43.851   5.550
 8322POPC   PO450652  33.038  43.908   5.850
 8322POPC   GL150653  33.066  43.910   6.150
 8322POPC   GL250654  32.923  43.919   6.150
 8322POPC   C1A50655  33.063  43.907   6.450
 8322POPC   D2A50656  33.007  43.846   6.750
 8322POPC   C3A50657  32.981  43.849   7.050
 8322POPC   C4A50658  32.975  43.895   7.350
 8322POPC   C1B50659  32.735  43.912   6.450
 8322POPC   C2B50660  32.743  43.919   6.750
 8322POPC   C3B50661  32.787  43.844   7.050
 8322POPC   C4B50662  32.806  43.844   7.350
 8323POPC   NC350663   4.329  18.255   5.550
 8323POPC   PO450664   4.311  18.267   5.850
 8323POPC   GL150665   4.282  18.298   6.150
 8323POPC   GL250666   4.394  18.263   6.150
 8323POPC   C1A50667   4.278  18.302   6.450
 8323POPC   D2A50668   4.308  18.323   6.750
 8323POPC   C3A50669   4.289  18.271   7.050
 8323POPC   C4A50670   4.299  18.285   7.350
 8323POPC   C1B50671   4.545  18.292   6.450
 8323POPC   C2B50672   4.595  18.273   6.750
 8323POPC   C3B50673   4.559  18.299   7.050
 8323POPC   C4B50674   4.594  18.323   7.350
 8324POPC   NC350675  29.944   5.867   5.550
 8324POPC   PO450676  29.911   5.905   5.850
 8324POPC   GL150677  29.898   5.887   6.150
 8324POPC   GL250678  29.842   5.814   6.150
 8324POPC   C1A50679  29.914   5.915   6.450
 8324POPC   D2A50680  29.942   5.851   6.750
 8324POPC   C3A50681  29.952   5.819   7.050
 8324POPC   C4A50682  29.926   5.877   7.350
 8324POPC   C1B50683  29.782   5.672   6.450
 8324POPC   C2B50684  29.787   5.701   6.750
 8324POPC   C3B50685  29.763   5.730   7.050
 8324POPC   C4B50686  29.696   5.661   7.350
 8325POPC   NC350687  36.121  21.395   5.550
 8325POPC   PO450688  36.110  21.417   5.850
 8325POPC   GL150689  36.095  21.429   6.150
 8325POPC   GL250690  36.204  21.260   6.150
 8325POPC   C1A50691  36.159  21.408   6.450
 8325POPC   D2A50692  36.167  21.359   6.750
 8325POPC   C3A50693  36.142  21.390   7.050
 8325POPC   C4A50694  36.120  21.340   7.350
 8325POPC   C1B50695  36.185  21.190   6.450
 8325POPC   C2B50696  36.150  21.183   6.750
 8325POPC   C3B50697  36.185  21.186   7.050
 8325POPC   C4B50698  36.151  21.121   7.350
 8326POPC   NC350699  11.333  24.535   5.550
 8326POPC   PO450700  11.341  24.537   5.850
 8326POPC   GL150701  11.287  24.497   6.150
 8326POPC   GL250702  11.220  24.535   6.150
 8326POPC   C1A50703  11.262  24.522   6.450
 8326POPC   D2A50704  11.312  24.498   6.750
 8326POPC   C3A50705  11.274  24.462   7.050
 8326POPC   C4A50706  11.280  24.495   7.350
 8326POPC   C1B50707  11.053  24.582   6.450
 8326POPC   C2B50708  11.090  24.569   6.750
 8326POPC   C3B50709  11.062  24.608   7.050
 8326POPC   C4B50710  11.027  24.577   7.350
 8327POPC   NC350711  26.039   0.408   5.550
 8327POPC   PO450712  26.059   0.432   5.850
 8327POPC   GL150713  26.006   0.398   6.150
 8327POPC   GL250714  25.981   0.563   6.150
 8327POPC   C1A50715  26.015   0.420   6.450
 8327POPC   D2A50716  26.062   0.445   6.750
 8327POPC   C3A50717  26.091   0.452   7.050
 8327POPC   C4A50718  26.000   0.403   7.350
 8327POPC   C1B50719  25.812   0.624   6.450
 8327POPC   C2B50720  25.868   0.594   6.750
 8327POPC   C3B50721  25.847   0.601   7.050
 8327POPC   C4B50722  25.869   0.614   7.350
 8328POPC   NC350723  34.580  31.481   5.550
 8328POPC   PO450724  34.539  31.460   5.850
 8328POPC   GL150725  34.592  31.487   6.150
 8328POPC   GL250726  34.629  31.317   6.150
 8328POPC   C1A50727  34.602  31.442   6.450
 8328POPC   D2A50728  34.537  31.521   6.750
 8328POPC   C3A50729  34.579  31.480   7.050
 8328POPC   C4A50730  34.526  31.478   7.350
 8328POPC   C1B50731  34.681  31.215   6.450
 8328POPC   C2B50732  34.716  31.213   6.750
 8328POPC   C3B50733  34.683  31.193   7.050
 8328POPC   C4B50734  34.720  31.238   7.350
 8329POPC   NC350735  15.929  14.360   5.550
 8329POPC   PO450736  15.911  14.423   5.850
 8329POPC   GL150737  15.961  14.411   6.150
 8329POPC   GL250738  15.961  14.315   6.150
 8329POPC   C1A50739  15.967  14.444   6.450
 8329POPC   D2A50740  15.947  14.422   6.750
 8329POPC   C3A50741  16.003  14.448   7.050
 8329POPC   C4A50742  15.921  14.391   7.350
 8329POPC   C1B50743  15.946  14.201   6.450
 8329POPC   C2B50744  15.956  14.130   6.750
 8329POPC   C3B50745  15.974  14.148   7.050
 8329POPC   C4B50746  16.015  14.120   7.350
 8330POPC   NC350747  21.363  11.285   5.550
 8330POPC   PO450748  21.362  11.313   5.850
 8330POPC   GL150749  21.427  11.314   6.150
 8330POPC   GL250750  21.436  11.184   6.150
 8330POPC   C1A50751  21.337  11.338   6.450
 8330POPC   D2A50752  21.423  11.317   6.750
 8330POPC   C3A50753  21.404  11.290   7.050
 8330POPC   C4A50754  21.435  11.329   7.350
 8330POPC   C1B50755  21.457  11.009   6.450
 8330POPC   C2B50756  21.494  11.080   6.750
 8330POPC   C3B50757  21.416  11.078   7.050
 8330POPC   C4B50758  21.465  11.086   7.350
 8331POPC   NC350759  36.860   2.036   5.550
 8331POPC   PO450760  36.895   1.985   5.850
 8331POPC   GL150761  36.917   2.027   6.150
 8331POPC   GL250762  36.827   2.041   6.150
 8331POPC   C1A50763  36.944   1.970   6.450
 8331POPC   D2A50764  36.943   2.012   6.750
 8331POPC   C3A50765  36.875   1.944   7.050
 8331POPC   C4A50766  36.952   1.991   7.350
 8331POPC   C1B50767  36.643   2.143   6.450
 8331POPC   C2B50768  36.711   2.112   6.750
 8331POPC   C3B50769  36.671   2.147   7.050
 8331POPC   C4B50770  36.713   2.069   7.350
 8332POPC   NC350771  21.355  17.468   5.550
 8332POPC   PO450772  21.365  17.488   5.850
 8332POPC   GL150773  21.381  17.472   6.150
 8332POPC   GL250774  21.371  17.405   6.150
 8332POPC   C1A50775  21.406  17.482   6.450
 8332POPC   D2A50776  21.418  17.500   6.750
 8332POPC   C3A50777  21.365  17.466   7.050
 8332POPC   C4A50778  21.418  17.509   7.350
 8332POPC   C1B50779  21.320  17.280   6.450
 8332POPC   C2B50780  21.319  17.261   6.750
 8332POPC   C3B50781  21.339  17.220   7.050
 8332POPC   C4B50782  21.301  17.266   7.350
 8333POPC   NC350783   8.172  20.625   5.550
 8333POPC   PO450784   8.175  20.597   5.850
 8333POPC   GL150785   8.218  20.653   6.150
 8333POPC   GL250786   8.124  20.587   6.150
 8333POPC   C1A50787   8.222  20.590   6.450
 8333POPC   D2A50788   8.196  20.564   6.750
 8333POPC   C3A50789   8.200  20.588   7.050
 8333POPC   C4A50790   8.162  20.659   7.350
 8333POPC   C1B50791   8.002  20.545   6.450
 8333POPC   C2B50792   7.970  20.569   6.750
 8333POPC   C3B50793   7.980  20.525   7.050
 8333POPC   C4B50794   7.959  20.551   7.350
 8334POPC   NC350795   3.521  20.614   5.550
 8334POPC   PO450796   3.534  20.601   5.850
 8334POPC   GL150797   3.515  20.572   6.150
 8334POPC   GL250798   3.527  20.761   6.150
 8334POPC   C1A50799   3.584  20.587   6.450
 8334POPC   D2A50800   3.493  20.654   6.750
 8334POPC   C3A50801   3.536  20.635   7.050
 8334POPC   C4A50802   3.516  20.625   7.350
 8334POPC   C1B50803   3.485  20.879   6.450
 8334POPC   C2B50804   3.519  20.838   6.750
 8334POPC   C3B50805   3.457  20.843   7.050
 8334POPC   C4B50806   3.468  20.835   7.350
 8335POPC   NC350807   6.646  44.711   5.550
 8335POPC   PO450808   6.645  44.622   5.850
 8335POPC   GL150809   6.689  44.639   6.150
 8335POPC   GL250810   6.789  44.701   6.150
 8335POPC   C1A50811   6.653  44.646   6.450
 8335POPC   D2A50812   6.686  44.646   6.750
 8335POPC   C3A50813   6.669  44.613   7.050
 8335POPC   C4A50814   6.668  44.690   7.350
 8335POPC   C1B50815   6.877  44.701   6.450
 8335POPC   C2B50816   6.892  44.727   6.750
 8335POPC   C3B50817   6.850  44.689   7.050
 8335POPC   C4B50818   6.926  44.688   7.350
 8336POPC   NC350819  27.639   7.400   5.550
 8336POPC   PO450820  27.620   7.433   5.850
 8336POPC   GL150821  27.569   7.382   6.150
 8336POPC   GL250822  27.723   7.438   6.150
 8336POPC   C1A50823  27.631   7.375   6.450
 8336POPC   D2A50824  27.550   7.426   6.750
 8336POPC   C3A50825  27.613   7.429   7.050
 8336POPC   C4A50826  27.629   7.403   7.350
 8336POPC   C1B50827  27.797   7.473   6.450
 8336POPC   C2B50828  27.811   7.463   6.750
 8336POPC   C3B50829  27.790   7.450   7.050
 8336POPC   C4B50830  27.805   7.452   7.350
 8337POPC   NC350831  21.370  35.385   5.550
 8337POPC   PO450832  21.371  35.367   5.850
 8337POPC   GL150833  21.412  35.352   6.150
 8337POPC   GL250834  21.257  35.331   6.150
 8337POPC   C1A50835  21.412  35.350   6.450
 8337POPC   D2A50836  21.356  35.305   6.750
 8337POPC   C3A50837  21.408  35.314   7.050
 8337POPC   C4A50838  21.413  35.351   7.350
 8337POPC   C1B50839  21.112  35.346   6.450
 8337POPC   C2B50840  21.126  35.377   6.750
 8337POPC   C3B50841  21.150  35.373   7.050
 8337POPC   C4B50842  21.103  35.362   7.350
 8338POPC   NC350843  43.859  29.901   5.550
 8338POPC   PO450844  43.885  29.931   5.850
 8338POPC   GL150845  43.919  29.962   6.150
 8338POPC   GL250846  43.918  30.014   6.150
 8338POPC   C1A50847  43.840  29.954   6.450
 8338POPC   D2A50848  43.894  29.936   6.750
 8338POPC   C3A50849  43.837  29.934   7.050
 8338POPC   C4A50850  43.891  29.964   7.350
 8338POPC   C1B50851  43.908  30.187   6.450
 8338POPC   C2B50852  43.890  30.205   6.750
 8338POPC   C3B50853  43.881  30.174   7.050
 8338POPC   C4B50854  43.880  30.178   7.350
 8339POPC   NC350855  42.300  41.530   5.550
 8339POPC   PO450856  42.339  41.529   5.850
 8339POPC   GL150857  42.321  41.536   6.150
 8339POPC   GL250858  42.257  41.620   6.150
 8339POPC   C1A50859  42.341  41.515   6.450
 8339POPC   D2A50860  42.312  41.577   6.750
 8339POPC   C3A50861  42.341  41.577   7.050
 8339POPC   C4A50862  42.311  41.578   7.350
 8339POPC   C1B50863  42.208  41.787   6.450
 8339POPC   C2B50864  42.164  41.766   6.750
 8339POPC   C3B50865  42.245  41.741   7.050
 8339POPC   C4B50866  42.160  41.781   7.350
 8340POPC   NC350867  39.973  44.656   5.550
 8340POPC   PO450868  39.975  44.640   5.850
 8340POPC   GL150869  39.977  44.624   6.150
 8340POPC   GL250870  39.876  44.611   6.150
 8340POPC   C1A50871  39.970  44.680   6.450
 8340POPC   D2A50872  39.965  44.666   6.750
 8340POPC   C3A50873  40.056  44.697   7.050
 8340POPC   C4A50874  39.978  44.620   7.350
 8340POPC   C1B50875  39.733  44.539   6.450
 8340POPC   C2B50876  39.781  44.598   6.750
 8340POPC   C3B50877  39.762  44.512   7.050
 8340POPC   C4B50878  39.751  44.580   7.350
 8341POPC   NC350879  33.068  12.832   5.550
 8341POPC   PO450880  33.008  12.888   5.850
 8341POPC   GL150881  33.064  12.858   6.150
 8341POPC   GL250882  32.885  12.966   6.150
 8341POPC   C1A50883  33.032  12.899   6.450
 8341POPC   D2A50884  33.052  12.884   6.750
 8341POPC   C3A50885  33.054  12.896   7.050
 8341POPC   C4A50886  32.993  12.808   7.350
 8341POPC   C1B50887  32.799  13.008   6.450
 8341POPC   C2B50888  32.803  12.990   6.750
 8341POPC   C3B50889  32.857  12.990   7.050
 8341POPC   C4B50890  32.796  13.025   7.350
 8342POPC   NC350891   8.979  29.914   5.550
 8342POPC   PO450892   8.988  29.945   5.850
 8342POPC   GL150893   9.007  29.920   6.150
 8342POPC   GL250894   9.120  29.899   6.150
 8342POPC   C1A50895   8.941  29.960   6.450
 8342POPC   D2A50896   8.939  29.884   6.750
 8342POPC   C3A50897   9.009  29.920   7.050
 8342POPC   C4A50898   9.012  29.923   7.350
 8342POPC   C1B50899   9.239  29.901   6.450
 8342POPC   C2B50900   9.250  29.908   6.750
 8342POPC   C3B50901   9.257  29.907   7.050
 8342POPC   C4B50902   9.265  29.870   7.350
 8343POPC   NC350903  19.016  11.307   5.550
 8343POPC   PO450904  19.017  11.277   5.850
 8343POPC   GL150905  19.012  11.255   6.150
 8343POPC   GL250906  19.131  11.427   6.150
 8343POPC   C1A50907  19.029  11.328   6.450
 8343POPC   D2A50908  19.057  11.288   6.750
 8343POPC   C3A50909  19.009  11.342   7.050
 8343POPC   C4A50910  19.071  11.272   7.350
 8343POPC   C1B50911  19.146  11.588   6.450
 8343POPC   C2B50912  19.130  11.577   6.750
 8343POPC   C3B50913  19.063  11.577   7.050
 8343POPC   C4B50914  19.145  11.508   7.350
 8344POPC   NC350915   2.777  10.477   5.550
 8344POPC   PO450916   2.792  10.493   5.850
 8344POPC   GL150917   2.789  10.485   6.150
 8344POPC   GL250918   2.813  10.609   6.150
 8344POPC   C1A50919   2.786  10.507   6.450
 8344POPC   D2A50920   2.724  10.551   6.750
 8344POPC   C3A50921   2.756  10.502   7.050
 8344POPC   C4A50922   2.795  10.532   7.350
 8344POPC   C1B50923   2.977  10.682   6.450
 8344POPC   C2B50924   2.994  10.705   6.750
 8344POPC   C3B50925   2.933  10.735   7.050
 8344POPC   C4B50926   2.928  10.691   7.350
 8345POPC   NC350927  19.104  23.664   5.550
 8345POPC   PO450928  19.103  23.672   5.850
 8345POPC   GL150929  19.044  23.737   6.150
 8345POPC   GL250930  19.166  23.744   6.150
 8345POPC   C1A50931  19.010  23.739   6.450
 8345POPC   D2A50932  19.026  23.716   6.750
 8345POPC   C3A50933  19.084  23.719   7.050
 8345POPC   C4A50934  19.024  23.690   7.350
 8345POPC   C1B50935  19.289  23.865   6.450
 8345POPC   C2B50936  19.256  23.816   6.750
 8345POPC   C3B50937  19.232  23.891   7.050
 8345POPC   C4B50938  19.280  23.857   7.350
 8346POPC   NC350939   3.524   1.245   5.550
 8346POPC   PO450940   3.580   1.241   5.850
 8346POPC   GL150941   3.551   1.212   6.150
 8346POPC   GL250942   3.599   1.287   6.150
 8346POPC   C1A50943   3.555   1.216   6.450
 8346POPC   D2A50944   3.569   1.247   6.750
 8346POPC   C3A50945   3.576   1.196   7.050
 8346POPC   C4A50946   3.553   1.243   7.350
 8346POPC   C1B50947   3.766   1.430   6.450
 8346POPC   C2B50948   3.744   1.362   6.750
 8346POPC   C3B50949   3.759   1.412   7.050
 8346POPC   C4B50950   3.748   1.417   7.350
 8347POPC   NC350951  16.695  34.537   5.550
 8347POPC   PO450952  16.685  34.553   5.850
 8347POPC   GL150953  16.755  34.559   6.150
 8347POPC   GL250954  16.839  34.468   6.150
 8347POPC   C1A50955  16.692  34.579   6.450
 8347POPC   D2A50956  16.721  34.596   6.750
 8347POPC   C3A50957  16.780  34.528   7.050
 8347POPC   C4A50958  16.726  34.610   7.350
 8347POPC   C1B50959  16.933  34.396   6.450
 8347POPC   C2B50960  16.892  34.401   6.750
 8347POPC   C3B50961  16.886  34.372   7.050
 8347POPC   C4B50962  16.854  34.378   7.350
 8348POPC   NC350963   4.316  43.124   5.550
 8348POPC   PO450964   4.311  43.073   5.850
 8348POPC   GL150965   4.326  43.071   6.150
 8348POPC   GL250966   4.190  43.147   6.150
 8348POPC   C1A50967   4.320  43.133   6.450
 8348POPC   D2A50968   4.270  43.100   6.750
 8348POPC   C3A50969   4.367  43.110   7.050
 8348POPC   C4A50970   4.333  43.145   7.350
 8348POPC   C1B50971   4.071  43.197   6.450
 8348POPC   C2B50972   4.079  43.198   6.750
 8348POPC   C3B50973   4.051  43.195   7.050
 8348POPC   C4B50974   4.063  43.179   7.350
 8349POPC   NC350975  36.143  29.113   5.550
 8349POPC   PO450976  36.177  29.121   5.850
 8349POPC   GL150977  36.146  29.120   6.150
 8349POPC   GL250978  36.217  29.106   6.150
 8349POPC   C1A50979  36.104  29.115   6.450
 8349POPC   D2A50980  36.121  29.177   6.750
 8349POPC   C3A50981  36.093  29.125   7.050
 8349POPC   C4A50982  36.154  29.118   7.350
 8349POPC   C1B50983  36.328  28.983   6.450
 8349POPC   C2B50984  36.280  28.952   6.750
 8349POPC   C3B50985  36.274  28.972   7.050
 8349POPC   C4B50986  36.354  28.950   7.350
 8350POPC   NC350987  30.746  11.295   5.550
 8350POPC   PO450988  30.698  11.337   5.850
 8350POPC   GL150989  30.698  11.319   6.150
 8350POPC   GL250990  30.712  11.468   6.150
 8350POPC   C1A50991  30.730  11.279   6.450
 8350POPC   D2A50992  30.654  11.294   6.750
 8350POPC   C3A50993  30.711  11.335   7.050
 8350POPC   C4A50994  30.705  11.252   7.350
 8350POPC   C1B50995  30.686  11.548   6.450
 8350POPC   C2B50996  30.705  11.511   6.750
 8350POPC   C3B50997  30.714  11.571   7.050
 8350POPC   C4B50998  30.714  11.537   7.350
 8351POPC   NC350999  10.505  16.702   5.550
 8351POPC   PO451000  10.547  16.730   5.850
 8351POPC   GL151001  10.546  16.703   6.150
 8351POPC   GL251002  10.441  16.841   6.150
 8351POPC   C1A51003  10.500  16.763   6.450
 8351POPC   D2A51004  10.532  16.702   6.750
 8351POPC   C3A51005  10.532  16.685   7.050
 8351POPC   C4A51006  10.478  16.745   7.350
 8351POPC   C1B51007  10.413  16.933   6.450
 8351POPC   C2B51008  10.330  16.948   6.750
 8351POPC   C3B51009  10.407  16.982   7.050
 8351POPC   C4B51010  10.365  16.888   7.350
 8352POPC   NC351011  32.244   8.171   5.550
 8352POPC   PO451012  32.297   8.190   5.850
 8352POPC   GL151013  32.275   8.193   6.150
 8352POPC   GL251014  32.199   8.040   6.150
 8352POPC   C1A51015  32.241   8.194   6.450
 8352POPC   D2A51016  32.268   8.217   6.750
 8352POPC   C3A51017  32.246   8.200   7.050
 8352POPC   C4A51018  32.214   8.165   7.350
 8352POPC   C1B51019  32.204   7.996   6.450
 8352POPC   C2B51020  32.155   7.938   6.750
 8352POPC   C3B51021  32.181   7.935   7.050
 8352POPC   C4B51022  32.178   7.959   7.350
 8353POPC   NC351023  37.706  20.563   5.550
 8353POPC   PO451024  37.710  20.636   5.850
 8353POPC   GL151025  37.670  20.599   6.150
 8353POPC   GL251026  37.722  20.498   6.150
 8353POPC   C1A51027  37.703  20.574   6.450
 8353POPC   D2A51028  37.672  20.583   6.750
 8353POPC   C3A51029  37.673  20.657   7.050
 8353POPC   C4A51030  37.680  20.612   7.350
 8353POPC   C1B51031  37.729  20.402   6.450
 8353POPC   C2B51032  37.685  20.399   6.750
 8353POPC   C3B51033  37.704  20.410   7.050
 8353POPC   C4B51034  37.686  20.322   7.350
 8354POPC   NC351035   1.963  30.669   5.550
 8354POPC   PO451036   2.008  30.682   5.850
 8354POPC   GL151037   1.960  30.738   6.150
 8354POPC   GL251038   2.145  30.775   6.150
 8354POPC   C1A51039   2.039  30.721   6.450
 8354POPC   D2A51040   2.016  30.656   6.750
 8354POPC   C3A51041   1.958  30.665   7.050
 8354POPC   C4A51042   2.034  30.667   7.350
 8354POPC   C1B51043   2.222  30.773   6.450
 8354POPC   C2B51044   2.210  30.752   6.750
 8354POPC   C3B51045   2.244  30.816   7.050
 8354POPC   C4B51046   2.225  30.745   7.350
 8355POPC   NC351047  29.109  10.534   5.550
 8355POPC   PO451048  29.137  10.533   5.850
 8355POPC   GL151049  29.117  10.493   6.150
 8355POPC   GL251050  29.009  10.599   6.150
 8355POPC   C1A51051  29.192  10.515   6.450
 8355POPC   D2A51052  29.190  10.549   6.750
 8355POPC   C3A51053  29.179  10.505   7.050
 8355POPC   C4A51054  29.138  10.479   7.350
 8355POPC   C1B51055  28.953  10.725   6.450
 8355POPC   C2B51056  28.955  10.673   6.750
 8355POPC   C3B51057  28.949  10.672   7.050
 8355POPC   C4B51058  28.948  10.698   7.350
 8356POPC   NC351059  35.325  39.957   5.550
 8356POPC   PO451060  35.319  39.958   5.850
 8356POPC   GL151061  35.344  40.040   6.150
 8356POPC   GL251062  35.471  40.144   6.150
 8356POPC   C1A51063  35.312  39.978   6.450
 8356POPC   D2A51064  35.362  40.046   6.750
 8356POPC   C3A51065  35.366  40.039   7.050
 8356POPC   C4A51066  35.324  40.050   7.350
 8356POPC   C1B51067  35.502  40.233   6.450
 8356POPC   C2B51068  35.532  40.236   6.750
 8356POPC   C3B51069  35.488  40.208   7.050
 8356POPC   C4B51070  35.513  40.162   7.350
 8357POPC   NC351071  36.948  40.021   5.550
 8357POPC   PO451072  36.948  40.053   5.850
 8357POPC   GL151073  36.905  39.978   6.150
 8357POPC   GL251074  36.789  39.981   6.150
 8357POPC   C1A51075  36.930  39.983   6.450
 8357POPC   D2A51076  36.904  40.042   6.750
 8357POPC   C3A51077  36.943  40.016   7.050
 8357POPC   C4A51078  36.864  40.036   7.350
 8357POPC   C1B51079  36.705  39.938   6.450
 8357POPC   C2B51080  36.671  39.914   6.750
 8357POPC   C3B51081  36.675  39.938   7.050
 8357POPC   C4B51082  36.694  39.993   7.350
 8358POPC   NC351083  30.727  43.856   5.550
 8358POPC   PO451084  30.744  43.884   5.850
 8358POPC   GL151085  30.737  43.855   6.150
 8358POPC   GL251086  30.807  43.803   6.150
 8358POPC   C1A51087  30.738  43.841   6.450
 8358POPC   D2A51088  30.655  43.912   6.750
 8358POPC   C3A51089  30.682  43.919   7.050
 8358POPC   C4A51090  30.663  43.885   7.350
 8358POPC   C1B51091  30.872  43.728   6.450
 8358POPC   C2B51092  30.793  43.671   6.750
 8358POPC   C3B51093  30.811  43.655   7.050
 8358POPC   C4B51094  30.876  43.722   7.350
 8359POPC   NC351095  36.874   4.295   5.550
 8359POPC   PO451096  36.860   4.325   5.850
 8359POPC   GL151097  36.915   4.283   6.150
 8359POPC   GL251098  36.740   4.278   6.150
 8359POPC   C1A51099  36.918   4.340   6.450
 8359POPC   D2A51100  36.895   4.323   6.750
 8359POPC   C3A51101  36.855   4.293   7.050
 8359POPC   C4A51102  36.874   4.270   7.350
 8359POPC   C1B51103  36.661   4.278   6.450
 8359POPC   C2B51104  36.645   4.197   6.750
 8359POPC   C3B51105  36.629   4.217   7.050
 8359POPC   C4B51106  36.673   4.251   7.350
 8360POPC   NC351107  34.597  43.852   5.550
 8360POPC   PO451108  34.526  43.865   5.850
 8360POPC   GL151109  34.566  43.870   6.150
 8360POPC   GL251110  34.562  43.975   6.150
 8360POPC   C1A51111  34.623  43.894   6.450
 8360POPC   D2A51112  34.557  43.877   6.750
 8360POPC   C3A51113  34.603  43.910   7.050
 8360POPC   C4A51114  34.574  43.847   7.350
 8360POPC   C1B51115  34.471  44.081   6.450
 8360POPC   C2B51116  34.475  44.104   6.750
 8360POPC   C3B51117  34.429  44.139   7.050
 8360POPC   C4B51118  34.444  44.086   7.350
 8361POPC   NC351119  27.599  12.884   5.550
 8361POPC   PO451120  27.547  12.872   5.850
 8361POPC   GL151121  27.545  12.831   6.150
 8361POPC   GL251122  27.487  12.749   6.150
 8361POPC   C1A51123  27.629  12.806   6.450
 8361POPC   D2A51124  27.599  12.859   6.750
 8361POPC   C3A51125  27.565  12.820   7.050
 8361POPC   C4A51126  27.637  12.855   7.350
 8361POPC   C1B51127  27.476  12.658   6.450
 8361POPC   C2B51128  27.419  12.649   6.750
 8361POPC   C3B51129  27.414  12.676   7.050
 8361POPC   C4B51130  27.390  12.619   7.350
 8362POPC   NC351131  29.970  22.954   5.550
 8362POPC   PO451132  29.956  22.890   5.850
 8362POPC   GL151133  29.962  22.889   6.150
 8362POPC   GL251134  29.941  22.833   6.150
 8362POPC   C1A51135  29.956  22.984   6.450
 8362POPC   D2A51136  29.893  22.963   6.750
 8362POPC   C3A51137  29.928  22.892   7.050
 8362POPC   C4A51138  29.873  22.936   7.350
 8362POPC   C1B51139  29.963  22.660   6.450
 8362POPC   C2B51140  29.927  22.663   6.750
 8362POPC   C3B51141  29.890  22.668   7.050
 8362POPC   C4B51142  29.920  22.698   7.350
 8363POPC   NC351143  11.281   5.114   5.550
 8363POPC   PO451144  11.337   5.082   5.850
 8363POPC   GL151145  11.253   5.078   6.150
 8363POPC   GL251146  11.235   5.002   6.150
 8363POPC   C1A51147  11.302   5.075   6.450
 8363POPC   D2A51148  11.346   5.102   6.750
 8363POPC   C3A51149  11.330   5.096   7.050
 8363POPC   C4A51150  11.324   5.117   7.350
 8363POPC   C1B51151  11.131   4.955   6.450
 8363POPC   C2B51152  11.132   4.901   6.750
 8363POPC   C3B51153  11.139   4.957   7.050
 8363POPC   C4B51154  11.131   4.987   7.350
 8364POPC   NC351155  13.626  36.161   5.550
 8364POPC   PO451156  13.601  36.095   5.850
 8364POPC   GL151157  13.605  36.083   6.150
 8364POPC   GL251158  13.625  36.213   6.150
 8364POPC   C1A51159  13.618  36.128   6.450
 8364POPC   D2A51160  13.669  36.174   6.750
 8364POPC   C3A51161  13.620  36.082   7.050
 8364POPC   C4A51162  13.600  36.152   7.350
 8364POPC   C1B51163  13.628  36.397   6.450
 8364POPC   C2B51164  13.617  36.370   6.750
 8364POPC   C3B51165  13.610  36.372   7.050
 8364POPC   C4B51166  13.639  36.330   7.350
 8365POPC   NC351167  40.784  33.767   5.550
 8365POPC   PO451168  40.832  33.832   5.850
 8365POPC   GL151169  40.829  33.794   6.150
 8365POPC   GL251170  40.781  33.945   6.150
 8365POPC   C1A51171  40.767  33.785   6.450
 8365POPC   D2A51172  40.781  33.811   6.750
 8365POPC   C3A51173  40.777  33.753   7.050
 8365POPC   C4A51174  40.828  33.791   7.350
 8365POPC   C1B51175  40.813  34.040   6.450
 8365POPC   C2B51176  40.838  34.069   6.750
 8365POPC   C3B51177  40.745  34.080   7.050
 8365POPC   C4B51178  40.775  34.074   7.350
 8366POPC   NC351179   0.480  18.307   5.550
 8366POPC   PO451180   0.470  18.234   5.850
 8366POPC   GL151181   0.406  18.285   6.150
 8366POPC   GL251182   0.306  18.250   6.150
 8366POPC   C1A51183   0.426  18.296   6.450
 8366POPC   D2A51184   0.461  18.289   6.750
 8366POPC   C3A51185   0.439  18.268   7.050
 8366POPC   C4A51186   0.389  18.249   7.350
 8366POPC   C1B51187   0.203  18.183   6.450
 8366POPC   C2B51188   0.220  18.185   6.750
 8366POPC   C3B51189   0.203  18.150   7.050
 8366POPC   C4B51190   0.246  18.225   7.350
 8367POPC   NC351191   0.420  37.726   5.550
 8367POPC   PO451192   0.439  37.654   5.850
 8367POPC   GL151193   0.394  37.664   6.150
 8367POPC   GL251194   0.462  37.510   6.150
 8367POPC   C1A51195   0.414  37.639   6.450
 8367POPC   D2A51196   0.435  37.644   6.750
 8367POPC   C3A51197   0.452  37.720   7.050
 8367POPC   C4A51198   0.463  37.729   7.350
 8367POPC   C1B51199   0.478  37.442   6.450
 8367POPC   C2B51200   0.501  37.395   6.750
 8367POPC   C3B51201   0.442  37.391   7.050
 8367POPC   C4B51202   0.484  37.433   7.350
 8368POPC   NC351203  36.932  41.584   5.550
 8368POPC   PO451204  36.901  41.581   5.850
 8368POPC   GL151205  36.871  41.513   6.150
 8368POPC   GL251206  36.783  41.528   6.150
 8368POPC   C1A51207  36.947  41.565   6.450
 8368POPC   D2A51208  36.933  41.561   6.750
 8368POPC   C3A51209  36.937  41.591   7.050
 8368POPC   C4A51210  36.933  41.515   7.350
 8368POPC   C1B51211  36.662  41.416   6.450
 8368POPC   C2B51212  36.681  41.383   6.750
 8368POPC   C3B51213  36.678  41.380   7.050
 8368POPC   C4B51214  36.669  41.435   7.350
 8369POPC   NC351215  26.013  26.849   5.550
 8369POPC   PO451216  26.089  26.855   5.850
 8369POPC   GL151217  26.063  26.792   6.150
 8369POPC   GL251218  26.168  26.840   6.150
 8369POPC   C1A51219  25.993  26.792   6.450
 8369POPC   D2A51220  26.006  26.813   6.750
 8369POPC   C3A51221  26.016  26.797   7.050
 8369POPC   C4A51222  26.036  26.852   7.350
 8369POPC   C1B51223  26.331  26.838   6.450
 8369POPC   C2B51224  26.312  26.917   6.750
 8369POPC   C3B51225  26.329  26.879   7.050
 8369POPC   C4B51226  26.330  26.899   7.350
 8370POPC   NC351227   6.667   8.216   5.550
 8370POPC   PO451228   6.613   8.238   5.850
 8370POPC   GL151229   6.647   8.168   6.150
 8370POPC   GL251230   6.684   8.275   6.150
 8370POPC   C1A51231   6.669   8.178   6.450
 8370POPC   D2A51232   6.666   8.163   6.750
 8370POPC   C3A51233   6.672   8.151   7.050
 8370POPC   C4A51234   6.695   8.187   7.350
 8370POPC   C1B51235   6.738   8.429   6.450
 8370POPC   C2B51236   6.733   8.455   6.750
 8370POPC   C3B51237   6.702   8.423   7.050
 8370POPC   C4B51238   6.725   8.429   7.350
 8371POPC   NC351239  10.556   8.995   5.550
 8371POPC   PO451240  10.541   8.990   5.850
 8371POPC   GL151241  10.496   8.953   6.150
 8371POPC   GL251242  10.586   9.032   6.150
 8371POPC   C1A51243  10.562   8.936   6.450
 8371POPC   D2A51244  10.519   9.003   6.750
 8371POPC   C3A51245  10.539   8.955   7.050
 8371POPC   C4A51246  10.481   8.945   7.350
 8371POPC   C1B51247  10.688   9.164   6.450
 8371POPC   C2B51248  10.685   9.106   6.750
 8371POPC   C3B51249  10.676   9.180   7.050
 8371POPC   C4B51250  10.747   9.094   7.350
 8372POPC   NC351251  42.317   0.413   5.550
 8372POPC   PO451252  42.303   0.442   5.850
 8372POPC   GL151253  42.362   0.485   6.150
 8372POPC   GL251254  42.343   0.523   6.150
 8372POPC   C1A51255  42.347   0.433   6.450
 8372POPC   D2A51256  42.367   0.399   6.750
 8372POPC   C3A51257  42.287   0.443   7.050
 8372POPC   C4A51258  42.303   0.442   7.350
 8372POPC   C1B51259  42.305   0.678   6.450
 8372POPC   C2B51260  42.232   0.687   6.750
 8372POPC   C3B51261  42.288   0.638   7.050
 8372POPC   C4B51262  42.246   0.639   7.350
 8373POPC   NC351263   5.898  26.066   5.550
 8373POPC   PO451264   5.875  26.053   5.850
 8373POPC   GL151265   5.861  26.014   6.150
 8373POPC   GL251266   6.006  26.032   6.150
 8373POPC   C1A51267   5.838  26.030   6.450
 8373POPC   D2A51268   5.850  26.008   6.750
 8373POPC   C3A51269   5.892  26.073   7.050
 8373POPC   C4A51270   5.869  26.064   7.350
 8373POPC   C1B51271   6.162  26.126   6.450
 8373POPC   C2B51272   6.115  26.074   6.750
 8373POPC   C3B51273   6.104  26.082   7.050
 8373POPC   C4B51274   6.083  26.049   7.350
 8374POPC   NC351275   1.167  15.170   5.550
 8374POPC   PO451276   1.252  15.134   5.850
 8374POPC   GL151277   1.165  15.217   6.150
 8374POPC   GL251278   1.226  15.336   6.150
 8374POPC   C1A51279   1.188  15.133   6.450
 8374POPC   D2A51280   1.209  15.210   6.750
 8374POPC   C3A51281   1.176  15.139   7.050
 8374POPC   C4A51282   1.253  15.144   7.350
 8374POPC   C1B51283   1.228  15.459   6.450
 8374POPC   C2B51284   1.223  15.437   6.750
 8374POPC   C3B51285   1.211  15.426   7.050
 8374POPC   C4B51286   1.304  15.413   7.350
 8375POPC   NC351287  37.727  27.620   5.550
 8375POPC   PO451288  37.636  27.633   5.850
 8375POPC   GL151289  37.674  27.570   6.150
 8375POPC   GL251290  37.577  27.636   6.150
 8375POPC   C1A51291  37.691  27.623   6.450
 8375POPC   D2A51292  37.656  27.584   6.750
 8375POPC   C3A51293  37.645  27.608   7.050
 8375POPC   C4A51294  37.687  27.613   7.350
 8375POPC   C1B51295  37.447  27.791   6.450
 8375POPC   C2B51296  37.486  27.791   6.750
 8375POPC   C3B51297  37.498  27.756   7.050
 8375POPC   C4B51298  37.469  27.727   7.350
 8376POPC   NC351299  24.457   5.090   5.550
 8376POPC   PO451300  24.486   5.045   5.850
 8376POPC   GL151301  24.446   5.100   6.150
 8376POPC   GL251302  24.584   5.121   6.150
 8376POPC   C1A51303  24.514   5.130   6.450
 8376POPC   D2A51304  24.529   5.073   6.750
 8376POPC   C3A51305  24.487   5.109   7.050
 8376POPC   C4A51306  24.505   5.079   7.350
 8376POPC   C1B51307  24.710   5.223   6.450
 8376POPC   C2B51308  24.703   5.280   6.750
 8376POPC   C3B51309  24.684   5.271   7.050
 8376POPC   C4B51310  24.699   5.200   7.350
 8377POPC   NC351311  33.061   3.556   5.550
 8377POPC   PO451312  33.037   3.506   5.850
 8377POPC   GL151313  32.994   3.564   6.150
 8377POPC   GL251314  33.043   3.676   6.150
 8377POPC   C1A51315  32.980   3.551   6.450
 8377POPC   D2A51316  33.058   3.549   6.750
 8377POPC   C3A51317  33.045   3.549   7.050
 8377POPC   C4A51318  33.044   3.589   7.350
 8377POPC   C1B51319  33.058   3.767   6.450
 8377POPC   C2B51320  33.089   3.782   6.750
 8377POPC   C3B51321  33.079   3.763   7.050
 8377POPC   C4B51322  33.100   3.811   7.350
 8378POPC   NC351323  44.669   5.057   5.550
 8378POPC   PO451324  44.656   5.134   5.850
 8378POPC   GL151325  44.621   5.124   6.150
 8378POPC   GL251326  44.754   5.067   6.150
 8378POPC   C1A51327  44.700   5.059   6.450
 8378POPC   D2A51328  44.640   5.066   6.750
 8378POPC   C3A51329  44.698   5.050   7.050
 8378POPC   C4A51330  44.667   5.075   7.350
 8378POPC   C1B51331  44.905   5.165   6.450
 8378POPC   C2B51332  44.916   5.153   6.750
 8378POPC   C3B51333  44.864   5.092   7.050
 8378POPC   C4B51334  44.929   5.106   7.350
 8379POPC   NC351335  28.355   0.419   5.550
 8379POPC   PO451336  28.412   0.410   5.850
 8379POPC   GL151337  28.330   0.480   6.150
 8379POPC   GL251338  28.365   0.319   6.150
 8379POPC   C1A51339  28.359   0.450   6.450
 8379POPC   D2A51340  28.320   0.460   6.750
 8379POPC   C3A51341  28.357   0.454   7.050
 8379POPC   C4A51342  28.348   0.472   7.350
 8379POPC   C1B51343  28.419   0.250   6.450
 8379POPC   C2B51344  28.503   0.173   6.750
 8379POPC   C3B51345  28.487   0.173   7.050
 8379POPC   C4B51346  28.419   0.199   7.350
 8380POPC   NC351347  36.156  44.629   5.550
 8380POPC   PO451348  36.097  44.649   5.850
 8380POPC   GL151349  36.177  44.616   6.150
 8380POPC   GL251350  36.084  44.559   6.150
 8380POPC   C1A51351  36.088  44.633   6.450
 8380POPC   D2A51352  36.092  44.653   6.750
 8380POPC   C3A51353  36.101  44.673   7.050
 8380POPC   C4A51354  36.149  44.637   7.350
 8380POPC   C1B51355  36.159  44.439   6.450
 8380POPC   C2B51356  36.150  44.385   6.750
 8380POPC   C3B51357  36.117  44.438   7.050
 8380POPC   C4B51358  36.108  44.376   7.350
 8381POPC   NC351359  29.872  29.181   5.550
 8381POPC   PO451360  29.967  29.175   5.850
 8381POPC   GL151361  29.962  29.101   6.150
 8381POPC   GL251362  29.773  29.173   6.150
 8381POPC   C1A51363  29.958  29.108   6.450
 8381POPC   D2A51364  29.930  29.167   6.750
 8381POPC   C3A51365  29.896  29.119   7.050
 8381POPC   C4A51366  29.971  29.164   7.350
 8381POPC   C1B51367  29.650  29.182   6.450
 8381POPC   C2B51368  29.627  29.146   6.750
 8381POPC   C3B51369  29.702  29.163   7.050
 8381POPC   C4B51370  29.659  29.201   7.350
 8382POPC   NC351371  32.200  22.120   5.550
 8382POPC   PO451372  32.205  22.198   5.850
 8382POPC   GL151373  32.223  22.124   6.150
 8382POPC   GL251374  32.324  22.097   6.150
 8382POPC   C1A51375  32.205  22.151   6.450
 8382POPC   D2A51376  32.291  22.188   6.750
 8382POPC   C3A51377  32.239  22.150   7.050
 8382POPC   C4A51378  32.209  22.168   7.350
 8382POPC   C1B51379  32.427  22.042   6.450
 8382POPC   C2B51380  32.492  22.050   6.750
 8382POPC   C3B51381  32.474  21.960   7.050
 8382POPC   C4B51382  32.434  21.962   7.350
 8383POPC   NC351383   7.438  11.311   5.550
 8383POPC   PO451384   7.459  11.316   5.850
 8383POPC   GL151385   7.463  11.340   6.150
 8383POPC   GL251386   7.451  11.469   6.150
 8383POPC   C1A51387   7.454  11.276   6.450
 8383POPC   D2A51388   7.421  11.298   6.750
 8383POPC   C3A51389   7.385  11.255   7.050
 8383POPC   C4A51390   7.461  11.314   7.350
 8383POPC   C1B51391   7.429  11.513   6.450
 8383POPC   C2B51392   7.502  11.513   6.750
 8383POPC   C3B51393   7.510  11.506   7.050
 8383POPC   C4B51394   7.496  11.545   7.350
 8384POPC   NC351395  36.933  40.757   5.550
 8384POPC   PO451396  36.904  40.782   5.850
 8384POPC   GL151397  36.940  40.735   6.150
 8384POPC   GL251398  36.958  40.898   6.150
 8384POPC   C1A51399  36.893  40.821   6.450
 8384POPC   D2A51400  36.946  40.759   6.750
 8384POPC   C3A51401  36.903  40.769   7.050
 8384POPC   C4A51402  36.862  40.763   7.350
 8384POPC   C1B51403  36.973  41.016   6.450
 8384POPC   C2B51404  36.985  41.060   6.750
 8384POPC   C3B51405  36.931  41.048   7.050
 8384POPC   C4B51406  36.944  41.035   7.350
 8385POPC   NC351407   5.140  22.906   5.550
 8385POPC   PO451408   5.136  22.962   5.850
 8385POPC   GL151409   5.091  22.973   6.150
 8385POPC   GL251410   5.028  23.031   6.150
 8385POPC   C1A51411   5.064  22.902   6.450
 8385POPC   D2A51412   5.132  22.899   6.750
 8385POPC   C3A51413   5.082  22.969   7.050
 8385POPC   C4A51414   5.134  22.987   7.350
 8385POPC   C1B51415   4.948  23.161   6.450
 8385POPC   C2B51416   4.935  23.173   6.750
 8385POPC   C3B51417   4.913  23.141   7.050
 8385POPC   C4B51418   4.974  23.129   7.350
 8386POPC   NC351419  19.030  24.538   5.550
 8386POPC   PO451420  19.108  24.441   5.850
 8386POPC   GL151421  19.100  24.460   6.150
 8386POPC   GL251422  18.964  24.567   6.150
 8386POPC   C1A51423  19.106  24.461   6.450
 8386POPC   D2A51424  19.071  24.451   6.750
 8386POPC   C3A51425  19.053  24.495   7.050
 8386POPC   C4A51426  19.039  24.457   7.350
 8386POPC   C1B51427  18.960  24.725   6.450
 8386POPC   C2B51428  18.887  24.733   6.750
 8386POPC   C3B51429  18.953  24.674   7.050
 8386POPC   C4B51430  18.865  24.707   7.350
 8387POPC   NC351431   5.088  29.147   5.550
 8387POPC   PO451432   5.109  29.151   5.850
 8387POPC   GL151433   5.083  29.182   6.150
 8387POPC   GL251434   5.022  28.994   6.150
 8387POPC   C1A51435   5.079  29.107   6.450
 8387POPC   D2A51436   5.131  29.142   6.750
 8387POPC   C3A51437   5.098  29.171   7.050
 8387POPC   C4A51438   5.119  29.140   7.350
 8387POPC   C1B51439   4.984  28.904   6.450
 8387POPC   C2B51440   4.992  28.894   6.750
 8387POPC   C3B51441   4.973  28.913   7.050
 8387POPC   C4B51442   5.039  28.947   7.350
 8388POPC   NC351443  26.047   4.317   5.550
 8388POPC   PO451444  25.994   4.345   5.850
 8388POPC   GL151445  26.086   4.297   6.150
 8388POPC   GL251446  26.142   4.239   6.150
 8388POPC   C1A51447  26.050   4.316   6.450
 8388POPC   D2A51448  26.028   4.324   6.750
 8388POPC   C3A51449  26.090   4.352   7.050
 8388POPC   C4A51450  26.022   4.326   7.350
 8388POPC   C1B51451  26.292   4.131   6.450
 8388POPC   C2B51452  26.238   4.144   6.750
 8388POPC   C3B51453  26.283   4.165   7.050
 8388POPC   C4B51454  26.210   4.133   7.350
 8389POPC   NC351455  12.030  40.747   5.550
 8389POPC   PO451456  12.075  40.777   5.850
 8389POPC   GL151457  12.101  40.821   6.150
 8389POPC   GL251458  11.908  40.767   6.150
 8389POPC   C1A51459  12.124  40.788   6.450
 8389POPC   D2A51460  12.111  40.822   6.750
 8389POPC   C3A51461  12.043  40.775   7.050
 8389POPC   C4A51462  12.058  40.734   7.350
 8389POPC   C1B51463  11.820  40.817   6.450
 8389POPC   C2B51464  11.800  40.848   6.750
 8389POPC   C3B51465  11.862  40.783   7.050
 8389POPC   C4B51466  11.792  40.814   7.350
 8390POPC   NC351467  34.571  13.631   5.550
 8390POPC   PO451468  34.601  13.606   5.850
 8390POPC   GL151469  34.551  13.587   6.150
 8390POPC   GL251470  34.598  13.536   6.150
 8390POPC   C1A51471  34.541  13.662   6.450
 8390POPC   D2A51472  34.567  13.592   6.750
 8390POPC   C3A51473  34.556  13.641   7.050
 8390POPC   C4A51474  34.609  13.619   7.350
 8390POPC   C1B51475  34.719  13.387   6.450
 8390POPC   C2B51476  34.693  13.436   6.750
 8390POPC   C3B51477  34.722  13.365   7.050
 8390POPC   C4B51478  34.655  13.368   7.350
 8391POPC   NC351479  39.241  25.295   5.550
 8391POPC   PO451480  39.277  25.233   5.850
 8391POPC   GL151481  39.186  25.282   6.150
 8391POPC   GL251482  39.151  25.422   6.150
 8391POPC   C1A51483  39.269  25.230   6.450
 8391POPC   D2A51484  39.200  25.310   6.750
 8391POPC   C3A51485  39.226  25.224   7.050
 8391POPC   C4A51486  39.265  25.217   7.350
 8391POPC   C1B51487  39.136  25.551   6.450
 8391POPC   C2B51488  39.138  25.462   6.750
 8391POPC   C3B51489  39.148  25.519   7.050
 8391POPC   C4B51490  39.161  25.490   7.350
 8392POPC   NC351491  10.509  22.941   5.550
 8392POPC   PO451492  10.525  22.908   5.850
 8392POPC   GL151493  10.506  22.913   6.150
 8392POPC   GL251494  10.687  22.865   6.150
 8392POPC   C1A51495  10.554  22.908   6.450
 8392POPC   D2A51496  10.476  22.929   6.750
 8392POPC   C3A51497  10.505  22.940   7.050
 8392POPC   C4A51498  10.512  22.936   7.350
 8392POPC   C1B51499  10.766  22.871   6.450
 8392POPC   C2B51500  10.790  22.919   6.750
 8392POPC   C3B51501  10.778  22.894   7.050
 8392POPC   C4B51502  10.780  22.902   7.350
 8393POPC   NC351503  42.297  28.412   5.550
 8393POPC   PO451504  42.339  28.412   5.850
 8393POPC   GL151505  42.332  28.405   6.150
 8393POPC   GL251506  42.208  28.405   6.150
 8393POPC   C1A51507  42.307  28.386   6.450
 8393POPC   D2A51508  42.336  28.402   6.750
 8393POPC   C3A51509  42.360  28.353   7.050
 8393POPC   C4A51510  42.285  28.385   7.350
 8393POPC   C1B51511  42.134  28.505   6.450
 8393POPC   C2B51512  42.156  28.479   6.750
 8393POPC   C3B51513  42.091  28.428   7.050
 8393POPC   C4B51514  42.143  28.439   7.350
 8394POPC   NC351515  44.676  36.872   5.550
 8394POPC   PO451516  44.646  36.944   5.850
 8394POPC   GL151517  44.628  36.885   6.150
 8394POPC   GL251518  44.600  37.055   6.150
 8394POPC   C1A51519  44.660  36.876   6.450
 8394POPC   D2A51520  44.688  36.903   6.750
 8394POPC   C3A51521  44.635  36.938   7.050
 8394POPC   C4A51522  44.621  36.860   7.350
 8394POPC   C1B51523  44.609  37.157   6.450
 8394POPC   C2B51524  44.606  37.146   6.750
 8394POPC   C3B51525  44.625  37.116   7.050
 8394POPC   C4B51526  44.582  37.094   7.350
 8395POPC   NC351527  43.936  25.291   5.550
 8395POPC   PO451528  43.896  25.218   5.850
 8395POPC   GL151529  43.922  25.226   6.150
 8395POPC   GL251530  43.733  25.365   6.150
 8395POPC   C1A51531  43.916  25.229   6.450
 8395POPC   D2A51532  43.867  25.228   6.750
 8395POPC   C3A51533  43.933  25.284   7.050
 8395POPC   C4A51534  43.933  25.242   7.350
 8395POPC   C1B51535  43.663  25.367   6.450
 8395POPC   C2B51536  43.667  25.432   6.750
 8395POPC   C3B51537  43.697  25.397   7.050
 8395POPC   C4B51538  43.639  25.382   7.350
 8396POPC   NC351539   1.986  12.810   5.550
 8396POPC   PO451540   2.023  12.820   5.850
 8396POPC   GL151541   2.039  12.813   6.150
 8396POPC   GL251542   2.145  12.821   6.150
 8396POPC   C1A51543   1.981  12.807   6.450
 8396POPC   D2A51544   1.986  12.872   6.750
 8396POPC   C3A51545   1.950  12.829   7.050
 8396POPC   C4A51546   1.941  12.880   7.350
 8396POPC   C1B51547   2.277  12.867   6.450
 8396POPC   C2B51548   2.260  12.810   6.750
 8396POPC   C3B51549   2.229  12.802   7.050
 8396POPC   C4B51550   2.248  12.801   7.350
 8397POPC   NC351551  41.522  24.447   5.550
 8397POPC   PO451552  41.532  24.513   5.850
 8397POPC   GL151553  41.569  24.520   6.150
 8397POPC   GL251554  41.660  24.588   6.150
 8397POPC   C1A51555  41.575  24.477   6.450
 8397POPC   D2A51556  41.536  24.458   6.750
 8397POPC   C3A51557  41.577  24.488   7.050
 8397POPC   C4A51558  41.563  24.517   7.350
 8397POPC   C1B51559  41.711  24.681   6.450
 8397POPC   C2B51560  41.656  24.734   6.750
 8397POPC   C3B51561  41.690  24.682   7.050
 8397POPC   C4B51562  41.668  24.748   7.350
 8398POPC   NC351563  29.931   8.192   5.550
 8398POPC   PO451564  29.946   8.199   5.850
 8398POPC   GL151565  29.944   8.240   6.150
 8398POPC   GL251566  29.862   8.138   6.150
 8398POPC   C1A51567  29.907   8.148   6.450
 8398POPC   D2A51568  29.873   8.184   6.750
 8398POPC   C3A51569  29.952   8.150   7.050
 8398POPC   C4A51570  29.872   8.210   7.350
 8398POPC   C1B51571  29.709   8.022   6.450
 8398POPC   C2B51572  29.698   8.020   6.750
 8398POPC   C3B51573  29.730   8.000   7.050
 8398POPC   C4B51574  29.747   8.034   7.350
 8399POPC   NC351575   7.442  26.780   5.550
 8399POPC   PO451576   7.391  26.807   5.850
 8399POPC   GL151577   7.381  26.856   6.150
 8399POPC   GL251578   7.437  26.974   6.150
 8399POPC   C1A51579   7.409  26.850   6.450
 8399POPC   D2A51580   7.470  26.830   6.750
 8399POPC   C3A51581   7.403  26.842   7.050
 8399POPC   C4A51582   7.444  26.843   7.350
 8399POPC   C1B51583   7.397  27.042   6.450
 8399POPC   C2B51584   7.389  27.053   6.750
 8399POPC   C3B51585   7.439  27.066   7.050
 8399POPC   C4B51586   7.391  27.106   7.350
 8400POPC   NC351587   8.224  12.062   5.550
 8400POPC   PO451588   8.184  12.113   5.850
 8400POPC   GL151589   8.190  12.047   6.150
 8400POPC   GL251590   8.070  12.152   6.150
 8400POPC   C1A51591   8.183  12.049   6.450
 8400POPC   D2A51592   8.151  12.064   6.750
 8400POPC   C3A51593   8.169  12.088   7.050
 8400POPC   C4A51594   8.229  12.110   7.350
 8400POPC   C1B51595   8.024  12.230   6.450
 8400POPC   C2B51596   7.967  12.213   6.750
 8400POPC   C3B51597   7.978  12.260   7.050
 8400POPC   C4B51598   7.997  12.196   7.350
 8401POPC   NC351599   3.518  38.432   5.550
 8401POPC   PO451600   3.556  38.441   5.850
 8401POPC   GL151601   3.565  38.413   6.150
 8401POPC   GL251602   3.439  38.396   6.150
 8401POPC   C1A51603   3.566  38.462   6.450
 8401POPC   D2A51604   3.570  38.474   6.750
 8401POPC   C3A51605   3.586  38.482   7.050
 8401POPC   C4A51606   3.549  38.437   7.350
 8401POPC   C1B51607   3.410  38.308   6.450
 8401POPC   C2B51608   3.352  38.262   6.750
 8401POPC   C3B51609   3.405  38.303   7.050
 8401POPC   C4B51610   3.386  38.308   7.350
 8402POPC   NC351611  36.096  20.603   5.550
 8402POPC   PO451612  36.095  20.580   5.850
 8402POPC   GL151613  36.082  20.586   6.150
 8402POPC   GL251614  36.242  20.715   6.150
 8402POPC   C1A51615  36.158  20.653   6.450
 8402POPC   D2A51616  36.162  20.582   6.750
 8402POPC   C3A51617  36.112  20.621   7.050
 8402POPC   C4A51618  36.142  20.625   7.350
 8402POPC   C1B51619  36.347  20.778   6.450
 8402POPC   C2B51620  36.379  20.764   6.750
 8402POPC   C3B51621  36.343  20.758   7.050
 8402POPC   C4B51622  36.347  20.762   7.350
 8403POPC   NC351623  16.717   5.870   5.550
 8403POPC   PO451624  16.742   5.862   5.850
 8403POPC   GL151625  16.733   5.912   6.150
 8403POPC   GL251626  16.753   5.747   6.150
 8403POPC   C1A51627  16.695   5.858   6.450
 8403POPC   D2A51628  16.683   5.866   6.750
 8403POPC   C3A51629  16.704   5.907   7.050
 8403POPC   C4A51630  16.697   5.873   7.350
 8403POPC   C1B51631  16.702   5.672   6.450
 8403POPC   C2B51632  16.638   5.583   6.750
 8403POPC   C3B51633  16.700   5.645   7.050
 8403POPC   C4B51634  16.728   5.583   7.350
 8404POPC   NC351635  16.004  41.578   5.550
 8404POPC   PO451636  15.980  41.578   5.850
 8404POPC   GL151637  15.979  41.577   6.150
 8404POPC   GL251638  15.787  41.537   6.150
 8404POPC   C1A51639  15.970  41.519   6.450
 8404POPC   D2A51640  15.927  41.604   6.750
 8404POPC   C3A51641  15.925  41.512   7.050
 8404POPC   C4A51642  15.952  41.578   7.350
 8404POPC   C1B51643  15.702  41.559   6.450
 8404POPC   C2B51644  15.740  41.523   6.750
 8404POPC   C3B51645  15.696  41.587   7.050
 8404POPC   C4B51646  15.725  41.585   7.350
 8405POPC   NC351647  42.289  15.968   5.550
 8405POPC   PO451648  42.352  15.933   5.850
 8405POPC   GL151649  42.338  15.993   6.150
 8405POPC   GL251650  42.288  15.999   6.150
 8405POPC   C1A51651  42.339  16.001   6.450
 8405POPC   D2A51652  42.293  15.943   6.750
 8405POPC   C3A51653  42.336  15.906   7.050
 8405POPC   C4A51654  42.382  15.934   7.350
 8405POPC   C1B51655  42.109  16.124   6.450
 8405POPC   C2B51656  42.122  16.136   6.750
 8405POPC   C3B51657  42.113  16.163   7.050
 8405POPC   C4B51658  42.108  16.143   7.350
 8406POPC   NC351659  33.037   1.982   5.550
 8406POPC   PO451660  33.048   1.999   5.850
 8406POPC   GL151661  33.027   2.036   6.150
 8406POPC   GL251662  32.914   2.077   6.150
 8406POPC   C1A51663  33.048   1.990   6.450
 8406POPC   D2A51664  33.028   2.029   6.750
 8406POPC   C3A51665  33.069   1.987   7.050
 8406POPC   C4A51666  33.045   1.976   7.350
 8406POPC   C1B51667  32.779   2.108   6.450
 8406POPC   C2B51668  32.798   2.043   6.750
 8406POPC   C3B51669  32.756   2.103   7.050
 8406POPC   C4B51670  32.772   2.049   7.350
 8407POPC   NC351671  28.336  22.955   5.550
 8407POPC   PO451672  28.340  22.945   5.850
 8407POPC   GL151673  28.379  22.917   6.150
 8407POPC   GL251674  28.228  22.984   6.150
 8407POPC   C1A51675  28.327  22.953   6.450
 8407POPC   D2A51676  28.392  22.922   6.750
 8407POPC   C3A51677  28.415  22.897   7.050
 8407POPC   C4A51678  28.395  22.918   7.350
 8407POPC   C1B51679  28.097  22.955   6.450
 8407POPC   C2B51680  28.126  22.935   6.750
 8407POPC   C3B51681  28.159  22.985   7.050
 8407POPC   C4B51682  28.171  22.967   7.350
 8408POPC   NC351683  25.259  31.516   5.550
 8408POPC   PO451684  25.300  31.482   5.850
 8408POPC   GL151685  25.247  31.440   6.150
 8408POPC   GL251686  25.412  31.567   6.150
 8408POPC   C1A51687  25.232  31.440   6.450
 8408POPC   D2A51688  25.297  31.458   6.750
 8408POPC   C3A51689  25.232  31.519   7.050
 8408POPC   C4A51690  25.275  31.495   7.350
 8408POPC   C1B51691  25.426  31.603   6.450
 8408POPC   C2B51692  25.431  31.609   6.750
 8408POPC   C3B51693  25.444  31.597   7.050
 8408POPC   C4B51694  25.488  31.596   7.350
 8409POPC   NC351695  34.623   0.402   5.550
 8409POPC   PO451696  34.587   0.389   5.850
 8409POPC   GL151697  34.544   0.398   6.150
 8409POPC   GL251698  34.460   0.505   6.150
 8409POPC   C1A51699  34.530   0.463   6.450
 8409POPC   D2A51700  34.626   0.462   6.750
 8409POPC   C3A51701  34.577   0.428   7.050
 8409POPC   C4A51702  34.559   0.429   7.350
 8409POPC   C1B51703  34.423   0.668   6.450
 8409POPC   C2B51704  34.368   0.582   6.750
 8409POPC   C3B51705  34.417   0.571   7.050
 8409POPC   C4B51706  34.431   0.596   7.350
 8410POPC   NC351707   2.788  44.704   5.550
 8410POPC   PO451708   2.753  44.711   5.850
 8410POPC   GL151709   2.779  44.628   6.150
 8410POPC   GL251710   2.651  44.737   6.150
 8410POPC   C1A51711   2.739  44.621   6.450
 8410POPC   D2A51712   2.782  44.701   6.750
 8410POPC   C3A51713   2.737  44.692   7.050
 8410POPC   C4A51714   2.737  44.667   7.350
 8410POPC   C1B51715   2.633  44.922   6.450
 8410POPC   C2B51716   2.630  44.854   6.750
 8410POPC   C3B51717   2.676  44.833   7.050
 8410POPC   C4B51718   2.645  44.842   7.350
 8411POPC   NC351719   7.377  29.958   5.550
 8411POPC   PO451720   7.448  29.949   5.850
 8411POPC   GL151721   7.376  29.970   6.150
 8411POPC   GL251722   7.551  29.947   6.150
 8411POPC   C1A51723   7.422  29.939   6.450
 8411POPC   D2A51724   7.417  29.884   6.750
 8411POPC   C3A51725   7.440  29.968   7.050
 8411POPC   C4A51726   7.451  29.915   7.350
 8411POPC   C1B51727   7.669  29.909   6.450
 8411POPC   C2B51728   7.633  29.901   6.750
 8411POPC   C3B51729   7.676  29.931   7.050
 8411POPC   C4B51730   7.679  29.893   7.350
 8412POPC   NC351731  39.237   5.131   5.550
 8412POPC   PO451732  39.211   5.101   5.850
 8412POPC   GL151733  39.258   5.094   6.150
 8412POPC   GL251734  39.328   4.989   6.150
 8412POPC   C1A51735  39.207   5.056   6.450
 8412POPC   D2A51736  39.281   5.076   6.750
 8412POPC   C3A51737  39.243   5.058   7.050
 8412POPC   C4A51738  39.199   5.065   7.350
 8412POPC   C1B51739  39.403   4.847   6.450
 8412POPC   C2B51740  39.342   4.921   6.750
 8412POPC   C3B51741  39.351   4.895   7.050
 8412POPC   C4B51742  39.338   4.853   7.350
 8413POPC   NC351743  44.653  17.482   5.550
 8413POPC   PO451744  44.660  17.459   5.850
 8413POPC   GL151745  44.691  17.498   6.150
 8413POPC   GL251746  44.673  17.601   6.150
 8413POPC   C1A51747  44.704  17.529   6.450
 8413POPC   D2A51748  44.636  17.463   6.750
 8413POPC   C3A51749  44.649  17.478   7.050
 8413POPC   C4A51750  44.658  17.468   7.350
 8413POPC   C1B51751  44.640  17.797   6.450
 8413POPC   C2B51752  44.560  17.712   6.750
 8413POPC   C3B51753  44.571  17.730   7.050
 8413POPC   C4B51754  44.614  17.770   7.350
 8414POPC   NC351755  25.301   1.258   5.550
 8414POPC   PO451756  25.300   1.211   5.850
 8414POPC   GL151757  25.255   1.193   6.150
 8414POPC   GL251758  25.243   1.324   6.150
 8414POPC   C1A51759  25.299   1.189   6.450
 8414POPC   D2A51760  25.263   1.218   6.750
 8414POPC   C3A51761  25.216   1.174   7.050
 8414POPC   C4A51762  25.300   1.183   7.350
 8414POPC   C1B51763  25.302   1.503   6.450
 8414POPC   C2B51764  25.334   1.496   6.750
 8414POPC   C3B51765  25.340   1.437   7.050
 8414POPC   C4B51766  25.296   1.454   7.350
 8415POPC   NC351767   9.731  11.315   5.550
 8415POPC   PO451768   9.701  11.350   5.850
 8415POPC   GL151769   9.755  11.311   6.150
 8415POPC   GL251770   9.769  11.197   6.150
 8415POPC   C1A51771   9.726  11.299   6.450
 8415POPC   D2A51772   9.726  11.279   6.750
 8415POPC   C3A51773   9.748  11.318   7.050
 8415POPC   C4A51774   9.776  11.290   7.350
 8415POPC   C1B51775   9.748  11.038   6.450
 8415POPC   C2B51776   9.751  11.065   6.750
 8415POPC   C3B51777   9.725  11.031   7.050
 8415POPC   C4B51778   9.735  11.017   7.350
 8416POPC   NC351779  41.541  22.162   5.550
 8416POPC   PO451780  41.575  22.168   5.850
 8416POPC   GL151781  41.572  22.138   6.150
 8416POPC   GL251782  41.620  22.307   6.150
 8416POPC   C1A51783  41.535  22.205   6.450
 8416POPC   D2A51784  41.526  22.117   6.750
 8416POPC   C3A51785  41.519  22.149   7.050
 8416POPC   C4A51786  41.558  22.150   7.350
 8416POPC   C1B51787  41.700  22.363   6.450
 8416POPC   C2B51788  41.647  22.402   6.750
 8416POPC   C3B51789  41.638  22.328   7.050
 8416POPC   C4B51790  41.702  22.353   7.350
 8417POPC   NC351791  38.469  29.177   5.550
 8417POPC   PO451792  38.409  29.179   5.850
 8417POPC   GL151793  38.491  29.131   6.150
 8417POPC   GL251794  38.547  29.216   6.150
 8417POPC   C1A51795  38.437  29.178   6.450
 8417POPC   D2A51796  38.432  29.119   6.750
 8417POPC   C3A51797  38.455  29.101   7.050
 8417POPC   C4A51798  38.427  29.123   7.350
 8417POPC   C1B51799  38.573  29.389   6.450
 8417POPC   C2B51800  38.619  29.327   6.750
 8417POPC   C3B51801  38.587  29.354   7.050
 8417POPC   C4B51802  38.619  29.302   7.350
 8418POPC   NC351803   1.996  42.303   5.550
 8418POPC   PO451804   1.992  42.324   5.850
 8418POPC   GL151805   1.959  42.308   6.150
 8418POPC   GL251806   1.875  42.264   6.150
 8418POPC   C1A51807   1.946  42.301   6.450
 8418POPC   D2A51808   1.964  42.376   6.750
 8418POPC   C3A51809   2.014  42.313   7.050
 8418POPC   C4A51810   1.977  42.289   7.350
 8418POPC   C1B51811   1.754  42.173   6.450
 8418POPC   C2B51812   1.756  42.176   6.750
 8418POPC   C3B51813   1.810  42.219   7.050
 8418POPC   C4B51814   1.783  42.244   7.350
 8419POPC   NC351815  25.256  36.935   5.550
 8419POPC   PO451816  25.250  36.950   5.850
 8419POPC   GL151817  25.256  36.951   6.150
 8419POPC   GL251818  25.372  36.870   6.150
 8419POPC   C1A51819  25.262  36.946   6.450
 8419POPC   D2A51820  25.236  36.908   6.750
 8419POPC   C3A51821  25.307  36.858   7.050
 8419POPC   C4A51822  25.269  36.923   7.350
 8419POPC   C1B51823  25.481  36.777   6.450
 8419POPC   C2B51824  25.451  36.811   6.750
 8419POPC   C3B51825  25.492  36.776   7.050
 8419POPC   C4B51826  25.475  36.788   7.350
 8420POPC   NC351827  19.799  26.070   5.550
 8420POPC   PO451828  19.793  26.006   5.850
 8420POPC   GL151829  19.871  26.041   6.150
 8420POPC   GL251830  19.851  25.867   6.150
 8420POPC   C1A51831  19.881  26.037   6.450
 8420POPC   D2A51832  19.800  26.075   6.750
 8420POPC   C3A51833  19.869  26.043   7.050
 8420POPC   C4A51834  19.834  26.008   7.350
 8420POPC   C1B51835  19.824  25.834   6.450
 8420POPC   C2B51836  19.809  25.772   6.750
 8420POPC   C3B51837  19.839  25.795   7.050
 8420POPC   C4B51838  19.826  25.800   7.350
 8421POPC   NC351839  37.632   8.927   5.550
 8421POPC   PO451840  37.663   8.956   5.850
 8421POPC   GL151841  37.661   8.948   6.150
 8421POPC   GL251842  37.637   9.038   6.150
 8421POPC   C1A51843  37.719   8.992   6.450
 8421POPC   D2A51844  37.659   8.935   6.750
 8421POPC   C3A51845  37.651   8.969   7.050
 8421POPC   C4A51846  37.630   9.014   7.350
 8421POPC   C1B51847  37.511   9.213   6.450
 8421POPC   C2B51848  37.539   9.174   6.750
 8421POPC   C3B51849  37.582   9.203   7.050
 8421POPC   C4B51850  37.499   9.178   7.350
 8422POPC   NC351851  29.970  22.133   5.550
 8422POPC   PO451852  29.955  22.198   5.850
 8422POPC   GL151853  29.881  22.137   6.150
 8422POPC   GL251854  29.920  22.271   6.150
 8422POPC   C1A51855  29.896  22.208   6.450
 8422POPC   D2A51856  29.890  22.195   6.750
 8422POPC   C3A51857  29.901  22.165   7.050
 8422POPC   C4A51858  29.897  22.116   7.350
 8422POPC   C1B51859  29.992  22.426   6.450
 8422POPC   C2B51860  29.947  22.399   6.750
 8422POPC   C3B51861  30.004  22.442   7.050
 8422POPC   C4B51862  29.999  22.419   7.350
 8423POPC   NC351863  20.563  35.372   5.550
 8423POPC   PO451864  20.575  35.392   5.850
 8423POPC   GL151865  20.647  35.373   6.150
 8423POPC   GL251866  20.690  35.423   6.150
 8423POPC   C1A51867  20.561  35.388   6.450
 8423POPC   D2A51868  20.596  35.386   6.750
 8423POPC   C3A51869  20.568  35.388   7.050
 8423POPC   C4A51870  20.597  35.348   7.350
 8423POPC   C1B51871  20.876  35.466   6.450
 8423POPC   C2B51872  20.884  35.478   6.750
 8423POPC   C3B51873  20.883  35.459   7.050
 8423POPC   C4B51874  20.874  35.488   7.350
 8424POPC   NC351875  21.338  20.639   5.550
 8424POPC   PO451876  21.408  20.620   5.850
 8424POPC   GL151877  21.368  20.657   6.150
 8424POPC   GL251878  21.263  20.694   6.150
 8424POPC   C1A51879  21.349  20.601   6.450
 8424POPC   D2A51880  21.338  20.587   6.750
 8424POPC   C3A51881  21.340  20.611   7.050
 8424POPC   C4A51882  21.433  20.631   7.350
 8424POPC   C1B51883  21.224  20.710   6.450
 8424POPC   C2B51884  21.204  20.755   6.750
 8424POPC   C3B51885  21.203  20.737   7.050
 8424POPC   C4B51886  21.172  20.721   7.350
 8425POPC   NC351887  40.048  36.087   5.550
 8425POPC   PO451888  39.996  36.163   5.850
 8425POPC   GL151889  39.961  36.131   6.150
 8425POPC   GL251890  40.095  36.165   6.150
 8425POPC   C1A51891  40.045  36.160   6.450
 8425POPC   D2A51892  40.009  36.126   6.750
 8425POPC   C3A51893  40.004  36.091   7.050
 8425POPC   C4A51894  39.973  36.129   7.350
 8425POPC   C1B51895  40.251  36.221   6.450
 8425POPC   C2B51896  40.275  36.190   6.750
 8425POPC   C3B51897  40.285  36.212   7.050
 8425POPC   C4B51898  40.287  36.224   7.350
 8426POPC   NC351899  43.076  12.842   5.550
 8426POPC   PO451900  43.129  12.850   5.850
 8426POPC   GL151901  43.094  12.883   6.150
 8426POPC   GL251902  43.152  12.725   6.150
 8426POPC   C1A51903  43.115  12.839   6.450
 8426POPC   D2A51904  43.155  12.811   6.750
 8426POPC   C3A51905  43.144  12.887   7.050
 8426POPC   C4A51906  43.089  12.863   7.350
 8426POPC   C1B51907  43.252  12.725   6.450
 8426POPC   C2B51908  43.276  12.689   6.750
 8426POPC   C3B51909  43.260  12.677   7.050
 8426POPC   C4B51910  43.322  12.634   7.350
 8427POPC   NC351911  19.102  15.196   5.550
 8427POPC   PO451912  19.105  15.132   5.850
 8427POPC   GL151913  19.032  15.157   6.150
 8427POPC   GL251914  19.130  15.244   6.150
 8427POPC   C1A51915  19.108  15.206   6.450
 8427POPC   D2A51916  19.083  15.142   6.750
 8427POPC   C3A51917  19.080  15.210   7.050
 8427POPC   C4A51918  19.062  15.135   7.350
 8427POPC   C1B51919  19.253  15.382   6.450
 8427POPC   C2B51920  19.225  15.328   6.750
 8427POPC   C3B51921  19.293  15.394   7.050
 8427POPC   C4B51922  19.210  15.360   7.350
 8428POPC   NC351923   5.911  25.279   5.550
 8428POPC   PO451924   5.904  25.239   5.850
 8428POPC   GL151925   5.833  25.286   6.150
 8428POPC   GL251926   5.823  25.163   6.150
 8428POPC   C1A51927   5.912  25.284   6.450
 8428POPC   D2A51928   5.872  25.218   6.750
 8428POPC   C3A51929   5.881  25.302   7.050
 8428POPC   C4A51930   5.834  25.224   7.350
 8428POPC   C1B51931   5.799  25.031   6.450
 8428POPC   C2B51932   5.822  25.065   6.750
 8428POPC   C3B51933   5.836  25.031   7.050
 8428POPC   C4B51934   5.821  25.043   7.350
 8429POPC   NC351935   5.068  36.171   5.550
 8429POPC   PO451936   5.078  36.176   5.850
 8429POPC   GL151937   5.078  36.135   6.150
 8429POPC   GL251938   5.195  36.002   6.150
 8429POPC   C1A51939   5.114  36.108   6.450
 8429POPC   D2A51940   5.137  36.173   6.750
 8429POPC   C3A51941   5.082  36.169   7.050
 8429POPC   C4A51942   5.096  36.109   7.350
 8429POPC   C1B51943   5.274  35.969   6.450
 8429POPC   C2B51944   5.228  35.935   6.750
 8429POPC   C3B51945   5.203  35.883   7.050
 8429POPC   C4B51946   5.263  35.877   7.350
 8430POPC   NC351947   0.463  10.484   5.550
 8430POPC   PO451948   0.422  10.482   5.850
 8430POPC   GL151949   0.420  10.477   6.150
 8430POPC   GL251950   0.447  10.633   6.150
 8430POPC   C1A51951   0.428  10.528   6.450
 8430POPC   D2A51952   0.426  10.496   6.750
 8430POPC   C3A51953   0.412  10.530   7.050
 8430POPC   C4A51954   0.447  10.503   7.350
 8430POPC   C1B51955   0.370  10.784   6.450
 8430POPC   C2B51956   0.313  10.723   6.750
 8430POPC   C3B51957   0.401  10.809   7.050
 8430POPC   C4B51958   0.356  10.794   7.350
 8431POPC   NC351959  30.723  44.691   5.550
 8431POPC   PO451960  30.665  44.666   5.850
 8431POPC   GL151961  30.670  44.676   6.150
 8431POPC   GL251962  30.712  44.803   6.150
 8431POPC   C1A51963  30.684  44.639   6.450
 8431POPC   D2A51964  30.719  44.671   6.750
 8431POPC   C3A51965  30.657  44.674   7.050
 8431POPC   C4A51966  30.670  44.646   7.350
 8431POPC   C1B51967  30.851  44.845   6.450
 8431POPC   C2B51968  30.815  44.867   6.750
 8431POPC   C3B51969  30.827  44.840   7.050
 8431POPC   C4B51970  30.782  44.832   7.350
 8432POPC   NC351971  37.660  29.152   5.550
 8432POPC   PO451972  37.703  29.135   5.850
 8432POPC   GL151973  37.679  29.170   6.150
 8432POPC   GL251974  37.768  29.119   6.150
 8432POPC   C1A51975  37.697  29.148   6.450
 8432POPC   D2A51976  37.713  29.124   6.750
 8432POPC   C3A51977  37.710  29.183   7.050
 8432POPC   C4A51978  37.699  29.161   7.350
 8432POPC   C1B51979  37.948  29.075   6.450
 8432POPC   C2B51980  37.908  29.109   6.750
 8432POPC   C3B51981  37.975  29.080   7.050
 8432POPC   C4B51982  37.890  29.126   7.350
 8433POPC   NC351983  43.143   8.161   5.550
 8433POPC   PO451984  43.076   8.168   5.850
 8433POPC   GL151985  43.131   8.162   6.150
 8433POPC   GL251986  43.026   8.241   6.150
 8433POPC   C1A51987  43.157   8.167   6.450
 8433POPC   D2A51988  43.159   8.173   6.750
 8433POPC   C3A51989  43.108   8.171   7.050
 8433POPC   C4A51990  43.148   8.157   7.350
 8433POPC   C1B51991  42.895   8.249   6.450
 8433POPC   C2B51992  42.897   8.289   6.750
 8433POPC   C3B51993  42.887   8.214   7.050
 8433POPC   C4B51994  42.836   8.244   7.350
 8434POPC   NC351995   8.192  33.036   5.550
 8434POPC   PO451996   8.184  32.979   5.850
 8434POPC   GL151997   8.234  33.006   6.150
 8434POPC   GL251998   8.276  33.144   6.150
 8434POPC   C1A51999   8.238  32.977   6.450
 8434POPC   D2A52000   8.224  33.007   6.750
 8434POPC   C3A52001   8.189  33.010   7.050
 8434POPC   C4A52002   8.183  32.986   7.350
 8434POPC   C1B52003   8.257  33.200   6.450
 8434POPC   C2B52004   8.264  33.226   6.750
 8434POPC   C3B52005   8.280  33.290   7.050
 8434POPC   C4B52006   8.288  33.223   7.350
 8435POPC   NC352007  42.350  34.582   5.550
 8435POPC   PO452008  42.294  34.564   5.850
 8435POPC   GL152009  42.337  34.540   6.150
 8435POPC   GL252010  42.260  34.495   6.150
 8435POPC   C1A52011  42.294  34.536   6.450
 8435POPC   D2A52012  42.334  34.541   6.750
 8435POPC   C3A52013  42.340  34.559   7.050
 8435POPC   C4A52014  42.311  34.582   7.350
 8435POPC   C1B52015  42.119  34.425   6.450
 8435POPC   C2B52016  42.125  34.371   6.750
 8435POPC   C3B52017  42.177  34.436   7.050
 8435POPC   C4B52018  42.123  34.434   7.350
 8436POPC   NC352019   8.177  12.898   5.550
 8436POPC   PO452020   8.210  12.815   5.850
 8436POPC   GL152021   8.237  12.878   6.150
 8436POPC   GL252022   8.247  12.937   6.150
 8436POPC   C1A52023   8.200  12.898   6.450
 8436POPC   D2A52024   8.158  12.815   6.750
 8436POPC   C3A52025   8.173  12.867   7.050
 8436POPC   C4A52026   8.222  12.900   7.350
 8436POPC   C1B52027   8.340  13.107   6.450
 8436POPC   C2B52028   8.383  13.021   6.750
 8436POPC   C3B52029   8.310  13.094   7.050
 8436POPC   C4B52030   8.362  13.108   7.350
 8437POPC   NC352031  21.399   9.006   5.550
 8437POPC   PO452032  21.413   8.964   5.850
 8437POPC   GL152033  21.408   9.020   6.150
 8437POPC   GL252034  21.490   9.069   6.150
 8437POPC   C1A52035  21.377   8.948   6.450
 8437POPC   D2A52036  21.354   9.014   6.750
 8437POPC   C3A52037  21.435   8.955   7.050
 8437POPC   C4A52038  21.400   8.943   7.350
 8437POPC   C1B52039  21.507   9.187   6.450
 8437POPC   C2B52040  21.574   9.205   6.750
 8437POPC   C3B52041  21.552   9.223   7.050
 8437POPC   C4B52042  21.514   9.223   7.350
 8438POPC   NC352043  23.708   1.238   5.550
 8438POPC   PO452044  23.735   1.166   5.850
 8438POPC   GL152045  23.690   1.169   6.150
 8438POPC   GL252046  23.785   1.291   6.150
 8438POPC   C1A52047  23.754   1.229   6.450
 8438POPC   D2A52048  23.710   1.183   6.750
 8438POPC   C3A52049  23.751   1.243   7.050
 8438POPC   C4A52050  23.705   1.171   7.350
 8438POPC   C1B52051  23.960   1.358   6.450
 8438POPC   C2B52052  23.931   1.284   6.750
 8438POPC   C3B52053  23.962   1.363   7.050
 8438POPC   C4B52054  23.971   1.342   7.350
 8439POPC   NC352055  12.805  39.272   5.550
 8439POPC   PO452056  12.835  39.273   5.850
 8439POPC   GL152057  12.874  39.188   6.150
 8439POPC   GL252058  12.749  39.322   6.150
 8439POPC   C1A52059  12.823  39.212   6.450
 8439POPC   D2A52060  12.826  39.259   6.750
 8439POPC   C3A52061  12.845  39.257   7.050
 8439POPC   C4A52062  12.887  39.239   7.350
 8439POPC   C1B52063  12.746  39.463   6.450
 8439POPC   C2B52064  12.722  39.486   6.750
 8439POPC   C3B52065  12.762  39.434   7.050
 8439POPC   C4B52066  12.733  39.439   7.350
 8440POPC   NC352067  22.202   5.892   5.550
 8440POPC   PO452068  22.125   5.844   5.850
 8440POPC   GL152069  22.127   5.918   6.150
 8440POPC   GL252070  22.233   5.902   6.150
 8440POPC   C1A52071  22.126   5.908   6.450
 8440POPC   D2A52072  22.172   5.856   6.750
 8440POPC   C3A52073  22.207   5.909   7.050
 8440POPC   C4A52074  22.211   5.854   7.350
 8440POPC   C1B52075  22.424   5.919   6.450
 8440POPC   C2B52076  22.436   5.998   6.750
 8440POPC   C3B52077  22.384   5.961   7.050
 8440POPC   C4B52078  22.358   5.952   7.350
 8441POPC   NC352079  42.367  26.032   5.550
 8441POPC   PO452080  42.361  26.016   5.850
 8441POPC   GL152081  42.361  26.007   6.150
 8441POPC   GL252082  42.342  25.938   6.150
 8441POPC   C1A52083  42.339  26.080   6.450
 8441POPC   D2A52084  42.349  26.017   6.750
 8441POPC   C3A52085  42.331  26.063   7.050
 8441POPC   C4A52086  42.313  26.014   7.350
 8441POPC   C1B52087  42.296  25.839   6.450
 8441POPC   C2B52088  42.212  25.790   6.750
 8441POPC   C3B52089  42.231  25.831   7.050
 8441POPC   C4B52090  42.246  25.845   7.350
 8442POPC   NC352091  12.864  28.376   5.550
 8442POPC   PO452092  12.891  28.347   5.850
 8442POPC   GL152093  12.884  28.378   6.150
 8442POPC   GL252094  12.951  28.371   6.150
 8442POPC   C1A52095  12.879  28.342   6.450
 8442POPC   D2A52096  12.826  28.405   6.750
 8442POPC   C3A52097  12.881  28.393   7.050
 8442POPC   C4A52098  12.806  28.359   7.350
 8442POPC   C1B52099  13.140  28.399   6.450
 8442POPC   C2B52100  13.127  28.370   6.750
 8442POPC   C3B52101  13.063  28.427   7.050
 8442POPC   C4B52102  13.074  28.428   7.350
 8443POPC   NC352103  26.801  40.770   5.550
 8443POPC   PO452104  26.855  40.779   5.850
 8443POPC   GL152105  26.777  40.786   6.150
 8443POPC   GL252106  26.818  40.929   6.150
 8443POPC   C1A52107  26.808  40.786   6.450
 8443POPC   D2A52108  26.793  40.759   6.750
 8443POPC   C3A52109  26.834  40.745   7.050
 8443POPC   C4A52110  26.850  40.832   7.350
 8443POPC   C1B52111  26.717  41.059   6.450
 8443POPC   C2B52112  26.792  40.997   6.750
 8443POPC   C3B52113  26.780  41.058   7.050
 8443POPC   C4B52114  26.769  41.007   7.350
 8444POPC   NC352115  42.333  11.295   5.550
 8444POPC   PO452116  42.339  11.253   5.850
 8444POPC   GL152117  42.308  11.272   6.150
 8444POPC   GL252118  42.284  11.161   6.150
 8444POPC   C1A52119  42.332  11.256   6.450
 8444POPC   D2A52120  42.367  11.299   6.750
 8444POPC   C3A52121  42.338  11.251   7.050
 8444POPC   C4A52122  42.318  11.278   7.350
 8444POPC   C1B52123  42.214  11.115   6.450
 8444POPC   C2B52124  42.245  11.071   6.750
 8444POPC   C3B52125  42.213  11.058   7.050
 8444POPC   C4B52126  42.188  11.106   7.350
 8445POPC   NC352127   1.247  25.239   5.550
 8445POPC   PO452128   1.198  25.242   5.850
 8445POPC   GL152129   1.254  25.271   6.150
 8445POPC   GL252130   1.294  25.358   6.150
 8445POPC   C1A52131   1.204  25.294   6.450
 8445POPC   D2A52132   1.256  25.225   6.750
 8445POPC   C3A52133   1.168  25.272   7.050
 8445POPC   C4A52134   1.250  25.226   7.350
 8445POPC   C1B52135   1.348  25.447   6.450
 8445POPC   C2B52136   1.346  25.462   6.750
 8445POPC   C3B52137   1.354  25.452   7.050
 8445POPC   C4B52138   1.340  25.520   7.350
 8446POPC   NC352139   5.092   8.185   5.550
 8446POPC   PO452140   5.115   8.185   5.850
 8446POPC   GL152141   5.126   8.217   6.150
 8446POPC   GL252142   5.096   8.294   6.150
 8446POPC   C1A52143   5.115   8.179   6.450
 8446POPC   D2A52144   5.131   8.174   6.750
 8446POPC   C3A52145   5.142   8.216   7.050
 8446POPC   C4A52146   5.079   8.177   7.350
 8446POPC   C1B52147   5.128   8.440   6.450
 8446POPC   C2B52148   5.100   8.425   6.750
 8446POPC   C3B52149   5.109   8.466   7.050
 8446POPC   C4B52150   5.168   8.396   7.350
 8447POPC   NC352151  29.900  40.005   5.550
 8447POPC   PO452152  29.879  40.053   5.850
 8447POPC   GL152153  29.878  39.975   6.150
 8447POPC   GL252154  29.996  40.017   6.150
 8447POPC   C1A52155  29.904  40.040   6.450
 8447POPC   D2A52156  29.884  39.994   6.750
 8447POPC   C3A52157  29.943  40.042   7.050
 8447POPC   C4A52158  29.884  40.027   7.350
 8447POPC   C1B52159  30.183  40.090   6.450
 8447POPC   C2B52160  30.180  40.067   6.750
 8447POPC   C3B52161  30.214  40.090   7.050
 8447POPC   C4B52162  30.201  40.040   7.350
 8448POPC   NC352163  11.294  43.857   5.550
 8448POPC   PO452164  11.349  43.923   5.850
 8448POPC   GL152165  11.262  43.882   6.150
 8448POPC   GL252166  11.419  43.995   6.150
 8448POPC   C1A52167  11.306  43.931   6.450
 8448POPC   D2A52168  11.329  43.904   6.750
 8448POPC   C3A52169  11.269  43.916   7.050
 8448POPC   C4A52170  11.286  43.872   7.350
 8448POPC   C1B52171  11.419  44.103   6.450
 8448POPC   C2B52172  11.433  44.084   6.750
 8448POPC   C3B52173  11.479  44.096   7.050
 8448POPC   C4B52174  11.503  44.072   7.350
 8449POPC   NC352175  35.365  29.949   5.550
 8449POPC   PO452176  35.359  29.912   5.850
 8449POPC   GL152177  35.342  29.935   6.150
 8449POPC   GL252178  35.198  29.893   6.150
 8449POPC   C1A52179  35.317  29.893   6.450
 8449POPC   D2A52180  35.329  29.887   6.750
 8449POPC   C3A52181  35.398  29.926   7.050
 8449POPC   C4A52182  35.339  29.880   7.350
 8449POPC   C1B52183  35.076  29.889   6.450
 8449POPC   C2B52184  35.114  29.882   6.750
 8449POPC   C3B52185  35.108  29.799   7.050
 8449POPC   C4B52186  35.146  29.856   7.350
 8450POPC   NC352187   8.169   9.004   5.550
 8450POPC   PO452188   8.151   9.001   5.850
 8450POPC   GL152189   8.203   8.990   6.150
 8450POPC   GL252190   8.109   8.960   6.150
 8450POPC   C1A52191   8.231   8.926   6.450
 8450POPC   D2A52192   8.185   8.973   6.750
 8450POPC   C3A52193   8.187   8.971   7.050
 8450POPC   C4A52194   8.213   8.991   7.350
 8450POPC   C1B52195   7.920   8.846   6.450
 8450POPC   C2B52196   7.959   8.869   6.750
 8450POPC   C3B52197   7.980   8.856   7.050
 8450POPC   C4B52198   7.959   8.894   7.350
 8451POPC   NC352199  11.318  17.492   5.550
 8451POPC   PO452200  11.276  17.489   5.850
 8451POPC   GL152201  11.268  17.464   6.150
 8451POPC   GL252202  11.249  17.403   6.150
 8451POPC   C1A52203  11.306  17.541   6.450
 8451POPC   D2A52204  11.344  17.543   6.750
 8451POPC   C3A52205  11.256  17.470   7.050
 8451POPC   C4A52206  11.259  17.542   7.350
 8451POPC   C1B52207  11.211  17.259   6.450
 8451POPC   C2B52208  11.202  17.262   6.750
 8451POPC   C3B52209  11.190  17.277   7.050
 8451POPC   C4B52210  11.170  17.249   7.350
 8452POPC   NC352211  23.673  36.894   5.550
 8452POPC   PO452212  23.668  36.911   5.850
 8452POPC   GL152213  23.687  36.918   6.150
 8452POPC   GL252214  23.577  36.937   6.150
 8452POPC   C1A52215  23.716  36.895   6.450
 8452POPC   D2A52216  23.754  36.951   6.750
 8452POPC   C3A52217  23.685  36.877   7.050
 8452POPC   C4A52218  23.693  36.939   7.350
 8452POPC   C1B52219  23.473  36.875   6.450
 8452POPC   C2B52220  23.505  36.873   6.750
 8452POPC   C3B52221  23.487  36.909   7.050
 8452POPC   C4B52222  23.454  36.852   7.350
 8453POPC   NC352223  15.962  33.818   5.550
 8453POPC   PO452224  15.979  33.812   5.850
 8453POPC   GL152225  15.981  33.824   6.150
 8453POPC   GL252226  15.845  33.915   6.150
 8453POPC   C1A52227  15.915  33.755   6.450
 8453POPC   D2A52228  15.958  33.771   6.750
 8453POPC   C3A52229  15.932  33.782   7.050
 8453POPC   C4A52230  15.910  33.806   7.350
 8453POPC   C1B52231  15.812  34.006   6.450
 8453POPC   C2B52232  15.768  34.018   6.750
 8453POPC   C3B52233  15.835  33.959   7.050
 8453POPC   C4B52234  15.748  33.944   7.350
 8454POPC   NC352235  12.888   8.210   5.550
 8454POPC   PO452236  12.857   8.243   5.850
 8454POPC   GL152237  12.838   8.224   6.150
 8454POPC   GL252238  12.825   8.093   6.150
 8454POPC   C1A52239  12.887   8.172   6.450
 8454POPC   D2A52240  12.819   8.233   6.750
 8454POPC   C3A52241  12.862   8.158   7.050
 8454POPC   C4A52242  12.811   8.180   7.350
 8454POPC   C1B52243  12.873   7.925   6.450
 8454POPC   C2B52244  12.870   7.913   6.750
 8454POPC   C3B52245  12.884   7.903   7.050
 8454POPC   C4B52246  12.899   7.905   7.350
 8455POPC   NC352247  33.790  35.394   5.550
 8455POPC   PO452248  33.782  35.394   5.850
 8455POPC   GL152249  33.789  35.361   6.150
 8455POPC   GL252250  33.741  35.268   6.150
 8455POPC   C1A52251  33.825  35.392   6.450
 8455POPC   D2A52252  33.761  35.383   6.750
 8455POPC   C3A52253  33.765  35.354   7.050
 8455POPC   C4A52254  33.819  35.330   7.350
 8455POPC   C1B52255  33.696  35.152   6.450
 8455POPC   C2B52256  33.759  35.070   6.750
 8455POPC   C3B52257  33.749  35.108   7.050
 8455POPC   C4B52258  33.736  35.146   7.350
 8456POPC   NC352259  13.607  39.995   5.550
 8456POPC   PO452260  13.670  39.988   5.850
 8456POPC   GL152261  13.609  40.015   6.150
 8456POPC   GL252262  13.740  40.137   6.150
 8456POPC   C1A52263  13.620  39.996   6.450
 8456POPC   D2A52264  13.606  39.992   6.750
 8456POPC   C3A52265  13.665  39.999   7.050
 8456POPC   C4A52266  13.670  40.018   7.350
 8456POPC   C1B52267  13.808  40.142   6.450
 8456POPC   C2B52268  13.811  40.221   6.750
 8456POPC   C3B52269  13.842  40.192   7.050
 8456POPC   C4B52270  13.814  40.159   7.350
 8457POPC   NC352271   6.622  30.671   5.550
 8457POPC   PO452272   6.673  30.727   5.850
 8457POPC   GL152273   6.657  30.693   6.150
 8457POPC   GL252274   6.552  30.563   6.150
 8457POPC   C1A52275   6.639  30.720   6.450
 8457POPC   D2A52276   6.648  30.743   6.750
 8457POPC   C3A52277   6.650  30.677   7.050
 8457POPC   C4A52278   6.598  30.695   7.350
 8457POPC   C1B52279   6.585  30.478   6.450
 8457POPC   C2B52280   6.550  30.507   6.750
 8457POPC   C3B52281   6.554  30.468   7.050
 8457POPC   C4B52282   6.539  30.487   7.350
 8458POPC   NC352283   7.438  23.756   5.550
 8458POPC   PO452284   7.464  23.671   5.850
 8458POPC   GL152285   7.455  23.706   6.150
 8458POPC   GL252286   7.540  23.751   6.150
 8458POPC   C1A52287   7.437  23.747   6.450
 8458POPC   D2A52288   7.427  23.700   6.750
 8458POPC   C3A52289   7.387  23.754   7.050
 8458POPC   C4A52290   7.439  23.738   7.350
 8458POPC   C1B52291   7.690  23.828   6.450
 8458POPC   C2B52292   7.639  23.793   6.750
 8458POPC   C3B52293   7.703  23.774   7.050
 8458POPC   C4B52294   7.695  23.819   7.350
 8459POPC   NC352295  33.786  11.251   5.550
 8459POPC   PO452296  33.764  11.282   5.850
 8459POPC   GL152297  33.768  11.268   6.150
 8459POPC   GL252298  33.892  11.288   6.150
 8459POPC   C1A52299  33.795  11.295   6.450
 8459POPC   D2A52300  33.777  11.324   6.750
 8459POPC   C3A52301  33.820  11.294   7.050
 8459POPC   C4A52302  33.807  11.280   7.350
 8459POPC   C1B52303  34.041  11.230   6.450
 8459POPC   C2B52304  34.059  11.277   6.750
 8459POPC   C3B52305  34.016  11.249   7.050
 8459POPC   C4B52306  34.020  11.217   7.350
 8460POPC   NC352307  35.357  33.052   5.550
 8460POPC   PO452308  35.318  33.014   5.850
 8460POPC   GL152309  35.397  33.065   6.150
 8460POPC   GL252310  35.178  32.986   6.150
 8460POPC   C1A52311  35.322  33.025   6.450
 8460POPC   D2A52312  35.329  33.055   6.750
 8460POPC   C3A52313  35.363  32.978   7.050
 8460POPC   C4A52314  35.367  33.074   7.350
 8460POPC   C1B52315  35.118  33.011   6.450
 8460POPC   C2B52316  35.134  33.087   6.750
 8460POPC   C3B52317  35.061  33.069   7.050
 8460POPC   C4B52318  35.131  32.996   7.350
 8461POPC   NC352319  23.671  36.114   5.550
 8461POPC   PO452320  23.672  36.100   5.850
 8461POPC   GL152321  23.680  36.102   6.150
 8461POPC   GL252322  23.782  36.047   6.150
 8461POPC   C1A52323  23.738  36.171   6.450
 8461POPC   D2A52324  23.725  36.163   6.750
 8461POPC   C3A52325  23.734  36.103   7.050
 8461POPC   C4A52326  23.711  36.091   7.350
 8461POPC   C1B52327  23.778  35.884   6.450
 8461POPC   C2B52328  23.804  35.902   6.750
 8461POPC   C3B52329  23.780  35.847   7.050
 8461POPC   C4B52330  23.774  35.884   7.350
 8462POPC   NC352331   2.806  43.920   5.550
 8462POPC   PO452332   2.789  43.907   5.850
 8462POPC   GL152333   2.744  43.844   6.150
 8462POPC   GL252334   2.683  44.017   6.150
 8462POPC   C1A52335   2.739  43.879   6.450
 8462POPC   D2A52336   2.780  43.858   6.750
 8462POPC   C3A52337   2.781  43.878   7.050
 8462POPC   C4A52338   2.757  43.871   7.350
 8462POPC   C1B52339   2.694  44.081   6.450
 8462POPC   C2B52340   2.611  44.078   6.750
 8462POPC   C3B52341   2.626  44.135   7.050
 8462POPC   C4B52342   2.696  44.076   7.350
 8463POPC   NC352343  15.995  39.275   5.550
 8463POPC   PO452344  15.939  39.225   5.850
 8463POPC   GL152345  15.955  39.210   6.150
 8463POPC   GL252346  16.061  39.249   6.150
 8463POPC   C1A52347  15.918  39.201   6.450
 8463POPC   D2A52348  15.962  39.221   6.750
 8463POPC   C3A52349  15.951  39.223   7.050
 8463POPC   C4A52350  15.958  39.204   7.350
 8463POPC   C1B52351  16.175  39.340   6.450
 8463POPC   C2B52352  16.181  39.346   6.750
 8463POPC   C3B52353  16.219  39.281   7.050
 8463POPC   C4B52354  16.237  39.348   7.350
 8464POPC   NC352355  28.382  24.492   5.550
 8464POPC   PO452356  28.416  24.535   5.850
 8464POPC   GL152357  28.383  24.444   6.150
 8464POPC   GL252358  28.304  24.592   6.150
 8464POPC   C1A52359  28.366  24.537   6.450
 8464POPC   D2A52360  28.324  24.454   6.750
 8464POPC   C3A52361  28.370  24.471   7.050
 8464POPC   C4A52362  28.400  24.462   7.350
 8464POPC   C1B52363  28.270  24.697   6.450
 8464POPC   C2B52364  28.221  24.748   6.750
 8464POPC   C3B52365  28.252  24.675   7.050
 8464POPC   C4B52366  28.280  24.707   7.350
 8465POPC   NC352367  11.293  36.953   5.550
 8465POPC   PO452368  11.284  36.890   5.850
 8465POPC   GL152369  11.288  36.931   6.150
 8465POPC   GL252370  11.216  36.964   6.150
 8465POPC   C1A52371  11.255  36.898   6.450
 8465POPC   D2A52372  11.338  36.873   6.750
 8465POPC   C3A52373  11.306  36.953   7.050
 8465POPC   C4A52374  11.318  36.856   7.350
 8465POPC   C1B52375  11.077  37.014   6.450
 8465POPC   C2B52376  11.116  37.055   6.750
 8465POPC   C3B52377  11.094  37.051   7.050
 8465POPC   C4B52378  11.073  37.060   7.350
 8466POPC   NC352379  12.829  12.058   5.550
 8466POPC   PO452380  12.809  12.090   5.850
 8466POPC   GL152381  12.854  12.118   6.150
 8466POPC   GL252382  12.884  12.027   6.150
 8466POPC   C1A52383  12.874  12.034   6.450
 8466POPC   D2A52384  12.808  12.051   6.750
 8466POPC   C3A52385  12.854  12.034   7.050
 8466POPC   C4A52386  12.840  12.116   7.350
 8466POPC   C1B52387  12.975  11.837   6.450
 8466POPC   C2B52388  12.990  11.911   6.750
 8466POPC   C3B52389  13.009  11.878   7.050
 8466POPC   C4B52390  13.048  11.837   7.350
 8467POPC   NC352391  20.609  30.724   5.550
 8467POPC   PO452392  20.645  30.695   5.850
 8467POPC   GL152393  20.605  30.660   6.150
 8467POPC   GL252394  20.544  30.781   6.150
 8467POPC   C1A52395  20.612  30.660   6.450
 8467POPC   D2A52396  20.656  30.692   6.750
 8467POPC   C3A52397  20.578  30.715   7.050
 8467POPC   C4A52398  20.635  30.682   7.350
 8467POPC   C1B52399  20.595  30.967   6.450
 8467POPC   C2B52400  20.567  30.918   6.750
 8467POPC   C3B52401  20.593  30.973   7.050
 8467POPC   C4B52402  20.556  30.932   7.350
 8468POPC   NC352403  38.407  35.384   5.550
 8468POPC   PO452404  38.466  35.401   5.850
 8468POPC   GL152405  38.493  35.400   6.150
 8468POPC   GL252406  38.512  35.223   6.150
 8468POPC   C1A52407  38.455  35.395   6.450
 8468POPC   D2A52408  38.473  35.356   6.750
 8468POPC   C3A52409  38.502  35.381   7.050
 8468POPC   C4A52410  38.480  35.401   7.350
 8468POPC   C1B52411  38.471  35.152   6.450
 8468POPC   C2B52412  38.473  35.126   6.750
 8468POPC   C3B52413  38.465  35.081   7.050
 8468POPC   C4B52414  38.524  35.099   7.350
 8469POPC   NC352415  26.811  17.554   5.550
 8469POPC   PO452416  26.806  17.486   5.850
 8469POPC   GL152417  26.855  17.530   6.150
 8469POPC   GL252418  26.748  17.411   6.150
 8469POPC   C1A52419  26.799  17.513   6.450
 8469POPC   D2A52420  26.795  17.470   6.750
 8469POPC   C3A52421  26.864  17.514   7.050
 8469POPC   C4A52422  26.795  17.527   7.350
 8469POPC   C1B52423  26.672  17.353   6.450
 8469POPC   C2B52424  26.679  17.317   6.750
 8469POPC   C3B52425  26.658  17.289   7.050
 8469POPC   C4B52426  26.653  17.292   7.350
 8470POPC   NC352427  35.310  21.394   5.550
 8470POPC   PO452428  35.354  21.371   5.850
 8470POPC   GL152429  35.361  21.356   6.150
 8470POPC   GL252430  35.206  21.373   6.150
 8470POPC   C1A52431  35.309  21.391   6.450
 8470POPC   D2A52432  35.302  21.399   6.750
 8470POPC   C3A52433  35.359  21.424   7.050
 8470POPC   C4A52434  35.399  21.392   7.350
 8470POPC   C1B52435  35.117  21.367   6.450
 8470POPC   C2B52436  35.054  21.320   6.750
 8470POPC   C3B52437  35.076  21.334   7.050
 8470POPC   C4B52438  35.104  21.360   7.350
 8471POPC   NC352439  42.338  26.835   5.550
 8471POPC   PO452440  42.369  26.829   5.850
 8471POPC   GL152441  42.327  26.809   6.150
 8471POPC   GL252442  42.291  26.732   6.150
 8471POPC   C1A52443  42.304  26.799   6.450
 8471POPC   D2A52444  42.361  26.810   6.750
 8471POPC   C3A52445  42.383  26.767   7.050
 8471POPC   C4A52446  42.308  26.810   7.350
 8471POPC   C1B52447  42.279  26.559   6.450
 8471POPC   C2B52448  42.243  26.579   6.750
 8471POPC   C3B52449  42.198  26.552   7.050
 8471POPC   C4B52450  42.229  26.587   7.350
 8472POPC   NC352451  33.765  29.103   5.550
 8472POPC   PO452452  33.834  29.182   5.850
 8472POPC   GL152453  33.838  29.154   6.150
 8472POPC   GL252454  33.742  29.063   6.150
 8472POPC   C1A52455  33.823  29.171   6.450
 8472POPC   D2A52456  33.761  29.121   6.750
 8472POPC   C3A52457  33.846  29.121   7.050
 8472POPC   C4A52458  33.776  29.103   7.350
 8472POPC   C1B52459  33.550  28.974   6.450
 8472POPC   C2B52460  33.569  29.013   6.750
 8472POPC   C3B52461  33.621  28.995   7.050
 8472POPC   C4B52462  33.583  29.043   7.350
 8473POPC   NC352463  34.612  26.810   5.550
 8473POPC   PO452464  34.590  26.807   5.850
 8473POPC   GL152465  34.550  26.852   6.150
 8473POPC   GL252466  34.614  26.717   6.150
 8473POPC   C1A52467  34.608  26.814   6.450
 8473POPC   D2A52468  34.574  26.783   6.750
 8473POPC   C3A52469  34.576  26.824   7.050
 8473POPC   C4A52470  34.583  26.784   7.350
 8473POPC   C1B52471  34.675  26.605   6.450
 8473POPC   C2B52472  34.700  26.600   6.750
 8473POPC   C3B52473  34.710  26.552   7.050
 8473POPC   C4B52474  34.705  26.574   7.350
 8474POPC   NC352475   9.711  21.371   5.550
 8474POPC   PO452476   9.778  21.419   5.850
 8474POPC   GL152477   9.727  21.427   6.150
 8474POPC   GL252478   9.632  21.455   6.150
 8474POPC   C1A52479   9.771  21.432   6.450
 8474POPC   D2A52480   9.775  21.380   6.750
 8474POPC   C3A52481   9.702  21.367   7.050
 8474POPC   C4A52482   9.746  21.343   7.350
 8474POPC   C1B52483   9.555  21.513   6.450
 8474POPC   C2B52484   9.602  21.596   6.750
 8474POPC   C3B52485   9.543  21.539   7.050
 8474POPC   C4B52486   9.530  21.568   7.350
 8475POPC   NC352487  40.776  30.717   5.550
 8475POPC   PO452488  40.786  30.647   5.850
 8475POPC   GL152489  40.811  30.679   6.150
 8475POPC   GL252490  40.708  30.643   6.150
 8475POPC   C1A52491  40.758  30.722   6.450
 8475POPC   D2A52492  40.737  30.653   6.750
 8475POPC   C3A52493  40.824  30.691   7.050
 8475POPC   C4A52494  40.806  30.682   7.350
 8475POPC   C1B52495  40.541  30.560   6.450
 8475POPC   C2B52496  40.626  30.530   6.750
 8475POPC   C3B52497  40.620  30.534   7.050
 8475POPC   C4B52498  40.626  30.533   7.350
 8476POPC   NC352499  11.326  20.592   5.550
 8476POPC   PO452500  11.279  20.633   5.850
 8476POPC   GL152501  11.281  20.602   6.150
 8476POPC   GL252502  11.309  20.699   6.150
 8476POPC   C1A52503  11.251  20.596   6.450
 8476POPC   D2A52504  11.253  20.629   6.750
 8476POPC   C3A52505  11.348  20.600   7.050
 8476POPC   C4A52506  11.317  20.571   7.350
 8476POPC   C1B52507  11.336  20.866   6.450
 8476POPC   C2B52508  11.376  20.817   6.750
 8476POPC   C3B52509  11.393  20.872   7.050
 8476POPC   C4B52510  11.347  20.831   7.350
 8477POPC   NC352511   8.159  44.698   5.550
 8477POPC   PO452512   8.182  44.641   5.850
 8477POPC   GL152513   8.150  44.639   6.150
 8477POPC   GL252514   8.239  44.795   6.150
 8477POPC   C1A52515   8.175  44.689   6.450
 8477POPC   D2A52516   8.191  44.638   6.750
 8477POPC   C3A52517   8.206  44.624   7.050
 8477POPC   C4A52518   8.238  44.618   7.350
 8477POPC   C1B52519   8.167  44.931   6.450
 8477POPC   C2B52520   8.150  44.941   6.750
 8477POPC   C3B52521   8.200  44.907   7.050
 8477POPC   C4B52522   8.149  44.912   7.350
 8478POPC   NC352523  19.063  13.584   5.550
 8478POPC   PO452524  19.089  13.625   5.850
 8478POPC   GL152525  19.028  13.582   6.150
 8478POPC   GL252526  19.084  13.768   6.150
 8478POPC   C1A52527  19.081  13.578   6.450
 8478POPC   D2A52528  19.035  13.584   6.750
 8478POPC   C3A52529  19.103  13.654   7.050
 8478POPC   C4A52530  19.086  13.616   7.350
 8478POPC   C1B52531  19.111  13.810   6.450
 8478POPC   C2B52532  19.158  13.827   6.750
 8478POPC   C3B52533  19.173  13.892   7.050
 8478POPC   C4B52534  19.127  13.901   7.350
 8479POPC   NC352535  15.192  18.241   5.550
 8479POPC   PO452536  15.146  18.316   5.850
 8479POPC   GL152537  15.209  18.236   6.150
 8479POPC   GL252538  15.027  18.308   6.150
 8479POPC   C1A52539  15.215  18.319   6.450
 8479POPC   D2A52540  15.135  18.246   6.750
 8479POPC   C3A52541  15.190  18.312   7.050
 8479POPC   C4A52542  15.167  18.318   7.350
 8479POPC   C1B52543  14.935  18.260   6.450
 8479POPC   C2B52544  14.968  18.229   6.750
 8479POPC   C3B52545  14.956  18.240   7.050
 8479POPC   C4B52546  14.962  18.262   7.350
 8480POPC   NC352547   1.192  41.514   5.550
 8480POPC   PO452548   1.212  41.560   5.850
 8480POPC   GL152549   1.227  41.554   6.150
 8480POPC   GL252550   1.116  41.623   6.150
 8480POPC   C1A52551   1.174  41.580   6.450
 8480POPC   D2A52552   1.191  41.537   6.750
 8480POPC   C3A52553   1.186  41.515   7.050
 8480POPC   C4A52554   1.228  41.551   7.350
 8480POPC   C1B52555   1.009  41.789   6.450
 8480POPC   C2B52556   1.044  41.700   6.750
 8480POPC   C3B52557   1.058  41.729   7.050
 8480POPC   C4B52558   1.034  41.716   7.350
 8481POPC   NC352559  40.050  25.234   5.550
 8481POPC   PO452560  39.982  25.227   5.850
 8481POPC   GL152561  40.020  25.255   6.150
 8481POPC   GL252562  40.049  25.363   6.150
 8481POPC   C1A52563  40.036  25.292   6.450
 8481POPC   D2A52564  40.044  25.286   6.750
 8481POPC   C3A52565  40.022  25.250   7.050
 8481POPC   C4A52566  39.965  25.260   7.350
 8481POPC   C1B52567  40.133  25.503   6.450
 8481POPC   C2B52568  40.150  25.524   6.750
 8481POPC   C3B52569  40.182  25.507   7.050
 8481POPC   C4B52570  40.167  25.505   7.350
 8482POPC   NC352571   8.227   5.068   5.550
 8482POPC   PO452572   8.195   5.106   5.850
 8482POPC   GL152573   8.208   5.080   6.150
 8482POPC   GL252574   8.114   5.209   6.150
 8482POPC   C1A52575   8.172   5.137   6.450
 8482POPC   D2A52576   8.180   5.120   6.750
 8482POPC   C3A52577   8.201   5.069   7.050
 8482POPC   C4A52578   8.211   5.122   7.350
 8482POPC   C1B52579   8.044   5.288   6.450
 8482POPC   C2B52580   8.120   5.280   6.750
 8482POPC   C3B52581   8.051   5.344   7.050
 8482POPC   C4B52582   8.047   5.300   7.350
 8483POPC   NC352583  39.242   5.897   5.550
 8483POPC   PO452584  39.204   5.912   5.850
 8483POPC   GL152585  39.252   5.841   6.150
 8483POPC   GL252586  39.296   5.834   6.150
 8483POPC   C1A52587  39.256   5.893   6.450
 8483POPC   D2A52588  39.191   5.917   6.750
 8483POPC   C3A52589  39.259   5.862   7.050
 8483POPC   C4A52590  39.278   5.829   7.350
 8483POPC   C1B52591  39.490   5.776   6.450
 8483POPC   C2B52592  39.434   5.716   6.750
 8483POPC   C3B52593  39.451   5.714   7.050
 8483POPC   C4B52594  39.462   5.699   7.350
 8484POPC   NC352595  31.442  17.480   5.550
 8484POPC   PO452596  31.437  17.527   5.850
 8484POPC   GL152597  31.515  17.472   6.150
 8484POPC   GL252598  31.643  17.509   6.150
 8484POPC   C1A52599  31.509  17.483   6.450
 8484POPC   D2A52600  31.461  17.552   6.750
 8484POPC   C3A52601  31.474  17.529   7.050
 8484POPC   C4A52602  31.427  17.467   7.350
 8484POPC   C1B52603  31.674  17.486   6.450
 8484POPC   C2B52604  31.711  17.489   6.750
 8484POPC   C3B52605  31.704  17.502   7.050
 8484POPC   C4B52606  31.718  17.511   7.350
 8485POPC   NC352607  20.622  10.490   5.550
 8485POPC   PO452608  20.585  10.509   5.850
 8485POPC   GL152609  20.589  10.493   6.150
 8485POPC   GL252610  20.491  10.589   6.150
 8485POPC   C1A52611  20.591  10.523   6.450
 8485POPC   D2A52612  20.652  10.551   6.750
 8485POPC   C3A52613  20.579  10.486   7.050
 8485POPC   C4A52614  20.575  10.557   7.350
 8485POPC   C1B52615  20.467  10.653   6.450
 8485POPC   C2B52616  20.442  10.715   6.750
 8485POPC   C3B52617  20.469  10.679   7.050
 8485POPC   C4B52618  20.414  10.681   7.350
 8486POPC   NC352619  12.065  12.898   5.550
 8486POPC   PO452620  12.113  12.875   5.850
 8486POPC   GL152621  12.102  12.885   6.150
 8486POPC   GL252622  11.990  12.995   6.150
 8486POPC   C1A52623  12.094  12.831   6.450
 8486POPC   D2A52624  12.117  12.826   6.750
 8486POPC   C3A52625  12.113  12.850   7.050
 8486POPC   C4A52626  12.056  12.817   7.350
 8486POPC   C1B52627  11.938  13.019   6.450
 8486POPC   C2B52628  11.890  13.043   6.750
 8486POPC   C3B52629  11.895  13.006   7.050
 8486POPC   C4B52630  11.888  13.007   7.350
 8487POPC   NC352631  32.202  41.588   5.550
 8487POPC   PO452632  32.258  41.551   5.850
 8487POPC   GL152633  32.253  41.522   6.150
 8487POPC   GL252634  32.345  41.640   6.150
 8487POPC   C1A52635  32.287  41.577   6.450
 8487POPC   D2A52636  32.298  41.529   6.750
 8487POPC   C3A52637  32.279  41.563   7.050
 8487POPC   C4A52638  32.208  41.571   7.350
 8487POPC   C1B52639  32.393  41.801   6.450
 8487POPC   C2B52640  32.317  41.778   6.750
 8487POPC   C3B52641  32.369  41.763   7.050
 8487POPC   C4B52642  32.345  41.784   7.350
 8488POPC   NC352643  37.727  15.153   5.550
 8488POPC   PO452644  37.665  15.194   5.850
 8488POPC   GL152645  37.726  15.142   6.150
 8488POPC   GL252646  37.601  15.336   6.150
 8488POPC   C1A52647  37.692  15.220   6.450
 8488POPC   D2A52648  37.699  15.210   6.750
 8488POPC   C3A52649  37.713  15.156   7.050
 8488POPC   C4A52650  37.710  15.223   7.350
 8488POPC   C1B52651  37.609  15.426   6.450
 8488POPC   C2B52652  37.574  15.431   6.750
 8488POPC   C3B52653  37.529  15.423   7.050
 8488POPC   C4B52654  37.560  15.413   7.350
 8489POPC   NC352655  38.481  37.695   5.550
 8489POPC   PO452656  38.444  37.723   5.850
 8489POPC   GL152657  38.407  37.704   6.150
 8489POPC   GL252658  38.525  37.567   6.150
 8489POPC   C1A52659  38.493  37.635   6.450
 8489POPC   D2A52660  38.409  37.637   6.750
 8489POPC   C3A52661  38.423  37.644   7.050
 8489POPC   C4A52662  38.434  37.692   7.350
 8489POPC   C1B52663  38.639  37.518   6.450
 8489POPC   C2B52664  38.627  37.456   6.750
 8489POPC   C3B52665  38.649  37.485   7.050
 8489POPC   C4B52666  38.578  37.493   7.350
 8490POPC   NC352667  38.425  39.967   5.550
 8490POPC   PO452668  38.491  39.971   5.850
 8490POPC   GL152669  38.444  39.963   6.150
 8490POPC   GL252670  38.283  40.003   6.150
 8490POPC   C1A52671  38.415  40.046   6.450
 8490POPC   D2A52672  38.405  40.033   6.750
 8490POPC   C3A52673  38.504  40.051   7.050
 8490POPC   C4A52674  38.419  39.971   7.350
 8490POPC   C1B52675  38.174  39.979   6.450
 8490POPC   C2B52676  38.248  40.053   6.750
 8490POPC   C3B52677  38.211  40.068   7.050
 8490POPC   C4B52678  38.185  39.982   7.350
 8491POPC   NC352679  13.665  23.667   5.550
 8491POPC   PO452680  13.666  23.710   5.850
 8491POPC   GL152681  13.619  23.701   6.150
 8491POPC   GL252682  13.737  23.672   6.150
 8491POPC   C1A52683  13.602  23.712   6.450
 8491POPC   D2A52684  13.605  23.741   6.750
 8491POPC   C3A52685  13.617  23.729   7.050
 8491POPC   C4A52686  13.651  23.673   7.350
 8491POPC   C1B52687  13.882  23.619   6.450
 8491POPC   C2B52688  13.858  23.606   6.750
 8491POPC   C3B52689  13.825  23.639   7.050
 8491POPC   C4B52690  13.869  23.624   7.350
 8492POPC   NC352691  33.825   3.509   5.550
 8492POPC   PO452692  33.768   3.522   5.850
 8492POPC   GL152693  33.765   3.567   6.150
 8492POPC   GL252694  33.881   3.453   6.150
 8492POPC   C1A52695  33.769   3.562   6.450
 8492POPC   D2A52696  33.757   3.512   6.750
 8492POPC   C3A52697  33.845   3.552   7.050
 8492POPC   C4A52698  33.814   3.518   7.350
 8492POPC   C1B52699  33.889   3.305   6.450
 8492POPC   C2B52700  33.935   3.269   6.750
 8492POPC   C3B52701  33.905   3.282   7.050
 8492POPC   C4B52702  33.896   3.349   7.350
 8493POPC   NC352703   9.744  25.256   5.550
 8493POPC   PO452704   9.752  25.301   5.850
 8493POPC   GL152705   9.745  25.308   6.150
 8493POPC   GL252706   9.625  25.295   6.150
 8493POPC   C1A52707   9.719  25.216   6.450
 8493POPC   D2A52708   9.780  25.256   6.750
 8493POPC   C3A52709   9.795  25.231   7.050
 8493POPC   C4A52710   9.782  25.311   7.350
 8493POPC   C1B52711   9.472  25.297   6.450
 8493POPC   C2B52712   9.449  25.248   6.750
 8493POPC   C3B52713   9.528  25.310   7.050
 8493POPC   C4B52714   9.480  25.254   7.350
 8494POPC   NC352715   0.398  27.617   5.550
 8494POPC   PO452716   0.463  27.582   5.850
 8494POPC   GL152717   0.415  27.599   6.150
 8494POPC   GL252718   0.536  27.670   6.150
 8494POPC   C1A52719   0.458  27.635   6.450
 8494POPC   D2A52720   0.403  27.571   6.750
 8494POPC   C3A52721   0.476  27.546   7.050
 8494POPC   C4A52722   0.478  27.588   7.350
 8494POPC   C1B52723   0.709  27.689   6.450
 8494POPC   C2B52724   0.656  27.643   6.750
 8494POPC   C3B52725   0.626  27.714   7.050
 8494POPC   C4B52726   0.647  27.644   7.350
 8495POPC   NC352727   8.965   3.567   5.550
 8495POPC   PO452728   8.942   3.531   5.850
 8495POPC   GL152729   9.007   3.507   6.150
 8495POPC   GL252730   8.938   3.645   6.150
 8495POPC   C1A52731   9.014   3.542   6.450
 8495POPC   D2A52732   8.954   3.554   6.750
 8495POPC   C3A52733   9.005   3.567   7.050
 8495POPC   C4A52734   9.001   3.548   7.350
 8495POPC   C1B52735   9.009   3.841   6.450
 8495POPC   C2B52736   8.961   3.815   6.750
 8495POPC   C3B52737   8.965   3.798   7.050
 8495POPC   C4B52738   8.941   3.801   7.350
 8496POPC   NC352739  12.824   4.326   5.550
 8496POPC   PO452740  12.891   4.298   5.850
 8496POPC   GL152741  12.845   4.355   6.150
 8496POPC   GL252742  12.949   4.257   6.150
 8496POPC   C1A52743  12.883   4.318   6.450
 8496POPC   D2A52744  12.805   4.333   6.750
 8496POPC   C3A52745  12.886   4.301   7.050
 8496POPC   C4A52746  12.852   4.295   7.350
 8496POPC   C1B52747  13.065   4.132   6.450
 8496POPC   C2B52748  13.079   4.118   6.750
 8496POPC   C3B52749  13.071   4.178   7.050
 8496POPC   C4B52750  13.061   4.183   7.350
 8497POPC   NC352751  26.777  39.209   5.550
 8497POPC   PO452752  26.793  39.275   5.850
 8497POPC   GL152753  26.859  39.268   6.150
 8497POPC   GL252754  26.718  39.108   6.150
 8497POPC   C1A52755  26.775  39.202   6.450
 8497POPC   D2A52756  26.803  39.221   6.750
 8497POPC   C3A52757  26.804  39.213   7.050
 8497POPC   C4A52758  26.855  39.268   7.350
 8497POPC   C1B52759  26.685  39.071   6.450
 8497POPC   C2B52760  26.631  39.011   6.750
 8497POPC   C3B52761  26.655  39.085   7.050
 8497POPC   C4B52762  26.644  39.053   7.350
 8498POPC   NC352763  24.458  35.334   5.550
 8498POPC   PO452764  24.511  35.319   5.850
 8498POPC   GL152765  24.513  35.303   6.150
 8498POPC   GL252766  24.373  35.340   6.150
 8498POPC   C1A52767  24.460  35.304   6.450
 8498POPC   D2A52768  24.509  35.323   6.750
 8498POPC   C3A52769  24.504  35.331   7.050
 8498POPC   C4A52770  24.508  35.334   7.350
 8498POPC   C1B52771  24.218  35.399   6.450
 8498POPC   C2B52772  24.278  35.455   6.750
 8498POPC   C3B52773  24.220  35.399   7.050
 8498POPC   C4B52774  24.254  35.438   7.350
 8499POPC   NC352775  18.254  36.159   5.550
 8499POPC   PO452776  18.321  36.152   5.850
 8499POPC   GL152777  18.301  36.134   6.150
 8499POPC   GL252778  18.172  36.045   6.150
 8499POPC   C1A52779  18.299  36.165   6.450
 8499POPC   D2A52780  18.321  36.176   6.750
 8499POPC   C3A52781  18.251  36.123   7.050
 8499POPC   C4A52782  18.235  36.167   7.350
 8499POPC   C1B52783  18.075  35.984   6.450
 8499POPC   C2B52784  18.068  35.992   6.750
 8499POPC   C3B52785  18.108  35.998   7.050
 8499POPC   C4B52786  18.137  35.943   7.350
 8500POPC   NC352787  12.067  30.661   5.550
 8500POPC   PO452788  12.065  30.697   5.850
 8500POPC   GL152789  12.045  30.651   6.150
 8500POPC   GL252790  11.949  30.619   6.150
 8500POPC   C1A52791  12.113  30.699   6.450
 8500POPC   D2A52792  12.043  30.648   6.750
 8500POPC   C3A52793  12.074  30.652   7.050
 8500POPC   C4A52794  12.076  30.738   7.350
 8500POPC   C1B52795  11.913  30.510   6.450
 8500POPC   C2B52796  11.936  30.510   6.750
 8500POPC   C3B52797  11.910  30.473   7.050
 8500POPC   C4B52798  11.931  30.547   7.350
 8501POPC   NC352799   0.452  36.175   5.550
 8501POPC   PO452800   0.424  36.090   5.850
 8501POPC   GL152801   0.408  36.104   6.150
 8501POPC   GL252802   0.567  36.056   6.150
 8501POPC   C1A52803   0.418  36.106   6.450
 8501POPC   D2A52804   0.412  36.100   6.750
 8501POPC   C3A52805   0.470  36.091   7.050
 8501POPC   C4A52806   0.418  36.175   7.350
 8501POPC   C1B52807   0.705  36.111   6.450
 8501POPC   C2B52808   0.690  36.122   6.750
 8501POPC   C3B52809   0.678  36.075   7.050
 8501POPC   C4B52810   0.717  36.108   7.350
 8502POPC   NC352811  11.318  22.178   5.550
 8502POPC   PO452812  11.320  22.158   5.850
 8502POPC   GL152813  11.284  22.146   6.150
 8502POPC   GL252814  11.381  22.082   6.150
 8502POPC   C1A52815  11.323  22.153   6.450
 8502POPC   D2A52816  11.272  22.127   6.750
 8502POPC   C3A52817  11.311  22.202   7.050
 8502POPC   C4A52818  11.286  22.189   7.350
 8502POPC   C1B52819  11.499  22.040   6.450
 8502POPC   C2B52820  11.460  22.013   6.750
 8502POPC   C3B52821  11.445  22.020   7.050
 8502POPC   C4B52822  11.501  21.978   7.350
 8503POPC   NC352823  36.168  27.606   5.550
 8503POPC   PO452824  36.165  27.565   5.850
 8503POPC   GL152825  36.138  27.553   6.150
 8503POPC   GL252826  36.129  27.424   6.150
 8503POPC   C1A52827  36.080  27.569   6.450
 8503POPC   D2A52828  36.126  27.557   6.750
 8503POPC   C3A52829  36.160  27.574   7.050
 8503POPC   C4A52830  36.172  27.568   7.350
 8503POPC   C1B52831  36.091  27.304   6.450
 8503POPC   C2B52832  36.043  27.392   6.750
 8503POPC   C3B52833  36.041  27.308   7.050
 8503POPC   C4B52834  36.114  27.328   7.350
 8504POPC   NC352835  13.592  33.846   5.550
 8504POPC   PO452836  13.638  33.791   5.850
 8504POPC   GL152837  13.601  33.753   6.150
 8504POPC   GL252838  13.551  33.781   6.150
 8504POPC   C1A52839  13.673  33.832   6.450
 8504POPC   D2A52840  13.612  33.846   6.750
 8504POPC   C3A52841  13.667  33.785   7.050
 8504POPC   C4A52842  13.581  33.801   7.350
 8504POPC   C1B52843  13.357  33.700   6.450
 8504POPC   C2B52844  13.354  33.729   6.750
 8504POPC   C3B52845  13.382  33.725   7.050
 8504POPC   C4B52846  13.432  33.754   7.350
 8505POPC   NC352847   5.126  36.895   5.550
 8505POPC   PO452848   5.083  36.860   5.850
 8505POPC   GL152849   5.049  36.872   6.150
 8505POPC   GL252850   5.144  37.003   6.150
 8505POPC   C1A52851   5.055  36.861   6.450
 8505POPC   D2A52852   5.134  36.885   6.750
 8505POPC   C3A52853   5.125  36.929   7.050
 8505POPC   C4A52854   5.090  36.879   7.350
 8505POPC   C1B52855   5.197  37.142   6.450
 8505POPC   C2B52856   5.247  37.118   6.750
 8505POPC   C3B52857   5.285  37.076   7.050
 8505POPC   C4B52858   5.230  37.158   7.350
 8506POPC   NC352859   9.732  30.699   5.550
 8506POPC   PO452860   9.728  30.737   5.850
 8506POPC   GL152861   9.788  30.745   6.150
 8506POPC   GL252862   9.698  30.779   6.150
 8506POPC   C1A52863   9.775  30.740   6.450
 8506POPC   D2A52864   9.778  30.709   6.750
 8506POPC   C3A52865   9.785  30.728   7.050
 8506POPC   C4A52866   9.760  30.745   7.350
 8506POPC   C1B52867   9.673  30.928   6.450
 8506POPC   C2B52868   9.703  30.899   6.750
 8506POPC   C3B52869   9.700  30.983   7.050
 8506POPC   C4B52870   9.707  30.920   7.350
 8507POPC   NC352871   1.228   6.606   5.550
 8507POPC   PO452872   1.234   6.681   5.850
 8507POPC   GL152873   1.173   6.633   6.150
 8507POPC   GL252874   1.260   6.513   6.150
 8507POPC   C1A52875   1.199   6.676   6.450
 8507POPC   D2A52876   1.249   6.693   6.750
 8507POPC   C3A52877   1.208   6.603   7.050
 8507POPC   C4A52878   1.178   6.693   7.350
 8507POPC   C1B52879   1.303   6.368   6.450
 8507POPC   C2B52880   1.214   6.436   6.750
 8507POPC   C3B52881   1.309   6.431   7.050
 8507POPC   C4B52882   1.258   6.429   7.350
 8508POPC   NC352883  26.862  15.158   5.550
 8508POPC   PO452884  26.841  15.133   5.850
 8508POPC   GL152885  26.792  15.157   6.150
 8508POPC   GL252886  26.947  15.208   6.150
 8508POPC   C1A52887  26.839  15.166   6.450
 8508POPC   D2A52888  26.811  15.205   6.750
 8508POPC   C3A52889  26.865  15.185   7.050
 8508POPC   C4A52890  26.864  15.229   7.350
 8508POPC   C1B52891  27.055  15.169   6.450
 8508POPC   C2B52892  27.087  15.144   6.750
 8508POPC   C3B52893  27.073  15.158   7.050
 8508POPC   C4B52894  27.041  15.226   7.350
 8509POPC   NC352895   1.185   1.968   5.550
 8509POPC   PO452896   1.221   1.984   5.850
 8509POPC   GL152897   1.218   2.018   6.150
 8509POPC   GL252898   1.077   1.923   6.150
 8509POPC   C1A52899   1.185   2.027   6.450
 8509POPC   D2A52900   1.174   1.988   6.750
 8509POPC   C3A52901   1.251   2.010   7.050
 8509POPC   C4A52902   1.165   2.000   7.350
 8509POPC   C1B52903   0.989   1.910   6.450
 8509POPC   C2B52904   0.993   1.933   6.750
 8509POPC   C3B52905   0.983   1.913   7.050
 8509POPC   C4B52906   0.937   1.924   7.350
 8510POPC   NC352907  13.661  41.524   5.550
 8510POPC   PO452908  13.633  41.543   5.850
 8510POPC   GL152909  13.592  41.561   6.150
 8510POPC   GL252910  13.622  41.406   6.150
 8510POPC   C1A52911  13.602  41.536   6.450
 8510POPC   D2A52912  13.677  41.558   6.750
 8510POPC   C3A52913  13.657  41.597   7.050
 8510POPC   C4A52914  13.649  41.566   7.350
 8510POPC   C1B52915  13.629  41.286   6.450
 8510POPC   C2B52916  13.563  41.297   6.750
 8510POPC   C3B52917  13.590  41.350   7.050
 8510POPC   C4B52918  13.598  41.343   7.350
 8511POPC   NC352919   2.753  33.756   5.550
 8511POPC   PO452920   2.735  33.799   5.850
 8511POPC   GL152921   2.778  33.840   6.150
 8511POPC   GL252922   2.784  33.719   6.150
 8511POPC   C1A52923   2.740  33.846   6.450
 8511POPC   D2A52924   2.766  33.814   6.750
 8511POPC   C3A52925   2.718  33.846   7.050
 8511POPC   C4A52926   2.773  33.805   7.350
 8511POPC   C1B52927   2.868  33.633   6.450
 8511POPC   C2B52928   2.900  33.570   6.750
 8511POPC   C3B52929   2.887  33.561   7.050
 8511POPC   C4B52930   2.847  33.615   7.350
 8512POPC   NC352931  40.777   3.578   5.550
 8512POPC   PO452932  40.802   3.546   5.850
 8512POPC   GL152933  40.753   3.512   6.150
 8512POPC   GL252934  40.831   3.468   6.150
 8512POPC   C1A52935  40.820   3.581   6.450
 8512POPC   D2A52936  40.806   3.520   6.750
 8512POPC   C3A52937  40.795   3.519   7.050
 8512POPC   C4A52938  40.758   3.504   7.350
 8512POPC   C1B52939  40.875   3.269   6.450
 8512POPC   C2B52940  40.836   3.353   6.750
 8512POPC   C3B52941  40.911   3.268   7.050
 8512POPC   C4B52942  40.827   3.327   7.350
 8513POPC   NC352943   1.971  25.276   5.550
 8513POPC   PO452944   2.018  25.301   5.850
 8513POPC   GL152945   1.988  25.241   6.150
 8513POPC   GL252946   2.047  25.157   6.150
 8513POPC   C1A52947   2.028  25.247   6.450
 8513POPC   D2A52948   1.996  25.305   6.750
 8513POPC   C3A52949   1.959  25.301   7.050
 8513POPC   C4A52950   2.035  25.249   7.350
 8513POPC   C1B52951   2.128  25.062   6.450
 8513POPC   C2B52952   2.140  25.068   6.750
 8513POPC   C3B52953   2.144  25.107   7.050
 8513POPC   C4B52954   2.206  25.093   7.350
 8514POPC   NC352955  26.089  18.280   5.550
 8514POPC   PO452956  26.020  18.327   5.850
 8514POPC   GL152957  26.014  18.272   6.150
 8514POPC   GL252958  26.020  18.379   6.150
 8514POPC   C1A52959  26.089  18.289   6.450
 8514POPC   D2A52960  26.016  18.240   6.750
 8514POPC   C3A52961  26.036  18.248   7.050
 8514POPC   C4A52962  26.018  18.317   7.350
 8514POPC   C1B52963  26.124  18.504   6.450
 8514POPC   C2B52964  26.112  18.542   6.750
 8514POPC   C3B52965  26.038  18.542   7.050
 8514POPC   C4B52966  26.127  18.543   7.350
 8515POPC   NC352967  41.596  26.853   5.550
 8515POPC   PO452968  41.551  26.785   5.850
 8515POPC   GL152969  41.542  26.858   6.150
 8515POPC   GL252970  41.419  26.740   6.150
 8515POPC   C1A52971  41.527  26.821   6.450
 8515POPC   D2A52972  41.554  26.781   6.750
 8515POPC   C3A52973  41.578  26.808   7.050
 8515POPC   C4A52974  41.520  26.803   7.350
 8515POPC   C1B52975  41.292  26.708   6.450
 8515POPC   C2B52976  41.308  26.742   6.750
 8515POPC   C3B52977  41.358  26.702   7.050
 8515POPC   C4B52978  41.364  26.733   7.350
 8516POPC   NC352979  44.638  20.589   5.550
 8516POPC   PO452980  44.644  20.628   5.850
 8516POPC   GL152981  44.641  20.647   6.150
 8516POPC   GL252982  44.580  20.506   6.150
 8516POPC   C1A52983  44.635  20.635   6.450
 8516POPC   D2A52984  44.689  20.576   6.750
 8516POPC   C3A52985  44.707  20.627   7.050
 8516POPC   C4A52986  44.684  20.617   7.350
 8516POPC   C1B52987  44.475  20.439   6.450
 8516POPC   C2B52988  44.505  20.426   6.750
 8516POPC   C3B52989  44.547  20.389   7.050
 8516POPC   C4B52990  44.469  20.423   7.350
 8517POPC   NC352991  21.409  23.683   5.550
 8517POPC   PO452992  21.429  23.691   5.850
 8517POPC   GL152993  21.383  23.749   6.150
 8517POPC   GL252994  21.539  23.702   6.150
 8517POPC   C1A52995  21.397  23.689   6.450
 8517POPC   D2A52996  21.404  23.738   6.750
 8517POPC   C3A52997  21.420  23.701   7.050
 8517POPC   C4A52998  21.390  23.720   7.350
 8517POPC   C1B52999  21.613  23.676   6.450
 8517POPC   C2B53000  21.670  23.622   6.750
 8517POPC   C3B53001  21.600  23.632   7.050
 8517POPC   C4B53002  21.659  23.580   7.350
 8518POPC   NC353003  35.311  17.498   5.550
 8518POPC   PO453004  35.372  17.468   5.850
 8518POPC   GL153005  35.391  17.500   6.150
 8518POPC   GL253006  35.368  17.433   6.150
 8518POPC   C1A53007  35.359  17.502   6.450
 8518POPC   D2A53008  35.367  17.505   6.750
 8518POPC   C3A53009  35.387  17.489   7.050
 8518POPC   C4A53010  35.353  17.499   7.350
 8518POPC   C1B53011  35.428  17.292   6.450
 8518POPC   C2B53012  35.472  17.248   6.750
 8518POPC   C3B53013  35.486  17.264   7.050
 8518POPC   C4B53014  35.464  17.260   7.350
 8519POPC   NC353015  23.762  18.252   5.550
 8519POPC   PO453016  23.760  18.316   5.850
 8519POPC   GL153017  23.706  18.288   6.150
 8519POPC   GL253018  23.780  18.279   6.150
 8519POPC   C1A53019  23.703  18.305   6.450
 8519POPC   D2A53020  23.688  18.254   6.750
 8519POPC   C3A53021  23.713  18.305   7.050
 8519POPC   C4A53022  23.718  18.303   7.350
 8519POPC   C1B53023  23.950  18.167   6.450
 8519POPC   C2B53024  23.950  18.154   6.750
 8519POPC   C3B53025  23.990  18.173   7.050
 8519POPC   C4B53026  23.953  18.222   7.350
 8520POPC   NC353027  17.523  36.107   5.550
 8520POPC   PO453028  17.556  36.131   5.850
 8520POPC   GL153029  17.479  36.085   6.150
 8520POPC   GL253030  17.533  36.251   6.150
 8520POPC   C1A53031  17.530  36.108   6.450
 8520POPC   D2A53032  17.469  36.097   6.750
 8520POPC   C3A53033  17.503  36.175   7.050
 8520POPC   C4A53034  17.502  36.145   7.350
 8520POPC   C1B53035  17.689  36.338   6.450
 8520POPC   C2B53036  17.617  36.323   6.750
 8520POPC   C3B53037  17.662  36.293   7.050
 8520POPC   C4B53038  17.623  36.310   7.350
 8521POPC   NC353039  17.533  39.253   5.550
 8521POPC   PO453040  17.504  39.222   5.850
 8521POPC   GL153041  17.555  39.231   6.150
 8521POPC   GL253042  17.520  39.316   6.150
 8521POPC   C1A53043  17.533  39.205   6.450
 8521POPC   D2A53044  17.502  39.234   6.750
 8521POPC   C3A53045  17.515  39.204   7.050
 8521POPC   C4A53046  17.473  39.226   7.350
 8521POPC   C1B53047  17.532  39.431   6.450
 8521POPC   C2B53048  17.474  39.517   6.750
 8521POPC   C3B53049  17.450  39.494   7.050
 8521POPC   C4B53050  17.479  39.451   7.350
 8522POPC   NC353051  43.853  42.343   5.550
 8522POPC   PO453052  43.913  42.354   5.850
 8522POPC   GL153053  43.901  42.374   6.150
 8522POPC   GL253054  43.758  42.349   6.150
 8522POPC   C1A53055  43.856  42.350   6.450
 8522POPC   D2A53056  43.889  42.343   6.750
 8522POPC   C3A53057  43.874  42.345   7.050
 8522POPC   C4A53058  43.894  42.356   7.350
 8522POPC   C1B53059  43.654  42.438   6.450
 8522POPC   C2B53060  43.689  42.460   6.750
 8522POPC   C3B53061  43.633  42.482   7.050
 8522POPC   C4B53062  43.673  42.457   7.350
 8523POPC   NC353063   8.195  25.998   5.550
 8523POPC   PO453064   8.228  26.073   5.850
 8523POPC   GL153065   8.184  26.029   6.150
 8523POPC   GL253066   8.361  26.117   6.150
 8523POPC   C1A53067   8.171  26.025   6.450
 8523POPC   D2A53068   8.158  26.082   6.750
 8523POPC   C3A53069   8.228  25.995   7.050
 8523POPC   C4A53070   8.191  26.002   7.350
 8523POPC   C1B53071   8.439  26.060   6.450
 8523POPC   C2B53072   8.450  26.135   6.750
 8523POPC   C3B53073   8.434  26.096   7.050
 8523POPC   C4B53074   8.483  26.055   7.350
 8524POPC   NC353075   5.822   0.450   5.550
 8524POPC   PO453076   5.847   0.398   5.850
 8524POPC   GL153077   5.889   0.442   6.150
 8524POPC   GL253078   5.976   0.451   6.150
 8524POPC   C1A53079   5.833   0.453   6.450
 8524POPC   D2A53080   5.839   0.398   6.750
 8524POPC   C3A53081   5.856   0.414   7.050
 8524POPC   C4A53082   5.847   0.488   7.350
 8524POPC   C1B53083   6.120   0.409   6.450
 8524POPC   C2B53084   6.075   0.476   6.750
 8524POPC   C3B53085   6.108   0.480   7.050
 8524POPC   C4B53086   6.091   0.447   7.350
 8525POPC   NC353087  37.692   5.126   5.550
 8525POPC   PO453088  37.700   5.111   5.850
 8525POPC   GL153089  37.728   5.116   6.150
 8525POPC   GL253090  37.686   5.261   6.150
 8525POPC   C1A53091  37.691   5.120   6.450
 8525POPC   D2A53092  37.703   5.054   6.750
 8525POPC   C3A53093  37.715   5.105   7.050
 8525POPC   C4A53094  37.687   5.115   7.350
 8525POPC   C1B53095  37.705   5.310   6.450
 8525POPC   C2B53096  37.683   5.365   6.750
 8525POPC   C3B53097  37.651   5.382   7.050
 8525POPC   C4B53098  37.639   5.368   7.350
 8526POPC   NC353099   5.065  14.437   5.550
 8526POPC   PO453100   5.117  14.369   5.850
 8526POPC   GL153101   5.061  14.418   6.150
 8526POPC   GL253102   5.069  14.518   6.150
 8526POPC   C1A53103   5.077  14.445   6.450
 8526POPC   D2A53104   5.100  14.384   6.750
 8526POPC   C3A53105   5.072  14.355   7.050
 8526POPC   C4A53106   5.112  14.421   7.350
 8526POPC   C1B53107   5.008  14.621   6.450
 8526POPC   C2B53108   4.950  14.599   6.750
 8526POPC   C3B53109   4.959  14.611   7.050
 8526POPC   C4B53110   4.959  14.607   7.350
 8527POPC   NC353111  10.509  38.504   5.550
 8527POPC   PO453112  10.510  38.475   5.850
 8527POPC   GL153113  10.569  38.427   6.150
 8527POPC   GL253114  10.675  38.500   6.150
 8527POPC   C1A53115  10.485  38.438   6.450
 8527POPC   D2A53116  10.478  38.423   6.750
 8527POPC   C3A53117  10.531  38.417   7.050
 8527POPC   C4A53118  10.476  38.483   7.350
 8527POPC   C1B53119  10.792  38.488   6.450
 8527POPC   C2B53120  10.782  38.507   6.750
 8527POPC   C3B53121  10.805  38.517   7.050
 8527POPC   C4B53122  10.800  38.535   7.350
 8528POPC   NC353123  19.816  17.474   5.550
 8528POPC   PO453124  19.802  17.552   5.850
 8528POPC   GL153125  19.829  17.540   6.150
 8528POPC   GL253126  19.865  17.664   6.150
 8528POPC   C1A53127  19.862  17.483   6.450
 8528POPC   D2A53128  19.816  17.502   6.750
 8528POPC   C3A53129  19.870  17.516   7.050
 8528POPC   C4A53130  19.850  17.526   7.350
 8528POPC   C1B53131  19.886  17.769   6.450
 8528POPC   C2B53132  19.884  17.798   6.750
 8528POPC   C3B53133  19.830  17.742   7.050
 8528POPC   C4B53134  19.884  17.717   7.350
 8529POPC   NC353135   8.203  33.849   5.550
 8529POPC   PO453136   8.157  33.814   5.850
 8529POPC   GL153137   8.165  33.804   6.150
 8529POPC   GL253138   8.366  33.810   6.150
 8529POPC   C1A53139   8.229  33.812   6.450
 8529POPC   D2A53140   8.196  33.764   6.750
 8529POPC   C3A53141   8.176  33.782   7.050
 8529POPC   C4A53142   8.183  33.776   7.350
 8529POPC   C1B53143   8.428  33.850   6.450
 8529POPC   C2B53144   8.478  33.850   6.750
 8529POPC   C3B53145   8.442  33.842   7.050
 8529POPC   C4B53146   8.406  33.877   7.350
 8530POPC   NC353147  34.569   9.743   5.550
 8530POPC   PO453148  34.609   9.728   5.850
 8530POPC   GL153149  34.556   9.734   6.150
 8530POPC   GL253150  34.722   9.762   6.150
 8530POPC   C1A53151  34.584   9.756   6.450
 8530POPC   D2A53152  34.579   9.786   6.750
 8530POPC   C3A53153  34.624   9.716   7.050
 8530POPC   C4A53154  34.620   9.716   7.350
 8530POPC   C1B53155  34.826   9.816   6.450
 8530POPC   C2B53156  34.781   9.831   6.750
 8530POPC   C3B53157  34.849   9.807   7.050
 8530POPC   C4B53158  34.773   9.853   7.350
 8531POPC   NC353159  40.039  14.433   5.550
 8531POPC   PO453160  39.999  14.414   5.850
 8531POPC   GL153161  39.967  14.397   6.150
 8531POPC   GL253162  40.006  14.259   6.150
 8531POPC   C1A53163  40.001  14.425   6.450
 8531POPC   D2A53164  40.009  14.441   6.750
 8531POPC   C3A53165  39.984  14.436   7.050
 8531POPC   C4A53166  39.964  14.386   7.350
 8531POPC   C1B53167  40.003  14.133   6.450
 8531POPC   C2B53168  40.079  14.189   6.750
 8531POPC   C3B53169  40.028  14.205   7.050
 8531POPC   C4B53170  40.086  14.176   7.350
 8532POPC   NC353171  43.874  22.937   5.550
 8532POPC   PO453172  43.892  22.972   5.850
 8532POPC   GL153173  43.921  22.969   6.150
 8532POPC   GL253174  43.819  22.953   6.150
 8532POPC   C1A53175  43.851  22.908   6.450
 8532POPC   D2A53176  43.841  22.924   6.750
 8532POPC   C3A53177  43.925  22.956   7.050
 8532POPC   C4A53178  43.905  22.972   7.350
 8532POPC   C1B53179  43.635  23.043   6.450
 8532POPC   C2B53180  43.674  23.022   6.750
 8532POPC   C3B53181  43.658  23.013   7.050
 8532POPC   C4B53182  43.610  23.052   7.350
 8533POPC   NC353183   3.571  14.398   5.550
 8533POPC   PO453184   3.578  14.410   5.850
 8533POPC   GL153185   3.526  14.426   6.150
 8533POPC   GL253186   3.419  14.367   6.150
 8533POPC   C1A53187   3.550  14.446   6.450
 8533POPC   D2A53188   3.530  14.404   6.750
 8533POPC   C3A53189   3.579  14.440   7.050
 8533POPC   C4A53190   3.582  14.438   7.350
 8533POPC   C1B53191   3.294  14.391   6.450
 8533POPC   C2B53192   3.260  14.394   6.750
 8533POPC   C3B53193   3.299  14.351   7.050
 8533POPC   C4B53194   3.330  14.383   7.350
 8534POPC   NC353195  20.644   4.303   5.550
 8534POPC   PO453196  20.640   4.273   5.850
 8534POPC   GL153197  20.605   4.354   6.150
 8534POPC   GL253198  20.696   4.227   6.150
 8534POPC   C1A53199  20.605   4.306   6.450
 8534POPC   D2A53200  20.642   4.327   6.750
 8534POPC   C3A53201  20.617   4.359   7.050
 8534POPC   C4A53202  20.657   4.293   7.350
 8534POPC   C1B53203  20.814   4.191   6.450
 8534POPC   C2B53204  20.800   4.103   6.750
 8534POPC   C3B53205  20.823   4.128   7.050
 8534POPC   C4B53206  20.842   4.124   7.350
 8535POPC   NC353207  22.957  36.882   5.550
 8535POPC   PO453208  22.988  36.896   5.850
 8535POPC   GL153209  22.987  36.884   6.150
 8535POPC   GL253210  23.022  36.973   6.150
 8535POPC   C1A53211  22.946  36.865   6.450
 8535POPC   D2A53212  22.913  36.922   6.750
 8535POPC   C3A53213  22.920  36.913   7.050
 8535POPC   C4A53214  22.960  36.875   7.350
 8535POPC   C1B53215  23.155  37.029   6.450
 8535POPC   C2B53216  23.154  37.003   6.750
 8535POPC   C3B53217  23.197  36.960   7.050
 8535POPC   C4B53218  23.153  36.978   7.350
 8536POPC   NC353219   7.428  30.697   5.550
 8536POPC   PO453220   7.404  30.731   5.850
 8536POPC   GL153221   7.408  30.704   6.150
 8536POPC   GL253222   7.524  30.631   6.150
 8536POPC   C1A53223   7.385  30.667   6.450
 8536POPC   D2A53224   7.462  30.716   6.750
 8536POPC   C3A53225   7.445  30.665   7.050
 8536POPC   C4A53226   7.439  30.674   7.350
 8536POPC   C1B53227   7.537  30.478   6.450
 8536POPC   C2B53228   7.537  30.431   6.750
 8536POPC   C3B53229   7.499  30.463   7.050
 8536POPC   C4B53230   7.564  30.505   7.350
 8537POPC   NC353231  17.519  40.791   5.550
 8537POPC   PO453232  17.548  40.803   5.850
 8537POPC   GL153233  17.459  40.762   6.150
 8537POPC   GL253234  17.558  40.928   6.150
 8537POPC   C1A53235  17.475  40.754   6.450
 8537POPC   D2A53236  17.526  40.805   6.750
 8537POPC   C3A53237  17.511  40.739   7.050
 8537POPC   C4A53238  17.501  40.814   7.350
 8537POPC   C1B53239  17.522  40.992   6.450
 8537POPC   C2B53240  17.549  41.031   6.750
 8537POPC   C3B53241  17.493  40.997   7.050
 8537POPC   C4B53242  17.574  41.056   7.350
 8538POPC   NC353243   6.597  13.598   5.550
 8538POPC   PO453244   6.668  13.579   5.850
 8538POPC   GL153245   6.634  13.666   6.150
 8538POPC   GL253246   6.540  13.780   6.150
 8538POPC   C1A53247   6.626  13.606   6.450
 8538POPC   D2A53248   6.688  13.596   6.750
 8538POPC   C3A53249   6.694  13.648   7.050
 8538POPC   C4A53250   6.605  13.621   7.350
 8538POPC   C1B53251   6.488  13.801   6.450
 8538POPC   C2B53252   6.536  13.818   6.750
 8538POPC   C3B53253   6.493  13.817   7.050
 8538POPC   C4B53254   6.471  13.852   7.350
 8539POPC   NC353255  15.924  26.084   5.550
 8539POPC   PO453256  15.911  26.008   5.850
 8539POPC   GL153257  15.956  26.033   6.150
 8539POPC   GL253258  15.949  25.900   6.150
 8539POPC   C1A53259  16.000  26.083   6.450
 8539POPC   D2A53260  15.957  26.032   6.750
 8539POPC   C3A53261  15.917  26.031   7.050
 8539POPC   C4A53262  15.971  26.073   7.350
 8539POPC   C1B53263  15.989  25.813   6.450
 8539POPC   C2B53264  15.984  25.780   6.750
 8539POPC   C3B53265  15.898  25.841   7.050
 8539POPC   C4B53266  15.967  25.806   7.350
 8540POPC   NC353267  18.331  24.470   5.550
 8540POPC   PO453268  18.310  24.539   5.850
 8540POPC   GL153269  18.330  24.486   6.150
 8540POPC   GL253270  18.142  24.493   6.150
 8540POPC   C1A53271  18.297  24.456   6.450
 8540POPC   D2A53272  18.238  24.517   6.750
 8540POPC   C3A53273  18.261  24.505   7.050
 8540POPC   C4A53274  18.330  24.476   7.350
 8540POPC   C1B53275  18.023  24.577   6.450
 8540POPC   C2B53276  18.020  24.551   6.750
 8540POPC   C3B53277  18.016  24.589   7.050
 8540POPC   C4B53278  18.029  24.574   7.350
 8541POPC   NC353279  24.488  38.502   5.550
 8541POPC   PO453280  24.507  38.430   5.850
 8541POPC   GL153281  24.454  38.468   6.150
 8541POPC   GL253282  24.427  38.352   6.150
 8541POPC   C1A53283  24.477  38.493   6.450
 8541POPC   D2A53284  24.489  38.438   6.750
 8541POPC   C3A53285  24.492  38.433   7.050
 8541POPC   C4A53286  24.491  38.451   7.350
 8541POPC   C1B53287  24.384  38.276   6.450
 8541POPC   C2B53288  24.390  38.259   6.750
 8541POPC   C3B53289  24.392  38.272   7.050
 8541POPC   C4B53290  24.338  38.218   7.350
 8542POPC   NC353291  13.667  35.353   5.550
 8542POPC   PO453292  13.669  35.331   5.850
 8542POPC   GL153293  13.581  35.363   6.150
 8542POPC   GL253294  13.648  35.471   6.150
 8542POPC   C1A53295  13.629  35.329   6.450
 8542POPC   D2A53296  13.654  35.354   6.750
 8542POPC   C3A53297  13.590  35.316   7.050
 8542POPC   C4A53298  13.579  35.359   7.350
 8542POPC   C1B53299  13.623  35.574   6.450
 8542POPC   C2B53300  13.651  35.640   6.750
 8542POPC   C3B53301  13.633  35.565   7.050
 8542POPC   C4B53302  13.594  35.555   7.350
 8543POPC   NC353303  12.039   8.234   5.550
 8543POPC   PO453304  12.026   8.152   5.850
 8543POPC   GL153305  12.041   8.169   6.150
 8543POPC   GL253306  11.959   8.228   6.150
 8543POPC   C1A53307  12.102   8.238   6.450
 8543POPC   D2A53308  12.053   8.161   6.750
 8543POPC   C3A53309  12.092   8.165   7.050
 8543POPC   C4A53310  12.076   8.166   7.350
 8543POPC   C1B53311  11.829   8.285   6.450
 8543POPC   C2B53312  11.827   8.264   6.750
 8543POPC   C3B53313  11.805   8.206   7.050
 8543POPC   C4B53314  11.829   8.232   7.350
 8544POPC   NC353315  13.580   4.303   5.550
 8544POPC   PO453316  13.641   4.347   5.850
 8544POPC   GL153317  13.599   4.329   6.150
 8544POPC   GL253318  13.581   4.470   6.150
 8544POPC   C1A53319  13.641   4.340   6.450
 8544POPC   D2A53320  13.613   4.286   6.750
 8544POPC   C3A53321  13.628   4.280   7.050
 8544POPC   C4A53322  13.593   4.289   7.350
 8544POPC   C1B53323  13.564   4.559   6.450
 8544POPC   C2B53324  13.588   4.540   6.750
 8544POPC   C3B53325  13.643   4.609   7.050
 8544POPC   C4B53326  13.639   4.562   7.350
 8545POPC   NC353327  19.048  14.385   5.550
 8545POPC   PO453328  19.055  14.426   5.850
 8545POPC   GL153329  19.027  14.401   6.150
 8545POPC   GL253330  18.946  14.445   6.150
 8545POPC   C1A53331  19.009  14.377   6.450
 8545POPC   D2A53332  19.093  14.390   6.750
 8545POPC   C3A53333  19.070  14.391   7.050
 8545POPC   C4A53334  19.108  14.429   7.350
 8545POPC   C1B53335  18.864  14.527   6.450
 8545POPC   C2B53336  18.777  14.482   6.750
 8545POPC   C3B53337  18.843  14.507   7.050
 8545POPC   C4B53338  18.820  14.471   7.350
 8546POPC   NC353339  16.735  15.210   5.550
 8546POPC   PO453340  16.756  15.173   5.850
 8546POPC   GL153341  16.774  15.227   6.150
 8546POPC   GL253342  16.783  15.072   6.150
 8546POPC   C1A53343  16.688  15.199   6.450
 8546POPC   D2A53344  16.728  15.146   6.750
 8546POPC   C3A53345  16.708  15.163   7.050
 8546POPC   C4A53346  16.723  15.185   7.350
 8546POPC   C1B53347  16.757  14.974   6.450
 8546POPC   C2B53348  16.797  14.906   6.750
 8546POPC   C3B53349  16.816  14.958   7.050
 8546POPC   C4B53350  16.793  14.956   7.350
 8547POPC   NC353351  16.726  12.822   5.550
 8547POPC   PO453352  16.753  12.853   5.850
 8547POPC   GL153353  16.747  12.816   6.150
 8547POPC   GL253354  16.679  12.749   6.150
 8547POPC   C1A53355  16.687  12.849   6.450
 8547POPC   D2A53356  16.705  12.832   6.750
 8547POPC   C3A53357  16.765  12.811   7.050
 8547POPC   C4A53358  16.755  12.823   7.350
 8547POPC   C1B53359  16.594  12.670   6.450
 8547POPC   C2B53360  16.635  12.664   6.750
 8547POPC   C3B53361  16.648  12.631   7.050
 8547POPC   C4B53362  16.588  12.614   7.350
 8548POPC   NC353363  20.607  19.831   5.550
 8548POPC   PO453364  20.613  19.879   5.850
 8548POPC   GL153365  20.591  19.818   6.150
 8548POPC   GL253366  20.579  19.752   6.150
 8548POPC   C1A53367  20.570  19.813   6.450
 8548POPC   D2A53368  20.595  19.805   6.750
 8548POPC   C3A53369  20.645  19.790   7.050
 8548POPC   C4A53370  20.608  19.861   7.350
 8548POPC   C1B53371  20.484  19.613   6.450
 8548POPC   C2B53372  20.510  19.630   6.750
 8548POPC   C3B53373  20.444  19.657   7.050
 8548POPC   C4B53374  20.449  19.649   7.350
 8549POPC   NC353375  32.260  18.284   5.550
 8549POPC   PO453376  32.211  18.254   5.850
 8549POPC   GL153377  32.274  18.309   6.150
 8549POPC   GL253378  32.345  18.310   6.150
 8549POPC   C1A53379  32.234  18.249   6.450
 8549POPC   D2A53380  32.255  18.312   6.750
 8549POPC   C3A53381  32.258  18.246   7.050
 8549POPC   C4A53382  32.246  18.266   7.350
 8549POPC   C1B53383  32.461  18.400   6.450
 8549POPC   C2B53384  32.459  18.384   6.750
 8549POPC   C3B53385  32.488  18.437   7.050
 8549POPC   C4B53386  32.504  18.382   7.350
 8550POPC   NC353387  18.323   6.668   5.550
 8550POPC   PO453388  18.296   6.621   5.850
 8550POPC   GL153389  18.333   6.604   6.150
 8550POPC   GL253390  18.182   6.766   6.150
 8550POPC   C1A53391  18.321   6.671   6.450
 8550POPC   D2A53392  18.309   6.687   6.750
 8550POPC   C3A53393  18.300   6.635   7.050
 8550POPC   C4A53394  18.241   6.647   7.350
 8550POPC   C1B53395  18.140   6.859   6.450
 8550POPC   C2B53396  18.184   6.882   6.750
 8550POPC   C3B53397  18.181   6.837   7.050
 8550POPC   C4B53398  18.150   6.892   7.350
 8551POPC   NC353399   9.737  29.911   5.550
 8551POPC   PO453400   9.701  29.965   5.850
 8551POPC   GL153401   9.782  29.909   6.150
 8551POPC   GL253402   9.664  29.984   6.150
 8551POPC   C1A53403   9.755  29.939   6.450
 8551POPC   D2A53404   9.713  29.887   6.750
 8551POPC   C3A53405   9.705  29.960   7.050
 8551POPC   C4A53406   9.744  29.885   7.350
 8551POPC   C1B53407   9.471  29.985   6.450
 8551POPC   C2B53408   9.460  30.019   6.750
 8551POPC   C3B53409   9.509  29.988   7.050
 8551POPC   C4B53410   9.519  29.974   7.350
 8552POPC   NC353411  26.794  43.122   5.550
 8552POPC   PO453412  26.842  43.079   5.850
 8552POPC   GL153413  26.861  43.131   6.150
 8552POPC   GL253414  26.877  43.009   6.150
 8552POPC   C1A53415  26.795  43.116   6.450
 8552POPC   D2A53416  26.773  43.089   6.750
 8552POPC   C3A53417  26.817  43.083   7.050
 8552POPC   C4A53418  26.863  43.159   7.350
 8552POPC   C1B53419  27.046  42.922   6.450
 8552POPC   C2B53420  27.006  42.950   6.750
 8552POPC   C3B53421  27.059  42.976   7.050
 8552POPC   C4B53422  26.997  42.956   7.350
 8553POPC   NC353423   9.798  26.089   5.550
 8553POPC   PO453424   9.702  26.082   5.850
 8553POPC   GL153425   9.748  26.050   6.150
 8553POPC   GL253426   9.652  26.111   6.150
 8553POPC   C1A53427   9.707  26.062   6.450
 8553POPC   D2A53428   9.771  26.034   6.750
 8553POPC   C3A53429   9.720  26.037   7.050
 8553POPC   C4A53430   9.707  26.027   7.350
 8553POPC   C1B53431   9.567  26.253   6.450
 8553POPC   C2B53432   9.569  26.260   6.750
 8553POPC   C3B53433   9.554  26.227   7.050
 8553POPC   C4B53434   9.641  26.232   7.350
 8554POPC   NC353435  26.073  24.528   5.550
 8554POPC   PO453436  26.088  24.503   5.850
 8554POPC   GL153437  26.047  24.450   6.150
 8554POPC   GL253438  25.928  24.514   6.150
 8554POPC   C1A53439  25.992  24.468   6.450
 8554POPC   D2A53440  26.008  24.465   6.750
 8554POPC   C3A53441  26.016  24.447   7.050
 8554POPC   C4A53442  26.065  24.533   7.350
 8554POPC   C1B53443  25.794  24.494   6.450
 8554POPC   C2B53444  25.810  24.496   6.750
 8554POPC   C3B53445  25.808  24.464   7.050
 8554POPC   C4B53446  25.830  24.435   7.350
 8555POPC   NC353447  26.844  29.916   5.550
 8555POPC   PO453448  26.777  29.960   5.850
 8555POPC   GL153449  26.789  29.883   6.150
 8555POPC   GL253450  26.861  29.763   6.150
 8555POPC   C1A53451  26.798  29.960   6.450
 8555POPC   D2A53452  26.825  29.874   6.750
 8555POPC   C3A53453  26.842  29.911   7.050
 8555POPC   C4A53454  26.785  29.881   7.350
 8555POPC   C1B53455  26.922  29.690   6.450
 8555POPC   C2B53456  26.855  29.704   6.750
 8555POPC   C3B53457  26.839  29.651   7.050
 8555POPC   C4B53458  26.839  29.699   7.350
 8556POPC   NC353459  31.522   2.773   5.550
 8556POPC   PO453460  31.492   2.746   5.850
 8556POPC   GL153461  31.465   2.768   6.150
 8556POPC   GL253462  31.491   2.885   6.150
 8556POPC   C1A53463  31.436   2.804   6.450
 8556POPC   D2A53464  31.446   2.780   6.750
 8556POPC   C3A53465  31.496   2.800   7.050
 8556POPC   C4A53466  31.484   2.741   7.350
 8556POPC   C1B53467  31.548   3.004   6.450
 8556POPC   C2B53468  31.633   3.027   6.750
 8556POPC   C3B53469  31.542   2.954   7.050
 8556POPC   C4B53470  31.572   3.022   7.350
 8557POPC   NC353471  29.878   4.345   5.550
 8557POPC   PO453472  29.967   4.315   5.850
 8557POPC   GL153473  29.970   4.334   6.150
 8557POPC   GL253474  29.866   4.382   6.150
 8557POPC   C1A53475  29.906   4.317   6.450
 8557POPC   D2A53476  29.886   4.348   6.750
 8557POPC   C3A53477  29.914   4.354   7.050
 8557POPC   C4A53478  29.906   4.271   7.350
 8557POPC   C1B53479  29.735   4.466   6.450
 8557POPC   C2B53480  29.696   4.468   6.750
 8557POPC   C3B53481  29.700   4.484   7.050
 8557POPC   C4B53482  29.712   4.462   7.350
 8558POPC   NC353483  44.651   5.887   5.550
 8558POPC   PO453484  44.629   5.869   5.850
 8558POPC   GL153485  44.613   5.826   6.150
 8558POPC   GL253486  44.694   5.695   6.150
 8558POPC   C1A53487  44.696   5.821   6.450
 8558POPC   D2A53488  44.695   5.839   6.750
 8558POPC   C3A53489  44.657   5.878   7.050
 8558POPC   C4A53490  44.695   5.832   7.350
 8558POPC   C1B53491  44.658   5.576   6.450
 8558POPC   C2B53492  44.658   5.641   6.750
 8558POPC   C3B53493  44.689   5.627   7.050
 8558POPC   C4B53494  44.707   5.596   7.350
 8559POPC   NC353495  22.161  26.033   5.550
 8559POPC   PO453496  22.163  26.024   5.850
 8559POPC   GL153497  22.130  25.997   6.150
 8559POPC   GL253498  22.168  25.878   6.150
 8559POPC   C1A53499  22.194  26.042   6.450
 8559POPC   D2A53500  22.167  26.064   6.750
 8559POPC   C3A53501  22.169  26.082   7.050
 8559POPC   C4A53502  22.187  26.066   7.350
 8559POPC   C1B53503  22.151  25.752   6.450
 8559POPC   C2B53504  22.209  25.840   6.750
 8559POPC   C3B53505  22.142  25.823   7.050
 8559POPC   C4B53506  22.161  25.795   7.350
 8560POPC   NC353507  28.406   9.716   5.550
 8560POPC   PO453508  28.359   9.744   5.850
 8560POPC   GL153509  28.390   9.755   6.150
 8560POPC   GL253510  28.439   9.638   6.150
 8560POPC   C1A53511  28.386   9.771   6.450
 8560POPC   D2A53512  28.414   9.748   6.750
 8560POPC   C3A53513  28.344   9.701   7.050
 8560POPC   C4A53514  28.403   9.754   7.350
 8560POPC   C1B53515  28.531   9.503   6.450
 8560POPC   C2B53516  28.484   9.533   6.750
 8560POPC   C3B53517  28.504   9.532   7.050
 8560POPC   C4B53518  28.524   9.492   7.350
 8561POPC   NC353519  21.382  22.979   5.550
 8561POPC   PO453520  21.411  22.902   5.850
 8561POPC   GL153521  21.401  22.923   6.150
 8561POPC   GL253522  21.349  23.037   6.150
 8561POPC   C1A53523  21.365  22.967   6.450
 8561POPC   D2A53524  21.355  22.916   6.750
 8561POPC   C3A53525  21.413  22.964   7.050
 8561POPC   C4A53526  21.396  22.907   7.350
 8561POPC   C1B53527  21.336  23.179   6.450
 8561POPC   C2B53528  21.310  23.226   6.750
 8561POPC   C3B53529  21.273  23.202   7.050
 8561POPC   C4B53530  21.290  23.158   7.350
 8562POPC   NC353531  39.244   6.687   5.550
 8562POPC   PO453532  39.259   6.655   5.850
 8562POPC   GL153533  39.280   6.601   6.150
 8562POPC   GL253534  39.125   6.602   6.150
 8562POPC   C1A53535  39.264   6.648   6.450
 8562POPC   D2A53536  39.213   6.686   6.750
 8562POPC   C3A53537  39.273   6.627   7.050
 8562POPC   C4A53538  39.270   6.646   7.350
 8562POPC   C1B53539  39.019   6.609   6.450
 8562POPC   C2B53540  38.980   6.604   6.750
 8562POPC   C3B53541  38.942   6.590   7.050
 8562POPC   C4B53542  38.971   6.658   7.350
 8563POPC   NC353543  44.630  26.068   5.550
 8563POPC   PO453544  44.637  26.054   5.850
 8563POPC   GL153545  44.697  26.083   6.150
 8563POPC   GL253546  44.632  25.919   6.150
 8563POPC   C1A53547  44.643  26.064   6.450
 8563POPC   D2A53548  44.664  25.992   6.750
 8563POPC   C3A53549  44.697  26.075   7.050
 8563POPC   C4A53550  44.628  26.044   7.350
 8563POPC   C1B53551  44.684  25.818   6.450
 8563POPC   C2B53552  44.691  25.774   6.750
 8563POPC   C3B53553  44.646  25.756   7.050
 8563POPC   C4B53554  44.717  25.771   7.350
 8564POPC   NC353555  34.590   7.459   5.550
 8564POPC   PO453556  34.542   7.376   5.850
 8564POPC   GL153557  34.589   7.433   6.150
 8564POPC   GL253558  34.526   7.355   6.150
 8564POPC   C1A53559  34.588   7.424   6.450
 8564POPC   D2A53560  34.602   7.376   6.750
 8564POPC   C3A53561  34.603   7.411   7.050
 8564POPC   C4A53562  34.613   7.437   7.350
 8564POPC   C1B53563  34.438   7.202   6.450
 8564POPC   C2B53564  34.425   7.210   6.750
 8564POPC   C3B53565  34.369   7.221   7.050
 8564POPC   C4B53566  34.373   7.256   7.350
 8565POPC   NC353567  39.185  28.362   5.550
 8565POPC   PO453568  39.194  28.396   5.850
 8565POPC   GL153569  39.194  28.382   6.150
 8565POPC   GL253570  39.360  28.395   6.150
 8565POPC   C1A53571  39.226  28.402   6.450
 8565POPC   D2A53572  39.230  28.342   6.750
 8565POPC   C3A53573  39.252  28.332   7.050
 8565POPC   C4A53574  39.230  28.375   7.350
 8565POPC   C1B53575  39.461  28.476   6.450
 8565POPC   C2B53576  39.485  28.488   6.750
 8565POPC   C3B53577  39.429  28.540   7.050
 8565POPC   C4B53578  39.482  28.484   7.350
 8566POPC   NC353579  31.439  12.100   5.550
 8566POPC   PO453580  31.488  12.089   5.850
 8566POPC   GL153581  31.507  12.108   6.150
 8566POPC   GL253582  31.450  12.194   6.150
 8566POPC   C1A53583  31.475  12.125   6.450
 8566POPC   D2A53584  31.519  12.030   6.750
 8566POPC   C3A53585  31.446  12.027   7.050
 8566POPC   C4A53586  31.435  12.097   7.350
 8566POPC   C1B53587  31.501  12.276   6.450
 8566POPC   C2B53588  31.412  12.300   6.750
 8566POPC   C3B53589  31.455  12.332   7.050
 8566POPC   C4B53590  31.443  12.276   7.350
 8567POPC   NC353591   9.009   8.175   5.550
 8567POPC   PO453592   8.927   8.242   5.850
 8567POPC   GL153593   8.960   8.242   6.150
 8567POPC   GL253594   8.887   8.067   6.150
 8567POPC   C1A53595   9.009   8.193   6.450
 8567POPC   D2A53596   8.949   8.210   6.750
 8567POPC   C3A53597   8.935   8.235   7.050
 8567POPC   C4A53598   9.008   8.229   7.350
 8567POPC   C1B53599   8.836   8.074   6.450
 8567POPC   C2B53600   8.770   8.011   6.750
 8567POPC   C3B53601   8.794   8.059   7.050
 8567POPC   C4B53602   8.808   8.021   7.350
 8568POPC   NC353603  41.538   1.205   5.550
 8568POPC   PO453604  41.537   1.219   5.850
 8568POPC   GL153605  41.525   1.230   6.150
 8568POPC   GL253606  41.638   1.103   6.150
 8568POPC   C1A53607  41.593   1.218   6.450
 8568POPC   D2A53608  41.580   1.175   6.750
 8568POPC   C3A53609  41.575   1.248   7.050
 8568POPC   C4A53610  41.581   1.240   7.350
 8568POPC   C1B53611  41.775   1.044   6.450
 8568POPC   C2B53612  41.757   1.065   6.750
 8568POPC   C3B53613  41.781   1.034   7.050
 8568POPC   C4B53614  41.770   1.041   7.350
 8569POPC   NC353615  33.058  44.705   5.550
 8569POPC   PO453616  33.002  44.628   5.850
 8569POPC   GL153617  32.990  44.663   6.150
 8569POPC   GL253618  33.083  44.583   6.150
 8569POPC   C1A53619  33.041  44.634   6.450
 8569POPC   D2A53620  33.041  44.644   6.750
 8569POPC   C3A53621  33.057  44.667   7.050
 8569POPC   C4A53622  33.010  44.632   7.350
 8569POPC   C1B53623  33.186  44.502   6.450
 8569POPC   C2B53624  33.166  44.496   6.750
 8569POPC   C3B53625  33.193  44.504   7.050
 8569POPC   C4B53626  33.120  44.501   7.350
 8570POPC   NC353627  42.334  36.858   5.550
 8570POPC   PO453628  42.354  36.933   5.850
 8570POPC   GL153629  42.344  36.927   6.150
 8570POPC   GL253630  42.192  36.911   6.150
 8570POPC   C1A53631  42.384  36.882   6.450
 8570POPC   D2A53632  42.344  36.893   6.750
 8570POPC   C3A53633  42.315  36.934   7.050
 8570POPC   C4A53634  42.286  36.934   7.350
 8570POPC   C1B53635  42.048  36.927   6.450
 8570POPC   C2B53636  42.087  36.880   6.750
 8570POPC   C3B53637  42.048  36.880   7.050
 8570POPC   C4B53638  42.116  36.933   7.350
 8571POPC   NC353639  30.676  40.793   5.550
 8571POPC   PO453640  30.700  40.752   5.850
 8571POPC   GL153641  30.725  40.832   6.150
 8571POPC   GL253642  30.652  40.921   6.150
 8571POPC   C1A53643  30.647  40.785   6.450
 8571POPC   D2A53644  30.667  40.739   6.750
 8571POPC   C3A53645  30.741  40.828   7.050
 8571POPC   C4A53646  30.708  40.811   7.350
 8571POPC   C1B53647  30.590  41.035   6.450
 8571POPC   C2B53648  30.579  41.031   6.750
 8571POPC   C3B53649  30.648  41.020   7.050
 8571POPC   C4B53650  30.630  41.055   7.350
 8572POPC   NC353651   0.442  42.334   5.550
 8572POPC   PO453652   0.470  42.313   5.850
 8572POPC   GL153653   0.410  42.384   6.150
 8572POPC   GL253654   0.276  42.339   6.150
 8572POPC   C1A53655   0.417  42.340   6.450
 8572POPC   D2A53656   0.415  42.362   6.750
 8572POPC   C3A53657   0.453  42.378   7.050
 8572POPC   C4A53658   0.486  42.286   7.350
 8572POPC   C1B53659   0.206  42.390   6.450
 8572POPC   C2B53660   0.177  42.393   6.750
 8572POPC   C3B53661   0.209  42.344   7.050
 8572POPC   C4B53662   0.169  42.360   7.350
 8573POPC   NC353663  39.246  37.641   5.550
 8573POPC   PO453664  39.215  37.670   5.850
 8573POPC   GL153665  39.259  37.641   6.150
 8573POPC   GL253666  39.372  37.661   6.150
 8573POPC   C1A53667  39.213  37.673   6.450
 8573POPC   D2A53668  39.206  37.690   6.750
 8573POPC   C3A53669  39.208  37.656   7.050
 8573POPC   C4A53670  39.192  37.691   7.350
 8573POPC   C1B53671  39.433  37.635   6.450
 8573POPC   C2B53672  39.488  37.711   6.750
 8573POPC   C3B53673  39.497  37.695   7.050
 8573POPC   C4B53674  39.512  37.652   7.350
 8574POPC   NC353675  40.783  22.905   5.550
 8574POPC   PO453676  40.788  22.935   5.850
 8574POPC   GL153677  40.745  22.920   6.150
 8574POPC   GL253678  40.824  22.852   6.150
 8574POPC   C1A53679  40.754  22.924   6.450
 8574POPC   D2A53680  40.756  22.914   6.750
 8574POPC   C3A53681  40.801  22.977   7.050
 8574POPC   C4A53682  40.753  22.912   7.350
 8574POPC   C1B53683  40.897  22.700   6.450
 8574POPC   C2B53684  40.920  22.730   6.750
 8574POPC   C3B53685  40.899  22.725   7.050
 8574POPC   C4B53686  40.901  22.694   7.350
 8575POPC   NC353687  24.485  36.098   5.550
 8575POPC   PO453688  24.465  36.150   5.850
 8575POPC   GL153689  24.453  36.162   6.150
 8575POPC   GL253690  24.616  36.080   6.150
 8575POPC   C1A53691  24.483  36.096   6.450
 8575POPC   D2A53692  24.523  36.095   6.750
 8575POPC   C3A53693  24.538  36.146   7.050
 8575POPC   C4A53694  24.531  36.172   7.350
 8575POPC   C1B53695  24.743  36.001   6.450
 8575POPC   C2B53696  24.684  36.030   6.750
 8575POPC   C3B53697  24.681  35.996   7.050
 8575POPC   C4B53698  24.651  36.004   7.350
 8576POPC   NC353699  31.471   6.623   5.550
 8576POPC   PO453700  31.450   6.601   5.850
 8576POPC   GL153701  31.508   6.621   6.150
 8576POPC   GL253702  31.526   6.614   6.150
 8576POPC   C1A53703  31.463   6.667   6.450
 8576POPC   D2A53704  31.473   6.628   6.750
 8576POPC   C3A53705  31.520   6.649   7.050
 8576POPC   C4A53706  31.499   6.614   7.350
 8576POPC   C1B53707  31.695   6.536   6.450
 8576POPC   C2B53708  31.721   6.493   6.750
 8576POPC   C3B53709  31.683   6.533   7.050
 8576POPC   C4B53710  31.669   6.504   7.350
 8577POPC   NC353711  28.335  22.119   5.550
 8577POPC   PO453712  28.334  22.117   5.850
 8577POPC   GL153713  28.333  22.160   6.150
 8577POPC   GL253714  28.334  22.259   6.150
 8577POPC   C1A53715  28.323  22.175   6.450
 8577POPC   D2A53716  28.373  22.145   6.750
 8577POPC   C3A53717  28.354  22.203   7.050
 8577POPC   C4A53718  28.381  22.210   7.350
 8577POPC   C1B53719  28.334  22.426   6.450
 8577POPC   C2B53720  28.357  22.428   6.750
 8577POPC   C3B53721  28.334  22.382   7.050
 8577POPC   C4B53722  28.341  22.439   7.350
 8578POPC   NC353723   6.611  38.474   5.550
 8578POPC   PO453724   6.607  38.434   5.850
 8578POPC   GL153725   6.638  38.432   6.150
 8578POPC   GL253726   6.575  38.602   6.150
 8578POPC   C1A53727   6.656  38.451   6.450
 8578POPC   D2A53728   6.659  38.440   6.750
 8578POPC   C3A53729   6.599  38.426   7.050
 8578POPC   C4A53730   6.673  38.417   7.350
 8578POPC   C1B53731   6.580  38.700   6.450
 8578POPC   C2B53732   6.582  38.734   6.750
 8578POPC   C3B53733   6.585  38.750   7.050
 8578POPC   C4B53734   6.648  38.707   7.350
 8579POPC   NC353735  40.768   4.350   5.550
 8579POPC   PO453736  40.830   4.273   5.850
 8579POPC   GL153737  40.830   4.335   6.150
 8579POPC   GL253738  40.716   4.311   6.150
 8579POPC   C1A53739  40.819   4.342   6.450
 8579POPC   D2A53740  40.763   4.314   6.750
 8579POPC   C3A53741  40.736   4.334   7.050
 8579POPC   C4A53742  40.801   4.352   7.350
 8579POPC   C1B53743  40.535   4.192   6.450
 8579POPC   C2B53744  40.524   4.221   6.750
 8579POPC   C3B53745  40.538   4.168   7.050
 8579POPC   C4B53746  40.553   4.186   7.350
 8580POPC   NC353747  26.788   5.068   5.550
 8580POPC   PO453748  26.849   5.102   5.850
 8580POPC   GL153749  26.851   5.064   6.150
 8580POPC   GL253750  26.690   4.973   6.150
 8580POPC   C1A53751  26.795   5.070   6.450
 8580POPC   D2A53752  26.854   5.061   6.750
 8580POPC   C3A53753  26.826   5.064   7.050
 8580POPC   C4A53754  26.807   5.110   7.350
 8580POPC   C1B53755  26.652   4.981   6.450
 8580POPC   C2B53756  26.640   4.952   6.750
 8580POPC   C3B53757  26.640   4.937   7.050
 8580POPC   C4B53758  26.617   4.965   7.350
 8581POPC   NC353759   2.790  37.672   5.550
 8581POPC   PO453760   2.785  37.669   5.850
 8581POPC   GL153761   2.740  37.686   6.150
 8581POPC   GL253762   2.908  37.700   6.150
 8581POPC   C1A53763   2.813  37.629   6.450
 8581POPC   D2A53764   2.796  37.707   6.750
 8581POPC   C3A53765   2.728  37.685   7.050
 8581POPC   C4A53766   2.799  37.647   7.350
 8581POPC   C1B53767   3.051  37.753   6.450
 8581POPC   C2B53768   2.986  37.686   6.750
 8581POPC   C3B53769   3.002  37.725   7.050
 8581POPC   C4B53770   3.053  37.778   7.350
 8582POPC   NC353771  23.730  27.641   5.550
 8582POPC   PO453772  23.697  27.548   5.850
 8582POPC   GL153773  23.699  27.592   6.150
 8582POPC   GL253774  23.866  27.492   6.150
 8582POPC   C1A53775  23.710  27.588   6.450
 8582POPC   D2A53776  23.674  27.593   6.750
 8582POPC   C3A53777  23.694  27.593   7.050
 8582POPC   C4A53778  23.693  27.632   7.350
 8582POPC   C1B53779  23.880  27.412   6.450
 8582POPC   C2B53780  23.889  27.437   6.750
 8582POPC   C3B53781  23.956  27.465   7.050
 8582POPC   C4B53782  23.881  27.444   7.350
 8583POPC   NC353783  26.051  15.906   5.550
 8583POPC   PO453784  26.085  15.945   5.850
 8583POPC   GL153785  25.994  15.925   6.150
 8583POPC   GL253786  25.958  16.000   6.150
 8583POPC   C1A53787  26.038  15.939   6.450
 8583POPC   D2A53788  26.068  15.943   6.750
 8583POPC   C3A53789  26.061  15.917   7.050
 8583POPC   C4A53790  26.031  15.968   7.350
 8583POPC   C1B53791  25.822  16.089   6.450
 8583POPC   C2B53792  25.813  16.069   6.750
 8583POPC   C3B53793  25.791  16.083   7.050
 8583POPC   C4B53794  25.826  16.118   7.350
 8584POPC   NC353795  33.850  34.600   5.550
 8584POPC   PO453796  33.804  34.590   5.850
 8584POPC   GL153797  33.848  34.578   6.150
 8584POPC   GL253798  33.706  34.626   6.150
 8584POPC   C1A53799  33.792  34.582   6.450
 8584POPC   D2A53800  33.787  34.594   6.750
 8584POPC   C3A53801  33.803  34.582   7.050
 8584POPC   C4A53802  33.756  34.561   7.350
 8584POPC   C1B53803  33.589  34.782   6.450
 8584POPC   C2B53804  33.654  34.786   6.750
 8584POPC   C3B53805  33.670  34.794   7.050
 8584POPC   C4B53806  33.599  34.789   7.350
 8585POPC   NC353807   3.550   7.423   5.550
 8585POPC   PO453808   3.584   7.462   5.850
 8585POPC   GL153809   3.549   7.389   6.150
 8585POPC   GL253810   3.461   7.312   6.150
 8585POPC   C1A53811   3.538   7.467   6.450
 8585POPC   D2A53812   3.559   7.463   6.750
 8585POPC   C3A53813   3.578   7.412   7.050
 8585POPC   C4A53814   3.534   7.464   7.350
 8585POPC   C1B53815   3.367   7.257   6.450
 8585POPC   C2B53816   3.303   7.300   6.750
 8585POPC   C3B53817   3.389   7.286   7.050
 8585POPC   C4B53818   3.363   7.255   7.350
 8586POPC   NC353819  43.894  28.412   5.550
 8586POPC   PO453820  43.855  28.402   5.850
 8586POPC   GL153821  43.883  28.412   6.150
 8586POPC   GL253822  43.904  28.198   6.150
 8586POPC   C1A53823  43.894  28.375   6.450
 8586POPC   D2A53824  43.852  28.402   6.750
 8586POPC   C3A53825  43.934  28.370   7.050
 8586POPC   C4A53826  43.841  28.348   7.350
 8586POPC   C1B53827  43.913  28.120   6.450
 8586POPC   C2B53828  43.891  28.095   6.750
 8586POPC   C3B53829  43.859  28.159   7.050
 8586POPC   C4B53830  43.921  28.117   7.350
 8587POPC   NC353831  22.934  20.603   5.550
 8587POPC   PO453832  22.894  20.587   5.850
 8587POPC   GL153833  22.893  20.620   6.150
 8587POPC   GL253834  23.018  20.710   6.150
 8587POPC   C1A53835  22.980  20.566   6.450
 8587POPC   D2A53836  22.899  20.568   6.750
 8587POPC   C3A53837  22.893  20.578   7.050
 8587POPC   C4A53838  22.964  20.635   7.350
 8587POPC   C1B53839  23.159  20.714   6.450
 8587POPC   C2B53840  23.165  20.732   6.750
 8587POPC   C3B53841  23.183  20.755   7.050
 8587POPC   C4B53842  23.167  20.766   7.350
 8588POPC   NC353843  33.833  32.202   5.550
 8588POPC   PO453844  33.809  32.266   5.850
 8588POPC   GL153845  33.782  32.222   6.150
 8588POPC   GL253846  33.958  32.260   6.150
 8588POPC   C1A53847  33.837  32.254   6.450
 8588POPC   D2A53848  33.824  32.296   6.750
 8588POPC   C3A53849  33.847  32.212   7.050
 8588POPC   C4A53850  33.837  32.251   7.350
 8588POPC   C1B53851  34.016  32.314   6.450
 8588POPC   C2B53852  34.016  32.243   6.750
 8588POPC   C3B53853  34.042  32.276   7.050
 8588POPC   C4B53854  34.042  32.263   7.350
 8589POPC   NC353855   9.751  29.111   5.550
 8589POPC   PO453856   9.721  29.166   5.850
 8589POPC   GL153857   9.747  29.155   6.150
 8589POPC   GL253858   9.779  29.262   6.150
 8589POPC   C1A53859   9.758  29.155   6.450
 8589POPC   D2A53860   9.727  29.155   6.750
 8589POPC   C3A53861   9.729  29.110   7.050
 8589POPC   C4A53862   9.789  29.183   7.350
 8589POPC   C1B53863   9.870  29.343   6.450
 8589POPC   C2B53864   9.953  29.294   6.750
 8589POPC   C3B53865   9.869  29.345   7.050
 8589POPC   C4B53866   9.861  29.325   7.350
 8590POPC   NC353867   6.658   5.052   5.550
 8590POPC   PO453868   6.694   5.121   5.850
 8590POPC   GL153869   6.663   5.128   6.150
 8590POPC   GL253870   6.742   5.039   6.150
 8590POPC   C1A53871   6.621   5.078   6.450
 8590POPC   D2A53872   6.681   5.067   6.750
 8590POPC   C3A53873   6.683   5.101   7.050
 8590POPC   C4A53874   6.692   5.059   7.350
 8590POPC   C1B53875   6.775   4.907   6.450
 8590POPC   C2B53876   6.790   4.952   6.750
 8590POPC   C3B53877   6.818   4.929   7.050
 8590POPC   C4B53878   6.828   4.957   7.350
 8591POPC   NC353879   4.297   4.279   5.550
 8591POPC   PO453880   4.302   4.326   5.850
 8591POPC   GL153881   4.352   4.357   6.150
 8591POPC   GL253882   4.267   4.177   6.150
 8591POPC   C1A53883   4.307   4.294   6.450
 8591POPC   D2A53884   4.317   4.290   6.750
 8591POPC   C3A53885   4.309   4.339   7.050
 8591POPC   C4A53886   4.331   4.267   7.350
 8591POPC   C1B53887   4.177   4.092   6.450
 8591POPC   C2B53888   4.191   4.091   6.750
 8591POPC   C3B53889   4.150   4.116   7.050
 8591POPC   C4B53890   4.200   4.085   7.350
 8592POPC   NC353891  10.543  40.776   5.550
 8592POPC   PO453892  10.524  40.805   5.850
 8592POPC   GL153893  10.491  40.792   6.150
 8592POPC   GL253894  10.424  40.701   6.150
 8592POPC   C1A53895  10.551  40.807   6.450
 8592POPC   D2A53896  10.543  40.743   6.750
 8592POPC   C3A53897  10.531  40.831   7.050
 8592POPC   C4A53898  10.525  40.765   7.350
 8592POPC   C1B53899  10.363  40.579   6.450
 8592POPC   C2B53900  10.351  40.622   6.750
 8592POPC   C3B53901  10.310  40.660   7.050
 8592POPC   C4B53902  10.380  40.598   7.350
 8593POPC   NC353903   3.519  12.804   5.550
 8593POPC   PO453904   3.541  12.854   5.850
 8593POPC   GL153905   3.510  12.840   6.150
 8593POPC   GL253906   3.679  12.869   6.150
 8593POPC   C1A53907   3.503  12.825   6.450
 8593POPC   D2A53908   3.551  12.863   6.750
 8593POPC   C3A53909   3.560  12.900   7.050
 8593POPC   C4A53910   3.492  12.845   7.350
 8593POPC   C1B53911   3.770  12.917   6.450
 8593POPC   C2B53912   3.749  12.948   6.750
 8593POPC   C3B53913   3.811  12.935   7.050
 8593POPC   C4B53914   3.797  12.966   7.350
 8594POPC   NC353915  41.595  30.716   5.550
 8594POPC   PO453916  41.566  30.712   5.850
 8594POPC   GL153917  41.543  30.678   6.150
 8594POPC   GL253918  41.661  30.581   6.150
 8594POPC   C1A53919  41.590  30.705   6.450
 8594POPC   D2A53920  41.590  30.701   6.750
 8594POPC   C3A53921  41.513  30.714   7.050
 8594POPC   C4A53922  41.553  30.736   7.350
 8594POPC   C1B53923  41.764  30.555   6.450
 8594POPC   C2B53924  41.803  30.496   6.750
 8594POPC   C3B53925  41.769  30.497   7.050
 8594POPC   C4B53926  41.793  30.515   7.350
 8595POPC   NC353927  37.630   1.262   5.550
 8595POPC   PO453928  37.632   1.229   5.850
 8595POPC   GL153929  37.650   1.172   6.150
 8595POPC   GL253930  37.570   1.193   6.150
 8595POPC   C1A53931  37.666   1.170   6.450
 8595POPC   D2A53932  37.658   1.264   6.750
 8595POPC   C3A53933  37.668   1.233   7.050
 8595POPC   C4A53934  37.697   1.240   7.350
 8595POPC   C1B53935  37.397   1.163   6.450
 8595POPC   C2B53936  37.437   1.205   6.750
 8595POPC   C3B53937  37.448   1.168   7.050
 8595POPC   C4B53938  37.404   1.151   7.350
 8596POPC   NC353939  35.395  23.736   5.550
 8596POPC   PO453940  35.367  23.697   5.850
 8596POPC   GL153941  35.337  23.735   6.150
 8596POPC   GL253942  35.459  23.779   6.150
 8596POPC   C1A53943  35.330  23.691   6.450
 8596POPC   D2A53944  35.355  23.756   6.750
 8596POPC   C3A53945  35.329  23.731   7.050
 8596POPC   C4A53946  35.314  23.707   7.350
 8596POPC   C1B53947  35.489  23.892   6.450
 8596POPC   C2B53948  35.491  23.865   6.750
 8596POPC   C3B53949  35.532  23.953   7.050
 8596POPC   C4B53950  35.559  23.889   7.350
 8597POPC   NC353951  16.778  44.670   5.550
 8597POPC   PO453952  16.715  44.707   5.850
 8597POPC   GL153953  16.706  44.695   6.150
 8597POPC   GL253954  16.904  44.663   6.150
 8597POPC   C1A53955  16.713  44.617   6.450
 8597POPC   D2A53956  16.729  44.676   6.750
 8597POPC   C3A53957  16.768  44.643   7.050
 8597POPC   C4A53958  16.733  44.678   7.350
 8597POPC   C1B53959  17.028  44.638   6.450
 8597POPC   C2B53960  16.935  44.606   6.750
 8597POPC   C3B53961  16.975  44.637   7.050
 8597POPC   C4B53962  16.942  44.701   7.350
 8598POPC   NC353963  15.985  32.204   5.550
 8598POPC   PO453964  15.958  32.239   5.850
 8598POPC   GL153965  15.907  32.242   6.150
 8598POPC   GL253966  16.081  32.196   6.150
 8598POPC   C1A53967  15.951  32.206   6.450
 8598POPC   D2A53968  15.941  32.276   6.750
 8598POPC   C3A53969  15.944  32.233   7.050
 8598POPC   C4A53970  15.986  32.211   7.350
 8598POPC   C1B53971  16.222  32.154   6.450
 8598POPC   C2B53972  16.185  32.134   6.750
 8598POPC   C3B53973  16.202  32.142   7.050
 8598POPC   C4B53974  16.202  32.127   7.350
 8599POPC   NC353975  43.918   8.941   5.550
 8599POPC   PO453976  43.881   8.941   5.850
 8599POPC   GL153977  43.837   9.019   6.150
 8599POPC   GL253978  43.786   9.042   6.150
 8599POPC   C1A53979  43.873   8.971   6.450
 8599POPC   D2A53980  43.912   8.982   6.750
 8599POPC   C3A53981  43.884   8.941   7.050
 8599POPC   C4A53982  43.914   8.966   7.350
 8599POPC   C1B53983  43.754   9.123   6.450
 8599POPC   C2B53984  43.701   9.183   6.750
 8599POPC   C3B53985  43.686   9.116   7.050
 8599POPC   C4B53986  43.729   9.144   7.350
 8600POPC   NC353987  33.805  19.850   5.550
 8600POPC   PO453988  33.791  19.818   5.850
 8600POPC   GL153989  33.795  19.819   6.150
 8600POPC   GL253990  33.894  19.837   6.150
 8600POPC   C1A53991  33.826  19.848   6.450
 8600POPC   D2A53992  33.818  19.843   6.750
 8600POPC   C3A53993  33.834  19.852   7.050
 8600POPC   C4A53994  33.835  19.813   7.350
 8600POPC   C1B53995  34.075  19.723   6.450
 8600POPC   C2B53996  34.087  19.795   6.750
 8600POPC   C3B53997  34.005  19.722   7.050
 8600POPC   C4B53998  34.059  19.754   7.350
 8601POPC   NC353999   6.672  34.576   5.550
 8601POPC   PO454000   6.639  34.577   5.850
 8601POPC   GL154001   6.608  34.623   6.150
 8601POPC   GL254002   6.737  34.705   6.150
 8601POPC   C1A54003   6.623  34.624   6.450
 8601POPC   D2A54004   6.638  34.616   6.750
 8601POPC   C3A54005   6.600  34.577   7.050
 8601POPC   C4A54006   6.628  34.556   7.350
 8601POPC   C1B54007   6.759  34.781   6.450
 8601POPC   C2B54008   6.819  34.727   6.750
 8601POPC   C3B54009   6.852  34.739   7.050
 8601POPC   C4B54010   6.815  34.753   7.350
 8602POPC   NC354011   1.220  32.211   5.550
 8602POPC   PO454012   1.193  32.211   5.850
 8602POPC   GL154013   1.262  32.223   6.150
 8602POPC   GL254014   1.247  32.333   6.150
 8602POPC   C1A54015   1.198  32.226   6.450
 8602POPC   D2A54016   1.212  32.273   6.750
 8602POPC   C3A54017   1.244  32.251   7.050
 8602POPC   C4A54018   1.208  32.263   7.350
 8602POPC   C1B54019   1.333  32.422   6.450
 8602POPC   C2B54020   1.389  32.469   6.750
 8602POPC   C3B54021   1.353  32.473   7.050
 8602POPC   C4B54022   1.392  32.411   7.350
 8603POPC   NC354023  14.361   5.122   5.550
 8603POPC   PO454024  14.428   5.054   5.850
 8603POPC   GL154025  14.355   5.052   6.150
 8603POPC   GL254026  14.235   5.079   6.150
 8603POPC   C1A54027  14.408   5.094   6.450
 8603POPC   D2A54028  14.452   5.088   6.750
 8603POPC   C3A54029  14.440   5.142   7.050
 8603POPC   C4A54030  14.388   5.127   7.350
 8603POPC   C1B54031  14.149   4.992   6.450
 8603POPC   C2B54032  14.157   5.050   6.750
 8603POPC   C3B54033  14.205   5.026   7.050
 8603POPC   C4B54034  14.184   5.029   7.350
 8604POPC   NC354035  36.914   7.390   5.550
 8604POPC   PO454036  36.928   7.379   5.850
 8604POPC   GL154037  36.922   7.451   6.150
 8604POPC   GL254038  36.879   7.560   6.150
 8604POPC   C1A54039  36.885   7.461   6.450
 8604POPC   D2A54040  36.953   7.425   6.750
 8604POPC   C3A54041  36.909   7.434   7.050
 8604POPC   C4A54042  36.940   7.421   7.350
 8604POPC   C1B54043  36.732   7.587   6.450
 8604POPC   C2B54044  36.727   7.625   6.750
 8604POPC   C3B54045  36.781   7.672   7.050
 8604POPC   C4B54046  36.746   7.588   7.350
 8605POPC   NC354047  26.832   2.717   5.550
 8605POPC   PO454048  26.846   2.727   5.850
 8605POPC   GL154049  26.866   2.769   6.150
 8605POPC   GL254050  26.735   2.851   6.150
 8605POPC   C1A54051  26.829   2.736   6.450
 8605POPC   D2A54052  26.835   2.756   6.750
 8605POPC   C3A54053  26.782   2.783   7.050
 8605POPC   C4A54054  26.818   2.716   7.350
 8605POPC   C1B54055  26.575   2.815   6.450
 8605POPC   C2B54056  26.585   2.894   6.750
 8605POPC   C3B54057  26.552   2.834   7.050
 8605POPC   C4B54058  26.624   2.821   7.350
 8606POPC   NC354059   8.981  43.893   5.550
 8606POPC   PO454060   8.998  43.890   5.850
 8606POPC   GL154061   8.999  43.929   6.150
 8606POPC   GL254062   9.038  43.969   6.150
 8606POPC   C1A54063   8.988  43.875   6.450
 8606POPC   D2A54064   8.931  43.842   6.750
 8606POPC   C3A54065   8.990  43.891   7.050
 8606POPC   C4A54066   8.923  43.920   7.350
 8606POPC   C1B54067   9.206  44.031   6.450
 8606POPC   C2B54068   9.228  43.952   6.750
 8606POPC   C3B54069   9.167  44.015   7.050
 8606POPC   C4B54070   9.229  44.007   7.350
 8607POPC   NC354071  38.409   1.964   5.550
 8607POPC   PO454072  38.461   2.004   5.850
 8607POPC   GL154073  38.418   2.029   6.150
 8607POPC   GL254074  38.590   1.933   6.150
 8607POPC   C1A54075  38.416   2.007   6.450
 8607POPC   D2A54076  38.406   2.005   6.750
 8607POPC   C3A54077  38.465   2.017   7.050
 8607POPC   C4A54078  38.448   1.965   7.350
 8607POPC   C1B54079  38.749   1.994   6.450
 8607POPC   C2B54080  38.710   1.980   6.750
 8607POPC   C3B54081  38.658   1.953   7.050
 8607POPC   C4B54082  38.712   1.899   7.350
 8608POPC   NC354083  40.049  15.211   5.550
 8608POPC   PO454084  40.006  15.178   5.850
 8608POPC   GL154085  39.977  15.131   6.150
 8608POPC   GL254086  40.053  15.276   6.150
 8608POPC   C1A54087  39.976  15.150   6.450
 8608POPC   D2A54088  39.960  15.198   6.750
 8608POPC   C3A54089  39.960  15.148   7.050
 8608POPC   C4A54090  40.033  15.153   7.350
 8608POPC   C1B54091  40.092  15.424   6.450
 8608POPC   C2B54092  40.153  15.389   6.750
 8608POPC   C3B54093  40.113  15.365   7.050
 8608POPC   C4B54094  40.094  15.379   7.350
 8609POPC   NC354095  36.079  42.372   5.550
 8609POPC   PO454096  36.097  42.376   5.850
 8609POPC   GL154097  36.158  42.324   6.150
 8609POPC   GL254098  36.068  42.290   6.150
 8609POPC   C1A54099  36.157  42.314   6.450
 8609POPC   D2A54100  36.153  42.384   6.750
 8609POPC   C3A54101  36.086  42.293   7.050
 8609POPC   C4A54102  36.139  42.320   7.350
 8609POPC   C1B54103  35.916  42.180   6.450
 8609POPC   C2B54104  35.950  42.171   6.750
 8609POPC   C3B54105  35.902  42.225   7.050
 8609POPC   C4B54106  35.878  42.246   7.350
 8610POPC   NC354107  26.015  16.762   5.550
 8610POPC   PO454108  26.069  16.699   5.850
 8610POPC   GL154109  26.075  16.769   6.150
 8610POPC   GL254110  26.076  16.817   6.150
 8610POPC   C1A54111  26.020  16.692   6.450
 8610POPC   D2A54112  25.992  16.752   6.750
 8610POPC   C3A54113  26.012  16.725   7.050
 8610POPC   C4A54114  25.993  16.730   7.350
 8610POPC   C1B54115  26.083  16.983   6.450
 8610POPC   C2B54116  26.049  16.945   6.750
 8610POPC   C3B54117  26.033  16.979   7.050
 8610POPC   C4B54118  26.085  16.954   7.350
 8611POPC   NC354119   7.412  33.823   5.550
 8611POPC   PO454120   7.443  33.775   5.850
 8611POPC   GL154121   7.394  33.825   6.150
 8611POPC   GL254122   7.373  33.703   6.150
 8611POPC   C1A54123   7.417  33.809   6.450
 8611POPC   D2A54124   7.463  33.802   6.750
 8611POPC   C3A54125   7.458  33.821   7.050
 8611POPC   C4A54126   7.413  33.842   7.350
 8611POPC   C1B54127   7.258  33.601   6.450
 8611POPC   C2B54128   7.324  33.585   6.750
 8611POPC   C3B54129   7.248  33.566   7.050
 8611POPC   C4B54130   7.298  33.589   7.350
 8612POPC   NC354131  36.082  24.539   5.550
 8612POPC   PO454132  36.093  24.440   5.850
 8612POPC   GL154133  36.158  24.515   6.150
 8612POPC   GL254134  36.112  24.552   6.150
 8612POPC   C1A54135  36.170  24.501   6.450
 8612POPC   D2A54136  36.084  24.501   6.750
 8612POPC   C3A54137  36.104  24.539   7.050
 8612POPC   C4A54138  36.131  24.517   7.350
 8612POPC   C1B54139  36.035  24.690   6.450
 8612POPC   C2B54140  35.994  24.702   6.750
 8612POPC   C3B54141  36.018  24.745   7.050
 8612POPC   C4B54142  35.983  24.659   7.350
 8613POPC   NC354143  17.501  38.501   5.550
 8613POPC   PO454144  17.481  38.469   5.850
 8613POPC   GL154145  17.545  38.498   6.150
 8613POPC   GL254146  17.566  38.361   6.150
 8613POPC   C1A54147  17.556  38.415   6.450
 8613POPC   D2A54148  17.540  38.505   6.750
 8613POPC   C3A54149  17.511  38.495   7.050
 8613POPC   C4A54150  17.465  38.477   7.350
 8613POPC   C1B54151  17.694  38.233   6.450
 8613POPC   C2B54152  17.692  38.298   6.750
 8613POPC   C3B54153  17.684  38.266   7.050
 8613POPC   C4B54154  17.604  38.257   7.350
 8614POPC   NC354155  43.860  32.200   5.550
 8614POPC   PO454156  43.894  32.281   5.850
 8614POPC   GL154157  43.870  32.212   6.150
 8614POPC   GL254158  43.871  32.372   6.150
 8614POPC   C1A54159  43.913  32.286   6.450
 8614POPC   D2A54160  43.894  32.265   6.750
 8614POPC   C3A54161  43.885  32.244   7.050
 8614POPC   C4A54162  43.859  32.210   7.350
 8614POPC   C1B54163  43.858  32.465   6.450
 8614POPC   C2B54164  43.815  32.475   6.750
 8614POPC   C3B54165  43.807  32.471   7.050
 8614POPC   C4B54166  43.865  32.453   7.350
 8615POPC   NC354167  43.071  31.462   5.550
 8615POPC   PO454168  43.076  31.431   5.850
 8615POPC   GL154169  43.135  31.434   6.150
 8615POPC   GL254170  43.212  31.530   6.150
 8615POPC   C1A54171  43.131  31.445   6.450
 8615POPC   D2A54172  43.105  31.489   6.750
 8615POPC   C3A54173  43.138  31.435   7.050
 8615POPC   C4A54174  43.082  31.469   7.350
 8615POPC   C1B54175  43.336  31.614   6.450
 8615POPC   C2B54176  43.286  31.690   6.750
 8615POPC   C3B54177  43.247  31.675   7.050
 8615POPC   C4B54178  43.303  31.680   7.350
 8616POPC   NC354179   0.464  26.776   5.550
 8616POPC   PO454180   0.395  26.770   5.850
 8616POPC   GL154181   0.431  26.843   6.150
 8616POPC   GL254182   0.587  26.837   6.150
 8616POPC   C1A54183   0.445  26.784   6.450
 8616POPC   D2A54184   0.443  26.851   6.750
 8616POPC   C3A54185   0.447  26.791   7.050
 8616POPC   C4A54186   0.408  26.795   7.350
 8616POPC   C1B54187   0.708  26.824   6.450
 8616POPC   C2B54188   0.638  26.836   6.750
 8616POPC   C3B54189   0.659  26.848   7.050
 8616POPC   C4B54190   0.725  26.865   7.350
 8617POPC   NC354191  43.117  21.398   5.550
 8617POPC   PO454192  43.156  21.348   5.850
 8617POPC   GL154193  43.076  21.395   6.150
 8617POPC   GL254194  43.006  21.522   6.150
 8617POPC   C1A54195  43.153  21.338   6.450
 8617POPC   D2A54196  43.103  21.339   6.750
 8617POPC   C3A54197  43.133  21.417   7.050
 8617POPC   C4A54198  43.154  21.390   7.350
 8617POPC   C1B54199  43.020  21.650   6.450
 8617POPC   C2B54200  42.987  21.592   6.750
 8617POPC   C3B54201  43.021  21.591   7.050
 8617POPC   C4B54202  42.996  21.584   7.350
 8618POPC   NC354203  13.650  36.862   5.550
 8618POPC   PO454204  13.621  36.939   5.850
 8618POPC   GL154205  13.627  36.861   6.150
 8618POPC   GL254206  13.586  36.792   6.150
 8618POPC   C1A54207  13.629  36.907   6.450
 8618POPC   D2A54208  13.652  36.913   6.750
 8618POPC   C3A54209  13.677  36.941   7.050
 8618POPC   C4A54210  13.617  36.952   7.350
 8618POPC   C1B54211  13.637  36.637   6.450
 8618POPC   C2B54212  13.637  36.623   6.750
 8618POPC   C3B54213  13.649  36.674   7.050
 8618POPC   C4B54214  13.647  36.652   7.350
 8619POPC   NC354215  37.659  40.036   5.550
 8619POPC   PO454216  37.652  39.979   5.850
 8619POPC   GL154217  37.647  39.982   6.150
 8619POPC   GL254218  37.657  39.890   6.150
 8619POPC   C1A54219  37.722  40.019   6.450
 8619POPC   D2A54220  37.672  40.042   6.750
 8619POPC   C3A54221  37.722  40.042   7.050
 8619POPC   C4A54222  37.705  39.977   7.350
 8619POPC   C1B54223  37.584  39.741   6.450
 8619POPC   C2B54224  37.591  39.749   6.750
 8619POPC   C3B54225  37.649  39.735   7.050
 8619POPC   C4B54226  37.616  39.723   7.350
 8620POPC   NC354227  34.557  18.301   5.550
 8620POPC   PO454228  34.539  18.276   5.850
 8620POPC   GL154229  34.596  18.241   6.150
 8620POPC   GL254230  34.655  18.390   6.150
 8620POPC   C1A54231  34.561  18.311   6.450
 8620POPC   D2A54232  34.612  18.331   6.750
 8620POPC   C3A54233  34.554  18.236   7.050
 8620POPC   C4A54234  34.555  18.292   7.350
 8620POPC   C1B54235  34.648  18.521   6.450
 8620POPC   C2B54236  34.703  18.530   6.750
 8620POPC   C3B54237  34.670  18.543   7.050
 8620POPC   C4B54238  34.715  18.453   7.350
 8621POPC   NC354239  27.613  20.647   5.550
 8621POPC   PO454240  27.588  20.629   5.850
 8621POPC   GL154241  27.611  20.610   6.150
 8621POPC   GL254242  27.518  20.644   6.150
 8621POPC   C1A54243  27.597  20.621   6.450
 8621POPC   D2A54244  27.553  20.576   6.750
 8621POPC   C3A54245  27.605  20.640   7.050
 8621POPC   C4A54246  27.591  20.612   7.350
 8621POPC   C1B54247  27.377  20.706   6.450
 8621POPC   C2B54248  27.395  20.693   6.750
 8621POPC   C3B54249  27.361  20.681   7.050
 8621POPC   C4B54250  27.411  20.716   7.350
 8622POPC   NC354251  29.111  39.224   5.550
 8622POPC   PO454252  29.170  39.183   5.850
 8622POPC   GL154253  29.106  39.254   6.150
 8622POPC   GL254254  29.250  39.204   6.150
 8622POPC   C1A54255  29.130  39.278   6.450
 8622POPC   D2A54256  29.164  39.181   6.750
 8622POPC   C3A54257  29.169  39.215   7.050
 8622POPC   C4A54258  29.161  39.195   7.350
 8622POPC   C1B54259  29.327  39.106   6.450
 8622POPC   C2B54260  29.330  39.175   6.750
 8622POPC   C3B54261  29.349  39.180   7.050
 8622POPC   C4B54262  29.375  39.114   7.350
 8623POPC   NC354263  32.290  12.857   5.550
 8623POPC   PO454264  32.203  12.857   5.850
 8623POPC   GL154265  32.231  12.836   6.150
 8623POPC   GL254266  32.366  12.882   6.150
 8623POPC   C1A54267  32.253  12.813   6.450
 8623POPC   D2A54268  32.250  12.875   6.750
 8623POPC   C3A54269  32.270  12.836   7.050
 8623POPC   C4A54270  32.268  12.869   7.350
 8623POPC   C1B54271  32.454  12.934   6.450
 8623POPC   C2B54272  32.496  12.927   6.750
 8623POPC   C3B54273  32.485  13.005   7.050
 8623POPC   C4B54274  32.489  12.997   7.350
 8624POPC   NC354275  38.493   5.100   5.550
 8624POPC   PO454276  38.414   5.060   5.850
 8624POPC   GL154277  38.434   5.107   6.150
 8624POPC   GL254278  38.396   4.975   6.150
 8624POPC   C1A54279  38.468   5.143   6.450
 8624POPC   D2A54280  38.474   5.051   6.750
 8624POPC   C3A54281  38.412   5.055   7.050
 8624POPC   C4A54282  38.453   5.069   7.350
 8624POPC   C1B54283  38.274   4.917   6.450
 8624POPC   C2B54284  38.287   4.887   6.750
 8624POPC   C3B54285  38.355   4.845   7.050
 8624POPC   C4B54286  38.344   4.839   7.350
 8625POPC   NC354287  29.187  28.336   5.550
 8625POPC   PO454288  29.132  28.392   5.850
 8625POPC   GL154289  29.149  28.366   6.150
 8625POPC   GL254290  29.300  28.297   6.150
 8625POPC   C1A54291  29.175  28.360   6.450
 8625POPC   D2A54292  29.146  28.354   6.750
 8625POPC   C3A54293  29.168  28.361   7.050
 8625POPC   C4A54294  29.155  28.357   7.350
 8625POPC   C1B54295  29.371  28.332   6.450
 8625POPC   C2B54296  29.420  28.271   6.750
 8625POPC   C3B54297  29.337  28.312   7.050
 8625POPC   C4B54298  29.358  28.286   7.350
 8626POPC   NC354299  32.222  36.114   5.550
 8626POPC   PO454300  32.199  36.154   5.850
 8626POPC   GL154301  32.234  36.144   6.150
 8626POPC   GL254302  32.091  36.160   6.150
 8626POPC   C1A54303  32.224  36.119   6.450
 8626POPC   D2A54304  32.272  36.137   6.750
 8626POPC   C3A54305  32.270  36.139   7.050
 8626POPC   C4A54306  32.256  36.124   7.350
 8626POPC   C1B54307  31.977  36.185   6.450
 8626POPC   C2B54308  32.013  36.264   6.750
 8626POPC   C3B54309  32.007  36.186   7.050
 8626POPC   C4B54310  31.971  36.219   7.350
 8627POPC   NC354311  35.305   7.420   5.550
 8627POPC   PO454312  35.351   7.451   5.850
 8627POPC   GL154313  35.380   7.451   6.150
 8627POPC   GL254314  35.208   7.371   6.150
 8627POPC   C1A54315  35.351   7.434   6.450
 8627POPC   D2A54316  35.377   7.442   6.750
 8627POPC   C3A54317  35.390   7.457   7.050
 8627POPC   C4A54318  35.309   7.440   7.350
 8627POPC   C1B54319  35.082   7.390   6.450
 8627POPC   C2B54320  35.054   7.435   6.750
 8627POPC   C3B54321  35.074   7.399   7.050
 8627POPC   C4B54322  35.069   7.424   7.350
 8628POPC   NC354323  22.197  36.100   5.550
 8628POPC   PO454324  22.129  36.090   5.850
 8628POPC   GL154325  22.127  36.085   6.150
 8628POPC   GL254326  22.183  35.982   6.150
 8628POPC   C1A54327  22.174  36.081   6.450
 8628POPC   D2A54328  22.167  36.137   6.750
 8628POPC   C3A54329  22.155  36.089   7.050
 8628POPC   C4A54330  22.162  36.149   7.350
 8628POPC   C1B54331  22.138  35.910   6.450
 8628POPC   C2B54332  22.204  35.837   6.750
 8628POPC   C3B54333  22.226  35.851   7.050
 8628POPC   C4B54334  22.218  35.831   7.350
 8629POPC   NC354335   1.217  28.331   5.550
 8629POPC   PO454336   1.183  28.415   5.850
 8629POPC   GL154337   1.197  28.406   6.150
 8629POPC   GL254338   1.281  28.235   6.150
 8629POPC   C1A54339   1.224  28.383   6.450
 8629POPC   D2A54340   1.216  28.354   6.750
 8629POPC   C3A54341   1.252  28.329   7.050
 8629POPC   C4A54342   1.207  28.417   7.350
 8629POPC   C1B54343   1.377  28.161   6.450
 8629POPC   C2B54344   1.373  28.199   6.750
 8629POPC   C3B54345   1.350  28.157   7.050
 8629POPC   C4B54346   1.393  28.136   7.350
 8630POPC   NC354347  19.865  19.035   5.550
 8630POPC   PO454348  19.807  19.020   5.850
 8630POPC   GL154349  19.873  19.085   6.150
 8630POPC   GL254350  19.908  19.016   6.150
 8630POPC   C1A54351  19.865  19.104   6.450
 8630POPC   D2A54352  19.851  19.038   6.750
 8630POPC   C3A54353  19.878  19.015   7.050
 8630POPC   C4A54354  19.822  19.036   7.350
 8630POPC   C1B54355  19.971  18.885   6.450
 8630POPC   C2B54356  20.054  18.903   6.750
 8630POPC   C3B54357  20.022  18.851   7.050
 8630POPC   C4B54358  20.019  18.837   7.350
 8631POPC   NC354359   3.574   0.475   5.550
 8631POPC   PO454360   3.497   0.414   5.850
 8631POPC   GL154361   3.549   0.418   6.150
 8631POPC   GL254362   3.447   0.338   6.150
 8631POPC   C1A54363   3.527   0.424   6.450
 8631POPC   D2A54364   3.529   0.407   6.750
 8631POPC   C3A54365   3.509   0.448   7.050
 8631POPC   C4A54366   3.513   0.473   7.350
 8631POPC   C1B54367   3.335   0.247   6.450
 8631POPC   C2B54368   3.396   0.231   6.750
 8631POPC   C3B54369   3.358   0.318   7.050
 8631POPC   C4B54370   3.314   0.295   7.350
 8632POPC   NC354371  36.900  19.033   5.550
 8632POPC   PO454372  36.881  19.090   5.850
 8632POPC   GL154373  36.919  19.061   6.150
 8632POPC   GL254374  36.858  18.964   6.150
 8632POPC   C1A54375  36.907  19.091   6.450
 8632POPC   D2A54376  36.882  19.054   6.750
 8632POPC   C3A54377  36.920  19.031   7.050
 8632POPC   C4A54378  36.943  19.052   7.350
 8632POPC   C1B54379  36.803  18.790   6.450
 8632POPC   C2B54380  36.744  18.856   6.750
 8632POPC   C3B54381  36.778  18.862   7.050
 8632POPC   C4B54382  36.773  18.855   7.350
 8633POPC   NC354383  14.393  15.967   5.550
 8633POPC   PO454384  14.365  15.910   5.850
 8633POPC   GL154385  14.408  15.940   6.150
 8633POPC   GL254386  14.537  15.892   6.150
 8633POPC   C1A54387  14.405  15.956   6.450
 8633POPC   D2A54388  14.358  15.933   6.750
 8633POPC   C3A54389  14.380  16.000   7.050
 8633POPC   C4A54390  14.385  15.916   7.350
 8633POPC   C1B54391  14.545  15.748   6.450
 8633POPC   C2B54392  14.567  15.812   6.750
 8633POPC   C3B54393  14.566  15.768   7.050
 8633POPC   C4B54394  14.636  15.769   7.350
 8634POPC   NC354395  36.936   5.870   5.550
 8634POPC   PO454396  36.925   5.844   5.850
 8634POPC   GL154397  36.911   5.861   6.150
 8634POPC   GL254398  37.046   5.782   6.150
 8634POPC   C1A54399  36.950   5.889   6.450
 8634POPC   D2A54400  36.886   5.837   6.750
 8634POPC   C3A54401  36.916   5.893   7.050
 8634POPC   C4A54402  36.874   5.844   7.350
 8634POPC   C1B54403  37.185   5.783   6.450
 8634POPC   C2B54404  37.098   5.755   6.750
 8634POPC   C3B54405  37.161   5.809   7.050
 8634POPC   C4B54406  37.180   5.798   7.350
 8635POPC   NC354407  36.123  36.166   5.550
 8635POPC   PO454408  36.146  36.160   5.850
 8635POPC   GL154409  36.101  36.082   6.150
 8635POPC   GL254410  36.111  35.992   6.150
 8635POPC   C1A54411  36.149  36.084   6.450
 8635POPC   D2A54412  36.097  36.082   6.750
 8635POPC   C3A54413  36.149  36.141   7.050
 8635POPC   C4A54414  36.127  36.126   7.350
 8635POPC   C1B54415  36.111  35.831   6.450
 8635POPC   C2B54416  36.092  35.909   6.750
 8635POPC   C3B54417  36.092  35.833   7.050
 8635POPC   C4B54418  36.114  35.851   7.350
 8636POPC   NC354419   6.639  40.045   5.550
 8636POPC   PO454420   6.602  40.048   5.850
 8636POPC   GL154421   6.663  40.055   6.150
 8636POPC   GL254422   6.549  40.024   6.150
 8636POPC   C1A54423   6.685  40.051   6.450
 8636POPC   D2A54424   6.642  40.024   6.750
 8636POPC   C3A54425   6.670  40.003   7.050
 8636POPC   C4A54426   6.644  39.963   7.350
 8636POPC   C1B54427   6.438  40.146   6.450
 8636POPC   C2B54428   6.462  40.155   6.750
 8636POPC   C3B54429   6.409  40.089   7.050
 8636POPC   C4B54430   6.418  40.146   7.350
 8637POPC   NC354431  22.971  43.100   5.550
 8637POPC   PO454432  22.936  43.096   5.850
 8637POPC   GL154433  22.904  43.134   6.150
 8637POPC   GL254434  22.988  42.973   6.150
 8637POPC   C1A54435  22.928  43.137   6.450
 8637POPC   D2A54436  22.933  43.103   6.750
 8637POPC   C3A54437  22.979  43.117   7.050
 8637POPC   C4A54438  22.978  43.149   7.350
 8637POPC   C1B54439  23.130  42.969   6.450
 8637POPC   C2B54440  23.137  42.961   6.750
 8637POPC   C3B54441  23.106  42.909   7.050
 8637POPC   C4B54442  23.100  42.937   7.350
 8638POPC   NC354443   1.177  16.706   5.550
 8638POPC   PO454444   1.222  16.771   5.850
 8638POPC   GL154445   1.199  16.746   6.150
 8638POPC   GL254446   1.308  16.765   6.150
 8638POPC   C1A54447   1.259  16.710   6.450
 8638POPC   D2A54448   1.233  16.770   6.750
 8638POPC   C3A54449   1.243  16.731   7.050
 8638POPC   C4A54450   1.250  16.688   7.350
 8638POPC   C1B54451   1.378  16.910   6.450
 8638POPC   C2B54452   1.394  16.875   6.750
 8638POPC   C3B54453   1.404  16.918   7.050
 8638POPC   C4B54454   1.465  16.846   7.350
 8639POPC   NC354455   9.737   7.442   5.550
 8639POPC   PO454456   9.707   7.416   5.850
 8639POPC   GL154457   9.768   7.447   6.150
 8639POPC   GL254458   9.611   7.521   6.150
 8639POPC   C1A54459   9.742   7.396   6.450
 8639POPC   D2A54460   9.714   7.395   6.750
 8639POPC   C3A54461   9.743   7.446   7.050
 8639POPC   C4A54462   9.761   7.387   7.350
 8639POPC   C1B54463   9.553   7.589   6.450
 8639POPC   C2B54464   9.586   7.591   6.750
 8639POPC   C3B54465   9.603   7.560   7.050
 8639POPC   C4B54466   9.561   7.593   7.350
 8640POPC   NC354467  22.155  19.101   5.550
 8640POPC   PO454468  22.145  19.015   5.850
 8640POPC   GL154469  22.137  19.096   6.150
 8640POPC   GL254470  22.184  18.981   6.150
 8640POPC   C1A54471  22.125  19.011   6.450
 8640POPC   D2A54472  22.137  19.084   6.750
 8640POPC   C3A54473  22.159  19.091   7.050
 8640POPC   C4A54474  22.155  19.044   7.350
 8640POPC   C1B54475  22.155  18.825   6.450
 8640POPC   C2B54476  22.134  18.839   6.750
 8640POPC   C3B54477  22.113  18.785   7.050
 8640POPC   C4B54478  22.192  18.854   7.350
 8641POPC   NC354479  18.246  20.624   5.550
 8641POPC   PO454480  18.329  20.609   5.850
 8641POPC   GL154481  18.284  20.618   6.150
 8641POPC   GL254482  18.259  20.484   6.150
 8641POPC   C1A54483  18.234  20.649   6.450
 8641POPC   D2A54484  18.321  20.633   6.750
 8641POPC   C3A54485  18.325  20.651   7.050
 8641POPC   C4A54486  18.233  20.641   7.350
 8641POPC   C1B54487  18.330  20.409   6.450
 8641POPC   C2B54488  18.290  20.397   6.750
 8641POPC   C3B54489  18.285  20.404   7.050
 8641POPC   C4B54490  18.348  20.340   7.350
 8642POPC   NC354491  43.907  23.664   5.550
 8642POPC   PO454492  43.872  23.728   5.850
 8642POPC   GL154493  43.912  23.730   6.150
 8642POPC   GL254494  43.869  23.570   6.150
 8642POPC   C1A54495  43.921  23.749   6.450
 8642POPC   D2A54496  43.881  23.680   6.750
 8642POPC   C3A54497  43.858  23.750   7.050
 8642POPC   C4A54498  43.874  23.718   7.350
 8642POPC   C1B54499  43.810  23.475   6.450
 8642POPC   C2B54500  43.813  23.522   6.750
 8642POPC   C3B54501  43.750  23.513   7.050
 8642POPC   C4B54502  43.791  23.542   7.350
 8643POPC   NC354503  40.767  36.937   5.550
 8643POPC   PO454504  40.810  36.912   5.850
 8643POPC   GL154505  40.758  36.946   6.150
 8643POPC   GL254506  40.894  36.834   6.150
 8643POPC   C1A54507  40.797  36.858   6.450
 8643POPC   D2A54508  40.794  36.901   6.750
 8643POPC   C3A54509  40.761  36.939   7.050
 8643POPC   C4A54510  40.740  36.885   7.350
 8643POPC   C1B54511  41.041  36.882   6.450
 8643POPC   C2B54512  40.973  36.787   6.750
 8643POPC   C3B54513  41.047  36.807   7.050
 8643POPC   C4B54514  40.989  36.784   7.350
 8644POPC   NC354515   1.976   5.847   5.550
 8644POPC   PO454516   1.990   5.900   5.850
 8644POPC   GL154517   1.986   5.904   6.150
 8644POPC   GL254518   1.910   5.848   6.150
 8644POPC   C1A54519   2.028   5.903   6.450
 8644POPC   D2A54520   1.986   5.903   6.750
 8644POPC   C3A54521   1.971   5.909   7.050
 8644POPC   C4A54522   2.032   5.907   7.350
 8644POPC   C1B54523   1.730   5.859   6.450
 8644POPC   C2B54524   1.690   5.825   6.750
 8644POPC   C3B54525   1.725   5.869   7.050
 8644POPC   C4B54526   1.772   5.876   7.350
 8645POPC   NC354527  15.190  43.866   5.550
 8645POPC   PO454528  15.174  43.904   5.850
 8645POPC   GL154529  15.137  43.856   6.150
 8645POPC   GL254530  15.121  43.787   6.150
 8645POPC   C1A54531  15.229  43.874   6.450
 8645POPC   D2A54532  15.205  43.862   6.750
 8645POPC   C3A54533  15.220  43.842   7.050
 8645POPC   C4A54534  15.134  43.866   7.350
 8645POPC   C1B54535  14.984  43.714   6.450
 8645POPC   C2B54536  14.968  43.782   6.750
 8645POPC   C3B54537  14.997  43.768   7.050
 8645POPC   C4B54538  14.935  43.706   7.350
 8646POPC   NC354539  32.286  29.189   5.550
 8646POPC   PO454540  32.239  29.167   5.850
 8646POPC   GL154541  32.287  29.177   6.150
 8646POPC   GL254542  32.319  29.225   6.150
 8646POPC   C1A54543  32.280  29.111   6.450
 8646POPC   D2A54544  32.293  29.112   6.750
 8646POPC   C3A54545  32.289  29.157   7.050
 8646POPC   C4A54546  32.230  29.184   7.350
 8646POPC   C1B54547  32.351  29.401   6.450
 8646POPC   C2B54548  32.398  29.392   6.750
 8646POPC   C3B54549  32.317  29.397   7.050
 8646POPC   C4B54550  32.313  29.334   7.350
 8647POPC   NC354551   7.398  25.999   5.550
 8647POPC   PO454552   7.390  26.010   5.850
 8647POPC   GL154553   7.430  26.050   6.150
 8647POPC   GL254554   7.507  26.109   6.150
 8647POPC   C1A54555   7.402  26.045   6.450
 8647POPC   D2A54556   7.416  26.024   6.750
 8647POPC   C3A54557   7.398  26.084   7.050
 8647POPC   C4A54558   7.401  26.017   7.350
 8647POPC   C1B54559   7.529  26.237   6.450
 8647POPC   C2B54560   7.555  26.297   6.750
 8647POPC   C3B54561   7.566  26.221   7.050
 8647POPC   C4B54562   7.552  26.286   7.350
 8648POPC   NC354563   2.802   2.763   5.550
 8648POPC   PO454564   2.779   2.788   5.850
 8648POPC   GL154565   2.790   2.785   6.150
 8648POPC   GL254566   2.903   2.718   6.150
 8648POPC   C1A54567   2.743   2.755   6.450
 8648POPC   D2A54568   2.749   2.727   6.750
 8648POPC   C3A54569   2.764   2.758   7.050
 8648POPC   C4A54570   2.751   2.734   7.350
 8648POPC   C1B54571   3.043   2.709   6.450
 8648POPC   C2B54572   3.000   2.731   6.750
 8648POPC   C3B54573   2.989   2.664   7.050
 8648POPC   C4B54574   2.980   2.720   7.350
 8649POPC   NC354575  12.084  10.527   5.550
 8649POPC   PO454576  12.083  10.506   5.850
 8649POPC   GL154577  12.041  10.509   6.150
 8649POPC   GL254578  12.160  10.596   6.150
 8649POPC   C1A54579  12.076  10.489   6.450
 8649POPC   D2A54580  12.099  10.514   6.750
 8649POPC   C3A54581  12.118  10.477   7.050
 8649POPC   C4A54582  12.064  10.498   7.350
 8649POPC   C1B54583  12.218  10.660   6.450
 8649POPC   C2B54584  12.222  10.678   6.750
 8649POPC   C3B54585  12.244  10.735   7.050
 8649POPC   C4B54586  12.281  10.667   7.350
 8650POPC   NC354587   9.713  14.424   5.550
 8650POPC   PO454588   9.782  14.427   5.850
 8650POPC   GL154589   9.730  14.362   6.150
 8650POPC   GL254590   9.659  14.394   6.150
 8650POPC   C1A54591   9.703  14.432   6.450
 8650POPC   D2A54592   9.779  14.385   6.750
 8650POPC   C3A54593   9.780  14.440   7.050
 8650POPC   C4A54594   9.745  14.405   7.350
 8650POPC   C1B54595   9.452  14.379   6.450
 8650POPC   C2B54596   9.486  14.366   6.750
 8650POPC   C3B54597   9.543  14.359   7.050
 8650POPC   C4B54598   9.515  14.347   7.350
 8651POPC   NC354599  14.407  15.192   5.550
 8651POPC   PO454600  14.451  15.183   5.850
 8651POPC   GL154601  14.397  15.172   6.150
 8651POPC   GL254602  14.444  15.309   6.150
 8651POPC   C1A54603  14.410  15.206   6.450
 8651POPC   D2A54604  14.355  15.177   6.750
 8651POPC   C3A54605  14.416  15.158   7.050
 8651POPC   C4A54606  14.371  15.157   7.350
 8651POPC   C1B54607  14.437  15.399   6.450
 8651POPC   C2B54608  14.460  15.411   6.750
 8651POPC   C3B54609  14.382  15.382   7.050
 8651POPC   C4B54610  14.395  15.459   7.350
 8652POPC   NC354611   1.952  40.781   5.550
 8652POPC   PO454612   2.037  40.734   5.850
 8652POPC   GL154613   1.948  40.778   6.150
 8652POPC   GL254614   1.845  40.706   6.150
 8652POPC   C1A54615   2.034  40.772   6.450
 8652POPC   D2A54616   1.984  40.753   6.750
 8652POPC   C3A54617   1.957  40.821   7.050
 8652POPC   C4A54618   1.964  40.799   7.350
 8652POPC   C1B54619   1.742  40.639   6.450
 8652POPC   C2B54620   1.790  40.655   6.750
 8652POPC   C3B54621   1.741  40.695   7.050
 8652POPC   C4B54622   1.800  40.718   7.350
 8653POPC   NC354623  43.899  21.393   5.550
 8653POPC   PO454624  43.875  21.419   5.850
 8653POPC   GL154625  43.847  21.418   6.150
 8653POPC   GL254626  43.861  21.531   6.150
 8653POPC   C1A54627  43.916  21.361   6.450
 8653POPC   D2A54628  43.892  21.359   6.750
 8653POPC   C3A54629  43.908  21.401   7.050
 8653POPC   C4A54630  43.934  21.361   7.350
 8653POPC   C1B54631  43.972  21.658   6.450
 8653POPC   C2B54632  43.884  21.672   6.750
 8653POPC   C3B54633  43.956  21.649   7.050
 8653POPC   C4B54634  43.924  21.623   7.350
 8654POPC   NC354635   8.231  42.344   5.550
 8654POPC   PO454636   8.186  42.313   5.850
 8654POPC   GL154637   8.227  42.298   6.150
 8654POPC   GL254638   8.111  42.230   6.150
 8654POPC   C1A54639   8.182  42.336   6.450
 8654POPC   D2A54640   8.158  42.384   6.750
 8654POPC   C3A54641   8.198  42.288   7.050
 8654POPC   C4A54642   8.204  42.303   7.350
 8654POPC   C1B54643   7.999  42.230   6.450
 8654POPC   C2B54644   7.984  42.135   6.750
 8654POPC   C3B54645   7.965  42.177   7.050
 8654POPC   C4B54646   8.021  42.155   7.350
 8655POPC   NC354647  12.854  22.913   5.550
 8655POPC   PO454648  12.823  22.972   5.850
 8655POPC   GL154649  12.802  22.916   6.150
 8655POPC   GL254650  12.989  22.989   6.150
 8655POPC   C1A54651  12.809  22.913   6.450
 8655POPC   D2A54652  12.883  22.962   6.750
 8655POPC   C3A54653  12.803  22.966   7.050
 8655POPC   C4A54654  12.849  22.911   7.350
 8655POPC   C1B54655  13.003  23.126   6.450
 8655POPC   C2B54656  13.056  23.104   6.750
 8655POPC   C3B54657  13.035  23.105   7.050
 8655POPC   C4B54658  13.025  23.112   7.350
 8656POPC   NC354659  13.609  37.652   5.550
 8656POPC   PO454660  13.605  37.723   5.850
 8656POPC   GL154661  13.591  37.636   6.150
 8656POPC   GL254662  13.609  37.808   6.150
 8656POPC   C1A54663  13.649  37.648   6.450
 8656POPC   D2A54664  13.580  37.663   6.750
 8656POPC   C3A54665  13.621  37.726   7.050
 8656POPC   C4A54666  13.664  37.677   7.350
 8656POPC   C1B54667  13.524  37.944   6.450
 8656POPC   C2B54668  13.603  37.947   6.750
 8656POPC   C3B54669  13.512  37.876   7.050
 8656POPC   C4B54670  13.522  37.944   7.350
 8657POPC   NC354671  10.541  19.082   5.550
 8657POPC   PO454672  10.493  19.093   5.850
 8657POPC   GL154673  10.560  19.084   6.150
 8657POPC   GL254674  10.623  19.001   6.150
 8657POPC   C1A54675  10.477  19.079   6.450
 8657POPC   D2A54676  10.552  19.075   6.750
 8657POPC   C3A54677  10.572  19.009   7.050
 8657POPC   C4A54678  10.513  19.021   7.350
 8657POPC   C1B54679  10.712  18.899   6.450
 8657POPC   C2B54680  10.669  18.824   6.750
 8657POPC   C3B54681  10.629  18.874   7.050
 8657POPC   C4B54682  10.631  18.894   7.350
 8658POPC   NC354683  44.695  15.171   5.550
 8658POPC   PO454684  44.620  15.189   5.850
 8658POPC   GL154685  44.673  15.192   6.150
 8658POPC   GL254686  44.815  15.139   6.150
 8658POPC   C1A54687  44.672  15.186   6.450
 8658POPC   D2A54688  44.701  15.227   6.750
 8658POPC   C3A54689  44.678  15.175   7.050
 8658POPC   C4A54690  44.702  15.134   7.350
 8658POPC   C1B54691  44.920  15.061   6.450
 8658POPC   C2B54692  44.915  15.084   6.750
 8658POPC   C3B54693  44.853  15.041   7.050
 8658POPC   C4B54694  44.826  15.025   7.350
 8659POPC   NC354695  14.450  32.287   5.550
 8659POPC   PO454696  14.390  32.283   5.850
 8659POPC   GL154697  14.415  32.252   6.150
 8659POPC   GL254698  14.480  32.248   6.150
 8659POPC   C1A54699  14.379  32.208   6.450
 8659POPC   D2A54700  14.386  32.284   6.750
 8659POPC   C3A54701  14.395  32.296   7.050
 8659POPC   C4A54702  14.385  32.254   7.350
 8659POPC   C1B54703  14.654  32.210   6.450
 8659POPC   C2B54704  14.678  32.216   6.750
 8659POPC   C3B54705  14.668  32.245   7.050
 8659POPC   C4B54706  14.694  32.224   7.350
 8660POPC   NC354707  33.833  20.599   5.550
 8660POPC   PO454708  33.762  20.581   5.850
 8660POPC   GL154709  33.760  20.619   6.150
 8660POPC   GL254710  33.783  20.694   6.150
 8660POPC   C1A54711  33.790  20.640   6.450
 8660POPC   D2A54712  33.780  20.642   6.750
 8660POPC   C3A54713  33.812  20.632   7.050
 8660POPC   C4A54714  33.790  20.639   7.350
 8660POPC   C1B54715  33.703  20.889   6.450
 8660POPC   C2B54716  33.737  20.903   6.750
 8660POPC   C3B54717  33.745  20.861   7.050
 8660POPC   C4B54718  33.703  20.809   7.350
 8661POPC   NC354719  36.129   1.995   5.550
 8661POPC   PO454720  36.086   2.005   5.850
 8661POPC   GL154721  36.079   2.039   6.150
 8661POPC   GL254722  36.144   1.848   6.150
 8661POPC   C1A54723  36.158   1.986   6.450
 8661POPC   D2A54724  36.117   1.949   6.750
 8661POPC   C3A54725  36.156   2.036   7.050
 8661POPC   C4A54726  36.142   2.030   7.350
 8661POPC   C1B54727  36.042   1.739   6.450
 8661POPC   C2B54728  36.049   1.696   6.750
 8661POPC   C3B54729  36.122   1.713   7.050
 8661POPC   C4B54730  36.058   1.733   7.350
 8662POPC   NC354731  26.041  26.053   5.550
 8662POPC   PO454732  26.089  26.041   5.850
 8662POPC   GL154733  26.008  26.090   6.150
 8662POPC   GL254734  26.136  25.953   6.150
 8662POPC   C1A54735  26.000  26.064   6.450
 8662POPC   D2A54736  26.040  26.019   6.750
 8662POPC   C3A54737  26.002  26.029   7.050
 8662POPC   C4A54738  26.012  26.005   7.350
 8662POPC   C1B54739  26.204  25.820   6.450
 8662POPC   C2B54740  26.181  25.806   6.750
 8662POPC   C3B54741  26.164  25.851   7.050
 8662POPC   C4B54742  26.184  25.816   7.350
 8663POPC   NC354743  13.653  43.066   5.550
 8663POPC   PO454744  13.587  43.119   5.850
 8663POPC   GL154745  13.609  43.129   6.150
 8663POPC   GL254746  13.685  43.012   6.150
 8663POPC   C1A54747  13.611  43.072   6.450
 8663POPC   D2A54748  13.656  43.104   6.750
 8663POPC   C3A54749  13.617  43.154   7.050
 8663POPC   C4A54750  13.646  43.115   7.350
 8663POPC   C1B54751  13.846  42.962   6.450
 8663POPC   C2B54752  13.791  42.919   6.750
 8663POPC   C3B54753  13.861  42.999   7.050
 8663POPC   C4B54754  13.826  42.929   7.350
 8664POPC   NC354755  30.738  19.022   5.550
 8664POPC   PO454756  30.702  19.095   5.850
 8664POPC   GL154757  30.689  19.085   6.150
 8664POPC   GL254758  30.840  19.086   6.150
 8664POPC   C1A54759  30.714  19.087   6.450
 8664POPC   D2A54760  30.672  19.102   6.750
 8664POPC   C3A54761  30.720  19.077   7.050
 8664POPC   C4A54762  30.706  19.094   7.350
 8664POPC   C1B54763  30.962  19.001   6.450
 8664POPC   C2B54764  30.975  19.020   6.750
 8664POPC   C3B54765  30.987  19.040   7.050
 8664POPC   C4B54766  30.966  19.086   7.350
 8665POPC   NC354767   5.115   0.410   5.550
 8665POPC   PO454768   5.084   0.444   5.850
 8665POPC   GL154769   5.134   0.477   6.150
 8665POPC   GL254770   5.067   0.302   6.150
 8665POPC   C1A54771   5.137   0.402   6.450
 8665POPC   D2A54772   5.143   0.393   6.750
 8665POPC   C3A54773   5.141   0.456   7.050
 8665POPC   C4A54774   5.103   0.448   7.350
 8665POPC   C1B54775   5.054   0.200   6.450
 8665POPC   C2B54776   5.052   0.230   6.750
 8665POPC   C3B54777   5.082   0.243   7.050
 8665POPC   C4B54778   5.019   0.144   7.350
 8666POPC   NC354779  30.694   1.980   5.550
 8666POPC   PO454780  30.676   2.039   5.850
 8666POPC   GL154781  30.718   2.011   6.150
 8666POPC   GL254782  30.853   2.049   6.150
 8666POPC   C1A54783  30.657   1.963   6.450
 8666POPC   D2A54784  30.745   1.996   6.750
 8666POPC   C3A54785  30.675   2.012   7.050
 8666POPC   C4A54786  30.687   2.014   7.350
 8666POPC   C1B54787  30.938   2.096   6.450
 8666POPC   C2B54788  30.963   2.055   6.750
 8666POPC   C3B54789  30.942   2.107   7.050
 8666POPC   C4B54790  30.945   2.026   7.350
 8667POPC   NC354791  27.571  15.993   5.550
 8667POPC   PO454792  27.581  15.959   5.850
 8667POPC   GL154793  27.599  15.967   6.150
 8667POPC   GL254794  27.524  16.037   6.150
 8667POPC   C1A54795  27.575  15.982   6.450
 8667POPC   D2A54796  27.615  15.993   6.750
 8667POPC   C3A54797  27.599  15.948   7.050
 8667POPC   C4A54798  27.563  16.003   7.350
 8667POPC   C1B54799  27.487  16.214   6.450
 8667POPC   C2B54800  27.521  16.180   6.750
 8667POPC   C3B54801  27.430  16.174   7.050
 8667POPC   C4B54802  27.457  16.213   7.350
 8668POPC   NC354803  21.349  29.908   5.550
 8668POPC   PO454804  21.405  29.906   5.850
 8668POPC   GL154805  21.371  29.914   6.150
 8668POPC   GL254806  21.336  30.012   6.150
 8668POPC   C1A54807  21.355  29.968   6.450
 8668POPC   D2A54808  21.393  29.907   6.750
 8668POPC   C3A54809  21.414  29.927   7.050
 8668POPC   C4A54810  21.395  29.910   7.350
 8668POPC   C1B54811  21.364  30.188   6.450
 8668POPC   C2B54812  21.337  30.145   6.750
 8668POPC   C3B54813  21.391  30.200   7.050
 8668POPC   C4B54814  21.325  30.127   7.350
 8669POPC   NC354815   4.339  29.118   5.550
 8669POPC   PO454816   4.282  29.177   5.850
 8669POPC   GL154817   4.346  29.187   6.150
 8669POPC   GL254818   4.248  29.237   6.150
 8669POPC   C1A54819   4.363  29.148   6.450
 8669POPC   D2A54820   4.323  29.136   6.750
 8669POPC   C3A54821   4.280  29.160   7.050
 8669POPC   C4A54822   4.291  29.098   7.350
 8669POPC   C1B54823   4.080  29.309   6.450
 8669POPC   C2B54824   4.130  29.262   6.750
 8669POPC   C3B54825   4.052  29.268   7.050
 8669POPC   C4B54826   4.102  29.235   7.350
 8670POPC   NC354827   0.399  36.925   5.550
 8670POPC   PO454828   0.431  36.938   5.850
 8670POPC   GL154829   0.396  36.944   6.150
 8670POPC   GL254830   0.402  37.061   6.150
 8670POPC   C1A54831   0.427  36.891   6.450
 8670POPC   D2A54832   0.428  36.891   6.750
 8670POPC   C3A54833   0.409  36.896   7.050
 8670POPC   C4A54834   0.388  36.928   7.350
 8670POPC   C1B54835   0.422  37.201   6.450
 8670POPC   C2B54836   0.427  37.127   6.750
 8670POPC   C3B54837   0.486  37.123   7.050
 8670POPC   C4B54838   0.398  37.191   7.350
 8671POPC   NC354839  31.489  32.242   5.550
 8671POPC   PO454840  31.465  32.253   5.850
 8671POPC   GL154841  31.476  32.204   6.150
 8671POPC   GL254842  31.592  32.258   6.150
 8671POPC   C1A54843  31.488  32.211   6.450
 8671POPC   D2A54844  31.448  32.213   6.750
 8671POPC   C3A54845  31.482  32.252   7.050
 8671POPC   C4A54846  31.437  32.253   7.350
 8671POPC   C1B54847  31.703  32.276   6.450
 8671POPC   C2B54848  31.705  32.238   6.750
 8671POPC   C3B54849  31.706  32.280   7.050
 8671POPC   C4B54850  31.676  32.272   7.350
 8672POPC   NC354851   2.737  39.968   5.550
 8672POPC   PO454852   2.772  40.026   5.850
 8672POPC   GL154853   2.736  40.006   6.150
 8672POPC   GL254854   2.716  40.086   6.150
 8672POPC   C1A54855   2.731  39.976   6.450
 8672POPC   D2A54856   2.798  39.994   6.750
 8672POPC   C3A54857   2.805  40.052   7.050
 8672POPC   C4A54858   2.782  40.021   7.350
 8672POPC   C1B54859   2.641  40.252   6.450
 8672POPC   C2B54860   2.615  40.272   6.750
 8672POPC   C3B54861   2.690  40.212   7.050
 8672POPC   C4B54862   2.620  40.246   7.350
 8673POPC   NC354863   7.435  20.633   5.550
 8673POPC   PO454864   7.446  20.592   5.850
 8673POPC   GL154865   7.461  20.623   6.150
 8673POPC   GL254866   7.510  20.685   6.150
 8673POPC   C1A54867   7.465  20.640   6.450
 8673POPC   D2A54868   7.412  20.629   6.750
 8673POPC   C3A54869   7.447  20.632   7.050
 8673POPC   C4A54870   7.406  20.588   7.350
 8673POPC   C1B54871   7.643  20.776   6.450
 8673POPC   C2B54872   7.575  20.790   6.750
 8673POPC   C3B54873   7.604  20.763   7.050
 8673POPC   C4B54874   7.582  20.781   7.350
 8674POPC   NC354875   4.279  21.418   5.550
 8674POPC   PO454876   4.269  21.433   5.850
 8674POPC   GL154877   4.318  21.387   6.150
 8674POPC   GL254878   4.431  21.352   6.150
 8674POPC   C1A54879   4.295  21.409   6.450
 8674POPC   D2A54880   4.287  21.345   6.750
 8674POPC   C3A54881   4.359  21.430   7.050
 8674POPC   C4A54882   4.340  21.400   7.350
 8674POPC   C1B54883   4.504  21.245   6.450
 8674POPC   C2B54884   4.591  21.245   6.750
 8674POPC   C3B54885   4.572  21.259   7.050
 8674POPC   C4B54886   4.571  21.274   7.350
 8675POPC   NC354887  35.325  11.306   5.550
 8675POPC   PO454888  35.350  11.272   5.850
 8675POPC   GL154889  35.327  11.307   6.150
 8675POPC   GL254890  35.516  11.346   6.150
 8675POPC   C1A54891  35.313  11.326   6.450
 8675POPC   D2A54892  35.362  11.291   6.750
 8675POPC   C3A54893  35.380  11.301   7.050
 8675POPC   C4A54894  35.333  11.327   7.350
 8675POPC   C1B54895  35.554  11.261   6.450
 8675POPC   C2B54896  35.592  11.310   6.750
 8675POPC   C3B54897  35.557  11.269   7.050
 8675POPC   C4B54898  35.649  11.263   7.350
 8676POPC   NC354899  24.506   0.388   5.550
 8676POPC   PO454900  24.442   0.444   5.850
 8676POPC   GL154901  24.517   0.397   6.150
 8676POPC   GL254902  24.385   0.552   6.150
 8676POPC   C1A54903  24.474   0.451   6.450
 8676POPC   D2A54904  24.442   0.395   6.750
 8676POPC   C3A54905  24.472   0.453   7.050
 8676POPC   C4A54906  24.522   0.435   7.350
 8676POPC   C1B54907  24.277   0.616   6.450
 8676POPC   C2B54908  24.340   0.581   6.750
 8676POPC   C3B54909  24.331   0.628   7.050
 8676POPC   C4B54910  24.276   0.576   7.350
 8677POPC   NC354911  39.210  22.967   5.550
 8677POPC   PO454912  39.225  22.891   5.850
 8677POPC   GL154913  39.229  22.924   6.150
 8677POPC   GL254914  39.402  22.900   6.150
 8677POPC   C1A54915  39.230  22.925   6.450
 8677POPC   D2A54916  39.275  22.977   6.750
 8677POPC   C3A54917  39.235  22.899   7.050
 8677POPC   C4A54918  39.215  22.962   7.350
 8677POPC   C1B54919  39.442  22.939   6.450
 8677POPC   C2B54920  39.488  22.953   6.750
 8677POPC   C3B54921  39.505  22.915   7.050
 8677POPC   C4B54922  39.521  22.907   7.350
 8678POPC   NC354923  22.116  27.608   5.550
 8678POPC   PO454924  22.190  27.607   5.850
 8678POPC   GL154925  22.206  27.639   6.150
 8678POPC   GL254926  22.046  27.541   6.150
 8678POPC   C1A54927  22.181  27.621   6.450
 8678POPC   D2A54928  22.115  27.595   6.750
 8678POPC   C3A54929  22.190  27.624   7.050
 8678POPC   C4A54930  22.142  27.621   7.350
 8678POPC   C1B54931  21.931  27.530   6.450
 8678POPC   C2B54932  21.957  27.580   6.750
 8678POPC   C3B54933  21.911  27.545   7.050
 8678POPC   C4B54934  21.897  27.571   7.350
 8679POPC   NC354935  43.079   6.655   5.550
 8679POPC   PO454936  43.154   6.684   5.850
 8679POPC   GL154937  43.080   6.620   6.150
 8679POPC   GL254938  43.272   6.676   6.150
 8679POPC   C1A54939  43.085   6.610   6.450
 8679POPC   D2A54940  43.159   6.597   6.750
 8679POPC   C3A54941  43.152   6.622   7.050
 8679POPC   C4A54942  43.102   6.627   7.350
 8679POPC   C1B54943  43.316   6.637   6.450
 8679POPC   C2B54944  43.357   6.611   6.750
 8679POPC   C3B54945  43.366   6.608   7.050
 8679POPC   C4B54946  43.355   6.643   7.350
 8680POPC   NC354947  40.766   7.464   5.550
 8680POPC   PO454948  40.779   7.374   5.850
 8680POPC   GL154949  40.784   7.461   6.150
 8680POPC   GL254950  40.713   7.378   6.150
 8680POPC   C1A54951  40.752   7.415   6.450
 8680POPC   D2A54952  40.749   7.378   6.750
 8680POPC   C3A54953  40.797   7.380   7.050
 8680POPC   C4A54954  40.795   7.422   7.350
 8680POPC   C1B54955  40.607   7.208   6.450
 8680POPC   C2B54956  40.562   7.288   6.750
 8680POPC   C3B54957  40.650   7.243   7.050
 8680POPC   C4B54958  40.632   7.282   7.350
 8681POPC   NC354959  12.079  16.762   5.550
 8681POPC   PO454960  12.084  16.763   5.850
 8681POPC   GL154961  12.108  16.691   6.150
 8681POPC   GL254962  12.181  16.657   6.150
 8681POPC   C1A54963  12.113  16.691   6.450
 8681POPC   D2A54964  12.047  16.767   6.750
 8681POPC   C3A54965  12.103  16.715   7.050
 8681POPC   C4A54966  12.067  16.730   7.350
 8681POPC   C1B54967  12.208  16.502   6.450
 8681POPC   C2B54968  12.236  16.552   6.750
 8681POPC   C3B54969  12.210  16.526   7.050
 8681POPC   C4B54970  12.217  16.550   7.350
 8682POPC   NC354971  15.204  15.957   5.550
 8682POPC   PO454972  15.131  15.974   5.850
 8682POPC   GL154973  15.141  15.905   6.150
 8682POPC   GL254974  15.064  15.969   6.150
 8682POPC   C1A54975  15.166  15.987   6.450
 8682POPC   D2A54976  15.188  16.004   6.750
 8682POPC   C3A54977  15.162  15.956   7.050
 8682POPC   C4A54978  15.170  15.983   7.350
 8682POPC   C1B54979  14.958  15.989   6.450
 8682POPC   C2B54980  14.914  15.996   6.750
 8682POPC   C3B54981  14.973  15.937   7.050
 8682POPC   C4B54982  14.904  15.961   7.350
 8683POPC   NC354983  28.345   8.971   5.550
 8683POPC   PO454984  28.348   9.016   5.850
 8683POPC   GL154985  28.392   8.998   6.150
 8683POPC   GL254986  28.266   8.994   6.150
 8683POPC   C1A54987  28.378   8.971   6.450
 8683POPC   D2A54988  28.418   8.999   6.750
 8683POPC   C3A54989  28.378   8.954   7.050
 8683POPC   C4A54990  28.320   8.984   7.350
 8683POPC   C1B54991  28.102   8.943   6.450
 8683POPC   C2B54992  28.106   9.006   6.750
 8683POPC   C3B54993  28.107   8.958   7.050
 8683POPC   C4B54994  28.070   8.950   7.350
 8684POPC   NC354995  36.084  38.462   5.550
 8684POPC   PO454996  36.099  38.422   5.850
 8684POPC   GL154997  36.103  38.496   6.150
 8684POPC   GL254998  36.000  38.331   6.150
 8684POPC   C1A54999  36.116  38.482   6.450
 8684POPC   D2A55000  36.089  38.448   6.750
 8684POPC   C3A55001  36.147  38.464   7.050
 8684POPC   C4A55002  36.128  38.436   7.350
 8684POPC   C1B55003  36.005  38.225   6.450
 8684POPC   C2B55004  35.989  38.222   6.750
 8684POPC   C3B55005  35.977  38.225   7.050
 8684POPC   C4B55006  35.966  38.294   7.350
 8685POPC   NC355007  21.425  15.158   5.550
 8685POPC   PO455008  21.435  15.209   5.850
 8685POPC   GL155009  21.357  15.184   6.150
 8685POPC   GL255010  21.305  15.158   6.150
 8685POPC   C1A55011  21.435  15.181   6.450
 8685POPC   D2A55012  21.409  15.166   6.750
 8685POPC   C3A55013  21.392  15.196   7.050
 8685POPC   C4A55014  21.370  15.147   7.350
 8685POPC   C1B55015  21.196  15.019   6.450
 8685POPC   C2B55016  21.209  15.084   6.750
 8685POPC   C3B55017  21.144  15.080   7.050
 8685POPC   C4B55018  21.127  15.042   7.350
 8686POPC   NC355019   5.098  37.638   5.550
 8686POPC   PO455020   5.071  37.679   5.850
 8686POPC   GL155021   5.141  37.635   6.150
 8686POPC   GL255022   5.150  37.642   6.150
 8686POPC   C1A55023   5.066  37.673   6.450
 8686POPC   D2A55024   5.073  37.701   6.750
 8686POPC   C3A55025   5.088  37.711   7.050
 8686POPC   C4A55026   5.080  37.702   7.350
 8686POPC   C1B55027   5.327  37.556   6.450
 8686POPC   C2B55028   5.251  37.542   6.750
 8686POPC   C3B55029   5.297  37.540   7.050
 8686POPC   C4B55030   5.261  37.492   7.350
 8687POPC   NC355031  43.916  19.045   5.550
 8687POPC   PO455032  43.871  19.030   5.850
 8687POPC   GL155033  43.883  19.069   6.150
 8687POPC   GL255034  43.839  18.955   6.150
 8687POPC   C1A55035  43.856  19.021   6.450
 8687POPC   D2A55036  43.898  19.058   6.750
 8687POPC   C3A55037  43.882  19.062   7.050
 8687POPC   C4A55038  43.932  19.066   7.350
 8687POPC   C1B55039  43.786  18.830   6.450
 8687POPC   C2B55040  43.815  18.838   6.750
 8687POPC   C3B55041  43.867  18.765   7.050
 8687POPC   C4B55042  43.787  18.813   7.350
 8688POPC   NC355043   1.966  20.615   5.550
 8688POPC   PO455044   1.970  20.660   5.850
 8688POPC   GL155045   1.958  20.658   6.150
 8688POPC   GL255046   2.055  20.551   6.150
 8688POPC   C1A55047   1.982  20.586   6.450
 8688POPC   D2A55048   2.004  20.656   6.750
 8688POPC   C3A55049   2.016  20.595   7.050
 8688POPC   C4A55050   1.953  20.608   7.350
 8688POPC   C1B55051   2.196  20.473   6.450
 8688POPC   C2B55052   2.209  20.467   6.750
 8688POPC   C3B55053   2.194  20.425   7.050
 8688POPC   C4B55054   2.218  20.446   7.350
 8689POPC   NC355055   2.028  37.684   5.550
 8689POPC   PO455056   1.978  37.703   5.850
 8689POPC   GL155057   2.004  37.661   6.150
 8689POPC   GL255058   1.913  37.773   6.150
 8689POPC   C1A55059   1.988  37.720   6.450
 8689POPC   D2A55060   1.992  37.667   6.750
 8689POPC   C3A55061   2.031  37.683   7.050
 8689POPC   C4A55062   1.984  37.705   7.350
 8689POPC   C1B55063   1.850  37.930   6.450
 8689POPC   C2B55064   1.928  37.932   6.750
 8689POPC   C3B55065   1.859  37.912   7.050
 8689POPC   C4B55066   1.855  37.872   7.350
 8690POPC   NC355067   1.185  29.941   5.550
 8690POPC   PO455068   1.195  29.928   5.850
 8690POPC   GL155069   1.211  29.883   6.150
 8690POPC   GL255070   1.303  29.774   6.150
 8690POPC   C1A55071   1.175  29.902   6.450
 8690POPC   D2A55072   1.246  29.894   6.750
 8690POPC   C3A55073   1.248  29.926   7.050
 8690POPC   C4A55074   1.180  29.872   7.350
 8690POPC   C1B55075   1.385  29.693   6.450
 8690POPC   C2B55076   1.379  29.727   6.750
 8690POPC   C3B55077   1.320  29.707   7.050
 8690POPC   C4B55078   1.405  29.676   7.350
 8691POPC   NC355079  17.477   8.983   5.550
 8691POPC   PO455080  17.469   9.002   5.850
 8691POPC   GL155081  17.533   8.927   6.150
 8691POPC   GL255082  17.432   8.854   6.150
 8691POPC   C1A55083  17.502   8.955   6.450
 8691POPC   D2A55084  17.550   8.995   6.750
 8691POPC   C3A55085  17.534   8.928   7.050
 8691POPC   C4A55086  17.515   8.955   7.350
 8691POPC   C1B55087  17.327   8.828   6.450
 8691POPC   C2B55088  17.287   8.817   6.750
 8691POPC   C3B55089  17.334   8.765   7.050
 8691POPC   C4B55090  17.326   8.780   7.350
 8692POPC   NC355091  28.409  29.880   5.550
 8692POPC   PO455092  28.365  29.929   5.850
 8692POPC   GL155093  28.327  29.948   6.150
 8692POPC   GL255094  28.449  29.999   6.150
 8692POPC   C1A55095  28.406  29.959   6.450
 8692POPC   D2A55096  28.377  29.956   6.750
 8692POPC   C3A55097  28.349  29.885   7.050
 8692POPC   C4A55098  28.412  29.933   7.350
 8692POPC   C1B55099  28.479  30.116   6.450
 8692POPC   C2B55100  28.450  30.086   6.750
 8692POPC   C3B55101  28.519  30.122   7.050
 8692POPC   C4B55102  28.539  30.177   7.350
 8693POPC   NC355103  37.655  37.710   5.550
 8693POPC   PO455104  37.665  37.681   5.850
 8693POPC   GL155105  37.694  37.662   6.150
 8693POPC   GL255106  37.651  37.519   6.150
 8693POPC   C1A55107  37.648  37.720   6.450
 8693POPC   D2A55108  37.634  37.673   6.750
 8693POPC   C3A55109  37.650  37.709   7.050
 8693POPC   C4A55110  37.637  37.702   7.350
 8693POPC   C1B55111  37.612  37.435   6.450
 8693POPC   C2B55112  37.526  37.452   6.750
 8693POPC   C3B55113  37.569  37.414   7.050
 8693POPC   C4B55114  37.577  37.424   7.350
 8694POPC   NC355115  42.285   5.848   5.550
 8694POPC   PO455116  42.298   5.879   5.850
 8694POPC   GL155117  42.308   5.845   6.150
 8694POPC   GL255118  42.447   6.001   6.150
 8694POPC   C1A55119  42.316   5.819   6.450
 8694POPC   D2A55120  42.315   5.887   6.750
 8694POPC   C3A55121  42.351   5.838   7.050
 8694POPC   C4A55122  42.324   5.835   7.350
 8694POPC   C1B55123  42.509   6.009   6.450
 8694POPC   C2B55124  42.524   6.009   6.750
 8694POPC   C3B55125  42.468   6.051   7.050
 8694POPC   C4B55126  42.463   6.061   7.350
 8695POPC   NC355127  43.907  20.580   5.550
 8695POPC   PO455128  43.877  20.588   5.850
 8695POPC   GL155129  43.841  20.573   6.150
 8695POPC   GL255130  43.985  20.613   6.150
 8695POPC   C1A55131  43.843  20.642   6.450
 8695POPC   D2A55132  43.877  20.625   6.750
 8695POPC   C3A55133  43.845  20.608   7.050
 8695POPC   C4A55134  43.914  20.627   7.350
 8695POPC   C1B55135  44.181  20.552   6.450
 8695POPC   C2B55136  44.090  20.631   6.750
 8695POPC   C3B55137  44.183  20.626   7.050
 8695POPC   C4B55138  44.155  20.569   7.350
 8696POPC   NC355139  36.088  17.465   5.550
 8696POPC   PO455140  36.109  17.489   5.850
 8696POPC   GL155141  36.110  17.499   6.150
 8696POPC   GL255142  36.204  17.362   6.150
 8696POPC   C1A55143  36.138  17.492   6.450
 8696POPC   D2A55144  36.094  17.505   6.750
 8696POPC   C3A55145  36.158  17.492   7.050
 8696POPC   C4A55146  36.090  17.468   7.350
 8696POPC   C1B55147  36.183  17.260   6.450
 8696POPC   C2B55148  36.171  17.299   6.750
 8696POPC   C3B55149  36.247  17.257   7.050
 8696POPC   C4B55150  36.254  17.308   7.350
 8697POPC   NC355151  25.250  33.754   5.550
 8697POPC   PO455152  25.257  33.819   5.850
 8697POPC   GL155153  25.272  33.833   6.150
 8697POPC   GL255154  25.315  33.959   6.150
 8697POPC   C1A55155  25.258  33.824   6.450
 8697POPC   D2A55156  25.303  33.777   6.750
 8697POPC   C3A55157  25.236  33.826   7.050
 8697POPC   C4A55158  25.228  33.771   7.350
 8697POPC   C1B55159  25.340  33.992   6.450
 8697POPC   C2B55160  25.369  34.045   6.750
 8697POPC   C3B55161  25.330  34.063   7.050
 8697POPC   C4B55162  25.377  34.020   7.350
 8698POPC   NC355163  39.973  12.125   5.550
 8698POPC   PO455164  39.982  12.076   5.850
 8698POPC   GL155165  40.008  12.093   6.150
 8698POPC   GL255166  40.053  12.174   6.150
 8698POPC   C1A55167  40.054  12.118   6.450
 8698POPC   D2A55168  40.047  12.102   6.750
 8698POPC   C3A55169  39.960  12.102   7.050
 8698POPC   C4A55170  39.979  12.110   7.350
 8698POPC   C1B55171  40.045  12.285   6.450
 8698POPC   C2B55172  40.044  12.329   6.750
 8698POPC   C3B55173  40.085  12.349   7.050
 8698POPC   C4B55174  40.052  12.363   7.350
 8699POPC   NC355175  26.820  24.466   5.550
 8699POPC   PO455176  26.804  24.443   5.850
 8699POPC   GL155177  26.837  24.466   6.150
 8699POPC   GL255178  26.964  24.537   6.150
 8699POPC   C1A55179  26.855  24.493   6.450
 8699POPC   D2A55180  26.853  24.503   6.750
 8699POPC   C3A55181  26.840  24.518   7.050
 8699POPC   C4A55182  26.781  24.446   7.350
 8699POPC   C1B55183  27.048  24.657   6.450
 8699POPC   C2B55184  27.005  24.569   6.750
 8699POPC   C3B55185  26.989  24.646   7.050
 8699POPC   C4B55186  26.997  24.647   7.350
 8700POPC   NC355187   7.445  43.112   5.550
 8700POPC   PO455188   7.440  43.124   5.850
 8700POPC   GL155189   7.435  43.108   6.150
 8700POPC   GL255190   7.476  43.065   6.150
 8700POPC   C1A55191   7.440  43.141   6.450
 8700POPC   D2A55192   7.395  43.083   6.750
 8700POPC   C3A55193   7.440  43.136   7.050
 8700POPC   C4A55194   7.415  43.085   7.350
 8700POPC   C1B55195   7.582  42.940   6.450
 8700POPC   C2B55196   7.581  42.972   6.750
 8700POPC   C3B55197   7.593  42.975   7.050
 8700POPC   C4B55198   7.598  42.970   7.350
 8701POPC   NC355199   7.439  33.047   5.550
 8701POPC   PO455200   7.393  33.052   5.850
 8701POPC   GL155201   7.394  32.989   6.150
 8701POPC   GL255202   7.260  33.017   6.150
 8701POPC   C1A55203   7.376  33.004   6.450
 8701POPC   D2A55204   7.426  32.991   6.750
 8701POPC   C3A55205   7.402  33.044   7.050
 8701POPC   C4A55206   7.387  33.065   7.350
 8701POPC   C1B55207   7.149  33.017   6.450
 8701POPC   C2B55208   7.161  33.014   6.750
 8701POPC   C3B55209   7.220  32.970   7.050
 8701POPC   C4B55210   7.142  33.009   7.350
 8702POPC   NC355211   9.009  18.257   5.550
 8702POPC   PO455212   8.972  18.293   5.850
 8702POPC   GL155213   8.949  18.248   6.150
 8702POPC   GL255214   8.863  18.182   6.150
 8702POPC   C1A55215   8.936  18.302   6.450
 8702POPC   D2A55216   8.970  18.294   6.750
 8702POPC   C3A55217   8.925  18.237   7.050
 8702POPC   C4A55218   8.979  18.266   7.350
 8702POPC   C1B55219   8.792  18.202   6.450
 8702POPC   C2B55220   8.764  18.199   6.750
 8702POPC   C3B55221   8.733  18.176   7.050
 8702POPC   C4B55222   8.715  18.152   7.350
 8703POPC   NC355223  22.951  27.610   5.550
 8703POPC   PO455224  22.922  27.604   5.850
 8703POPC   GL155225  22.932  27.597   6.150
 8703POPC   GL255226  23.053  27.711   6.150
 8703POPC   C1A55227  22.920  27.550   6.450
 8703POPC   D2A55228  22.899  27.615   6.750
 8703POPC   C3A55229  22.893  27.600   7.050
 8703POPC   C4A55230  22.975  27.576   7.350
 8703POPC   C1B55231  23.085  27.777   6.450
 8703POPC   C2B55232  23.155  27.776   6.750
 8703POPC   C3B55233  23.086  27.800   7.050
 8703POPC   C4B55234  23.109  27.739   7.350
 8704POPC   NC355235  39.976  41.605   5.550
 8704POPC   PO455236  39.969  41.589   5.850
 8704POPC   GL155237  39.997  41.566   6.150
 8704POPC   GL255238  39.932  41.608   6.150
 8704POPC   C1A55239  39.998  41.584   6.450
 8704POPC   D2A55240  39.962  41.549   6.750
 8704POPC   C3A55241  40.042  41.568   7.050
 8704POPC   C4A55242  39.957  41.539   7.350
 8704POPC   C1B55243  39.753  41.600   6.450
 8704POPC   C2B55244  39.762  41.607   6.750
 8704POPC   C3B55245  39.728  41.566   7.050
 8704POPC   C4B55246  39.712  41.561   7.350
 8705POPC   NC355247  29.910   2.774   5.550
 8705POPC   PO455248  29.895   2.801   5.850
 8705POPC   GL155249  29.963   2.733   6.150
 8705POPC   GL255250  29.950   2.857   6.150
 8705POPC   C1A55251  29.927   2.803   6.450
 8705POPC   D2A55252  29.907   2.775   6.750
 8705POPC   C3A55253  29.914   2.745   7.050
 8705POPC   C4A55254  29.908   2.720   7.350
 8705POPC   C1B55255  30.038   2.989   6.450
 8705POPC   C2B55256  30.086   2.991   6.750
 8705POPC   C3B55257  30.078   2.962   7.050
 8705POPC   C4B55258  30.102   2.915   7.350
 8706POPC   NC355259  19.869   3.565   5.550
 8706POPC   PO455260  19.807   3.578   5.850
 8706POPC   GL155261  19.877   3.499   6.150
 8706POPC   GL255262  19.777   3.641   6.150
 8706POPC   C1A55263  19.869   3.507   6.450
 8706POPC   D2A55264  19.853   3.560   6.750
 8706POPC   C3A55265  19.860   3.541   7.050
 8706POPC   C4A55266  19.867   3.514   7.350
 8706POPC   C1B55267  19.664   3.747   6.450
 8706POPC   C2B55268  19.672   3.708   6.750
 8706POPC   C3B55269  19.609   3.738   7.050
 8706POPC   C4B55270  19.600   3.699   7.350
 8707POPC   NC355271  33.023  17.507   5.550
 8707POPC   PO455272  33.014  17.526   5.850
 8707POPC   GL155273  32.982  17.511   6.150
 8707POPC   GL255274  32.875  17.582   6.150
 8707POPC   C1A55275  32.988  17.547   6.450
 8707POPC   D2A55276  33.013  17.509   6.750
 8707POPC   C3A55277  33.004  17.464   7.050
 8707POPC   C4A55278  32.986  17.481   7.350
 8707POPC   C1B55279  32.847  17.637   6.450
 8707POPC   C2B55280  32.809  17.646   6.750
 8707POPC   C3B55281  32.859  17.659   7.050
 8707POPC   C4B55282  32.832  17.646   7.350
 8708POPC   NC355283  22.911   2.760   5.550
 8708POPC   PO455284  22.959   2.770   5.850
 8708POPC   GL155285  22.953   2.804   6.150
 8708POPC   GL255286  22.850   2.781   6.150
 8708POPC   C1A55287  22.958   2.735   6.450
 8708POPC   D2A55288  22.984   2.732   6.750
 8708POPC   C3A55289  22.979   2.796   7.050
 8708POPC   C4A55290  22.934   2.764   7.350
 8708POPC   C1B55291  22.738   2.771   6.450
 8708POPC   C2B55292  22.711   2.739   6.750
 8708POPC   C3B55293  22.698   2.732   7.050
 8708POPC   C4B55294  22.657   2.766   7.350
 8709POPC   NC355295   2.024  26.792   5.550
 8709POPC   PO455296   2.007  26.785   5.850
 8709POPC   GL155297   2.008  26.773   6.150
 8709POPC   GL255298   2.106  26.687   6.150
 8709POPC   C1A55299   1.987  26.822   6.450
 8709POPC   D2A55300   1.948  26.776   6.750
 8709POPC   C3A55301   1.958  26.801   7.050
 8709POPC   C4A55302   1.999  26.798   7.350
 8709POPC   C1B55303   2.119  26.595   6.450
 8709POPC   C2B55304   2.189  26.683   6.750
 8709POPC   C3B55305   2.122  26.658   7.050
 8709POPC   C4B55306   2.123  26.629   7.350
 8710POPC   NC355307   2.013  43.157   5.550
 8710POPC   PO455308   1.961  43.103   5.850
 8710POPC   GL155309   2.020  43.126   6.150
 8710POPC   GL255310   1.917  43.229   6.150
 8710POPC   C1A55311   1.957  43.081   6.450
 8710POPC   D2A55312   1.972  43.085   6.750
 8710POPC   C3A55313   2.031  43.065   7.050
 8710POPC   C4A55314   2.001  43.073   7.350
 8710POPC   C1B55315   1.917  43.370   6.450
 8710POPC   C2B55316   1.914  43.298   6.750
 8710POPC   C3B55317   1.927  43.305   7.050
 8710POPC   C4B55318   1.929  43.348   7.350
 8711POPC   NC355319  39.979  31.495   5.550
 8711POPC   PO455320  40.034  31.449   5.850
 8711POPC   GL155321  40.052  31.478   6.150
 8711POPC   GL255322  40.026  31.593   6.150
 8711POPC   C1A55323  39.973  31.497   6.450
 8711POPC   D2A55324  40.003  31.518   6.750
 8711POPC   C3A55325  40.045  31.436   7.050
 8711POPC   C4A55326  40.040  31.429   7.350
 8711POPC   C1B55327  40.139  31.718   6.450
 8711POPC   C2B55328  40.096  31.684   6.750
 8711POPC   C3B55329  40.150  31.653   7.050
 8711POPC   C4B55330  40.093  31.720   7.350
 8712POPC   NC355331  12.864  35.342   5.550
 8712POPC   PO455332  12.858  35.302   5.850
 8712POPC   GL155333  12.850  35.303   6.150
 8712POPC   GL255334  12.904  35.493   6.150
 8712POPC   C1A55335  12.876  35.325   6.450
 8712POPC   D2A55336  12.891  35.364   6.750
 8712POPC   C3A55337  12.867  35.303   7.050
 8712POPC   C4A55338  12.856  35.385   7.350
 8712POPC   C1B55339  12.954  35.560   6.450
 8712POPC   C2B55340  12.921  35.545   6.750
 8712POPC   C3B55341  12.900  35.555   7.050
 8712POPC   C4B55342  12.875  35.595   7.350
 8713POPC   NC355343   0.449  39.228   5.550
 8713POPC   PO455344   0.468  39.229   5.850
 8713POPC   GL155345   0.410  39.229   6.150
 8713POPC   GL255346   0.438  39.118   6.150
 8713POPC   C1A55347   0.402  39.278   6.450
 8713POPC   D2A55348   0.436  39.221   6.750
 8713POPC   C3A55349   0.410  39.270   7.050
 8713POPC   C4A55350   0.412  39.232   7.350
 8713POPC   C1B55351   0.312  39.040   6.450
 8713POPC   C2B55352   0.309  38.969   6.750
 8713POPC   C3B55353   0.322  39.029   7.050
 8713POPC   C4B55354   0.302  38.970   7.350
 8714POPC   NC355355  43.931  30.727   5.550
 8714POPC   PO455356  43.843  30.647   5.850
 8714POPC   GL155357  43.878  30.722   6.150
 8714POPC   GL255358  43.812  30.716   6.150
 8714POPC   C1A55359  43.924  30.721   6.450
 8714POPC   D2A55360  43.921  30.704   6.750
 8714POPC   C3A55361  43.896  30.650   7.050
 8714POPC   C4A55362  43.899  30.678   7.350
 8714POPC   C1B55363  43.649  30.615   6.450
 8714POPC   C2B55364  43.621  30.669   6.750
 8714POPC   C3B55365  43.611  30.681   7.050
 8714POPC   C4B55366  43.666  30.655   7.350
 8715POPC   NC355367   1.954  16.774   5.550
 8715POPC   PO455368   1.945  16.695   5.850
 8715POPC   GL155369   1.980  16.689   6.150
 8715POPC   GL255370   1.897  16.746   6.150
 8715POPC   C1A55371   1.960  16.722   6.450
 8715POPC   D2A55372   2.027  16.751   6.750
 8715POPC   C3A55373   2.038  16.780   7.050
 8715POPC   C4A55374   1.998  16.777   7.350
 8715POPC   C1B55375   1.722  16.628   6.450
 8715POPC   C2B55376   1.771  16.627   6.750
 8715POPC   C3B55377   1.728  16.682   7.050
 8715POPC   C4B55378   1.784  16.625   7.350
 8716POPC   NC355379   4.298  28.346   5.550
 8716POPC   PO455380   4.362  28.332   5.850
 8716POPC   GL155381   4.284  28.380   6.150
 8716POPC   GL255382   4.397  28.282   6.150
 8716POPC   C1A55383   4.300  28.357   6.450
 8716POPC   D2A55384   4.366  28.373   6.750
 8716POPC   C3A55385   4.300  28.404   7.050
 8716POPC   C4A55386   4.320  28.321   7.350
 8716POPC   C1B55387   4.438  28.166   6.450
 8716POPC   C2B55388   4.473  28.145   6.750
 8716POPC   C3B55389   4.463  28.227   7.050
 8716POPC   C4B55390   4.449  28.220   7.350
 8717POPC   NC355391  44.674  31.463   5.550
 8717POPC   PO455392  44.688  31.475   5.850
 8717POPC   GL155393  44.619  31.454   6.150
 8717POPC   GL255394  44.509  31.488   6.150
 8717POPC   C1A55395  44.667  31.509   6.450
 8717POPC   D2A55396  44.615  31.491   6.750
 8717POPC   C3A55397  44.698  31.438   7.050
 8717POPC   C4A55398  44.650  31.451   7.350
 8717POPC   C1B55399  44.456  31.397   6.450
 8717POPC   C2B55400  44.385  31.421   6.750
 8717POPC   C3B55401  44.411  31.409   7.050
 8717POPC   C4B55402  44.368  31.442   7.350
 8718POPC   NC355403  43.141  22.211   5.550
 8718POPC   PO455404  43.119  22.167   5.850
 8718POPC   GL155405  43.143  22.206   6.150
 8718POPC   GL255406  43.044  22.110   6.150
 8718POPC   C1A55407  43.134  22.154   6.450
 8718POPC   D2A55408  43.078  22.207   6.750
 8718POPC   C3A55409  43.135  22.138   7.050
 8718POPC   C4A55410  43.148  22.196   7.350
 8718POPC   C1B55411  42.895  22.052   6.450
 8718POPC   C2B55412  42.871  22.008   6.750
 8718POPC   C3B55413  42.881  22.022   7.050
 8718POPC   C4B55414  42.926  22.020   7.350
 8719POPC   NC355415  26.811  12.057   5.550
 8719POPC   PO455416  26.795  12.086   5.850
 8719POPC   GL155417  26.810  12.076   6.150
 8719POPC   GL255418  26.859  12.178   6.150
 8719POPC   C1A55419  26.852  12.032   6.450
 8719POPC   D2A55420  26.804  12.104   6.750
 8719POPC   C3A55421  26.776  12.079   7.050
 8719POPC   C4A55422  26.864  12.063   7.350
 8719POPC   C1B55423  26.871  12.291   6.450
 8719POPC   C2B55424  26.848  12.347   6.750
 8719POPC   C3B55425  26.878  12.344   7.050
 8719POPC   C4B55426  26.911  12.286   7.350
 8720POPC   NC355427  15.209  26.081   5.550
 8720POPC   PO455428  15.193  26.027   5.850
 8720POPC   GL155429  15.218  26.087   6.150
 8720POPC   GL255430  15.209  26.105   6.150
 8720POPC   C1A55431  15.142  26.044   6.450
 8720POPC   D2A55432  15.136  26.047   6.750
 8720POPC   C3A55433  15.149  26.004   7.050
 8720POPC   C4A55434  15.189  26.013   7.350
 8720POPC   C1B55435  15.366  26.246   6.450
 8720POPC   C2B55436  15.326  26.284   6.750
 8720POPC   C3B55437  15.365  26.251   7.050
 8720POPC   C4B55438  15.274  26.202   7.350
 8721POPC   NC355439   3.555  42.300   5.550
 8721POPC   PO455440   3.503  42.360   5.850
 8721POPC   GL155441   3.571  42.372   6.150
 8721POPC   GL255442   3.457  42.298   6.150
 8721POPC   C1A55443   3.501  42.342   6.450
 8721POPC   D2A55444   3.527  42.321   6.750
 8721POPC   C3A55445   3.526  42.367   7.050
 8721POPC   C4A55446   3.571  42.311   7.350
 8721POPC   C1B55447   3.273  42.205   6.450
 8721POPC   C2B55448   3.293  42.208   6.750
 8721POPC   C3B55449   3.356  42.221   7.050
 8721POPC   C4B55450   3.333  42.243   7.350
 8722POPC   NC355451  34.573   5.827   5.550
 8722POPC   PO455452  34.547   5.883   5.850
 8722POPC   GL155453  34.543   5.831   6.150
 8722POPC   GL255454  34.667   5.875   6.150
 8722POPC   C1A55455  34.530   5.845   6.450
 8722POPC   D2A55456  34.531   5.901   6.750
 8722POPC   C3A55457  34.591   5.893   7.050
 8722POPC   C4A55458  34.577   5.824   7.350
 8722POPC   C1B55459  34.776   6.018   6.450
 8722POPC   C2B55460  34.798   5.966   6.750
 8722POPC   C3B55461  34.772   5.999   7.050
 8722POPC   C4B55462  34.800   6.001   7.350
 8723POPC   NC355463   9.022  26.795   5.550
 8723POPC   PO455464   9.022  26.779   5.850
 8723POPC   GL155465   8.942  26.807   6.150
 8723POPC   GL255466   9.058  26.882   6.150
 8723POPC   C1A55467   8.970  26.788   6.450
 8723POPC   D2A55468   9.010  26.818   6.750
 8723POPC   C3A55469   8.946  26.803   7.050
 8723POPC   C4A55470   8.992  26.860   7.350
 8723POPC   C1B55471   9.241  26.851   6.450
 8723POPC   C2B55472   9.173  26.829   6.750
 8723POPC   C3B55473   9.188  26.870   7.050
 8723POPC   C4B55474   9.249  26.881   7.350
 8724POPC   NC355475  18.300  44.696   5.550
 8724POPC   PO455476  18.307  44.659   5.850
 8724POPC   GL155477  18.285  44.620   6.150
 8724POPC   GL255478  18.316  44.561   6.150
 8724POPC   C1A55479  18.251  44.676   6.450
 8724POPC   D2A55480  18.251  44.690   6.750
 8724POPC   C3A55481  18.260  44.705   7.050
 8724POPC   C4A55482  18.270  44.625   7.350
 8724POPC   C1B55483  18.488  44.457   6.450
 8724POPC   C2B55484  18.496  44.450   6.750
 8724POPC   C3B55485  18.468  44.504   7.050
 8724POPC   C4B55486  18.415  44.513   7.350
 8725POPC   NC355487  15.942  37.721   5.550
 8725POPC   PO455488  15.946  37.658   5.850
 8725POPC   GL155489  15.935  37.716   6.150
 8725POPC   GL255490  15.993  37.849   6.150
 8725POPC   C1A55491  15.948  37.697   6.450
 8725POPC   D2A55492  15.992  37.699   6.750
 8725POPC   C3A55493  15.926  37.707   7.050
 8725POPC   C4A55494  15.994  37.668   7.350
 8725POPC   C1B55495  15.972  37.924   6.450
 8725POPC   C2B55496  15.986  37.938   6.750
 8725POPC   C3B55497  15.986  37.904   7.050
 8725POPC   C4B55498  16.010  37.944   7.350
 8726POPC   NC355499  41.580   3.492   5.550
 8726POPC   PO455500  41.604   3.550   5.850
 8726POPC   GL155501  41.538   3.544   6.150
 8726POPC   GL255502  41.538   3.460   6.150
 8726POPC   C1A55503  41.577   3.584   6.450
 8726POPC   D2A55504  41.560   3.581   6.750
 8726POPC   C3A55505  41.532   3.583   7.050
 8726POPC   C4A55506  41.565   3.497   7.350
 8726POPC   C1B55507  41.522   3.295   6.450
 8726POPC   C2B55508  41.526   3.277   6.750
 8726POPC   C3B55509  41.578   3.303   7.050
 8726POPC   C4B55510  41.581   3.329   7.350
 8727POPC   NC355511  17.532  14.451   5.550
 8727POPC   PO455512  17.504  14.405   5.850
 8727POPC   GL155513  17.493  14.429   6.150
 8727POPC   GL255514  17.385  14.446   6.150
 8727POPC   C1A55515  17.526  14.431   6.450
 8727POPC   D2A55516  17.522  14.440   6.750
 8727POPC   C3A55517  17.554  14.427   7.050
 8727POPC   C4A55518  17.494  14.396   7.350
 8727POPC   C1B55519  17.299  14.494   6.450
 8727POPC   C2B55520  17.309  14.499   6.750
 8727POPC   C3B55521  17.263  14.480   7.050
 8727POPC   C4B55522  17.261  14.437   7.350
 8728POPC   NC355523   3.555   8.980   5.550
 8728POPC   PO455524   3.564   8.956   5.850
 8728POPC   GL155525   3.566   9.001   6.150
 8728POPC   GL255526   3.641   8.898   6.150
 8728POPC   C1A55527   3.535   8.961   6.450
 8728POPC   D2A55528   3.516   8.931   6.750
 8728POPC   C3A55529   3.518   8.948   7.050
 8728POPC   C4A55530   3.575   9.018   7.350
 8728POPC   C1B55531   3.770   8.862   6.450
 8728POPC   C2B55532   3.791   8.827   6.750
 8728POPC   C3B55533   3.734   8.796   7.050
 8728POPC   C4B55534   3.750   8.807   7.350
 8729POPC   NC355535   9.758  42.361   5.550
 8729POPC   PO455536   9.779  42.306   5.850
 8729POPC   GL155537   9.776  42.295   6.150
 8729POPC   GL255538   9.890  42.287   6.150
 8729POPC   C1A55539   9.745  42.375   6.450
 8729POPC   D2A55540   9.794  42.383   6.750
 8729POPC   C3A55541   9.756  42.292   7.050
 8729POPC   C4A55542   9.715  42.345   7.350
 8729POPC   C1B55543   9.930  42.256   6.450
 8729POPC   C2B55544   9.973  42.163   6.750
 8729POPC   C3B55545   9.937  42.238   7.050
 8729POPC   C4B55546   9.956  42.223   7.350
 8730POPC   NC355547   0.410  16.759   5.550
 8730POPC   PO455548   0.418  16.765   5.850
 8730POPC   GL155549   0.469  16.768   6.150
 8730POPC   GL255550   0.501  16.668   6.150
 8730POPC   C1A55551   0.389  16.771   6.450
 8730POPC   D2A55552   0.437  16.755   6.750
 8730POPC   C3A55553   0.474  16.692   7.050
 8730POPC   C4A55554   0.485  16.733   7.350
 8730POPC   C1B55555   0.621  16.572   6.450
 8730POPC   C2B55556   0.570  16.527   6.750
 8730POPC   C3B55557   0.562  16.555   7.050
 8730POPC   C4B55558   0.564  16.561   7.350
 8731POPC   NC355559  22.982  32.988   5.550
 8731POPC   PO455560  22.922  33.008   5.850
 8731POPC   GL155561  22.917  33.001   6.150
 8731POPC   GL255562  22.807  33.032   6.150
 8731POPC   C1A55563  22.955  33.013   6.450
 8731POPC   D2A55564  22.955  32.989   6.750
 8731POPC   C3A55565  22.979  33.026   7.050
 8731POPC   C4A55566  22.950  33.043   7.350
 8731POPC   C1B55567  22.709  33.124   6.450
 8731POPC   C2B55568  22.647  33.040   6.750
 8731POPC   C3B55569  22.650  33.085   7.050
 8731POPC   C4B55570  22.692  33.095   7.350
 8732POPC   NC355571  35.368  10.515   5.550
 8732POPC   PO455572  35.313  10.543   5.850
 8732POPC   GL155573  35.342  10.502   6.150
 8732POPC   GL255574  35.227  10.403   6.150
 8732POPC   C1A55575  35.350  10.480   6.450
 8732POPC   D2A55576  35.318  10.533   6.750
 8732POPC   C3A55577  35.361  10.485   7.050
 8732POPC   C4A55578  35.387  10.476   7.350
 8732POPC   C1B55579  35.174  10.352   6.450
 8732POPC   C2B55580  35.186  10.285   6.750
 8732POPC   C3B55581  35.223  10.378   7.050
 8732POPC   C4B55582  35.217  10.286   7.350
 8733POPC   NC355583  36.118  36.894   5.550
 8733POPC   PO455584  36.174  36.883   5.850
 8733POPC   GL155585  36.152  36.878   6.150
 8733POPC   GL255586  36.042  36.838   6.150
 8733POPC   C1A55587  36.116  36.875   6.450
 8733POPC   D2A55588  36.119  36.892   6.750
 8733POPC   C3A55589  36.155  36.919   7.050
 8733POPC   C4A55590  36.169  36.856   7.350
 8733POPC   C1B55591  35.920  36.786   6.450
 8733POPC   C2B55592  35.917  36.783   6.750
 8733POPC   C3B55593  35.938  36.846   7.050
 8733POPC   C4B55594  35.901  36.842   7.350
 8734POPC   NC355595  27.618  14.445   5.550
 8734POPC   PO455596  27.632  14.424   5.850
 8734POPC   GL155597  27.591  14.410   6.150
 8734POPC   GL255598  27.669  14.507   6.150
 8734POPC   C1A55599  27.570  14.435   6.450
 8734POPC   D2A55600  27.570  14.358   6.750
 8734POPC   C3A55601  27.599  14.449   7.050
 8734POPC   C4A55602  27.632  14.445   7.350
 8734POPC   C1B55603  27.796  14.612   6.450
 8734POPC   C2B55604  27.804  14.612   6.750
 8734POPC   C3B55605  27.750  14.639   7.050
 8734POPC   C4B55606  27.743  14.563   7.350
 8735POPC   NC355607  39.280  18.327   5.550
 8735POPC   PO455608  39.256  18.327   5.850
 8735POPC   GL155609  39.281  18.239   6.150
 8735POPC   GL255610  39.103  18.203   6.150
 8735POPC   C1A55611  39.222  18.311   6.450
 8735POPC   D2A55612  39.268  18.315   6.750
 8735POPC   C3A55613  39.182  18.318   7.050
 8735POPC   C4A55614  39.224  18.298   7.350
 8735POPC   C1B55615  38.966  18.148   6.450
 8735POPC   C2B55616  39.036  18.144   6.750
 8735POPC   C3B55617  38.976  18.184   7.050
 8735POPC   C4B55618  38.992  18.169   7.350
 8736POPC   NC355619  15.149  12.079   5.550
 8736POPC   PO455620  15.185  12.104   5.850
 8736POPC   GL155621  15.173  12.101   6.150
 8736POPC   GL255622  15.260  12.068   6.150
 8736POPC   C1A55623  15.187  12.057   6.450
 8736POPC   D2A55624  15.140  12.103   6.750
 8736POPC   C3A55625  15.157  12.056   7.050
 8736POPC   C4A55626  15.215  12.106   7.350
 8736POPC   C1B55627  15.454  12.005   6.450
 8736POPC   C2B55628  15.368  12.014   6.750
 8736POPC   C3B55629  15.455  11.963   7.050
 8736POPC   C4B55630  15.384  11.949   7.350
 8737POPC   NC355631  44.688  13.600   5.550
 8737POPC   PO455632  44.677  13.597   5.850
 8737POPC   GL155633  44.672  13.653   6.150
 8737POPC   GL255634  44.634  13.518   6.150
 8737POPC   C1A55635  44.661  13.606   6.450
 8737POPC   D2A55636  44.651  13.589   6.750
 8737POPC   C3A55637  44.686  13.663   7.050
 8737POPC   C4A55638  44.677  13.661   7.350
 8737POPC   C1B55639  44.561  13.408   6.450
 8737POPC   C2B55640  44.607  13.447   6.750
 8737POPC   C3B55641  44.514  13.394   7.050
 8737POPC   C4B55642  44.513  13.398   7.350
 8738POPC   NC355643  25.308  12.850   5.550
 8738POPC   PO455644  25.217  12.890   5.850
 8738POPC   GL155645  25.240  12.872   6.150
 8738POPC   GL255646  25.150  12.774   6.150
 8738POPC   C1A55647  25.273  12.856   6.450
 8738POPC   D2A55648  25.251  12.856   6.750
 8738POPC   C3A55649  25.251  12.867   7.050
 8738POPC   C4A55650  25.240  12.883   7.350
 8738POPC   C1B55651  25.060  12.672   6.450
 8738POPC   C2B55652  25.055  12.658   6.750
 8738POPC   C3B55653  25.095  12.719   7.050
 8738POPC   C4B55654  25.070  12.727   7.350
 8739POPC   NC355655  10.539  21.378   5.550
 8739POPC   PO455656  10.486  21.415   5.850
 8739POPC   GL155657  10.482  21.412   6.150
 8739POPC   GL255658  10.413  21.484   6.150
 8739POPC   C1A55659  10.501  21.405   6.450
 8739POPC   D2A55660  10.541  21.424   6.750
 8739POPC   C3A55661  10.507  21.434   7.050
 8739POPC   C4A55662  10.484  21.347   7.350
 8739POPC   C1B55663  10.358  21.590   6.450
 8739POPC   C2B55664  10.405  21.573   6.750
 8739POPC   C3B55665  10.357  21.540   7.050
 8739POPC   C4B55666  10.326  21.583   7.350
 8740POPC   NC355667   7.448  38.499   5.550
 8740POPC   PO455668   7.437  38.437   5.850
 8740POPC   GL155669   7.431  38.468   6.150
 8740POPC   GL255670   7.337  38.449   6.150
 8740POPC   C1A55671   7.427  38.412   6.450
 8740POPC   D2A55672   7.447  38.432   6.750
 8740POPC   C3A55673   7.460  38.412   7.050
 8740POPC   C4A55674   7.381  38.504   7.350
 8740POPC   C1B55675   7.162  38.439   6.450
 8740POPC   C2B55676   7.219  38.433   6.750
 8740POPC   C3B55677   7.182  38.436   7.050
 8740POPC   C4B55678   7.149  38.440   7.350
 8741POPC   NC355679  38.474  11.303   5.550
 8741POPC   PO455680  38.437  11.277   5.850
 8741POPC   GL155681  38.406  11.292   6.150
 8741POPC   GL255682  38.372  11.373   6.150
 8741POPC   C1A55683  38.471  11.313   6.450
 8741POPC   D2A55684  38.409  11.330   6.750
 8741POPC   C3A55685  38.463  11.298   7.050
 8741POPC   C4A55686  38.474  11.304   7.350
 8741POPC   C1B55687  38.309  11.492   6.450
 8741POPC   C2B55688  38.331  11.492   6.750
 8741POPC   C3B55689  38.289  11.546   7.050
 8741POPC   C4B55690  38.298  11.511   7.350
 8742POPC   NC355691   1.944   8.995   5.550
 8742POPC   PO455692   2.002   8.952   5.850
 8742POPC   GL155693   2.005   9.014   6.150
 8742POPC   GL255694   1.957   8.855   6.150
 8742POPC   C1A55695   2.027   9.012   6.450
 8742POPC   D2A55696   1.943   8.941   6.750
 8742POPC   C3A55697   1.986   8.941   7.050
 8742POPC   C4A55698   1.986   8.987   7.350
 8742POPC   C1B55699   1.846   8.725   6.450
 8742POPC   C2B55700   1.827   8.728   6.750
 8742POPC   C3B55701   1.802   8.764   7.050
 8742POPC   C4B55702   1.860   8.816   7.350
 8743POPC   NC355703  38.459  36.122   5.550
 8743POPC   PO455704  38.492  36.146   5.850
 8743POPC   GL155705  38.465  36.149   6.150
 8743POPC   GL255706  38.561  36.187   6.150
 8743POPC   C1A55707  38.435  36.133   6.450
 8743POPC   D2A55708  38.491  36.118   6.750
 8743POPC   C3A55709  38.483  36.135   7.050
 8743POPC   C4A55710  38.491  36.135   7.350
 8743POPC   C1B55711  38.726  36.174   6.450
 8743POPC   C2B55712  38.692  36.204   6.750
 8743POPC   C3B55713  38.682  36.230   7.050
 8743POPC   C4B55714  38.674  36.208   7.350
 8744POPC   NC355715  12.812  32.250   5.550
 8744POPC   PO455716  12.887  32.271   5.850
 8744POPC   GL155717  12.833  32.231   6.150
 8744POPC   GL255718  12.851  32.354   6.150
 8744POPC   C1A55719  12.827  32.242   6.450
 8744POPC   D2A55720  12.876  32.283   6.750
 8744POPC   C3A55721  12.882  32.253   7.050
 8744POPC   C4A55722  12.842  32.279   7.350
 8744POPC   C1B55723  12.768  32.451   6.450
 8744POPC   C2B55724  12.771  32.534   6.750
 8744POPC   C3B55725  12.736  32.483   7.050
 8744POPC   C4B55726  12.810  32.509   7.350
 8745POPC   NC355727   5.095  33.033   5.550
 8745POPC   PO455728   5.076  33.053   5.850
 8745POPC   GL155729   5.071  32.975   6.150
 8745POPC   GL255730   5.185  33.049   6.150
 8745POPC   C1A55731   5.052  33.031   6.450
 8745POPC   D2A55732   5.086  33.024   6.750
 8745POPC   C3A55733   5.070  33.053   7.050
 8745POPC   C4A55734   5.053  33.011   7.350
 8745POPC   C1B55735   5.387  32.996   6.450
 8745POPC   C2B55736   5.383  33.051   6.750
 8745POPC   C3B55737   5.360  32.988   7.050
 8745POPC   C4B55738   5.333  32.990   7.350
 8746POPC   NC355739   8.990  25.248   5.550
 8746POPC   PO455740   8.978  25.298   5.850
 8746POPC   GL155741   9.017  25.239   6.150
 8746POPC   GL255742   8.972  25.130   6.150
 8746POPC   C1A55743   8.977  25.241   6.450
 8746POPC   D2A55744   8.980  25.308   6.750
 8746POPC   C3A55745   8.965  25.314   7.050
 8746POPC   C4A55746   8.942  25.280   7.350
 8746POPC   C1B55747   8.873  24.982   6.450
 8746POPC   C2B55748   8.888  25.072   6.750
 8746POPC   C3B55749   8.931  25.068   7.050
 8746POPC   C4B55750   8.913  25.058   7.350
 8747POPC   NC355751   1.224  43.066   5.550
 8747POPC   PO455752   1.263  43.128   5.850
 8747POPC   GL155753   1.223  43.099   6.150
 8747POPC   GL255754   1.203  42.958   6.150
 8747POPC   C1A55755   1.175  43.065   6.450
 8747POPC   D2A55756   1.181  43.132   6.750
 8747POPC   C3A55757   1.182  43.142   7.050
 8747POPC   C4A55758   1.249  43.083   7.350
 8747POPC   C1B55759   1.294  42.888   6.450
 8747POPC   C2B55760   1.305  42.868   6.750
 8747POPC   C3B55761   1.213  42.816   7.050
 8747POPC   C4B55762   1.283  42.857   7.350
 8748POPC   NC355763  40.773  23.702   5.550
 8748POPC   PO455764  40.765  23.690   5.850
 8748POPC   GL155765  40.830  23.683   6.150
 8748POPC   GL255766  40.912  23.582   6.150
 8748POPC   C1A55767  40.762  23.761   6.450
 8748POPC   D2A55768  40.811  23.749   6.750
 8748POPC   C3A55769  40.819  23.671   7.050
 8748POPC   C4A55770  40.816  23.694   7.350
 8748POPC   C1B55771  40.956  23.518   6.450
 8748POPC   C2B55772  40.983  23.570   6.750
 8748POPC   C3B55773  40.937  23.568   7.050
 8748POPC   C4B55774  40.976  23.580   7.350
 8749POPC   NC355775   2.801   3.517   5.550
 8749POPC   PO455776   2.754   3.533   5.850
 8749POPC   GL155777   2.768   3.544   6.150
 8749POPC   GL255778   2.848   3.446   6.150
 8749POPC   C1A55779   2.779   3.524   6.450
 8749POPC   D2A55780   2.796   3.509   6.750
 8749POPC   C3A55781   2.751   3.554   7.050
 8749POPC   C4A55782   2.791   3.561   7.350
 8749POPC   C1B55783   2.858   3.344   6.450
 8749POPC   C2B55784   2.819   3.346   6.750
 8749POPC   C3B55785   2.870   3.315   7.050
 8749POPC   C4B55786   2.828   3.310   7.350
 8750POPC   NC355787   5.047  40.049   5.550
 8750POPC   PO455788   5.120  39.962   5.850
 8750POPC   GL155789   5.066  40.012   6.150
 8750POPC   GL255790   4.977  39.945   6.150
 8750POPC   C1A55791   5.110  40.049   6.450
 8750POPC   D2A55792   5.143  39.996   6.750
 8750POPC   C3A55793   5.120  40.027   7.050
 8750POPC   C4A55794   5.106  39.977   7.350
 8750POPC   C1B55795   4.934  39.872   6.450
 8750POPC   C2B55796   4.881  39.809   6.750
 8750POPC   C3B55797   4.875  39.841   7.050
 8750POPC   C4B55798   4.953  39.851   7.350
 8751POPC   NC355799  22.900  36.172   5.550
 8751POPC   PO455800  22.953  36.091   5.850
 8751POPC   GL155801  22.974  36.129   6.150
 8751POPC   GL255802  22.794  36.225   6.150
 8751POPC   C1A55803  22.966  36.084   6.450
 8751POPC   D2A55804  22.969  36.156   6.750
 8751POPC   C3A55805  22.905  36.169   7.050
 8751POPC   C4A55806  22.975  36.096   7.350
 8751POPC   C1B55807  22.747  36.275   6.450
 8751POPC   C2B55808  22.674  36.234   6.750
 8751POPC   C3B55809  22.752  36.211   7.050
 8751POPC   C4B55810  22.756  36.240   7.350
 8752POPC   NC355811  17.547  13.675   5.550
 8752POPC   PO455812  17.554  13.644   5.850
 8752POPC   GL155813  17.556  13.583   6.150
 8752POPC   GL255814  17.386  13.565   6.150
 8752POPC   C1A55815  17.533  13.637   6.450
 8752POPC   D2A55816  17.554  13.669   6.750
 8752POPC   C3A55817  17.531  13.668   7.050
 8752POPC   C4A55818  17.493  13.608   7.350
 8752POPC   C1B55819  17.241  13.619   6.450
 8752POPC   C2B55820  17.219  13.627   6.750
 8752POPC   C3B55821  17.213  13.601   7.050
 8752POPC   C4B55822  17.303  13.546   7.350
 8753POPC   NC355823   5.911  38.501   5.550
 8753POPC   PO455824   5.863  38.479   5.850
 8753POPC   GL155825   5.858  38.499   6.150
 8753POPC   GL255826   5.860  38.599   6.150
 8753POPC   C1A55827   5.853  38.444   6.450
 8753POPC   D2A55828   5.873  38.450   6.750
 8753POPC   C3A55829   5.826  38.434   7.050
 8753POPC   C4A55830   5.831  38.501   7.350
 8753POPC   C1B55831   5.908  38.720   6.450
 8753POPC   C2B55832   5.860  38.710   6.750
 8753POPC   C3B55833   5.904  38.687   7.050
 8753POPC   C4B55834   5.934  38.656   7.350
 8754POPC   NC355835  40.031   5.135   5.550
 8754POPC   PO455836  39.992   5.044   5.850
 8754POPC   GL155837  39.978   5.110   6.150
 8754POPC   GL255838  39.931   5.189   6.150
 8754POPC   C1A55839  39.958   5.098   6.450
 8754POPC   D2A55840  40.032   5.085   6.750
 8754POPC   C3A55841  40.043   5.138   7.050
 8754POPC   C4A55842  39.973   5.136   7.350
 8754POPC   C1B55843  39.923   5.338   6.450
 8754POPC   C2B55844  39.839   5.299   6.750
 8754POPC   C3B55845  39.926   5.322   7.050
 8754POPC   C4B55846  39.918   5.340   7.350
 8755POPC   NC355847   3.569  10.504   5.550
 8755POPC   PO455848   3.509  10.563   5.850
 8755POPC   GL155849   3.510  10.520   6.150
 8755POPC   GL255850   3.383  10.493   6.150
 8755POPC   C1A55851   3.586  10.501   6.450
 8755POPC   D2A55852   3.538  10.504   6.750
 8755POPC   C3A55853   3.581  10.481   7.050
 8755POPC   C4A55854   3.511  10.542   7.350
 8755POPC   C1B55855   3.273  10.449   6.450
 8755POPC   C2B55856   3.322  10.449   6.750
 8755POPC   C3B55857   3.316  10.406   7.050
 8755POPC   C4B55858   3.285  10.389   7.350
 8756POPC   NC355859  43.154   2.020   5.550
 8756POPC   PO455860  43.062   1.953   5.850
 8756POPC   GL155861  43.160   2.038   6.150
 8756POPC   GL255862  43.126   1.875   6.150
 8756POPC   C1A55863  43.147   1.997   6.450
 8756POPC   D2A55864  43.112   1.991   6.750
 8756POPC   C3A55865  43.090   2.004   7.050
 8756POPC   C4A55866  43.122   1.975   7.350
 8756POPC   C1B55867  43.109   1.723   6.450
 8756POPC   C2B55868  43.118   1.723   6.750
 8756POPC   C3B55869  43.099   1.722   7.050
 8756POPC   C4B55870  43.104   1.789   7.350
 8757POPC   NC355871  17.533  43.899   5.550
 8757POPC   PO455872  17.519  43.932   5.850
 8757POPC   GL155873  17.484  43.852   6.150
 8757POPC   GL255874  17.442  43.745   6.150
 8757POPC   C1A55875  17.510  43.869   6.450
 8757POPC   D2A55876  17.521  43.843   6.750
 8757POPC   C3A55877  17.539  43.854   7.050
 8757POPC   C4A55878  17.500  43.900   7.350
 8757POPC   C1B55879  17.424  43.707   6.450
 8757POPC   C2B55880  17.433  43.699   6.750
 8757POPC   C3B55881  17.432  43.690   7.050
 8757POPC   C4B55882  17.373  43.674   7.350
 8758POPC   NC355883  33.817  28.397   5.550
 8758POPC   PO455884  33.841  28.332   5.850
 8758POPC   GL155885  33.792  28.415   6.150
 8758POPC   GL255886  33.685  28.480   6.150
 8758POPC   C1A55887  33.816  28.340   6.450
 8758POPC   D2A55888  33.845  28.343   6.750
 8758POPC   C3A55889  33.816  28.358   7.050
 8758POPC   C4A55890  33.762  28.352   7.350
 8758POPC   C1B55891  33.695  28.612   6.450
 8758POPC   C2B55892  33.648  28.589   6.750
 8758POPC   C3B55893  33.686  28.536   7.050
 8758POPC   C4B55894  33.676  28.622   7.350
 8759POPC   NC355895   4.272  40.812   5.550
 8759POPC   PO455896   4.328  40.767   5.850
 8759POPC   GL155897   4.355  40.769   6.150
 8759POPC   GL255898   4.306  40.890   6.150
 8759POPC   C1A55899   4.298  40.744   6.450
 8759POPC   D2A55900   4.356  40.791   6.750
 8759POPC   C3A55901   4.355  40.754   7.050
 8759POPC   C4A55902   4.352  40.773   7.350
 8759POPC   C1B55903   4.356  41.068   6.450
 8759POPC   C2B55904   4.336  40.997   6.750
 8759POPC   C3B55905   4.362  41.054   7.050
 8759POPC   C4B55906   4.363  40.984   7.350
 8760POPC   NC355907   8.959  15.171   5.550
 8760POPC   PO455908   8.968  15.186   5.850
 8760POPC   GL155909   8.962  15.140   6.150
 8760POPC   GL255910   9.046  15.340   6.150
 8760POPC   C1A55911   9.018  15.156   6.450
 8760POPC   D2A55912   8.985  15.179   6.750
 8760POPC   C3A55913   9.018  15.225   7.050
 8760POPC   C4A55914   8.947  15.138   7.350
 8760POPC   C1B55915   9.021  15.435   6.450
 8760POPC   C2B55916   9.072  15.423   6.750
 8760POPC   C3B55917   8.987  15.464   7.050
 8760POPC   C4B55918   8.994  15.388   7.350
 8761POPC   NC355919  36.124  16.005   5.550
 8761POPC   PO455920  36.129  15.972   5.850
 8761POPC   GL155921  36.083  15.954   6.150
 8761POPC   GL255922  36.051  15.963   6.150
 8761POPC   C1A55923  36.121  15.975   6.450
 8761POPC   D2A55924  36.139  15.912   6.750
 8761POPC   C3A55925  36.110  15.956   7.050
 8761POPC   C4A55926  36.158  15.932   7.350
 8761POPC   C1B55927  35.851  15.888   6.450
 8761POPC   C2B55928  35.891  15.943   6.750
 8761POPC   C3B55929  35.924  15.956   7.050
 8761POPC   C4B55930  35.840  15.918   7.350
 8762POPC   NC355931  20.573  34.614   5.550
 8762POPC   PO455932  20.589  34.534   5.850
 8762POPC   GL155933  20.587  34.598   6.150
 8762POPC   GL255934  20.727  34.580   6.150
 8762POPC   C1A55935  20.562  34.572   6.450
 8762POPC   D2A55936  20.643  34.621   6.750
 8762POPC   C3A55937  20.624  34.556   7.050
 8762POPC   C4A55938  20.611  34.563   7.350
 8762POPC   C1B55939  20.832  34.632   6.450
 8762POPC   C2B55940  20.863  34.681   6.750
 8762POPC   C3B55941  20.820  34.604   7.050
 8762POPC   C4B55942  20.888  34.633   7.350
 8763POPC   NC355943  36.100   9.724   5.550
 8763POPC   PO455944  36.104   9.755   5.850
 8763POPC   GL155945  36.120   9.731   6.150
 8763POPC   GL255946  36.200   9.760   6.150
 8763POPC   C1A55947  36.086   9.719   6.450
 8763POPC   D2A55948  36.133   9.749   6.750
 8763POPC   C3A55949  36.153   9.707   7.050
 8763POPC   C4A55950  36.112   9.797   7.350
 8763POPC   C1B55951  36.330   9.850   6.450
 8763POPC   C2B55952  36.395   9.866   6.750
 8763POPC   C3B55953  36.401   9.827   7.050
 8763POPC   C4B55954  36.323   9.863   7.350
 8764POPC   NC355955   7.376  39.231   5.550
 8764POPC   PO455956   7.401  39.211   5.850
 8764POPC   GL155957   7.457  39.191   6.150
 8764POPC   GL255958   7.377  39.328   6.150
 8764POPC   C1A55959   7.445  39.234   6.450
 8764POPC   D2A55960   7.458  39.207   6.750
 8764POPC   C3A55961   7.397  39.280   7.050
 8764POPC   C4A55962   7.461  39.261   7.350
 8764POPC   C1B55963   7.413  39.495   6.450
 8764POPC   C2B55964   7.401  39.529   6.750
 8764POPC   C3B55965   7.427  39.515   7.050
 8764POPC   C4B55966   7.468  39.435   7.350
 8765POPC   NC355967  19.053  26.008   5.550
 8765POPC   PO455968  19.027  26.081   5.850
 8765POPC   GL155969  19.083  26.054   6.150
 8765POPC   GL255970  19.224  26.026   6.150
 8765POPC   C1A55971  19.098  26.016   6.450
 8765POPC   D2A55972  19.100  26.047   6.750
 8765POPC   C3A55973  19.082  26.013   7.050
 8765POPC   C4A55974  19.013  26.066   7.350
 8765POPC   C1B55975  19.297  26.056   6.450
 8765POPC   C2B55976  19.317  26.104   6.750
 8765POPC   C3B55977  19.315  26.091   7.050
 8765POPC   C4B55978  19.264  26.121   7.350
 8766POPC   NC355979   2.743  11.282   5.550
 8766POPC   PO455980   2.739  11.282   5.850
 8766POPC   GL155981   2.778  11.275   6.150
 8766POPC   GL255982   2.679  11.199   6.150
 8766POPC   C1A55983   2.771  11.283   6.450
 8766POPC   D2A55984   2.754  11.257   6.750
 8766POPC   C3A55985   2.759  11.302   7.050
 8766POPC   C4A55986   2.810  11.308   7.350
 8766POPC   C1B55987   2.559  11.187   6.450
 8766POPC   C2B55988   2.591  11.187   6.750
 8766POPC   C3B55989   2.552  11.115   7.050
 8766POPC   C4B55990   2.520  11.174   7.350
 8767POPC   NC355991  18.310  34.623   5.550
 8767POPC   PO455992  18.275  34.626   5.850
 8767POPC   GL155993  18.286  34.541   6.150
 8767POPC   GL255994  18.290  34.689   6.150
 8767POPC   C1A55995  18.307  34.622   6.450
 8767POPC   D2A55996  18.253  34.560   6.750
 8767POPC   C3A55997  18.320  34.591   7.050
 8767POPC   C4A55998  18.270  34.570   7.350
 8767POPC   C1B55999  18.344  34.810   6.450
 8767POPC   C2B56000  18.323  34.849   6.750
 8767POPC   C3B56001  18.383  34.853   7.050
 8767POPC   C4B56002  18.362  34.780   7.350
 8768POPC   NC356003  13.600  29.120   5.550
 8768POPC   PO456004  13.657  29.111   5.850
 8768POPC   GL156005  13.642  29.179   6.150
 8768POPC   GL256006  13.531  29.031   6.150
 8768POPC   C1A56007  13.589  29.115   6.450
 8768POPC   D2A56008  13.648  29.144   6.750
 8768POPC   C3A56009  13.611  29.106   7.050
 8768POPC   C4A56010  13.657  29.106   7.350
 8768POPC   C1B56011  13.488  28.899   6.450
 8768POPC   C2B56012  13.503  28.915   6.750
 8768POPC   C3B56013  13.482  28.891   7.050
 8768POPC   C4B56014  13.513  28.963   7.350
 8769POPC   NC356015  26.004  12.808   5.550
 8769POPC   PO456016  26.020  12.815   5.850
 8769POPC   GL156017  26.017  12.893   6.150
 8769POPC   GL256018  25.926  12.783   6.150
 8769POPC   C1A56019  26.012  12.878   6.450
 8769POPC   D2A56020  26.021  12.867   6.750
 8769POPC   C3A56021  26.001  12.882   7.050
 8769POPC   C4A56022  26.030  12.847   7.350
 8769POPC   C1B56023  25.853  12.680   6.450
 8769POPC   C2B56024  25.885  12.638   6.750
 8769POPC   C3B56025  25.916  12.639   7.050
 8769POPC   C4B56026  25.859  12.695   7.350
 8770POPC   NC356027  27.598  29.929   5.550
 8770POPC   PO456028  27.577  29.881   5.850
 8770POPC   GL156029  27.593  29.945   6.150
 8770POPC   GL256030  27.611  30.030   6.150
 8770POPC   C1A56031  27.609  29.906   6.450
 8770POPC   D2A56032  27.619  29.921   6.750
 8770POPC   C3A56033  27.596  29.925   7.050
 8770POPC   C4A56034  27.547  29.920   7.350
 8770POPC   C1B56035  27.741  30.173   6.450
 8770POPC   C2B56036  27.744  30.194   6.750
 8770POPC   C3B56037  27.663  30.187   7.050
 8770POPC   C4B56038  27.746  30.139   7.350
 8771POPC   NC356039  26.842  36.873   5.550
 8771POPC   PO456040  26.808  36.865   5.850
 8771POPC   GL156041  26.839  36.886   6.150
 8771POPC   GL256042  26.762  37.021   6.150
 8771POPC   C1A56043  26.788  36.939   6.450
 8771POPC   D2A56044  26.864  36.887   6.750
 8771POPC   C3A56045  26.772  36.866   7.050
 8771POPC   C4A56046  26.797  36.890   7.350
 8771POPC   C1B56047  26.665  37.038   6.450
 8771POPC   C2B56048  26.609  37.086   6.750
 8771POPC   C3B56049  26.611  37.028   7.050
 8771POPC   C4B56050  26.638  37.039   7.350
 8772POPC   NC356051  26.812  11.338   5.550
 8772POPC   PO456052  26.772  11.282   5.850
 8772POPC   GL156053  26.782  11.324   6.150
 8772POPC   GL256054  26.730  11.174   6.150
 8772POPC   C1A56055  26.793  11.325   6.450
 8772POPC   D2A56056  26.777  11.298   6.750
 8772POPC   C3A56057  26.839  11.275   7.050
 8772POPC   C4A56058  26.828  11.349   7.350
 8772POPC   C1B56059  26.613  11.127   6.450
 8772POPC   C2B56060  26.597  11.115   6.750
 8772POPC   C3B56061  26.681  11.103   7.050
 8772POPC   C4B56062  26.651  11.166   7.350
 8773POPC   NC356063  31.479  33.818   5.550
 8773POPC   PO456064  31.439  33.751   5.850
 8773POPC   GL156065  31.472  33.766   6.150
 8773POPC   GL256066  31.433  33.875   6.150
 8773POPC   C1A56067  31.487  33.828   6.450
 8773POPC   D2A56068  31.490  33.843   6.750
 8773POPC   C3A56069  31.464  33.838   7.050
 8773POPC   C4A56070  31.496  33.829   7.350
 8773POPC   C1B56071  31.367  34.014   6.450
 8773POPC   C2B56072  31.354  34.012   6.750
 8773POPC   C3B56073  31.376  34.049   7.050
 8773POPC   C4B56074  31.375  33.989   7.350
 8774POPC   NC356075  13.669  18.273   5.550
 8774POPC   PO456076  13.605  18.264   5.850
 8774POPC   GL156077  13.651  18.329   6.150
 8774POPC   GL256078  13.712  18.130   6.150
 8774POPC   C1A56079  13.582  18.317   6.450
 8774POPC   D2A56080  13.671  18.326   6.750
 8774POPC   C3A56081  13.649  18.320   7.050
 8774POPC   C4A56082  13.591  18.327   7.350
 8774POPC   C1B56083  13.695  18.023   6.450
 8774POPC   C2B56084  13.725  18.048   6.750
 8774POPC   C3B56085  13.659  18.028   7.050
 8774POPC   C4B56086  13.755  18.045   7.350
 8775POPC   NC356087   6.627   0.408   5.550
 8775POPC   PO456088   6.688   0.418   5.850
 8775POPC   GL156089   6.693   0.395   6.150
 8775POPC   GL256090   6.620   0.358   6.150
 8775POPC   C1A56091   6.595   0.388   6.450
 8775POPC   D2A56092   6.657   0.402   6.750
 8775POPC   C3A56093   6.685   0.483   7.050
 8775POPC   C4A56094   6.643   0.487   7.350
 8775POPC   C1B56095   6.619   0.239   6.450
 8775POPC   C2B56096   6.600   0.218   6.750
 8775POPC   C3B56097   6.661   0.198   7.050
 8775POPC   C4B56098   6.598   0.186   7.350
 8776POPC   NC356099  21.361  26.861   5.550
 8776POPC   PO456100  21.394  26.837   5.850
 8776POPC   GL156101  21.377  26.867   6.150
 8776POPC   GL256102  21.288  26.903   6.150
 8776POPC   C1A56103  21.400  26.822   6.450
 8776POPC   D2A56104  21.373  26.856   6.750
 8776POPC   C3A56105  21.345  26.844   7.050
 8776POPC   C4A56106  21.401  26.826   7.350
 8776POPC   C1B56107  21.269  27.053   6.450
 8776POPC   C2B56108  21.217  27.052   6.750
 8776POPC   C3B56109  21.253  26.988   7.050
 8776POPC   C4B56110  21.302  27.027   7.350
 8777POPC   NC356111  33.028   9.006   5.550
 8777POPC   PO456112  33.034   8.964   5.850
 8777POPC   GL156113  32.977   8.968   6.150
 8777POPC   GL256114  33.146   8.915   6.150
 8777POPC   C1A56115  33.063   8.997   6.450
 8777POPC   D2A56116  33.052   8.974   6.750
 8777POPC   C3A56117  33.009   8.932   7.050
 8777POPC   C4A56118  33.027   8.991   7.350
 8777POPC   C1B56119  33.244   8.892   6.450
 8777POPC   C2B56120  33.276   8.868   6.750
 8777POPC   C3B56121  33.281   8.921   7.050
 8777POPC   C4B56122  33.238   8.910   7.350
 8778POPC   NC356123  14.396   4.292   5.550
 8778POPC   PO456124  14.447   4.283   5.850
 8778POPC   GL156125  14.378   4.329   6.150
 8778POPC   GL256126  14.425   4.160   6.150
 8778POPC   C1A56127  14.378   4.320   6.450
 8778POPC   D2A56128  14.355   4.276   6.750
 8778POPC   C3A56129  14.378   4.344   7.050
 8778POPC   C4A56130  14.392   4.294   7.350
 8778POPC   C1B56131  14.373   4.037   6.450
 8778POPC   C2B56132  14.370   4.028   6.750
 8778POPC   C3B56133  14.383   4.023   7.050
 8778POPC   C4B56134  14.355   4.117   7.350
 8779POPC   NC356135  26.072   7.445   5.550
 8779POPC   PO456136  26.002   7.414   5.850
 8779POPC   GL156137  26.080   7.374   6.150
 8779POPC   GL256138  25.997   7.488   6.150
 8779POPC   C1A56139  26.033   7.423   6.450
 8779POPC   D2A56140  26.011   7.422   6.750
 8779POPC   C3A56141  26.052   7.421   7.050
 8779POPC   C4A56142  26.072   7.430   7.350
 8779POPC   C1B56143  25.971   7.675   6.450
 8779POPC   C2B56144  25.976   7.606   6.750
 8779POPC   C3B56145  25.881   7.626   7.050
 8779POPC   C4B56146  25.907   7.608   7.350
 8780POPC   NC356147  32.235  11.342   5.550
 8780POPC   PO456148  32.292  11.322   5.850
 8780POPC   GL156149  32.274  11.336   6.150
 8780POPC   GL256150  32.314  11.195   6.150
 8780POPC   C1A56151  32.251  11.271   6.450
 8780POPC   D2A56152  32.296  11.255   6.750
 8780POPC   C3A56153  32.245  11.283   7.050
 8780POPC   C4A56154  32.207  11.283   7.350
 8780POPC   C1B56155  32.368  11.114   6.450
 8780POPC   C2B56156  32.367  11.104   6.750
 8780POPC   C3B56157  32.443  11.141   7.050
 8780POPC   C4B56158  32.440  11.147   7.350
 8781POPC   NC356159  19.028   5.835   5.550
 8781POPC   PO456160  19.034   5.852   5.850
 8781POPC   GL156161  19.046   5.902   6.150
 8781POPC   GL256162  19.047   5.970   6.150
 8781POPC   C1A56163  19.081   5.823   6.450
 8781POPC   D2A56164  19.050   5.828   6.750
 8781POPC   C3A56165  19.021   5.886   7.050
 8781POPC   C4A56166  19.101   5.887   7.350
 8781POPC   C1B56167  19.118   6.132   6.450
 8781POPC   C2B56168  19.117   6.118   6.750
 8781POPC   C3B56169  19.111   6.163   7.050
 8781POPC   C4B56170  19.101   6.103   7.350
 8782POPC   NC356171  22.182   6.612   5.550
 8782POPC   PO456172  22.112   6.643   5.850
 8782POPC   GL156173  22.136   6.671   6.150
 8782POPC   GL256174  22.168   6.722   6.150
 8782POPC   C1A56175  22.166   6.667   6.450
 8782POPC   D2A56176  22.183   6.695   6.750
 8782POPC   C3A56177  22.137   6.621   7.050
 8782POPC   C4A56178  22.151   6.631   7.350
 8782POPC   C1B56179  22.166   6.943   6.450
 8782POPC   C2B56180  22.211   6.927   6.750
 8782POPC   C3B56181  22.138   6.886   7.050
 8782POPC   C4B56182  22.216   6.883   7.350
 8783POPC   NC356183  16.748  40.793   5.550
 8783POPC   PO456184  16.748  40.817   5.850
 8783POPC   GL156185  16.722  40.831   6.150
 8783POPC   GL256186  16.788  40.682   6.150
 8783POPC   C1A56187  16.743  40.781   6.450
 8783POPC   D2A56188  16.744  40.813   6.750
 8783POPC   C3A56189  16.755  40.809   7.050
 8783POPC   C4A56190  16.751  40.777   7.350
 8783POPC   C1B56191  16.818  40.509   6.450
 8783POPC   C2B56192  16.767  40.497   6.750
 8783POPC   C3B56193  16.783  40.536   7.050
 8783POPC   C4B56194  16.755  40.507   7.350
 8784POPC   NC356195  12.090  26.857   5.550
 8784POPC   PO456196  12.083  26.824   5.850
 8784POPC   GL156197  12.119  26.777   6.150
 8784POPC   GL256198  12.055  26.676   6.150
 8784POPC   C1A56199  12.106  26.814   6.450
 8784POPC   D2A56200  12.051  26.851   6.750
 8784POPC   C3A56201  12.077  26.801   7.050
 8784POPC   C4A56202  12.043  26.796   7.350
 8784POPC   C1B56203  11.981  26.560   6.450
 8784POPC   C2B56204  11.963  26.567   6.750
 8784POPC   C3B56205  11.957  26.586   7.050
 8784POPC   C4B56206  11.941  26.554   7.350
 8785POPC   NC356207  42.345  42.336   5.550
 8785POPC   PO456208  42.290  42.377   5.850
 8785POPC   GL156209  42.302  42.306   6.150
 8785POPC   GL256210  42.447  42.263   6.150
 8785POPC   C1A56211  42.313  42.309   6.450
 8785POPC   D2A56212  42.348  42.322   6.750
 8785POPC   C3A56213  42.366  42.326   7.050
 8785POPC   C4A56214  42.296  42.356   7.350
 8785POPC   C1B56215  42.508  42.190   6.450
 8785POPC   C2B56216  42.478  42.199   6.750
 8785POPC   C3B56217  42.505  42.168   7.050
 8785POPC   C4B56218  42.493  42.175   7.350
 8786POPC   NC356219  26.078   6.614   5.550
 8786POPC   PO456220  26.091   6.619   5.850
 8786POPC   GL156221  26.003   6.655   6.150
 8786POPC   GL256222  26.048   6.501   6.150
 8786POPC   C1A56223  26.086   6.616   6.450
 8786POPC   D2A56224  26.080   6.691   6.750
 8786POPC   C3A56225  26.070   6.692   7.050
 8786POPC   C4A56226  26.033   6.601   7.350
 8786POPC   C1B56227  26.008   6.409   6.450
 8786POPC   C2B56228  26.005   6.440   6.750
 8786POPC   C3B56229  25.998   6.420   7.050
 8786POPC   C4B56230  25.944   6.410   7.350
 8787POPC   NC356231  12.057  32.992   5.550
 8787POPC   PO456232  12.111  33.021   5.850
 8787POPC   GL156233  12.089  33.048   6.150
 8787POPC   GL256234  12.196  33.106   6.150
 8787POPC   C1A56235  12.069  33.055   6.450
 8787POPC   D2A56236  12.030  32.996   6.750
 8787POPC   C3A56237  12.108  32.999   7.050
 8787POPC   C4A56238  12.113  33.026   7.350
 8787POPC   C1B56239  12.222  33.194   6.450
 8787POPC   C2B56240  12.291  33.185   6.750
 8787POPC   C3B56241  12.220  33.197   7.050
 8787POPC   C4B56242  12.312  33.197   7.350
 8788POPC   NC356243  29.133  44.612   5.550
 8788POPC   PO456244  29.175  44.676   5.850
 8788POPC   GL156245  29.190  44.650   6.150
 8788POPC   GL256246  29.148  44.570   6.150
 8788POPC   C1A56247  29.106  44.636   6.450
 8788POPC   D2A56248  29.175  44.644   6.750
 8788POPC   C3A56249  29.140  44.700   7.050
 8788POPC   C4A56250  29.102  44.688   7.350
 8788POPC   C1B56251  29.110  44.447   6.450
 8788POPC   C2B56252  29.096  44.379   6.750
 8788POPC   C3B56253  29.091  44.409   7.050
 8788POPC   C4B56254  29.083  44.465   7.350
 8789POPC   NC356255   9.794  28.365   5.550
 8789POPC   PO456256   9.772  28.340   5.850
 8789POPC   GL156257   9.787  28.347   6.150
 8789POPC   GL256258   9.587  28.448   6.150
 8789POPC   C1A56259   9.707  28.356   6.450
 8789POPC   D2A56260   9.749  28.374   6.750
 8789POPC   C3A56261   9.758  28.384   7.050
 8789POPC   C4A56262   9.744  28.358   7.350
 8789POPC   C1B56263   9.523  28.409   6.450
 8789POPC   C2B56264   9.559  28.447   6.750
 8789POPC   C3B56265   9.482  28.445   7.050
 8789POPC   C4B56266   9.470  28.452   7.350
 8790POPC   NC356267   5.904  13.666   5.550
 8790POPC   PO456268   5.909  13.670   5.850
 8790POPC   GL156269   5.853  13.593   6.150
 8790POPC   GL256270   5.831  13.496   6.150
 8790POPC   C1A56271   5.901  13.595   6.450
 8790POPC   D2A56272   5.846  13.592   6.750
 8790POPC   C3A56273   5.874  13.611   7.050
 8790POPC   C4A56274   5.894  13.658   7.350
 8790POPC   C1B56275   5.770  13.400   6.450
 8790POPC   C2B56276   5.724  13.415   6.750
 8790POPC   C3B56277   5.746  13.423   7.050
 8790POPC   C4B56278   5.747  13.416   7.350
 8791POPC   NC356279  28.337   8.165   5.550
 8791POPC   PO456280  28.369   8.246   5.850
 8791POPC   GL156281  28.361   8.151   6.150
 8791POPC   GL256282  28.335   8.268   6.150
 8791POPC   C1A56283  28.337   8.179   6.450
 8791POPC   D2A56284  28.385   8.246   6.750
 8791POPC   C3A56285  28.334   8.153   7.050
 8791POPC   C4A56286  28.402   8.173   7.350
 8791POPC   C1B56287  28.292   8.440   6.450
 8791POPC   C2B56288  28.220   8.370   6.750
 8791POPC   C3B56289  28.236   8.440   7.050
 8791POPC   C4B56290  28.228   8.397   7.350
 8792POPC   NC356291  18.271  15.157   5.550
 8792POPC   PO456292  18.236  15.224   5.850
 8792POPC   GL156293  18.260  15.189   6.150
 8792POPC   GL256294  18.363  15.174   6.150
 8792POPC   C1A56295  18.236  15.215   6.450
 8792POPC   D2A56296  18.306  15.145   6.750
 8792POPC   C3A56297  18.267  15.222   7.050
 8792POPC   C4A56298  18.315  15.209   7.350
 8792POPC   C1B56299  18.560  15.259   6.450
 8792POPC   C2B56300  18.493  15.270   6.750
 8792POPC   C3B56301  18.496  15.232   7.050
 8792POPC   C4B56302  18.482  15.227   7.350
 8793POPC   NC356303  41.595  10.487   5.550
 8793POPC   PO456304  41.600  10.538   5.850
 8793POPC   GL156305  41.538  10.555   6.150
 8793POPC   GL256306  41.635  10.431   6.150
 8793POPC   C1A56307  41.539  10.547   6.450
 8793POPC   D2A56308  41.579  10.564   6.750
 8793POPC   C3A56309  41.595  10.485   7.050
 8793POPC   C4A56310  41.545  10.522   7.350
 8793POPC   C1B56311  41.629  10.326   6.450
 8793POPC   C2B56312  41.716  10.345   6.750
 8793POPC   C3B56313  41.723  10.346   7.050
 8793POPC   C4B56314  41.685  10.318   7.350
 8794POPC   NC356315   3.565   6.648   5.550
 8794POPC   PO456316   3.579   6.619   5.850
 8794POPC   GL156317   3.589   6.662   6.150
 8794POPC   GL256318   3.646   6.695   6.150
 8794POPC   C1A56319   3.551   6.655   6.450
 8794POPC   D2A56320   3.528   6.683   6.750
 8794POPC   C3A56321   3.531   6.643   7.050
 8794POPC   C4A56322   3.576   6.628   7.350
 8794POPC   C1B56323   3.765   6.677   6.450
 8794POPC   C2B56324   3.813   6.687   6.750
 8794POPC   C3B56325   3.767   6.662   7.050
 8794POPC   C4B56326   3.796   6.733   7.350
 8795POPC   NC356327  40.775  32.975   5.550
 8795POPC   PO456328  40.806  33.041   5.850
 8795POPC   GL156329  40.735  33.032   6.150
 8795POPC   GL256330  40.818  33.087   6.150
 8795POPC   C1A56331  40.756  33.012   6.450
 8795POPC   D2A56332  40.740  33.019   6.750
 8795POPC   C3A56333  40.748  32.997   7.050
 8795POPC   C4A56334  40.759  33.042   7.350
 8795POPC   C1B56335  40.969  33.279   6.450
 8795POPC   C2B56336  40.961  33.263   6.750
 8795POPC   C3B56337  40.877  33.215   7.050
 8795POPC   C4B56338  40.882  33.196   7.350
 8796POPC   NC356339  34.604   4.326   5.550
 8796POPC   PO456340  34.618   4.284   5.850
 8796POPC   GL156341  34.625   4.287   6.150
 8796POPC   GL256342  34.690   4.364   6.150
 8796POPC   C1A56343  34.556   4.365   6.450
 8796POPC   D2A56344  34.526   4.334   6.750
 8796POPC   C3A56345  34.541   4.366   7.050
 8796POPC   C4A56346  34.529   4.351   7.350
 8796POPC   C1B56347  34.793   4.440   6.450
 8796POPC   C2B56348  34.783   4.454   6.750
 8796POPC   C3B56349  34.797   4.485   7.050
 8796POPC   C4B56350  34.814   4.439   7.350
 8797POPC   NC356351   2.033  12.091   5.550
 8797POPC   PO456352   1.973  12.110   5.850
 8797POPC   GL156353   2.005  12.124   6.150
 8797POPC   GL256354   2.004  11.989   6.150
 8797POPC   C1A56355   1.984  12.119   6.450
 8797POPC   D2A56356   2.031  12.109   6.750
 8797POPC   C3A56357   1.953  12.122   7.050
 8797POPC   C4A56358   2.018  12.032   7.350
 8797POPC   C1B56359   2.043  11.804   6.450
 8797POPC   C2B56360   2.040  11.840   6.750
 8797POPC   C3B56361   1.955  11.872   7.050
 8797POPC   C4B56362   2.004  11.837   7.350
 8798POPC   NC356363  33.809  36.880   5.550
 8798POPC   PO456364  33.809  36.868   5.850
 8798POPC   GL156365  33.809  36.908   6.150
 8798POPC   GL256366  33.670  36.914   6.150
 8798POPC   C1A56367  33.838  36.861   6.450
 8798POPC   D2A56368  33.833  36.916   6.750
 8798POPC   C3A56369  33.820  36.934   7.050
 8798POPC   C4A56370  33.765  36.901   7.350
 8798POPC   C1B56371  33.548  36.863   6.450
 8798POPC   C2B56372  33.565  36.903   6.750
 8798POPC   C3B56373  33.588  36.868   7.050
 8798POPC   C4B56374  33.541  36.861   7.350
 8799POPC   NC356375   2.748  12.082   5.550
 8799POPC   PO456376   2.772  12.110   5.850
 8799POPC   GL156377   2.744  12.072   6.150
 8799POPC   GL256378   2.749  11.910   6.150
 8799POPC   C1A56379   2.747  12.028   6.450
 8799POPC   D2A56380   2.796  12.126   6.750
 8799POPC   C3A56381   2.726  12.086   7.050
 8799POPC   C4A56382   2.773  12.040   7.350
 8799POPC   C1B56383   2.651  11.799   6.450
 8799POPC   C2B56384   2.692  11.805   6.750
 8799POPC   C3B56385   2.679  11.847   7.050
 8799POPC   C4B56386   2.711  11.841   7.350
 8800POPC   NC356387  39.254  10.496   5.550
 8800POPC   PO456388  39.183  10.553   5.850
 8800POPC   GL156389  39.248  10.497   6.150
 8800POPC   GL256390  39.386  10.581   6.150
 8800POPC   C1A56391  39.198  10.527   6.450
 8800POPC   D2A56392  39.277  10.522   6.750
 8800POPC   C3A56393  39.260  10.569   7.050
 8800POPC   C4A56394  39.230  10.562   7.350
 8800POPC   C1B56395  39.416  10.619   6.450
 8800POPC   C2B56396  39.427  10.613   6.750
 8800POPC   C3B56397  39.410  10.669   7.050
 8800POPC   C4B56398  39.480  10.614   7.350
 8801POPC   NC356399   8.189  28.330   5.550
 8801POPC   PO456400   8.152  28.350   5.850
 8801POPC   GL156401   8.196  28.330   6.150
 8801POPC   GL256402   8.303  28.458   6.150
 8801POPC   C1A56403   8.171  28.329   6.450
 8801POPC   D2A56404   8.202  28.360   6.750
 8801POPC   C3A56405   8.232  28.339   7.050
 8801POPC   C4A56406   8.199  28.351   7.350
 8801POPC   C1B56407   8.378  28.607   6.450
 8801POPC   C2B56408   8.405  28.520   6.750
 8801POPC   C3B56409   8.344  28.526   7.050
 8801POPC   C4B56410   8.396  28.539   7.350
 8802POPC   NC356411  36.949  21.411   5.550
 8802POPC   PO456412  36.941  21.419   5.850
 8802POPC   GL156413  36.888  21.391   6.150
 8802POPC   GL256414  36.890  21.506   6.150
 8802POPC   C1A56415  36.878  21.397   6.450
 8802POPC   D2A56416  36.897  21.419   6.750
 8802POPC   C3A56417  36.857  21.352   7.050
 8802POPC   C4A56418  36.908  21.392   7.350
 8802POPC   C1B56419  36.907  21.659   6.450
 8802POPC   C2B56420  36.908  21.607   6.750
 8802POPC   C3B56421  36.923  21.660   7.050
 8802POPC   C4B56422  36.974  21.635   7.350
 8803POPC   NC356423  24.494  39.186   5.550
 8803POPC   PO456424  24.445  39.237   5.850
 8803POPC   GL156425  24.486  39.252   6.150
 8803POPC   GL256426  24.621  39.310   6.150
 8803POPC   C1A56427  24.508  39.218   6.450
 8803POPC   D2A56428  24.512  39.222   6.750
 8803POPC   C3A56429  24.453  39.203   7.050
 8803POPC   C4A56430  24.530  39.216   7.350
 8803POPC   C1B56431  24.667  39.361   6.450
 8803POPC   C2B56432  24.676  39.316   6.750
 8803POPC   C3B56433  24.684  39.307   7.050
 8803POPC   C4B56434  24.712  39.385   7.350
 8804POPC   NC356435  16.771  36.932   5.550
 8804POPC   PO456436  16.757  36.865   5.850
 8804POPC   GL156437  16.778  36.879   6.150
 8804POPC   GL256438  16.803  36.808   6.150
 8804POPC   C1A56439  16.763  36.868   6.450
 8804POPC   D2A56440  16.730  36.906   6.750
 8804POPC   C3A56441  16.692  36.897   7.050
 8804POPC   C4A56442  16.731  36.943   7.350
 8804POPC   C1B56443  17.004  36.787   6.450
 8804POPC   C2B56444  16.954  36.832   6.750
 8804POPC   C3B56445  16.984  36.755   7.050
 8804POPC   C4B56446  16.956  36.783   7.350
 8805POPC   NC356447  39.189   8.963   5.550
 8805POPC   PO456448  39.195   8.993   5.850
 8805POPC   GL156449  39.279   8.933   6.150
 8805POPC   GL256450  39.359   8.995   6.150
 8805POPC   C1A56451  39.281   8.948   6.450
 8805POPC   D2A56452  39.225   8.942   6.750
 8805POPC   C3A56453  39.248   9.016   7.050
 8805POPC   C4A56454  39.225   8.996   7.350
 8805POPC   C1B56455  39.470   9.116   6.450
 8805POPC   C2B56456  39.479   9.059   6.750
 8805POPC   C3B56457  39.416   9.085   7.050
 8805POPC   C4B56458  39.473   9.046   7.350
 8806POPC   NC356459  43.836  18.302   5.550
 8806POPC   PO456460  43.922  18.263   5.850
 8806POPC   GL156461  43.856  18.272   6.150
 8806POPC   GL256462  43.956  18.218   6.150
 8806POPC   C1A56463  43.862  18.330   6.450
 8806POPC   D2A56464  43.849  18.261   6.750
 8806POPC   C3A56465  43.868  18.330   7.050
 8806POPC   C4A56466  43.861  18.271   7.350
 8806POPC   C1B56467  44.024  18.058   6.450
 8806POPC   C2B56468  43.996  18.029   6.750
 8806POPC   C3B56469  44.034  18.098   7.050
 8806POPC   C4B56470  44.010  18.108   7.350
 8807POPC   NC356471  14.372  26.769   5.550
 8807POPC   PO456472  14.426  26.809   5.850
 8807POPC   GL156473  14.382  26.842   6.150
 8807POPC   GL256474  14.355  26.970   6.150
 8807POPC   C1A56475  14.437  26.773   6.450
 8807POPC   D2A56476  14.358  26.865   6.750
 8807POPC   C3A56477  14.432  26.779   7.050
 8807POPC   C4A56478  14.418  26.835   7.350
 8807POPC   C1B56479  14.283  27.014   6.450
 8807POPC   C2B56480  14.249  27.058   6.750
 8807POPC   C3B56481  14.262  27.065   7.050
 8807POPC   C4B56482  14.299  27.045   7.350
 8808POPC   NC356483  43.862  36.890   5.550
 8808POPC   PO456484  43.925  36.935   5.850
 8808POPC   GL156485  43.861  36.907   6.150
 8808POPC   GL256486  43.819  36.932   6.150
 8808POPC   C1A56487  43.850  36.933   6.450
 8808POPC   D2A56488  43.892  36.933   6.750
 8808POPC   C3A56489  43.877  36.897   7.050
 8808POPC   C4A56490  43.847  36.946   7.350
 8808POPC   C1B56491  43.615  36.987   6.450
 8808POPC   C2B56492  43.688  36.983   6.750
 8808POPC   C3B56493  43.709  36.975   7.050
 8808POPC   C4B56494  43.658  37.033   7.350
 8809POPC   NC356495  10.535  25.221   5.550
 8809POPC   PO456496  10.476  25.273   5.850
 8809POPC   GL156497  10.488  25.303   6.150
 8809POPC   GL256498  10.643  25.271   6.150
 8809POPC   C1A56499  10.562  25.241   6.450
 8809POPC   D2A56500  10.505  25.294   6.750
 8809POPC   C3A56501  10.491  25.238   7.050
 8809POPC   C4A56502  10.526  25.222   7.350
 8809POPC   C1B56503  10.782  25.152   6.450
 8809POPC   C2B56504  10.790  25.148   6.750
 8809POPC   C3B56505  10.749  25.155   7.050
 8809POPC   C4B56506  10.752  25.191   7.350
 8810POPC   NC356507  35.320   6.688   5.550
 8810POPC   PO456508  35.373   6.621   5.850
 8810POPC   GL156509  35.357   6.684   6.150
 8810POPC   GL256510  35.199   6.666   6.150
 8810POPC   C1A56511  35.369   6.611   6.450
 8810POPC   D2A56512  35.378   6.633   6.750
 8810POPC   C3A56513  35.336   6.606   7.050
 8810POPC   C4A56514  35.368   6.683   7.350
 8810POPC   C1B56515  35.093   6.719   6.450
 8810POPC   C2B56516  35.138   6.679   6.750
 8810POPC   C3B56517  35.076   6.707   7.050
 8810POPC   C4B56518  35.107   6.653   7.350
 8811POPC   NC356519  22.169  14.361   5.550
 8811POPC   PO456520  22.203  14.362   5.850
 8811POPC   GL156521  22.195  14.375   6.150
 8811POPC   GL256522  22.294  14.336   6.150
 8811POPC   C1A56523  22.186  14.426   6.450
 8811POPC   D2A56524  22.207  14.415   6.750
 8811POPC   C3A56525  22.160  14.364   7.050
 8811POPC   C4A56526  22.198  14.382   7.350
 8811POPC   C1B56527  22.418  14.399   6.450
 8811POPC   C2B56528  22.439  14.356   6.750
 8811POPC   C3B56529  22.407  14.304   7.050
 8811POPC   C4B56530  22.394  14.361   7.350
 8812POPC   NC356531  40.020  32.243   5.550
 8812POPC   PO456532  39.969  32.211   5.850
 8812POPC   GL156533  40.037  32.284   6.150
 8812POPC   GL256534  39.993  32.367   6.150
 8812POPC   C1A56535  39.962  32.267   6.450
 8812POPC   D2A56536  40.019  32.230   6.750
 8812POPC   C3A56537  40.005  32.259   7.050
 8812POPC   C4A56538  39.984  32.200   7.350
 8812POPC   C1B56539  40.051  32.547   6.450
 8812POPC   C2B56540  40.058  32.451   6.750
 8812POPC   C3B56541  39.969  32.545   7.050
 8812POPC   C4B56542  40.003  32.518   7.350
 8813POPC   NC356543   7.468  35.353   5.550
 8813POPC   PO456544   7.470  35.305   5.850
 8813POPC   GL156545   7.409  35.386   6.150
 8813POPC   GL256546   7.586  35.380   6.150
 8813POPC   C1A56547   7.406  35.386   6.450
 8813POPC   D2A56548   7.456  35.321   6.750
 8813POPC   C3A56549   7.397  35.320   7.050
 8813POPC   C4A56550   7.412  35.367   7.350
 8813POPC   C1B56551   7.673  35.314   6.450
 8813POPC   C2B56552   7.693  35.330   6.750
 8813POPC   C3B56553   7.673  35.300   7.050
 8813POPC   C4B56554   7.648  35.323   7.350
 8814POPC   NC356555   1.979   9.761   5.550
 8814POPC   PO456556   1.983   9.739   5.850
 8814POPC   GL156557   1.995   9.762   6.150
 8814POPC   GL256558   2.118   9.761   6.150
 8814POPC   C1A56559   1.948   9.776   6.450
 8814POPC   D2A56560   2.010   9.713   6.750
 8814POPC   C3A56561   1.981   9.708   7.050
 8814POPC   C4A56562   2.009   9.699   7.350
 8814POPC   C1B56563   2.257   9.779   6.450
 8814POPC   C2B56564   2.265   9.821   6.750
 8814POPC   C3B56565   2.220   9.724   7.050
 8814POPC   C4B56566   2.265   9.741   7.350
 8815POPC   NC356567  23.682  13.585   5.550
 8815POPC   PO456568  23.675  13.585   5.850
 8815POPC   GL156569  23.751  13.594   6.150
 8815POPC   GL256570  23.627  13.578   6.150
 8815POPC   C1A56571  23.686  13.600   6.450
 8815POPC   D2A56572  23.678  13.615   6.750
 8815POPC   C3A56573  23.756  13.665   7.050
 8815POPC   C4A56574  23.679  13.584   7.350
 8815POPC   C1B56575  23.513  13.443   6.450
 8815POPC   C2B56576  23.517  13.461   6.750
 8815POPC   C3B56577  23.531  13.437   7.050
 8815POPC   C4B56578  23.569  13.449   7.350
 8816POPC   NC356579  15.181  40.782   5.550
 8816POPC   PO456580  15.193  40.817   5.850
 8816POPC   GL156581  15.189  40.818   6.150
 8816POPC   GL256582  15.144  40.946   6.150
 8816POPC   C1A56583  15.206  40.736   6.450
 8816POPC   D2A56584  15.152  40.818   6.750
 8816POPC   C3A56585  15.180  40.792   7.050
 8816POPC   C4A56586  15.148  40.742   7.350
 8816POPC   C1B56587  15.111  41.047   6.450
 8816POPC   C2B56588  15.091  41.024   6.750
 8816POPC   C3B56589  15.142  40.976   7.050
 8816POPC   C4B56590  15.159  41.023   7.350
 8817POPC   NC356591  40.013   7.386   5.550
 8817POPC   PO456592  40.030   7.391   5.850
 8817POPC   GL156593  39.988   7.455   6.150
 8817POPC   GL256594  39.920   7.352   6.150
 8817POPC   C1A56595  40.007   7.418   6.450
 8817POPC   D2A56596  40.042   7.385   6.750
 8817POPC   C3A56597  39.986   7.429   7.050
 8817POPC   C4A56598  39.972   7.411   7.350
 8817POPC   C1B56599  39.924   7.216   6.450
 8817POPC   C2B56600  39.923   7.180   6.750
 8817POPC   C3B56601  39.979   7.215   7.050
 8817POPC   C4B56602  39.879   7.150   7.350
 8818POPC   NC356603   0.473  28.385   5.550
 8818POPC   PO456604   0.476  28.359   5.850
 8818POPC   GL156605   0.414  28.328   6.150
 8818POPC   GL256606   0.568  28.430   6.150
 8818POPC   C1A56607   0.388  28.361   6.450
 8818POPC   D2A56608   0.399  28.383   6.750
 8818POPC   C3A56609   0.440  28.394   7.050
 8818POPC   C4A56610   0.467  28.325   7.350
 8818POPC   C1B56611   0.664  28.478   6.450
 8818POPC   C2B56612   0.648  28.439   6.750
 8818POPC   C3B56613   0.678  28.431   7.050
 8818POPC   C4B56614   0.640  28.458   7.350
 8819POPC   NC356615  40.753  37.687   5.550
 8819POPC   PO456616  40.797  37.678   5.850
 8819POPC   GL156617  40.821  37.668   6.150
 8819POPC   GL256618  40.675  37.812   6.150
 8819POPC   C1A56619  40.786  37.660   6.450
 8819POPC   D2A56620  40.804  37.640   6.750
 8819POPC   C3A56621  40.795  37.681   7.050
 8819POPC   C4A56622  40.737  37.656   7.350
 8819POPC   C1B56623  40.607  37.831   6.450
 8819POPC   C2B56624  40.613  37.900   6.750
 8819POPC   C3B56625  40.629  37.826   7.050
 8819POPC   C4B56626  40.606  37.818   7.350
 8820POPC   NC356627  29.914  25.296   5.550
 8820POPC   PO456628  29.891  25.233   5.850
 8820POPC   GL156629  29.916  25.289   6.150
 8820POPC   GL256630  29.888  25.399   6.150
 8820POPC   C1A56631  29.958  25.306   6.450
 8820POPC   D2A56632  29.887  25.255   6.750
 8820POPC   C3A56633  29.902  25.236   7.050
 8820POPC   C4A56634  29.954  25.283   7.350
 8820POPC   C1B56635  29.949  25.515   6.450
 8820POPC   C2B56636  29.874  25.480   6.750
 8820POPC   C3B56637  29.932  25.510   7.050
 8820POPC   C4B56638  29.876  25.540   7.350
 8821POPC   NC356639  22.947  22.141   5.550
 8821POPC   PO456640  22.971  22.151   5.850
 8821POPC   GL156641  22.898  22.118   6.150
 8821POPC   GL256642  23.066  22.208   6.150
 8821POPC   C1A56643  22.988  22.152   6.450
 8821POPC   D2A56644  22.938  22.164   6.750
 8821POPC   C3A56645  22.899  22.198   7.050
 8821POPC   C4A56646  22.905  22.193   7.350
 8821POPC   C1B56647  23.150  22.230   6.450
 8821POPC   C2B56648  23.144  22.232   6.750
 8821POPC   C3B56649  23.157  22.226   7.050
 8821POPC   C4B56650  23.163  22.250   7.350
 8822POPC   NC356651  41.559  37.689   5.550
 8822POPC   PO456652  41.591  37.705   5.850
 8822POPC   GL156653  41.606  37.663   6.150
 8822POPC   GL256654  41.478  37.775   6.150
 8822POPC   C1A56655  41.566  37.633   6.450
 8822POPC   D2A56656  41.512  37.675   6.750
 8822POPC   C3A56657  41.583  37.647   7.050
 8822POPC   C4A56658  41.603  37.659   7.350
 8822POPC   C1B56659  41.394  37.917   6.450
 8822POPC   C2B56660  41.467  37.846   6.750
 8822POPC   C3B56661  41.472  37.864   7.050
 8822POPC   C4B56662  41.472  37.873   7.350
 8823POPC   NC356663  18.303  41.537   5.550
 8823POPC   PO456664  18.243  41.565   5.850
 8823POPC   GL156665  18.327  41.529   6.150
 8823POPC   GL256666  18.163  41.508   6.150
 8823POPC   C1A56667  18.251  41.532   6.450
 8823POPC   D2A56668  18.294  41.536   6.750
 8823POPC   C3A56669  18.233  41.566   7.050
 8823POPC   C4A56670  18.277  41.538   7.350
 8823POPC   C1B56671  17.986  41.487   6.450
 8823POPC   C2B56672  18.064  41.531   6.750
 8823POPC   C3B56673  18.011  41.526   7.050
 8823POPC   C4B56674  18.004  41.499   7.350
 8824POPC   NC356675  26.054  27.592   5.550
 8824POPC   PO456676  26.056  27.622   5.850
 8824POPC   GL156677  26.085  27.575   6.150
 8824POPC   GL256678  25.975  27.676   6.150
 8824POPC   C1A56679  26.076  27.546   6.450
 8824POPC   D2A56680  26.006  27.594   6.750
 8824POPC   C3A56681  26.072  27.569   7.050
 8824POPC   C4A56682  26.039  27.581   7.350
 8824POPC   C1B56683  25.966  27.793   6.450
 8824POPC   C2B56684  25.889  27.799   6.750
 8824POPC   C3B56685  25.917  27.829   7.050
 8824POPC   C4B56686  25.886  27.826   7.350
 8825POPC   NC356687   0.421   1.238   5.550
 8825POPC   PO456688   0.484   1.228   5.850
 8825POPC   GL156689   0.464   1.184   6.150
 8825POPC   GL256690   0.407   1.096   6.150
 8825POPC   C1A56691   0.466   1.170   6.450
 8825POPC   D2A56692   0.439   1.236   6.750
 8825POPC   C3A56693   0.432   1.179   7.050
 8825POPC   C4A56694   0.388   1.175   7.350
 8825POPC   C1B56695   0.384   1.019   6.450
 8825POPC   C2B56696   0.328   1.021   6.750
 8825POPC   C3B56697   0.406   0.990   7.050
 8825POPC   C4B56698   0.405   1.022   7.350
 8826POPC   NC356699  27.604  18.311   5.550
 8826POPC   PO456700  27.547  18.279   5.850
 8826POPC   GL156701  27.546  18.264   6.150
 8826POPC   GL256702  27.507  18.266   6.150
 8826POPC   C1A56703  27.633  18.259   6.450
 8826POPC   D2A56704  27.607  18.329   6.750
 8826POPC   C3A56705  27.615  18.310   7.050
 8826POPC   C4A56706  27.595  18.255   7.350
 8826POPC   C1B56707  27.311  18.314   6.450
 8826POPC   C2B56708  27.375  18.287   6.750
 8826POPC   C3B56709  27.310  18.294   7.050
 8826POPC   C4B56710  27.353  18.318   7.350
 8827POPC   NC356711   6.671   3.492   5.550
 8827POPC   PO456712   6.661   3.569   5.850
 8827POPC   GL156713   6.686   3.582   6.150
 8827POPC   GL256714   6.698   3.381   6.150
 8827POPC   C1A56715   6.657   3.542   6.450
 8827POPC   D2A56716   6.607   3.530   6.750
 8827POPC   C3A56717   6.650   3.562   7.050
 8827POPC   C4A56718   6.665   3.513   7.350
 8827POPC   C1B56719   6.729   3.315   6.450
 8827POPC   C2B56720   6.714   3.361   6.750
 8827POPC   C3B56721   6.727   3.335   7.050
 8827POPC   C4B56722   6.771   3.360   7.350
 8828POPC   NC356723   1.984   3.525   5.550
 8828POPC   PO456724   1.985   3.501   5.850
 8828POPC   GL156725   2.009   3.497   6.150
 8828POPC   GL256726   1.943   3.626   6.150
 8828POPC   C1A56727   1.947   3.514   6.450
 8828POPC   D2A56728   1.952   3.544   6.750
 8828POPC   C3A56729   1.999   3.522   7.050
 8828POPC   C4A56730   2.014   3.562   7.350
 8828POPC   C1B56731   1.919   3.754   6.450
 8828POPC   C2B56732   1.932   3.812   6.750
 8828POPC   C3B56733   1.965   3.733   7.050
 8828POPC   C4B56734   1.967   3.752   7.350
 8829POPC   NC356735  18.312  11.338   5.550
 8829POPC   PO456736  18.275  11.309   5.850
 8829POPC   GL156737  18.235  11.255   6.150
 8829POPC   GL256738  18.272  11.441   6.150
 8829POPC   C1A56739  18.272  11.328   6.450
 8829POPC   D2A56740  18.235  11.334   6.750
 8829POPC   C3A56741  18.316  11.285   7.050
 8829POPC   C4A56742  18.284  11.343   7.350
 8829POPC   C1B56743  18.199  11.549   6.450
 8829POPC   C2B56744  18.232  11.545   6.750
 8829POPC   C3B56745  18.162  11.509   7.050
 8829POPC   C4B56746  18.182  11.578   7.350
 8830POPC   NC356747  42.321  29.167   5.550
 8830POPC   PO456748  42.341  29.144   5.850
 8830POPC   GL156749  42.352  29.146   6.150
 8830POPC   GL256750  42.366  29.063   6.150
 8830POPC   C1A56751  42.372  29.114   6.450
 8830POPC   D2A56752  42.343  29.127   6.750
 8830POPC   C3A56753  42.328  29.114   7.050
 8830POPC   C4A56754  42.349  29.152   7.350
 8830POPC   C1B56755  42.310  28.920   6.450
 8830POPC   C2B56756  42.306  28.856   6.750
 8830POPC   C3B56757  42.302  28.850   7.050
 8830POPC   C4B56758  42.314  28.944   7.350
 8831POPC   NC356759  38.419   1.257   5.550
 8831POPC   PO456760  38.428   1.189   5.850
 8831POPC   GL156761  38.420   1.172   6.150
 8831POPC   GL256762  38.465   1.102   6.150
 8831POPC   C1A56763  38.418   1.200   6.450
 8831POPC   D2A56764  38.436   1.211   6.750
 8831POPC   C3A56765  38.439   1.229   7.050
 8831POPC   C4A56766  38.410   1.220   7.350
 8831POPC   C1B56767  38.475   0.921   6.450
 8831POPC   C2B56768  38.443   0.959   6.750
 8831POPC   C3B56769  38.412   0.964   7.050
 8831POPC   C4B56770  38.445   0.925   7.350
 8832POPC   NC356771  43.152  13.656   5.550
 8832POPC   PO456772  43.066  13.604   5.850
 8832POPC   GL156773  43.125  13.606   6.150
 8832POPC   GL256774  43.010  13.567   6.150
 8832POPC   C1A56775  43.079  13.582   6.450
 8832POPC   D2A56776  43.134  13.594   6.750
 8832POPC   C3A56777  43.092  13.638   7.050
 8832POPC   C4A56778  43.101  13.655   7.350
 8832POPC   C1B56779  42.897  13.612   6.450
 8832POPC   C2B56780  42.829  13.563   6.750
 8832POPC   C3B56781  42.848  13.617   7.050
 8832POPC   C4B56782  42.844  13.588   7.350
 8833POPC   NC356783  26.087  13.586   5.550
 8833POPC   PO456784  26.039  13.641   5.850
 8833POPC   GL156785  26.009  13.632   6.150
 8833POPC   GL256786  25.890  13.679   6.150
 8833POPC   C1A56787  26.038  13.601   6.450
 8833POPC   D2A56788  26.055  13.638   6.750
 8833POPC   C3A56789  26.031  13.625   7.050
 8833POPC   C4A56790  26.024  13.644   7.350
 8833POPC   C1B56791  25.806  13.711   6.450
 8833POPC   C2B56792  25.800  13.663   6.750
 8833POPC   C3B56793  25.771  13.687   7.050
 8833POPC   C4B56794  25.790  13.641   7.350
 8834POPC   NC356795  41.557  43.086   5.550
 8834POPC   PO456796  41.539  43.081   5.850
 8834POPC   GL156797  41.602  43.145   6.150
 8834POPC   GL256798  41.688  43.191   6.150
 8834POPC   C1A56799  41.602  43.097   6.450
 8834POPC   D2A56800  41.510  43.147   6.750
 8834POPC   C3A56801  41.566  43.072   7.050
 8834POPC   C4A56802  41.539  43.120   7.350
 8834POPC   C1B56803  41.757  43.175   6.450
 8834POPC   C2B56804  41.802  43.265   6.750
 8834POPC   C3B56805  41.749  43.260   7.050
 8834POPC   C4B56806  41.797  43.267   7.350
 8835POPC   NC356807  19.057  34.603   5.550
 8835POPC   PO456808  19.037  34.586   5.850
 8835POPC   GL156809  19.016  34.546   6.150
 8835POPC   GL256810  18.976  34.663   6.150
 8835POPC   C1A56811  19.058  34.562   6.450
 8835POPC   D2A56812  19.011  34.593   6.750
 8835POPC   C3A56813  19.012  34.548   7.050
 8835POPC   C4A56814  19.049  34.562   7.350
 8835POPC   C1B56815  18.834  34.700   6.450
 8835POPC   C2B56816  18.876  34.706   6.750
 8835POPC   C3B56817  18.844  34.671   7.050
 8835POPC   C4B56818  18.801  34.715   7.350
 8836POPC   NC356819  25.288  19.813   5.550
 8836POPC   PO456820  25.312  19.834   5.850
 8836POPC   GL156821  25.302  19.850   6.150
 8836POPC   GL256822  25.305  20.004   6.150
 8836POPC   C1A56823  25.268  19.848   6.450
 8836POPC   D2A56824  25.247  19.863   6.750
 8836POPC   C3A56825  25.280  19.827   7.050
 8836POPC   C4A56826  25.306  19.874   7.350
 8836POPC   C1B56827  25.318  20.057   6.450
 8836POPC   C2B56828  25.274  20.055   6.750
 8836POPC   C3B56829  25.336  20.063   7.050
 8836POPC   C4B56830  25.281  20.078   7.350
 8837POPC   NC356831  35.386  26.072   5.550
 8837POPC   PO456832  35.309  26.041   5.850
 8837POPC   GL156833  35.309  26.063   6.150
 8837POPC   GL256834  35.271  25.977   6.150
 8837POPC   C1A56835  35.386  26.048   6.450
 8837POPC   D2A56836  35.314  26.052   6.750
 8837POPC   C3A56837  35.326  26.005   7.050
 8837POPC   C4A56838  35.373  26.083   7.350
 8837POPC   C1B56839  35.164  25.896   6.450
 8837POPC   C2B56840  35.084  25.978   6.750
 8837POPC   C3B56841  35.104  25.958   7.050
 8837POPC   C4B56842  35.128  25.891   7.350
 8838POPC   NC356843   7.391   7.448   5.550
 8838POPC   PO456844   7.421   7.470   5.850
 8838POPC   GL156845   7.432   7.443   6.150
 8838POPC   GL256846   7.538   7.380   6.150
 8838POPC   C1A56847   7.416   7.461   6.450
 8838POPC   D2A56848   7.397   7.406   6.750
 8838POPC   C3A56849   7.445   7.420   7.050
 8838POPC   C4A56850   7.415   7.440   7.350
 8838POPC   C1B56851   7.636   7.283   6.450
 8838POPC   C2B56852   7.614   7.289   6.750
 8838POPC   C3B56853   7.632   7.281   7.050
 8838POPC   C4B56854   7.635   7.284   7.350
 8839POPC   NC356855   2.725  43.102   5.550
 8839POPC   PO456856   2.809  43.114   5.850
 8839POPC   GL156857   2.786  43.157   6.150
 8839POPC   GL256858   2.857  43.202   6.150
 8839POPC   C1A56859   2.795  43.074   6.450
 8839POPC   D2A56860   2.794  43.144   6.750
 8839POPC   C3A56861   2.737  43.076   7.050
 8839POPC   C4A56862   2.808  43.138   7.350
 8839POPC   C1B56863   2.913  43.298   6.450
 8839POPC   C2B56864   2.940  43.329   6.750
 8839POPC   C3B56865   2.849  43.310   7.050
 8839POPC   C4B56866   2.903  43.361   7.350
 8840POPC   NC356867   9.000  22.946   5.550
 8840POPC   PO456868   8.965  22.889   5.850
 8840POPC   GL156869   8.956  22.894   6.150
 8840POPC   GL256870   9.078  22.781   6.150
 8840POPC   C1A56871   9.004  22.960   6.450
 8840POPC   D2A56872   8.950  22.893   6.750
 8840POPC   C3A56873   9.004  22.940   7.050
 8840POPC   C4A56874   8.974  22.893   7.350
 8840POPC   C1B56875   9.088  22.707   6.450
 8840POPC   C2B56876   9.083  22.683   6.750
 8840POPC   C3B56877   9.045  22.702   7.050
 8840POPC   C4B56878   9.049  22.721   7.350
 8841POPC   NC356879  20.660  26.783   5.550
 8841POPC   PO456880  20.594  26.784   5.850
 8841POPC   GL156881  20.659  26.772   6.150
 8841POPC   GL256882  20.668  26.737   6.150
 8841POPC   C1A56883  20.632  26.818   6.450
 8841POPC   D2A56884  20.562  26.823   6.750
 8841POPC   C3A56885  20.584  26.813   7.050
 8841POPC   C4A56886  20.657  26.803   7.350
 8841POPC   C1B56887  20.818  26.628   6.450
 8841POPC   C2B56888  20.785  26.636   6.750
 8841POPC   C3B56889  20.855  26.688   7.050
 8841POPC   C4B56890  20.792  26.711   7.350
 8842POPC   NC356891  10.554  19.808   5.550
 8842POPC   PO456892  10.479  19.811   5.850
 8842POPC   GL156893  10.567  19.881   6.150
 8842POPC   GL256894  10.448  19.949   6.150
 8842POPC   C1A56895  10.559  19.808   6.450
 8842POPC   D2A56896  10.514  19.804   6.750
 8842POPC   C3A56897  10.482  19.874   7.050
 8842POPC   C4A56898  10.496  19.809   7.350
 8842POPC   C1B56899  10.414  20.088   6.450
 8842POPC   C2B56900  10.430  20.089   6.750
 8842POPC   C3B56901  10.438  20.057   7.050
 8842POPC   C4B56902  10.430  20.030   7.350
 8843POPC   NC356903  32.975   7.447   5.550
 8843POPC   PO456904  33.049   7.403   5.850
 8843POPC   GL156905  33.048   7.373   6.150
 8843POPC   GL256906  32.920   7.483   6.150
 8843POPC   C1A56907  33.040   7.377   6.450
 8843POPC   D2A56908  32.979   7.456   6.750
 8843POPC   C3A56909  33.023   7.434   7.050
 8843POPC   C4A56910  33.021   7.395   7.350
 8843POPC   C1B56911  32.821   7.446   6.450
 8843POPC   C2B56912  32.805   7.488   6.750
 8843POPC   C3B56913  32.775   7.487   7.050
 8843POPC   C4B56914  32.732   7.432   7.350
 8844POPC   NC356915  22.912  43.922   5.550
 8844POPC   PO456916  22.898  43.849   5.850
 8844POPC   GL156917  22.904  43.884   6.150
 8844POPC   GL256918  23.028  43.771   6.150
 8844POPC   C1A56919  22.976  43.918   6.450
 8844POPC   D2A56920  22.956  43.906   6.750
 8844POPC   C3A56921  22.909  43.863   7.050
 8844POPC   C4A56922  22.977  43.902   7.350
 8844POPC   C1B56923  23.163  43.737   6.450
 8844POPC   C2B56924  23.133  43.735   6.750
 8844POPC   C3B56925  23.117  43.727   7.050
 8844POPC   C4B56926  23.156  43.748   7.350
 8845POPC   NC356927   1.996  40.056   5.550
 8845POPC   PO456928   2.025  39.990   5.850
 8845POPC   GL156929   1.951  40.008   6.150
 8845POPC   GL256930   1.827  40.070   6.150
 8845POPC   C1A56931   2.004  40.019   6.450
 8845POPC   D2A56932   1.974  40.001   6.750
 8845POPC   C3A56933   1.977  39.999   7.050
 8845POPC   C4A56934   1.962  40.049   7.350
 8845POPC   C1B56935   1.776  40.112   6.450
 8845POPC   C2B56936   1.791  40.118   6.750
 8845POPC   C3B56937   1.768  40.123   7.050
 8845POPC   C4B56938   1.798  40.116   7.350
 8846POPC   NC356939  27.592   9.797   5.550
 8846POPC   PO456940  27.587   9.724   5.850
 8846POPC   GL156941  27.571   9.792   6.150
 8846POPC   GL256942  27.618   9.620   6.150
 8846POPC   C1A56943  27.612   9.720   6.450
 8846POPC   D2A56944  27.549   9.743   6.750
 8846POPC   C3A56945  27.614   9.714   7.050
 8846POPC   C4A56946  27.560   9.760   7.350
 8846POPC   C1B56947  27.749   9.560   6.450
 8846POPC   C2B56948  27.705   9.585   6.750
 8846POPC   C3B56949  27.686   9.567   7.050
 8846POPC   C4B56950  27.710   9.528   7.350
 8847POPC   NC356951  28.397  26.818   5.550
 8847POPC   PO456952  28.356  26.810   5.850
 8847POPC   GL156953  28.399  26.767   6.150
 8847POPC   GL256954  28.257  26.714   6.150
 8847POPC   C1A56955  28.331  26.813   6.450
 8847POPC   D2A56956  28.342  26.821   6.750
 8847POPC   C3A56957  28.368  26.824   7.050
 8847POPC   C4A56958  28.333  26.792   7.350
 8847POPC   C1B56959  28.206  26.610   6.450
 8847POPC   C2B56960  28.187  26.616   6.750
 8847POPC   C3B56961  28.169  26.657   7.050
 8847POPC   C4B56962  28.205  26.645   7.350
 8848POPC   NC356963  42.346  32.199   5.550
 8848POPC   PO456964  42.301  32.242   5.850
 8848POPC   GL156965  42.298  32.284   6.150
 8848POPC   GL256966  42.283  32.126   6.150
 8848POPC   C1A56967  42.329  32.212   6.450
 8848POPC   D2A56968  42.291  32.275   6.750
 8848POPC   C3A56969  42.339  32.298   7.050
 8848POPC   C4A56970  42.332  32.230   7.350
 8848POPC   C1B56971  42.152  32.070   6.450
 8848POPC   C2B56972  42.127  32.148   6.750
 8848POPC   C3B56973  42.155  32.113   7.050
 8848POPC   C4B56974  42.137  32.127   7.350
 8849POPC   NC356975  36.106   5.827   5.550
 8849POPC   PO456976  36.156   5.902   5.850
 8849POPC   GL156977  36.147   5.867   6.150
 8849POPC   GL256978  36.199   5.828   6.150
 8849POPC   C1A56979  36.123   5.913   6.450
 8849POPC   D2A56980  36.142   5.889   6.750
 8849POPC   C3A56981  36.117   5.908   7.050
 8849POPC   C4A56982  36.138   5.906   7.350
 8849POPC   C1B56983  36.301   5.790   6.450
 8849POPC   C2B56984  36.389   5.712   6.750
 8849POPC   C3B56985  36.367   5.769   7.050
 8849POPC   C4B56986  36.391   5.741   7.350
 8850POPC   NC356987  26.027  36.147   5.550
 8850POPC   PO456988  26.057  36.176   5.850
 8850POPC   GL156989  26.023  36.148   6.150
 8850POPC   GL256990  25.919  36.119   6.150
 8850POPC   C1A56991  26.050  36.177   6.450
 8850POPC   D2A56992  26.060  36.177   6.750
 8850POPC   C3A56993  26.020  36.161   7.050
 8850POPC   C4A56994  26.077  36.147   7.350
 8850POPC   C1B56995  25.780  36.081   6.450
 8850POPC   C2B56996  25.767  36.073   6.750
 8850POPC   C3B56997  25.828  36.158   7.050
 8850POPC   C4B56998  25.764  36.103   7.350
 8851POPC   NC356999  37.687  26.843   5.550
 8851POPC   PO457000  37.728  26.772   5.850
 8851POPC   GL157001  37.716  26.866   6.150
 8851POPC   GL257002  37.558  26.768   6.150
 8851POPC   C1A57003  37.712  26.856   6.450
 8851POPC   D2A57004  37.652  26.769   6.750
 8851POPC   C3A57005  37.664  26.809   7.050
 8851POPC   C4A57006  37.693  26.793   7.350
 8851POPC   C1B57007  37.531  26.649   6.450
 8851POPC   C2B57008  37.486  26.602   6.750
 8851POPC   C3B57009  37.512  26.647   7.050
 8851POPC   C4B57010  37.491  26.676   7.350
 8852POPC   NC357011   0.464  23.669   5.550
 8852POPC   PO457012   0.390  23.738   5.850
 8852POPC   GL157013   0.436  23.688   6.150
 8852POPC   GL257014   0.487  23.824   6.150
 8852POPC   C1A57015   0.416  23.668   6.450
 8852POPC   D2A57016   0.399  23.667   6.750
 8852POPC   C3A57017   0.477  23.744   7.050
 8852POPC   C4A57018   0.446  23.686   7.350
 8852POPC   C1B57019   0.539  23.945   6.450
 8852POPC   C2B57020   0.560  23.896   6.750
 8852POPC   C3B57021   0.578  23.908   7.050
 8852POPC   C4B57022   0.573  23.968   7.350
 8853POPC   NC357023  39.970  19.838   5.550
 8853POPC   PO457024  40.000  19.816   5.850
 8853POPC   GL157025  39.959  19.817   6.150
 8853POPC   GL257026  39.849  19.846   6.150
 8853POPC   C1A57027  40.040  19.803   6.450
 8853POPC   D2A57028  39.997  19.827   6.750
 8853POPC   C3A57029  39.962  19.836   7.050
 8853POPC   C4A57030  39.990  19.817   7.350
 8853POPC   C1B57031  39.741  19.854   6.450
 8853POPC   C2B57032  39.737  19.834   6.750
 8853POPC   C3B57033  39.764  19.881   7.050
 8853POPC   C4B57034  39.772  19.845   7.350
 8854POPC   NC357035  32.212  31.521   5.550
 8854POPC   PO457036  32.294  31.424   5.850
 8854POPC   GL157037  32.221  31.493   6.150
 8854POPC   GL257038  32.308  31.348   6.150
 8854POPC   C1A57039  32.285  31.501   6.450
 8854POPC   D2A57040  32.253  31.489   6.750
 8854POPC   C3A57041  32.266  31.510   7.050
 8854POPC   C4A57042  32.276  31.456   7.350
 8854POPC   C1B57043  32.304  31.220   6.450
 8854POPC   C2B57044  32.348  31.224   6.750
 8854POPC   C3B57045  32.292  31.192   7.050
 8854POPC   C4B57046  32.368  31.278   7.350
 8855POPC   NC357047  16.720  17.507   5.550
 8855POPC   PO457048  16.736  17.551   5.850
 8855POPC   GL157049  16.728  17.476   6.150
 8855POPC   GL257050  16.643  17.388   6.150
 8855POPC   C1A57051  16.702  17.505   6.450
 8855POPC   D2A57052  16.703  17.510   6.750
 8855POPC   C3A57053  16.769  17.476   7.050
 8855POPC   C4A57054  16.730  17.469   7.350
 8855POPC   C1B57055  16.603  17.348   6.450
 8855POPC   C2B57056  16.579  17.369   6.750
 8855POPC   C3B57057  16.534  17.373   7.050
 8855POPC   C4B57058  16.565  17.371   7.350
 8856POPC   NC357059   5.079  15.926   5.550
 8856POPC   PO457060   5.133  15.929   5.850
 8856POPC   GL157061   5.070  15.931   6.150
 8856POPC   GL257062   5.064  16.053   6.150
 8856POPC   C1A57063   5.143  15.952   6.450
 8856POPC   D2A57064   5.086  15.918   6.750
 8856POPC   C3A57065   5.057  15.979   7.050
 8856POPC   C4A57066   5.101  15.996   7.350
 8856POPC   C1B57067   5.078  16.200   6.450
 8856POPC   C2B57068   5.075  16.174   6.750
 8856POPC   C3B57069   5.017  16.176   7.050
 8856POPC   C4B57070   5.073  16.184   7.350
 8857POPC   NC357071   9.729  33.035   5.550
 8857POPC   PO457072   9.707  33.050   5.850
 8857POPC   GL157073   9.773  33.064   6.150
 8857POPC   GL257074   9.803  33.122   6.150
 8857POPC   C1A57075   9.780  32.988   6.450
 8857POPC   D2A57076   9.755  33.033   6.750
 8857POPC   C3A57077   9.725  32.989   7.050
 8857POPC   C4A57078   9.794  33.041   7.350
 8857POPC   C1B57079   9.884  33.247   6.450
 8857POPC   C2B57080   9.903  33.246   6.750
 8857POPC   C3B57081   9.930  33.220   7.050
 8857POPC   C4B57082   9.941  33.211   7.350
 8858POPC   NC357083  20.621  41.514   5.550
 8858POPC   PO457084  20.610  41.553   5.850
 8858POPC   GL157085  20.571  41.579   6.150
 8858POPC   GL257086  20.661  41.663   6.150
 8858POPC   C1A57087  20.610  41.576   6.450
 8858POPC   D2A57088  20.583  41.607   6.750
 8858POPC   C3A57089  20.627  41.535   7.050
 8858POPC   C4A57090  20.609  41.515   7.350
 8858POPC   C1B57091  20.702  41.756   6.450
 8858POPC   C2B57092  20.665  41.850   6.750
 8858POPC   C3B57093  20.621  41.802   7.050
 8858POPC   C4B57094  20.612  41.814   7.350
 8859POPC   NC357095   1.213  27.593   5.550
 8859POPC   PO457096   1.167  27.604   5.850
 8859POPC   GL157097   1.166  27.613   6.150
 8859POPC   GL257098   1.134  27.678   6.150
 8859POPC   C1A57099   1.167  27.556   6.450
 8859POPC   D2A57100   1.207  27.641   6.750
 8859POPC   C3A57101   1.204  27.601   7.050
 8859POPC   C4A57102   1.165  27.609   7.350
 8859POPC   C1B57103   1.120  27.820   6.450
 8859POPC   C2B57104   1.123  27.852   6.750
 8859POPC   C3B57105   1.172  27.826   7.050
 8859POPC   C4B57106   1.139  27.792   7.350
 8860POPC   NC357107  40.820  14.366   5.550
 8860POPC   PO457108  40.744  14.386   5.850
 8860POPC   GL157109  40.742  14.362   6.150
 8860POPC   GL257110  40.710  14.470   6.150
 8860POPC   C1A57111  40.771  14.374   6.450
 8860POPC   D2A57112  40.733  14.375   6.750
 8860POPC   C3A57113  40.751  14.372   7.050
 8860POPC   C4A57114  40.826  14.415   7.350
 8860POPC   C1B57115  40.530  14.550   6.450
 8860POPC   C2B57116  40.543  14.468   6.750
 8860POPC   C3B57117  40.561  14.512   7.050
 8860POPC   C4B57118  40.599  14.519   7.350
 8861POPC   NC357119  30.679  28.391   5.550
 8861POPC   PO457120  30.692  28.397   5.850
 8861POPC   GL157121  30.721  28.333   6.150
 8861POPC   GL257122  30.712  28.459   6.150
 8861POPC   C1A57123  30.746  28.342   6.450
 8861POPC   D2A57124  30.676  28.346   6.750
 8861POPC   C3A57125  30.692  28.378   7.050
 8861POPC   C4A57126  30.664  28.397   7.350
 8861POPC   C1B57127  30.664  28.659   6.450
 8861POPC   C2B57128  30.714  28.568   6.750
 8861POPC   C3B57129  30.658  28.593   7.050
 8861POPC   C4B57130  30.632  28.666   7.350
 8862POPC   NC357131  36.950  33.778   5.550
 8862POPC   PO457132  36.926  33.792   5.850
 8862POPC   GL157133  36.926  33.784   6.150
 8862POPC   GL257134  36.906  33.643   6.150
 8862POPC   C1A57135  36.933  33.796   6.450
 8862POPC   D2A57136  36.947  33.813   6.750
 8862POPC   C3A57137  36.945  33.786   7.050
 8862POPC   C4A57138  36.934  33.827   7.350
 8862POPC   C1B57139  36.826  33.509   6.450
 8862POPC   C2B57140  36.814  33.549   6.750
 8862POPC   C3B57141  36.839  33.542   7.050
 8862POPC   C4B57142  36.853  33.592   7.350
 8863POPC   NC357143  26.036  15.151   5.550
 8863POPC   PO457144  25.993  15.195   5.850
 8863POPC   GL157145  26.023  15.161   6.150
 8863POPC   GL257146  26.065  15.095   6.150
 8863POPC   C1A57147  26.085  15.170   6.450
 8863POPC   D2A57148  26.068  15.147   6.750
 8863POPC   C3A57149  26.089  15.154   7.050
 8863POPC   C4A57150  25.997  15.155   7.350
 8863POPC   C1B57151  25.949  14.886   6.450
 8863POPC   C2B57152  25.977  14.965   6.750
 8863POPC   C3B57153  25.997  14.955   7.050
 8863POPC   C4B57154  26.005  14.898   7.350
 8864POPC   NC357155   2.005  15.161   5.550
 8864POPC   PO457156   2.032  15.135   5.850
 8864POPC   GL157157   1.982  15.149   6.150
 8864POPC   GL257158   1.891  15.129   6.150
 8864POPC   C1A57159   1.985  15.179   6.450
 8864POPC   D2A57160   1.992  15.228   6.750
 8864POPC   C3A57161   2.015  15.140   7.050
 8864POPC   C4A57162   1.970  15.142   7.350
 8864POPC   C1B57163   1.850  14.971   6.450
 8864POPC   C2B57164   1.834  14.951   6.750
 8864POPC   C3B57165   1.774  15.005   7.050
 8864POPC   C4B57166   1.819  15.031   7.350
 8865POPC   NC357167   0.481  15.930   5.550
 8865POPC   PO457168   0.428  15.921   5.850
 8865POPC   GL157169   0.477  15.915   6.150
 8865POPC   GL257170   0.572  16.014   6.150
 8865POPC   C1A57171   0.474  15.996   6.450
 8865POPC   D2A57172   0.429  15.990   6.750
 8865POPC   C3A57173   0.471  15.975   7.050
 8865POPC   C4A57174   0.406  15.976   7.350
 8865POPC   C1B57175   0.678  15.990   6.450
 8865POPC   C2B57176   0.636  15.943   6.750
 8865POPC   C3B57177   0.651  15.963   7.050
 8865POPC   C4B57178   0.691  15.961   7.350
 8866POPC   NC357179  37.700  36.894   5.550
 8866POPC   PO457180  37.724  36.932   5.850
 8866POPC   GL157181  37.714  36.859   6.150
 8866POPC   GL257182  37.561  36.809   6.150
 8866POPC   C1A57183  37.713  36.905   6.450
 8866POPC   D2A57184  37.707  36.894   6.750
 8866POPC   C3A57185  37.642  36.871   7.050
 8866POPC   C4A57186  37.715  36.941   7.350
 8866POPC   C1B57187  37.458  36.714   6.450
 8866POPC   C2B57188  37.495  36.791   6.750
 8866POPC   C3B57189  37.490  36.710   7.050
 8866POPC   C4B57190  37.441  36.792   7.350
 8867POPC   NC357191  20.620  36.120   5.550
 8867POPC   PO457192  20.599  36.106   5.850
 8867POPC   GL157193  20.636  36.151   6.150
 8867POPC   GL257194  20.511  36.059   6.150
 8867POPC   C1A57195  20.650  36.087   6.450
 8867POPC   D2A57196  20.623  36.112   6.750
 8867POPC   C3A57197  20.578  36.136   7.050
 8867POPC   C4A57198  20.627  36.080   7.350
 8867POPC   C1B57199  20.412  36.023   6.450
 8867POPC   C2B57200  20.454  36.020   6.750
 8867POPC   C3B57201  20.362  35.960   7.050
 8867POPC   C4B57202  20.446  36.003   7.350
 8868POPC   NC357203  32.233   6.638   5.550
 8868POPC   PO457204  32.217   6.682   5.850
 8868POPC   GL157205  32.287   6.623   6.150
 8868POPC   GL257206  32.371   6.673   6.150
 8868POPC   C1A57207  32.272   6.646   6.450
 8868POPC   D2A57208  32.290   6.619   6.750
 8868POPC   C3A57209  32.217   6.631   7.050
 8868POPC   C4A57210  32.291   6.642   7.350
 8868POPC   C1B57211  32.526   6.729   6.450
 8868POPC   C2B57212  32.503   6.732   6.750
 8868POPC   C3B57213  32.505   6.765   7.050
 8868POPC   C4B57214  32.492   6.734   7.350
 8869POPC   NC357215  33.815   1.254   5.550
 8869POPC   PO457216  33.775   1.194   5.850
 8869POPC   GL157217  33.847   1.261   6.150
 8869POPC   GL257218  33.721   1.092   6.150
 8869POPC   C1A57219  33.836   1.209   6.450
 8869POPC   D2A57220  33.814   1.255   6.750
 8869POPC   C3A57221  33.822   1.217   7.050
 8869POPC   C4A57222  33.750   1.252   7.350
 8869POPC   C1B57223  33.691   0.969   6.450
 8869POPC   C2B57224  33.691   1.061   6.750
 8869POPC   C3B57225  33.667   1.002   7.050
 8869POPC   C4B57226  33.677   1.031   7.350
 8870POPC   NC357227   2.771   9.732   5.550
 8870POPC   PO457228   2.731   9.739   5.850
 8870POPC   GL157229   2.803   9.721   6.150
 8870POPC   GL257230   2.668   9.652   6.150
 8870POPC   C1A57231   2.739   9.798   6.450
 8870POPC   D2A57232   2.728   9.718   6.750
 8870POPC   C3A57233   2.812   9.703   7.050
 8870POPC   C4A57234   2.761   9.748   7.350
 8870POPC   C1B57235   2.596   9.565   6.450
 8870POPC   C2B57236   2.586   9.510   6.750
 8870POPC   C3B57237   2.614   9.589   7.050
 8870POPC   C4B57238   2.603   9.606   7.350
 8871POPC   NC357239  34.611  41.521   5.550
 8871POPC   PO457240  34.617  41.509   5.850
 8871POPC   GL157241  34.612  41.579   6.150
 8871POPC   GL257242  34.631  41.652   6.150
 8871POPC   C1A57243  34.541  41.567   6.450
 8871POPC   D2A57244  34.568  41.514   6.750
 8871POPC   C3A57245  34.600  41.556   7.050
 8871POPC   C4A57246  34.540  41.584   7.350
 8871POPC   C1B57247  34.707  41.741   6.450
 8871POPC   C2B57248  34.700  41.820   6.750
 8871POPC   C3B57249  34.632  41.838   7.050
 8871POPC   C4B57250  34.713  41.784   7.350
 8872POPC   NC357251  13.606  33.028   5.550
 8872POPC   PO457252  13.593  32.987   5.850
 8872POPC   GL157253  13.584  32.975   6.150
 8872POPC   GL257254  13.714  33.123   6.150
 8872POPC   C1A57255  13.578  33.065   6.450
 8872POPC   D2A57256  13.645  33.051   6.750
 8872POPC   C3A57257  13.604  32.984   7.050
 8872POPC   C4A57258  13.581  32.993   7.350
 8872POPC   C1B57259  13.741  33.219   6.450
 8872POPC   C2B57260  13.819  33.246   6.750
 8872POPC   C3B57261  13.816  33.224   7.050
 8872POPC   C4B57262  13.809  33.243   7.350
 8873POPC   NC357263   4.301   5.855   5.550
 8873POPC   PO457264   4.336   5.860   5.850
 8873POPC   GL157265   4.294   5.870   6.150
 8873POPC   GL257266   4.450   5.771   6.150
 8873POPC   C1A57267   4.315   5.832   6.450
 8873POPC   D2A57268   4.362   5.904   6.750
 8873POPC   C3A57269   4.340   5.869   7.050
 8873POPC   C4A57270   4.332   5.880   7.350
 8873POPC   C1B57271   4.522   5.740   6.450
 8873POPC   C2B57272   4.519   5.661   6.750
 8873POPC   C3B57273   4.488   5.736   7.050
 8873POPC   C4B57274   4.500   5.668   7.350
 8874POPC   NC357275  23.750   4.350   5.550
 8874POPC   PO457276  23.708   4.310   5.850
 8874POPC   GL157277  23.718   4.332   6.150
 8874POPC   GL257278  23.625   4.389   6.150
 8874POPC   C1A57279  23.696   4.282   6.450
 8874POPC   D2A57280  23.755   4.326   6.750
 8874POPC   C3A57281  23.679   4.310   7.050
 8874POPC   C4A57282  23.714   4.283   7.350
 8874POPC   C1B57283  23.619   4.488   6.450
 8874POPC   C2B57284  23.585   4.553   6.750
 8874POPC   C3B57285  23.544   4.541   7.050
 8874POPC   C4B57286  23.604   4.484   7.350
 8875POPC   NC357287  19.059  17.500   5.550
 8875POPC   PO457288  19.080  17.477   5.850
 8875POPC   GL157289  19.010  17.517   6.150
 8875POPC   GL257290  19.041  17.603   6.150
 8875POPC   C1A57291  19.029  17.538   6.450
 8875POPC   D2A57292  19.090  17.553   6.750
 8875POPC   C3A57293  19.083  17.553   7.050
 8875POPC   C4A57294  19.012  17.503   7.350
 8875POPC   C1B57295  19.126  17.730   6.450
 8875POPC   C2B57296  19.093  17.738   6.750
 8875POPC   C3B57297  19.053  17.708   7.050
 8875POPC   C4B57298  19.099  17.774   7.350
 8876POPC   NC357299  19.787  34.554   5.550
 8876POPC   PO457300  19.882  34.562   5.850
 8876POPC   GL157301  19.800  34.537   6.150
 8876POPC   GL257302  19.676  34.608   6.150
 8876POPC   C1A57303  19.823  34.556   6.450
 8876POPC   D2A57304  19.825  34.618   6.750
 8876POPC   C3A57305  19.836  34.595   7.050
 8876POPC   C4A57306  19.829  34.585   7.350
 8876POPC   C1B57307  19.603  34.591   6.450
 8876POPC   C2B57308  19.554  34.562   6.750
 8876POPC   C3B57309  19.563  34.587   7.050
 8876POPC   C4B57310  19.603  34.614   7.350
 8877POPC   NC357311  33.819  21.420   5.550
 8877POPC   PO457312  33.845  21.371   5.850
 8877POPC   GL157313  33.774  21.391   6.150
 8877POPC   GL257314  33.905  21.410   6.150
 8877POPC   C1A57315  33.759  21.405   6.450
 8877POPC   D2A57316  33.842  21.426   6.750
 8877POPC   C3A57317  33.816  21.415   7.050
 8877POPC   C4A57318  33.819  21.352   7.350
 8877POPC   C1B57319  34.032  21.392   6.450
 8877POPC   C2B57320  34.042  21.400   6.750
 8877POPC   C3B57321  34.023  21.404   7.050
 8877POPC   C4B57322  34.006  21.322   7.350
 8878POPC   NC357323  23.734   2.734   5.550
 8878POPC   PO457324  23.758   2.739   5.850
 8878POPC   GL157325  23.720   2.789   6.150
 8878POPC   GL257326  23.806   2.709   6.150
 8878POPC   C1A57327  23.735   2.797   6.450
 8878POPC   D2A57328  23.757   2.777   6.750
 8878POPC   C3A57329  23.701   2.784   7.050
 8878POPC   C4A57330  23.732   2.782   7.350
 8878POPC   C1B57331  23.947   2.635   6.450
 8878POPC   C2B57332  23.917   2.613   6.750
 8878POPC   C3B57333  23.966   2.664   7.050
 8878POPC   C4B57334  23.952   2.656   7.350
 8879POPC   NC357335  12.880  40.795   5.550
 8879POPC   PO457336  12.864  40.792   5.850
 8879POPC   GL157337  12.889  40.737   6.150
 8879POPC   GL257338  12.693  40.722   6.150
 8879POPC   C1A57339  12.884  40.824   6.450
 8879POPC   D2A57340  12.869  40.800   6.750
 8879POPC   C3A57341  12.884  40.777   7.050
 8879POPC   C4A57342  12.837  40.735   7.350
 8879POPC   C1B57343  12.655  40.679   6.450
 8879POPC   C2B57344  12.594  40.678   6.750
 8879POPC   C3B57345  12.581  40.681   7.050
 8879POPC   C4B57346  12.658  40.684   7.350
 8880POPC   NC357347  44.711   3.527   5.550
 8880POPC   PO457348  44.698   3.541   5.850
 8880POPC   GL157349  44.631   3.557   6.150
 8880POPC   GL257350  44.504   3.531   6.150
 8880POPC   C1A57351  44.619   3.550   6.450
 8880POPC   D2A57352  44.661   3.583   6.750
 8880POPC   C3A57353  44.680   3.567   7.050
 8880POPC   C4A57354  44.657   3.563   7.350
 8880POPC   C1B57355  44.369   3.601   6.450
 8880POPC   C2B57356  44.465   3.611   6.750
 8880POPC   C3B57357  44.426   3.619   7.050
 8880POPC   C4B57358  44.411   3.584   7.350
 8881POPC   NC357359  42.307  19.875   5.550
 8881POPC   PO457360  42.343  19.850   5.850
 8881POPC   GL157361  42.285  19.873   6.150
 8881POPC   GL257362  42.419  19.970   6.150
 8881POPC   C1A57363  42.285  19.798   6.450
 8881POPC   D2A57364  42.285  19.858   6.750
 8881POPC   C3A57365  42.361  19.804   7.050
 8881POPC   C4A57366  42.350  19.881   7.350
 8881POPC   C1B57367  42.520  20.008   6.450
 8881POPC   C2B57368  42.487  20.012   6.750
 8881POPC   C3B57369  42.505  20.002   7.050
 8881POPC   C4B57370  42.512  20.017   7.350
 8882POPC   NC357371  41.522  28.325   5.550
 8882POPC   PO457372  41.523  28.411   5.850
 8882POPC   GL157373  41.526  28.406   6.150
 8882POPC   GL257374  41.635  28.393   6.150
 8882POPC   C1A57375  41.608  28.375   6.450
 8882POPC   D2A57376  41.553  28.373   6.750
 8882POPC   C3A57377  41.518  28.391   7.050
 8882POPC   C4A57378  41.567  28.322   7.350
 8882POPC   C1B57379  41.806  28.329   6.450
 8882POPC   C2B57380  41.766  28.331   6.750
 8882POPC   C3B57381  41.772  28.355   7.050
 8882POPC   C4B57382  41.856  28.354   7.350
 8883POPC   NC357383  26.821  12.825   5.550
 8883POPC   PO457384  26.846  12.856   5.850
 8883POPC   GL157385  26.796  12.879   6.150
 8883POPC   GL257386  26.676  12.772   6.150
 8883POPC   C1A57387  26.796  12.815   6.450
 8883POPC   D2A57388  26.843  12.837   6.750
 8883POPC   C3A57389  26.777  12.860   7.050
 8883POPC   C4A57390  26.854  12.831   7.350
 8883POPC   C1B57391  26.567  12.681   6.450
 8883POPC   C2B57392  26.570  12.741   6.750
 8883POPC   C3B57393  26.569  12.671   7.050
 8883POPC   C4B57394  26.653  12.743   7.350
 8884POPC   NC357395  39.961  28.321   5.550
 8884POPC   PO457396  39.960  28.418   5.850
 8884POPC   GL157397  39.984  28.382   6.150
 8884POPC   GL257398  40.019  28.265   6.150
 8884POPC   C1A57399  40.036  28.387   6.450
 8884POPC   D2A57400  40.013  28.403   6.750
 8884POPC   C3A57401  40.034  28.321   7.050
 8884POPC   C4A57402  40.039  28.369   7.350
 8884POPC   C1B57403  39.957  28.137   6.450
 8884POPC   C2B57404  39.926  28.131   6.750
 8884POPC   C3B57405  39.956  28.150   7.050
 8884POPC   C4B57406  39.935  28.114   7.350
 8885POPC   NC357407  14.369  40.741   5.550
 8885POPC   PO457408  14.439  40.821   5.850
 8885POPC   GL157409  14.419  40.798   6.150
 8885POPC   GL257410  14.456  40.726   6.150
 8885POPC   C1A57411  14.429  40.782   6.450
 8885POPC   D2A57412  14.415  40.820   6.750
 8885POPC   C3A57413  14.378  40.812   7.050
 8885POPC   C4A57414  14.393  40.810   7.350
 8885POPC   C1B57415  14.576  40.636   6.450
 8885POPC   C2B57416  14.631  40.627   6.750
 8885POPC   C3B57417  14.613  40.592   7.050
 8885POPC   C4B57418  14.556  40.573   7.350
 8886POPC   NC357419   1.180   2.779   5.550
 8886POPC   PO457420   1.223   2.771   5.850
 8886POPC   GL157421   1.263   2.738   6.150
 8886POPC   GL257422   1.376   2.687   6.150
 8886POPC   C1A57423   1.175   2.722   6.450
 8886POPC   D2A57424   1.209   2.762   6.750
 8886POPC   C3A57425   1.171   2.796   7.050
 8886POPC   C4A57426   1.181   2.716   7.350
 8886POPC   C1B57427   1.485   2.681   6.450
 8886POPC   C2B57428   1.409   2.745   6.750
 8886POPC   C3B57429   1.407   2.730   7.050
 8886POPC   C4B57430   1.412   2.678   7.350
 8887POPC   NC357431  20.615   1.219   5.550
 8887POPC   PO457432  20.588   1.255   5.850
 8887POPC   GL157433  20.583   1.211   6.150
 8887POPC   GL257434  20.588   1.374   6.150
 8887POPC   C1A57435  20.586   1.245   6.450
 8887POPC   D2A57436  20.578   1.214   6.750
 8887POPC   C3A57437  20.561   1.190   7.050
 8887POPC   C4A57438  20.595   1.180   7.350
 8887POPC   C1B57439  20.530   1.494   6.450
 8887POPC   C2B57440  20.589   1.454   6.750
 8887POPC   C3B57441  20.553   1.503   7.050
 8887POPC   C4B57442  20.528   1.454   7.350
 8888POPC   NC357443   8.149  16.762   5.550
 8888POPC   PO457444   8.220  16.706   5.850
 8888POPC   GL157445   8.225  16.756   6.150
 8888POPC   GL257446   8.200  16.809   6.150
 8888POPC   C1A57447   8.187  16.695   6.450
 8888POPC   D2A57448   8.245  16.687   6.750
 8888POPC   C3A57449   8.171  16.760   7.050
 8888POPC   C4A57450   8.207  16.709   7.350
 8888POPC   C1B57451   8.260  16.987   6.450
 8888POPC   C2B57452   8.299  16.979   6.750
 8888POPC   C3B57453   8.342  16.917   7.050
 8888POPC   C4B57454   8.256  16.994   7.350
 8889POPC   NC357455  11.272  30.656   5.550
 8889POPC   PO457456  11.319  30.705   5.850
 8889POPC   GL157457  11.283  30.667   6.150
 8889POPC   GL257458  11.270  30.642   6.150
 8889POPC   C1A57459  11.318  30.737   6.450
 8889POPC   D2A57460  11.319  30.662   6.750
 8889POPC   C3A57461  11.283  30.719   7.050
 8889POPC   C4A57462  11.333  30.740   7.350
 8889POPC   C1B57463  11.115  30.544   6.450
 8889POPC   C2B57464  11.116  30.525   6.750
 8889POPC   C3B57465  11.127  30.453   7.050
 8889POPC   C4B57466  11.105  30.455   7.350
 8890POPC   NC357467  32.257  35.374   5.550
 8890POPC   PO457468  32.264  35.329   5.850
 8890POPC   GL157469  32.278  35.371   6.150
 8890POPC   GL257470  32.089  35.291   6.150
 8890POPC   C1A57471  32.278  35.375   6.450
 8890POPC   D2A57472  32.239  35.320   6.750
 8890POPC   C3A57473  32.287  35.357   7.050
 8890POPC   C4A57474  32.251  35.350   7.350
 8890POPC   C1B57475  32.048  35.206   6.450
 8890POPC   C2B57476  31.993  35.275   6.750
 8890POPC   C3B57477  32.049  35.241   7.050
 8890POPC   C4B57478  32.005  35.217   7.350
 8891POPC   NC357479  16.733  26.050   5.550
 8891POPC   PO457480  16.764  26.027   5.850
 8891POPC   GL157481  16.700  25.997   6.150
 8891POPC   GL257482  16.676  25.925   6.150
 8891POPC   C1A57483  16.754  26.067   6.450
 8891POPC   D2A57484  16.717  26.047   6.750
 8891POPC   C3A57485  16.722  26.031   7.050
 8891POPC   C4A57486  16.716  26.048   7.350
 8891POPC   C1B57487  16.761  25.786   6.450
 8891POPC   C2B57488  16.746  25.795   6.750
 8891POPC   C3B57489  16.747  25.811   7.050
 8891POPC   C4B57490  16.718  25.745   7.350
 8892POPC   NC357491   4.269   5.087   5.550
 8892POPC   PO457492   4.309   5.133   5.850
 8892POPC   GL157493   4.306   5.060   6.150
 8892POPC   GL257494   4.436   5.153   6.150
 8892POPC   C1A57495   4.362   5.092   6.450
 8892POPC   D2A57496   4.279   5.059   6.750
 8892POPC   C3A57497   4.328   5.110   7.050
 8892POPC   C4A57498   4.316   5.108   7.350
 8892POPC   C1B57499   4.538   5.221   6.450
 8892POPC   C2B57500   4.574   5.195   6.750
 8892POPC   C3B57501   4.497   5.252   7.050
 8892POPC   C4B57502   4.498   5.248   7.350
 8893POPC   NC357503   2.810   5.901   5.550
 8893POPC   PO457504   2.792   5.894   5.850
 8893POPC   GL157505   2.750   5.902   6.150
 8893POPC   GL257506   2.608   5.972   6.150
 8893POPC   C1A57507   2.749   5.908   6.450
 8893POPC   D2A57508   2.740   5.838   6.750
 8893POPC   C3A57509   2.757   5.844   7.050
 8893POPC   C4A57510   2.748   5.846   7.350
 8893POPC   C1B57511   2.541   6.024   6.450
 8893POPC   C2B57512   2.509   5.941   6.750
 8893POPC   C3B57513   2.537   5.977   7.050
 8893POPC   C4B57514   2.574   5.978   7.350
 8894POPC   NC357515  21.432  34.621   5.550
 8894POPC   PO457516  21.368  34.621   5.850
 8894POPC   GL157517  21.412  34.621   6.150
 8894POPC   GL257518  21.345  34.401   6.150
 8894POPC   C1A57519  21.349  34.580   6.450
 8894POPC   D2A57520  21.391  34.545   6.750
 8894POPC   C3A57521  21.359  34.598   7.050
 8894POPC   C4A57522  21.408  34.553   7.350
 8894POPC   C1B57523  21.402  34.319   6.450
 8894POPC   C2B57524  21.437  34.357   6.750
 8894POPC   C3B57525  21.408  34.339   7.050
 8894POPC   C4B57526  21.364  34.360   7.350
 8895POPC   NC357527  20.617   7.460   5.550
 8895POPC   PO457528  20.636   7.387   5.850
 8895POPC   GL157529  20.580   7.417   6.150
 8895POPC   GL257530  20.711   7.534   6.150
 8895POPC   C1A57531  20.609   7.447   6.450
 8895POPC   D2A57532  20.655   7.470   6.750
 8895POPC   C3A57533  20.588   7.416   7.050
 8895POPC   C4A57534  20.646   7.454   7.350
 8895POPC   C1B57535  20.690   7.605   6.450
 8895POPC   C2B57536  20.682   7.621   6.750
 8895POPC   C3B57537  20.717   7.686   7.050
 8895POPC   C4B57538  20.740   7.640   7.350
 8896POPC   NC357539  31.435   1.228   5.550
 8896POPC   PO457540  31.507   1.185   5.850
 8896POPC   GL157541  31.489   1.241   6.150
 8896POPC   GL257542  31.593   1.249   6.150
 8896POPC   C1A57543  31.444   1.169   6.450
 8896POPC   D2A57544  31.514   1.239   6.750
 8896POPC   C3A57545  31.507   1.188   7.050
 8896POPC   C4A57546  31.425   1.256   7.350
 8896POPC   C1B57547  31.708   1.232   6.450
 8896POPC   C2B57548  31.673   1.257   6.750
 8896POPC   C3B57549  31.690   1.273   7.050
 8896POPC   C4B57550  31.734   1.287   7.350
 8897POPC   NC357551  19.820   7.451   5.550
 8897POPC   PO457552  19.841   7.375   5.850
 8897POPC   GL157553  19.815   7.433   6.150
 8897POPC   GL257554  19.948   7.313   6.150
 8897POPC   C1A57555  19.830   7.390   6.450
 8897POPC   D2A57556  19.837   7.373   6.750
 8897POPC   C3A57557  19.795   7.431   7.050
 8897POPC   C4A57558  19.788   7.397   7.350
 8897POPC   C1B57559  20.006   7.193   6.450
 8897POPC   C2B57560  20.037   7.266   6.750
 8897POPC   C3B57561  20.028   7.265   7.050
 8897POPC   C4B57562  19.996   7.264   7.350
 8898POPC   NC357563   4.329  44.647   5.550
 8898POPC   PO457564   4.293  44.689   5.850
 8898POPC   GL157565   4.332  44.703   6.150
 8898POPC   GL257566   4.475  44.720   6.150
 8898POPC   C1A57567   4.309  44.673   6.450
 8898POPC   D2A57568   4.306  44.650   6.750
 8898POPC   C3A57569   4.289  44.691   7.050
 8898POPC   C4A57570   4.330  44.707   7.350
 8898POPC   C1B57571   4.575  44.728   6.450
 8898POPC   C2B57572   4.575  44.717   6.750
 8898POPC   C3B57573   4.577  44.679   7.050
 8898POPC   C4B57574   4.605  44.643   7.350
 8899POPC   NC357575  40.767  15.211   5.550
 8899POPC   PO457576  40.740  15.148   5.850
 8899POPC   GL157577  40.808  15.195   6.150
 8899POPC   GL257578  40.857  15.150   6.150
 8899POPC   C1A57579  40.773  15.219   6.450
 8899POPC   D2A57580  40.739  15.172   6.750
 8899POPC   C3A57581  40.771  15.185   7.050
 8899POPC   C4A57582  40.827  15.207   7.350
 8899POPC   C1B57583  41.061  15.100   6.450
 8899POPC   C2B57584  41.006  15.047   6.750
 8899POPC   C3B57585  41.030  15.135   7.050
 8899POPC   C4B57586  41.026  15.134   7.350
 8900POPC   NC357587   4.330  23.755   5.550
 8900POPC   PO457588   4.341  23.704   5.850
 8900POPC   GL157589   4.316  23.688   6.150
 8900POPC   GL257590   4.243  23.659   6.150
 8900POPC   C1A57591   4.328  23.757   6.450
 8900POPC   D2A57592   4.303  23.672   6.750
 8900POPC   C3A57593   4.270  23.704   7.050
 8900POPC   C4A57594   4.322  23.726   7.350
 8900POPC   C1B57595   4.146  23.562   6.450
 8900POPC   C2B57596   4.187  23.516   6.750
 8900POPC   C3B57597   4.209  23.548   7.050
 8900POPC   C4B57598   4.178  23.464   7.350
 8901POPC   NC357599  39.184   3.514   5.550
 8901POPC   PO457600  39.270   3.549   5.850
 8901POPC   GL157601  39.251   3.497   6.150
 8901POPC   GL257602  39.365   3.435   6.150
 8901POPC   C1A57603  39.228   3.577   6.450
 8901POPC   D2A57604  39.275   3.512   6.750
 8901POPC   C3A57605  39.200   3.537   7.050
 8901POPC   C4A57606  39.203   3.569   7.350
 8901POPC   C1B57607  39.434   3.373   6.450
 8901POPC   C2B57608  39.440   3.408   6.750
 8901POPC   C3B57609  39.490   3.397   7.050
 8901POPC   C4B57610  39.460   3.366   7.350
 8902POPC   NC357611  36.896   2.722   5.550
 8902POPC   PO457612  36.861   2.731   5.850
 8902POPC   GL157613  36.877   2.764   6.150
 8902POPC   GL257614  37.006   2.679   6.150
 8902POPC   C1A57615  36.911   2.744   6.450
 8902POPC   D2A57616  36.933   2.744   6.750
 8902POPC   C3A57617  36.896   2.761   7.050
 8902POPC   C4A57618  36.879   2.809   7.350
 8902POPC   C1B57619  37.092   2.683   6.450
 8902POPC   C2B57620  37.110   2.687   6.750
 8902POPC   C3B57621  37.088   2.700   7.050
 8902POPC   C4B57622  37.117   2.699   7.350
 8903POPC   NC357623   8.951  30.729   5.550
 8903POPC   PO457624   9.005  30.685   5.850
 8903POPC   GL157625   8.987  30.704   6.150
 8903POPC   GL257626   9.074  30.782   6.150
 8903POPC   C1A57627   8.935  30.657   6.450
 8903POPC   D2A57628   8.936  30.666   6.750
 8903POPC   C3A57629   8.924  30.737   7.050
 8903POPC   C4A57630   8.951  30.699   7.350
 8903POPC   C1B57631   9.108  30.872   6.450
 8903POPC   C2B57632   9.105  30.886   6.750
 8903POPC   C3B57633   9.062  30.908   7.050
 8903POPC   C4B57634   9.106  30.937   7.350
 8904POPC   NC357635  20.658   3.559   5.550
 8904POPC   PO457636  20.611   3.537   5.850
 8904POPC   GL157637  20.589   3.496   6.150
 8904POPC   GL257638  20.708   3.641   6.150
 8904POPC   C1A57639  20.597   3.556   6.450
 8904POPC   D2A57640  20.573   3.588   6.750
 8904POPC   C3A57641  20.564   3.504   7.050
 8904POPC   C4A57642  20.603   3.504   7.350
 8904POPC   C1B57643  20.736   3.736   6.450
 8904POPC   C2B57644  20.663   3.817   6.750
 8904POPC   C3B57645  20.754   3.784   7.050
 8904POPC   C4B57646  20.682   3.809   7.350
 8905POPC   NC357647  42.367  18.275   5.550
 8905POPC   PO457648  42.370  18.300   5.850
 8905POPC   GL157649  42.295  18.289   6.150
 8905POPC   GL257650  42.464  18.276   6.150
 8905POPC   C1A57651  42.323  18.253   6.450
 8905POPC   D2A57652  42.293  18.258   6.750
 8905POPC   C3A57653  42.347  18.300   7.050
 8905POPC   C4A57654  42.382  18.253   7.350
 8905POPC   C1B57655  42.585  18.206   6.450
 8905POPC   C2B57656  42.589  18.161   6.750
 8905POPC   C3B57657  42.604  18.184   7.050
 8905POPC   C4B57658  42.550  18.253   7.350
 8906POPC   NC357659  27.551   5.866   5.550
 8906POPC   PO457660  27.591   5.834   5.850
 8906POPC   GL157661  27.615   5.889   6.150
 8906POPC   GL257662  27.551   5.954   6.150
 8906POPC   C1A57663  27.587   5.839   6.450
 8906POPC   D2A57664  27.575   5.829   6.750
 8906POPC   C3A57665  27.559   5.894   7.050
 8906POPC   C4A57666  27.591   5.833   7.350
 8906POPC   C1B57667  27.503   6.130   6.450
 8906POPC   C2B57668  27.498   6.127   6.750
 8906POPC   C3B57669  27.482   6.140   7.050
 8906POPC   C4B57670  27.502   6.101   7.350
 8907POPC   NC357671  36.135  12.821   5.550
 8907POPC   PO457672  36.084  12.824   5.850
 8907POPC   GL157673  36.079  12.832   6.150
 8907POPC   GL257674  36.089  12.723   6.150
 8907POPC   C1A57675  36.081  12.835   6.450
 8907POPC   D2A57676  36.150  12.849   6.750
 8907POPC   C3A57677  36.092  12.901   7.050
 8907POPC   C4A57678  36.173  12.809   7.350
 8907POPC   C1B57679  35.966  12.665   6.450
 8907POPC   C2B57680  35.995  12.622   6.750
 8907POPC   C3B57681  36.055  12.645   7.050
 8907POPC   C4B57682  36.014  12.657   7.350
 8908POPC   NC357683  30.746   7.452   5.550
 8908POPC   PO457684  30.736   7.376   5.850
 8908POPC   GL157685  30.682   7.467   6.150
 8908POPC   GL257686  30.835   7.486   6.150
 8908POPC   C1A57687  30.739   7.435   6.450
 8908POPC   D2A57688  30.702   7.373   6.750
 8908POPC   C3A57689  30.650   7.454   7.050
 8908POPC   C4A57690  30.678   7.371   7.350
 8908POPC   C1B57691  30.867   7.532   6.450
 8908POPC   C2B57692  30.888   7.531   6.750
 8908POPC   C3B57693  30.873   7.547   7.050
 8908POPC   C4B57694  30.886   7.598   7.350
 8909POPC   NC357695   8.147  27.570   5.550
 8909POPC   PO457696   8.156  27.599   5.850
 8909POPC   GL157697   8.177  27.601   6.150
 8909POPC   GL257698   8.312  27.642   6.150
 8909POPC   C1A57699   8.147  27.571   6.450
 8909POPC   D2A57700   8.174  27.622   6.750
 8909POPC   C3A57701   8.179  27.551   7.050
 8909POPC   C4A57702   8.154  27.590   7.350
 8909POPC   C1B57703   8.353  27.783   6.450
 8909POPC   C2B57704   8.430  27.720   6.750
 8909POPC   C3B57705   8.404  27.701   7.050
 8909POPC   C4B57706   8.412  27.781   7.350
 8910POPC   NC357707  22.890   1.987   5.550
 8910POPC   PO457708  22.980   2.025   5.850
 8910POPC   GL157709  22.940   2.002   6.150
 8910POPC   GL257710  22.810   1.956   6.150
 8910POPC   C1A57711  22.909   2.033   6.450
 8910POPC   D2A57712  22.900   1.958   6.750
 8910POPC   C3A57713  22.917   1.969   7.050
 8910POPC   C4A57714  22.936   1.957   7.350
 8910POPC   C1B57715  22.682   1.883   6.450
 8910POPC   C2B57716  22.692   1.901   6.750
 8910POPC   C3B57717  22.701   1.812   7.050
 8910POPC   C4B57718  22.751   1.879   7.350
 8911POPC   NC357719  34.587   8.926   5.550
 8911POPC   PO457720  34.603   8.965   5.850
 8911POPC   GL157721  34.547   9.014   6.150
 8911POPC   GL257722  34.457   9.056   6.150
 8911POPC   C1A57723  34.556   8.943   6.450
 8911POPC   D2A57724  34.584   9.005   6.750
 8911POPC   C3A57725  34.618   9.007   7.050
 8911POPC   C4A57726  34.532   8.975   7.350
 8911POPC   C1B57727  34.403   9.125   6.450
 8911POPC   C2B57728  34.369   9.171   6.750
 8911POPC   C3B57729  34.448   9.184   7.050
 8911POPC   C4B57730  34.442   9.211   7.350
 8912POPC   NC357731  13.630  25.248   5.550
 8912POPC   PO457732  13.579  25.248   5.850
 8912POPC   GL157733  13.621  25.283   6.150
 8912POPC   GL257734  13.777  25.254   6.150
 8912POPC   C1A57735  13.657  25.301   6.450
 8912POPC   D2A57736  13.663  25.260   6.750
 8912POPC   C3A57737  13.664  25.291   7.050
 8912POPC   C4A57738  13.629  25.284   7.350
 8912POPC   C1B57739  13.887  25.220   6.450
 8912POPC   C2B57740  13.882  25.161   6.750
 8912POPC   C3B57741  13.875  25.208   7.050
 8912POPC   C4B57742  13.858  25.133   7.350
 8913POPC   NC357743  22.138  15.930   5.550
 8913POPC   PO457744  22.118  15.968   5.850
 8913POPC   GL157745  22.133  15.928   6.150
 8913POPC   GL257746  22.080  15.951   6.150
 8913POPC   C1A57747  22.182  15.913   6.450
 8913POPC   D2A57748  22.171  15.983   6.750
 8913POPC   C3A57749  22.210  15.993   7.050
 8913POPC   C4A57750  22.145  15.939   7.350
 8913POPC   C1B57751  21.963  15.836   6.450
 8913POPC   C2B57752  21.909  15.878   6.750
 8913POPC   C3B57753  21.943  15.836   7.050
 8913POPC   C4B57754  21.937  15.829   7.350
 8914POPC   NC357755  10.479  24.504   5.550
 8914POPC   PO457756  10.487  24.450   5.850
 8914POPC   GL157757  10.531  24.488   6.150
 8914POPC   GL257758  10.544  24.663   6.150
 8914POPC   C1A57759  10.554  24.515   6.450
 8914POPC   D2A57760  10.560  24.456   6.750
 8914POPC   C3A57761  10.570  24.507   7.050
 8914POPC   C4A57762  10.537  24.505   7.350
 8914POPC   C1B57763  10.529  24.748   6.450
 8914POPC   C2B57764  10.587  24.739   6.750
 8914POPC   C3B57765  10.519  24.779   7.050
 8914POPC   C4B57766  10.534  24.728   7.350
 8915POPC   NC357767   8.192   9.766   5.550
 8915POPC   PO457768   8.166   9.769   5.850
 8915POPC   GL157769   8.208   9.758   6.150
 8915POPC   GL257770   8.113   9.863   6.150
 8915POPC   C1A57771   8.164   9.770   6.450
 8915POPC   D2A57772   8.218   9.791   6.750
 8915POPC   C3A57773   8.220   9.737   7.050
 8915POPC   C4A57774   8.244   9.714   7.350
 8915POPC   C1B57775   8.097   9.989   6.450
 8915POPC   C2B57776   8.120   9.956   6.750
 8915POPC   C3B57777   8.129   9.973   7.050
 8915POPC   C4B57778   8.128   9.937   7.350
 8916POPC   NC357779  15.976   5.104   5.550
 8916POPC   PO457780  15.963   5.129   5.850
 8916POPC   GL157781  15.984   5.142   6.150
 8916POPC   GL257782  16.044   5.019   6.150
 8916POPC   C1A57783  15.934   5.140   6.450
 8916POPC   D2A57784  15.928   5.056   6.750
 8916POPC   C3A57785  15.970   5.102   7.050
 8916POPC   C4A57786  15.933   5.066   7.350
 8916POPC   C1B57787  16.128   4.904   6.450
 8916POPC   C2B57788  16.043   4.878   6.750
 8916POPC   C3B57789  16.059   4.899   7.050
 8916POPC   C4B57790  16.100   4.897   7.350
 8917POPC   NC357791  44.672  14.431   5.550
 8917POPC   PO457792  44.617  14.432   5.850
 8917POPC   GL157793  44.625  14.395   6.150
 8917POPC   GL257794  44.634  14.550   6.150
 8917POPC   C1A57795  44.612  14.397   6.450
 8917POPC   D2A57796  44.698  14.356   6.750
 8917POPC   C3A57797  44.625  14.433   7.050
 8917POPC   C4A57798  44.663  14.359   7.350
 8917POPC   C1B57799  44.592  14.588   6.450
 8917POPC   C2B57800  44.570  14.633   6.750
 8917POPC   C3B57801  44.591  14.667   7.050
 8917POPC   C4B57802  44.569  14.601   7.350
 8918POPC   NC357803  28.383  38.416   5.550
 8918POPC   PO457804  28.371  38.416   5.850
 8918POPC   GL157805  28.390  38.477   6.150
 8918POPC   GL257806  28.218  38.537   6.150
 8918POPC   C1A57807  28.343  38.458   6.450
 8918POPC   D2A57808  28.414  38.447   6.750
 8918POPC   C3A57809  28.411  38.416   7.050
 8918POPC   C4A57810  28.389  38.441   7.350
 8918POPC   C1B57811  28.161  38.528   6.450
 8918POPC   C2B57812  28.133  38.563   6.750
 8918POPC   C3B57813  28.104  38.517   7.050
 8918POPC   C4B57814  28.165  38.549   7.350
 8919POPC   NC357815   0.428   5.069   5.550
 8919POPC   PO457816   0.391   5.113   5.850
 8919POPC   GL157817   0.477   5.131   6.150
 8919POPC   GL257818   0.436   4.985   6.150
 8919POPC   C1A57819   0.439   5.075   6.450
 8919POPC   D2A57820   0.425   5.130   6.750
 8919POPC   C3A57821   0.479   5.086   7.050
 8919POPC   C4A57822   0.407   5.096   7.350
 8919POPC   C1B57823   0.368   4.874   6.450
 8919POPC   C2B57824   0.340   4.875   6.750
 8919POPC   C3B57825   0.375   4.886   7.050
 8919POPC   C4B57826   0.372   4.867   7.350
 8920POPC   NC357827  36.884  38.442   5.550
 8920POPC   PO457828  36.875  38.455   5.850
 8920POPC   GL157829  36.902  38.493   6.150
 8920POPC   GL257830  36.793  38.448   6.150
 8920POPC   C1A57831  36.934  38.416   6.450
 8920POPC   D2A57832  36.935  38.475   6.750
 8920POPC   C3A57833  36.867  38.481   7.050
 8920POPC   C4A57834  36.909  38.441   7.350
 8920POPC   C1B57835  36.629  38.332   6.450
 8920POPC   C2B57836  36.665  38.406   6.750
 8920POPC   C3B57837  36.647  38.378   7.050
 8920POPC   C4B57838  36.711  38.313   7.350
 8921POPC   NC357839  16.759  19.036   5.550
 8921POPC   PO457840  16.723  19.025   5.850
 8921POPC   GL157841  16.687  19.103   6.150
 8921POPC   GL257842  16.866  19.118   6.150
 8921POPC   C1A57843  16.695  19.030   6.450
 8921POPC   D2A57844  16.710  19.071   6.750
 8921POPC   C3A57845  16.718  19.086   7.050
 8921POPC   C4A57846  16.713  19.086   7.350
 8921POPC   C1B57847  16.985  19.155   6.450
 8921POPC   C2B57848  16.944  19.159   6.750
 8921POPC   C3B57849  16.966  19.163   7.050
 8921POPC   C4B57850  17.018  19.172   7.350
 8922POPC   NC357851  27.598  28.343   5.550
 8922POPC   PO457852  27.588  28.371   5.850
 8922POPC   GL157853  27.585  28.417   6.150
 8922POPC   GL257854  27.505  28.480   6.150
 8922POPC   C1A57855  27.612  28.346   6.450
 8922POPC   D2A57856  27.561  28.387   6.750
 8922POPC   C3A57857  27.599  28.335   7.050
 8922POPC   C4A57858  27.610  28.322   7.350
 8922POPC   C1B57859  27.459  28.584   6.450
 8922POPC   C2B57860  27.497  28.589   6.750
 8922POPC   C3B57861  27.493  28.582   7.050
 8922POPC   C4B57862  27.449  28.578   7.350
 8923POPC   NC357863  18.253  32.210   5.550
 8923POPC   PO457864  18.324  32.274   5.850
 8923POPC   GL157865  18.253  32.231   6.150
 8923POPC   GL257866  18.336  32.310   6.150
 8923POPC   C1A57867  18.284  32.204   6.450
 8923POPC   D2A57868  18.281  32.213   6.750
 8923POPC   C3A57869  18.271  32.227   7.050
 8923POPC   C4A57870  18.246  32.240   7.350
 8923POPC   C1B57871  18.493  32.440   6.450
 8923POPC   C2B57872  18.444  32.435   6.750
 8923POPC   C3B57873  18.423  32.478   7.050
 8923POPC   C4B57874  18.431  32.401   7.350
 8924POPC   NC357875  39.259  11.254   5.550
 8924POPC   PO457876  39.275  11.299   5.850
 8924POPC   GL157877  39.276  11.281   6.150
 8924POPC   GL257878  39.226  11.391   6.150
 8924POPC   C1A57879  39.243  11.320   6.450
 8924POPC   D2A57880  39.183  11.269   6.750
 8924POPC   C3A57881  39.254  11.311   7.050
 8924POPC   C4A57882  39.280  11.301   7.350
 8924POPC   C1B57883  39.152  11.547   6.450
 8924POPC   C2B57884  39.159  11.573   6.750
 8924POPC   C3B57885  39.149  11.538   7.050
 8924POPC   C4B57886  39.142  11.575   7.350
 8925POPC   NC357887  30.674   9.760   5.550
 8925POPC   PO457888  30.705   9.774   5.850
 8925POPC   GL157889  30.707   9.726   6.150
 8925POPC   GL257890  30.538   9.757   6.150
 8925POPC   C1A57891  30.679   9.780   6.450
 8925POPC   D2A57892  30.670   9.709   6.750
 8925POPC   C3A57893  30.676   9.734   7.050
 8925POPC   C4A57894  30.743   9.768   7.350
 8925POPC   C1B57895  30.429   9.712   6.450
 8925POPC   C2B57896  30.473   9.626   6.750
 8925POPC   C3B57897  30.498   9.650   7.050
 8925POPC   C4B57898  30.416   9.663   7.350
 8926POPC   NC357899   8.956  40.764   5.550
 8926POPC   PO457900   9.014  40.738   5.850
 8926POPC   GL157901   8.966  40.825   6.150
 8926POPC   GL257902   8.952  40.673   6.150
 8926POPC   C1A57903   8.960  40.800   6.450
 8926POPC   D2A57904   9.001  40.733   6.750
 8926POPC   C3A57905   8.988  40.828   7.050
 8926POPC   C4A57906   8.937  40.820   7.350
 8926POPC   C1B57907   8.922  40.525   6.450
 8926POPC   C2B57908   8.837  40.578   6.750
 8926POPC   C3B57909   8.872  40.544   7.050
 8926POPC   C4B57910   8.848  40.582   7.350
 8927POPC   NC357911  26.034  21.360   5.550
 8927POPC   PO457912  26.011  21.384   5.850
 8927POPC   GL157913  26.039  21.370   6.150
 8927POPC   GL257914  26.126  21.329   6.150
 8927POPC   C1A57915  26.065  21.346   6.450
 8927POPC   D2A57916  26.058  21.346   6.750
 8927POPC   C3A57917  26.091  21.411   7.050
 8927POPC   C4A57918  25.997  21.381   7.350
 8927POPC   C1B57919  26.284  21.332   6.450
 8927POPC   C2B57920  26.227  21.298   6.750
 8927POPC   C3B57921  26.306  21.283   7.050
 8927POPC   C4B57922  26.223  21.299   7.350
 8928POPC   NC357923  26.052  22.953   5.550
 8928POPC   PO457924  26.037  22.891   5.850
 8928POPC   GL157925  26.087  22.955   6.150
 8928POPC   GL257926  25.959  22.878   6.150
 8928POPC   C1A57927  26.048  22.913   6.450
 8928POPC   D2A57928  26.022  22.932   6.750
 8928POPC   C3A57929  26.055  22.931   7.050
 8928POPC   C4A57930  25.996  22.987   7.350
 8928POPC   C1B57931  25.749  22.872   6.450
 8928POPC   C2B57932  25.816  22.869   6.750
 8928POPC   C3B57933  25.756  22.855   7.050
 8928POPC   C4B57934  25.751  22.880   7.350
 8929POPC   NC357935  29.132   2.810   5.550
 8929POPC   PO457936  29.173   2.728   5.850
 8929POPC   GL157937  29.115   2.748   6.150
 8929POPC   GL257938  29.063   2.807   6.150
 8929POPC   C1A57939  29.149   2.764   6.450
 8929POPC   D2A57940  29.158   2.760   6.750
 8929POPC   C3A57941  29.114   2.717   7.050
 8929POPC   C4A57942  29.193   2.769   7.350
 8929POPC   C1B57943  29.005   2.964   6.450
 8929POPC   C2B57944  29.004   2.938   6.750
 8929POPC   C3B57945  28.967   2.975   7.050
 8929POPC   C4B57946  28.936   2.950   7.350
 8930POPC   NC357947  17.460  15.168   5.550
 8930POPC   PO457948  17.457  15.210   5.850
 8930POPC   GL157949  17.515  15.203   6.150
 8930POPC   GL257950  17.529  15.010   6.150
 8930POPC   C1A57951  17.540  15.223   6.450
 8930POPC   D2A57952  17.461  15.202   6.750
 8930POPC   C3A57953  17.492  15.153   7.050
 8930POPC   C4A57954  17.480  15.212   7.350
 8930POPC   C1B57955  17.486  14.973   6.450
 8930POPC   C2B57956  17.515  14.900   6.750
 8930POPC   C3B57957  17.511  14.951   7.050
 8930POPC   C4B57958  17.477  14.958   7.350
 8931POPC   NC357959  35.361  24.513   5.550
 8931POPC   PO457960  35.317  24.507   5.850
 8931POPC   GL157961  35.331  24.506   6.150
 8931POPC   GL257962  35.436  24.536   6.150
 8931POPC   C1A57963  35.346  24.460   6.450
 8931POPC   D2A57964  35.358  24.539   6.750
 8931POPC   C3A57965  35.344  24.488   7.050
 8931POPC   C4A57966  35.320  24.529   7.350
 8931POPC   C1B57967  35.587  24.571   6.450
 8931POPC   C2B57968  35.618  24.578   6.750
 8931POPC   C3B57969  35.579  24.628   7.050
 8931POPC   C4B57970  35.619  24.635   7.350
 8932POPC   NC357971  22.131   8.227   5.550
 8932POPC   PO457972  22.184   8.166   5.850
 8932POPC   GL157973  22.165   8.186   6.150
 8932POPC   GL257974  22.058   8.128   6.150
 8932POPC   C1A57975  22.142   8.165   6.450
 8932POPC   D2A57976  22.137   8.158   6.750
 8932POPC   C3A57977  22.184   8.160   7.050
 8932POPC   C4A57978  22.164   8.241   7.350
 8932POPC   C1B57979  21.988   7.999   6.450
 8932POPC   C2B57980  22.033   8.016   6.750
 8932POPC   C3B57981  21.990   8.006   7.050
 8932POPC   C4B57982  21.959   7.959   7.350
 8933POPC   NC357983  30.708  18.233   5.550
 8933POPC   PO457984  30.707  18.281   5.850
 8933POPC   GL157985  30.679  18.249   6.150
 8933POPC   GL257986  30.612  18.216   6.150
 8933POPC   C1A57987  30.724  18.322   6.450
 8933POPC   D2A57988  30.662  18.281   6.750
 8933POPC   C3A57989  30.669  18.249   7.050
 8933POPC   C4A57990  30.670  18.323   7.350
 8933POPC   C1B57991  30.420  18.172   6.450
 8933POPC   C2B57992  30.419  18.226   6.750
 8933POPC   C3B57993  30.496  18.242   7.050
 8933POPC   C4B57994  30.466  18.169   7.350
 8934POPC   NC357995  43.073  15.931   5.550
 8934POPC   PO457996  43.106  15.927   5.850
 8934POPC   GL157997  43.111  15.973   6.150
 8934POPC   GL257998  43.010  15.822   6.150
 8934POPC   C1A57999  43.083  15.913   6.450
 8934POPC   D2A58000  43.092  15.949   6.750
 8934POPC   C3A58001  43.091  15.908   7.050
 8934POPC   C4A58002  43.069  15.968   7.350
 8934POPC   C1B58003  42.928  15.797   6.450
 8934POPC   C2B58004  42.941  15.728   6.750
 8934POPC   C3B58005  42.917  15.764   7.050
 8934POPC   C4B58006  42.929  15.778   7.350
 8935POPC   NC358007  43.838  24.497   5.550
 8935POPC   PO458008  43.918  24.533   5.850
 8935POPC   GL158009  43.873  24.483   6.150
 8935POPC   GL258010  43.815  24.363   6.150
 8935POPC   C1A58011  43.897  24.497   6.450
 8935POPC   D2A58012  43.903  24.452   6.750
 8935POPC   C3A58013  43.935  24.519   7.050
 8935POPC   C4A58014  43.859  24.520   7.350
 8935POPC   C1B58015  43.715  24.237   6.450
 8935POPC   C2B58016  43.700  24.335   6.750
 8935POPC   C3B58017  43.747  24.335   7.050
 8935POPC   C4B58018  43.790  24.252   7.350
 8936POPC   NC358019  25.250  20.614   5.550
 8936POPC   PO458020  25.274  20.583   5.850
 8936POPC   GL158021  25.219  20.654   6.150
 8936POPC   GL258022  25.240  20.451   6.150
 8936POPC   C1A58023  25.301  20.625   6.450
 8936POPC   D2A58024  25.241  20.582   6.750
 8936POPC   C3A58025  25.246  20.599   7.050
 8936POPC   C4A58026  25.265  20.660   7.350
 8936POPC   C1B58027  25.210  20.328   6.450
 8936POPC   C2B58028  25.202  20.322   6.750
 8936POPC   C3B58029  25.168  20.390   7.050
 8936POPC   C4B58030  25.194  20.347   7.350
 8937POPC   NC358031  14.382  25.248   5.550
 8937POPC   PO458032  14.408  25.293   5.850
 8937POPC   GL158033  14.412  25.257   6.150
 8937POPC   GL258034  14.527  25.206   6.150
 8937POPC   C1A58035  14.422  25.270   6.450
 8937POPC   D2A58036  14.356  25.243   6.750
 8937POPC   C3A58037  14.384  25.217   7.050
 8937POPC   C4A58038  14.373  25.239   7.350
 8937POPC   C1B58039  14.648  25.132   6.450
 8937POPC   C2B58040  14.600  25.196   6.750
 8937POPC   C3B58041  14.673  25.165   7.050
 8937POPC   C4B58042  14.584  25.212   7.350
 8938POPC   NC358043  36.108  41.526   5.550
 8938POPC   PO458044  36.149  41.574   5.850
 8938POPC   GL158045  36.112  41.566   6.150
 8938POPC   GL258046  36.000  41.589   6.150
 8938POPC   C1A58047  36.166  41.564   6.450
 8938POPC   D2A58048  36.117  41.595   6.750
 8938POPC   C3A58049  36.147  41.543   7.050
 8938POPC   C4A58050  36.150  41.581   7.350
 8938POPC   C1B58051  35.939  41.714   6.450
 8938POPC   C2B58052  35.885  41.696   6.750
 8938POPC   C3B58053  35.963  41.744   7.050
 8938POPC   C4B58054  35.896  41.690   7.350
 8939POPC   NC358055  43.837   7.384   5.550
 8939POPC   PO458056  43.935   7.416   5.850
 8939POPC   GL158057  43.875   7.394   6.150
 8939POPC   GL258058  43.842   7.306   6.150
 8939POPC   C1A58059  43.878   7.401   6.450
 8939POPC   D2A58060  43.849   7.409   6.750
 8939POPC   C3A58061  43.879   7.382   7.050
 8939POPC   C4A58062  43.897   7.405   7.350
 8939POPC   C1B58063  43.747   7.172   6.450
 8939POPC   C2B58064  43.779   7.223   6.750
 8939POPC   C3B58065  43.788   7.224   7.050
 8939POPC   C4B58066  43.819   7.159   7.350
 8940POPC   NC358067  44.631  12.839   5.550
 8940POPC   PO458068  44.630  12.880   5.850
 8940POPC   GL158069  44.696  12.892   6.150
 8940POPC   GL258070  44.686  13.013   6.150
 8940POPC   C1A58071  44.700  12.840   6.450
 8940POPC   D2A58072  44.662  12.830   6.750
 8940POPC   C3A58073  44.643  12.882   7.050
 8940POPC   C4A58074  44.673  12.866   7.350
 8940POPC   C1B58075  44.680  13.123   6.450
 8940POPC   C2B58076  44.678  13.103   6.750
 8940POPC   C3B58077  44.672  13.053   7.050
 8940POPC   C4B58078  44.651  13.136   7.350
 8941POPC   NC358079  39.965   9.735   5.550
 8941POPC   PO458080  39.964   9.706   5.850
 8941POPC   GL158081  40.015   9.721   6.150
 8941POPC   GL258082  40.045   9.861   6.150
 8941POPC   C1A58083  39.989   9.761   6.450
 8941POPC   D2A58084  40.001   9.783   6.750
 8941POPC   C3A58085  39.961   9.770   7.050
 8941POPC   C4A58086  40.009   9.716   7.350
 8941POPC   C1B58087  39.965  10.044   6.450
 8941POPC   C2B58088  40.000   9.986   6.750
 8941POPC   C3B58089  40.007  10.026   7.050
 8941POPC   C4B58090  39.983  10.000   7.350
 8942POPC   NC358091  33.026  36.136   5.550
 8942POPC   PO458092  33.050  36.124   5.850
 8942POPC   GL158093  33.032  36.173   6.150
 8942POPC   GL258094  32.947  36.150   6.150
 8942POPC   C1A58095  33.050  36.122   6.450
 8942POPC   D2A58096  33.041  36.086   6.750
 8942POPC   C3A58097  33.071  36.148   7.050
 8942POPC   C4A58098  32.984  36.083   7.350
 8942POPC   C1B58099  32.798  36.095   6.450
 8942POPC   C2B58100  32.750  36.061   6.750
 8942POPC   C3B58101  32.813  36.057   7.050
 8942POPC   C4B58102  32.731  36.111   7.350
 8943POPC   NC358103  38.492  21.428   5.550
 8943POPC   PO458104  38.441  21.361   5.850
 8943POPC   GL158105  38.485  21.363   6.150
 8943POPC   GL258106  38.584  21.386   6.150
 8943POPC   C1A58107  38.490  21.430   6.450
 8943POPC   D2A58108  38.437  21.420   6.750
 8943POPC   C3A58109  38.486  21.394   7.050
 8943POPC   C4A58110  38.466  21.352   7.350
 8943POPC   C1B58111  38.662  21.288   6.450
 8943POPC   C2B58112  38.726  21.346   6.750
 8943POPC   C3B58113  38.734  21.362   7.050
 8943POPC   C4B58114  38.688  21.344   7.350
 8944POPC   NC358115  25.998   9.788   5.550
 8944POPC   PO458116  25.994   9.736   5.850
 8944POPC   GL158117  26.044   9.782   6.150
 8944POPC   GL258118  25.888   9.736   6.150
 8944POPC   C1A58119  26.060   9.749   6.450
 8944POPC   D2A58120  26.091   9.786   6.750
 8944POPC   C3A58121  26.043   9.770   7.050
 8944POPC   C4A58122  26.038   9.708   7.350
 8944POPC   C1B58123  25.781   9.804   6.450
 8944POPC   C2B58124  25.809   9.801   6.750
 8944POPC   C3B58125  25.786   9.747   7.050
 8944POPC   C4B58126  25.764   9.750   7.350
 8945POPC   NC358127  19.854  21.425   5.550
 8945POPC   PO458128  19.872  21.359   5.850
 8945POPC   GL158129  19.810  21.350   6.150
 8945POPC   GL258130  19.916  21.494   6.150
 8945POPC   C1A58131  19.849  21.361   6.450
 8945POPC   D2A58132  19.821  21.386   6.750
 8945POPC   C3A58133  19.799  21.426   7.050
 8945POPC   C4A58134  19.857  21.384   7.350
 8945POPC   C1B58135  20.059  21.500   6.450
 8945POPC   C2B58136  20.039  21.486   6.750
 8945POPC   C3B58137  20.028  21.518   7.050
 8945POPC   C4B58138  20.053  21.574   7.350
 8946POPC   NC358139  33.844  29.926   5.550
 8946POPC   PO458140  33.772  29.895   5.850
 8946POPC   GL158141  33.812  29.912   6.150
 8946POPC   GL258142  33.942  29.917   6.150
 8946POPC   C1A58143  33.811  29.876   6.450
 8946POPC   D2A58144  33.751  29.925   6.750
 8946POPC   C3A58145  33.825  29.945   7.050
 8946POPC   C4A58146  33.845  29.947   7.350
 8946POPC   C1B58147  34.084  30.009   6.450
 8946POPC   C2B58148  34.010  29.983   6.750
 8946POPC   C3B58149  34.066  30.041   7.050
 8946POPC   C4B58150  34.056  30.046   7.350
 8947POPC   NC358151  26.778  25.277   5.550
 8947POPC   PO458152  26.862  25.251   5.850
 8947POPC   GL158153  26.794  25.264   6.150
 8947POPC   GL258154  26.973  25.248   6.150
 8947POPC   C1A58155  26.858  25.248   6.450
 8947POPC   D2A58156  26.860  25.218   6.750
 8947POPC   C3A58157  26.831  25.233   7.050
 8947POPC   C4A58158  26.830  25.229   7.350
 8947POPC   C1B58159  27.095  25.182   6.450
 8947POPC   C2B58160  27.017  25.145   6.750
 8947POPC   C3B58161  27.045  25.171   7.050
 8947POPC   C4B58162  27.089  25.183   7.350
 8948POPC   NC358163   3.559  21.380   5.550
 8948POPC   PO458164   3.536  21.411   5.850
 8948POPC   GL158165   3.578  21.416   6.150
 8948POPC   GL258166   3.567  21.512   6.150
 8948POPC   C1A58167   3.541  21.381   6.450
 8948POPC   D2A58168   3.510  21.384   6.750
 8948POPC   C3A58169   3.554  21.422   7.050
 8948POPC   C4A58170   3.558  21.428   7.350
 8948POPC   C1B58171   3.500  21.619   6.450
 8948POPC   C2B58172   3.515  21.588   6.750
 8948POPC   C3B58173   3.549  21.592   7.050
 8948POPC   C4B58174   3.452  21.674   7.350
 8949POPC   NC358175  35.366  36.170   5.550
 8949POPC   PO458176  35.348  36.084   5.850
 8949POPC   GL158177  35.388  36.087   6.150
 8949POPC   GL258178  35.430  35.975   6.150
 8949POPC   C1A58179  35.331  36.131   6.450
 8949POPC   D2A58180  35.365  36.167   6.750
 8949POPC   C3A58181  35.329  36.130   7.050
 8949POPC   C4A58182  35.398  36.137   7.350
 8949POPC   C1B58183  35.522  35.953   6.450
 8949POPC   C2B58184  35.517  35.893   6.750
 8949POPC   C3B58185  35.531  35.874   7.050
 8949POPC   C4B58186  35.471  35.948   7.350
 8950POPC   NC358187  26.055  39.991   5.550
 8950POPC   PO458188  26.048  40.029   5.850
 8950POPC   GL158189  26.087  39.975   6.150
 8950POPC   GL258190  26.128  39.943   6.150
 8950POPC   C1A58191  26.014  39.964   6.450
 8950POPC   D2A58192  26.035  39.971   6.750
 8950POPC   C3A58193  26.086  40.008   7.050
 8950POPC   C4A58194  26.072  40.001   7.350
 8950POPC   C1B58195  26.221  39.924   6.450
 8950POPC   C2B58196  26.248  39.899   6.750
 8950POPC   C3B58197  26.228  39.893   7.050
 8950POPC   C4B58198  26.246  39.879   7.350
 8951POPC   NC358199   3.549  22.152   5.550
 8951POPC   PO458200   3.555  22.149   5.850
 8951POPC   GL158201   3.493  22.156   6.150
 8951POPC   GL258202   3.415  22.141   6.150
 8951POPC   C1A58203   3.547  22.141   6.450
 8951POPC   D2A58204   3.547  22.187   6.750
 8951POPC   C3A58205   3.548  22.168   7.050
 8951POPC   C4A58206   3.554  22.117   7.350
 8951POPC   C1B58207   3.263  22.199   6.450
 8951POPC   C2B58208   3.319  22.174   6.750
 8951POPC   C3B58209   3.315  22.184   7.050
 8951POPC   C4B58210   3.320  22.224   7.350
 8952POPC   NC358211   0.485  44.668   5.550
 8952POPC   PO458212   0.481  44.693   5.850
 8952POPC   GL158213   0.432  44.622   6.150
 8952POPC   GL258214   0.611  44.675   6.150
 8952POPC   C1A58215   0.468  44.613   6.450
 8952POPC   D2A58216   0.418  44.683   6.750
 8952POPC   C3A58217   0.480  44.630   7.050
 8952POPC   C4A58218   0.411  44.648   7.350
 8952POPC   C1B58219   0.729  44.684   6.450
 8952POPC   C2B58220   0.675  44.589   6.750
 8952POPC   C3B58221   0.685  44.658   7.050
 8952POPC   C4B58222   0.698  44.627   7.350
 8953POPC   NC358223  44.627  25.254   5.550
 8953POPC   PO458224  44.687  25.227   5.850
 8953POPC   GL158225  44.635  25.249   6.150
 8953POPC   GL258226  44.532  25.305   6.150
 8953POPC   C1A58227  44.655  25.266   6.450
 8953POPC   D2A58228  44.626  25.289   6.750
 8953POPC   C3A58229  44.657  25.296   7.050
 8953POPC   C4A58230  44.615  25.305   7.350
 8953POPC   C1B58231  44.444  25.339   6.450
 8953POPC   C2B58232  44.388  25.327   6.750
 8953POPC   C3B58233  44.428  25.377   7.050
 8953POPC   C4B58234  44.414  25.344   7.350
 8954POPC   NC358235  43.064  36.870   5.550
 8954POPC   PO458236  43.126  36.867   5.850
 8954POPC   GL158237  43.067  36.909   6.150
 8954POPC   GL258238  43.206  36.940   6.150
 8954POPC   C1A58239  43.071  36.947   6.450
 8954POPC   D2A58240  43.077  36.898   6.750
 8954POPC   C3A58241  43.130  36.860   7.050
 8954POPC   C4A58242  43.083  36.932   7.350
 8954POPC   C1B58243  43.317  36.887   6.450
 8954POPC   C2B58244  43.344  36.924   6.750
 8954POPC   C3B58245  43.374  36.858   7.050
 8954POPC   C4B58246  43.405  36.916   7.350
 8955POPC   NC358247  11.349  26.784   5.550
 8955POPC   PO458248  11.277  26.838   5.850
 8955POPC   GL158249  11.341  26.815   6.150
 8955POPC   GL258250  11.180  26.683   6.150
 8955POPC   C1A58251  11.266  26.844   6.450
 8955POPC   D2A58252  11.328  26.821   6.750
 8955POPC   C3A58253  11.259  26.843   7.050
 8955POPC   C4A58254  11.264  26.813   7.350
 8955POPC   C1B58255  11.171  26.588   6.450
 8955POPC   C2B58256  11.103  26.628   6.750
 8955POPC   C3B58257  11.125  26.640   7.050
 8955POPC   C4B58258  11.134  26.575   7.350
 8956POPC   NC358259  38.409  15.921   5.550
 8956POPC   PO458260  38.467  15.950   5.850
 8956POPC   GL158261  38.471  15.905   6.150
 8956POPC   GL258262  38.445  16.070   6.150
 8956POPC   C1A58263  38.409  15.912   6.450
 8956POPC   D2A58264  38.431  15.908   6.750
 8956POPC   C3A58265  38.451  15.955   7.050
 8956POPC   C4A58266  38.469  15.930   7.350
 8956POPC   C1B58267  38.479  16.155   6.450
 8956POPC   C2B58268  38.531  16.216   6.750
 8956POPC   C3B58269  38.477  16.202   7.050
 8956POPC   C4B58270  38.505  16.172   7.350
 8957POPC   NC358271  43.100  24.466   5.550
 8957POPC   PO458272  43.142  24.536   5.850
 8957POPC   GL158273  43.129  24.481   6.150
 8957POPC   GL258274  43.224  24.592   6.150
 8957POPC   C1A58275  43.112  24.444   6.450
 8957POPC   D2A58276  43.110  24.512   6.750
 8957POPC   C3A58277  43.096  24.512   7.050
 8957POPC   C4A58278  43.145  24.487   7.350
 8957POPC   C1B58279  43.305  24.606   6.450
 8957POPC   C2B58280  43.359  24.655   6.750
 8957POPC   C3B58281  43.307  24.633   7.050
 8957POPC   C4B58282  43.286  24.608   7.350
 8958POPC   NC358283  19.084  33.791   5.550
 8958POPC   PO458284  19.099  33.823   5.850
 8958POPC   GL158285  19.092  33.761   6.150
 8958POPC   GL258286  18.997  33.926   6.150
 8958POPC   C1A58287  19.042  33.842   6.450
 8958POPC   D2A58288  19.026  33.797   6.750
 8958POPC   C3A58289  19.026  33.789   7.050
 8958POPC   C4A58290  19.038  33.766   7.350
 8958POPC   C1B58291  18.930  33.986   6.450
 8958POPC   C2B58292  18.865  34.001   6.750
 8958POPC   C3B58293  18.947  33.980   7.050
 8958POPC   C4B58294  18.858  33.970   7.350
 8959POPC   NC358295  18.283   7.372   5.550
 8959POPC   PO458296  18.235   7.395   5.850
 8959POPC   GL158297  18.299   7.447   6.150
 8959POPC   GL258298  18.343   7.314   6.150
 8959POPC   C1A58299  18.249   7.470   6.450
 8959POPC   D2A58300  18.272   7.394   6.750
 8959POPC   C3A58301  18.278   7.449   7.050
 8959POPC   C4A58302  18.245   7.389   7.350
 8959POPC   C1B58303  18.494   7.303   6.450
 8959POPC   C2B58304  18.478   7.249   6.750
 8959POPC   C3B58305  18.518   7.301   7.050
 8959POPC   C4B58306  18.481   7.281   7.350
 8960POPC   NC358307  21.409  16.681   5.550
 8960POPC   PO458308  21.426  16.696   5.850
 8960POPC   GL158309  21.361  16.743   6.150
 8960POPC   GL258310  21.521  16.697   6.150
 8960POPC   C1A58311  21.435  16.751   6.450
 8960POPC   D2A58312  21.396  16.746   6.750
 8960POPC   C3A58313  21.432  16.698   7.050
 8960POPC   C4A58314  21.389  16.710   7.350
 8960POPC   C1B58315  21.644  16.715   6.450
 8960POPC   C2B58316  21.669  16.718   6.750
 8960POPC   C3B58317  21.659  16.806   7.050
 8960POPC   C4B58318  21.641  16.737   7.350
 8961POPC   NC358319  36.936  32.279   5.550
 8961POPC   PO458320  36.892  32.260   5.850
 8961POPC   GL158321  36.941  32.293   6.150
 8961POPC   GL258322  36.907  32.383   6.150
 8961POPC   C1A58323  36.894  32.293   6.450
 8961POPC   D2A58324  36.872  32.216   6.750
 8961POPC   C3A58325  36.860  32.237   7.050
 8961POPC   C4A58326  36.901  32.199   7.350
 8961POPC   C1B58327  36.862  32.466   6.450
 8961POPC   C2B58328  36.850  32.527   6.750
 8961POPC   C3B58329  36.843  32.533   7.050
 8961POPC   C4B58330  36.875  32.537   7.350
 8962POPC   NC358331  35.393  29.145   5.550
 8962POPC   PO458332  35.326  29.192   5.850
 8962POPC   GL158333  35.303  29.123   6.150
 8962POPC   GL258334  35.311  29.057   6.150
 8962POPC   C1A58335  35.400  29.124   6.450
 8962POPC   D2A58336  35.356  29.186   6.750
 8962POPC   C3A58337  35.341  29.185   7.050
 8962POPC   C4A58338  35.350  29.181   7.350
 8962POPC   C1B58339  35.353  28.897   6.450
 8962POPC   C2B58340  35.298  28.936   6.750
 8962POPC   C3B58341  35.350  28.930   7.050
 8962POPC   C4B58342  35.342  28.846   7.350
 8963POPC   NC358343  42.305  33.767   5.550
 8963POPC   PO458344  42.374  33.771   5.850
 8963POPC   GL158345  42.317  33.810   6.150
 8963POPC   GL258346  42.164  33.842   6.150
 8963POPC   C1A58347  42.319  33.846   6.450
 8963POPC   D2A58348  42.359  33.835   6.750
 8963POPC   C3A58349  42.359  33.816   7.050
 8963POPC   C4A58350  42.286  33.793   7.350
 8963POPC   C1B58351  42.055  33.858   6.450
 8963POPC   C2B58352  42.096  33.826   6.750
 8963POPC   C3B58353  42.102  33.846   7.050
 8963POPC   C4B58354  42.053  33.888   7.350
 8964POPC   NC358355  43.907   3.505   5.550
 8964POPC   PO458356  43.841   3.543   5.850
 8964POPC   GL158357  43.923   3.569   6.150
 8964POPC   GL258358  44.042   3.614   6.150
 8964POPC   C1A58359  43.877   3.525   6.450
 8964POPC   D2A58360  43.903   3.548   6.750
 8964POPC   C3A58361  43.908   3.491   7.050
 8964POPC   C4A58362  43.900   3.536   7.350
 8964POPC   C1B58363  44.164   3.671   6.450
 8964POPC   C2B58364  44.095   3.668   6.750
 8964POPC   C3B58365  44.065   3.648   7.050
 8964POPC   C4B58366  44.088   3.658   7.350
 8965POPC   NC358367  40.018  23.715   5.550
 8965POPC   PO458368  40.028  23.680   5.850
 8965POPC   GL158369  39.971  23.680   6.150
 8965POPC   GL258370  39.850  23.741   6.150
 8965POPC   C1A58371  39.984  23.719   6.450
 8965POPC   D2A58372  39.994  23.721   6.750
 8965POPC   C3A58373  39.984  23.666   7.050
 8965POPC   C4A58374  39.966  23.716   7.350
 8965POPC   C1B58375  39.769  23.770   6.450
 8965POPC   C2B58376  39.772  23.768   6.750
 8965POPC   C3B58377  39.746  23.749   7.050
 8965POPC   C4B58378  39.810  23.777   7.350
 8966POPC   NC358379   1.979  39.253   5.550
 8966POPC   PO458380   1.976  39.211   5.850
 8966POPC   GL158381   1.982  39.222   6.150
 8966POPC   GL258382   2.050  39.109   6.150
 8966POPC   C1A58383   1.988  39.204   6.450
 8966POPC   D2A58384   1.952  39.267   6.750
 8966POPC   C3A58385   1.948  39.221   7.050
 8966POPC   C4A58386   1.961  39.269   7.350
 8966POPC   C1B58387   2.111  38.996   6.450
 8966POPC   C2B58388   2.106  38.985   6.750
 8966POPC   C3B58389   2.152  39.056   7.050
 8966POPC   C4B58390   2.110  38.963   7.350
 8967POPC   NC358391  41.535   5.848   5.550
 8967POPC   PO458392  41.580   5.838   5.850
 8967POPC   GL158393  41.532   5.892   6.150
 8967POPC   GL258394  41.457   5.854   6.150
 8967POPC   C1A58395  41.523   5.914   6.450
 8967POPC   D2A58396  41.563   5.821   6.750
 8967POPC   C3A58397  41.565   5.886   7.050
 8967POPC   C4A58398  41.550   5.820   7.350
 8967POPC   C1B58399  41.273   5.843   6.450
 8967POPC   C2B58400  41.308   5.817   6.750
 8967POPC   C3B58401  41.307   5.812   7.050
 8967POPC   C4B58402  41.284   5.843   7.350
 8968POPC   NC358403  22.167   0.478   5.550
 8968POPC   PO458404  22.143   0.425   5.850
 8968POPC   GL158405  22.121   0.460   6.150
 8968POPC   GL258406  22.180   0.308   6.150
 8968POPC   C1A58407  22.205   0.470   6.450
 8968POPC   D2A58408  22.130   0.401   6.750
 8968POPC   C3A58409  22.185   0.449   7.050
 8968POPC   C4A58410  22.139   0.478   7.350
 8968POPC   C1B58411  22.199   0.162   6.450
 8968POPC   C2B58412  22.129   0.158   6.750
 8968POPC   C3B58413  22.144   0.211   7.050
 8968POPC   C4B58414  22.162   0.237   7.350
 8969POPC   NC358415   6.597   8.989   5.550
 8969POPC   PO458416   6.685   8.924   5.850
 8969POPC   GL158417   6.634   8.923   6.150
 8969POPC   GL258418   6.710   8.946   6.150
 8969POPC   C1A58419   6.647   8.934   6.450
 8969POPC   D2A58420   6.675   9.016   6.750
 8969POPC   C3A58421   6.619   8.939   7.050
 8969POPC   C4A58422   6.610   8.967   7.350
 8969POPC   C1B58423   6.860   8.872   6.450
 8969POPC   C2B58424   6.823   8.824   6.750
 8969POPC   C3B58425   6.900   8.783   7.050
 8969POPC   C4B58426   6.872   8.847   7.350
 8970POPC   NC358427  34.547   3.529   5.550
 8970POPC   PO458428  34.605   3.502   5.850
 8970POPC   GL158429  34.564   3.496   6.150
 8970POPC   GL258430  34.433   3.600   6.150
 8970POPC   C1A58431  34.597   3.546   6.450
 8970POPC   D2A58432  34.578   3.504   6.750
 8970POPC   C3A58433  34.581   3.558   7.050
 8970POPC   C4A58434  34.526   3.562   7.350
 8970POPC   C1B58435  34.350   3.650   6.450
 8970POPC   C2B58436  34.349   3.684   6.750
 8970POPC   C3B58437  34.356   3.638   7.050
 8970POPC   C4B58438  34.372   3.647   7.350
 8971POPC   NC358439  43.143  16.698   5.550
 8971POPC   PO458440  43.115  16.737   5.850
 8971POPC   GL158441  43.094  16.729   6.150
 8971POPC   GL258442  43.032  16.735   6.150
 8971POPC   C1A58443  43.124  16.775   6.450
 8971POPC   D2A58444  43.080  16.717   6.750
 8971POPC   C3A58445  43.159  16.747   7.050
 8971POPC   C4A58446  43.144  16.733   7.350
 8971POPC   C1B58447  42.836  16.659   6.450
 8971POPC   C2B58448  42.828  16.618   6.750
 8971POPC   C3B58449  42.847  16.631   7.050
 8971POPC   C4B58450  42.864  16.633   7.350
 8972POPC   NC358451   9.756  32.253   5.550
 8972POPC   PO458452   9.751  32.270   5.850
 8972POPC   GL158453   9.713  32.286   6.150
 8972POPC   GL258454   9.613  32.138   6.150
 8972POPC   C1A58455   9.778  32.210   6.450
 8972POPC   D2A58456   9.797  32.212   6.750
 8972POPC   C3A58457   9.723  32.223   7.050
 8972POPC   C4A58458   9.756  32.204   7.350
 8972POPC   C1B58459   9.587  32.098   6.450
 8972POPC   C2B58460   9.523  32.097   6.750
 8972POPC   C3B58461   9.577  32.114   7.050
 8972POPC   C4B58462   9.538  32.091   7.350
 8973POPC   NC358463  36.136  34.592   5.550
 8973POPC   PO458464  36.144  34.610   5.850
 8973POPC   GL158465  36.169  34.601   6.150
 8973POPC   GL258466  36.161  34.452   6.150
 8973POPC   C1A58467  36.115  34.617   6.450
 8973POPC   D2A58468  36.142  34.527   6.750
 8973POPC   C3A58469  36.165  34.601   7.050
 8973POPC   C4A58470  36.117  34.568   7.350
 8973POPC   C1B58471  36.305  34.349   6.450
 8973POPC   C2B58472  36.246  34.408   6.750
 8973POPC   C3B58473  36.258  34.344   7.050
 8973POPC   C4B58474  36.298  34.324   7.350
 8974POPC   NC358475  29.130  19.806   5.550
 8974POPC   PO458476  29.103  19.790   5.850
 8974POPC   GL158477  29.155  19.865   6.150
 8974POPC   GL258478  29.046  19.813   6.150
 8974POPC   C1A58479  29.165  19.787   6.450
 8974POPC   D2A58480  29.195  19.871   6.750
 8974POPC   C3A58481  29.185  19.816   7.050
 8974POPC   C4A58482  29.175  19.863   7.350
 8974POPC   C1B58483  28.936  19.845   6.450
 8974POPC   C2B58484  28.929  19.807   6.750
 8974POPC   C3B58485  28.915  19.879   7.050
 8974POPC   C4B58486  28.893  19.861   7.350
 8975POPC   NC358487  39.252  31.454   5.550
 8975POPC   PO458488  39.188  31.453   5.850
 8975POPC   GL158489  39.223  31.513   6.150
 8975POPC   GL258490  39.079  31.560   6.150
 8975POPC   C1A58491  39.262  31.428   6.450
 8975POPC   D2A58492  39.251  31.430   6.750
 8975POPC   C3A58493  39.185  31.457   7.050
 8975POPC   C4A58494  39.216  31.496   7.350
 8975POPC   C1B58495  38.976  31.643   6.450
 8975POPC   C2B58496  39.044  31.644   6.750
 8975POPC   C3B58497  39.057  31.608   7.050
 8975POPC   C4B58498  39.066  31.604   7.350
 8976POPC   NC358499   3.521  15.168   5.550
 8976POPC   PO458500   3.511  15.189   5.850
 8976POPC   GL158501   3.587  15.203   6.150
 8976POPC   GL258502   3.410  15.215   6.150
 8976POPC   C1A58503   3.529  15.170   6.450
 8976POPC   D2A58504   3.563  15.176   6.750
 8976POPC   C3A58505   3.509  15.228   7.050
 8976POPC   C4A58506   3.591  15.147   7.350
 8976POPC   C1B58507   3.307  15.337   6.450
 8976POPC   C2B58508   3.322  15.307   6.750
 8976POPC   C3B58509   3.341  15.326   7.050
 8976POPC   C4B58510   3.358  15.350   7.350
 8977POPC   NC358511  21.372  25.220   5.550
 8977POPC   PO458512  21.421  25.315   5.850
 8977POPC   GL158513  21.432  25.301   6.150
 8977POPC   GL258514  21.286  25.173   6.150
 8977POPC   C1A58515  21.356  25.256   6.450
 8977POPC   D2A58516  21.415  25.272   6.750
 8977POPC   C3A58517  21.433  25.286   7.050
 8977POPC   C4A58518  21.408  25.303   7.350
 8977POPC   C1B58519  21.128  25.175   6.450
 8977POPC   C2B58520  21.208  25.163   6.750
 8977POPC   C3B58521  21.131  25.166   7.050
 8977POPC   C4B58522  21.187  25.166   7.350
 8978POPC   NC358523  36.946  28.324   5.550
 8978POPC   PO458524  36.879  28.345   5.850
 8978POPC   GL158525  36.928  28.347   6.150
 8978POPC   GL258526  36.815  28.266   6.150
 8978POPC   C1A58527  36.891  28.389   6.450
 8978POPC   D2A58528  36.889  28.408   6.750
 8978POPC   C3A58529  36.884  28.364   7.050
 8978POPC   C4A58530  36.931  28.352   7.350
 8978POPC   C1B58531  36.672  28.177   6.450
 8978POPC   C2B58532  36.738  28.232   6.750
 8978POPC   C3B58533  36.674  28.196   7.050
 8978POPC   C4B58534  36.757  28.232   7.350
 8979POPC   NC358535  38.480  17.506   5.550
 8979POPC   PO458536  38.466  17.503   5.850
 8979POPC   GL158537  38.440  17.474   6.150
 8979POPC   GL258538  38.314  17.505   6.150
 8979POPC   C1A58539  38.478  17.478   6.450
 8979POPC   D2A58540  38.423  17.504   6.750
 8979POPC   C3A58541  38.466  17.513   7.050
 8979POPC   C4A58542  38.476  17.462   7.350
 8979POPC   C1B58543  38.175  17.561   6.450
 8979POPC   C2B58544  38.178  17.488   6.750
 8979POPC   C3B58545  38.202  17.496   7.050
 8979POPC   C4B58546  38.197  17.479   7.350
 8980POPC   NC358547   8.226  43.085   5.550
 8980POPC   PO458548   8.208  43.078   5.850
 8980POPC   GL158549   8.221  43.136   6.150
 8980POPC   GL258550   8.262  43.001   6.150
 8980POPC   C1A58551   8.192  43.149   6.450
 8980POPC   D2A58552   8.171  43.154   6.750
 8980POPC   C3A58553   8.220  43.125   7.050
 8980POPC   C4A58554   8.154  43.159   7.350
 8980POPC   C1B58555   8.328  42.827   6.450
 8980POPC   C2B58556   8.265  42.860   6.750
 8980POPC   C3B58557   8.285  42.843   7.050
 8980POPC   C4B58558   8.283  42.877   7.350
 8981POPC   NC358559  19.831  19.882   5.550
 8981POPC   PO458560  19.836  19.833   5.850
 8981POPC   GL158561  19.859  19.864   6.150
 8981POPC   GL258562  19.759  19.708   6.150
 8981POPC   C1A58563  19.788  19.802   6.450
 8981POPC   D2A58564  19.851  19.866   6.750
 8981POPC   C3A58565  19.871  19.851   7.050
 8981POPC   C4A58566  19.882  19.878   7.350
 8981POPC   C1B58567  19.690  19.606   6.450
 8981POPC   C2B58568  19.753  19.570   6.750
 8981POPC   C3B58569  19.762  19.629   7.050
 8981POPC   C4B58570  19.723  19.640   7.350
 8982POPC   NC358571  35.393   9.774   5.550
 8982POPC   PO458572  35.323   9.741   5.850
 8982POPC   GL158573  35.340   9.735   6.150
 8982POPC   GL258574  35.464   9.778   6.150
 8982POPC   C1A58575  35.331   9.796   6.450
 8982POPC   D2A58576  35.326   9.775   6.750
 8982POPC   C3A58577  35.355   9.763   7.050
 8982POPC   C4A58578  35.322   9.797   7.350
 8982POPC   C1B58579  35.550   9.950   6.450
 8982POPC   C2B58580  35.505   9.945   6.750
 8982POPC   C3B58581  35.507   9.943   7.050
 8982POPC   C4B58582  35.570   9.907   7.350
 8983POPC   NC358583  35.314  38.406   5.550
 8983POPC   PO458584  35.373  38.483   5.850
 8983POPC   GL158585  35.361  38.494   6.150
 8983POPC   GL258586  35.316  38.344   6.150
 8983POPC   C1A58587  35.314  38.435   6.450
 8983POPC   D2A58588  35.331  38.457   6.750
 8983POPC   C3A58589  35.311  38.488   7.050
 8983POPC   C4A58590  35.393  38.476   7.350
 8983POPC   C1B58591  35.283  38.227   6.450
 8983POPC   C2B58592  35.218  38.191   6.750
 8983POPC   C3B58593  35.242  38.235   7.050
 8983POPC   C4B58594  35.255  38.249   7.350
 8984POPC   NC358595  40.803  29.132   5.550
 8984POPC   PO458596  40.768  29.154   5.850
 8984POPC   GL158597  40.775  29.174   6.150
 8984POPC   GL258598  40.762  29.264   6.150
 8984POPC   C1A58599  40.773  29.117   6.450
 8984POPC   D2A58600  40.810  29.105   6.750
 8984POPC   C3A58601  40.751  29.144   7.050
 8984POPC   C4A58602  40.785  29.117   7.350
 8984POPC   C1B58603  40.705  29.360   6.450
 8984POPC   C2B58604  40.736  29.369   6.750
 8984POPC   C3B58605  40.722  29.401   7.050
 8984POPC   C4B58606  40.773  29.346   7.350
 8985POPC   NC358607  17.545  35.374   5.550
 8985POPC   PO458608  17.533  35.370   5.850
 8985POPC   GL158609  17.491  35.303   6.150
 8985POPC   GL258610  17.522  35.498   6.150
 8985POPC   C1A58611  17.460  35.323   6.450
 8985POPC   D2A58612  17.533  35.322   6.750
 8985POPC   C3A58613  17.513  35.393   7.050
 8985POPC   C4A58614  17.504  35.395   7.350
 8985POPC   C1B58615  17.613  35.573   6.450
 8985POPC   C2B58616  17.626  35.549   6.750
 8985POPC   C3B58617  17.583  35.572   7.050
 8985POPC   C4B58618  17.555  35.566   7.350
 8986POPC   NC358619   7.385   1.168   5.550
 8986POPC   PO458620   7.443   1.246   5.850
 8986POPC   GL158621   7.451   1.235   6.150
 8986POPC   GL258622   7.437   1.064   6.150
 8986POPC   C1A58623   7.372   1.195   6.450
 8986POPC   D2A58624   7.425   1.199   6.750
 8986POPC   C3A58625   7.460   1.219   7.050
 8986POPC   C4A58626   7.391   1.255   7.350
 8986POPC   C1B58627   7.451   0.951   6.450
 8986POPC   C2B58628   7.413   0.959   6.750
 8986POPC   C3B58629   7.464   0.981   7.050
 8986POPC   C4B58630   7.463   0.986   7.350
 8987POPC   NC358631  11.314  33.006   5.550
 8987POPC   PO458632  11.325  33.020   5.850
 8987POPC   GL158633  11.315  33.014   6.150
 8987POPC   GL258634  11.206  33.114   6.150
 8987POPC   C1A58635  11.280  33.032   6.450
 8987POPC   D2A58636  11.258  33.032   6.750
 8987POPC   C3A58637  11.288  33.037   7.050
 8987POPC   C4A58638  11.293  32.979   7.350
 8987POPC   C1B58639  11.085  33.155   6.450
 8987POPC   C2B58640  11.067  33.130   6.750
 8987POPC   C3B58641  11.098  33.128   7.050
 8987POPC   C4B58642  11.073  33.116   7.350
 8988POPC   NC358643  24.521  11.283   5.550
 8988POPC   PO458644  24.482  11.327   5.850
 8988POPC   GL158645  24.447  11.325   6.150
 8988POPC   GL258646  24.489  11.180   6.150
 8988POPC   C1A58647  24.482  11.276   6.450
 8988POPC   D2A58648  24.512  11.280   6.750
 8988POPC   C3A58649  24.490  11.262   7.050
 8988POPC   C4A58650  24.485  11.300   7.350
 8988POPC   C1B58651  24.380  11.038   6.450
 8988POPC   C2B58652  24.458  11.063   6.750
 8988POPC   C3B58653  24.462  11.031   7.050
 8988POPC   C4B58654  24.428  11.033   7.350
 8989POPC   NC358655  41.571  39.262   5.550
 8989POPC   PO458656  41.517  39.265   5.850
 8989POPC   GL158657  41.576  39.219   6.150
 8989POPC   GL258658  41.417  39.165   6.150
 8989POPC   C1A58659  41.527  39.268   6.450
 8989POPC   D2A58660  41.576  39.194   6.750
 8989POPC   C3A58661  41.553  39.234   7.050
 8989POPC   C4A58662  41.580  39.206   7.350
 8989POPC   C1B58663  41.344  39.149   6.450
 8989POPC   C2B58664  41.341  39.155   6.750
 8989POPC   C3B58665  41.323  39.162   7.050
 8989POPC   C4B58666  41.262  39.215   7.350
 8990POPC   NC358667  40.794  41.594   5.550
 8990POPC   PO458668  40.765  41.511   5.850
 8990POPC   GL158669  40.745  41.593   6.150
 8990POPC   GL258670  40.838  41.438   6.150
 8990POPC   C1A58671  40.756  41.515   6.450
 8990POPC   D2A58672  40.805  41.557   6.750
 8990POPC   C3A58673  40.779  41.578   7.050
 8990POPC   C4A58674  40.760  41.570   7.350
 8990POPC   C1B58675  40.898  41.359   6.450
 8990POPC   C2B58676  40.904  41.301   6.750
 8990POPC   C3B58677  40.868  41.344   7.050
 8990POPC   C4B58678  40.918  41.329   7.350
 8991POPC   NC358679  22.888   9.718   5.550
 8991POPC   PO458680  22.967   9.699   5.850
 8991POPC   GL158681  22.952   9.775   6.150
 8991POPC   GL258682  22.942   9.619   6.150
 8991POPC   C1A58683  22.974   9.769   6.450
 8991POPC   D2A58684  22.896   9.705   6.750
 8991POPC   C3A58685  22.973   9.733   7.050
 8991POPC   C4A58686  22.902   9.759   7.350
 8991POPC   C1B58687  22.931   9.491   6.450
 8991POPC   C2B58688  22.967   9.538   6.750
 8991POPC   C3B58689  22.924   9.526   7.050
 8991POPC   C4B58690  22.899   9.457   7.350
 8992POPC   NC358691  42.351  31.428   5.550
 8992POPC   PO458692  42.354  31.439   5.850
 8992POPC   GL158693  42.367  31.451   6.150
 8992POPC   GL258694  42.279  31.632   6.150
 8992POPC   C1A58695  42.359  31.512   6.450
 8992POPC   D2A58696  42.380  31.472   6.750
 8992POPC   C3A58697  42.381  31.432   7.050
 8992POPC   C4A58698  42.370  31.435   7.350
 8992POPC   C1B58699  42.214  31.700   6.450
 8992POPC   C2B58700  42.277  31.675   6.750
 8992POPC   C3B58701  42.223  31.738   7.050
 8992POPC   C4B58702  42.262  31.701   7.350
 8993POPC   NC358703   5.066   6.601   5.550
 8993POPC   PO458704   5.098   6.611   5.850
 8993POPC   GL158705   5.099   6.641   6.150
 8993POPC   GL258706   4.977   6.587   6.150
 8993POPC   C1A58707   5.054   6.622   6.450
 8993POPC   D2A58708   5.083   6.654   6.750
 8993POPC   C3A58709   5.127   6.694   7.050
 8993POPC   C4A58710   5.060   6.688   7.350
 8993POPC   C1B58711   4.812   6.557   6.450
 8993POPC   C2B58712   4.843   6.596   6.750
 8993POPC   C3B58713   4.830   6.575   7.050
 8993POPC   C4B58714   4.810   6.557   7.350
 8994POPC   NC358715  27.567  38.490   5.550
 8994POPC   PO458716  27.557  38.411   5.850
 8994POPC   GL158717  27.594  38.468   6.150
 8994POPC   GL258718  27.729  38.452   6.150
 8994POPC   C1A58719  27.565  38.440   6.450
 8994POPC   D2A58720  27.603  38.457   6.750
 8994POPC   C3A58721  27.601  38.475   7.050
 8994POPC   C4A58722  27.601  38.476   7.350
 8994POPC   C1B58723  27.800  38.466   6.450
 8994POPC   C2B58724  27.881  38.397   6.750
 8994POPC   C3B58725  27.816  38.424   7.050
 8994POPC   C4B58726  27.838  38.376   7.350
 8995POPC   NC358727  39.247   2.013   5.550
 8995POPC   PO458728  39.206   2.024   5.850
 8995POPC   GL158729  39.276   2.025   6.150
 8995POPC   GL258730  39.237   2.081   6.150
 8995POPC   C1A58731  39.263   1.961   6.450
 8995POPC   D2A58732  39.221   2.021   6.750
 8995POPC   C3A58733  39.233   2.018   7.050
 8995POPC   C4A58734  39.251   1.973   7.350
 8995POPC   C1B58735  39.370   2.186   6.450
 8995POPC   C2B58736  39.322   2.267   6.750
 8995POPC   C3B58737  39.307   2.180   7.050
 8995POPC   C4B58738  39.344   2.221   7.350
 8996POPC   NC358739  19.857  22.144   5.550
 8996POPC   PO458740  19.875  22.212   5.850
 8996POPC   GL158741  19.788  22.150   6.150
 8996POPC   GL258742  19.886  22.048   6.150
 8996POPC   C1A58743  19.827  22.159   6.450
 8996POPC   D2A58744  19.805  22.116   6.750
 8996POPC   C3A58745  19.796  22.149   7.050
 8996POPC   C4A58746  19.871  22.205   7.350
 8996POPC   C1B58747  20.035  21.943   6.450
 8996POPC   C2B58748  20.006  21.961   6.750
 8996POPC   C3B58749  19.991  21.985   7.050
 8996POPC   C4B58750  19.997  21.999   7.350
 8997POPC   NC358751  25.232  22.124   5.550
 8997POPC   PO458752  25.265  22.112   5.850
 8997POPC   GL158753  25.313  22.171   6.150
 8997POPC   GL258754  25.321  22.072   6.150
 8997POPC   C1A58755  25.299  22.134   6.450
 8997POPC   D2A58756  25.216  22.160   6.750
 8997POPC   C3A58757  25.292  22.202   7.050
 8997POPC   C4A58758  25.228  22.124   7.350
 8997POPC   C1B58759  25.460  21.955   6.450
 8997POPC   C2B58760  25.415  21.959   6.750
 8997POPC   C3B58761  25.389  21.974   7.050
 8997POPC   C4B58762  25.399  21.936   7.350
 8998POPC   NC358763   8.233  22.156   5.550
 8998POPC   PO458764   8.150  22.114   5.850
 8998POPC   GL158765   8.164  22.112   6.150
 8998POPC   GL258766   8.210  21.998   6.150
 8998POPC   C1A58767   8.174  22.118   6.450
 8998POPC   D2A58768   8.220  22.141   6.750
 8998POPC   C3A58769   8.188  22.194   7.050
 8998POPC   C4A58770   8.149  22.192   7.350
 8998POPC   C1B58771   8.163  21.947   6.450
 8998POPC   C2B58772   8.221  21.908   6.750
 8998POPC   C3B58773   8.159  21.899   7.050
 8998POPC   C4B58774   8.242  21.954   7.350
 8999POPC   NC358775   8.929  33.055   5.550
 8999POPC   PO458776   9.000  33.046   5.850
 8999POPC   GL158777   8.932  33.052   6.150
 8999POPC   GL258778   8.866  33.074   6.150
 8999POPC   C1A58779   8.956  33.018   6.450
 8999POPC   D2A58780   8.988  32.980   6.750
 8999POPC   C3A58781   8.981  33.066   7.050
 8999POPC   C4A58782   9.005  33.060   7.350
 8999POPC   C1B58783   8.772  33.090   6.450
 8999POPC   C2B58784   8.703  33.089   6.750
 8999POPC   C3B58785   8.766  33.059   7.050
 8999POPC   C4B58786   8.691  33.030   7.350
 9000POPC   NC358787  10.545   9.742   5.550
 9000POPC   PO458788  10.519   9.711   5.850
 9000POPC   GL158789  10.505   9.719   6.150
 9000POPC   GL258790  10.516   9.872   6.150
 9000POPC   C1A58791  10.515   9.786   6.450
 9000POPC   D2A58792  10.477   9.777   6.750
 9000POPC   C3A58793  10.559   9.738   7.050
 9000POPC   C4A58794  10.481   9.780   7.350
 9000POPC   C1B58795  10.410   9.956   6.450
 9000POPC   C2B58796  10.412  10.014   6.750
 9000POPC   C3B58797  10.384   9.938   7.050
 9000POPC   C4B58798  10.448  10.012   7.350
 9001POPC   NC358799   3.548  11.266   5.550
 9001POPC   PO458800   3.513  11.304   5.850
 9001POPC   GL158801   3.584  11.314   6.150
 9001POPC   GL258802   3.435  11.168   6.150
 9001POPC   C1A58803   3.548  11.292   6.450
 9001POPC   D2A58804   3.560  11.290   6.750
 9001POPC   C3A58805   3.527  11.267   7.050
 9001POPC   C4A58806   3.528  11.341   7.350
 9001POPC   C1B58807   3.424  11.113   6.450
 9001POPC   C2B58808   3.433  11.140   6.750
 9001POPC   C3B58809   3.368  11.079   7.050
 9001POPC   C4B58810   3.385  11.104   7.350
 9002POPC   NC358811  22.189  30.684   5.550
 9002POPC   PO458812  22.124  30.652   5.850
 9002POPC   GL158813  22.193  30.658   6.150
 9002POPC   GL258814  22.318  30.635   6.150
 9002POPC   C1A58815  22.183  30.679   6.450
 9002POPC   D2A58816  22.118  30.722   6.750
 9002POPC   C3A58817  22.188  30.726   7.050
 9002POPC   C4A58818  22.146  30.722   7.350
 9002POPC   C1B58819  22.436  30.558   6.450
 9002POPC   C2B58820  22.367  30.641   6.750
 9002POPC   C3B58821  22.418  30.561   7.050
 9002POPC   C4B58822  22.373  30.559   7.350
 9003POPC   NC358823  15.935  25.225   5.550
 9003POPC   PO458824  15.936  25.292   5.850
 9003POPC   GL158825  15.956  25.314   6.150
 9003POPC   GL258826  16.076  25.349   6.150
 9003POPC   C1A58827  15.946  25.293   6.450
 9003POPC   D2A58828  15.907  25.237   6.750
 9003POPC   C3A58829  15.918  25.271   7.050
 9003POPC   C4A58830  15.924  25.269   7.350
 9003POPC   C1B58831  16.183  25.470   6.450
 9003POPC   C2B58832  16.163  25.462   6.750
 9003POPC   C3B58833  16.195  25.439   7.050
 9003POPC   C4B58834  16.148  25.466   7.350
 9004POPC   NC358835  30.674  22.903   5.550
 9004POPC   PO458836  30.694  22.973   5.850
 9004POPC   GL158837  30.675  22.946   6.150
 9004POPC   GL258838  30.623  23.042   6.150
 9004POPC   C1A58839  30.737  22.952   6.450
 9004POPC   D2A58840  30.695  22.937   6.750
 9004POPC   C3A58841  30.648  22.938   7.050
 9004POPC   C4A58842  30.677  22.892   7.350
 9004POPC   C1B58843  30.573  23.135   6.450
 9004POPC   C2B58844  30.618  23.146   6.750
 9004POPC   C3B58845  30.587  23.124   7.050
 9004POPC   C4B58846  30.555  23.187   7.350
 9005POPC   NC358847  21.434   9.715   5.550
 9005POPC   PO458848  21.417   9.772   5.850
 9005POPC   GL158849  21.435   9.788   6.150
 9005POPC   GL258850  21.475   9.671   6.150
 9005POPC   C1A58851  21.431   9.793   6.450
 9005POPC   D2A58852  21.347   9.758   6.750
 9005POPC   C3A58853  21.348   9.729   7.050
 9005POPC   C4A58854  21.363   9.728   7.350
 9005POPC   C1B58855  21.604   9.663   6.450
 9005POPC   C2B58856  21.618   9.629   6.750
 9005POPC   C3B58857  21.645   9.573   7.050
 9005POPC   C4B58858  21.602   9.597   7.350
 9006POPC   NC358859  33.771  40.740   5.550
 9006POPC   PO458860  33.774  40.804   5.850
 9006POPC   GL158861  33.760  40.802   6.150
 9006POPC   GL258862  33.907  40.812   6.150
 9006POPC   C1A58863  33.755  40.778   6.450
 9006POPC   D2A58864  33.793  40.807   6.750
 9006POPC   C3A58865  33.834  40.774   7.050
 9006POPC   C4A58866  33.753  40.803   7.350
 9006POPC   C1B58867  34.067  40.776   6.450
 9006POPC   C2B58868  34.070  40.794   6.750
 9006POPC   C3B58869  34.014  40.796   7.050
 9006POPC   C4B58870  34.015  40.775   7.350
 9007POPC   NC358871  10.545  25.992   5.550
 9007POPC   PO458872  10.522  26.026   5.850
 9007POPC   GL158873  10.542  26.069   6.150
 9007POPC   GL258874  10.396  25.984   6.150
 9007POPC   C1A58875  10.546  26.028   6.450
 9007POPC   D2A58876  10.528  26.070   6.750
 9007POPC   C3A58877  10.567  26.037   7.050
 9007POPC   C4A58878  10.490  26.068   7.350
 9007POPC   C1B58879  10.345  25.976   6.450
 9007POPC   C2B58880  10.309  25.923   6.750
 9007POPC   C3B58881  10.281  25.903   7.050
 9007POPC   C4B58882  10.344  25.949   7.350
 9008POPC   NC358883  15.950  28.343   5.550
 9008POPC   PO458884  15.998  28.400   5.850
 9008POPC   GL158885  15.955  28.401   6.150
 9008POPC   GL258886  16.083  28.470   6.150
 9008POPC   C1A58887  15.965  28.354   6.450
 9008POPC   D2A58888  15.949  28.343   6.750
 9008POPC   C3A58889  15.908  28.417   7.050
 9008POPC   C4A58890  15.998  28.414   7.350
 9008POPC   C1B58891  16.144  28.568   6.450
 9008POPC   C2B58892  16.080  28.524   6.750
 9008POPC   C3B58893  16.110  28.542   7.050
 9008POPC   C4B58894  16.135  28.588   7.350
 9009POPC   NC358895  39.195  24.487   5.550
 9009POPC   PO458896  39.223  24.456   5.850
 9009POPC   GL158897  39.269  24.493   6.150
 9009POPC   GL258898  39.125  24.514   6.150
 9009POPC   C1A58899  39.219  24.482   6.450
 9009POPC   D2A58900  39.249  24.482   6.750
 9009POPC   C3A58901  39.213  24.538   7.050
 9009POPC   C4A58902  39.279  24.459   7.350
 9009POPC   C1B58903  38.976  24.414   6.450
 9009POPC   C2B58904  39.022  24.496   6.750
 9009POPC   C3B58905  39.002  24.461   7.050
 9009POPC   C4B58906  38.982  24.461   7.350
 9010POPC   NC358907  33.806  33.073   5.550
 9010POPC   PO458908  33.847  32.985   5.850
 9010POPC   GL158909  33.791  32.994   6.150
 9010POPC   GL258910  33.754  33.141   6.150
 9010POPC   C1A58911  33.789  33.039   6.450
 9010POPC   D2A58912  33.788  33.057   6.750
 9010POPC   C3A58913  33.788  33.058   7.050
 9010POPC   C4A58914  33.803  33.006   7.350
 9010POPC   C1B58915  33.661  33.248   6.450
 9010POPC   C2B58916  33.756  33.283   6.750
 9010POPC   C3B58917  33.702  33.294   7.050
 9010POPC   C4B58918  33.691  33.276   7.350
 9011POPC   NC358919  32.236   7.424   5.550
 9011POPC   PO458920  32.248   7.379   5.850
 9011POPC   GL158921  32.238   7.425   6.150
 9011POPC   GL258922  32.121   7.353   6.150
 9011POPC   C1A58923  32.267   7.431   6.450
 9011POPC   D2A58924  32.228   7.410   6.750
 9011POPC   C3A58925  32.294   7.456   7.050
 9011POPC   C4A58926  32.286   7.416   7.350
 9011POPC   C1B58927  32.054   7.259   6.450
 9011POPC   C2B58928  32.072   7.268   6.750
 9011POPC   C3B58929  32.071   7.208   7.050
 9011POPC   C4B58930  32.111   7.221   7.350
 9012POPC   NC358931  40.012  40.784   5.550
 9012POPC   PO458932  40.044  40.772   5.850
 9012POPC   GL158933  39.999  40.799   6.150
 9012POPC   GL258934  40.052  40.671   6.150
 9012POPC   C1A58935  40.028  40.747   6.450
 9012POPC   D2A58936  39.959  40.773   6.750
 9012POPC   C3A58937  39.970  40.809   7.050
 9012POPC   C4A58938  40.016  40.805   7.350
 9012POPC   C1B58939  40.097  40.562   6.450
 9012POPC   C2B58940  40.118  40.521   6.750
 9012POPC   C3B58941  40.107  40.529   7.050
 9012POPC   C4B58942  40.163  40.562   7.350
 9013POPC   NC358943   2.718   0.423   5.550
 9013POPC   PO458944   2.804   0.438   5.850
 9013POPC   GL158945   2.795   0.481   6.150
 9013POPC   GL258946   2.778   0.522   6.150
 9013POPC   C1A58947   2.782   0.444   6.450
 9013POPC   D2A58948   2.768   0.445   6.750
 9013POPC   C3A58949   2.803   0.474   7.050
 9013POPC   C4A58950   2.780   0.437   7.350
 9013POPC   C1B58951   2.770   0.668   6.450
 9013POPC   C2B58952   2.818   0.642   6.750
 9013POPC   C3B58953   2.743   0.707   7.050
 9013POPC   C4B58954   2.747   0.640   7.350
 9014POPC   NC358955  24.487   8.169   5.550
 9014POPC   PO458956  24.476   8.156   5.850
 9014POPC   GL158957  24.469   8.210   6.150
 9014POPC   GL258958  24.432   8.061   6.150
 9014POPC   C1A58959  24.495   8.217   6.450
 9014POPC   D2A58960  24.460   8.158   6.750
 9014POPC   C3A58961  24.468   8.221   7.050
 9014POPC   C4A58962  24.538   8.230   7.350
 9014POPC   C1B58963  24.349   7.975   6.450
 9014POPC   C2B58964  24.334   8.036   6.750
 9014POPC   C3B58965  24.356   8.052   7.050
 9014POPC   C4B58966  24.304   8.002   7.350
 9015POPC   NC358967  15.191  39.211   5.550
 9015POPC   PO458968  15.225  39.181   5.850
 9015POPC   GL158969  15.216  39.253   6.150
 9015POPC   GL258970  15.175  39.305   6.150
 9015POPC   C1A58971  15.159  39.210   6.450
 9015POPC   D2A58972  15.151  39.212   6.750
 9015POPC   C3A58973  15.195  39.275   7.050
 9015POPC   C4A58974  15.199  39.244   7.350
 9015POPC   C1B58975  15.108  39.482   6.450
 9015POPC   C2B58976  15.055  39.505   6.750
 9015POPC   C3B58977  15.054  39.452   7.050
 9015POPC   C4B58978  15.120  39.459   7.350
 9016POPC   NC358979  23.709   8.188   5.550
 9016POPC   PO458980  23.714   8.194   5.850
 9016POPC   GL158981  23.710   8.205   6.150
 9016POPC   GL258982  23.666   8.048   6.150
 9016POPC   C1A58983  23.711   8.164   6.450
 9016POPC   D2A58984  23.734   8.190   6.750
 9016POPC   C3A58985  23.676   8.219   7.050
 9016POPC   C4A58986  23.705   8.213   7.350
 9016POPC   C1B58987  23.693   7.959   6.450
 9016POPC   C2B58988  23.661   7.916   6.750
 9016POPC   C3B58989  23.677   7.952   7.050
 9016POPC   C4B58990  23.646   7.929   7.350
 9017POPC   NC358991  43.085   4.290   5.550
 9017POPC   PO458992  43.151   4.284   5.850
 9017POPC   GL158993  43.147   4.289   6.150
 9017POPC   GL258994  42.999   4.267   6.150
 9017POPC   C1A58995  43.157   4.308   6.450
 9017POPC   D2A58996  43.065   4.305   6.750
 9017POPC   C3A58997  43.121   4.290   7.050
 9017POPC   C4A58998  43.136   4.351   7.350
 9017POPC   C1B58999  42.860   4.273   6.450
 9017POPC   C2B59000  42.829   4.341   6.750
 9017POPC   C3B59001  42.815   4.296   7.050
 9017POPC   C4B59002  42.842   4.268   7.350
 9018POPC   NC359003   9.784  37.693   5.550
 9018POPC   PO459004   9.714  37.690   5.850
 9018POPC   GL159005   9.774  37.707   6.150
 9018POPC   GL259006   9.600  37.730   6.150
 9018POPC   C1A59007   9.743  37.709   6.450
 9018POPC   D2A59008   9.709  37.718   6.750
 9018POPC   C3A59009   9.739  37.671   7.050
 9018POPC   C4A59010   9.759  37.633   7.350
 9018POPC   C1B59011   9.544  37.832   6.450
 9018POPC   C2B59012   9.570  37.809   6.750
 9018POPC   C3B59013   9.514  37.867   7.050
 9018POPC   C4B59014   9.564  37.831   7.350
 9019POPC   NC359015  29.960  38.432   5.550
 9019POPC   PO459016  29.901  38.465   5.850
 9019POPC   GL159017  29.888  38.458   6.150
 9019POPC   GL259018  29.926  38.337   6.150
 9019POPC   C1A59019  29.907  38.456   6.450
 9019POPC   D2A59020  29.873  38.414   6.750
 9019POPC   C3A59021  29.905  38.482   7.050
 9019POPC   C4A59022  29.927  38.501   7.350
 9019POPC   C1B59023  29.920  38.223   6.450
 9019POPC   C2B59024  29.920  38.246   6.750
 9019POPC   C3B59025  29.851  38.255   7.050
 9019POPC   C4B59026  29.859  38.214   7.350
 9020POPC   NC359027  32.253  43.117   5.550
 9020POPC   PO459028  32.218  43.067   5.850
 9020POPC   GL159029  32.295  43.120   6.150
 9020POPC   GL259030  32.145  43.005   6.150
 9020POPC   C1A59031  32.265  43.100   6.450
 9020POPC   D2A59032  32.293  43.087   6.750
 9020POPC   C3A59033  32.267  43.099   7.050
 9020POPC   C4A59034  32.268  43.129   7.350
 9020POPC   C1B59035  32.065  42.962   6.450
 9020POPC   C2B59036  32.078  42.991   6.750
 9020POPC   C3B59037  32.031  42.923   7.050
 9020POPC   C4B59038  31.995  42.921   7.350
 9021POPC   NC359039  13.618  14.395   5.550
 9021POPC   PO459040  13.667  14.442   5.850
 9021POPC   GL159041  13.654  14.397   6.150
 9021POPC   GL259042  13.580  14.248   6.150
 9021POPC   C1A59043  13.589  14.384   6.450
 9021POPC   D2A59044  13.603  14.403   6.750
 9021POPC   C3A59045  13.677  14.386   7.050
 9021POPC   C4A59046  13.610  14.400   7.350
 9021POPC   C1B59047  13.529  14.163   6.450
 9021POPC   C2B59048  13.569  14.167   6.750
 9021POPC   C3B59049  13.577  14.196   7.050
 9021POPC   C4B59050  13.551  14.139   7.350
 9022POPC   NC359051  22.917  11.290   5.550
 9022POPC   PO459052  22.963  11.321   5.850
 9022POPC   GL159053  22.960  11.272   6.150
 9022POPC   GL259054  22.868  11.339   6.150
 9022POPC   C1A59055  22.894  11.298   6.450
 9022POPC   D2A59056  22.893  11.289   6.750
 9022POPC   C3A59057  22.971  11.346   7.050
 9022POPC   C4A59058  22.946  11.258   7.350
 9022POPC   C1B59059  22.703  11.436   6.450
 9022POPC   C2B59060  22.710  11.421   6.750
 9022POPC   C3B59061  22.730  11.503   7.050
 9022POPC   C4B59062  22.788  11.470   7.350
 9023POPC   NC359063   4.327   6.607   5.550
 9023POPC   PO459064   4.272   6.669   5.850
 9023POPC   GL159065   4.295   6.655   6.150
 9023POPC   GL259066   4.205   6.597   6.150
 9023POPC   C1A59067   4.308   6.609   6.450
 9023POPC   D2A59068   4.297   6.596   6.750
 9023POPC   C3A59069   4.320   6.687   7.050
 9023POPC   C4A59070   4.303   6.692   7.350
 9023POPC   C1B59071   4.082   6.600   6.450
 9023POPC   C2B59072   4.114   6.584   6.750
 9023POPC   C3B59073   4.057   6.629   7.050
 9023POPC   C4B59074   4.081   6.565   7.350
 9024POPC   NC359075  34.604  15.985   5.550
 9024POPC   PO459076  34.585  15.940   5.850
 9024POPC   GL159077  34.560  15.970   6.150
 9024POPC   GL259078  34.458  16.049   6.150
 9024POPC   C1A59079  34.548  15.935   6.450
 9024POPC   D2A59080  34.565  15.913   6.750
 9024POPC   C3A59081  34.536  15.962   7.050
 9024POPC   C4A59082  34.623  15.926   7.350
 9024POPC   C1B59083  34.370  16.046   6.450
 9024POPC   C2B59084  34.297  16.066   6.750
 9024POPC   C3B59085  34.380  16.019   7.050
 9024POPC   C4B59086  34.386  16.034   7.350
 9025POPC   NC359087   2.782  39.221   5.550
 9025POPC   PO459088   2.767  39.188   5.850
 9025POPC   GL159089   2.748  39.194   6.150
 9025POPC   GL259090   2.741  39.066   6.150
 9025POPC   C1A59091   2.741  39.269   6.450
 9025POPC   D2A59092   2.797  39.249   6.750
 9025POPC   C3A59093   2.793  39.245   7.050
 9025POPC   C4A59094   2.716  39.225   7.350
 9025POPC   C1B59095   2.823  38.942   6.450
 9025POPC   C2B59096   2.747  39.009   6.750
 9025POPC   C3B59097   2.796  39.000   7.050
 9025POPC   C4B59098   2.806  38.972   7.350
 9026POPC   NC359099  14.373  20.613   5.550
 9026POPC   PO459100  14.435  20.649   5.850
 9026POPC   GL159101  14.374  20.617   6.150
 9026POPC   GL259102  14.504  20.598   6.150
 9026POPC   C1A59103  14.421  20.584   6.450
 9026POPC   D2A59104  14.376  20.565   6.750
 9026POPC   C3A59105  14.385  20.565   7.050
 9026POPC   C4A59106  14.370  20.573   7.350
 9026POPC   C1B59107  14.612  20.554   6.450
 9026POPC   C2B59108  14.680  20.619   6.750
 9026POPC   C3B59109  14.606  20.621   7.050
 9026POPC   C4B59110  14.651  20.548   7.350
 9027POPC   NC359111  11.340  19.088   5.550
 9027POPC   PO459112  11.315  19.046   5.850
 9027POPC   GL159113  11.265  19.092   6.150
 9027POPC   GL259114  11.413  18.979   6.150
 9027POPC   C1A59115  11.304  19.083   6.450
 9027POPC   D2A59116  11.252  19.097   6.750
 9027POPC   C3A59117  11.260  19.041   7.050
 9027POPC   C4A59118  11.328  19.101   7.350
 9027POPC   C1B59119  11.430  18.868   6.450
 9027POPC   C2B59120  11.487  18.900   6.750
 9027POPC   C3B59121  11.419  18.882   7.050
 9027POPC   C4B59122  11.408  18.845   7.350
 9028POPC   NC359123   5.047  30.714   5.550
 9028POPC   PO459124   5.118  30.703   5.850
 9028POPC   GL159125   5.076  30.670   6.150
 9028POPC   GL259126   5.043  30.802   6.150
 9028POPC   C1A59127   5.134  30.656   6.450
 9028POPC   D2A59128   5.098  30.678   6.750
 9028POPC   C3A59129   5.100  30.687   7.050
 9028POPC   C4A59130   5.126  30.723   7.350
 9028POPC   C1B59131   4.977  30.976   6.450
 9028POPC   C2B59132   5.021  30.880   6.750
 9028POPC   C3B59133   4.989  30.966   7.050
 9028POPC   C4B59134   4.954  30.949   7.350
 9029POPC   NC359135  26.025  38.419   5.550
 9029POPC   PO459136  26.075  38.459   5.850
 9029POPC   GL159137  26.053  38.432   6.150
 9029POPC   GL259138  26.096  38.620   6.150
 9029POPC   C1A59139  26.061  38.498   6.450
 9029POPC   D2A59140  26.031  38.470   6.750
 9029POPC   C3A59141  26.023  38.497   7.050
 9029POPC   C4A59142  26.022  38.505   7.350
 9029POPC   C1B59143  26.113  38.706   6.450
 9029POPC   C2B59144  26.035  38.666   6.750
 9029POPC   C3B59145  26.050  38.737   7.050
 9029POPC   C4B59146  26.076  38.702   7.350
 9030POPC   NC359147   2.775  32.210   5.550
 9030POPC   PO459148   2.748  32.298   5.850
 9030POPC   GL159149   2.741  32.248   6.150
 9030POPC   GL259150   2.913  32.248   6.150
 9030POPC   C1A59151   2.747  32.294   6.450
 9030POPC   D2A59152   2.750  32.231   6.750
 9030POPC   C3A59153   2.793  32.219   7.050
 9030POPC   C4A59154   2.756  32.251   7.350
 9030POPC   C1B59155   2.991  32.247   6.450
 9030POPC   C2B59156   3.039  32.286   6.750
 9030POPC   C3B59157   3.023  32.286   7.050
 9030POPC   C4B59158   2.997  32.271   7.350
 9031POPC   NC359159  25.217  40.734   5.550
 9031POPC   PO459160  25.229  40.754   5.850
 9031POPC   GL159161  25.230  40.774   6.150
 9031POPC   GL259162  25.306  40.883   6.150
 9031POPC   C1A59163  25.243  40.763   6.450
 9031POPC   D2A59164  25.239  40.769   6.750
 9031POPC   C3A59165  25.244  40.808   7.050
 9031POPC   C4A59166  25.242  40.748   7.350
 9031POPC   C1B59167  25.440  40.948   6.450
 9031POPC   C2B59168  25.459  41.005   6.750
 9031POPC   C3B59169  25.473  40.984   7.050
 9031POPC   C4B59170  25.454  40.981   7.350
 9032POPC   NC359171  10.520  13.667   5.550
 9032POPC   PO459172  10.555  13.582   5.850
 9032POPC   GL159173  10.517  13.595   6.150
 9032POPC   GL259174  10.635  13.513   6.150
 9032POPC   C1A59175  10.482  13.618   6.450
 9032POPC   D2A59176  10.557  13.662   6.750
 9032POPC   C3A59177  10.501  13.590   7.050
 9032POPC   C4A59178  10.556  13.675   7.350
 9032POPC   C1B59179  10.616  13.371   6.450
 9032POPC   C2B59180  10.638  13.373   6.750
 9032POPC   C3B59181  10.616  13.434   7.050
 9032POPC   C4B59182  10.677  13.446   7.350
 9033POPC   NC359183  35.375   8.166   5.550
 9033POPC   PO459184  35.324   8.180   5.850
 9033POPC   GL159185  35.345   8.162   6.150
 9033POPC   GL259186  35.282   8.076   6.150
 9033POPC   C1A59187  35.317   8.195   6.450
 9033POPC   D2A59188  35.328   8.231   6.750
 9033POPC   C3A59189  35.391   8.156   7.050
 9033POPC   C4A59190  35.396   8.176   7.350
 9033POPC   C1B59191  35.291   7.920   6.450
 9033POPC   C2B59192  35.282   7.975   6.750
 9033POPC   C3B59193  35.349   7.967   7.050
 9033POPC   C4B59194  35.304   7.945   7.350
 9034POPC   NC359195  12.080  21.426   5.550
 9034POPC   PO459196  12.086  21.378   5.850
 9034POPC   GL159197  12.048  21.388   6.150
 9034POPC   GL259198  12.067  21.319   6.150
 9034POPC   C1A59199  12.074  21.404   6.450
 9034POPC   D2A59200  12.100  21.358   6.750
 9034POPC   C3A59201  12.112  21.397   7.050
 9034POPC   C4A59202  12.083  21.337   7.350
 9034POPC   C1B59203  11.974  21.160   6.450
 9034POPC   C2B59204  12.005  21.126   6.750
 9034POPC   C3B59205  11.990  21.155   7.050
 9034POPC   C4B59206  11.943  21.180   7.350
 9035POPC   NC359207  43.105   7.457   5.550
 9035POPC   PO459208  43.069   7.424   5.850
 9035POPC   GL159209  43.074   7.381   6.150
 9035POPC   GL259210  43.224   7.419   6.150
 9035POPC   C1A59211  43.093   7.444   6.450
 9035POPC   D2A59212  43.135   7.431   6.750
 9035POPC   C3A59213  43.081   7.382   7.050
 9035POPC   C4A59214  43.067   7.388   7.350
 9035POPC   C1B59215  43.394   7.469   6.450
 9035POPC   C2B59216  43.385   7.529   6.750
 9035POPC   C3B59217  43.322   7.480   7.050
 9035POPC   C4B59218  43.318   7.495   7.350
 9036POPC   NC359219  38.461  26.823   5.550
 9036POPC   PO459220  38.479  26.768   5.850
 9036POPC   GL159221  38.427  26.830   6.150
 9036POPC   GL259222  38.390  26.746   6.150
 9036POPC   C1A59223  38.431  26.841   6.450
 9036POPC   D2A59224  38.443  26.783   6.750
 9036POPC   C3A59225  38.493  26.851   7.050
 9036POPC   C4A59226  38.454  26.772   7.350
 9036POPC   C1B59227  38.344  26.571   6.450
 9036POPC   C2B59228  38.388  26.627   6.750
 9036POPC   C3B59229  38.351  26.603   7.050
 9036POPC   C4B59230  38.387  26.595   7.350
 9037POPC   NC359231  38.435  22.129   5.550
 9037POPC   PO459232  38.495  22.140   5.850
 9037POPC   GL159233  38.463  22.123   6.150
 9037POPC   GL259234  38.497  22.029   6.150
 9037POPC   C1A59235  38.462  22.197   6.450
 9037POPC   D2A59236  38.434  22.194   6.750
 9037POPC   C3A59237  38.452  22.163   7.050
 9037POPC   C4A59238  38.487  22.141   7.350
 9037POPC   C1B59239  38.453  21.928   6.450
 9037POPC   C2B59240  38.454  21.929   6.750
 9037POPC   C3B59241  38.499  21.938   7.050
 9037POPC   C4B59242  38.438  21.879   7.350
 9038POPC   NC359243  39.187  43.869   5.550
 9038POPC   PO459244  39.252  43.864   5.850
 9038POPC   GL159245  39.272  43.934   6.150
 9038POPC   GL259246  39.140  43.974   6.150
 9038POPC   C1A59247  39.246  43.905   6.450
 9038POPC   D2A59248  39.215  43.910   6.750
 9038POPC   C3A59249  39.255  43.899   7.050
 9038POPC   C4A59250  39.264  43.846   7.350
 9038POPC   C1B59251  39.178  44.074   6.450
 9038POPC   C2B59252  39.145  44.143   6.750
 9038POPC   C3B59253  39.111  44.147   7.050
 9038POPC   C4B59254  39.138  44.143   7.350
 9039POPC   NC359255  15.142  13.600   5.550
 9039POPC   PO459256  15.144  13.661   5.850
 9039POPC   GL159257  15.149  13.623   6.150
 9039POPC   GL259258  15.260  13.785   6.150
 9039POPC   C1A59259  15.149  13.584   6.450
 9039POPC   D2A59260  15.222  13.598   6.750
 9039POPC   C3A59261  15.188  13.668   7.050
 9039POPC   C4A59262  15.190  13.589   7.350
 9039POPC   C1B59263  15.244  13.837   6.450
 9039POPC   C2B59264  15.311  13.853   6.750
 9039POPC   C3B59265  15.290  13.895   7.050
 9039POPC   C4B59266  15.241  13.868   7.350
 9040POPC   NC359267  32.228   2.754   5.550
 9040POPC   PO459268  32.285   2.758   5.850
 9040POPC   GL159269  32.219   2.795   6.150
 9040POPC   GL259270  32.410   2.827   6.150
 9040POPC   C1A59271  32.211   2.734   6.450
 9040POPC   D2A59272  32.200   2.776   6.750
 9040POPC   C3A59273  32.209   2.774   7.050
 9040POPC   C4A59274  32.295   2.782   7.350
 9040POPC   C1B59275  32.486   2.820   6.450
 9040POPC   C2B59276  32.502   2.781   6.750
 9040POPC   C3B59277  32.478   2.816   7.050
 9040POPC   C4B59278  32.543   2.788   7.350
 9041POPC   NC359279  22.976  28.376   5.550
 9041POPC   PO459280  22.975  28.384   5.850
 9041POPC   GL159281  22.915  28.372   6.150
 9041POPC   GL259282  23.062  28.367   6.150
 9041POPC   C1A59283  22.947  28.346   6.450
 9041POPC   D2A59284  22.928  28.379   6.750
 9041POPC   C3A59285  22.890  28.389   7.050
 9041POPC   C4A59286  22.953  28.336   7.350
 9041POPC   C1B59287  23.182  28.336   6.450
 9041POPC   C2B59288  23.225  28.274   6.750
 9041POPC   C3B59289  23.200  28.335   7.050
 9041POPC   C4B59290  23.182  28.263   7.350
 9042POPC   NC359291  16.774   6.672   5.550
 9042POPC   PO459292  16.777   6.642   5.850
 9042POPC   GL159293  16.701   6.606   6.150
 9042POPC   GL259294  16.868   6.646   6.150
 9042POPC   C1A59295  16.776   6.651   6.450
 9042POPC   D2A59296  16.720   6.690   6.750
 9042POPC   C3A59297  16.691   6.686   7.050
 9042POPC   C4A59298  16.685   6.687   7.350
 9042POPC   C1B59299  16.945   6.605   6.450
 9042POPC   C2B59300  16.987   6.617   6.750
 9042POPC   C3B59301  16.985   6.569   7.050
 9042POPC   C4B59302  16.928   6.596   7.350
 9043POPC   NC359303  32.220  34.588   5.550
 9043POPC   PO459304  32.231  34.560   5.850
 9043POPC   GL159305  32.200  34.562   6.150
 9043POPC   GL259306  32.172  34.511   6.150
 9043POPC   C1A59307  32.230  34.625   6.450
 9043POPC   D2A59308  32.272  34.625   6.750
 9043POPC   C3A59309  32.230  34.571   7.050
 9043POPC   C4A59310  32.268  34.618   7.350
 9043POPC   C1B59311  31.973  34.449   6.450
 9043POPC   C2B59312  32.027  34.454   6.750
 9043POPC   C3B59313  31.979  34.482   7.050
 9043POPC   C4B59314  32.008  34.444   7.350
 9044POPC   NC359315  33.832  23.702   5.550
 9044POPC   PO459316  33.806  23.706   5.850
 9044POPC   GL159317  33.823  23.672   6.150
 9044POPC   GL259318  33.675  23.669   6.150
 9044POPC   C1A59319  33.792  23.667   6.450
 9044POPC   D2A59320  33.815  23.704   6.750
 9044POPC   C3A59321  33.813  23.741   7.050
 9044POPC   C4A59322  33.801  23.741   7.350
 9044POPC   C1B59323  33.580  23.570   6.450
 9044POPC   C2B59324  33.632  23.583   6.750
 9044POPC   C3B59325  33.596  23.554   7.050
 9044POPC   C4B59326  33.583  23.584   7.350
 9045POPC   NC359327  21.388  28.390   5.550
 9045POPC   PO459328  21.350  28.406   5.850
 9045POPC   GL159329  21.370  28.331   6.150
 9045POPC   GL259330  21.349  28.485   6.150
 9045POPC   C1A59331  21.359  28.395   6.450
 9045POPC   D2A59332  21.419  28.354   6.750
 9045POPC   C3A59333  21.353  28.323   7.050
 9045POPC   C4A59334  21.352  28.416   7.350
 9045POPC   C1B59335  21.225  28.517   6.450
 9045POPC   C2B59336  21.214  28.540   6.750
 9045POPC   C3B59337  21.223  28.543   7.050
 9045POPC   C4B59338  21.182  28.576   7.350
 9046POPC   NC359339  15.929  15.965   5.550
 9046POPC   PO459340  15.909  15.932   5.850
 9046POPC   GL159341  15.922  15.994   6.150
 9046POPC   GL259342  16.079  15.974   6.150
 9046POPC   C1A59343  15.965  15.929   6.450
 9046POPC   D2A59344  16.002  16.002   6.750
 9046POPC   C3A59345  15.971  15.909   7.050
 9046POPC   C4A59346  15.913  15.942   7.350
 9046POPC   C1B59347  16.231  15.920   6.450
 9046POPC   C2B59348  16.194  15.930   6.750
 9046POPC   C3B59349  16.212  15.861   7.050
 9046POPC   C4B59350  16.218  15.908   7.350
 9047POPC   NC359351   9.784  10.542   5.550
 9047POPC   PO459352   9.751  10.571   5.850
 9047POPC   GL159353   9.776  10.521   6.150
 9047POPC   GL259354   9.864  10.650   6.150
 9047POPC   C1A59355   9.761  10.482   6.450
 9047POPC   D2A59356   9.732  10.534   6.750
 9047POPC   C3A59357   9.758  10.510   7.050
 9047POPC   C4A59358   9.796  10.541   7.350
 9047POPC   C1B59359   9.901  10.703   6.450
 9047POPC   C2B59360   9.896  10.754   6.750
 9047POPC   C3B59361   9.891  10.680   7.050
 9047POPC   C4B59362   9.938  10.747   7.350
 9048POPC   NC359363  16.703  32.241   5.550
 9048POPC   PO459364  16.780  32.274   5.850
 9048POPC   GL159365  16.693  32.234   6.150
 9048POPC   GL259366  16.715  32.420   6.150
 9048POPC   C1A59367  16.746  32.245   6.450
 9048POPC   D2A59368  16.686  32.293   6.750
 9048POPC   C3A59369  16.751  32.276   7.050
 9048POPC   C4A59370  16.767  32.291   7.350
 9048POPC   C1B59371  16.713  32.461   6.450
 9048POPC   C2B59372  16.734  32.448   6.750
 9048POPC   C3B59373  16.679  32.478   7.050
 9048POPC   C4B59374  16.717  32.545   7.350
 9049POPC   NC359375   1.999   4.321   5.550
 9049POPC   PO459376   2.025   4.270   5.850
 9049POPC   GL159377   1.949   4.288   6.150
 9049POPC   GL259378   2.020   4.463   6.150
 9049POPC   C1A59379   1.952   4.345   6.450
 9049POPC   D2A59380   2.037   4.308   6.750
 9049POPC   C3A59381   1.998   4.285   7.050
 9049POPC   C4A59382   1.956   4.350   7.350
 9049POPC   C1B59383   2.106   4.544   6.450
 9049POPC   C2B59384   2.084   4.527   6.750
 9049POPC   C3B59385   2.089   4.580   7.050
 9049POPC   C4B59386   2.090   4.516   7.350
 9050POPC   NC359387  25.272  36.089   5.550
 9050POPC   PO459388  25.307  36.105   5.850
 9050POPC   GL159389  25.257  36.172   6.150
 9050POPC   GL259390  25.288  36.257   6.150
 9050POPC   C1A59391  25.257  36.121   6.450
 9050POPC   D2A59392  25.222  36.128   6.750
 9050POPC   C3A59393  25.287  36.136   7.050
 9050POPC   C4A59394  25.269  36.093   7.350
 9050POPC   C1B59395  25.339  36.312   6.450
 9050POPC   C2B59396  25.355  36.332   6.750
 9050POPC   C3B59397  25.375  36.356   7.050
 9050POPC   C4B59398  25.383  36.327   7.350
 9051POPC   NC359399  22.191  15.155   5.550
 9051POPC   PO459400  22.123  15.165   5.850
 9051POPC   GL159401  22.183  15.226   6.150
 9051POPC   GL259402  22.062  15.195   6.150
 9051POPC   C1A59403  22.123  15.145   6.450
 9051POPC   D2A59404  22.142  15.147   6.750
 9051POPC   C3A59405  22.170  15.229   7.050
 9051POPC   C4A59406  22.188  15.132   7.350
 9051POPC   C1B59407  21.936  15.161   6.450
 9051POPC   C2B59408  21.935  15.121   6.750
 9051POPC   C3B59409  21.905  15.108   7.050
 9051POPC   C4B59410  21.942  15.171   7.350
 9052POPC   NC359411  22.153  16.682   5.550
 9052POPC   PO459412  22.142  16.727   5.850
 9052POPC   GL159413  22.141  16.748   6.150
 9052POPC   GL259414  22.259  16.626   6.150
 9052POPC   C1A59415  22.190  16.718   6.450
 9052POPC   D2A59416  22.197  16.709   6.750
 9052POPC   C3A59417  22.152  16.765   7.050
 9052POPC   C4A59418  22.179  16.717   7.350
 9052POPC   C1B59419  22.347  16.547   6.450
 9052POPC   C2B59420  22.350  16.554   6.750
 9052POPC   C3B59421  22.334  16.585   7.050
 9052POPC   C4B59422  22.403  16.608   7.350
 9053POPC   NC359423  26.027  39.246   5.550
 9053POPC   PO459424  26.077  39.252   5.850
 9053POPC   GL159425  26.072  39.230   6.150
 9053POPC   GL259426  26.170  39.211   6.150
 9053POPC   C1A59427  26.023  39.216   6.450
 9053POPC   D2A59428  26.082  39.213   6.750
 9053POPC   C3A59429  26.001  39.262   7.050
 9053POPC   C4A59430  26.008  39.227   7.350
 9053POPC   C1B59431  26.247  39.282   6.450
 9053POPC   C2B59432  26.272  39.226   6.750
 9053POPC   C3B59433  26.241  39.267   7.050
 9053POPC   C4B59434  26.262  39.235   7.350
 9054POPC   NC359435  12.885  26.792   5.550
 9054POPC   PO459436  12.845  26.854   5.850
 9054POPC   GL159437  12.885  26.772   6.150
 9054POPC   GL259438  12.683  26.830   6.150
 9054POPC   C1A59439  12.837  26.807   6.450
 9054POPC   D2A59440  12.841  26.789   6.750
 9054POPC   C3A59441  12.835  26.772   7.050
 9054POPC   C4A59442  12.877  26.787   7.350
 9054POPC   C1B59443  12.622  26.838   6.450
 9054POPC   C2B59444  12.650  26.829   6.750
 9054POPC   C3B59445  12.621  26.816   7.050
 9054POPC   C4B59446  12.650  26.839   7.350
 9055POPC   NC359447  29.899  39.208   5.550
 9055POPC   PO459448  29.927  39.212   5.850
 9055POPC   GL159449  29.937  39.223   6.150
 9055POPC   GL259450  30.089  39.190   6.150
 9055POPC   C1A59451  29.946  39.186   6.450
 9055POPC   D2A59452  29.955  39.215   6.750
 9055POPC   C3A59453  29.945  39.208   7.050
 9055POPC   C4A59454  29.909  39.212   7.350
 9055POPC   C1B59455  30.125  39.153   6.450
 9055POPC   C2B59456  30.157  39.197   6.750
 9055POPC   C3B59457  30.138  39.104   7.050
 9055POPC   C4B59458  30.196  39.113   7.350
 9056POPC   NC359459  17.500   1.179   5.550
 9056POPC   PO459460  17.552   1.249   5.850
 9056POPC   GL159461  17.479   1.244   6.150
 9056POPC   GL259462  17.361   1.240   6.150
 9056POPC   C1A59463  17.499   1.214   6.450
 9056POPC   D2A59464  17.526   1.216   6.750
 9056POPC   C3A59465  17.508   1.203   7.050
 9056POPC   C4A59466  17.497   1.185   7.350
 9056POPC   C1B59467  17.267   1.344   6.450
 9056POPC   C2B59468  17.331   1.393   6.750
 9056POPC   C3B59469  17.276   1.370   7.050
 9056POPC   C4B59470  17.288   1.328   7.350
 9057POPC   NC359471  23.733  22.910   5.550
 9057POPC   PO459472  23.731  22.888   5.850
 9057POPC   GL159473  23.763  22.931   6.150
 9057POPC   GL259474  23.562  22.966   6.150
 9057POPC   C1A59475  23.721  22.954   6.450
 9057POPC   D2A59476  23.683  22.894   6.750
 9057POPC   C3A59477  23.712  22.903   7.050
 9057POPC   C4A59478  23.674  22.908   7.350
 9057POPC   C1B59479  23.496  22.943   6.450
 9057POPC   C2B59480  23.517  23.012   6.750
 9057POPC   C3B59481  23.487  22.982   7.050
 9057POPC   C4B59482  23.518  22.958   7.350
 9058POPC   NC359483  39.208  43.105   5.550
 9058POPC   PO459484  39.261  43.139   5.850
 9058POPC   GL159485  39.272  43.078   6.150
 9058POPC   GL259486  39.110  43.130   6.150
 9058POPC   C1A59487  39.269  43.115   6.450
 9058POPC   D2A59488  39.238  43.143   6.750
 9058POPC   C3A59489  39.222  43.103   7.050
 9058POPC   C4A59490  39.241  43.064   7.350
 9058POPC   C1B59491  39.013  43.174   6.450
 9058POPC   C2B59492  39.011  43.086   6.750
 9058POPC   C3B59493  38.936  43.157   7.050
 9058POPC   C4B59494  38.994  43.117   7.350
 9059POPC   NC359495  40.750   5.088   5.550
 9059POPC   PO459496  40.826   5.127   5.850
 9059POPC   GL159497  40.785   5.095   6.150
 9059POPC   GL259498  40.724   5.238   6.150
 9059POPC   C1A59499  40.778   5.091   6.450
 9059POPC   D2A59500  40.829   5.102   6.750
 9059POPC   C3A59501  40.774   5.136   7.050
 9059POPC   C4A59502  40.758   5.117   7.350
 9059POPC   C1B59503  40.709   5.324   6.450
 9059POPC   C2B59504  40.698   5.281   6.750
 9059POPC   C3B59505  40.713   5.316   7.050
 9059POPC   C4B59506  40.684   5.342   7.350
 9060POPC   NC359507  37.684   1.959   5.550
 9060POPC   PO459508  37.686   1.940   5.850
 9060POPC   GL159509  37.678   1.982   6.150
 9060POPC   GL259510  37.782   2.049   6.150
 9060POPC   C1A59511  37.720   1.978   6.450
 9060POPC   D2A59512  37.717   1.942   6.750
 9060POPC   C3A59513  37.634   2.005   7.050
 9060POPC   C4A59514  37.695   2.015   7.350
 9060POPC   C1B59515  37.842   2.142   6.450
 9060POPC   C2B59516  37.836   2.187   6.750
 9060POPC   C3B59517  37.844   2.143   7.050
 9060POPC   C4B59518  37.815   2.147   7.350
 9061POPC   NC359519   3.577  43.095   5.550
 9061POPC   PO459520   3.566  43.070   5.850
 9061POPC   GL159521   3.504  43.153   6.150
 9061POPC   GL259522   3.587  43.006   6.150
 9061POPC   C1A59523   3.498  43.107   6.450
 9061POPC   D2A59524   3.566  43.150   6.750
 9061POPC   C3A59525   3.513  43.143   7.050
 9061POPC   C4A59526   3.570  43.156   7.350
 9061POPC   C1B59527   3.516  42.816   6.450
 9061POPC   C2B59528   3.583  42.901   6.750
 9061POPC   C3B59529   3.516  42.887   7.050
 9061POPC   C4B59530   3.546  42.838   7.350
 9062POPC   NC359531  26.076  10.513   5.550
 9062POPC   PO459532  26.017  10.500   5.850
 9062POPC   GL159533  26.064  10.546   6.150
 9062POPC   GL259534  25.973  10.474   6.150
 9062POPC   C1A59535  26.020  10.522   6.450
 9062POPC   D2A59536  26.012  10.509   6.750
 9062POPC   C3A59537  26.023  10.505   7.050
 9062POPC   C4A59538  26.008  10.536   7.350
 9062POPC   C1B59539  25.802  10.364   6.450
 9062POPC   C2B59540  25.792  10.377   6.750
 9062POPC   C3B59541  25.795  10.425   7.050
 9062POPC   C4B59542  25.840  10.373   7.350
 9063POPC   NC359543  43.061  30.710   5.550
 9063POPC   PO459544  43.126  30.683   5.850
 9063POPC   GL159545  43.159  30.721   6.150
 9063POPC   GL259546  43.075  30.580   6.150
 9063POPC   C1A59547  43.086  30.664   6.450
 9063POPC   D2A59548  43.071  30.679   6.750
 9063POPC   C3A59549  43.121  30.652   7.050
 9063POPC   C4A59550  43.081  30.673   7.350
 9063POPC   C1B59551  42.997  30.445   6.450
 9063POPC   C2B59552  42.954  30.473   6.750
 9063POPC   C3B59553  42.943  30.463   7.050
 9063POPC   C4B59554  43.015  30.529   7.350
 9064POPC   NC359555  30.695  30.676   5.550
 9064POPC   PO459556  30.733  30.713   5.850
 9064POPC   GL159557  30.707  30.721   6.150
 9064POPC   GL259558  30.802  30.741   6.150
 9064POPC   C1A59559  30.669  30.693   6.450
 9064POPC   D2A59560  30.656  30.708   6.750
 9064POPC   C3A59561  30.737  30.651   7.050
 9064POPC   C4A59562  30.675  30.686   7.350
 9064POPC   C1B59563  30.940  30.798   6.450
 9064POPC   C2B59564  30.920  30.742   6.750
 9064POPC   C3B59565  30.881  30.756   7.050
 9064POPC   C4B59566  30.885  30.762   7.350
 9065POPC   NC359567   2.015  44.654   5.550
 9065POPC   PO459568   1.968  44.631   5.850
 9065POPC   GL159569   2.005  44.658   6.150
 9065POPC   GL259570   2.079  44.610   6.150
 9065POPC   C1A59571   2.016  44.621   6.450
 9065POPC   D2A59572   1.975  44.674   6.750
 9065POPC   C3A59573   1.972  44.655   7.050
 9065POPC   C4A59574   2.026  44.621   7.350
 9065POPC   C1B59575   2.150  44.520   6.450
 9065POPC   C2B59576   2.172  44.504   6.750
 9065POPC   C3B59577   2.116  44.496   7.050
 9065POPC   C4B59578   2.139  44.481   7.350
 9066POPC   NC359579  33.833  38.410   5.550
 9066POPC   PO459580  33.830  38.480   5.850
 9066POPC   GL159581  33.790  38.429   6.150
 9066POPC   GL259582  33.643  38.482   6.150
 9066POPC   C1A59583  33.790  38.490   6.450
 9066POPC   D2A59584  33.840  38.445   6.750
 9066POPC   C3A59585  33.804  38.415   7.050
 9066POPC   C4A59586  33.773  38.488   7.350
 9066POPC   C1B59587  33.551  38.557   6.450
 9066POPC   C2B59588  33.599  38.569   6.750
 9066POPC   C3B59589  33.607  38.521   7.050
 9066POPC   C4B59590  33.601  38.540   7.350
 9067POPC   NC359591  13.637  38.487   5.550
 9067POPC   PO459592  13.584  38.411   5.850
 9067POPC   GL159593  13.579  38.497   6.150
 9067POPC   GL259594  13.735  38.340   6.150
 9067POPC   C1A59595  13.606  38.484   6.450
 9067POPC   D2A59596  13.611  38.504   6.750
 9067POPC   C3A59597  13.615  38.503   7.050
 9067POPC   C4A59598  13.602  38.443   7.350
 9067POPC   C1B59599  13.746  38.315   6.450
 9067POPC   C2B59600  13.797  38.307   6.750
 9067POPC   C3B59601  13.824  38.248   7.050
 9067POPC   C4B59602  13.770  38.259   7.350
 9068POPC   NC359603  23.696  10.554   5.550
 9068POPC   PO459604  23.670  10.480   5.850
 9068POPC   GL159605  23.716  10.544   6.150
 9068POPC   GL259606  23.741  10.413   6.150
 9068POPC   C1A59607  23.676  10.516   6.450
 9068POPC   D2A59608  23.723  10.536   6.750
 9068POPC   C3A59609  23.731  10.528   7.050
 9068POPC   C4A59610  23.713  10.491   7.350
 9068POPC   C1B59611  23.740  10.258   6.450
 9068POPC   C2B59612  23.741  10.283   6.750
 9068POPC   C3B59613  23.747  10.267   7.050
 9068POPC   C4B59614  23.660  10.274   7.350
 9069POPC   NC359615  26.863   4.320   5.550
 9069POPC   PO459616  26.777   4.363   5.850
 9069POPC   GL159617  26.778   4.295   6.150
 9069POPC   GL259618  26.703   4.349   6.150
 9069POPC   C1A59619  26.784   4.297   6.450
 9069POPC   D2A59620  26.848   4.294   6.750
 9069POPC   C3A59621  26.793   4.289   7.050
 9069POPC   C4A59622  26.793   4.366   7.350
 9069POPC   C1B59623  26.604   4.340   6.450
 9069POPC   C2B59624  26.579   4.295   6.750
 9069POPC   C3B59625  26.581   4.317   7.050
 9069POPC   C4B59626  26.542   4.325   7.350
 9070POPC   NC359627  38.456   4.341   5.550
 9070POPC   PO459628  38.440   4.277   5.850
 9070POPC   GL159629  38.476   4.282   6.150
 9070POPC   GL259630  38.563   4.214   6.150
 9070POPC   C1A59631  38.440   4.301   6.450
 9070POPC   D2A59632  38.479   4.353   6.750
 9070POPC   C3A59633  38.455   4.347   7.050
 9070POPC   C4A59634  38.482   4.280   7.350
 9070POPC   C1B59635  38.690   4.129   6.450
 9070POPC   C2B59636  38.673   4.108   6.750
 9070POPC   C3B59637  38.607   4.169   7.050
 9070POPC   C4B59638  38.594   4.129   7.350
 9071POPC   NC359639   7.378  21.343   5.550
 9071POPC   PO459640   7.429  21.377   5.850
 9071POPC   GL159641   7.428  21.384   6.150
 9071POPC   GL259642   7.504  21.312   6.150
 9071POPC   C1A59643   7.464  21.402   6.450
 9071POPC   D2A59644   7.413  21.375   6.750
 9071POPC   C3A59645   7.436  21.401   7.050
 9071POPC   C4A59646   7.372  21.410   7.350
 9071POPC   C1B59647   7.644  21.246   6.450
 9071POPC   C2B59648   7.674  21.239   6.750
 9071POPC   C3B59649   7.652  21.230   7.050
 9071POPC   C4B59650   7.641  21.264   7.350
 9072POPC   NC359651   5.083  32.211   5.550
 9072POPC   PO459652   5.067  32.200   5.850
 9072POPC   GL159653   5.069  32.277   6.150
 9072POPC   GL259654   5.212  32.258   6.150
 9072POPC   C1A59655   5.104  32.254   6.450
 9072POPC   D2A59656   5.135  32.210   6.750
 9072POPC   C3A59657   5.077  32.202   7.050
 9072POPC   C4A59658   5.117  32.211   7.350
 9072POPC   C1B59659   5.383  32.257   6.450
 9072POPC   C2B59660   5.388  32.259   6.750
 9072POPC   C3B59661   5.346  32.306   7.050
 9072POPC   C4B59662   5.365  32.275   7.350
 9073POPC   NC359663  24.497   5.853   5.550
 9073POPC   PO459664  24.468   5.859   5.850
 9073POPC   GL159665  24.496   5.903   6.150
 9073POPC   GL259666  24.461   5.748   6.150
 9073POPC   C1A59667  24.501   5.820   6.450
 9073POPC   D2A59668  24.514   5.858   6.750
 9073POPC   C3A59669  24.458   5.885   7.050
 9073POPC   C4A59670  24.506   5.910   7.350
 9073POPC   C1B59671  24.369   5.602   6.450
 9073POPC   C2B59672  24.420   5.653   6.750
 9073POPC   C3B59673  24.442   5.588   7.050
 9073POPC   C4B59674  24.366   5.589   7.350
 9074POPC   NC359675  22.915   1.178   5.550
 9074POPC   PO459676  22.987   1.192   5.850
 9074POPC   GL159677  22.966   1.196   6.150
 9074POPC   GL259678  22.891   1.075   6.150
 9074POPC   C1A59679  22.972   1.234   6.450
 9074POPC   D2A59680  22.978   1.177   6.750
 9074POPC   C3A59681  22.942   1.237   7.050
 9074POPC   C4A59682  22.932   1.228   7.350
 9074POPC   C1B59683  22.816   0.934   6.450
 9074POPC   C2B59684  22.871   1.005   6.750
 9074POPC   C3B59685  22.797   1.023   7.050
 9074POPC   C4B59686  22.867   0.945   7.350
 9075POPC   NC359687   8.217  15.965   5.550
 9075POPC   PO459688   8.230  15.930   5.850
 9075POPC   GL159689   8.182  15.992   6.150
 9075POPC   GL259690   8.160  15.813   6.150
 9075POPC   C1A59691   8.200  15.980   6.450
 9075POPC   D2A59692   8.217  15.916   6.750
 9075POPC   C3A59693   8.234  15.993   7.050
 9075POPC   C4A59694   8.190  15.943   7.350
 9075POPC   C1B59695   8.157  15.690   6.450
 9075POPC   C2B59696   8.152  15.689   6.750
 9075POPC   C3B59697   8.236  15.695   7.050
 9075POPC   C4B59698   8.199  15.664   7.350
 9076POPC   NC359699  33.012  15.138   5.550
 9076POPC   PO459700  33.019  15.225   5.850
 9076POPC   GL159701  32.998  15.135   6.150
 9076POPC   GL259702  33.076  15.325   6.150
 9076POPC   C1A59703  33.038  15.162   6.450
 9076POPC   D2A59704  33.038  15.150   6.750
 9076POPC   C3A59705  33.002  15.178   7.050
 9076POPC   C4A59706  33.062  15.184   7.350
 9076POPC   C1B59707  33.168  15.431   6.450
 9076POPC   C2B59708  33.157  15.404   6.750
 9076POPC   C3B59709  33.159  15.429   7.050
 9076POPC   C4B59710  33.111  15.408   7.350
 9077POPC   NC359711  38.463  15.227   5.550
 9077POPC   PO459712  38.499  15.157   5.850
 9077POPC   GL159713  38.454  15.197   6.150
 9077POPC   GL259714  38.450  15.044   6.150
 9077POPC   C1A59715  38.447  15.137   6.450
 9077POPC   D2A59716  38.478  15.209   6.750
 9077POPC   C3A59717  38.487  15.212   7.050
 9077POPC   C4A59718  38.457  15.223   7.350
 9077POPC   C1B59719  38.378  14.942   6.450
 9077POPC   C2B59720  38.357  14.964   6.750
 9077POPC   C3B59721  38.304  14.949   7.050
 9077POPC   C4B59722  38.388  14.985   7.350
 9078POPC   NC359723   5.820  15.179   5.550
 9078POPC   PO459724   5.902  15.219   5.850
 9078POPC   GL159725   5.865  15.214   6.150
 9078POPC   GL259726   5.883  15.320   6.150
 9078POPC   C1A59727   5.831  15.201   6.450
 9078POPC   D2A59728   5.869  15.212   6.750
 9078POPC   C3A59729   5.911  15.194   7.050
 9078POPC   C4A59730   5.822  15.142   7.350
 9078POPC   C1B59731   5.921  15.407   6.450
 9078POPC   C2B59732   5.912  15.421   6.750
 9078POPC   C3B59733   5.867  15.425   7.050
 9078POPC   C4B59734   5.920  15.386   7.350
 9079POPC   NC359735  19.844  23.729   5.550
 9079POPC   PO459736  19.855  23.714   5.850
 9079POPC   GL159737  19.837  23.695   6.150
 9079POPC   GL259738  19.738  23.751   6.150
 9079POPC   C1A59739  19.799  23.735   6.450
 9079POPC   D2A59740  19.868  23.725   6.750
 9079POPC   C3A59741  19.840  23.741   7.050
 9079POPC   C4A59742  19.881  23.713   7.350
 9079POPC   C1B59743  19.583  23.781   6.450
 9079POPC   C2B59744  19.555  23.730   6.750
 9079POPC   C3B59745  19.599  23.818   7.050
 9079POPC   C4B59746  19.628  23.792   7.350
 9080POPC   NC359747  31.486  10.511   5.550
 9080POPC   PO459748  31.455  10.509   5.850
 9080POPC   GL159749  31.434  10.491   6.150
 9080POPC   GL259750  31.535  10.634   6.150
 9080POPC   C1A59751  31.499  10.484   6.450
 9080POPC   D2A59752  31.480  10.574   6.750
 9080POPC   C3A59753  31.445  10.488   7.050
 9080POPC   C4A59754  31.465  10.523   7.350
 9080POPC   C1B59755  31.517  10.746   6.450
 9080POPC   C2B59756  31.500  10.763   6.750
 9080POPC   C3B59757  31.502  10.813   7.050
 9080POPC   C4B59758  31.479  10.758   7.350
 9081POPC   NC359759  43.883  26.085   5.550
 9081POPC   PO459760  43.891  26.074   5.850
 9081POPC   GL159761  43.919  26.049   6.150
 9081POPC   GL259762  44.016  26.008   6.150
 9081POPC   C1A59763  43.916  26.053   6.450
 9081POPC   D2A59764  43.843  25.997   6.750
 9081POPC   C3A59765  43.839  26.052   7.050
 9081POPC   C4A59766  43.836  26.067   7.350
 9081POPC   C1B59767  44.133  26.018   6.450
 9081POPC   C2B59768  44.177  26.081   6.750
 9081POPC   C3B59769  44.162  26.078   7.050
 9081POPC   C4B59770  44.177  25.999   7.350
 9082POPC   NC359771  29.935  26.019   5.550
 9082POPC   PO459772  29.943  26.011   5.850
 9082POPC   GL159773  29.884  25.992   6.150
 9082POPC   GL259774  29.836  25.916   6.150
 9082POPC   C1A59775  29.927  26.036   6.450
 9082POPC   D2A59776  29.918  26.045   6.750
 9082POPC   C3A59777  29.944  26.068   7.050
 9082POPC   C4A59778  29.953  26.036   7.350
 9082POPC   C1B59779  29.726  25.910   6.450
 9082POPC   C2B59780  29.778  25.918   6.750
 9082POPC   C3B59781  29.758  25.829   7.050
 9082POPC   C4B59782  29.749  25.898   7.350
 9083POPC   NC359783  14.395   1.168   5.550
 9083POPC   PO459784  14.402   1.212   5.850
 9083POPC   GL159785  14.416   1.174   6.150
 9083POPC   GL259786  14.354   1.080   6.150
 9083POPC   C1A59787  14.378   1.220   6.450
 9083POPC   D2A59788  14.449   1.226   6.750
 9083POPC   C3A59789  14.417   1.178   7.050
 9083POPC   C4A59790  14.438   1.239   7.350
 9083POPC   C1B59791  14.209   1.037   6.450
 9083POPC   C2B59792  14.267   1.001   6.750
 9083POPC   C3B59793  14.184   0.997   7.050
 9083POPC   C4B59794  14.193   1.002   7.350
 9084POPC   NC359795  42.298  40.025   5.550
 9084POPC   PO459796  42.365  39.963   5.850
 9084POPC   GL159797  42.286  39.958   6.150
 9084POPC   GL259798  42.371  40.089   6.150
 9084POPC   C1A59799  42.362  39.968   6.450
 9084POPC   D2A59800  42.300  39.969   6.750
 9084POPC   C3A59801  42.298  39.993   7.050
 9084POPC   C4A59802  42.306  40.013   7.350
 9084POPC   C1B59803  42.477  40.231   6.450
 9084POPC   C2B59804  42.450  40.263   6.750
 9084POPC   C3B59805  42.459  40.220   7.050
 9084POPC   C4B59806  42.515  40.212   7.350
 9085POPC   NC359807  34.532  33.843   5.550
 9085POPC   PO459808  34.608  33.840   5.850
 9085POPC   GL159809  34.563  33.787   6.150
 9085POPC   GL259810  34.590  33.946   6.150
 9085POPC   C1A59811  34.603  33.802   6.450
 9085POPC   D2A59812  34.603  33.819   6.750
 9085POPC   C3A59813  34.600  33.798   7.050
 9085POPC   C4A59814  34.547  33.755   7.350
 9085POPC   C1B59815  34.534  34.071   6.450
 9085POPC   C2B59816  34.478  34.058   6.750
 9085POPC   C3B59817  34.513  34.068   7.050
 9085POPC   C4B59818  34.508  34.045   7.350
 9086POPC   NC359819   6.635  26.054   5.550
 9086POPC   PO459820   6.673  26.000   5.850
 9086POPC   GL159821   6.600  26.022   6.150
 9086POPC   GL259822   6.668  26.172   6.150
 9086POPC   C1A59823   6.655  26.087   6.450
 9086POPC   D2A59824   6.676  26.022   6.750
 9086POPC   C3A59825   6.614  26.043   7.050
 9086POPC   C4A59826   6.657  26.090   7.350
 9086POPC   C1B59827   6.631  26.330   6.450
 9086POPC   C2B59828   6.604  26.314   6.750
 9086POPC   C3B59829   6.606  26.317   7.050
 9086POPC   C4B59830   6.672  26.302   7.350
 9087POPC   NC359831  43.111  29.916   5.550
 9087POPC   PO459832  43.094  29.905   5.850
 9087POPC   GL159833  43.135  29.912   6.150
 9087POPC   GL259834  43.276  29.932   6.150
 9087POPC   C1A59835  43.061  29.913   6.450
 9087POPC   D2A59836  43.123  29.937   6.750
 9087POPC   C3A59837  43.077  29.945   7.050
 9087POPC   C4A59838  43.112  29.936   7.350
 9087POPC   C1B59839  43.372  29.888   6.450
 9087POPC   C2B59840  43.339  29.883   6.750
 9087POPC   C3B59841  43.345  29.877   7.050
 9087POPC   C4B59842  43.382  29.952   7.350
 9088POPC   NC359843  12.875  34.546   5.550
 9088POPC   PO459844  12.840  34.551   5.850
 9088POPC   GL159845  12.894  34.528   6.150
 9088POPC   GL259846  12.940  34.658   6.150
 9088POPC   C1A59847  12.897  34.533   6.450
 9088POPC   D2A59848  12.823  34.582   6.750
 9088POPC   C3A59849  12.881  34.607   7.050
 9088POPC   C4A59850  12.894  34.590   7.350
 9088POPC   C1B59851  12.930  34.844   6.450
 9088POPC   C2B59852  12.935  34.807   6.750
 9088POPC   C3B59853  12.918  34.822   7.050
 9088POPC   C4B59854  12.910  34.796   7.350
 9089POPC   NC359855  35.363  40.785   5.550
 9089POPC   PO459856  35.320  40.770   5.850
 9089POPC   GL159857  35.334  40.808   6.150
 9089POPC   GL259858  35.356  40.941   6.150
 9089POPC   C1A59859  35.346  40.820   6.450
 9089POPC   D2A59860  35.368  40.804   6.750
 9089POPC   C3A59861  35.325  40.773   7.050
 9089POPC   C4A59862  35.314  40.801   7.350
 9089POPC   C1B59863  35.361  41.010   6.450
 9089POPC   C2B59864  35.392  41.019   6.750
 9089POPC   C3B59865  35.387  41.012   7.050
 9089POPC   C4B59866  35.344  41.025   7.350
 9090POPC   NC359867  15.215  43.139   5.550
 9090POPC   PO459868  15.156  43.146   5.850
 9090POPC   GL159869  15.222  43.127   6.150
 9090POPC   GL259870  15.245  43.242   6.150
 9090POPC   C1A59871  15.171  43.115   6.450
 9090POPC   D2A59872  15.200  43.092   6.750
 9090POPC   C3A59873  15.153  43.157   7.050
 9090POPC   C4A59874  15.155  43.109   7.350
 9090POPC   C1B59875  15.344  43.277   6.450
 9090POPC   C2B59876  15.305  43.349   6.750
 9090POPC   C3B59877  15.335  43.291   7.050
 9090POPC   C4B59878  15.299  43.268   7.350
 9091POPC   NC359879  31.499  39.279   5.550
 9091POPC   PO459880  31.431  39.199   5.850
 9091POPC   GL159881  31.512  39.218   6.150
 9091POPC   GL259882  31.391  39.162   6.150
 9091POPC   C1A59883  31.441  39.226   6.450
 9091POPC   D2A59884  31.498  39.240   6.750
 9091POPC   C3A59885  31.461  39.223   7.050
 9091POPC   C4A59886  31.468  39.239   7.350
 9091POPC   C1B59887  31.210  39.126   6.450
 9091POPC   C2B59888  31.284  39.161   6.750
 9091POPC   C3B59889  31.223  39.074   7.050
 9091POPC   C4B59890  31.275  39.113   7.350
 9092POPC   NC359891  24.527  17.489   5.550
 9092POPC   PO459892  24.470  17.482   5.850
 9092POPC   GL159893  24.507  17.509   6.150
 9092POPC   GL259894  24.566  17.435   6.150
 9092POPC   C1A59895  24.521  17.463   6.450
 9092POPC   D2A59896  24.509  17.465   6.750
 9092POPC   C3A59897  24.524  17.489   7.050
 9092POPC   C4A59898  24.522  17.523   7.350
 9092POPC   C1B59899  24.678  17.295   6.450
 9092POPC   C2B59900  24.638  17.335   6.750
 9092POPC   C3B59901  24.662  17.288   7.050
 9092POPC   C4B59902  24.630  17.310   7.350
 9093POPC   NC359903   0.411  41.588   5.550
 9093POPC   PO459904   0.462  41.585   5.850
 9093POPC   GL159905   0.420  41.517   6.150
 9093POPC   GL259906   0.491  41.716   6.150
 9093POPC   C1A59907   0.480  41.582   6.450
 9093POPC   D2A59908   0.470  41.575   6.750
 9093POPC   C3A59909   0.403  41.529   7.050
 9093POPC   C4A59910   0.464  41.567   7.350
 9093POPC   C1B59911   0.553  41.767   6.450
 9093POPC   C2B59912   0.572  41.803   6.750
 9093POPC   C3B59913   0.517  41.802   7.050
 9093POPC   C4B59914   0.545  41.759   7.350
 9094POPC   NC359915  32.266  14.422   5.550
 9094POPC   PO459916  32.233  14.362   5.850
 9094POPC   GL159917  32.229  14.372   6.150
 9094POPC   GL259918  32.364  14.364   6.150
 9094POPC   C1A59919  32.261  14.355   6.450
 9094POPC   D2A59920  32.252  14.399   6.750
 9094POPC   C3A59921  32.242  14.438   7.050
 9094POPC   C4A59922  32.226  14.434   7.350
 9094POPC   C1B59923  32.498  14.338   6.450
 9094POPC   C2B59924  32.430  14.243   6.750
 9094POPC   C3B59925  32.503  14.327   7.050
 9094POPC   C4B59926  32.422  14.298   7.350
 9095POPC   NC359927   7.421  37.718   5.550
 9095POPC   PO459928   7.378  37.641   5.850
 9095POPC   GL159929   7.457  37.651   6.150
 9095POPC   GL259930   7.501  37.564   6.150
 9095POPC   C1A59931   7.470  37.630   6.450
 9095POPC   D2A59932   7.411  37.700   6.750
 9095POPC   C3A59933   7.382  37.638   7.050
 9095POPC   C4A59934   7.456  37.669   7.350
 9095POPC   C1B59935   7.538  37.422   6.450
 9095POPC   C2B59936   7.444  37.403   6.750
 9095POPC   C3B59937   7.521  37.422   7.050
 9095POPC   C4B59938   7.449  37.435   7.350
 9096POPC   NC359939  20.614  29.114   5.550
 9096POPC   PO459940  20.620  29.177   5.850
 9096POPC   GL159941  20.593  29.137   6.150
 9096POPC   GL259942  20.731  29.158   6.150
 9096POPC   C1A59943  20.656  29.143   6.450
 9096POPC   D2A59944  20.646  29.114   6.750
 9096POPC   C3A59945  20.602  29.106   7.050
 9096POPC   C4A59946  20.608  29.190   7.350
 9096POPC   C1B59947  20.807  29.229   6.450
 9096POPC   C2B59948  20.899  29.150   6.750
 9096POPC   C3B59949  20.902  29.179   7.050
 9096POPC   C4B59950  20.817  29.202   7.350
 9097POPC   NC359951  13.641  32.249   5.550
 9097POPC   PO459952  13.594  32.277   5.850
 9097POPC   GL159953  13.648  32.292   6.150
 9097POPC   GL259954  13.510  32.309   6.150
 9097POPC   C1A59955  13.657  32.210   6.450
 9097POPC   D2A59956  13.596  32.246   6.750
 9097POPC   C3A59957  13.617  32.273   7.050
 9097POPC   C4A59958  13.637  32.202   7.350
 9097POPC   C1B59959  13.407  32.326   6.450
 9097POPC   C2B59960  13.375  32.381   6.750
 9097POPC   C3B59961  13.427  32.393   7.050
 9097POPC   C4B59962  13.436  32.321   7.350
 9098POPC   NC359963   5.912   7.404   5.550
 9098POPC   PO459964   5.906   7.462   5.850
 9098POPC   GL159965   5.855   7.458   6.150
 9098POPC   GL259966   5.962   7.450   6.150
 9098POPC   C1A59967   5.905   7.411   6.450
 9098POPC   D2A59968   5.860   7.439   6.750
 9098POPC   C3A59969   5.877   7.406   7.050
 9098POPC   C4A59970   5.829   7.437   7.350
 9098POPC   C1B59971   6.114   7.563   6.450
 9098POPC   C2B59972   6.086   7.548   6.750
 9098POPC   C3B59973   6.045   7.521   7.050
 9098POPC   C4B59974   6.139   7.527   7.350
 9099POPC   NC359975  25.268  29.946   5.550
 9099POPC   PO459976  25.221  29.913   5.850
 9099POPC   GL159977  25.277  29.948   6.150
 9099POPC   GL259978  25.270  29.812   6.150
 9099POPC   C1A59979  25.293  29.882   6.450
 9099POPC   D2A59980  25.272  29.919   6.750
 9099POPC   C3A59981  25.294  29.920   7.050
 9099POPC   C4A59982  25.272  29.884   7.350
 9099POPC   C1B59983  25.264  29.655   6.450
 9099POPC   C2B59984  25.270  29.663   6.750
 9099POPC   C3B59985  25.348  29.716   7.050
 9099POPC   C4B59986  25.278  29.632   7.350
 9100POPC   NC359987  13.671   2.034   5.550
 9100POPC   PO459988  13.610   1.957   5.850
 9100POPC   GL159989  13.586   2.010   6.150
 9100POPC   GL259990  13.595   2.108   6.150
 9100POPC   C1A59991  13.674   2.003   6.450
 9100POPC   D2A59992  13.663   2.027   6.750
 9100POPC   C3A59993  13.625   1.958   7.050
 9100POPC   C4A59994  13.645   2.036   7.350
 9100POPC   C1B59995  13.580   2.250   6.450
 9100POPC   C2B59996  13.523   2.272   6.750
 9100POPC   C3B59997  13.502   2.206   7.050
 9100POPC   C4B59998  13.588   2.202   7.350
 9101POPC   NC359999  20.641  33.023   5.550
 9101POPC   PO460000  20.562  32.989   5.850
 9101POPC   GL160001  20.571  32.981   6.150
 9101POPC   GL260002  20.682  32.954   6.150
 9101POPC   C1A60003  20.582  33.045   6.450
 9101POPC   D2A60004  20.611  33.034   6.750
 9101POPC   C3A60005  20.653  33.025   7.050
 9101POPC   C4A60006  20.657  33.001   7.350
 9101POPC   C1B60007  20.693  32.834   6.450
 9101POPC   C2B60008  20.699  32.784   6.750
 9101POPC   C3B60009  20.714  32.772   7.050
 9101POPC   C4B60010  20.764  32.798   7.350
 9102POPC   NC360011  42.375  22.179   5.550
 9102POPC   PO460012  42.355  22.198   5.850
 9102POPC   GL160013  42.374  22.137   6.150
 9102POPC   GL260014  42.290  22.057   6.150
 9102POPC   C1A60015  42.352  22.144   6.450
 9102POPC   D2A60016  42.320  22.147   6.750
 9102POPC   C3A60017  42.383  22.123   7.050
 9102POPC   C4A60018  42.362  22.167   7.350
 9102POPC   C1B60019  42.214  21.975   6.450
 9102POPC   C2B60020  42.186  21.952   6.750
 9102POPC   C3B60021  42.133  22.013   7.050
 9102POPC   C4B60022  42.169  21.977   7.350
 9103POPC   NC360023  35.329  12.804   5.550
 9103POPC   PO460024  35.318  12.834   5.850
 9103POPC   GL160025  35.375  12.861   6.150
 9103POPC   GL260026  35.405  12.815   6.150
 9103POPC   C1A60027  35.330  12.835   6.450
 9103POPC   D2A60028  35.350  12.819   6.750
 9103POPC   C3A60029  35.398  12.901   7.050
 9103POPC   C4A60030  35.374  12.857   7.350
 9103POPC   C1B60031  35.530  12.719   6.450
 9103POPC   C2B60032  35.501  12.709   6.750
 9103POPC   C3B60033  35.502  12.741   7.050
 9103POPC   C4B60034  35.514  12.718   7.350
 9104POPC   NC360035  15.161  42.361   5.550
 9104POPC   PO460036  15.140  42.378   5.850
 9104POPC   GL160037  15.220  42.351   6.150
 9104POPC   GL260038  15.264  42.463   6.150
 9104POPC   C1A60039  15.150  42.355   6.450
 9104POPC   D2A60040  15.178  42.295   6.750
 9104POPC   C3A60041  15.191  42.342   7.050
 9104POPC   C4A60042  15.224  42.356   7.350
 9104POPC   C1B60043  15.321  42.511   6.450
 9104POPC   C2B60044  15.331  42.579   6.750
 9104POPC   C3B60045  15.364  42.507   7.050
 9104POPC   C4B60046  15.334  42.551   7.350
 9105POPC   NC360047  21.377  31.450   5.550
 9105POPC   PO460048  21.357  31.431   5.850
 9105POPC   GL160049  21.414  31.522   6.150
 9105POPC   GL260050  21.496  31.536   6.150
 9105POPC   C1A60051  21.354  31.437   6.450
 9105POPC   D2A60052  21.417  31.448   6.750
 9105POPC   C3A60053  21.375  31.463   7.050
 9105POPC   C4A60054  21.434  31.426   7.350
 9105POPC   C1B60055  21.624  31.648   6.450
 9105POPC   C2B60056  21.542  31.665   6.750
 9105POPC   C3B60057  21.540  31.619   7.050
 9105POPC   C4B60058  21.564  31.572   7.350
 9106POPC   NC360059  18.239  22.956   5.550
 9106POPC   PO460060  18.247  22.901   5.850
 9106POPC   GL160061  18.274  22.893   6.150
 9106POPC   GL260062  18.349  22.880   6.150
 9106POPC   C1A60063  18.235  22.907   6.450
 9106POPC   D2A60064  18.258  22.988   6.750
 9106POPC   C3A60065  18.312  22.970   7.050
 9106POPC   C4A60066  18.254  22.903   7.350
 9106POPC   C1B60067  18.480  22.725   6.450
 9106POPC   C2B60068  18.428  22.750   6.750
 9106POPC   C3B60069  18.443  22.726   7.050
 9106POPC   C4B60070  18.412  22.736   7.350
 9107POPC   NC360071  29.934  31.463   5.550
 9107POPC   PO460072  29.919  31.438   5.850
 9107POPC   GL160073  29.957  31.487   6.150
 9107POPC   GL260074  29.789  31.346   6.150
 9107POPC   C1A60075  29.885  31.502   6.450
 9107POPC   D2A60076  29.961  31.516   6.750
 9107POPC   C3A60077  29.933  31.446   7.050
 9107POPC   C4A60078  29.930  31.453   7.350
 9107POPC   C1B60079  29.773  31.245   6.450
 9107POPC   C2B60080  29.743  31.313   6.750
 9107POPC   C3B60081  29.747  31.302   7.050
 9107POPC   C4B60082  29.789  31.257   7.350
 9108POPC   NC360083  22.968  35.401   5.550
 9108POPC   PO460084  22.925  35.330   5.850
 9108POPC   GL160085  22.910  35.307   6.150
 9108POPC   GL260086  22.846  35.374   6.150
 9108POPC   C1A60087  22.899  35.302   6.450
 9108POPC   D2A60088  22.900  35.308   6.750
 9108POPC   C3A60089  22.895  35.379   7.050
 9108POPC   C4A60090  22.937  35.335   7.350
 9108POPC   C1B60091  22.686  35.440   6.450
 9108POPC   C2B60092  22.705  35.501   6.750
 9108POPC   C3B60093  22.693  35.466   7.050
 9108POPC   C4B60094  22.740  35.423   7.350
 9109POPC   NC360095  43.906  36.152   5.550
 9109POPC   PO460096  43.927  36.121   5.850
 9109POPC   GL160097  43.930  36.151   6.150
 9109POPC   GL260098  44.037  36.123   6.150
 9109POPC   C1A60099  43.891  36.176   6.450
 9109POPC   D2A60100  43.911  36.094   6.750
 9109POPC   C3A60101  43.909  36.122   7.050
 9109POPC   C4A60102  43.855  36.120   7.350
 9109POPC   C1B60103  44.102  36.138   6.450
 9109POPC   C2B60104  44.161  36.116   6.750
 9109POPC   C3B60105  44.115  36.198   7.050
 9109POPC   C4B60106  44.100  36.178   7.350
 9110POPC   NC360107   3.558  41.519   5.550
 9110POPC   PO460108   3.525  41.579   5.850
 9110POPC   GL160109   3.527  41.511   6.150
 9110POPC   GL260110   3.668  41.581   6.150
 9110POPC   C1A60111   3.531  41.555   6.450
 9110POPC   D2A60112   3.520  41.567   6.750
 9110POPC   C3A60113   3.557  41.594   7.050
 9110POPC   C4A60114   3.521  41.564   7.350
 9110POPC   C1B60115   3.829  41.529   6.450
 9110POPC   C2B60116   3.785  41.500   6.750
 9110POPC   C3B60117   3.833  41.507   7.050
 9110POPC   C4B60118   3.818  41.581   7.350
 9111POPC   NC360119  11.316  22.905   5.550
 9111POPC   PO460120  11.266  22.932   5.850
 9111POPC   GL160121  11.303  22.941   6.150
 9111POPC   GL260122  11.229  23.073   6.150
 9111POPC   C1A60123  11.331  22.898   6.450
 9111POPC   D2A60124  11.256  22.960   6.750
 9111POPC   C3A60125  11.317  22.939   7.050
 9111POPC   C4A60126  11.306  22.978   7.350
 9111POPC   C1B60127  11.153  23.172   6.450
 9111POPC   C2B60128  11.134  23.098   6.750
 9111POPC   C3B60129  11.083  23.144   7.050
 9111POPC   C4B60130  11.127  23.108   7.350
 9112POPC   NC360131  21.434   1.991   5.550
 9112POPC   PO460132  21.381   1.956   5.850
 9112POPC   GL160133  21.341   1.964   6.150
 9112POPC   GL260134  21.304   1.871   6.150
 9112POPC   C1A60135  21.340   1.993   6.450
 9112POPC   D2A60136  21.393   1.997   6.750
 9112POPC   C3A60137  21.430   2.040   7.050
 9112POPC   C4A60138  21.413   1.990   7.350
 9112POPC   C1B60139  21.344   1.744   6.450
 9112POPC   C2B60140  21.324   1.731   6.750
 9112POPC   C3B60141  21.298   1.757   7.050
 9112POPC   C4B60142  21.259   1.761   7.350
 9113POPC   NC360143  42.286  29.929   5.550
 9113POPC   PO460144  42.293  29.959   5.850
 9113POPC   GL160145  42.362  29.933   6.150
 9113POPC   GL260146  42.326  30.043   6.150
 9113POPC   C1A60147  42.290  29.899   6.450
 9113POPC   D2A60148  42.338  29.938   6.750
 9113POPC   C3A60149  42.378  29.876   7.050
 9113POPC   C4A60150  42.287  29.965   7.350
 9113POPC   C1B60151  42.422  30.187   6.450
 9113POPC   C2B60152  42.356  30.145   6.750
 9113POPC   C3B60153  42.385  30.175   7.050
 9113POPC   C4B60154  42.370  30.199   7.350
 9114POPC   NC360155  21.372  43.875   5.550
 9114POPC   PO460156  21.431  43.855   5.850
 9114POPC   GL160157  21.397  43.912   6.150
 9114POPC   GL260158  21.375  44.051   6.150
 9114POPC   C1A60159  21.374  43.838   6.450
 9114POPC   D2A60160  21.434  43.860   6.750
 9114POPC   C3A60161  21.429  43.898   7.050
 9114POPC   C4A60162  21.421  43.866   7.350
 9114POPC   C1B60163  21.351  44.103   6.450
 9114POPC   C2B60164  21.331  44.158   6.750
 9114POPC   C3B60165  21.345  44.137   7.050
 9114POPC   C4B60166  21.344  44.132   7.350
 9115POPC   NC360167  15.179  24.509   5.550
 9115POPC   PO460168  15.134  24.440   5.850
 9115POPC   GL160169  15.207  24.479   6.150
 9115POPC   GL260170  15.294  24.501   6.150
 9115POPC   C1A60171  15.134  24.492   6.450
 9115POPC   D2A60172  15.173  24.513   6.750
 9115POPC   C3A60173  15.219  24.509   7.050
 9115POPC   C4A60174  15.164  24.443   7.350
 9115POPC   C1B60175  15.383  24.526   6.450
 9115POPC   C2B60176  15.448  24.557   6.750
 9115POPC   C3B60177  15.470  24.527   7.050
 9115POPC   C4B60178  15.392  24.540   7.350
 9116POPC   NC360179  28.364  36.866   5.550
 9116POPC   PO460180  28.403  36.879   5.850
 9116POPC   GL160181  28.367  36.947   6.150
 9116POPC   GL260182  28.314  36.981   6.150
 9116POPC   C1A60183  28.330  36.915   6.450
 9116POPC   D2A60184  28.372  36.928   6.750
 9116POPC   C3A60185  28.337  36.947   7.050
 9116POPC   C4A60186  28.367  36.854   7.350
 9116POPC   C1B60187  28.188  37.135   6.450
 9116POPC   C2B60188  28.218  37.058   6.750
 9116POPC   C3B60189  28.209  37.100   7.050
 9116POPC   C4B60190  28.210  37.156   7.350
 9117POPC   NC360191   8.986  36.166   5.550
 9117POPC   PO460192   8.942  36.164   5.850
 9117POPC   GL160193   9.009  36.134   6.150
 9117POPC   GL260194   9.026  35.982   6.150
 9117POPC   C1A60195   8.954  36.082   6.450
 9117POPC   D2A60196   9.002  36.106   6.750
 9117POPC   C3A60197   8.947  36.137   7.050
 9117POPC   C4A60198   8.999  36.170   7.350
 9117POPC   C1B60199   9.105  35.856   6.450
 9117POPC   C2B60200   9.043  35.864   6.750
 9117POPC   C3B60201   9.075  35.884   7.050
 9117POPC   C4B60202   9.045  35.886   7.350
 9118POPC   NC360203  44.642   6.612   5.550
 9118POPC   PO460204  44.658   6.677   5.850
 9118POPC   GL160205  44.613   6.640   6.150
 9118POPC   GL260206  44.572   6.767   6.150
 9118POPC   C1A60207  44.680   6.622   6.450
 9118POPC   D2A60208  44.697   6.670   6.750
 9118POPC   C3A60209  44.659   6.674   7.050
 9118POPC   C4A60210  44.646   6.601   7.350
 9118POPC   C1B60211  44.497   6.800   6.450
 9118POPC   C2B60212  44.491   6.793   6.750
 9118POPC   C3B60213  44.467   6.758   7.050
 9118POPC   C4B60214  44.440   6.750   7.350
 9119POPC   NC360215   1.263  39.992   5.550
 9119POPC   PO460216   1.214  39.970   5.850
 9119POPC   GL160217   1.260  40.002   6.150
 9119POPC   GL260218   1.264  39.867   6.150
 9119POPC   C1A60219   1.174  39.968   6.450
 9119POPC   D2A60220   1.253  39.972   6.750
 9119POPC   C3A60221   1.182  40.043   7.050
 9119POPC   C4A60222   1.199  39.959   7.350
 9119POPC   C1B60223   1.322  39.763   6.450
 9119POPC   C2B60224   1.390  39.828   6.750
 9119POPC   C3B60225   1.371  39.759   7.050
 9119POPC   C4B60226   1.384  39.789   7.350
 9120POPC   NC360227  36.859   8.229   5.550
 9120POPC   PO460228  36.867   8.221   5.850
 9120POPC   GL160229  36.932   8.234   6.150
 9120POPC   GL260230  36.978   8.162   6.150
 9120POPC   C1A60231  36.918   8.227   6.450
 9120POPC   D2A60232  36.898   8.209   6.750
 9120POPC   C3A60233  36.880   8.160   7.050
 9120POPC   C4A60234  36.876   8.158   7.350
 9120POPC   C1B60235  37.099   8.058   6.450
 9120POPC   C2B60236  37.137   8.100   6.750
 9120POPC   C3B60237  37.160   8.068   7.050
 9120POPC   C4B60238  37.128   8.071   7.350
 9121POPC   NC360239  36.864  12.811   5.550
 9121POPC   PO460240  36.928  12.806   5.850
 9121POPC   GL160241  36.940  12.821   6.150
 9121POPC   GL260242  36.985  12.796   6.150
 9121POPC   C1A60243  36.952  12.886   6.450
 9121POPC   D2A60244  36.894  12.817   6.750
 9121POPC   C3A60245  36.854  12.894   7.050
 9121POPC   C4A60246  36.870  12.837   7.350
 9121POPC   C1B60247  37.097  12.723   6.450
 9121POPC   C2B60248  37.102  12.636   6.750
 9121POPC   C3B60249  37.062  12.696   7.050
 9121POPC   C4B60250  37.059  12.682   7.350
 9122POPC   NC360251   5.852  14.429   5.550
 9122POPC   PO460252   5.871  14.447   5.850
 9122POPC   GL160253   5.861  14.438   6.150
 9122POPC   GL260254   5.899  14.545   6.150
 9122POPC   C1A60255   5.887  14.421   6.450
 9122POPC   D2A60256   5.832  14.413   6.750
 9122POPC   C3A60257   5.911  14.394   7.050
 9122POPC   C4A60258   5.907  14.435   7.350
 9122POPC   C1B60259   5.971  14.659   6.450
 9122POPC   C2B60260   5.897  14.649   6.750
 9122POPC   C3B60261   5.991  14.613   7.050
 9122POPC   C4B60262   5.951  14.675   7.350
 9123POPC   NC360263  31.471   5.119   5.550
 9123POPC   PO460264  31.475   5.065   5.850
 9123POPC   GL160265  31.468   5.067   6.150
 9123POPC   GL260266  31.536   5.157   6.150
 9123POPC   C1A60267  31.424   5.088   6.450
 9123POPC   D2A60268  31.425   5.045   6.750
 9123POPC   C3A60269  31.474   5.127   7.050
 9123POPC   C4A60270  31.472   5.127   7.350
 9123POPC   C1B60271  31.585   5.297   6.450
 9123POPC   C2B60272  31.609   5.293   6.750
 9123POPC   C3B60273  31.658   5.292   7.050
 9123POPC   C4B60274  31.646   5.333   7.350
 9124POPC   NC360275  14.426  33.806   5.550
 9124POPC   PO460276  14.398  33.791   5.850
 9124POPC   GL160277  14.382  33.823   6.150
 9124POPC   GL260278  14.536  33.715   6.150
 9124POPC   C1A60279  14.381  33.833   6.450
 9124POPC   D2A60280  14.386  33.848   6.750
 9124POPC   C3A60281  14.387  33.765   7.050
 9124POPC   C4A60282  14.380  33.829   7.350
 9124POPC   C1B60283  14.622  33.634   6.450
 9124POPC   C2B60284  14.586  33.688   6.750
 9124POPC   C3B60285  14.601  33.676   7.050
 9124POPC   C4B60286  14.653  33.646   7.350
 9125POPC   NC360287  18.290  23.687   5.550
 9125POPC   PO460288  18.244  23.713   5.850
 9125POPC   GL160289  18.299  23.737   6.150
 9125POPC   GL260290  18.194  23.841   6.150
 9125POPC   C1A60291  18.252  23.749   6.450
 9125POPC   D2A60292  18.285  23.753   6.750
 9125POPC   C3A60293  18.240  23.748   7.050
 9125POPC   C4A60294  18.263  23.757   7.350
 9125POPC   C1B60295  18.158  23.950   6.450
 9125POPC   C2B60296  18.155  23.910   6.750
 9125POPC   C3B60297  18.191  23.936   7.050
 9125POPC   C4B60298  18.162  23.926   7.350
 9126POPC   NC360299   7.462   5.104   5.550
 9126POPC   PO460300   7.404   5.103   5.850
 9126POPC   GL160301   7.443   5.064   6.150
 9126POPC   GL260302   7.543   4.963   6.150
 9126POPC   C1A60303   7.443   5.110   6.450
 9126POPC   D2A60304   7.408   5.092   6.750
 9126POPC   C3A60305   7.426   5.088   7.050
 9126POPC   C4A60306   7.467   5.065   7.350
 9126POPC   C1B60307   7.570   4.876   6.450
 9126POPC   C2B60308   7.558   4.928   6.750
 9126POPC   C3B60309   7.600   4.921   7.050
 9126POPC   C4B60310   7.622   4.848   7.350
 9127POPC   NC360311  12.893  17.542   5.550
 9127POPC   PO460312  12.831  17.496   5.850
 9127POPC   GL160313  12.881  17.544   6.150
 9127POPC   GL260314  12.783  17.592   6.150
 9127POPC   C1A60315  12.837  17.545   6.450
 9127POPC   D2A60316  12.900  17.481   6.750
 9127POPC   C3A60317  12.829  17.549   7.050
 9127POPC   C4A60318  12.835  17.520   7.350
 9127POPC   C1B60319  12.701  17.651   6.450
 9127POPC   C2B60320  12.677  17.686   6.750
 9127POPC   C3B60321  12.633  17.636   7.050
 9127POPC   C4B60322  12.661  17.641   7.350
 9128POPC   NC360323  14.381   0.392   5.550
 9128POPC   PO460324  14.433   0.392   5.850
 9128POPC   GL160325  14.402   0.396   6.150
 9128POPC   GL260326  14.361   0.514   6.150
 9128POPC   C1A60327  14.434   0.414   6.450
 9128POPC   D2A60328  14.392   0.431   6.750
 9128POPC   C3A60329  14.410   0.430   7.050
 9128POPC   C4A60330  14.412   0.468   7.350
 9128POPC   C1B60331  14.321   0.661   6.450
 9128POPC   C2B60332  14.342   0.628   6.750
 9128POPC   C3B60333  14.305   0.657   7.050
 9128POPC   C4B60334  14.267   0.662   7.350
 9129POPC   NC360335  40.034  29.914   5.550
 9129POPC   PO460336  40.018  29.873   5.850
 9129POPC   GL160337  40.015  29.943   6.150
 9129POPC   GL260338  40.039  29.777   6.150
 9129POPC   C1A60339  40.001  29.910   6.450
 9129POPC   D2A60340  40.004  29.961   6.750
 9129POPC   C3A60341  39.971  29.881   7.050
 9129POPC   C4A60342  40.003  29.901   7.350
 9129POPC   C1B60343  40.035  29.680   6.450
 9129POPC   C2B60344  40.036  29.629   6.750
 9129POPC   C3B60345  40.051  29.627   7.050
 9129POPC   C4B60346  40.049  29.661   7.350
 9130POPC   NC360347  29.124   9.776   5.550
 9130POPC   PO460348  29.147   9.715   5.850
 9130POPC   GL160349  29.149   9.728   6.150
 9130POPC   GL260350  29.220   9.738   6.150
 9130POPC   C1A60351  29.166   9.747   6.450
 9130POPC   D2A60352  29.179   9.783   6.750
 9130POPC   C3A60353  29.176   9.778   7.050
 9130POPC   C4A60354  29.185   9.779   7.350
 9130POPC   C1B60355  29.385   9.720   6.450
 9130POPC   C2B60356  29.439   9.724   6.750
 9130POPC   C3B60357  29.432   9.790   7.050
 9130POPC   C4B60358  29.387   9.720   7.350
 9131POPC   NC360359  20.595  15.992   5.550
 9131POPC   PO460360  20.572  15.949   5.850
 9131POPC   GL160361  20.632  15.994   6.150
 9131POPC   GL260362  20.518  15.873   6.150
 9131POPC   C1A60363  20.608  15.967   6.450
 9131POPC   D2A60364  20.657  15.906   6.750
 9131POPC   C3A60365  20.561  15.939   7.050
 9131POPC   C4A60366  20.617  15.957   7.350
 9131POPC   C1B60367  20.459  15.777   6.450
 9131POPC   C2B60368  20.470  15.718   6.750
 9131POPC   C3B60369  20.419  15.756   7.050
 9131POPC   C4B60370  20.474  15.740   7.350
 9132POPC   NC360371  22.980  33.782   5.550
 9132POPC   PO460372  22.930  33.782   5.850
 9132POPC   GL160373  22.959  33.804   6.150
 9132POPC   GL260374  23.004  33.862   6.150
 9132POPC   C1A60375  22.915  33.795   6.450
 9132POPC   D2A60376  22.893  33.752   6.750
 9132POPC   C3A60377  22.935  33.759   7.050
 9132POPC   C4A60378  22.918  33.783   7.350
 9132POPC   C1B60379  23.055  34.020   6.450
 9132POPC   C2B60380  23.138  33.995   6.750
 9132POPC   C3B60381  23.129  34.000   7.050
 9132POPC   C4B60382  23.076  33.988   7.350
 9133POPC   NC360383  37.714   5.878   5.550
 9133POPC   PO460384  37.674   5.843   5.850
 9133POPC   GL160385  37.652   5.837   6.150
 9133POPC   GL260386  37.557   5.830   6.150
 9133POPC   C1A60387  37.687   5.912   6.450
 9133POPC   D2A60388  37.701   5.873   6.750
 9133POPC   C3A60389  37.679   5.875   7.050
 9133POPC   C4A60390  37.706   5.872   7.350
 9133POPC   C1B60391  37.471   5.833   6.450
 9133POPC   C2B60392  37.475   5.811   6.750
 9133POPC   C3B60393  37.475   5.868   7.050
 9133POPC   C4B60394  37.473   5.881   7.350
 9134POPC   NC360395   7.448  12.033   5.550
 9134POPC   PO460396   7.451  12.093   5.850
 9134POPC   GL160397   7.408  12.070   6.150
 9134POPC   GL260398   7.432  11.912   6.150
 9134POPC   C1A60399   7.407  12.038   6.450
 9134POPC   D2A60400   7.411  12.052   6.750
 9134POPC   C3A60401   7.440  12.081   7.050
 9134POPC   C4A60402   7.383  12.049   7.350
 9134POPC   C1B60403   7.407  11.791   6.450
 9134POPC   C2B60404   7.366  11.853   6.750
 9134POPC   C3B60405   7.450  11.785   7.050
 9134POPC   C4B60406   7.401  11.787   7.350
 9135POPC   NC360407   5.123   1.260   5.550
 9135POPC   PO460408   5.109   1.210   5.850
 9135POPC   GL160409   5.125   1.213   6.150
 9135POPC   GL260410   4.958   1.174   6.150
 9135POPC   C1A60411   5.068   1.253   6.450
 9135POPC   D2A60412   5.117   1.184   6.750
 9135POPC   C3A60413   5.093   1.257   7.050
 9135POPC   C4A60414   5.064   1.243   7.350
 9135POPC   C1B60415   4.907   1.034   6.450
 9135POPC   C2B60416   4.899   1.089   6.750
 9135POPC   C3B60417   4.875   1.113   7.050
 9135POPC   C4B60418   4.927   1.110   7.350
 9136POPC   NC360419   7.455   6.635   5.550
 9136POPC   PO460420   7.438   6.643   5.850
 9136POPC   GL160421   7.417   6.670   6.150
 9136POPC   GL260422   7.343   6.701   6.150
 9136POPC   C1A60423   7.458   6.692   6.450
 9136POPC   D2A60424   7.456   6.688   6.750
 9136POPC   C3A60425   7.426   6.679   7.050
 9136POPC   C4A60426   7.422   6.685   7.350
 9136POPC   C1B60427   7.209   6.785   6.450
 9136POPC   C2B60428   7.229   6.748   6.750
 9136POPC   C3B60429   7.232   6.728   7.050
 9136POPC   C4B60430   7.176   6.721   7.350
 9137POPC   NC360431  24.520  21.349   5.550
 9137POPC   PO460432  24.538  21.342   5.850
 9137POPC   GL160433  24.530  21.393   6.150
 9137POPC   GL260434  24.408  21.477   6.150
 9137POPC   C1A60435  24.523  21.366   6.450
 9137POPC   D2A60436  24.480  21.421   6.750
 9137POPC   C3A60437  24.491  21.427   7.050
 9137POPC   C4A60438  24.501  21.400   7.350
 9137POPC   C1B60439  24.333  21.638   6.450
 9137POPC   C2B60440  24.327  21.583   6.750
 9137POPC   C3B60441  24.357  21.586   7.050
 9137POPC   C4B60442  24.379  21.642   7.350
 9138POPC   NC360443  42.331  12.102   5.550
 9138POPC   PO460444  42.290  12.053   5.850
 9138POPC   GL160445  42.335  12.049   6.150
 9138POPC   GL260446  42.235  12.128   6.150
 9138POPC   C1A60447  42.323  12.118   6.450
 9138POPC   D2A60448  42.358  12.104   6.750
 9138POPC   C3A60449  42.304  12.049   7.050
 9138POPC   C4A60450  42.337  12.087   7.350
 9138POPC   C1B60451  42.111  12.281   6.450
 9138POPC   C2B60452  42.182  12.217   6.750
 9138POPC   C3B60453  42.152  12.246   7.050
 9138POPC   C4B60454  42.179  12.197   7.350
 9139POPC   NC360455  14.376  11.344   5.550
 9139POPC   PO460456  14.412  11.340   5.850
 9139POPC   GL160457  14.357  11.299   6.150
 9139POPC   GL260458  14.342  11.246   6.150
 9139POPC   C1A60459  14.442  11.282   6.450
 9139POPC   D2A60460  14.423  11.345   6.750
 9139POPC   C3A60461  14.388  11.341   7.050
 9139POPC   C4A60462  14.355  11.340   7.350
 9139POPC   C1B60463  14.290  11.104   6.450
 9139POPC   C2B60464  14.284  11.114   6.750
 9139POPC   C3B60465  14.266  11.060   7.050
 9139POPC   C4B60466  14.255  11.097   7.350
 9140POPC   NC360467  44.663   1.257   5.550
 9140POPC   PO460468  44.698   1.256   5.850
 9140POPC   GL160469  44.698   1.212   6.150
 9140POPC   GL260470  44.525   1.210   6.150
 9140POPC   C1A60471  44.664   1.261   6.450
 9140POPC   D2A60472  44.704   1.217   6.750
 9140POPC   C3A60473  44.666   1.253   7.050
 9140POPC   C4A60474  44.661   1.185   7.350
 9140POPC   C1B60475  44.384   1.201   6.450
 9140POPC   C2B60476  44.382   1.212   6.750
 9140POPC   C3B60477  44.428   1.228   7.050
 9140POPC   C4B60478  44.379   1.216   7.350
 9141POPC   NC360479   2.011  18.257   5.550
 9141POPC   PO460480   1.956  18.237   5.850
 9141POPC   GL160481   1.956  18.234   6.150
 9141POPC   GL260482   1.890  18.402   6.150
 9141POPC   C1A60483   2.022  18.323   6.450
 9141POPC   D2A60484   1.987  18.262   6.750
 9141POPC   C3A60485   1.961  18.264   7.050
 9141POPC   C4A60486   1.995  18.237   7.350
 9141POPC   C1B60487   1.849  18.444   6.450
 9141POPC   C2B60488   1.791  18.522   6.750
 9141POPC   C3B60489   1.819  18.529   7.050
 9141POPC   C4B60490   1.865  18.454   7.350
 9142POPC   NC360491  21.410   3.526   5.550
 9142POPC   PO460492  21.392   3.499   5.850
 9142POPC   GL160493  21.403   3.528   6.150
 9142POPC   GL260494  21.358   3.662   6.150
 9142POPC   C1A60495  21.403   3.535   6.450
 9142POPC   D2A60496  21.368   3.531   6.750
 9142POPC   C3A60497  21.399   3.510   7.050
 9142POPC   C4A60498  21.404   3.520   7.350
 9142POPC   C1B60499  21.316   3.805   6.450
 9142POPC   C2B60500  21.348   3.765   6.750
 9142POPC   C3B60501  21.339   3.760   7.050
 9142POPC   C4B60502  21.316   3.808   7.350
 9143POPC   NC360503  23.737  33.781   5.550
 9143POPC   PO460504  23.737  33.844   5.850
 9143POPC   GL160505  23.738  33.814   6.150
 9143POPC   GL260506  23.785  33.654   6.150
 9143POPC   C1A60507  23.674  33.800   6.450
 9143POPC   D2A60508  23.746  33.794   6.750
 9143POPC   C3A60509  23.693  33.786   7.050
 9143POPC   C4A60510  23.678  33.771   7.350
 9143POPC   C1B60511  23.817  33.553   6.450
 9143POPC   C2B60512  23.867  33.583   6.750
 9143POPC   C3B60513  23.888  33.574   7.050
 9143POPC   C4B60514  23.881  33.568   7.350
 9144POPC   NC360515  26.087  33.818   5.550
 9144POPC   PO460516  26.037  33.850   5.850
 9144POPC   GL160517  26.090  33.754   6.150
 9144POPC   GL260518  25.921  33.707   6.150
 9144POPC   C1A60519  26.041  33.826   6.450
 9144POPC   D2A60520  26.021  33.775   6.750
 9144POPC   C3A60521  26.064  33.784   7.050
 9144POPC   C4A60522  25.997  33.769   7.350
 9144POPC   C1B60523  25.862  33.589   6.450
 9144POPC   C2B60524  25.877  33.592   6.750
 9144POPC   C3B60525  25.843  33.653   7.050
 9144POPC   C4B60526  25.856  33.622   7.350
 9145POPC   NC360527  33.024  14.403   5.550
 9145POPC   PO460528  33.033  14.382   5.850
 9145POPC   GL160529  33.011  14.382   6.150
 9145POPC   GL260530  33.159  14.279   6.150
 9145POPC   C1A60531  33.010  14.434   6.450
 9145POPC   D2A60532  33.055  14.453   6.750
 9145POPC   C3A60533  33.035  14.438   7.050
 9145POPC   C4A60534  32.996  14.400   7.350
 9145POPC   C1B60535  33.242  14.217   6.450
 9145POPC   C2B60536  33.226  14.203   6.750
 9145POPC   C3B60537  33.182  14.209   7.050
 9145POPC   C4B60538  33.224  14.246   7.350
 9146POPC   NC360539   8.177  32.272   5.550
 9146POPC   PO460540   8.189  32.215   5.850
 9146POPC   GL160541   8.157  32.211   6.150
 9146POPC   GL260542   8.358  32.212   6.150
 9146POPC   C1A60543   8.191  32.295   6.450
 9146POPC   D2A60544   8.191  32.202   6.750
 9146POPC   C3A60545   8.188  32.254   7.050
 9146POPC   C4A60546   8.237  32.253   7.350
 9146POPC   C1B60547   8.436  32.099   6.450
 9146POPC   C2B60548   8.417  32.143   6.750
 9146POPC   C3B60549   8.382  32.114   7.050
 9146POPC   C4B60550   8.440  32.104   7.350
 9147POPC   NC360551  24.459   3.554   5.550
 9147POPC   PO460552  24.442   3.525   5.850
 9147POPC   GL160553  24.525   3.573   6.150
 9147POPC   GL260554  24.423   3.450   6.150
 9147POPC   C1A60555  24.475   3.559   6.450
 9147POPC   D2A60556  24.513   3.549   6.750
 9147POPC   C3A60557  24.496   3.538   7.050
 9147POPC   C4A60558  24.452   3.506   7.350
 9147POPC   C1B60559  24.427   3.302   6.450
 9147POPC   C2B60560  24.479   3.263   6.750
 9147POPC   C3B60561  24.409   3.314   7.050
 9147POPC   C4B60562  24.390   3.293   7.350
 9148POPC   NC360563  40.778  16.696   5.550
 9148POPC   PO460564  40.831  16.714   5.850
 9148POPC   GL160565  40.792  16.736   6.150
 9148POPC   GL260566  40.915  16.763   6.150
 9148POPC   C1A60567  40.818  16.716   6.450
 9148POPC   D2A60568  40.761  16.753   6.750
 9148POPC   C3A60569  40.749  16.776   7.050
 9148POPC   C4A60570  40.776  16.720   7.350
 9148POPC   C1B60571  41.029  16.851   6.450
 9148POPC   C2B60572  41.024  16.881   6.750
 9148POPC   C3B60573  41.033  16.882   7.050
 9148POPC   C4B60574  40.992  16.853   7.350
 9149POPC   NC360575  29.188  43.108   5.550
 9149POPC   PO460576  29.097  43.149   5.850
 9149POPC   GL160577  29.167  43.134   6.150
 9149POPC   GL260578  29.216  43.029   6.150
 9149POPC   C1A60579  29.129  43.062   6.450
 9149POPC   D2A60580  29.153  43.085   6.750
 9149POPC   C3A60581  29.157  43.075   7.050
 9149POPC   C4A60582  29.125  43.071   7.350
 9149POPC   C1B60583  29.345  42.917   6.450
 9149POPC   C2B60584  29.320  42.906   6.750
 9149POPC   C3B60585  29.361  42.908   7.050
 9149POPC   C4B60586  29.316  42.970   7.350
 9150POPC   NC360587  20.632  26.066   5.550
 9150POPC   PO460588  20.655  26.034   5.850
 9150POPC   GL160589  20.628  26.020   6.150
 9150POPC   GL260590  20.567  26.204   6.150
 9150POPC   C1A60591  20.638  26.091   6.450
 9150POPC   D2A60592  20.573  25.997   6.750
 9150POPC   C3A60593  20.644  26.027   7.050
 9150POPC   C4A60594  20.609  26.011   7.350
 9150POPC   C1B60595  20.480  26.242   6.450
 9150POPC   C2B60596  20.473  26.222   6.750
 9150POPC   C3B60597  20.543  26.286   7.050
 9150POPC   C4B60598  20.562  26.306   7.350
 9151POPC   NC360599  21.391  21.426   5.550
 9151POPC   PO460600  21.362  21.413   5.850
 9151POPC   GL160601  21.389  21.346   6.150
 9151POPC   GL260602  21.380  21.247   6.150
 9151POPC   C1A60603  21.434  21.356   6.450
 9151POPC   D2A60604  21.354  21.352   6.750
 9151POPC   C3A60605  21.402  21.337   7.050
 9151POPC   C4A60606  21.426  21.393   7.350
 9151POPC   C1B60607  21.303  21.118   6.450
 9151POPC   C2B60608  21.368  21.092   6.750
 9151POPC   C3B60609  21.303  21.119   7.050
 9151POPC   C4B60610  21.382  21.094   7.350
 9152POPC   NC360611  18.246  14.429   5.550
 9152POPC   PO460612  18.237  14.435   5.850
 9152POPC   GL160613  18.308  14.368   6.150
 9152POPC   GL260614  18.146  14.397   6.150
 9152POPC   C1A60615  18.245  14.354   6.450
 9152POPC   D2A60616  18.279  14.389   6.750
 9152POPC   C3A60617  18.270  14.429   7.050
 9152POPC   C4A60618  18.239  14.413   7.350
 9152POPC   C1B60619  18.059  14.295   6.450
 9152POPC   C2B60620  18.025  14.304   6.750
 9152POPC   C3B60621  18.011  14.270   7.050
 9152POPC   C4B60622  18.079  14.313   7.350
 9153POPC   NC360623   5.089   2.729   5.550
 9153POPC   PO460624   5.142   2.767   5.850
 9153POPC   GL160625   5.045   2.731   6.150
 9153POPC   GL260626   5.125   2.864   6.150
 9153POPC   C1A60627   5.051   2.782   6.450
 9153POPC   D2A60628   5.048   2.725   6.750
 9153POPC   C3A60629   5.076   2.751   7.050
 9153POPC   C4A60630   5.096   2.724   7.350
 9153POPC   C1B60631   5.106   3.008   6.450
 9153POPC   C2B60632   5.141   3.016   6.750
 9153POPC   C3B60633   5.149   3.020   7.050
 9153POPC   C4B60634   5.132   3.029   7.350
 9154POPC   NC360635  24.441  27.579   5.550
 9154POPC   PO460636  24.507  27.604   5.850
 9154POPC   GL160637  24.533  27.631   6.150
 9154POPC   GL260638  24.479  27.730   6.150
 9154POPC   C1A60639  24.529  27.549   6.450
 9154POPC   D2A60640  24.534  27.583   6.750
 9154POPC   C3A60641  24.527  27.545   7.050
 9154POPC   C4A60642  24.487  27.565   7.350
 9154POPC   C1B60643  24.409  27.779   6.450
 9154POPC   C2B60644  24.401  27.867   6.750
 9154POPC   C3B60645  24.368  27.819   7.050
 9154POPC   C4B60646  24.430  27.786   7.350
 9155POPC   NC360647  44.677  19.049   5.550
 9155POPC   PO460648  44.653  19.077   5.850
 9155POPC   GL160649  44.711  19.080   6.150
 9155POPC   GL260650  44.697  19.194   6.150
 9155POPC   C1A60651  44.613  19.072   6.450
 9155POPC   D2A60652  44.631  19.080   6.750
 9155POPC   C3A60653  44.685  19.079   7.050
 9155POPC   C4A60654  44.701  19.049   7.350
 9155POPC   C1B60655  44.762  19.281   6.450
 9155POPC   C2B60656  44.761  19.297   6.750
 9155POPC   C3B60657  44.855  19.304   7.050
 9155POPC   C4B60658  44.782  19.299   7.350
 9156POPC   NC360659  43.891  19.814   5.550
 9156POPC   PO460660  43.892  19.866   5.850
 9156POPC   GL160661  43.892  19.787   6.150
 9156POPC   GL260662  44.047  19.916   6.150
 9156POPC   C1A60663  43.911  19.788   6.450
 9156POPC   D2A60664  43.881  19.857   6.750
 9156POPC   C3A60665  43.850  19.818   7.050
 9156POPC   C4A60666  43.869  19.790   7.350
 9156POPC   C1B60667  44.062  19.955   6.450
 9156POPC   C2B60668  44.091  19.990   6.750
 9156POPC   C3B60669  44.076  19.990   7.050
 9156POPC   C4B60670  44.097  19.966   7.350
 9157POPC   NC360671  44.674  29.915   5.550
 9157POPC   PO460672  44.654  29.953   5.850
 9157POPC   GL160673  44.710  29.883   6.150
 9157POPC   GL260674  44.763  29.823   6.150
 9157POPC   C1A60675  44.633  29.959   6.450
 9157POPC   D2A60676  44.707  29.893   6.750
 9157POPC   C3A60677  44.677  29.961   7.050
 9157POPC   C4A60678  44.648  29.893   7.350
 9157POPC   C1B60679  44.778  29.651   6.450
 9157POPC   C2B60680  44.738  29.688   6.750
 9157POPC   C3B60681  44.772  29.696   7.050
 9157POPC   C4B60682  44.738  29.743   7.350
 9158POPC   NC360683  44.646  43.854   5.550
 9158POPC   PO460684  44.612  43.935   5.850
 9158POPC   GL160685  44.628  43.924   6.150
 9158POPC   GL260686  44.632  43.797   6.150
 9158POPC   C1A60687  44.674  43.889   6.450
 9158POPC   D2A60688  44.651  43.913   6.750
 9158POPC   C3A60689  44.708  43.848   7.050
 9158POPC   C4A60690  44.616  43.901   7.350
 9158POPC   C1B60691  44.508  43.643   6.450
 9158POPC   C2B60692  44.568  43.699   6.750
 9158POPC   C3B60693  44.539  43.655   7.050
 9158POPC   C4B60694  44.480  43.640   7.350
 9159POPC   NC360695  10.495  32.284   5.550
 9159POPC   PO460696  10.548  32.263   5.850
 9159POPC   GL160697  10.525  32.237   6.150
 9159POPC   GL260698  10.417  32.240   6.150
 9159POPC   C1A60699  10.500  32.272   6.450
 9159POPC   D2A60700  10.514  32.228   6.750
 9159POPC   C3A60701  10.485  32.206   7.050
 9159POPC   C4A60702  10.533  32.226   7.350
 9159POPC   C1B60703  10.316  32.113   6.450
 9159POPC   C2B60704  10.349  32.151   6.750
 9159POPC   C3B60705  10.342  32.116   7.050
 9159POPC   C4B60706  10.309  32.118   7.350
 9160POPC   NC360707  19.806  22.983   5.550
 9160POPC   PO460708  19.875  22.973   5.850
 9160POPC   GL160709  19.812  22.937   6.150
 9160POPC   GL260710  19.691  22.999   6.150
 9160POPC   C1A60711  19.866  22.925   6.450
 9160POPC   D2A60712  19.831  22.969   6.750
 9160POPC   C3A60713  19.855  22.988   7.050
 9160POPC   C4A60714  19.861  22.909   7.350
 9160POPC   C1B60715  19.640  22.966   6.450
 9160POPC   C2B60716  19.570  22.972   6.750
 9160POPC   C3B60717  19.563  22.954   7.050
 9160POPC   C4B60718  19.620  23.025   7.350
 9161POPC   NC360719  37.694  15.984   5.550
 9161POPC   PO460720  37.669  15.964   5.850
 9161POPC   GL160721  37.676  15.999   6.150
 9161POPC   GL260722  37.585  15.888   6.150
 9161POPC   C1A60723  37.688  15.953   6.450
 9161POPC   D2A60724  37.709  15.992   6.750
 9161POPC   C3A60725  37.700  15.960   7.050
 9161POPC   C4A60726  37.679  15.956   7.350
 9161POPC   C1B60727  37.525  15.780   6.450
 9161POPC   C2B60728  37.590  15.726   6.750
 9161POPC   C3B60729  37.547  15.740   7.050
 9161POPC   C4B60730  37.516  15.700   7.350
 9162POPC   NC360731  33.043  22.122   5.550
 9162POPC   PO460732  33.048  22.157   5.850
 9162POPC   GL160733  33.007  22.165   6.150
 9162POPC   GL260734  32.960  22.310   6.150
 9162POPC   C1A60735  33.061  22.206   6.450
 9162POPC   D2A60736  33.060  22.172   6.750
 9162POPC   C3A60737  33.034  22.129   7.050
 9162POPC   C4A60738  33.031  22.203   7.350
 9162POPC   C1B60739  32.969  22.345   6.450
 9162POPC   C2B60740  32.909  22.429   6.750
 9162POPC   C3B60741  32.884  22.423   7.050
 9162POPC   C4B60742  32.971  22.435   7.350
 9163POPC   NC360743  36.914  15.974   5.550
 9163POPC   PO460744  36.858  15.927   5.850
 9163POPC   GL160745  36.886  15.919   6.150
 9163POPC   GL260746  36.934  16.049   6.150
 9163POPC   C1A60747  36.878  15.921   6.450
 9163POPC   D2A60748  36.891  15.947   6.750
 9163POPC   C3A60749  36.902  15.981   7.050
 9163POPC   C4A60750  36.886  15.910   7.350
 9163POPC   C1B60751  36.909  16.180   6.450
 9163POPC   C2B60752  36.893  16.214   6.750
 9163POPC   C3B60753  36.922  16.210   7.050
 9163POPC   C4B60754  36.853  16.231   7.350
 9164POPC   NC360755  25.256   3.549   5.550
 9164POPC   PO460756  25.279   3.589   5.850
 9164POPC   GL160757  25.302   3.563   6.150
 9164POPC   GL260758  25.110   3.589   6.150
 9164POPC   C1A60759  25.305   3.528   6.450
 9164POPC   D2A60760  25.274   3.560   6.750
 9164POPC   C3A60761  25.265   3.572   7.050
 9164POPC   C4A60762  25.263   3.498   7.350
 9164POPC   C1B60763  25.053   3.682   6.450
 9164POPC   C2B60764  25.003   3.688   6.750
 9164POPC   C3B60765  25.054   3.695   7.050
 9164POPC   C4B60766  25.041   3.660   7.350
 9165POPC   NC360767   5.874  41.575   5.550
 9165POPC   PO460768   5.819  41.602   5.850
 9165POPC   GL160769   5.883  41.511   6.150
 9165POPC   GL260770   5.879  41.443   6.150
 9165POPC   C1A60771   5.896  41.601   6.450
 9165POPC   D2A60772   5.905  41.576   6.750
 9165POPC   C3A60773   5.856  41.519   7.050
 9165POPC   C4A60774   5.883  41.523   7.350
 9165POPC   C1B60775   5.839  41.351   6.450
 9165POPC   C2B60776   5.901  41.319   6.750
 9165POPC   C3B60777   5.869  41.341   7.050
 9165POPC   C4B60778   5.823  41.338   7.350
 9166POPC   NC360779   3.504  30.655   5.550
 9166POPC   PO460780   3.539  30.677   5.850
 9166POPC   GL160781   3.585  30.704   6.150
 9166POPC   GL260782   3.453  30.572   6.150
 9166POPC   C1A60783   3.507  30.704   6.450
 9166POPC   D2A60784   3.576  30.650   6.750
 9166POPC   C3A60785   3.540  30.694   7.050
 9166POPC   C4A60786   3.540  30.717   7.350
 9166POPC   C1B60787   3.291  30.541   6.450
 9166POPC   C2B60788   3.360  30.565   6.750
 9166POPC   C3B60789   3.360  30.585   7.050
 9166POPC   C4B60790   3.311  30.508   7.350
 9167POPC   NC360791  41.553   7.428   5.550
 9167POPC   PO460792  41.603   7.460   5.850
 9167POPC   GL160793  41.607   7.439   6.150
 9167POPC   GL260794  41.475   7.310   6.150
 9167POPC   C1A60795  41.558   7.433   6.450
 9167POPC   D2A60796  41.527   7.404   6.750
 9167POPC   C3A60797  41.560   7.390   7.050
 9167POPC   C4A60798  41.582   7.415   7.350
 9167POPC   C1B60799  41.426   7.250   6.450
 9167POPC   C2B60800  41.451   7.172   6.750
 9167POPC   C3B60801  41.385   7.257   7.050
 9167POPC   C4B60802  41.413   7.255   7.350
 9168POPC   NC360803  12.082  25.297   5.550
 9168POPC   PO460804  12.069  25.280   5.850
 9168POPC   GL160805  12.067  25.229   6.150
 9168POPC   GL260806  12.077  25.179   6.150
 9168POPC   C1A60807  12.085  25.221   6.450
 9168POPC   D2A60808  12.072  25.244   6.750
 9168POPC   C3A60809  12.120  25.259   7.050
 9168POPC   C4A60810  12.065  25.312   7.350
 9168POPC   C1B60811  12.176  24.985   6.450
 9168POPC   C2B60812  12.184  25.018   6.750
 9168POPC   C3B60813  12.130  25.051   7.050
 9168POPC   C4B60814  12.103  25.002   7.350
 9169POPC   NC360815  37.637  22.938   5.550
 9169POPC   PO460816  37.681  22.967   5.850
 9169POPC   GL160817  37.652  22.947   6.150
 9169POPC   GL260818  37.782  22.846   6.150
 9169POPC   C1A60819  37.632  22.899   6.450
 9169POPC   D2A60820  37.720  22.923   6.750
 9169POPC   C3A60821  37.650  22.890   7.050
 9169POPC   C4A60822  37.700  22.930   7.350
 9169POPC   C1B60823  37.814  22.675   6.450
 9169POPC   C2B60824  37.770  22.696   6.750
 9169POPC   C3B60825  37.805  22.736   7.050
 9169POPC   C4B60826  37.745  22.695   7.350
 9170POPC   NC360827   6.631  35.311   5.550
 9170POPC   PO460828   6.692  35.334   5.850
 9170POPC   GL160829   6.653  35.305   6.150
 9170POPC   GL260830   6.758  35.369   6.150
 9170POPC   C1A60831   6.689  35.359   6.450
 9170POPC   D2A60832   6.646  35.304   6.750
 9170POPC   C3A60833   6.669  35.304   7.050
 9170POPC   C4A60834   6.673  35.351   7.350
 9170POPC   C1B60835   6.918  35.405   6.450
 9170POPC   C2B60836   6.887  35.410   6.750
 9170POPC   C3B60837   6.884  35.384   7.050
 9170POPC   C4B60838   6.900  35.408   7.350
 9171POPC   NC360839  37.645   8.175   5.550
 9171POPC   PO460840  37.631   8.229   5.850
 9171POPC   GL160841  37.723   8.175   6.150
 9171POPC   GL260842  37.600   8.193   6.150
 9171POPC   C1A60843  37.683   8.238   6.450
 9171POPC   D2A60844  37.727   8.214   6.750
 9171POPC   C3A60845  37.706   8.213   7.050
 9171POPC   C4A60846  37.633   8.148   7.350
 9171POPC   C1B60847  37.416   8.198   6.450
 9171POPC   C2B60848  37.470   8.185   6.750
 9171POPC   C3B60849  37.401   8.234   7.050
 9171POPC   C4B60850  37.453   8.162   7.350
 9172POPC   NC360851   3.493   5.095   5.550
 9172POPC   PO460852   3.562   5.107   5.850
 9172POPC   GL160853   3.579   5.054   6.150
 9172POPC   GL260854   3.628   5.034   6.150
 9172POPC   C1A60855   3.579   5.074   6.450
 9172POPC   D2A60856   3.545   5.060   6.750
 9172POPC   C3A60857   3.524   5.063   7.050
 9172POPC   C4A60858   3.544   5.093   7.350
 9172POPC   C1B60859   3.729   4.946   6.450
 9172POPC   C2B60860   3.742   4.938   6.750
 9172POPC   C3B60861   3.782   4.928   7.050
 9172POPC   C4B60862   3.692   4.927   7.350
 9173POPC   NC360863  20.645  11.284   5.550
 9173POPC   PO460864  20.630  11.297   5.850
 9173POPC   GL160865  20.568  11.269   6.150
 9173POPC   GL260866  20.598  11.450   6.150
 9173POPC   C1A60867  20.623  11.336   6.450
 9173POPC   D2A60868  20.585  11.301   6.750
 9173POPC   C3A60869  20.645  11.334   7.050
 9173POPC   C4A60870  20.584  11.289   7.350
 9173POPC   C1B60871  20.571  11.494   6.450
 9173POPC   C2B60872  20.512  11.489   6.750
 9173POPC   C3B60873  20.555  11.566   7.050
 9173POPC   C4B60874  20.514  11.584   7.350
 9174POPC   NC360875  37.725  28.323   5.550
 9174POPC   PO460876  37.727  28.378   5.850
 9174POPC   GL160877  37.720  28.375   6.150
 9174POPC   GL260878  37.835  28.395   6.150
 9174POPC   C1A60879  37.654  28.364   6.450
 9174POPC   D2A60880  37.679  28.350   6.750
 9174POPC   C3A60881  37.651  28.340   7.050
 9174POPC   C4A60882  37.713  28.390   7.350
 9174POPC   C1B60883  37.911  28.369   6.450
 9174POPC   C2B60884  37.911  28.341   6.750
 9174POPC   C3B60885  37.889  28.328   7.050
 9174POPC   C4B60886  37.899  28.310   7.350
 9175POPC   NC360887  16.738   1.252   5.550
 9175POPC   PO460888  16.731   1.240   5.850
 9175POPC   GL160889  16.763   1.255   6.150
 9175POPC   GL260890  16.658   1.135   6.150
 9175POPC   C1A60891  16.765   1.234   6.450
 9175POPC   D2A60892  16.706   1.188   6.750
 9175POPC   C3A60893  16.721   1.258   7.050
 9175POPC   C4A60894  16.725   1.222   7.350
 9175POPC   C1B60895  16.537   1.100   6.450
 9175POPC   C2B60896  16.536   1.144   6.750
 9175POPC   C3B60897  16.489   1.075   7.050
 9175POPC   C4B60898  16.546   1.138   7.350
 9176POPC   NC360899   2.020  41.588   5.550
 9176POPC   PO460900   2.039  41.598   5.850
 9176POPC   GL160901   2.027  41.593   6.150
 9176POPC   GL260902   2.038  41.698   6.150
 9176POPC   C1A60903   1.943  41.559   6.450
 9176POPC   D2A60904   2.014  41.561   6.750
 9176POPC   C3A60905   2.039  41.543   7.050
 9176POPC   C4A60906   2.002  41.516   7.350
 9176POPC   C1B60907   1.984  41.773   6.450
 9176POPC   C2B60908   2.031  41.849   6.750
 9176POPC   C3B60909   1.988  41.858   7.050
 9176POPC   C4B60910   2.044  41.770   7.350
 9177POPC   NC360911   8.952  22.195   5.550
 9177POPC   PO460912   9.010  22.179   5.850
 9177POPC   GL160913   8.979  22.200   6.150
 9177POPC   GL260914   9.019  22.301   6.150
 9177POPC   C1A60915   8.963  22.135   6.450
 9177POPC   D2A60916   8.968  22.151   6.750
 9177POPC   C3A60917   8.996  22.151   7.050
 9177POPC   C4A60918   8.992  22.171   7.350
 9177POPC   C1B60919   9.079  22.352   6.450
 9177POPC   C2B60920   9.093  22.423   6.750
 9177POPC   C3B60921   9.027  22.357   7.050
 9177POPC   C4B60922   9.098  22.415   7.350
 9178POPC   NC360923  19.103  40.051   5.550
 9178POPC   PO460924  19.067  40.027   5.850
 9178POPC   GL160925  19.021  40.012   6.150
 9178POPC   GL260926  18.966  39.984   6.150
 9178POPC   C1A60927  19.050  40.048   6.450
 9178POPC   D2A60928  19.021  39.958   6.750
 9178POPC   C3A60929  19.089  40.034   7.050
 9178POPC   C4A60930  19.082  39.988   7.350
 9178POPC   C1B60931  18.764  39.948   6.450
 9178POPC   C2B60932  18.784  39.995   6.750
 9178POPC   C3B60933  18.773  39.987   7.050
 9178POPC   C4B60934  18.772  39.985   7.350
 9179POPC   NC360935   3.564  17.476   5.550
 9179POPC   PO460936   3.588  17.499   5.850
 9179POPC   GL160937   3.507  17.524   6.150
 9179POPC   GL260938   3.416  17.562   6.150
 9179POPC   C1A60939   3.560  17.518   6.450
 9179POPC   D2A60940   3.506  17.496   6.750
 9179POPC   C3A60941   3.591  17.513   7.050
 9179POPC   C4A60942   3.493  17.489   7.350
 9179POPC   C1B60943   3.318  17.560   6.450
 9179POPC   C2B60944   3.271  17.530   6.750
 9179POPC   C3B60945   3.342  17.587   7.050
 9179POPC   C4B60946   3.300  17.574   7.350
 9180POPC   NC360947   1.177  38.457   5.550
 9180POPC   PO460948   1.225  38.487   5.850
 9180POPC   GL160949   1.258  38.412   6.150
 9180POPC   GL260950   1.303  38.470   6.150
 9180POPC   C1A60951   1.226  38.452   6.450
 9180POPC   D2A60952   1.249  38.448   6.750
 9180POPC   C3A60953   1.198  38.488   7.050
 9180POPC   C4A60954   1.181  38.471   7.350
 9180POPC   C1B60955   1.455  38.512   6.450
 9180POPC   C2B60956   1.458  38.504   6.750
 9180POPC   C3B60957   1.503  38.551   7.050
 9180POPC   C4B60958   1.412  38.477   7.350
 9181POPC   NC360959   4.363   9.699   5.550
 9181POPC   PO460960   4.337   9.787   5.850
 9181POPC   GL160961   4.337   9.766   6.150
 9181POPC   GL260962   4.209   9.843   6.150
 9181POPC   C1A60963   4.285   9.712   6.450
 9181POPC   D2A60964   4.272   9.752   6.750
 9181POPC   C3A60965   4.330   9.742   7.050
 9181POPC   C4A60966   4.279   9.726   7.350
 9181POPC   C1B60967   4.164   9.915   6.450
 9181POPC   C2B60968   4.213   9.921   6.750
 9181POPC   C3B60969   4.218   9.942   7.050
 9181POPC   C4B60970   4.230   9.962   7.350
 9182POPC   NC360971  36.885  43.120   5.550
 9182POPC   PO460972  36.899  43.116   5.850
 9182POPC   GL160973  36.902  43.130   6.150
 9182POPC   GL260974  37.023  43.032   6.150
 9182POPC   C1A60975  36.925  43.137   6.450
 9182POPC   D2A60976  36.942  43.062   6.750
 9182POPC   C3A60977  36.936  43.085   7.050
 9182POPC   C4A60978  36.947  43.101   7.350
 9182POPC   C1B60979  37.053  42.980   6.450
 9182POPC   C2B60980  37.073  42.951   6.750
 9182POPC   C3B60981  37.135  42.956   7.050
 9182POPC   C4B60982  37.054  42.928   7.350
 9183POPC   NC360983  43.914  14.399   5.550
 9183POPC   PO460984  43.904  14.434   5.850
 9183POPC   GL160985  43.874  14.418   6.150
 9183POPC   GL260986  43.789  14.363   6.150
 9183POPC   C1A60987  43.865  14.451   6.450
 9183POPC   D2A60988  43.908  14.381   6.750
 9183POPC   C3A60989  43.859  14.361   7.050
 9183POPC   C4A60990  43.903  14.368   7.350
 9183POPC   C1B60991  43.589  14.369   6.450
 9183POPC   C2B60992  43.614  14.400   6.750
 9183POPC   C3B60993  43.626  14.345   7.050
 9183POPC   C4B60994  43.628  14.346   7.350
 9184POPC   NC360995   6.614  37.642   5.550
 9184POPC   PO460996   6.616  37.675   5.850
 9184POPC   GL160997   6.664  37.660   6.150
 9184POPC   GL260998   6.673  37.746   6.150
 9184POPC   C1A60999   6.682  37.715   6.450
 9184POPC   D2A61000   6.600  37.704   6.750
 9184POPC   C3A61001   6.604  37.666   7.050
 9184POPC   C4A61002   6.639  37.706   7.350
 9184POPC   C1B61003   6.694  37.946   6.450
 9184POPC   C2B61004   6.778  37.942   6.750
 9184POPC   C3B61005   6.712  37.942   7.050
 9184POPC   C4B61006   6.700  37.931   7.350
 9185POPC   NC361007  19.062   1.959   5.550
 9185POPC   PO461008  19.100   2.009   5.850
 9185POPC   GL161009  19.049   1.979   6.150
 9185POPC   GL261010  19.189   2.049   6.150
 9185POPC   C1A61011  19.031   1.989   6.450
 9185POPC   D2A61012  19.100   2.028   6.750
 9185POPC   C3A61013  19.094   1.966   7.050
 9185POPC   C4A61014  19.087   1.960   7.350
 9185POPC   C1B61015  19.325   2.064   6.450
 9185POPC   C2B61016  19.279   2.094   6.750
 9185POPC   C3B61017  19.322   2.078   7.050
 9185POPC   C4B61018  19.294   2.103   7.350
 9186POPC   NC361019  19.794  42.352   5.550
 9186POPC   PO461020  19.825  42.337   5.850
 9186POPC   GL161021  19.811  42.367   6.150
 9186POPC   GL261022  19.719  42.292   6.150
 9186POPC   C1A61023  19.797  42.368   6.450
 9186POPC   D2A61024  19.881  42.360   6.750
 9186POPC   C3A61025  19.860  42.288   7.050
 9186POPC   C4A61026  19.809  42.320   7.350
 9186POPC   C1B61027  19.642  42.191   6.450
 9186POPC   C2B61028  19.710  42.153   6.750
 9186POPC   C3B61029  19.644  42.182   7.050
 9186POPC   C4B61030  19.651  42.112   7.350
 9187POPC   NC361031  35.366  19.063   5.550
 9187POPC   PO461032  35.364  19.062   5.850
 9187POPC   GL161033  35.316  19.020   6.150
 9187POPC   GL261034  35.352  18.921   6.150
 9187POPC   C1A61035  35.358  19.034   6.450
 9187POPC   D2A61036  35.312  19.046   6.750
 9187POPC   C3A61037  35.352  19.099   7.050
 9187POPC   C4A61038  35.321  19.020   7.350
 9187POPC   C1B61039  35.291  18.774   6.450
 9187POPC   C2B61040  35.240  18.787   6.750
 9187POPC   C3B61041  35.319  18.861   7.050
 9187POPC   C4B61042  35.302  18.833   7.350
 9188POPC   NC361043  22.210  23.752   5.550
 9188POPC   PO461044  22.210  23.709   5.850
 9188POPC   GL161045  22.118  23.680   6.150
 9188POPC   GL261046  22.086  23.807   6.150
 9188POPC   C1A61047  22.193  23.725   6.450
 9188POPC   D2A61048  22.207  23.688   6.750
 9188POPC   C3A61049  22.146  23.677   7.050
 9188POPC   C4A61050  22.209  23.708   7.350
 9188POPC   C1B61051  21.978  23.930   6.450
 9188POPC   C2B61052  22.042  23.942   6.750
 9188POPC   C3B61053  22.027  23.892   7.050
 9188POPC   C4B61054  22.003  23.906   7.350
 9189POPC   NC361055  36.900  42.317   5.550
 9189POPC   PO461056  36.872  42.341   5.850
 9189POPC   GL161057  36.928  42.321   6.150
 9189POPC   GL261058  36.802  42.240   6.150
 9189POPC   C1A61059  36.855  42.384   6.450
 9189POPC   D2A61060  36.900  42.365   6.750
 9189POPC   C3A61061  36.881  42.309   7.050
 9189POPC   C4A61062  36.894  42.375   7.350
 9189POPC   C1B61063  36.645  42.173   6.450
 9189POPC   C2B61064  36.733  42.172   6.750
 9189POPC   C3B61065  36.713  42.155   7.050
 9189POPC   C4B61066  36.647  42.217   7.350
 9190POPC   NC361067  33.812  15.155   5.550
 9190POPC   PO461068  33.774  15.177   5.850
 9190POPC   GL161069  33.787  15.130   6.150
 9190POPC   GL261070  33.764  15.322   6.150
 9190POPC   C1A61071  33.811  15.175   6.450
 9190POPC   D2A61072  33.770  15.222   6.750
 9190POPC   C3A61073  33.810  15.146   7.050
 9190POPC   C4A61074  33.760  15.132   7.350
 9190POPC   C1B61075  33.748  15.420   6.450
 9190POPC   C2B61076  33.787  15.394   6.750
 9190POPC   C3B61077  33.757  15.459   7.050
 9190POPC   C4B61078  33.760  15.396   7.350
 9191POPC   NC361079   2.792  19.862   5.550
 9191POPC   PO461080   2.758  19.818   5.850
 9191POPC   GL161081   2.747  19.850   6.150
 9191POPC   GL261082   2.599  19.829   6.150
 9191POPC   C1A61083   2.762  19.854   6.450
 9191POPC   D2A61084   2.797  19.798   6.750
 9191POPC   C3A61085   2.780  19.826   7.050
 9191POPC   C4A61086   2.797  19.791   7.350
 9191POPC   C1B61087   2.470  19.808   6.450
 9191POPC   C2B61088   2.493  19.770   6.750
 9191POPC   C3B61089   2.501  19.837   7.050
 9191POPC   C4B61090   2.498  19.780   7.350
 9192POPC   NC361091  41.521  15.941   5.550
 9192POPC   PO461092  41.573  15.975   5.850
 9192POPC   GL161093  41.525  15.925   6.150
 9192POPC   GL261094  41.531  15.828   6.150
 9192POPC   C1A61095  41.560  15.966   6.450
 9192POPC   D2A61096  41.590  15.933   6.750
 9192POPC   C3A61097  41.571  15.989   7.050
 9192POPC   C4A61098  41.578  15.992   7.350
 9192POPC   C1B61099  41.414  15.728   6.450
 9192POPC   C2B61100  41.470  15.705   6.750
 9192POPC   C3B61101  41.469  15.708   7.050
 9192POPC   C4B61102  41.452  15.746   7.350
 9193POPC   NC361103  15.213  38.439   5.550
 9193POPC   PO461104  15.207  38.452   5.850
 9193POPC   GL161105  15.198  38.485   6.150
 9193POPC   GL261106  15.103  38.359   6.150
 9193POPC   C1A61107  15.189  38.456   6.450
 9193POPC   D2A61108  15.136  38.442   6.750
 9193POPC   C3A61109  15.202  38.456   7.050
 9193POPC   C4A61110  15.200  38.434   7.350
 9193POPC   C1B61111  14.916  38.336   6.450
 9193POPC   C2B61112  15.008  38.332   6.750
 9193POPC   C3B61113  14.917  38.378   7.050
 9193POPC   C4B61114  14.973  38.379   7.350
 9194POPC   NC361115  37.632  41.606   5.550
 9194POPC   PO461116  37.645  41.582   5.850
 9194POPC   GL161117  37.711  41.519   6.150
 9194POPC   GL261118  37.799  41.694   6.150
 9194POPC   C1A61119  37.642  41.521   6.450
 9194POPC   D2A61120  37.707  41.593   6.750
 9194POPC   C3A61121  37.674  41.513   7.050
 9194POPC   C4A61122  37.690  41.516   7.350
 9194POPC   C1B61123  37.813  41.710   6.450
 9194POPC   C2B61124  37.806  41.765   6.750
 9194POPC   C3B61125  37.894  41.774   7.050
 9194POPC   C4B61126  37.804  41.710   7.350
 9195POPC   NC361127   4.313  25.230   5.550
 9195POPC   PO461128   4.281  25.239   5.850
 9195POPC   GL161129   4.325  25.231   6.150
 9195POPC   GL261130   4.467  25.265   6.150
 9195POPC   C1A61131   4.276  25.290   6.450
 9195POPC   D2A61132   4.366  25.277   6.750
 9195POPC   C3A61133   4.320  25.235   7.050
 9195POPC   C4A61134   4.366  25.271   7.350
 9195POPC   C1B61135   4.590  25.265   6.450
 9195POPC   C2B61136   4.532  25.264   6.750
 9195POPC   C3B61137   4.570  25.233   7.050
 9195POPC   C4B61138   4.563  25.270   7.350
 9196POPC   NC361139  35.384   2.795   5.550
 9196POPC   PO461140  35.362   2.809   5.850
 9196POPC   GL161141  35.375   2.764   6.150
 9196POPC   GL261142  35.425   2.685   6.150
 9196POPC   C1A61143  35.385   2.718   6.450
 9196POPC   D2A61144  35.313   2.774   6.750
 9196POPC   C3A61145  35.346   2.740   7.050
 9196POPC   C4A61146  35.325   2.725   7.350
 9196POPC   C1B61147  35.396   2.480   6.450
 9196POPC   C2B61148  35.383   2.531   6.750
 9196POPC   C3B61149  35.439   2.551   7.050
 9196POPC   C4B61150  35.392   2.503   7.350
 9197POPC   NC361151  22.905   7.426   5.550
 9197POPC   PO461152  22.923   7.464   5.850
 9197POPC   GL161153  22.944   7.409   6.150
 9197POPC   GL261154  22.852   7.523   6.150
 9197POPC   C1A61155  22.949   7.444   6.450
 9197POPC   D2A61156  22.897   7.385   6.750
 9197POPC   C3A61157  22.949   7.399   7.050
 9197POPC   C4A61158  22.908   7.427   7.350
 9197POPC   C1B61159  22.714   7.551   6.450
 9197POPC   C2B61160  22.711   7.585   6.750
 9197POPC   C3B61161  22.721   7.545   7.050
 9197POPC   C4B61162  22.734   7.535   7.350
 9198POPC   NC361163  42.321   8.167   5.550
 9198POPC   PO461164  42.346   8.199   5.850
 9198POPC   GL161165  42.365   8.225   6.150
 9198POPC   GL261166  42.239   8.246   6.150
 9198POPC   C1A61167  42.336   8.191   6.450
 9198POPC   D2A61168  42.303   8.186   6.750
 9198POPC   C3A61169  42.337   8.232   7.050
 9198POPC   C4A61170  42.371   8.245   7.350
 9198POPC   C1B61171  42.175   8.332   6.450
 9198POPC   C2B61172  42.142   8.343   6.750
 9198POPC   C3B61173  42.196   8.375   7.050
 9198POPC   C4B61174  42.119   8.386   7.350
 9199POPC   NC361175  43.153  40.036   5.550
 9199POPC   PO461176  43.071  39.983   5.850
 9199POPC   GL161177  43.146  39.978   6.150
 9199POPC   GL261178  42.951  40.064   6.150
 9199POPC   C1A61179  43.083  39.973   6.450
 9199POPC   D2A61180  43.083  39.979   6.750
 9199POPC   C3A61181  43.097  39.998   7.050
 9199POPC   C4A61182  43.101  39.962   7.350
 9199POPC   C1B61183  42.863  40.100   6.450
 9199POPC   C2B61184  42.886  40.095   6.750
 9199POPC   C3B61185  42.862  40.162   7.050
 9199POPC   C4B61186  42.904  40.117   7.350
 9200POPC   NC361187  26.023  31.457   5.550
 9200POPC   PO461188  26.003  31.433   5.850
 9200POPC   GL161189  26.082  31.512   6.150
 9200POPC   GL261190  26.075  31.583   6.150
 9200POPC   C1A61191  26.074  31.463   6.450
 9200POPC   D2A61192  26.028  31.440   6.750
 9200POPC   C3A61193  25.996  31.437   7.050
 9200POPC   C4A61194  26.049  31.460   7.350
 9200POPC   C1B61195  26.182  31.702   6.450
 9200POPC   C2B61196  26.178  31.700   6.750
 9200POPC   C3B61197  26.222  31.708   7.050
 9200POPC   C4B61198  26.201  31.642   7.350
 9201POPC   NC361199  37.670  44.634   5.550
 9201POPC   PO461200  37.652  44.683   5.850
 9201POPC   GL161201  37.639  44.624   6.150
 9201POPC   GL261202  37.727  44.512   6.150
 9201POPC   C1A61203  37.726  44.657   6.450
 9201POPC   D2A61204  37.678  44.665   6.750
 9201POPC   C3A61205  37.710  44.654   7.050
 9201POPC   C4A61206  37.662  44.623   7.350
 9201POPC   C1B61207  37.692  44.432   6.450
 9201POPC   C2B61208  37.694  44.395   6.750
 9201POPC   C3B61209  37.738  44.428   7.050
 9201POPC   C4B61210  37.663  44.397   7.350
 9202POPC   NC361211  26.042   5.894   5.550
 9202POPC   PO461212  26.021   5.913   5.850
 9202POPC   GL161213  26.012   5.838   6.150
 9202POPC   GL261214  26.178   5.949   6.150
 9202POPC   C1A61215  26.030   5.901   6.450
 9202POPC   D2A61216  26.061   5.823   6.750
 9202POPC   C3A61217  26.059   5.838   7.050
 9202POPC   C4A61218  26.029   5.831   7.350
 9202POPC   C1B61219  26.236   5.953   6.450
 9202POPC   C2B61220  26.304   5.939   6.750
 9202POPC   C3B61221  26.306   5.990   7.050
 9202POPC   C4B61222  26.254   5.924   7.350
 9203POPC   NC361223   2.762   7.401   5.550
 9203POPC   PO461224   2.808   7.416   5.850
 9203POPC   GL161225   2.784   7.412   6.150
 9203POPC   GL261226   2.679   7.398   6.150
 9203POPC   C1A61227   2.768   7.394   6.450
 9203POPC   D2A61228   2.779   7.415   6.750
 9203POPC   C3A61229   2.735   7.391   7.050
 9203POPC   C4A61230   2.755   7.461   7.350
 9203POPC   C1B61231   2.533   7.290   6.450
 9203POPC   C2B61232   2.562   7.334   6.750
 9203POPC   C3B61233   2.540   7.266   7.050
 9203POPC   C4B61234   2.566   7.305   7.350
 9204POPC   NC361235  11.295  15.199   5.550
 9204POPC   PO461236  11.304  15.193   5.850
 9204POPC   GL161237  11.260  15.168   6.150
 9204POPC   GL261238  11.347  15.328   6.150
 9204POPC   C1A61239  11.308  15.209   6.450
 9204POPC   D2A61240  11.308  15.223   6.750
 9204POPC   C3A61241  11.273  15.141   7.050
 9204POPC   C4A61242  11.343  15.223   7.350
 9204POPC   C1B61243  11.471  15.419   6.450
 9204POPC   C2B61244  11.450  15.406   6.750
 9204POPC   C3B61245  11.455  15.351   7.050
 9204POPC   C4B61246  11.413  15.407   7.350
 9205POPC   NC361247   5.118  33.769   5.550
 9205POPC   PO461248   5.114  33.793   5.850
 9205POPC   GL161249   5.134  33.801   6.150
 9205POPC   GL261250   4.994  33.897   6.150
 9205POPC   C1A61251   5.062  33.781   6.450
 9205POPC   D2A61252   5.101  33.841   6.750
 9205POPC   C3A61253   5.114  33.813   7.050
 9205POPC   C4A61254   5.046  33.797   7.350
 9205POPC   C1B61255   4.998  34.004   6.450
 9205POPC   C2B61256   5.009  34.062   6.750
 9205POPC   C3B61257   4.951  34.044   7.050
 9205POPC   C4B61258   4.991  34.025   7.350
 9206POPC   NC361259  18.309   5.125   5.550
 9206POPC   PO461260  18.319   5.096   5.850
 9206POPC   GL161261  18.277   5.094   6.150
 9206POPC   GL261262  18.309   5.241   6.150
 9206POPC   C1A61263  18.300   5.119   6.450
 9206POPC   D2A61264  18.327   5.053   6.750
 9206POPC   C3A61265  18.302   5.095   7.050
 9206POPC   C4A61266  18.259   5.121   7.350
 9206POPC   C1B61267  18.380   5.367   6.450
 9206POPC   C2B61268  18.420   5.289   6.750
 9206POPC   C3B61269  18.337   5.352   7.050
 9206POPC   C4B61270  18.369   5.372   7.350
 9207POPC   NC361271  37.711  12.864   5.550
 9207POPC   PO461272  37.679  12.805   5.850
 9207POPC   GL161273  37.699  12.872   6.150
 9207POPC   GL261274  37.737  12.949   6.150
 9207POPC   C1A61275  37.660  12.877   6.450
 9207POPC   D2A61276  37.696  12.858   6.750
 9207POPC   C3A61277  37.669  12.848   7.050
 9207POPC   C4A61278  37.639  12.806   7.350
 9207POPC   C1B61279  37.796  13.104   6.450
 9207POPC   C2B61280  37.766  13.061   6.750
 9207POPC   C3B61281  37.759  13.048   7.050
 9207POPC   C4B61282  37.790  13.105   7.350
 9208POPC   NC361283  43.131  44.626   5.550
 9208POPC   PO461284  43.062  44.632   5.850
 9208POPC   GL161285  43.121  44.660   6.150
 9208POPC   GL261286  43.055  44.580   6.150
 9208POPC   C1A61287  43.149  44.650   6.450
 9208POPC   D2A61288  43.083  44.621   6.750
 9208POPC   C3A61289  43.137  44.704   7.050
 9208POPC   C4A61290  43.123  44.657   7.350
 9208POPC   C1B61291  42.960  44.431   6.450
 9208POPC   C2B61292  43.030  44.441   6.750
 9208POPC   C3B61293  42.998  44.449   7.050
 9208POPC   C4B61294  42.951  44.459   7.350
 9209POPC   NC361295   2.725   8.204   5.550
 9209POPC   PO461296   2.737   8.222   5.850
 9209POPC   GL161297   2.796   8.208   6.150
 9209POPC   GL261298   2.707   8.282   6.150
 9209POPC   C1A61299   2.801   8.236   6.450
 9209POPC   D2A61300   2.723   8.170   6.750
 9209POPC   C3A61301   2.796   8.224   7.050
 9209POPC   C4A61302   2.756   8.197   7.350
 9209POPC   C1B61303   2.741   8.475   6.450
 9209POPC   C2B61304   2.743   8.407   6.750
 9209POPC   C3B61305   2.747   8.404   7.050
 9209POPC   C4B61306   2.686   8.404   7.350
 9210POPC   NC361307   7.469  27.561   5.550
 9210POPC   PO461308   7.391  27.552   5.850
 9210POPC   GL161309   7.428  27.605   6.150
 9210POPC   GL261310   7.334  27.694   6.150
 9210POPC   C1A61311   7.411  27.549   6.450
 9210POPC   D2A61312   7.401  27.598   6.750
 9210POPC   C3A61313   7.458  27.548   7.050
 9210POPC   C4A61314   7.431  27.594   7.350
 9210POPC   C1B61315   7.205  27.720   6.450
 9210POPC   C2B61316   7.158  27.707   6.750
 9210POPC   C3B61317   7.161  27.692   7.050
 9210POPC   C4B61318   7.174  27.734   7.350
 9211POPC   NC361319  14.356  35.354   5.550
 9211POPC   PO461320  14.415  35.392   5.850
 9211POPC   GL161321  14.382  35.333   6.150
 9211POPC   GL261322  14.525  35.234   6.150
 9211POPC   C1A61323  14.447  35.371   6.450
 9211POPC   D2A61324  14.375  35.322   6.750
 9211POPC   C3A61325  14.447  35.306   7.050
 9211POPC   C4A61326  14.410  35.384   7.350
 9211POPC   C1B61327  14.576  35.137   6.450
 9211POPC   C2B61328  14.510  35.133   6.750
 9211POPC   C3B61329  14.517  35.111   7.050
 9211POPC   C4B61330  14.587  35.183   7.350
 9212POPC   NC361331   3.507  40.735   5.550
 9212POPC   PO461332   3.537  40.783   5.850
 9212POPC   GL161333   3.568  40.738   6.150
 9212POPC   GL261334   3.692  40.841   6.150
 9212POPC   C1A61335   3.528  40.778   6.450
 9212POPC   D2A61336   3.524  40.792   6.750
 9212POPC   C3A61337   3.584  40.791   7.050
 9212POPC   C4A61338   3.577  40.813   7.350
 9212POPC   C1B61339   3.725  40.875   6.450
 9212POPC   C2B61340   3.787  40.913   6.750
 9212POPC   C3B61341   3.727  40.926   7.050
 9212POPC   C4B61342   3.733  40.876   7.350
 9213POPC   NC361343  12.039  43.122   5.550
 9213POPC   PO461344  12.095  43.107   5.850
 9213POPC   GL161345  12.035  43.094   6.150
 9213POPC   GL261346  12.171  43.188   6.150
 9213POPC   C1A61347  12.041  43.118   6.450
 9213POPC   D2A61348  12.090  43.098   6.750
 9213POPC   C3A61349  12.109  43.132   7.050
 9213POPC   C4A61350  12.086  43.143   7.350
 9213POPC   C1B61351  12.163  43.309   6.450
 9213POPC   C2B61352  12.194  43.352   6.750
 9213POPC   C3B61353  12.159  43.289   7.050
 9213POPC   C4B61354  12.164  43.306   7.350
 9214POPC   NC361355  11.291   9.780   5.550
 9214POPC   PO461356  11.282   9.739   5.850
 9214POPC   GL161357  11.283   9.753   6.150
 9214POPC   GL261358  11.189   9.659   6.150
 9214POPC   C1A61359  11.285   9.787   6.450
 9214POPC   D2A61360  11.318   9.725   6.750
 9214POPC   C3A61361  11.286   9.767   7.050
 9214POPC   C4A61362  11.322   9.762   7.350
 9214POPC   C1B61363  11.040   9.685   6.450
 9214POPC   C2B61364  11.066   9.602   6.750
 9214POPC   C3B61365  11.081   9.685   7.050
 9214POPC   C4B61366  11.086   9.650   7.350
 9215POPC   NC361367   9.718  27.556   5.550
 9215POPC   PO461368   9.792  27.583   5.850
 9215POPC   GL161369   9.749  27.575   6.150
 9215POPC   GL261370   9.836  27.476   6.150
 9215POPC   C1A61371   9.775  27.627   6.450
 9215POPC   D2A61372   9.741  27.595   6.750
 9215POPC   C3A61373   9.769  27.549   7.050
 9215POPC   C4A61374   9.727  27.614   7.350
 9215POPC   C1B61375   9.900  27.393   6.450
 9215POPC   C2B61376   9.909  27.402   6.750
 9215POPC   C3B61377   9.879  27.451   7.050
 9215POPC   C4B61378   9.907  27.427   7.350
 9216POPC   NC361379  20.632  18.271   5.550
 9216POPC   PO461380  20.625  18.309   5.850
 9216POPC   GL161381  20.616  18.301   6.150
 9216POPC   GL261382  20.569  18.201   6.150
 9216POPC   C1A61383  20.641  18.259   6.450
 9216POPC   D2A61384  20.612  18.255   6.750
 9216POPC   C3A61385  20.646  18.321   7.050
 9216POPC   C4A61386  20.598  18.307   7.350
 9216POPC   C1B61387  20.581  18.014   6.450
 9216POPC   C2B61388  20.540  18.046   6.750
 9216POPC   C3B61389  20.555  18.013   7.050
 9216POPC   C4B61390  20.505  18.034   7.350
 9217POPC   NC361391  20.565   6.619   5.550
 9217POPC   PO461392  20.575   6.618   5.850
 9217POPC   GL161393  20.612   6.652   6.150
 9217POPC   GL261394  20.526   6.809   6.150
 9217POPC   C1A61395  20.631   6.665   6.450
 9217POPC   D2A61396  20.642   6.601   6.750
 9217POPC   C3A61397  20.628   6.622   7.050
 9217POPC   C4A61398  20.617   6.640   7.350
 9217POPC   C1B61399  20.466   6.882   6.450
 9217POPC   C2B61400  20.521   6.906   6.750
 9217POPC   C3B61401  20.533   6.901   7.050
 9217POPC   C4B61402  20.504   6.883   7.350
 9218POPC   NC361403  39.998  40.013   5.550
 9218POPC   PO461404  40.015  40.057   5.850
 9218POPC   GL161405  40.002  40.045   6.150
 9218POPC   GL261406  40.167  39.939   6.150
 9218POPC   C1A61407  40.036  40.048   6.450
 9218POPC   D2A61408  40.053  40.028   6.750
 9218POPC   C3A61409  40.033  39.965   7.050
 9218POPC   C4A61410  39.962  40.033   7.350
 9218POPC   C1B61411  40.230  39.951   6.450
 9218POPC   C2B61412  40.290  39.920   6.750
 9218POPC   C3B61413  40.259  39.963   7.050
 9218POPC   C4B61414  40.214  39.968   7.350
 9219POPC   NC361415  23.694  14.374   5.550
 9219POPC   PO461416  23.676  14.371   5.850
 9219POPC   GL161417  23.735  14.371   6.150
 9219POPC   GL261418  23.659  14.506   6.150
 9219POPC   C1A61419  23.678  14.429   6.450
 9219POPC   D2A61420  23.670  14.425   6.750
 9219POPC   C3A61421  23.701  14.396   7.050
 9219POPC   C4A61422  23.741  14.425   7.350
 9219POPC   C1B61423  23.594  14.670   6.450
 9219POPC   C2B61424  23.624  14.592   6.750
 9219POPC   C3B61425  23.672  14.629   7.050
 9219POPC   C4B61426  23.656  14.662   7.350
 9220POPC   NC361427   2.793   8.965   5.550
 9220POPC   PO461428   2.780   9.004   5.850
 9220POPC   GL161429   2.744   8.991   6.150
 9220POPC   GL261430   2.623   8.924   6.150
 9220POPC   C1A61431   2.747   9.016   6.450
 9220POPC   D2A61432   2.732   8.939   6.750
 9220POPC   C3A61433   2.716   8.993   7.050
 9220POPC   C4A61434   2.807   8.929   7.350
 9220POPC   C1B61435   2.550   8.837   6.450
 9220POPC   C2B61436   2.547   8.871   6.750
 9220POPC   C3B61437   2.589   8.885   7.050
 9220POPC   C4B61438   2.511   8.813   7.350
 9221POPC   NC361439  44.635  11.347   5.550
 9221POPC   PO461440  44.622  11.315   5.850
 9221POPC   GL161441  44.619  11.272   6.150
 9221POPC   GL261442  44.581  11.182   6.150
 9221POPC   C1A61443  44.704  11.325   6.450
 9221POPC   D2A61444  44.623  11.325   6.750
 9221POPC   C3A61445  44.702  11.350   7.050
 9221POPC   C4A61446  44.697  11.330   7.350
 9221POPC   C1B61447  44.503  11.045   6.450
 9221POPC   C2B61448  44.583  11.115   6.750
 9221POPC   C3B61449  44.526  11.098   7.050
 9221POPC   C4B61450  44.534  11.076   7.350
 9222POPC   NC361451  17.468  37.706   5.550
 9222POPC   PO461452  17.531  37.707   5.850
 9222POPC   GL161453  17.503  37.646   6.150
 9222POPC   GL261454  17.648  37.661   6.150
 9222POPC   C1A61455  17.485  37.676   6.450
 9222POPC   D2A61456  17.534  37.632   6.750
 9222POPC   C3A61457  17.514  37.637   7.050
 9222POPC   C4A61458  17.467  37.701   7.350
 9222POPC   C1B61459  17.771  37.683   6.450
 9222POPC   C2B61460  17.728  37.680   6.750
 9222POPC   C3B61461  17.737  37.625   7.050
 9222POPC   C4B61462  17.736  37.647   7.350
 9223POPC   NC361463   4.363  37.685   5.550
 9223POPC   PO461464   4.268  37.642   5.850
 9223POPC   GL161465   4.365  37.656   6.150
 9223POPC   GL261466   4.219  37.754   6.150
 9223POPC   C1A61467   4.289  37.659   6.450
 9223POPC   D2A61468   4.334  37.643   6.750
 9223POPC   C3A61469   4.328  37.667   7.050
 9223POPC   C4A61470   4.333  37.672   7.350
 9223POPC   C1B61471   4.115  37.767   6.450
 9223POPC   C2B61472   4.036  37.714   6.750
 9223POPC   C3B61473   4.116  37.698   7.050
 9223POPC   C4B61474   4.106  37.774   7.350
 9224POPC   NC361475  38.479   6.661   5.550
 9224POPC   PO461476  38.445   6.613   5.850
 9224POPC   GL161477  38.433   6.678   6.150
 9224POPC   GL261478  38.303   6.651   6.150
 9224POPC   C1A61479  38.430   6.625   6.450
 9224POPC   D2A61480  38.420   6.684   6.750
 9224POPC   C3A61481  38.440   6.658   7.050
 9224POPC   C4A61482  38.409   6.688   7.350
 9224POPC   C1B61483  38.178   6.662   6.450
 9224POPC   C2B61484  38.231   6.744   6.750
 9224POPC   C3B61485  38.214   6.666   7.050
 9224POPC   C4B61486  38.221   6.707   7.350
 9225POPC   NC361487  22.937  24.463   5.550
 9225POPC   PO461488  22.966  24.493   5.850
 9225POPC   GL161489  22.897  24.510   6.150
 9225POPC   GL261490  23.013  24.412   6.150
 9225POPC   C1A61491  22.985  24.474   6.450
 9225POPC   D2A61492  22.889  24.483   6.750
 9225POPC   C3A61493  22.942  24.484   7.050
 9225POPC   C4A61494  22.908  24.502   7.350
 9225POPC   C1B61495  23.180  24.355   6.450
 9225POPC   C2B61496  23.103  24.336   6.750
 9225POPC   C3B61497  23.188  24.304   7.050
 9225POPC   C4B61498  23.114  24.385   7.350
 9226POPC   NC361499   5.066  41.604   5.550
 9226POPC   PO461500   5.096  41.598   5.850
 9226POPC   GL161501   5.132  41.510   6.150
 9226POPC   GL261502   4.944  41.537   6.150
 9226POPC   C1A61503   5.118  41.594   6.450
 9226POPC   D2A61504   5.052  41.514   6.750
 9226POPC   C3A61505   5.120  41.550   7.050
 9226POPC   C4A61506   5.125  41.534   7.350
 9226POPC   C1B61507   4.816  41.538   6.450
 9226POPC   C2B61508   4.874  41.538   6.750
 9226POPC   C3B61509   4.853  41.488   7.050
 9226POPC   C4B61510   4.845  41.535   7.350
 9227POPC   NC361511  32.220  38.451   5.550
 9227POPC   PO461512  32.275  38.470   5.850
 9227POPC   GL161513  32.279  38.436   6.150
 9227POPC   GL261514  32.341  38.570   6.150
 9227POPC   C1A61515  32.246  38.498   6.450
 9227POPC   D2A61516  32.276  38.487   6.750
 9227POPC   C3A61517  32.281  38.495   7.050
 9227POPC   C4A61518  32.208  38.443   7.350
 9227POPC   C1B61519  32.466  38.595   6.450
 9227POPC   C2B61520  32.460  38.669   6.750
 9227POPC   C3B61521  32.470  38.655   7.050
 9227POPC   C4B61522  32.413  38.638   7.350
 9228POPC   NC361523   9.766  40.011   5.550
 9228POPC   PO461524   9.760  39.991   5.850
 9228POPC   GL161525   9.792  40.001   6.150
 9228POPC   GL261526   9.835  39.889   6.150
 9228POPC   C1A61527   9.745  39.994   6.450
 9228POPC   D2A61528   9.781  39.990   6.750
 9228POPC   C3A61529   9.766  40.005   7.050
 9228POPC   C4A61530   9.725  39.978   7.350
 9228POPC   C1B61531   9.905  39.748   6.450
 9228POPC   C2B61532   9.874  39.796   6.750
 9228POPC   C3B61533   9.858  39.740   7.050
 9228POPC   C4B61534   9.903  39.767   7.350
 9229POPC   NC361535  32.992  29.189   5.550
 9229POPC   PO461536  32.983  29.166   5.850
 9229POPC   GL161537  33.032  29.184   6.150
 9229POPC   GL261538  32.983  29.226   6.150
 9229POPC   C1A61539  33.074  29.117   6.450
 9229POPC   D2A61540  32.980  29.113   6.750
 9229POPC   C3A61541  33.002  29.132   7.050
 9229POPC   C4A61542  33.039  29.180   7.350
 9229POPC   C1B61543  32.890  29.375   6.450
 9229POPC   C2B61544  32.900  29.349   6.750
 9229POPC   C3B61545  32.928  29.369   7.050
 9229POPC   C4B61546  32.859  29.316   7.350
 9230POPC   NC361547  15.202  34.557   5.550
 9230POPC   PO461548  15.206  34.529   5.850
 9230POPC   GL161549  15.154  34.535   6.150
 9230POPC   GL261550  15.204  34.455   6.150
 9230POPC   C1A61551  15.195  34.573   6.450
 9230POPC   D2A61552  15.223  34.544   6.750
 9230POPC   C3A61553  15.150  34.620   7.050
 9230POPC   C4A61554  15.197  34.581   7.350
 9230POPC   C1B61555  15.195  34.327   6.450
 9230POPC   C2B61556  15.159  34.353   6.750
 9230POPC   C3B61557  15.193  34.375   7.050
 9230POPC   C4B61558  15.133  34.304   7.350
 9231POPC   NC361559  40.019   8.210   5.550
 9231POPC   PO461560  40.005   8.171   5.850
 9231POPC   GL161561  40.019   8.189   6.150
 9231POPC   GL261562  39.919   8.270   6.150
 9231POPC   C1A61563  40.030   8.164   6.450
 9231POPC   D2A61564  39.978   8.224   6.750
 9231POPC   C3A61565  40.056   8.232   7.050
 9231POPC   C4A61566  40.041   8.149   7.350
 9231POPC   C1B61567  39.872   8.320   6.450
 9231POPC   C2B61568  39.784   8.387   6.750
 9231POPC   C3B61569  39.822   8.374   7.050
 9231POPC   C4B61570  39.820   8.416   7.350
 9232POPC   NC361571  12.833  44.698   5.550
 9232POPC   PO461572  12.810  44.692   5.850
 9232POPC   GL161573  12.864  44.614   6.150
 9232POPC   GL261574  12.912  44.597   6.150
 9232POPC   C1A61575  12.870  44.635   6.450
 9232POPC   D2A61576  12.833  44.682   6.750
 9232POPC   C3A61577  12.832  44.705   7.050
 9232POPC   C4A61578  12.893  44.614   7.350
 9232POPC   C1B61579  13.056  44.552   6.450
 9232POPC   C2B61580  13.098  44.578   6.750
 9232POPC   C3B61581  13.050  44.554   7.050
 9232POPC   C4B61582  13.024  44.502   7.350
 9233POPC   NC361583  22.934  29.900   5.550
 9233POPC   PO461584  22.930  29.954   5.850
 9233POPC   GL161585  22.912  29.887   6.150
 9233POPC   GL261586  22.831  29.837   6.150
 9233POPC   C1A61587  22.966  29.938   6.450
 9233POPC   D2A61588  22.892  29.926   6.750
 9233POPC   C3A61589  22.947  29.899   7.050
 9233POPC   C4A61590  22.949  29.920   7.350
 9233POPC   C1B61591  22.760  29.776   6.450
 9233POPC   C2B61592  22.716  29.753   6.750
 9233POPC   C3B61593  22.752  29.811   7.050
 9233POPC   C4B61594  22.724  29.811   7.350
 9234POPC   NC361595  44.685  10.560   5.550
 9234POPC   PO461596  44.697  10.507   5.850
 9234POPC   GL161597  44.650  10.506   6.150
 9234POPC   GL261598  44.559  10.438   6.150
 9234POPC   C1A61599  44.618  10.475   6.450
 9234POPC   D2A61600  44.671  10.571   6.750
 9234POPC   C3A61601  44.614  10.512   7.050
 9234POPC   C4A61602  44.669  10.511   7.350
 9234POPC   C1B61603  44.432  10.353   6.450
 9234POPC   C2B61604  44.416  10.375   6.750
 9234POPC   C3B61605  44.454  10.322   7.050
 9234POPC   C4B61606  44.496  10.347   7.350
 9235POPC   NC361607  14.361   2.787   5.550
 9235POPC   PO461608  14.408   2.788   5.850
 9235POPC   GL161609  14.416   2.763   6.150
 9235POPC   GL261610  14.449   2.825   6.150
 9235POPC   C1A61611  14.425   2.748   6.450
 9235POPC   D2A61612  14.435   2.772   6.750
 9235POPC   C3A61613  14.397   2.740   7.050
 9235POPC   C4A61614  14.376   2.772   7.350
 9235POPC   C1B61615  14.574   2.995   6.450
 9235POPC   C2B61616  14.487   2.942   6.750
 9235POPC   C3B61617  14.578   2.991   7.050
 9235POPC   C4B61618  14.544   3.007   7.350
 9236POPC   NC361619  34.587  37.684   5.550
 9236POPC   PO461620  34.531  37.642   5.850
 9236POPC   GL161621  34.529  37.710   6.150
 9236POPC   GL261622  34.704  37.634   6.150
 9236POPC   C1A61623  34.605  37.646   6.450
 9236POPC   D2A61624  34.592  37.661   6.750
 9236POPC   C3A61625  34.557  37.636   7.050
 9236POPC   C4A61626  34.534  37.706   7.350
 9236POPC   C1B61627  34.850  37.728   6.450
 9236POPC   C2B61628  34.840  37.699   6.750
 9236POPC   C3B61629  34.777  37.640   7.050
 9236POPC   C4B61630  34.827  37.695   7.350
 9237POPC   NC361631  37.696  42.338   5.550
 9237POPC   PO461632  37.634  42.384   5.850
 9237POPC   GL161633  37.631  42.366   6.150
 9237POPC   GL261634  37.662  42.485   6.150
 9237POPC   C1A61635  37.650  42.346   6.450
 9237POPC   D2A61636  37.663  42.300   6.750
 9237POPC   C3A61637  37.685  42.378   7.050
 9237POPC   C4A61638  37.697  42.312   7.350
 9237POPC   C1B61639  37.701  42.598   6.450
 9237POPC   C2B61640  37.712  42.593   6.750
 9237POPC   C3B61641  37.658  42.544   7.050
 9237POPC   C4B61642  37.676  42.631   7.350
 9238POPC   NC361643  33.059  19.864   5.550
 9238POPC   PO461644  33.015  19.801   5.850
 9238POPC   GL161645  33.056  19.852   6.150
 9238POPC   GL261646  32.971  19.922   6.150
 9238POPC   C1A61647  33.027  19.805   6.450
 9238POPC   D2A61648  32.982  19.877   6.750
 9238POPC   C3A61649  33.020  19.853   7.050
 9238POPC   C4A61650  33.037  19.801   7.350
 9238POPC   C1B61651  32.996  20.107   6.450
 9238POPC   C2B61652  33.040  20.046   6.750
 9238POPC   C3B61653  33.014  20.097   7.050
 9238POPC   C4B61654  33.003  20.067   7.350
 9239POPC   NC361655  33.825  12.114   5.550
 9239POPC   PO461656  33.801  12.113   5.850
 9239POPC   GL161657  33.798  12.032   6.150
 9239POPC   GL261658  33.822  12.222   6.150
 9239POPC   C1A61659  33.805  12.111   6.450
 9239POPC   D2A61660  33.785  12.051   6.750
 9239POPC   C3A61661  33.844  12.037   7.050
 9239POPC   C4A61662  33.846  12.051   7.350
 9239POPC   C1B61663  33.774  12.359   6.450
 9239POPC   C2B61664  33.766  12.277   6.750
 9239POPC   C3B61665  33.791  12.323   7.050
 9239POPC   C4B61666  33.728  12.316   7.350
 9240POPC   NC361667  38.426  44.708   5.550
 9240POPC   PO461668  38.407  44.712   5.850
 9240POPC   GL161669  38.503  44.631   6.150
 9240POPC   GL261670  38.446  44.531   6.150
 9240POPC   C1A61671  38.503  44.615   6.450
 9240POPC   D2A61672  38.418  44.618   6.750
 9240POPC   C3A61673  38.462  44.688   7.050
 9240POPC   C4A61674  38.484  44.636   7.350
 9240POPC   C1B61675  38.490  44.428   6.450
 9240POPC   C2B61676  38.553  44.404   6.750
 9240POPC   C3B61677  38.487  44.435   7.050
 9240POPC   C4B61678  38.529  44.370   7.350
 9241POPC   NC361679   8.157  40.014   5.550
 9241POPC   PO461680   8.171  39.991   5.850
 9241POPC   GL161681   8.243  40.021   6.150
 9241POPC   GL261682   8.220  40.125   6.150
 9241POPC   C1A61683   8.154  40.055   6.450
 9241POPC   D2A61684   8.207  39.970   6.750
 9241POPC   C3A61685   8.186  40.013   7.050
 9241POPC   C4A61686   8.191  39.968   7.350
 9241POPC   C1B61687   8.300  40.191   6.450
 9241POPC   C2B61688   8.311  40.231   6.750
 9241POPC   C3B61689   8.383  40.226   7.050
 9241POPC   C4B61690   8.314  40.172   7.350
 9242POPC   NC361691  43.883  10.515   5.550
 9242POPC   PO461692  43.923  10.497   5.850
 9242POPC   GL161693  43.880  10.560   6.150
 9242POPC   GL261694  43.942  10.370   6.150
 9242POPC   C1A61695  43.846  10.516   6.450
 9242POPC   D2A61696  43.878  10.514   6.750
 9242POPC   C3A61697  43.855  10.536   7.050
 9242POPC   C4A61698  43.845  10.539   7.350
 9242POPC   C1B61699  43.898  10.301   6.450
 9242POPC   C2B61700  43.903  10.287   6.750
 9242POPC   C3B61701  43.930  10.273   7.050
 9242POPC   C4B61702  43.966  10.282   7.350
 9243POPC   NC361703  26.769  44.664   5.550
 9243POPC   PO461704  26.798  44.658   5.850
 9243POPC   GL161705  26.849  44.652   6.150
 9243POPC   GL261706  26.891  44.616   6.150
 9243POPC   C1A61707  26.795  44.661   6.450
 9243POPC   D2A61708  26.824  44.619   6.750
 9243POPC   C3A61709  26.830  44.711   7.050
 9243POPC   C4A61710  26.798  44.676   7.350
 9243POPC   C1B61711  26.973  44.473   6.450
 9243POPC   C2B61712  27.010  44.537   6.750
 9243POPC   C3B61713  26.965  44.476   7.050
 9243POPC   C4B61714  27.004  44.505   7.350
 9244POPC   NC361715  22.953  16.744   5.550
 9244POPC   PO461716  22.895  16.698   5.850
 9244POPC   GL161717  22.986  16.731   6.150
 9244POPC   GL261718  22.835  16.705   6.150
 9244POPC   C1A61719  22.922  16.707   6.450
 9244POPC   D2A61720  22.983  16.683   6.750
 9244POPC   C3A61721  22.930  16.721   7.050
 9244POPC   C4A61722  22.926  16.756   7.350
 9244POPC   C1B61723  22.763  16.560   6.450
 9244POPC   C2B61724  22.720  16.608   6.750
 9244POPC   C3B61725  22.701  16.568   7.050
 9244POPC   C4B61726  22.766  16.617   7.350
 9245POPC   NC361727  16.780  39.241   5.550
 9245POPC   PO461728  16.716  39.204   5.850
 9245POPC   GL161729  16.765  39.254   6.150
 9245POPC   GL261730  16.586  39.260   6.150
 9245POPC   C1A61731  16.710  39.263   6.450
 9245POPC   D2A61732  16.704  39.254   6.750
 9245POPC   C3A61733  16.696  39.222   7.050
 9245POPC   C4A61734  16.739  39.277   7.350
 9245POPC   C1B61735  16.442  39.178   6.450
 9245POPC   C2B61736  16.435  39.267   6.750
 9245POPC   C3B61737  16.472  39.182   7.050
 9245POPC   C4B61738  16.473  39.248   7.350
 9246POPC   NC361739  39.999  34.550   5.550
 9246POPC   PO461740  40.055  34.582   5.850
 9246POPC   GL161741  39.969  34.536   6.150
 9246POPC   GL261742  39.936  34.684   6.150
 9246POPC   C1A61743  40.004  34.605   6.450
 9246POPC   D2A61744  39.959  34.601   6.750
 9246POPC   C3A61745  39.971  34.613   7.050
 9246POPC   C4A61746  39.966  34.542   7.350
 9246POPC   C1B61747  39.869  34.808   6.450
 9246POPC   C2B61748  39.805  34.806   6.750
 9246POPC   C3B61749  39.844  34.754   7.050
 9246POPC   C4B61750  39.836  34.756   7.350
 9247POPC   NC361751  10.561  29.909   5.550
 9247POPC   PO461752  10.506  29.924   5.850
 9247POPC   GL161753  10.486  29.909   6.150
 9247POPC   GL261754  10.450  29.999   6.150
 9247POPC   C1A61755  10.491  29.920   6.450
 9247POPC   D2A61756  10.521  29.890   6.750
 9247POPC   C3A61757  10.511  29.908   7.050
 9247POPC   C4A61758  10.569  29.919   7.350
 9247POPC   C1B61759  10.406  30.126   6.450
 9247POPC   C2B61760  10.442  30.092   6.750
 9247POPC   C3B61761  10.407  30.167   7.050
 9247POPC   C4B61762  10.401  30.177   7.350
 9248POPC   NC361763  29.107   4.366   5.550
 9248POPC   PO461764  29.132   4.364   5.850
 9248POPC   GL161765  29.131   4.346   6.150
 9248POPC   GL261766  29.104   4.374   6.150
 9248POPC   C1A61767  29.168   4.272   6.450
 9248POPC   D2A61768  29.144   4.279   6.750
 9248POPC   C3A61769  29.109   4.323   7.050
 9248POPC   C4A61770  29.172   4.340   7.350
 9248POPC   C1B61771  29.024   4.550   6.450
 9248POPC   C2B61772  28.969   4.513   6.750
 9248POPC   C3B61773  28.985   4.520   7.050
 9248POPC   C4B61774  29.029   4.532   7.350
 9249POPC   NC361775   2.039  13.612   5.550
 9249POPC   PO461776   2.005  13.613   5.850
 9249POPC   GL161777   1.984  13.623   6.150
 9249POPC   GL261778   1.900  13.519   6.150
 9249POPC   C1A61779   1.978  13.648   6.450
 9249POPC   D2A61780   1.989  13.601   6.750
 9249POPC   C3A61781   1.991  13.623   7.050
 9249POPC   C4A61782   1.958  13.620   7.350
 9249POPC   C1B61783   1.918  13.432   6.450
 9249POPC   C2B61784   1.858  13.420   6.750
 9249POPC   C3B61785   1.859  13.439   7.050
 9249POPC   C4B61786   1.859  13.417   7.350
 9250POPC   NC361787  37.645  38.438   5.550
 9250POPC   PO461788  37.714  38.457   5.850
 9250POPC   GL161789  37.668  38.434   6.150
 9250POPC   GL261790  37.735  38.386   6.150
 9250POPC   C1A61791  37.639  38.462   6.450
 9250POPC   D2A61792  37.707  38.407   6.750
 9250POPC   C3A61793  37.688  38.424   7.050
 9250POPC   C4A61794  37.693  38.483   7.350
 9250POPC   C1B61795  37.820  38.244   6.450
 9250POPC   C2B61796  37.891  38.278   6.750
 9250POPC   C3B61797  37.799  38.218   7.050
 9250POPC   C4B61798  37.884  38.261   7.350
 9251POPC   NC361799  19.067   3.567   5.550
 9251POPC   PO461800  19.010   3.538   5.850
 9251POPC   GL161801  19.088   3.530   6.150
 9251POPC   GL261802  19.102   3.697   6.150
 9251POPC   C1A61803  19.075   3.518   6.450
 9251POPC   D2A61804  19.051   3.561   6.750
 9251POPC   C3A61805  19.034   3.591   7.050
 9251POPC   C4A61806  19.092   3.558   7.350
 9251POPC   C1B61807  19.101   3.827   6.450
 9251POPC   C2B61808  19.030   3.802   6.750
 9251POPC   C3B61809  19.016   3.814   7.050
 9251POPC   C4B61810  19.106   3.807   7.350
 9252POPC   NC361811  33.767  25.227   5.550
 9252POPC   PO461812  33.841  25.289   5.850
 9252POPC   GL161813  33.840  25.275   6.150
 9252POPC   GL261814  33.722  25.302   6.150
 9252POPC   C1A61815  33.755  25.305   6.450
 9252POPC   D2A61816  33.751  25.312   6.750
 9252POPC   C3A61817  33.821  25.298   7.050
 9252POPC   C4A61818  33.808  25.274   7.350
 9252POPC   C1B61819  33.577  25.299   6.450
 9252POPC   C2B61820  33.526  25.291   6.750
 9252POPC   C3B61821  33.528  25.252   7.050
 9252POPC   C4B61822  33.542  25.261   7.350
 9253POPC   NC361823  17.505  43.084   5.550
 9253POPC   PO461824  17.535  43.087   5.850
 9253POPC   GL161825  17.501  43.117   6.150
 9253POPC   GL261826  17.427  43.039   6.150
 9253POPC   C1A61827  17.516  43.150   6.450
 9253POPC   D2A61828  17.515  43.116   6.750
 9253POPC   C3A61829  17.549  43.141   7.050
 9253POPC   C4A61830  17.464  43.143   7.350
 9253POPC   C1B61831  17.257  42.991   6.450
 9253POPC   C2B61832  17.312  42.990   6.750
 9253POPC   C3B61833  17.342  43.007   7.050
 9253POPC   C4B61834  17.249  42.934   7.350
 9254POPC   NC361835  29.905  19.014   5.550
 9254POPC   PO461836  29.967  19.029   5.850
 9254POPC   GL161837  29.913  19.059   6.150
 9254POPC   GL261838  29.987  18.903   6.150
 9254POPC   C1A61839  29.960  19.042   6.450
 9254POPC   D2A61840  29.923  19.106   6.750
 9254POPC   C3A61841  29.912  19.065   7.050
 9254POPC   C4A61842  29.874  19.032   7.350
 9254POPC   C1B61843  30.021  18.788   6.450
 9254POPC   C2B61844  30.017  18.800   6.750
 9254POPC   C3B61845  29.941  18.789   7.050
 9254POPC   C4B61846  29.949  18.773   7.350
 9255POPC   NC361847  25.275  21.338   5.550
 9255POPC   PO461848  25.268  21.373   5.850
 9255POPC   GL161849  25.228  21.355   6.150
 9255POPC   GL261850  25.196  21.344   6.150
 9255POPC   C1A61851  25.292  21.395   6.450
 9255POPC   D2A61852  25.281  21.343   6.750
 9255POPC   C3A61853  25.265  21.365   7.050
 9255POPC   C4A61854  25.262  21.350   7.350
 9255POPC   C1B61855  25.078  21.282   6.450
 9255POPC   C2B61856  25.052  21.332   6.750
 9255POPC   C3B61857  24.999  21.308   7.050
 9255POPC   C4B61858  25.054  21.241   7.350
 9256POPC   NC361859  33.837  43.150   5.550
 9256POPC   PO461860  33.775  43.109   5.850
 9256POPC   GL161861  33.808  43.069   6.150
 9256POPC   GL261862  33.815  42.973   6.150
 9256POPC   C1A61863  33.842  43.155   6.450
 9256POPC   D2A61864  33.843  43.091   6.750
 9256POPC   C3A61865  33.815  43.094   7.050
 9256POPC   C4A61866  33.763  43.061   7.350
 9256POPC   C1B61867  33.775  42.844   6.450
 9256POPC   C2B61868  33.784  42.824   6.750
 9256POPC   C3B61869  33.739  42.898   7.050
 9256POPC   C4B61870  33.743  42.826   7.350
 9257POPC   NC361871  21.417   0.421   5.550
 9257POPC   PO461872  21.430   0.430   5.850
 9257POPC   GL161873  21.387   0.470   6.150
 9257POPC   GL261874  21.545   0.386   6.150
 9257POPC   C1A61875  21.356   0.488   6.450
 9257POPC   D2A61876  21.413   0.462   6.750
 9257POPC   C3A61877  21.367   0.413   7.050
 9257POPC   C4A61878  21.423   0.465   7.350
 9257POPC   C1B61879  21.601   0.321   6.450
 9257POPC   C2B61880  21.629   0.366   6.750
 9257POPC   C3B61881  21.609   0.358   7.050
 9257POPC   C4B61882  21.671   0.325   7.350
 9258POPC   NC361883  33.819  43.914   5.550
 9258POPC   PO461884  33.784  43.926   5.850
 9258POPC   GL161885  33.811  43.902   6.150
 9258POPC   GL261886  33.922  44.020   6.150
 9258POPC   C1A61887  33.820  43.863   6.450
 9258POPC   D2A61888  33.777  43.898   6.750
 9258POPC   C3A61889  33.806  43.925   7.050
 9258POPC   C4A61890  33.840  43.927   7.350
 9258POPC   C1B61891  33.927  44.050   6.450
 9258POPC   C2B61892  33.994  44.028   6.750
 9258POPC   C3B61893  33.981  44.086   7.050
 9258POPC   C4B61894  33.922  44.118   7.350
 9259POPC   NC361895   9.008  35.339   5.550
 9259POPC   PO461896   8.966  35.381   5.850
 9259POPC   GL161897   8.962  35.391   6.150
 9259POPC   GL261898   8.908  35.242   6.150
 9259POPC   C1A61899   8.934  35.368   6.450
 9259POPC   D2A61900   8.923  35.348   6.750
 9259POPC   C3A61901   9.004  35.326   7.050
 9259POPC   C4A61902   9.009  35.339   7.350
 9259POPC   C1B61903   8.807  35.216   6.450
 9259POPC   C2B61904   8.786  35.264   6.750
 9259POPC   C3B61905   8.712  35.172   7.050
 9259POPC   C4B61906   8.795  35.186   7.350
 9260POPC   NC361907   7.395  22.942   5.550
 9260POPC   PO461908   7.466  22.980   5.850
 9260POPC   GL161909   7.455  22.960   6.150
 9260POPC   GL261910   7.464  23.025   6.150
 9260POPC   C1A61911   7.421  22.951   6.450
 9260POPC   D2A61912   7.398  22.931   6.750
 9260POPC   C3A61913   7.419  22.936   7.050
 9260POPC   C4A61914   7.428  22.982   7.350
 9260POPC   C1B61915   7.567  23.165   6.450
 9260POPC   C2B61916   7.551  23.156   6.750
 9260POPC   C3B61917   7.573  23.079   7.050
 9260POPC   C4B61918   7.614  23.079   7.350
 9261POPC   NC361919  38.433   5.835   5.550
 9261POPC   PO461920  38.465   5.908   5.850
 9261POPC   GL161921  38.488   5.836   6.150
 9261POPC   GL261922  38.300   5.903   6.150
 9261POPC   C1A61923  38.475   5.914   6.450
 9261POPC   D2A61924  38.494   5.872   6.750
 9261POPC   C3A61925  38.502   5.853   7.050
 9261POPC   C4A61926  38.475   5.835   7.350
 9261POPC   C1B61927  38.276   5.961   6.450
 9261POPC   C2B61928  38.229   6.012   6.750
 9261POPC   C3B61929  38.194   5.937   7.050
 9261POPC   C4B61930  38.192   5.937   7.350
 9262POPC   NC361931  12.104  12.030   5.550
 9262POPC   PO461932  12.031  12.121   5.850
 9262POPC   GL161933  12.042  12.090   6.150
 9262POPC   GL261934  12.051  12.211   6.150
 9262POPC   C1A61935  12.041  12.066   6.450
 9262POPC   D2A61936  12.106  12.030   6.750
 9262POPC   C3A61937  12.098  12.094   7.050
 9262POPC   C4A61938  12.125  12.038   7.350
 9262POPC   C1B61939  11.948  12.272   6.450
 9262POPC   C2B61940  11.973  12.311   6.750
 9262POPC   C3B61941  11.939  12.301   7.050
 9262POPC   C4B61942  11.894  12.262   7.350
 9263POPC   NC361943  15.908  38.484   5.550
 9263POPC   PO461944  15.983  38.415   5.850
 9263POPC   GL161945  16.001  38.492   6.150
 9263POPC   GL261946  16.104  38.519   6.150
 9263POPC   C1A61947  15.972  38.448   6.450
 9263POPC   D2A61948  15.966  38.490   6.750
 9263POPC   C3A61949  15.951  38.410   7.050
 9263POPC   C4A61950  15.987  38.444   7.350
 9263POPC   C1B61951  16.232  38.450   6.450
 9263POPC   C2B61952  16.216  38.479   6.750
 9263POPC   C3B61953  16.251  38.513   7.050
 9263POPC   C4B61954  16.244  38.495   7.350
 9264POPC   NC361955   9.019  11.349   5.550
 9264POPC   PO461956   8.964  11.316   5.850
 9264POPC   GL161957   9.022  11.299   6.150
 9264POPC   GL261958   9.142  11.309   6.150
 9264POPC   C1A61959   8.999  11.306   6.450
 9264POPC   D2A61960   9.012  11.337   6.750
 9264POPC   C3A61961   8.990  11.289   7.050
 9264POPC   C4A61962   8.997  11.349   7.350
 9264POPC   C1B61963   9.238  11.261   6.450
 9264POPC   C2B61964   9.206  11.283   6.750
 9264POPC   C3B61965   9.204  11.245   7.050
 9264POPC   C4B61966   9.223  11.256   7.350
 9265POPC   NC361967   2.807  15.130   5.550
 9265POPC   PO461968   2.731  15.172   5.850
 9265POPC   GL161969   2.747  15.220   6.150
 9265POPC   GL261970   2.845  15.274   6.150
 9265POPC   C1A61971   2.767  15.160   6.450
 9265POPC   D2A61972   2.736  15.137   6.750
 9265POPC   C3A61973   2.767  15.212   7.050
 9265POPC   C4A61974   2.726  15.132   7.350
 9265POPC   C1B61975   3.014  15.255   6.450
 9265POPC   C2B61976   2.994  15.232   6.750
 9265POPC   C3B61977   3.019  15.231   7.050
 9265POPC   C4B61978   2.970  15.316   7.350
 9266POPC   NC361979  28.403   1.177   5.550
 9266POPC   PO461980  28.354   1.165   5.850
 9266POPC   GL161981  28.400   1.250   6.150
 9266POPC   GL261982  28.336   1.340   6.150
 9266POPC   C1A61983  28.324   1.229   6.450
 9266POPC   D2A61984  28.346   1.220   6.750
 9266POPC   C3A61985  28.349   1.203   7.050
 9266POPC   C4A61986  28.346   1.187   7.350
 9266POPC   C1B61987  28.272   1.439   6.450
 9266POPC   C2B61988  28.204   1.431   6.750
 9266POPC   C3B61989  28.198   1.386   7.050
 9266POPC   C4B61990  28.191   1.417   7.350
 9267POPC   NC361991   4.285   7.456   5.550
 9267POPC   PO461992   4.275   7.455   5.850
 9267POPC   GL161993   4.357   7.424   6.150
 9267POPC   GL261994   4.192   7.489   6.150
 9267POPC   C1A61995   4.313   7.454   6.450
 9267POPC   D2A61996   4.306   7.467   6.750
 9267POPC   C3A61997   4.326   7.410   7.050
 9267POPC   C4A61998   4.316   7.416   7.350
 9267POPC   C1B61999   4.109   7.633   6.450
 9267POPC   C2B62000   4.159   7.560   6.750
 9267POPC   C3B62001   4.169   7.598   7.050
 9267POPC   C4B62002   4.145   7.646   7.350
 9268POPC   NC362003  21.345   6.684   5.550
 9268POPC   PO462004  21.365   6.612   5.850
 9268POPC   GL162005  21.435   6.630   6.150
 9268POPC   GL262006  21.513   6.602   6.150
 9268POPC   C1A62007  21.420   6.667   6.450
 9268POPC   D2A62008  21.345   6.629   6.750
 9268POPC   C3A62009  21.424   6.611   7.050
 9268POPC   C4A62010  21.373   6.671   7.350
 9268POPC   C1B62011  21.583   6.603   6.450
 9268POPC   C2B62012  21.608   6.527   6.750
 9268POPC   C3B62013  21.583   6.571   7.050
 9268POPC   C4B62014  21.637   6.561   7.350
 9269POPC   NC362015   0.482  19.015   5.550
 9269POPC   PO462016   0.420  19.086   5.850
 9269POPC   GL162017   0.392  19.106   6.150
 9269POPC   GL262018   0.516  19.107   6.150
 9269POPC   C1A62019   0.487  19.054   6.450
 9269POPC   D2A62020   0.393  19.014   6.750
 9269POPC   C3A62021   0.412  19.026   7.050
 9269POPC   C4A62022   0.412  19.062   7.350
 9269POPC   C1B62023   0.547  19.226   6.450
 9269POPC   C2B62024   0.613  19.242   6.750
 9269POPC   C3B62025   0.616  19.279   7.050
 9269POPC   C4B62026   0.611  19.288   7.350
 9270POPC   NC362027  43.902   8.189   5.550
 9270POPC   PO462028  43.840   8.153   5.850
 9270POPC   GL162029  43.907   8.150   6.150
 9270POPC   GL262030  44.009   8.207   6.150
 9270POPC   C1A62031  43.851   8.167   6.450
 9270POPC   D2A62032  43.927   8.173   6.750
 9270POPC   C3A62033  43.934   8.199   7.050
 9270POPC   C4A62034  43.849   8.191   7.350
 9270POPC   C1B62035  44.092   8.107   6.450
 9270POPC   C2B62036  44.102   8.120   6.750
 9270POPC   C3B62037  44.120   8.164   7.050
 9270POPC   C4B62038  44.149   8.141   7.350
 9271POPC   NC362039  20.591  15.226   5.550
 9271POPC   PO462040  20.606  15.169   5.850
 9271POPC   GL162041  20.600  15.183   6.150
 9271POPC   GL262042  20.533  15.068   6.150
 9271POPC   C1A62043  20.582  15.188   6.450
 9271POPC   D2A62044  20.619  15.154   6.750
 9271POPC   C3A62045  20.611  15.151   7.050
 9271POPC   C4A62046  20.643  15.214   7.350
 9271POPC   C1B62047  20.453  15.035   6.450
 9271POPC   C2B62048  20.442  14.985   6.750
 9271POPC   C3B62049  20.369  15.013   7.050
 9271POPC   C4B62050  20.460  15.047   7.350
 9272POPC   NC362051  18.258  12.812   5.550
 9272POPC   PO462052  18.267  12.818   5.850
 9272POPC   GL162053  18.316  12.878   6.150
 9272POPC   GL262054  18.278  12.715   6.150
 9272POPC   C1A62055  18.248  12.830   6.450
 9272POPC   D2A62056  18.258  12.891   6.750
 9272POPC   C3A62057  18.307  12.809   7.050
 9272POPC   C4A62058  18.261  12.825   7.350
 9272POPC   C1B62059  18.238  12.579   6.450
 9272POPC   C2B62060  18.309  12.583   6.750
 9272POPC   C3B62061  18.274  12.581   7.050
 9272POPC   C4B62062  18.248  12.620   7.350
 9273POPC   NC362063  21.391  27.595   5.550
 9273POPC   PO462064  21.356  27.551   5.850
 9273POPC   GL162065  21.385  27.544   6.150
 9273POPC   GL262066  21.398  27.697   6.150
 9273POPC   C1A62067  21.374  27.605   6.450
 9273POPC   D2A62068  21.418  27.635   6.750
 9273POPC   C3A62069  21.386  27.582   7.050
 9273POPC   C4A62070  21.418  27.593   7.350
 9273POPC   C1B62071  21.358  27.832   6.450
 9273POPC   C2B62072  21.306  27.786   6.750
 9273POPC   C3B62073  21.299  27.857   7.050
 9273POPC   C4B62074  21.355  27.789   7.350
 9274POPC   NC362075  15.187  37.635   5.550
 9274POPC   PO462076  15.177  37.631   5.850
 9274POPC   GL162077  15.164  37.713   6.150
 9274POPC   GL262078  15.112  37.569   6.150
 9274POPC   C1A62079  15.177  37.671   6.450
 9274POPC   D2A62080  15.131  37.641   6.750
 9274POPC   C3A62081  15.225  37.635   7.050
 9274POPC   C4A62082  15.148  37.682   7.350
 9274POPC   C1B62083  15.142  37.392   6.450
 9274POPC   C2B62084  15.129  37.483   6.750
 9274POPC   C3B62085  15.152  37.482   7.050
 9274POPC   C4B62086  15.143  37.462   7.350
 9275POPC   NC362087  21.402  22.131   5.550
 9275POPC   PO462088  21.407  22.204   5.850
 9275POPC   GL162089  21.410  22.210   6.150
 9275POPC   GL262090  21.299  22.119   6.150
 9275POPC   C1A62091  21.378  22.206   6.450
 9275POPC   D2A62092  21.382  22.164   6.750
 9275POPC   C3A62093  21.383  22.175   7.050
 9275POPC   C4A62094  21.373  22.193   7.350
 9275POPC   C1B62095  21.109  22.150   6.450
 9275POPC   C2B62096  21.161  22.200   6.750
 9275POPC   C3B62097  21.137  22.202   7.050
 9275POPC   C4B62098  21.170  22.174   7.350
 9276POPC   NC362099  22.140  20.603   5.550
 9276POPC   PO462100  22.123  20.616   5.850
 9276POPC   GL162101  22.169  20.610   6.150
 9276POPC   GL262102  22.028  20.536   6.150
 9276POPC   C1A62103  22.212  20.565   6.450
 9276POPC   D2A62104  22.199  20.639   6.750
 9276POPC   C3A62105  22.114  20.637   7.050
 9276POPC   C4A62106  22.198  20.618   7.350
 9276POPC   C1B62107  21.941  20.447   6.450
 9276POPC   C2B62108  21.974  20.486   6.750
 9276POPC   C3B62109  21.936  20.489   7.050
 9276POPC   C4B62110  21.931  20.493   7.350
 9277POPC   NC362111  34.601  28.347   5.550
 9277POPC   PO462112  34.567  28.392   5.850
 9277POPC   GL162113  34.549  28.394   6.150
 9277POPC   GL262114  34.563  28.251   6.150
 9277POPC   C1A62115  34.540  28.342   6.450
 9277POPC   D2A62116  34.585  28.330   6.750
 9277POPC   C3A62117  34.552  28.338   7.050
 9277POPC   C4A62118  34.544  28.355   7.350
 9277POPC   C1B62119  34.641  28.100   6.450
 9277POPC   C2B62120  34.604  28.165   6.750
 9277POPC   C3B62121  34.580  28.124   7.050
 9277POPC   C4B62122  34.627  28.096   7.350
 9278POPC   NC362123  42.289   7.391   5.550
 9278POPC   PO462124  42.356   7.442   5.850
 9278POPC   GL162125  42.363   7.400   6.150
 9278POPC   GL262126  42.204   7.288   6.150
 9278POPC   C1A62127  42.336   7.379   6.450
 9278POPC   D2A62128  42.292   7.416   6.750
 9278POPC   C3A62129  42.321   7.470   7.050
 9278POPC   C4A62130  42.302   7.379   7.350
 9278POPC   C1B62131  42.185   7.253   6.450
 9278POPC   C2B62132  42.200   7.291   6.750
 9278POPC   C3B62133  42.193   7.290   7.050
 9278POPC   C4B62134  42.113   7.203   7.350
 9279POPC   NC362135   2.815  25.222   5.550
 9279POPC   PO462136   2.780  25.219   5.850
 9279POPC   GL162137   2.776  25.304   6.150
 9279POPC   GL262138   2.880  25.379   6.150
 9279POPC   C1A62139   2.727  25.249   6.450
 9279POPC   D2A62140   2.718  25.288   6.750
 9279POPC   C3A62141   2.759  25.287   7.050
 9279POPC   C4A62142   2.748  25.241   7.350
 9279POPC   C1B62143   2.962  25.424   6.450
 9279POPC   C2B62144   3.019  25.455   6.750
 9279POPC   C3B62145   3.020  25.436   7.050
 9279POPC   C4B62146   2.973  25.364   7.350
 9280POPC   NC362147  41.605  27.581   5.550
 9280POPC   PO462148  41.531  27.551   5.850
 9280POPC   GL162149  41.540  27.619   6.150
 9280POPC   GL262150  41.465  27.533   6.150
 9280POPC   C1A62151  41.541  27.606   6.450
 9280POPC   D2A62152  41.511  27.610   6.750
 9280POPC   C3A62153  41.533  27.599   7.050
 9280POPC   C4A62154  41.524  27.596   7.350
 9280POPC   C1B62155  41.275  27.491   6.450
 9280POPC   C2B62156  41.345  27.522   6.750
 9280POPC   C3B62157  41.337  27.470   7.050
 9280POPC   C4B62158  41.316  27.502   7.350
 9281POPC   NC362159  12.835  36.896   5.550
 9281POPC   PO462160  12.838  36.930   5.850
 9281POPC   GL162161  12.815  36.876   6.150
 9281POPC   GL262162  12.780  36.847   6.150
 9281POPC   C1A62163  12.887  36.896   6.450
 9281POPC   D2A62164  12.814  36.888   6.750
 9281POPC   C3A62165  12.890  36.864   7.050
 9281POPC   C4A62166  12.815  36.867   7.350
 9281POPC   C1B62167  12.576  36.762   6.450
 9281POPC   C2B62168  12.598  36.790   6.750
 9281POPC   C3B62169  12.601  36.777   7.050
 9281POPC   C4B62170  12.639  36.767   7.350
 9282POPC   NC362171   0.424   6.679   5.550
 9282POPC   PO462172   0.464   6.597   5.850
 9282POPC   GL162173   0.480   6.689   6.150
 9282POPC   GL262174   0.423   6.534   6.150
 9282POPC   C1A62175   0.472   6.606   6.450
 9282POPC   D2A62176   0.457   6.629   6.750
 9282POPC   C3A62177   0.437   6.621   7.050
 9282POPC   C4A62178   0.474   6.645   7.350
 9282POPC   C1B62179   0.485   6.403   6.450
 9282POPC   C2B62180   0.415   6.371   6.750
 9282POPC   C3B62181   0.490   6.433   7.050
 9282POPC   C4B62182   0.499   6.390   7.350
 9283POPC   NC362183  22.987  12.045   5.550
 9283POPC   PO462184  22.965  12.112   5.850
 9283POPC   GL162185  22.930  12.116   6.150
 9283POPC   GL262186  22.906  12.002   6.150
 9283POPC   C1A62187  22.931  12.112   6.450
 9283POPC   D2A62188  22.955  12.115   6.750
 9283POPC   C3A62189  22.909  12.084   7.050
 9283POPC   C4A62190  22.898  12.089   7.350
 9283POPC   C1B62191  22.830  11.865   6.450
 9283POPC   C2B62192  22.887  11.809   6.750
 9283POPC   C3B62193  22.874  11.875   7.050
 9283POPC   C4B62194  22.839  11.832   7.350
 9284POPC   NC362195   5.905  34.543   5.550
 9284POPC   PO462196   5.855  34.620   5.850
 9284POPC   GL162197   5.885  34.576   6.150
 9284POPC   GL262198   5.899  34.638   6.150
 9284POPC   C1A62199   5.832  34.605   6.450
 9284POPC   D2A62200   5.902  34.596   6.750
 9284POPC   C3A62201   5.899  34.603   7.050
 9284POPC   C4A62202   5.877  34.528   7.350
 9284POPC   C1B62203   6.035  34.786   6.450
 9284POPC   C2B62204   6.028  34.774   6.750
 9284POPC   C3B62205   6.035  34.809   7.050
 9284POPC   C4B62206   5.949  34.744   7.350
 9285POPC   NC362207  20.613   2.732   5.550
 9285POPC   PO462208  20.622   2.802   5.850
 9285POPC   GL162209  20.634   2.773   6.150
 9285POPC   GL262210  20.717   2.837   6.150
 9285POPC   C1A62211  20.594   2.732   6.450
 9285POPC   D2A62212  20.626   2.738   6.750
 9285POPC   C3A62213  20.608   2.795   7.050
 9285POPC   C4A62214  20.646   2.737   7.350
 9285POPC   C1B62215  20.804   2.845   6.450
 9285POPC   C2B62216  20.839   2.864   6.750
 9285POPC   C3B62217  20.843   2.855   7.050
 9285POPC   C4B62218  20.825   2.800   7.350
 9286POPC   NC362219  13.634  30.723   5.550
 9286POPC   PO462220  13.646  30.700   5.850
 9286POPC   GL162221  13.638  30.735   6.150
 9286POPC   GL262222  13.527  30.679   6.150
 9286POPC   C1A62223  13.660  30.654   6.450
 9286POPC   D2A62224  13.610  30.660   6.750
 9286POPC   C3A62225  13.667  30.685   7.050
 9286POPC   C4A62226  13.654  30.696   7.350
 9286POPC   C1B62227  13.425  30.660   6.450
 9286POPC   C2B62228  13.331  30.716   6.750
 9286POPC   C3B62229  13.343  30.723   7.050
 9286POPC   C4B62230  13.354  30.730   7.350
 9287POPC   NC362231  36.861  39.244   5.550
 9287POPC   PO462232  36.884  39.216   5.850
 9287POPC   GL162233  36.867  39.181   6.150
 9287POPC   GL262234  37.019  39.318   6.150
 9287POPC   C1A62235  36.932  39.281   6.450
 9287POPC   D2A62236  36.897  39.245   6.750
 9287POPC   C3A62237  36.937  39.181   7.050
 9287POPC   C4A62238  36.939  39.189   7.350
 9287POPC   C1B62239  37.106  39.400   6.450
 9287POPC   C2B62240  37.060  39.420   6.750
 9287POPC   C3B62241  37.127  39.339   7.050
 9287POPC   C4B62242  37.053  39.387   7.350
 9288POPC   NC362243  14.435   5.899   5.550
 9288POPC   PO462244  14.392   5.824   5.850
 9288POPC   GL162245  14.392   5.901   6.150
 9288POPC   GL262246  14.300   5.795   6.150
 9288POPC   C1A62247  14.394   5.895   6.450
 9288POPC   D2A62248  14.408   5.891   6.750
 9288POPC   C3A62249  14.371   5.850   7.050
 9288POPC   C4A62250  14.373   5.860   7.350
 9288POPC   C1B62251  14.196   5.722   6.450
 9288POPC   C2B62252  14.198   5.776   6.750
 9288POPC   C3B62253  14.175   5.764   7.050
 9288POPC   C4B62254  14.212   5.770   7.350
 9289POPC   NC362255   2.735  27.594   5.550
 9289POPC   PO462256   2.778  27.611   5.850
 9289POPC   GL162257   2.746  27.615   6.150
 9289POPC   GL262258   2.679  27.529   6.150
 9289POPC   C1A62259   2.730  27.614   6.450
 9289POPC   D2A62260   2.760  27.602   6.750
 9289POPC   C3A62261   2.758  27.593   7.050
 9289POPC   C4A62262   2.781  27.601   7.350
 9289POPC   C1B62263   2.585  27.423   6.450
 9289POPC   C2B62264   2.619  27.379   6.750
 9289POPC   C3B62265   2.546  27.402   7.050
 9289POPC   C4B62266   2.557  27.402   7.350
 9290POPC   NC362267   3.591  44.628   5.550
 9290POPC   PO462268   3.515  44.683   5.850
 9290POPC   GL162269   3.535  44.681   6.150
 9290POPC   GL262270   3.632  44.571   6.150
 9290POPC   C1A62271   3.544  44.654   6.450
 9290POPC   D2A62272   3.495  44.683   6.750
 9290POPC   C3A62273   3.567  44.662   7.050
 9290POPC   C4A62274   3.499  44.641   7.350
 9290POPC   C1B62275   3.707  44.454   6.450
 9290POPC   C2B62276   3.718  44.454   6.750
 9290POPC   C3B62277   3.678  44.501   7.050
 9290POPC   C4B62278   3.741  44.435   7.350
 9291POPC   NC362279   1.227  42.376   5.550
 9291POPC   PO462280   1.166  42.305   5.850
 9291POPC   GL162281   1.256  42.333   6.150
 9291POPC   GL262282   1.138  42.258   6.150
 9291POPC   C1A62283   1.172  42.350   6.450
 9291POPC   D2A62284   1.234  42.352   6.750
 9291POPC   C3A62285   1.246  42.309   7.050
 9291POPC   C4A62286   1.179  42.290   7.350
 9291POPC   C1B62287   1.124  42.149   6.450
 9291POPC   C2B62288   1.154  42.126   6.750
 9291POPC   C3B62289   1.126  42.140   7.050
 9291POPC   C4B62290   1.090  42.055   7.350
 9292POPC   NC362291  15.975  30.667   5.550
 9292POPC   PO462292  15.956  30.691   5.850
 9292POPC   GL162293  15.995  30.689   6.150
 9292POPC   GL262294  15.843  30.696   6.150
 9292POPC   C1A62295  15.929  30.673   6.450
 9292POPC   D2A62296  15.950  30.675   6.750
 9292POPC   C3A62297  15.928  30.680   7.050
 9292POPC   C4A62298  15.952  30.729   7.350
 9292POPC   C1B62299  15.743  30.710   6.450
 9292POPC   C2B62300  15.657  30.651   6.750
 9292POPC   C3B62301  15.681  30.719   7.050
 9292POPC   C4B62302  15.674  30.676   7.350
 9293POPC   NC362303   7.454  36.941   5.550
 9293POPC   PO462304   7.430  36.889   5.850
 9293POPC   GL162305   7.388  36.938   6.150
 9293POPC   GL262306   7.474  36.746   6.150
 9293POPC   C1A62307   7.463  36.938   6.450
 9293POPC   D2A62308   7.442  36.878   6.750
 9293POPC   C3A62309   7.423  36.920   7.050
 9293POPC   C4A62310   7.375  36.880   7.350
 9293POPC   C1B62311   7.550  36.623   6.450
 9293POPC   C2B62312   7.540  36.689   6.750
 9293POPC   C3B62313   7.548  36.687   7.050
 9293POPC   C4B62314   7.521  36.679   7.350
 9294POPC   NC362315  26.794  10.528   5.550
 9294POPC   PO462316  26.862  10.537   5.850
 9294POPC   GL162317  26.851  10.512   6.150
 9294POPC   GL262318  26.665  10.554   6.150
 9294POPC   C1A62319  26.800  10.567   6.450
 9294POPC   D2A62320  26.814  10.496   6.750
 9294POPC   C3A62321  26.840  10.506   7.050
 9294POPC   C4A62322  26.827  10.504   7.350
 9294POPC   C1B62323  26.636  10.664   6.450
 9294POPC   C2B62324  26.574  10.615   6.750
 9294POPC   C3B62325  26.594  10.665   7.050
 9294POPC   C4B62326  26.572  10.614   7.350
 9295POPC   NC362327  36.922  26.812   5.550
 9295POPC   PO462328  36.859  26.822   5.850
 9295POPC   GL162329  36.892  26.773   6.150
 9295POPC   GL262330  36.964  26.745   6.150
 9295POPC   C1A62331  36.945  26.768   6.450
 9295POPC   D2A62332  36.901  26.836   6.750
 9295POPC   C3A62333  36.903  26.812   7.050
 9295POPC   C4A62334  36.941  26.770   7.350
 9295POPC   C1B62335  37.057  26.559   6.450
 9295POPC   C2B62336  37.057  26.589   6.750
 9295POPC   C3B62337  37.029  26.600   7.050
 9295POPC   C4B62338  37.003  26.647   7.350
 9296POPC   NC362339  43.093  14.388   5.550
 9296POPC   PO462340  43.089  14.423   5.850
 9296POPC   GL162341  43.090  14.400   6.150
 9296POPC   GL262342  43.196  14.383   6.150
 9296POPC   C1A62343  43.080  14.420   6.450
 9296POPC   D2A62344  43.107  14.453   6.750
 9296POPC   C3A62345  43.142  14.402   7.050
 9296POPC   C4A62346  43.157  14.434   7.350
 9296POPC   C1B62347  43.378  14.376   6.450
 9296POPC   C2B62348  43.312  14.410   6.750
 9296POPC   C3B62349  43.397  14.410   7.050
 9296POPC   C4B62350  43.398  14.401   7.350
 9297POPC   NC362351  24.453  19.045   5.550
 9297POPC   PO462352  24.479  19.094   5.850
 9297POPC   GL162353  24.463  19.048   6.150
 9297POPC   GL262354  24.562  19.176   6.150
 9297POPC   C1A62355  24.505  19.052   6.450
 9297POPC   D2A62356  24.494  19.088   6.750
 9297POPC   C3A62357  24.501  19.046   7.050
 9297POPC   C4A62358  24.492  19.026   7.350
 9297POPC   C1B62359  24.690  19.193   6.450
 9297POPC   C2B62360  24.667  19.161   6.750
 9297POPC   C3B62361  24.700  19.223   7.050
 9297POPC   C4B62362  24.722  19.208   7.350
 9298POPC   NC362363   5.918  27.601   5.550
 9298POPC   PO462364   5.860  27.577   5.850
 9298POPC   GL162365   5.913  27.641   6.150
 9298POPC   GL262366   5.788  27.671   6.150
 9298POPC   C1A62367   5.819  27.556   6.450
 9298POPC   D2A62368   5.833  27.632   6.750
 9298POPC   C3A62369   5.875  27.604   7.050
 9298POPC   C4A62370   5.863  27.628   7.350
 9298POPC   C1B62371   5.594  27.717   6.450
 9298POPC   C2B62372   5.649  27.711   6.750
 9298POPC   C3B62373   5.680  27.712   7.050
 9298POPC   C4B62374   5.633  27.712   7.350
 9299POPC   NC362375   1.246  22.193   5.550
 9299POPC   PO462376   1.242  22.171   5.850
 9299POPC   GL162377   1.170  22.166   6.150
 9299POPC   GL262378   1.137  22.190   6.150
 9299POPC   C1A62379   1.242  22.158   6.450
 9299POPC   D2A62380   1.226  22.179   6.750
 9299POPC   C3A62381   1.174  22.195   7.050
 9299POPC   C4A62382   1.241  22.196   7.350
 9299POPC   C1B62383   0.961  22.239   6.450
 9299POPC   C2B62384   0.969  22.305   6.750
 9299POPC   C3B62385   0.981  22.331   7.050
 9299POPC   C4B62386   1.021  22.252   7.350
 9300POPC   NC362387  31.434  22.160   5.550
 9300POPC   PO462388  31.460  22.182   5.850
 9300POPC   GL162389  31.430  22.171   6.150
 9300POPC   GL262390  31.460  22.057   6.150
 9300POPC   C1A62391  31.435  22.158   6.450
 9300POPC   D2A62392  31.506  22.187   6.750
 9300POPC   C3A62393  31.428  22.144   7.050
 9300POPC   C4A62394  31.508  22.157   7.350
 9300POPC   C1B62395  31.372  21.933   6.450
 9300POPC   C2B62396  31.402  21.929   6.750
 9300POPC   C3B62397  31.413  21.917   7.050
 9300POPC   C4B62398  31.381  21.917   7.350
 9301POPC   NC362399   9.788  16.726   5.550
 9301POPC   PO462400   9.711  16.780   5.850
 9301POPC   GL162401   9.766  16.736   6.150
 9301POPC   GL262402   9.868  16.670   6.150
 9301POPC   C1A62403   9.795  16.770   6.450
 9301POPC   D2A62404   9.700  16.756   6.750
 9301POPC   C3A62405   9.755  16.714   7.050
 9301POPC   C4A62406   9.790  16.687   7.350
 9301POPC   C1B62407   9.967  16.708   6.450
 9301POPC   C2B62408  10.003  16.711   6.750
 9301POPC   C3B62409   9.973  16.676   7.050
 9301POPC   C4B62410   9.949  16.733   7.350
 9302POPC   NC362411   5.875  29.895   5.550
 9302POPC   PO462412   5.821  29.953   5.850
 9302POPC   GL162413   5.833  29.950   6.150
 9302POPC   GL262414   5.810  29.996   6.150
 9302POPC   C1A62415   5.874  29.904   6.450
 9302POPC   D2A62416   5.872  29.887   6.750
 9302POPC   C3A62417   5.834  29.898   7.050
 9302POPC   C4A62418   5.878  29.918   7.350
 9302POPC   C1B62419   5.753  30.106   6.450
 9302POPC   C2B62420   5.763  30.177   6.750
 9302POPC   C3B62421   5.708  30.120   7.050
 9302POPC   C4B62422   5.759  30.102   7.350
 9303POPC   NC362423  22.956  10.547   5.550
 9303POPC   PO462424  22.966  10.566   5.850
 9303POPC   GL162425  22.918  10.547   6.150
 9303POPC   GL262426  23.039  10.637   6.150
 9303POPC   C1A62427  22.916  10.550   6.450
 9303POPC   D2A62428  22.924  10.561   6.750
 9303POPC   C3A62429  22.930  10.521   7.050
 9303POPC   C4A62430  22.913  10.514   7.350
 9303POPC   C1B62431  23.079  10.698   6.450
 9303POPC   C2B62432  23.135  10.733   6.750
 9303POPC   C3B62433  23.094  10.683   7.050
 9303POPC   C4B62434  23.093  10.729   7.350
 9304POPC   NC362435  19.037   6.637   5.550
 9304POPC   PO462436  19.032   6.645   5.850
 9304POPC   GL162437  19.102   6.632   6.150
 9304POPC   GL262438  19.132   6.730   6.150
 9304POPC   C1A62439  19.018   6.668   6.450
 9304POPC   D2A62440  19.040   6.633   6.750
 9304POPC   C3A62441  19.042   6.612   7.050
 9304POPC   C4A62442  19.065   6.680   7.350
 9304POPC   C1B62443  19.262   6.782   6.450
 9304POPC   C2B62444  19.306   6.838   6.750
 9304POPC   C3B62445  19.217   6.806   7.050
 9304POPC   C4B62446  19.235   6.801   7.350
 9305POPC   NC362447  29.133  36.951   5.550
 9305POPC   PO462448  29.170  36.893   5.850
 9305POPC   GL162449  29.096  36.884   6.150
 9305POPC   GL262450  29.165  36.757   6.150
 9305POPC   C1A62451  29.183  36.871   6.450
 9305POPC   D2A62452  29.142  36.898   6.750
 9305POPC   C3A62453  29.166  36.897   7.050
 9305POPC   C4A62454  29.189  36.859   7.350
 9305POPC   C1B62455  29.073  36.660   6.450
 9305POPC   C2B62456  29.061  36.687   6.750
 9305POPC   C3B62457  29.072  36.654   7.050
 9305POPC   C4B62458  29.132  36.613   7.350
 9306POPC   NC362459  34.565  21.397   5.550
 9306POPC   PO462460  34.618  21.393   5.850
 9306POPC   GL162461  34.556  21.371   6.150
 9306POPC   GL262462  34.560  21.222   6.150
 9306POPC   C1A62463  34.617  21.375   6.450
 9306POPC   D2A62464  34.535  21.395   6.750
 9306POPC   C3A62465  34.607  21.390   7.050
 9306POPC   C4A62466  34.536  21.377   7.350
 9306POPC   C1B62467  34.512  21.152   6.450
 9306POPC   C2B62468  34.545  21.166   6.750
 9306POPC   C3B62469  34.510  21.147   7.050
 9306POPC   C4B62470  34.536  21.098   7.350
 9307POPC   NC362471  22.199  41.520   5.550
 9307POPC   PO462472  22.131  41.562   5.850
 9307POPC   GL162473  22.139  41.582   6.150
 9307POPC   GL262474  22.209  41.658   6.150
 9307POPC   C1A62475  22.164  41.585   6.450
 9307POPC   D2A62476  22.115  41.512   6.750
 9307POPC   C3A62477  22.179  41.574   7.050
 9307POPC   C4A62478  22.177  41.540   7.350
 9307POPC   C1B62479  22.281  41.774   6.450
 9307POPC   C2B62480  22.271  41.805   6.750
 9307POPC   C3B62481  22.289  41.830   7.050
 9307POPC   C4B62482  22.279  41.748   7.350
 9308POPC   NC362483  31.478  38.405   5.550
 9308POPC   PO462484  31.429  38.463   5.850
 9308POPC   GL162485  31.522  38.480   6.150
 9308POPC   GL262486  31.320  38.442   6.150
 9308POPC   C1A62487  31.513  38.487   6.450
 9308POPC   D2A62488  31.507  38.419   6.750
 9308POPC   C3A62489  31.519  38.462   7.050
 9308POPC   C4A62490  31.455  38.433   7.350
 9308POPC   C1B62491  31.215  38.407   6.450
 9308POPC   C2B62492  31.243  38.390   6.750
 9308POPC   C3B62493  31.179  38.469   7.050
 9308POPC   C4B62494  31.210  38.469   7.350
 9309POPC   NC362495  18.329  17.542   5.550
 9309POPC   PO462496  18.314  17.499   5.850
 9309POPC   GL162497  18.236  17.466   6.150
 9309POPC   GL262498  18.324  17.648   6.150
 9309POPC   C1A62499  18.296  17.497   6.450
 9309POPC   D2A62500  18.307  17.522   6.750
 9309POPC   C3A62501  18.274  17.497   7.050
 9309POPC   C4A62502  18.269  17.546   7.350
 9309POPC   C1B62503  18.336  17.695   6.450
 9309POPC   C2B62504  18.401  17.737   6.750
 9309POPC   C3B62505  18.390  17.764   7.050
 9309POPC   C4B62506  18.335  17.749   7.350
 9310POPC   NC362507  15.905  24.532   5.550
 9310POPC   PO462508  15.941  24.460   5.850
 9310POPC   GL162509  15.963  24.524   6.150
 9310POPC   GL262510  15.973  24.400   6.150
 9310POPC   C1A62511  15.970  24.469   6.450
 9310POPC   D2A62512  15.941  24.512   6.750
 9310POPC   C3A62513  15.958  24.517   7.050
 9310POPC   C4A62514  15.989  24.459   7.350
 9310POPC   C1B62515  16.057  24.315   6.450
 9310POPC   C2B62516  16.027  24.313   6.750
 9310POPC   C3B62517  16.082  24.291   7.050
 9310POPC   C4B62518  16.038  24.228   7.350
 9311POPC   NC362519  13.581  34.596   5.550
 9311POPC   PO462520  13.670  34.556   5.850
 9311POPC   GL162521  13.627  34.587   6.150
 9311POPC   GL262522  13.658  34.487   6.150
 9311POPC   C1A62523  13.612  34.622   6.450
 9311POPC   D2A62524  13.578  34.618   6.750
 9311POPC   C3A62525  13.581  34.610   7.050
 9311POPC   C4A62526  13.643  34.538   7.350
 9311POPC   C1B62527  13.733  34.320   6.450
 9311POPC   C2B62528  13.668  34.323   6.750
 9311POPC   C3B62529  13.674  34.318   7.050
 9311POPC   C4B62530  13.707  34.349   7.350
 9312POPC   NC362531  31.434  40.779   5.550
 9312POPC   PO462532  31.517  40.768   5.850
 9312POPC   GL162533  31.469  40.807   6.150
 9312POPC   GL262534  31.473  40.684   6.150
 9312POPC   C1A62535  31.495  40.822   6.450
 9312POPC   D2A62536  31.437  40.763   6.750
 9312POPC   C3A62537  31.512  40.821   7.050
 9312POPC   C4A62538  31.500  40.742   7.350
 9312POPC   C1B62539  31.510  40.550   6.450
 9312POPC   C2B62540  31.525  40.560   6.750
 9312POPC   C3B62541  31.557  40.549   7.050
 9312POPC   C4B62542  31.519  40.550   7.350
 9313POPC   NC362543  29.936  20.609   5.550
 9313POPC   PO462544  29.961  20.601   5.850
 9313POPC   GL162545  29.928  20.569   6.150
 9313POPC   GL262546  29.808  20.582   6.150
 9313POPC   C1A62547  29.967  20.599   6.450
 9313POPC   D2A62548  29.954  20.579   6.750
 9313POPC   C3A62549  29.950  20.579   7.050
 9313POPC   C4A62550  29.889  20.651   7.350
 9313POPC   C1B62551  29.694  20.552   6.450
 9313POPC   C2B62552  29.689  20.472   6.750
 9313POPC   C3B62553  29.646  20.521   7.050
 9313POPC   C4B62554  29.667  20.558   7.350
 9314POPC   NC362555  12.027   3.512   5.550
 9314POPC   PO462556  12.055   3.514   5.850
 9314POPC   GL162557  12.110   3.586   6.150
 9314POPC   GL262558  12.197   3.447   6.150
 9314POPC   C1A62559  12.111   3.562   6.450
 9314POPC   D2A62560  12.125   3.501   6.750
 9314POPC   C3A62561  12.080   3.558   7.050
 9314POPC   C4A62562  12.122   3.542   7.350
 9314POPC   C1B62563  12.285   3.457   6.450
 9314POPC   C2B62564  12.325   3.456   6.750
 9314POPC   C3B62565  12.294   3.455   7.050
 9314POPC   C4B62566  12.306   3.428   7.350
 9315POPC   NC362567  10.523   5.086   5.550
 9315POPC   PO462568  10.544   5.124   5.850
 9315POPC   GL162569  10.476   5.114   6.150
 9315POPC   GL262570  10.434   4.970   6.150
 9315POPC   C1A62571  10.530   5.061   6.450
 9315POPC   D2A62572  10.568   5.044   6.750
 9315POPC   C3A62573  10.545   5.062   7.050
 9315POPC   C4A62574  10.507   5.119   7.350
 9315POPC   C1B62575  10.321   4.934   6.450
 9315POPC   C2B62576  10.361   4.885   6.750
 9315POPC   C3B62577  10.366   4.952   7.050
 9315POPC   C4B62578  10.324   4.934   7.350
 9316POPC   NC362579  33.066   5.839   5.550
 9316POPC   PO462580  33.001   5.907   5.850
 9316POPC   GL162581  33.003   5.904   6.150
 9316POPC   GL262582  32.947   5.844   6.150
 9316POPC   C1A62583  33.012   5.865   6.450
 9316POPC   D2A62584  32.998   5.862   6.750
 9316POPC   C3A62585  32.995   5.871   7.050
 9316POPC   C4A62586  32.986   5.834   7.350
 9316POPC   C1B62587  32.836   5.731   6.450
 9316POPC   C2B62588  32.823   5.673   6.750
 9316POPC   C3B62589  32.858   5.734   7.050
 9316POPC   C4B62590  32.826   5.712   7.350
 9317POPC   NC362591   5.848  10.545   5.550
 9317POPC   PO462592   5.891  10.539   5.850
 9317POPC   GL162593   5.907  10.501   6.150
 9317POPC   GL262594   5.862  10.610   6.150
 9317POPC   C1A62595   5.877  10.560   6.450
 9317POPC   D2A62596   5.881  10.519   6.750
 9317POPC   C3A62597   5.865  10.483   7.050
 9317POPC   C4A62598   5.836  10.516   7.350
 9317POPC   C1B62599   5.797  10.745   6.450
 9317POPC   C2B62600   5.819  10.705   6.750
 9317POPC   C3B62601   5.779  10.731   7.050
 9317POPC   C4B62602   5.805  10.710   7.350
 9318POPC   NC362603  28.402  30.685   5.550
 9318POPC   PO462604  28.394  30.677   5.850
 9318POPC   GL162605  28.377  30.690   6.150
 9318POPC   GL262606  28.279  30.616   6.150
 9318POPC   C1A62607  28.391  30.693   6.450
 9318POPC   D2A62608  28.346  30.740   6.750
 9318POPC   C3A62609  28.374  30.716   7.050
 9318POPC   C4A62610  28.361  30.746   7.350
 9318POPC   C1B62611  28.270  30.462   6.450
 9318POPC   C2B62612  28.293  30.520   6.750
 9318POPC   C3B62613  28.205  30.438   7.050
 9318POPC   C4B62614  28.263  30.525   7.350
 9319POPC   NC362615  25.251  28.354   5.550
 9319POPC   PO462616  25.271  28.328   5.850
 9319POPC   GL162617  25.247  28.401   6.150
 9319POPC   GL262618  25.225  28.440   6.150
 9319POPC   C1A62619  25.239  28.404   6.450
 9319POPC   D2A62620  25.246  28.419   6.750
 9319POPC   C3A62621  25.248  28.401   7.050
 9319POPC   C4A62622  25.250  28.404   7.350
 9319POPC   C1B62623  25.099  28.603   6.450
 9319POPC   C2B62624  25.069  28.514   6.750
 9319POPC   C3B62625  25.095  28.570   7.050
 9319POPC   C4B62626  25.126  28.547   7.350
 9320POPC   NC362627  17.543  22.888   5.550
 9320POPC   PO462628  17.460  22.978   5.850
 9320POPC   GL162629  17.532  22.952   6.150
 9320POPC   GL262630  17.362  22.969   6.150
 9320POPC   C1A62631  17.497  22.945   6.450
 9320POPC   D2A62632  17.491  22.931   6.750
 9320POPC   C3A62633  17.520  22.955   7.050
 9320POPC   C4A62634  17.553  22.922   7.350
 9320POPC   C1B62635  17.292  23.075   6.450
 9320POPC   C2B62636  17.256  22.995   6.750
 9320POPC   C3B62637  17.297  22.998   7.050
 9320POPC   C4B62638  17.230  23.050   7.350
 9321POPC   NC362639   5.124  39.240   5.550
 9321POPC   PO462640   5.077  39.274   5.850
 9321POPC   GL162641   5.083  39.237   6.150
 9321POPC   GL262642   5.186  39.390   6.150
 9321POPC   C1A62643   5.082  39.217   6.450
 9321POPC   D2A62644   5.120  39.278   6.750
 9321POPC   C3A62645   5.143  39.276   7.050
 9321POPC   C4A62646   5.124  39.241   7.350
 9321POPC   C1B62647   5.205  39.476   6.450
 9321POPC   C2B62648   5.139  39.414   6.750
 9321POPC   C3B62649   5.138  39.470   7.050
 9321POPC   C4B62650   5.161  39.487   7.350
 9322POPC   NC362651   8.173   8.196   5.550
 9322POPC   PO462652   8.188   8.212   5.850
 9322POPC   GL162653   8.232   8.157   6.150
 9322POPC   GL262654   8.212   8.285   6.150
 9322POPC   C1A62655   8.160   8.163   6.450
 9322POPC   D2A62656   8.157   8.153   6.750
 9322POPC   C3A62657   8.181   8.151   7.050
 9322POPC   C4A62658   8.164   8.170   7.350
 9322POPC   C1B62659   8.318   8.396   6.450
 9322POPC   C2B62660   8.267   8.441   6.750
 9322POPC   C3B62661   8.265   8.469   7.050
 9322POPC   C4B62662   8.262   8.443   7.350
 9323POPC   NC362663  13.635  16.756   5.550
 9323POPC   PO462664  13.591  16.699   5.850
 9323POPC   GL162665  13.674  16.725   6.150
 9323POPC   GL262666  13.702  16.767   6.150
 9323POPC   C1A62667  13.667  16.768   6.450
 9323POPC   D2A62668  13.666  16.693   6.750
 9323POPC   C3A62669  13.638  16.730   7.050
 9323POPC   C4A62670  13.636  16.750   7.350
 9323POPC   C1B62671  13.792  16.852   6.450
 9323POPC   C2B62672  13.865  16.939   6.750
 9323POPC   C3B62673  13.813  16.847   7.050
 9323POPC   C4B62674  13.803  16.894   7.350
 9324POPC   NC362675   8.947  24.487   5.550
 9324POPC   PO462676   8.994  24.532   5.850
 9324POPC   GL162677   8.965  24.505   6.150
 9324POPC   GL262678   9.043  24.579   6.150
 9324POPC   C1A62679   8.973  24.512   6.450
 9324POPC   D2A62680   8.936  24.468   6.750
 9324POPC   C3A62681   8.950  24.481   7.050
 9324POPC   C4A62682   8.965  24.463   7.350
 9324POPC   C1B62683   9.089  24.714   6.450
 9324POPC   C2B62684   9.136  24.710   6.750
 9324POPC   C3B62685   9.122  24.730   7.050
 9324POPC   C4B62686   9.104  24.674   7.350
 9325POPC   NC362687  39.978  12.807   5.550
 9325POPC   PO462688  40.045  12.855   5.850
 9325POPC   GL162689  40.017  12.872   6.150
 9325POPC   GL262690  39.952  12.751   6.150
 9325POPC   C1A62691  39.983  12.894   6.450
 9325POPC   D2A62692  39.998  12.865   6.750
 9325POPC   C3A62693  39.961  12.899   7.050
 9325POPC   C4A62694  39.988  12.849   7.350
 9325POPC   C1B62695  39.833  12.641   6.450
 9325POPC   C2B62696  39.845  12.602   6.750
 9325POPC   C3B62697  39.861  12.646   7.050
 9325POPC   C4B62698  39.853  12.628   7.350
 9326POPC   NC362699  41.543  41.524   5.550
 9326POPC   PO462700  41.564  41.578   5.850
 9326POPC   GL162701  41.548  41.524   6.150
 9326POPC   GL262702  41.704  41.664   6.150
 9326POPC   C1A62703  41.556  41.588   6.450
 9326POPC   D2A62704  41.564  41.530   6.750
 9326POPC   C3A62705  41.568  41.584   7.050
 9326POPC   C4A62706  41.532  41.541   7.350
 9326POPC   C1B62707  41.793  41.706   6.450
 9326POPC   C2B62708  41.793  41.704   6.750
 9326POPC   C3B62709  41.795  41.702   7.050
 9326POPC   C4B62710  41.747  41.736   7.350
 9327POPC   NC362711  32.978  35.308   5.550
 9327POPC   PO462712  33.033  35.359   5.850
 9327POPC   GL162713  33.030  35.397   6.150
 9327POPC   GL262714  33.146  35.361   6.150
 9327POPC   C1A62715  33.027  35.311   6.450
 9327POPC   D2A62716  32.996  35.338   6.750
 9327POPC   C3A62717  32.984  35.304   7.050
 9327POPC   C4A62718  33.029  35.384   7.350
 9327POPC   C1B62719  33.315  35.358   6.450
 9327POPC   C2B62720  33.285  35.317   6.750
 9327POPC   C3B62721  33.276  35.331   7.050
 9327POPC   C4B62722  33.232  35.307   7.350
 9328POPC   NC362723  27.600  36.855   5.550
 9328POPC   PO462724  27.604  36.930   5.850
 9328POPC   GL162725  27.564  36.931   6.150
 9328POPC   GL262726  27.564  37.074   6.150
 9328POPC   C1A62727  27.609  36.941   6.450
 9328POPC   D2A62728  27.569  36.906   6.750
 9328POPC   C3A62729  27.612  36.922   7.050
 9328POPC   C4A62730  27.574  36.864   7.350
 9328POPC   C1B62731  27.596  37.127   6.450
 9328POPC   C2B62732  27.588  37.130   6.750
 9328POPC   C3B62733  27.592  37.112   7.050
 9328POPC   C4B62734  27.632  37.188   7.350
 9329POPC   NC362735  32.245   5.077   5.550
 9329POPC   PO462736  32.199   5.061   5.850
 9329POPC   GL162737  32.261   5.086   6.150
 9329POPC   GL262738  32.305   5.003   6.150
 9329POPC   C1A62739  32.229   5.141   6.450
 9329POPC   D2A62740  32.267   5.096   6.750
 9329POPC   C3A62741  32.298   5.074   7.050
 9329POPC   C4A62742  32.264   5.138   7.350
 9329POPC   C1B62743  32.321   4.886   6.450
 9329POPC   C2B62744  32.374   4.887   6.750
 9329POPC   C3B62745  32.322   4.913   7.050
 9329POPC   C4B62746  32.347   4.887   7.350
 9330POPC   NC362747  23.752  19.030   5.550
 9330POPC   PO462748  23.697  19.105   5.850
 9330POPC   GL162749  23.691  19.109   6.150
 9330POPC   GL262750  23.728  18.904   6.150
 9330POPC   C1A62751  23.738  19.072   6.450
 9330POPC   D2A62752  23.699  19.016   6.750
 9330POPC   C3A62753  23.704  19.036   7.050
 9330POPC   C4A62754  23.674  19.070   7.350
 9330POPC   C1B62755  23.735  18.787   6.450
 9330POPC   C2B62756  23.781  18.837   6.750
 9330POPC   C3B62757  23.738  18.862   7.050
 9330POPC   C4B62758  23.716  18.774   7.350
 9331POPC   NC362759  22.155  35.401   5.550
 9331POPC   PO462760  22.153  35.317   5.850
 9331POPC   GL162761  22.124  35.345   6.150
 9331POPC   GL262762  22.071  35.254   6.150
 9331POPC   C1A62763  22.178  35.311   6.450
 9331POPC   D2A62764  22.161  35.321   6.750
 9331POPC   C3A62765  22.209  35.327   7.050
 9331POPC   C4A62766  22.206  35.338   7.350
 9331POPC   C1B62767  22.034  35.092   6.450
 9331POPC   C2B62768  22.027  35.156   6.750
 9331POPC   C3B62769  22.017  35.126   7.050
 9331POPC   C4B62770  22.057  35.147   7.350
 9332POPC   NC362771   5.895  37.708   5.550
 9332POPC   PO462772   5.846  37.703   5.850
 9332POPC   GL162773   5.889  37.688   6.150
 9332POPC   GL262774   5.952  37.593   6.150
 9332POPC   C1A62775   5.828  37.655   6.450
 9332POPC   D2A62776   5.877  37.725   6.750
 9332POPC   C3A62777   5.869  37.651   7.050
 9332POPC   C4A62778   5.917  37.675   7.350
 9332POPC   C1B62779   6.000  37.478   6.450
 9332POPC   C2B62780   5.979  37.482   6.750
 9332POPC   C3B62781   5.953  37.497   7.050
 9332POPC   C4B62782   5.943  37.408   7.350
 9333POPC   NC362783  33.758  30.690   5.550
 9333POPC   PO462784  33.843  30.725   5.850
 9333POPC   GL162785  33.804  30.726   6.150
 9333POPC   GL262786  33.716  30.559   6.150
 9333POPC   C1A62787  33.804  30.712   6.450
 9333POPC   D2A62788  33.808  30.692   6.750
 9333POPC   C3A62789  33.798  30.675   7.050
 9333POPC   C4A62790  33.753  30.650   7.350
 9333POPC   C1B62791  33.647  30.436   6.450
 9333POPC   C2B62792  33.736  30.491   6.750
 9333POPC   C3B62793  33.665  30.505   7.050
 9333POPC   C4B62794  33.704  30.423   7.350
 9334POPC   NC362795   4.345  22.925   5.550
 9334POPC   PO462796   4.351  22.942   5.850
 9334POPC   GL162797   4.308  22.937   6.150
 9334POPC   GL262798   4.209  22.960   6.150
 9334POPC   C1A62799   4.366  22.978   6.450
 9334POPC   D2A62800   4.349  22.970   6.750
 9334POPC   C3A62801   4.355  22.951   7.050
 9334POPC   C4A62802   4.293  22.937   7.350
 9334POPC   C1B62803   4.118  23.046   6.450
 9334POPC   C2B62804   4.127  23.014   6.750
 9334POPC   C3B62805   4.036  23.024   7.050
 9334POPC   C4B62806   4.029  23.025   7.350
 9335POPC   NC362807  34.599  43.083   5.550
 9335POPC   PO462808  34.539  43.120   5.850
 9335POPC   GL162809  34.597  43.062   6.150
 9335POPC   GL262810  34.417  43.149   6.150
 9335POPC   C1A62811  34.616  43.149   6.450
 9335POPC   D2A62812  34.589  43.067   6.750
 9335POPC   C3A62813  34.543  43.149   7.050
 9335POPC   C4A62814  34.588  43.112   7.350
 9335POPC   C1B62815  34.355  43.159   6.450
 9335POPC   C2B62816  34.334  43.091   6.750
 9335POPC   C3B62817  34.374  43.160   7.050
 9335POPC   C4B62818  34.368  43.108   7.350
 9336POPC   NC362819   5.889  43.071   5.550
 9336POPC   PO462820   5.883  43.068   5.850
 9336POPC   GL162821   5.883  43.065   6.150
 9336POPC   GL262822   5.865  43.226   6.150
 9336POPC   C1A62823   5.840  43.154   6.450
 9336POPC   D2A62824   5.899  43.121   6.750
 9336POPC   C3A62825   5.859  43.092   7.050
 9336POPC   C4A62826   5.828  43.147   7.350
 9336POPC   C1B62827   5.775  43.363   6.450
 9336POPC   C2B62828   5.819  43.349   6.750
 9336POPC   C3B62829   5.767  43.387   7.050
 9336POPC   C4B62830   5.783  43.349   7.350
 9337POPC   NC362831  30.682  12.876   5.550
 9337POPC   PO462832  30.725  12.815   5.850
 9337POPC   GL162833  30.700  12.857   6.150
 9337POPC   GL262834  30.579  12.849   6.150
 9337POPC   C1A62835  30.738  12.822   6.450
 9337POPC   D2A62836  30.735  12.839   6.750
 9337POPC   C3A62837  30.682  12.887   7.050
 9337POPC   C4A62838  30.697  12.885   7.350
 9337POPC   C1B62839  30.436  12.884   6.450
 9337POPC   C2B62840  30.418  12.901   6.750
 9337POPC   C3B62841  30.461  12.922   7.050
 9337POPC   C4B62842  30.408  12.919   7.350
 9338POPC   NC362843   8.148  29.149   5.550
 9338POPC   PO462844   8.176  29.100   5.850
 9338POPC   GL162845   8.199  29.150   6.150
 9338POPC   GL262846   8.224  29.294   6.150
 9338POPC   C1A62847   8.210  29.153   6.450
 9338POPC   D2A62848   8.178  29.179   6.750
 9338POPC   C3A62849   8.170  29.126   7.050
 9338POPC   C4A62850   8.162  29.178   7.350
 9338POPC   C1B62851   8.217  29.388   6.450
 9338POPC   C2B62852   8.238  29.355   6.750
 9338POPC   C3B62853   8.238  29.437   7.050
 9338POPC   C4B62854   8.266  29.423   7.350
 9339POPC   NC362855  19.848   6.651   5.550
 9339POPC   PO462856  19.848   6.619   5.850
 9339POPC   GL162857  19.804   6.672   6.150
 9339POPC   GL262858  19.778   6.545   6.150
 9339POPC   C1A62859  19.796   6.677   6.450
 9339POPC   D2A62860  19.880   6.627   6.750
 9339POPC   C3A62861  19.820   6.610   7.050
 9339POPC   C4A62862  19.841   6.693   7.350
 9339POPC   C1B62863  19.654   6.527   6.450
 9339POPC   C2B62864  19.673   6.530   6.750
 9339POPC   C3B62865  19.639   6.529   7.050
 9339POPC   C4B62866  19.686   6.496   7.350
 9340POPC   NC362867   1.974  22.197   5.550
 9340POPC   PO462868   1.976  22.140   5.850
 9340POPC   GL162869   2.002  22.161   6.150
 9340POPC   GL262870   2.125  22.224   6.150
 9340POPC   C1A62871   1.993  22.173   6.450
 9340POPC   D2A62872   1.980  22.125   6.750
 9340POPC   C3A62873   1.998  22.190   7.050
 9340POPC   C4A62874   1.962  22.187   7.350
 9340POPC   C1B62875   2.207  22.199   6.450
 9340POPC   C2B62876   2.208  22.178   6.750
 9340POPC   C3B62877   2.192  22.252   7.050
 9340POPC   C4B62878   2.258  22.198   7.350
 9341POPC   NC362879   5.863  22.893   5.550
 9341POPC   PO462880   5.865  22.964   5.850
 9341POPC   GL162881   5.822  22.942   6.150
 9341POPC   GL262882   5.760  22.990   6.150
 9341POPC   C1A62883   5.874  22.921   6.450
 9341POPC   D2A62884   5.895  22.927   6.750
 9341POPC   C3A62885   5.820  22.968   7.050
 9341POPC   C4A62886   5.855  22.966   7.350
 9341POPC   C1B62887   5.623  22.955   6.450
 9341POPC   C2B62888   5.637  22.979   6.750
 9341POPC   C3B62889   5.655  22.947   7.050
 9341POPC   C4B62890   5.597  22.951   7.350
 9342POPC   NC362891   4.322  30.659   5.550
 9342POPC   PO462892   4.306  30.735   5.850
 9342POPC   GL162893   4.358  30.664   6.150
 9342POPC   GL262894   4.301  30.572   6.150
 9342POPC   C1A62895   4.334  30.743   6.450
 9342POPC   D2A62896   4.357  30.697   6.750
 9342POPC   C3A62897   4.303  30.660   7.050
 9342POPC   C4A62898   4.307  30.744   7.350
 9342POPC   C1B62899   4.241  30.429   6.450
 9342POPC   C2B62900   4.211  30.435   6.750
 9342POPC   C3B62901   4.231  30.441   7.050
 9342POPC   C4B62902   4.241  30.442   7.350
 9343POPC   NC362903   0.441  14.365   5.550
 9343POPC   PO462904   0.407  14.372   5.850
 9343POPC   GL162905   0.454  14.410   6.150
 9343POPC   GL262906   0.459  14.251   6.150
 9343POPC   C1A62907   0.390  14.380   6.450
 9343POPC   D2A62908   0.485  14.428   6.750
 9343POPC   C3A62909   0.462  14.399   7.050
 9343POPC   C4A62910   0.447  14.447   7.350
 9343POPC   C1B62911   0.503  14.146   6.450
 9343POPC   C2B62912   0.460  14.143   6.750
 9343POPC   C3B62913   0.463  14.175   7.050
 9343POPC   C4B62914   0.448  14.189   7.350
 9344POPC   NC362915   1.974  28.343   5.550
 9344POPC   PO462916   2.023  28.415   5.850
 9344POPC   GL162917   1.991  28.350   6.150
 9344POPC   GL262918   1.932  28.494   6.150
 9344POPC   C1A62919   1.958  28.361   6.450
 9344POPC   D2A62920   2.018  28.362   6.750
 9344POPC   C3A62921   1.979  28.396   7.050
 9344POPC   C4A62922   1.971  28.406   7.350
 9344POPC   C1B62923   1.876  28.551   6.450
 9344POPC   C2B62924   1.896  28.637   6.750
 9344POPC   C3B62925   1.843  28.599   7.050
 9344POPC   C4B62926   1.870  28.612   7.350
 9345POPC   NC362927  43.063  19.816   5.550
 9345POPC   PO462928  43.128  19.809   5.850
 9345POPC   GL162929  43.152  19.789   6.150
 9345POPC   GL262930  43.021  19.813   6.150
 9345POPC   C1A62931  43.063  19.861   6.450
 9345POPC   D2A62932  43.072  19.837   6.750
 9345POPC   C3A62933  43.083  19.850   7.050
 9345POPC   C4A62934  43.106  19.825   7.350
 9345POPC   C1B62935  42.858  19.818   6.450
 9345POPC   C2B62936  42.887  19.862   6.750
 9345POPC   C3B62937  42.896  19.872   7.050
 9345POPC   C4B62938  42.835  19.867   7.350
 9346POPC   NC362939  44.643   4.331   5.550
 9346POPC   PO462940  44.638   4.336   5.850
 9346POPC   GL162941  44.665   4.313   6.150
 9346POPC   GL262942  44.812   4.401   6.150
 9346POPC   C1A62943  44.657   4.272   6.450
 9346POPC   D2A62944  44.690   4.274   6.750
 9346POPC   C3A62945  44.706   4.353   7.050
 9346POPC   C4A62946  44.623   4.299   7.350
 9346POPC   C1B62947  44.899   4.423   6.450
 9346POPC   C2B62948  44.849   4.469   6.750
 9346POPC   C3B62949  44.850   4.473   7.050
 9346POPC   C4B62950  44.888   4.459   7.350
 9347POPC   NC362951  25.298  35.344   5.550
 9347POPC   PO462952  25.223  35.317   5.850
 9347POPC   GL162953  25.249  35.310   6.150
 9347POPC   GL262954  25.148  35.374   6.150
 9347POPC   C1A62955  25.260  35.384   6.450
 9347POPC   D2A62956  25.273  35.344   6.750
 9347POPC   C3A62957  25.295  35.317   7.050
 9347POPC   C4A62958  25.238  35.392   7.350
 9347POPC   C1B62959  24.968  35.346   6.450
 9347POPC   C2B62960  25.013  35.393   6.750
 9347POPC   C3B62961  25.041  35.331   7.050
 9347POPC   C4B62962  24.991  35.318   7.350
 9348POPC   NC362963   2.737  30.667   5.550
 9348POPC   PO462964   2.768  30.728   5.850
 9348POPC   GL162965   2.790  30.669   6.150
 9348POPC   GL262966   2.756  30.581   6.150
 9348POPC   C1A62967   2.767  30.663   6.450
 9348POPC   D2A62968   2.752  30.698   6.750
 9348POPC   C3A62969   2.779  30.657   7.050
 9348POPC   C4A62970   2.720  30.699   7.350
 9348POPC   C1B62971   2.723  30.492   6.450
 9348POPC   C2B62972   2.728  30.415   6.750
 9348POPC   C3B62973   2.719  30.483   7.050
 9348POPC   C4B62974   2.713  30.448   7.350
 9349POPC   NC362975  25.262   0.458   5.550
 9349POPC   PO462976  25.271   0.415   5.850
 9349POPC   GL162977  25.311   0.415   6.150
 9349POPC   GL262978  25.357   0.305   6.150
 9349POPC   C1A62979  25.240   0.474   6.450
 9349POPC   D2A62980  25.237   0.470   6.750
 9349POPC   C3A62981  25.243   0.466   7.050
 9349POPC   C4A62982  25.282   0.458   7.350
 9349POPC   C1B62983  25.386   0.281   6.450
 9349POPC   C2B62984  25.431   0.245   6.750
 9349POPC   C3B62985  25.453   0.230   7.050
 9349POPC   C4B62986  25.423   0.273   7.350
 9350POPC   NC362987   8.190  34.533   5.550
 9350POPC   PO462988   8.231  34.554   5.850
 9350POPC   GL162989   8.245  34.533   6.150
 9350POPC   GL262990   8.226  34.500   6.150
 9350POPC   C1A62991   8.174  34.539   6.450
 9350POPC   D2A62992   8.158  34.527   6.750
 9350POPC   C3A62993   8.180  34.600   7.050
 9350POPC   C4A62994   8.240  34.552   7.350
 9350POPC   C1B62995   8.306  34.366   6.450
 9350POPC   C2B62996   8.281  34.360   6.750
 9350POPC   C3B62997   8.318  34.309   7.050
 9350POPC   C4B62998   8.279  34.306   7.350
 9351POPC   NC362999   5.132  25.292   5.550
 9351POPC   PO463000   5.105  25.263   5.850
 9351POPC   GL163001   5.109  25.296   6.150
 9351POPC   GL263002   5.043  25.337   6.150
 9351POPC   C1A63003   5.087  25.236   6.450
 9351POPC   D2A63004   5.107  25.272   6.750
 9351POPC   C3A63005   5.108  25.238   7.050
 9351POPC   C4A63006   5.107  25.278   7.350
 9351POPC   C1B63007   4.923  25.447   6.450
 9351POPC   C2B63008   4.918  25.389   6.750
 9351POPC   C3B63009   4.892  25.451   7.050
 9351POPC   C4B63010   4.909  25.437   7.350
 9352POPC   NC363011  32.206  37.640   5.550
 9352POPC   PO463012  32.229  37.704   5.850
 9352POPC   GL163013  32.261  37.692   6.150
 9352POPC   GL263014  32.310  37.802   6.150
 9352POPC   C1A63015  32.229  37.676   6.450
 9352POPC   D2A63016  32.244  37.672   6.750
 9352POPC   C3A63017  32.273  37.679   7.050
 9352POPC   C4A63018  32.260  37.677   7.350
 9352POPC   C1B63019  32.500  37.846   6.450
 9352POPC   C2B63020  32.416  37.856   6.750
 9352POPC   C3B63021  32.401  37.801   7.050
 9352POPC   C4B63022  32.472  37.830   7.350
 9353POPC   NC363023  15.966  31.511   5.550
 9353POPC   PO463024  15.992  31.483   5.850
 9353POPC   GL163025  15.905  31.464   6.150
 9353POPC   GL263026  16.077  31.518   6.150
 9353POPC   C1A63027  15.914  31.435   6.450
 9353POPC   D2A63028  15.916  31.436   6.750
 9353POPC   C3A63029  15.942  31.514   7.050
 9353POPC   C4A63030  15.988  31.464   7.350
 9353POPC   C1B63031  16.243  31.476   6.450
 9353POPC   C2B63032  16.229  31.465   6.750
 9353POPC   C3B63033  16.224  31.446   7.050
 9353POPC   C4B63034  16.211  31.479   7.350
 9354POPC   NC363035  31.484  40.052   5.550
 9354POPC   PO463036  31.502  40.043   5.850
 9354POPC   GL163037  31.459  40.012   6.150
 9354POPC   GL263038  31.462  39.872   6.150
 9354POPC   C1A63039  31.423  40.031   6.450
 9354POPC   D2A63040  31.467  40.038   6.750
 9354POPC   C3A63041  31.498  39.995   7.050
 9354POPC   C4A63042  31.518  40.055   7.350
 9354POPC   C1B63043  31.500  39.795   6.450
 9354POPC   C2B63044  31.487  39.721   6.750
 9354POPC   C3B63045  31.476  39.792   7.050
 9354POPC   C4B63046  31.516  39.752   7.350
 9355POPC   NC363047   5.064  13.579   5.550
 9355POPC   PO463048   5.142  13.633   5.850
 9355POPC   GL163049   5.046  13.671   6.150
 9355POPC   GL263050   5.161  13.761   6.150
 9355POPC   C1A63051   5.082  13.584   6.450
 9355POPC   D2A63052   5.112  13.603   6.750
 9355POPC   C3A63053   5.082  13.637   7.050
 9355POPC   C4A63054   5.093  13.608   7.350
 9355POPC   C1B63055   5.184  13.915   6.450
 9355POPC   C2B63056   5.115  13.907   6.750
 9355POPC   C3B63057   5.147  13.895   7.050
 9355POPC   C4B63058   5.112  13.915   7.350
 9356POPC   NC363059  40.003  30.658   5.550
 9356POPC   PO463060  40.006  30.655   5.850
 9356POPC   GL163061  39.980  30.673   6.150
 9356POPC   GL263062  39.982  30.544   6.150
 9356POPC   C1A63063  39.970  30.679   6.450
 9356POPC   D2A63064  40.028  30.735   6.750
 9356POPC   C3A63065  39.966  30.688   7.050
 9356POPC   C4A63066  39.972  30.736   7.350
 9356POPC   C1B63067  39.990  30.451   6.450
 9356POPC   C2B63068  39.974  30.476   6.750
 9356POPC   C3B63069  40.017  30.431   7.050
 9356POPC   C4B63070  39.946  30.466   7.350
 9357POPC   NC363071  40.815   9.705   5.550
 9357POPC   PO463072  40.763   9.709   5.850
 9357POPC   GL163073  40.785   9.703   6.150
 9357POPC   GL263074  40.881   9.741   6.150
 9357POPC   C1A63075  40.807   9.796   6.450
 9357POPC   D2A63076  40.782   9.759   6.750
 9357POPC   C3A63077  40.749   9.745   7.050
 9357POPC   C4A63078  40.823   9.747   7.350
 9357POPC   C1B63079  41.019   9.759   6.450
 9357POPC   C2B63080  41.070   9.786   6.750
 9357POPC   C3B63081  41.061   9.778   7.050
 9357POPC   C4B63082  40.985   9.744   7.350
 9358POPC   NC363083  36.885   9.724   5.550
 9358POPC   PO463084  36.919   9.706   5.850
 9358POPC   GL163085  36.908   9.754   6.150
 9358POPC   GL263086  36.844   9.635   6.150
 9358POPC   C1A63087  36.860   9.784   6.450
 9358POPC   D2A63088  36.859   9.787   6.750
 9358POPC   C3A63089  36.888   9.743   7.050
 9358POPC   C4A63090  36.918   9.786   7.350
 9358POPC   C1B63091  36.729   9.618   6.450
 9358POPC   C2B63092  36.683   9.550   6.750
 9358POPC   C3B63093  36.749   9.558   7.050
 9358POPC   C4B63094  36.721   9.624   7.350
 9359POPC   NC363095   2.022   0.434   5.550
 9359POPC   PO463096   2.015   0.450   5.850
 9359POPC   GL163097   1.971   0.418   6.150
 9359POPC   GL263098   2.076   0.474   6.150
 9359POPC   C1A63099   2.026   0.478   6.450
 9359POPC   D2A63100   1.976   0.444   6.750
 9359POPC   C3A63101   1.941   0.474   7.050
 9359POPC   C4A63102   1.990   0.464   7.350
 9359POPC   C1B63103   2.285   0.475   6.450
 9359POPC   C2B63104   2.227   0.407   6.750
 9359POPC   C3B63105   2.245   0.439   7.050
 9359POPC   C4B63106   2.218   0.421   7.350
 9360POPC   NC363107  42.312   6.645   5.550
 9360POPC   PO463108  42.288   6.672   5.850
 9360POPC   GL163109  42.328   6.623   6.150
 9360POPC   GL263110  42.401   6.582   6.150
 9360POPC   C1A63111  42.381   6.599   6.450
 9360POPC   D2A63112  42.354   6.633   6.750
 9360POPC   C3A63113  42.323   6.637   7.050
 9360POPC   C4A63114  42.330   6.644   7.350
 9360POPC   C1B63115  42.435   6.412   6.450
 9360POPC   C2B63116  42.458   6.478   6.750
 9360POPC   C3B63117  42.508   6.443   7.050
 9360POPC   C4B63118  42.502   6.423   7.350
 9361POPC   NC363119  32.205  30.667   5.550
 9361POPC   PO463120  32.233  30.711   5.850
 9361POPC   GL163121  32.260  30.723   6.150
 9361POPC   GL263122  32.317  30.582   6.150
 9361POPC   C1A63123  32.272  30.718   6.450
 9361POPC   D2A63124  32.290  30.702   6.750
 9361POPC   C3A63125  32.270  30.725   7.050
 9361POPC   C4A63126  32.209  30.656   7.350
 9361POPC   C1B63127  32.441  30.500   6.450
 9361POPC   C2B63128  32.418  30.464   6.750
 9361POPC   C3B63129  32.444  30.489   7.050
 9361POPC   C4B63130  32.443  30.517   7.350
 9362POPC   NC363131  14.415   2.032   5.550
 9362POPC   PO463132  14.442   2.032   5.850
 9362POPC   GL163133  14.387   1.947   6.150
 9362POPC   GL263134  14.477   1.855   6.150
 9362POPC   C1A63135  14.418   1.970   6.450
 9362POPC   D2A63136  14.386   2.001   6.750
 9362POPC   C3A63137  14.368   1.967   7.050
 9362POPC   C4A63138  14.376   1.987   7.350
 9362POPC   C1B63139  14.611   1.794   6.450
 9362POPC   C2B63140  14.575   1.764   6.750
 9362POPC   C3B63141  14.611   1.844   7.050
 9362POPC   C4B63142  14.606   1.840   7.350
 9363POPC   NC363143  33.790  18.234   5.550
 9363POPC   PO463144  33.806  18.261   5.850
 9363POPC   GL163145  33.785  18.239   6.150
 9363POPC   GL263146  33.717  18.339   6.150
 9363POPC   C1A63147  33.778  18.275   6.450
 9363POPC   D2A63148  33.767  18.239   6.750
 9363POPC   C3A63149  33.789  18.317   7.050
 9363POPC   C4A63150  33.776  18.265   7.350
 9363POPC   C1B63151  33.540  18.353   6.450
 9363POPC   C2B63152  33.513  18.383   6.750
 9363POPC   C3B63153  33.546  18.336   7.050
 9363POPC   C4B63154  33.513  18.313   7.350
 9364POPC   NC363155  12.084  19.011   5.550
 9364POPC   PO463156  12.037  19.091   5.850
 9364POPC   GL163157  12.115  19.092   6.150
 9364POPC   GL263158  12.219  18.994   6.150
 9364POPC   C1A63159  12.071  19.011   6.450
 9364POPC   D2A63160  12.063  19.034   6.750
 9364POPC   C3A63161  12.114  19.050   7.050
 9364POPC   C4A63162  12.091  19.040   7.350
 9364POPC   C1B63163  12.222  18.921   6.450
 9364POPC   C2B63164  12.305  18.875   6.750
 9364POPC   C3B63165  12.262  18.923   7.050
 9364POPC   C4B63166  12.232  18.857   7.350
 9365POPC   NC363167  37.703  30.681   5.550
 9365POPC   PO463168  37.679  30.703   5.850
 9365POPC   GL163169  37.693  30.735   6.150
 9365POPC   GL263170  37.591  30.724   6.150
 9365POPC   C1A63171  37.723  30.696   6.450
 9365POPC   D2A63172  37.712  30.727   6.750
 9365POPC   C3A63173  37.715  30.720   7.050
 9365POPC   C4A63174  37.725  30.691   7.350
 9365POPC   C1B63175  37.410  30.694   6.450
 9365POPC   C2B63176  37.419  30.689   6.750
 9365POPC   C3B63177  37.457  30.646   7.050
 9365POPC   C4B63178  37.406  30.683   7.350
 9366POPC   NC363179  19.807   0.458   5.550
 9366POPC   PO463180  19.796   0.458   5.850
 9366POPC   GL163181  19.847   0.398   6.150
 9366POPC   GL263182  19.758   0.490   6.150
 9366POPC   C1A63183  19.847   0.421   6.450
 9366POPC   D2A63184  19.849   0.419   6.750
 9366POPC   C3A63185  19.806   0.475   7.050
 9366POPC   C4A63186  19.850   0.462   7.350
 9366POPC   C1B63187  19.644   0.616   6.450
 9366POPC   C2B63188  19.662   0.606   6.750
 9366POPC   C3B63189  19.713   0.657   7.050
 9366POPC   C4B63190  19.654   0.620   7.350
 9367POPC   NC363191  31.517  43.886   5.550
 9367POPC   PO463192  31.432  43.915   5.850
 9367POPC   GL163193  31.513  43.843   6.150
 9367POPC   GL263194  31.326  43.935   6.150
 9367POPC   C1A63195  31.459  43.892   6.450
 9367POPC   D2A63196  31.520  43.925   6.750
 9367POPC   C3A63197  31.446  43.913   7.050
 9367POPC   C4A63198  31.491  43.842   7.350
 9367POPC   C1B63199  31.259  43.948   6.450
 9367POPC   C2B63200  31.269  43.875   6.750
 9367POPC   C3B63201  31.188  43.866   7.050
 9367POPC   C4B63202  31.245  43.881   7.350
 9368POPC   NC363203  14.442  43.104   5.550
 9368POPC   PO463204  14.386  43.146   5.850
 9368POPC   GL163205  14.453  43.117   6.150
 9368POPC   GL263206  14.435  42.984   6.150
 9368POPC   C1A63207  14.378  43.131   6.450
 9368POPC   D2A63208  14.413  43.098   6.750
 9368POPC   C3A63209  14.398  43.082   7.050
 9368POPC   C4A63210  14.383  43.099   7.350
 9368POPC   C1B63211  14.464  42.901   6.450
 9368POPC   C2B63212  14.388  42.840   6.750
 9368POPC   C3B63213  14.444  42.824   7.050
 9368POPC   C4B63214  14.386  42.834   7.350
 9369POPC   NC363215   8.968  31.428   5.550
 9369POPC   PO463216   8.941  31.477   5.850
 9369POPC   GL163217   8.939  31.438   6.150
 9369POPC   GL263218   9.011  31.373   6.150
 9369POPC   C1A63219   9.019  31.500   6.450
 9369POPC   D2A63220   8.953  31.494   6.750
 9369POPC   C3A63221   8.966  31.460   7.050
 9369POPC   C4A63222   8.990  31.496   7.350
 9369POPC   C1B63223   9.124  31.256   6.450
 9369POPC   C2B63224   9.100  31.250   6.750
 9369POPC   C3B63225   9.107  31.292   7.050
 9369POPC   C4B63226   9.083  31.224   7.350
 9370POPC   NC363227  11.330  16.004   5.550
 9370POPC   PO463228  11.329  15.963   5.850
 9370POPC   GL163229  11.262  15.963   6.150
 9370POPC   GL263230  11.358  15.930   6.150
 9370POPC   C1A63231  11.252  15.959   6.450
 9370POPC   D2A63232  11.291  15.923   6.750
 9370POPC   C3A63233  11.285  15.975   7.050
 9370POPC   C4A63234  11.258  15.979   7.350
 9370POPC   C1B63235  11.492  15.805   6.450
 9370POPC   C2B63236  11.519  15.768   6.750
 9370POPC   C3B63237  11.476  15.831   7.050
 9370POPC   C4B63238  11.486  15.834   7.350
 9371POPC   NC363239  29.154  30.657   5.550
 9371POPC   PO463240  29.140  30.720   5.850
 9371POPC   GL163241  29.175  30.693   6.150
 9371POPC   GL263242  29.099  30.837   6.150
 9371POPC   C1A63243  29.128  30.715   6.450
 9371POPC   D2A63244  29.125  30.654   6.750
 9371POPC   C3A63245  29.178  30.669   7.050
 9371POPC   C4A63246  29.158  30.662   7.350
 9371POPC   C1B63247  29.076  30.949   6.450
 9371POPC   C2B63248  29.109  30.911   6.750
 9371POPC   C3B63249  29.102  30.952   7.050
 9371POPC   C4B63250  29.109  30.925   7.350
 9372POPC   NC363251  18.297  36.885   5.550
 9372POPC   PO463252  18.329  36.904   5.850
 9372POPC   GL163253  18.261  36.874   6.150
 9372POPC   GL263254  18.207  37.018   6.150
 9372POPC   C1A63255  18.244  36.902   6.450
 9372POPC   D2A63256  18.237  36.877   6.750
 9372POPC   C3A63257  18.262  36.899   7.050
 9372POPC   C4A63258  18.318  36.883   7.350
 9372POPC   C1B63259  18.150  37.061   6.450
 9372POPC   C2B63260  18.102  37.091   6.750
 9372POPC   C3B63261  18.074  37.050   7.050
 9372POPC   C4B63262  18.142  37.089   7.350
 9373POPC   NC363263  12.056   4.331   5.550
 9373POPC   PO463264  12.029   4.285   5.850
 9373POPC   GL163265  12.063   4.355   6.150
 9373POPC   GL263266  12.081   4.407   6.150
 9373POPC   C1A63267  12.034   4.322   6.450
 9373POPC   D2A63268  12.082   4.281   6.750
 9373POPC   C3A63269  12.056   4.284   7.050
 9373POPC   C4A63270  12.049   4.338   7.350
 9373POPC   C1B63271  12.050   4.573   6.450
 9373POPC   C2B63272  11.977   4.565   6.750
 9373POPC   C3B63273  12.050   4.542   7.050
 9373POPC   C4B63274  12.052   4.562   7.350
 9374POPC   NC363275  23.695  12.083   5.550
 9374POPC   PO463276  23.703  12.125   5.850
 9374POPC   GL163277  23.697  12.042   6.150
 9374POPC   GL263278  23.664  11.977   6.150
 9374POPC   C1A63279  23.739  12.043   6.450
 9374POPC   D2A63280  23.712  12.102   6.750
 9374POPC   C3A63281  23.723  12.035   7.050
 9374POPC   C4A63282  23.712  12.084   7.350
 9374POPC   C1B63283  23.599  11.859   6.450
 9374POPC   C2B63284  23.660  11.809   6.750
 9374POPC   C3B63285  23.684  11.858   7.050
 9374POPC   C4B63286  23.656  11.863   7.350
 9375POPC   NC363287   3.496  33.784   5.550
 9375POPC   PO463288   3.527  33.826   5.850
 9375POPC   GL163289   3.574  33.806   6.150
 9375POPC   GL263290   3.405  33.752   6.150
 9375POPC   C1A63291   3.554  33.799   6.450
 9375POPC   D2A63292   3.566  33.845   6.750
 9375POPC   C3A63293   3.575  33.831   7.050
 9375POPC   C4A63294   3.527  33.816   7.350
 9375POPC   C1B63295   3.317  33.755   6.450
 9375POPC   C2B63296   3.349  33.701   6.750
 9375POPC   C3B63297   3.299  33.747   7.050
 9375POPC   C4B63298   3.284  33.719   7.350
 9376POPC   NC363299  27.582  37.724   5.550
 9376POPC   PO463300  27.565  37.723   5.850
 9376POPC   GL163301  27.574  37.690   6.150
 9376POPC   GL263302  27.435  37.690   6.150
 9376POPC   C1A63303  27.578  37.677   6.450
 9376POPC   D2A63304  27.619  37.657   6.750
 9376POPC   C3A63305  27.634  37.722   7.050
 9376POPC   C4A63306  27.603  37.721   7.350
 9376POPC   C1B63307  27.330  37.685   6.450
 9376POPC   C2B63308  27.385  37.653   6.750
 9376POPC   C3B63309  27.376  37.639   7.050
 9376POPC   C4B63310  27.375  37.682   7.350
 9377POPC   NC363311  39.279  35.398   5.550
 9377POPC   PO463312  39.228  35.370   5.850
 9377POPC   GL163313  39.197  35.304   6.150
 9377POPC   GL263314  39.141  35.434   6.150
 9377POPC   C1A63315  39.224  35.308   6.450
 9377POPC   D2A63316  39.192  35.361   6.750
 9377POPC   C3A63317  39.198  35.334   7.050
 9377POPC   C4A63318  39.276  35.310   7.350
 9377POPC   C1B63319  39.033  35.542   6.450
 9377POPC   C2B63320  39.051  35.476   6.750
 9377POPC   C3B63321  39.016  35.499   7.050
 9377POPC   C4B63322  39.005  35.484   7.350
 9378POPC   NC363323  17.547   2.732   5.550
 9378POPC   PO463324  17.548   2.776   5.850
 9378POPC   GL163325  17.530   2.781   6.150
 9378POPC   GL263326  17.379   2.785   6.150
 9378POPC   C1A63327  17.471   2.733   6.450
 9378POPC   D2A63328  17.536   2.798   6.750
 9378POPC   C3A63329  17.551   2.787   7.050
 9378POPC   C4A63330  17.520   2.746   7.350
 9378POPC   C1B63331  17.229   2.699   6.450
 9378POPC   C2B63332  17.266   2.678   6.750
 9378POPC   C3B63333  17.271   2.690   7.050
 9378POPC   C4B63334  17.235   2.670   7.350
 9379POPC   NC363335  37.636  33.794   5.550
 9379POPC   PO463336  37.653  33.762   5.850
 9379POPC   GL163337  37.710  33.773   6.150
 9379POPC   GL263338  37.570  33.674   6.150
 9379POPC   C1A63339  37.702  33.850   6.450
 9379POPC   D2A63340  37.702  33.767   6.750
 9379POPC   C3A63341  37.700  33.832   7.050
 9379POPC   C4A63342  37.652  33.842   7.350
 9379POPC   C1B63343  37.497  33.550   6.450
 9379POPC   C2B63344  37.537  33.612   6.750
 9379POPC   C3B63345  37.498  33.590   7.050
 9379POPC   C4B63346  37.504  33.592   7.350
 9380POPC   NC363347   5.890  29.119   5.550
 9380POPC   PO463348   5.845  29.137   5.850
 9380POPC   GL163349   5.838  29.184   6.150
 9380POPC   GL263350   5.742  29.095   6.150
 9380POPC   C1A63351   5.838  29.102   6.450
 9380POPC   D2A63352   5.897  29.193   6.750
 9380POPC   C3A63353   5.904  29.181   7.050
 9380POPC   C4A63354   5.873  29.144   7.350
 9380POPC   C1B63355   5.592  29.027   6.450
 9380POPC   C2B63356   5.616  29.055   6.750
 9380POPC   C3B63357   5.651  29.059   7.050
 9380POPC   C4B63358   5.685  29.068   7.350
 9381POPC   NC363359  15.992   0.394   5.550
 9381POPC   PO463360  15.929   0.416   5.850
 9381POPC   GL163361  15.966   0.432   6.150
 9381POPC   GL263362  15.970   0.582   6.150
 9381POPC   C1A63363  15.964   0.488   6.450
 9381POPC   D2A63364  15.942   0.391   6.750
 9381POPC   C3A63365  15.971   0.391   7.050
 9381POPC   C4A63366  15.974   0.451   7.350
 9381POPC   C1B63367  15.954   0.675   6.450
 9381POPC   C2B63368  15.942   0.695   6.750
 9381POPC   C3B63369  15.881   0.716   7.050
 9381POPC   C4B63370  15.909   0.656   7.350
 9382POPC   NC363371  43.845   5.141   5.550
 9382POPC   PO463372  43.864   5.084   5.850
 9382POPC   GL163373  43.902   5.138   6.150
 9382POPC   GL263374  43.969   5.157   6.150
 9382POPC   C1A63375  43.849   5.142   6.450
 9382POPC   D2A63376  43.890   5.068   6.750
 9382POPC   C3A63377  43.925   5.060   7.050
 9382POPC   C4A63378  43.890   5.122   7.350
 9382POPC   C1B63379  44.009   5.321   6.450
 9382POPC   C2B63380  43.982   5.278   6.750
 9382POPC   C3B63381  44.001   5.302   7.050
 9382POPC   C4B63382  44.014   5.350   7.350
 9383POPC   NC363383  42.314  13.584   5.550
 9383POPC   PO463384  42.303  13.637   5.850
 9383POPC   GL163385  42.360  13.648   6.150
 9383POPC   GL263386  42.392  13.482   6.150
 9383POPC   C1A63387  42.311  13.607   6.450
 9383POPC   D2A63388  42.327  13.623   6.750
 9383POPC   C3A63389  42.286  13.656   7.050
 9383POPC   C4A63390  42.324  13.601   7.350
 9383POPC   C1B63391  42.405  13.438   6.450
 9383POPC   C2B63392  42.458  13.451   6.750
 9383POPC   C3B63393  42.434  13.388   7.050
 9383POPC   C4B63394  42.490  13.401   7.350
 9384POPC   NC363395  14.416  12.113   5.550
 9384POPC   PO463396  14.390  12.071   5.850
 9384POPC   GL163397  14.450  12.104   6.150
 9384POPC   GL263398  14.368  11.991   6.150
 9384POPC   C1A63399  14.416  12.125   6.450
 9384POPC   D2A63400  14.406  12.117   6.750
 9384POPC   C3A63401  14.380  12.036   7.050
 9384POPC   C4A63402  14.443  12.080   7.350
 9384POPC   C1B63403  14.264  11.807   6.450
 9384POPC   C2B63404  14.265  11.859   6.750
 9384POPC   C3B63405  14.362  11.832   7.050
 9384POPC   C4B63406  14.360  11.839   7.350
 9385POPC   NC363407  31.486  11.328   5.550
 9385POPC   PO463408  31.498  11.286   5.850
 9385POPC   GL163409  31.494  11.311   6.150
 9385POPC   GL263410  31.528  11.153   6.150
 9385POPC   C1A63411  31.433  11.339   6.450
 9385POPC   D2A63412  31.434  11.260   6.750
 9385POPC   C3A63413  31.512  11.340   7.050
 9385POPC   C4A63414  31.424  11.346   7.350
 9385POPC   C1B63415  31.560  11.034   6.450
 9385POPC   C2B63416  31.533  11.052   6.750
 9385POPC   C3B63417  31.547  11.098   7.050
 9385POPC   C4B63418  31.555  11.058   7.350
 9386POPC   NC363419  13.615  28.348   5.550
 9386POPC   PO463420  13.624  28.399   5.850
 9386POPC   GL163421  13.656  28.408   6.150
 9386POPC   GL263422  13.642  28.454   6.150
 9386POPC   C1A63423  13.581  28.387   6.450
 9386POPC   D2A63424  13.644  28.389   6.750
 9386POPC   C3A63425  13.651  28.387   7.050
 9386POPC   C4A63426  13.602  28.375   7.350
 9386POPC   C1B63427  13.555  28.621   6.450
 9386POPC   C2B63428  13.618  28.579   6.750
 9386POPC   C3B63429  13.570  28.641   7.050
 9386POPC   C4B63430  13.610  28.634   7.350
 9387POPC   NC363431  35.351  30.715   5.550
 9387POPC   PO463432  35.304  30.744   5.850
 9387POPC   GL163433  35.358  30.722   6.150
 9387POPC   GL263434  35.340  30.773   6.150
 9387POPC   C1A63435  35.384  30.725   6.450
 9387POPC   D2A63436  35.392  30.733   6.750
 9387POPC   C3A63437  35.309  30.699   7.050
 9387POPC   C4A63438  35.397  30.700   7.350
 9387POPC   C1B63439  35.258  30.954   6.450
 9387POPC   C2B63440  35.263  30.985   6.750
 9387POPC   C3B63441  35.277  30.972   7.050
 9387POPC   C4B63442  35.322  30.955   7.350
 9388POPC   NC363443   0.450   2.720   5.550
 9388POPC   PO463444   0.457   2.738   5.850
 9388POPC   GL163445   0.461   2.754   6.150
 9388POPC   GL263446   0.328   2.812   6.150
 9388POPC   C1A63447   0.450   2.813   6.450
 9388POPC   D2A63448   0.439   2.773   6.750
 9388POPC   C3A63449   0.440   2.731   7.050
 9388POPC   C4A63450   0.481   2.732   7.350
 9388POPC   C1B63451   0.227   2.846   6.450
 9388POPC   C2B63452   0.208   2.890   6.750
 9388POPC   C3B63453   0.181   2.899   7.050
 9388POPC   C4B63454   0.171   2.825   7.350
 9389POPC   NC363455  12.870  43.094   5.550
 9389POPC   PO463456  12.824  43.082   5.850
 9389POPC   GL163457  12.818  43.104   6.150
 9389POPC   GL263458  12.742  43.191   6.150
 9389POPC   C1A63459  12.900  43.155   6.450
 9389POPC   D2A63460  12.884  43.111   6.750
 9389POPC   C3A63461  12.814  43.083   7.050
 9389POPC   C4A63462  12.873  43.121   7.350
 9389POPC   C1B63463  12.693  43.296   6.450
 9389POPC   C2B63464  12.659  43.220   6.750
 9389POPC   C3B63465  12.611  43.249   7.050
 9389POPC   C4B63466  12.639  43.256   7.350
 9390POPC   NC363467  22.984  26.807   5.550
 9390POPC   PO463468  22.951  26.850   5.850
 9390POPC   GL163469  22.946  26.793   6.150
 9390POPC   GL263470  22.872  26.664   6.150
 9390POPC   C1A63471  22.936  26.852   6.450
 9390POPC   D2A63472  22.926  26.846   6.750
 9390POPC   C3A63473  22.970  26.770   7.050
 9390POPC   C4A63474  22.899  26.822   7.350
 9390POPC   C1B63475  22.873  26.555   6.450
 9390POPC   C2B63476  22.826  26.538   6.750
 9390POPC   C3B63477  22.895  26.624   7.050
 9390POPC   C4B63478  22.870  26.535   7.350
 9391POPC   NC363479  26.806  30.704   5.550
 9391POPC   PO463480  26.771  30.713   5.850
 9391POPC   GL163481  26.781  30.678   6.150
 9391POPC   GL263482  26.852  30.621   6.150
 9391POPC   C1A63483  26.794  30.690   6.450
 9391POPC   D2A63484  26.858  30.684   6.750
 9391POPC   C3A63485  26.837  30.746   7.050
 9391POPC   C4A63486  26.804  30.691   7.350
 9391POPC   C1B63487  26.805  30.456   6.450
 9391POPC   C2B63488  26.827  30.491   6.750
 9391POPC   C3B63489  26.827  30.419   7.050
 9391POPC   C4B63490  26.849  30.460   7.350
 9392POPC   NC363491  23.750  37.710   5.550
 9392POPC   PO463492  23.728  37.658   5.850
 9392POPC   GL163493  23.674  37.692   6.150
 9392POPC   GL263494  23.746  37.780   6.150
 9392POPC   C1A63495  23.723  37.709   6.450
 9392POPC   D2A63496  23.732  37.714   6.750
 9392POPC   C3A63497  23.752  37.704   7.050
 9392POPC   C4A63498  23.683  37.717   7.350
 9392POPC   C1B63499  23.789  37.960   6.450
 9392POPC   C2B63500  23.818  37.899   6.750
 9392POPC   C3B63501  23.766  37.873   7.050
 9392POPC   C4B63502  23.758  37.891   7.350
 9393POPC   NC363503  42.328   4.331   5.550
 9393POPC   PO463504  42.312   4.295   5.850
 9393POPC   GL163505  42.324   4.337   6.150
 9393POPC   GL263506  42.238   4.340   6.150
 9393POPC   C1A63507  42.329   4.286   6.450
 9393POPC   D2A63508  42.300   4.338   6.750
 9393POPC   C3A63509  42.328   4.347   7.050
 9393POPC   C4A63510  42.362   4.330   7.350
 9393POPC   C1B63511  42.123   4.407   6.450
 9393POPC   C2B63512  42.076   4.434   6.750
 9393POPC   C3B63513  42.142   4.393   7.050
 9393POPC   C4B63514  42.068   4.403   7.350
 9394POPC   NC363515  44.619  16.697   5.550
 9394POPC   PO463516  44.641  16.689   5.850
 9394POPC   GL163517  44.658  16.774   6.150
 9394POPC   GL263518  44.731  16.803   6.150
 9394POPC   C1A63519  44.649  16.683   6.450
 9394POPC   D2A63520  44.668  16.752   6.750
 9394POPC   C3A63521  44.631  16.759   7.050
 9394POPC   C4A63522  44.669  16.710   7.350
 9394POPC   C1B63523  44.871  16.878   6.450
 9394POPC   C2B63524  44.813  16.887   6.750
 9394POPC   C3B63525  44.810  16.896   7.050
 9394POPC   C4B63526  44.837  16.932   7.350
 9395POPC   NC363527   9.769  26.829   5.550
 9395POPC   PO463528   9.777  26.861   5.850
 9395POPC   GL163529   9.786  26.776   6.150
 9395POPC   GL263530   9.616  26.754   6.150
 9395POPC   C1A63531   9.713  26.810   6.450
 9395POPC   D2A63532   9.783  26.817   6.750
 9395POPC   C3A63533   9.740  26.832   7.050
 9395POPC   C4A63534   9.754  26.823   7.350
 9395POPC   C1B63535   9.544  26.736   6.450
 9395POPC   C2B63536   9.526  26.791   6.750
 9395POPC   C3B63537   9.533  26.744   7.050
 9395POPC   C4B63538   9.461  26.751   7.350
 9396POPC   NC363539   8.933  28.373   5.550
 9396POPC   PO463540   8.971  28.402   5.850
 9396POPC   GL163541   8.955  28.388   6.150
 9396POPC   GL263542   9.045  28.262   6.150
 9396POPC   C1A63543   8.976  28.385   6.450
 9396POPC   D2A63544   8.994  28.353   6.750
 9396POPC   C3A63545   9.021  28.393   7.050
 9396POPC   C4A63546   8.935  28.384   7.350
 9396POPC   C1B63547   9.184  28.262   6.450
 9396POPC   C2B63548   9.201  28.169   6.750
 9396POPC   C3B63549   9.215  28.186   7.050
 9396POPC   C4B63550   9.148  28.250   7.350
 9397POPC   NC363551  25.304  15.177   5.550
 9397POPC   PO463552  25.219  15.155   5.850
 9397POPC   GL163553  25.294  15.193   6.150
 9397POPC   GL263554  25.214  15.060   6.150
 9397POPC   C1A63555  25.259  15.137   6.450
 9397POPC   D2A63556  25.293  15.180   6.750
 9397POPC   C3A63557  25.250  15.198   7.050
 9397POPC   C4A63558  25.275  15.222   7.350
 9397POPC   C1B63559  25.088  14.956   6.450
 9397POPC   C2B63560  25.077  14.969   6.750
 9397POPC   C3B63561  25.126  15.017   7.050
 9397POPC   C4B63562  25.140  15.004   7.350
 9398POPC   NC363563  18.272   8.176   5.550
 9398POPC   PO463564  18.303   8.227   5.850
 9398POPC   GL163565  18.302   8.246   6.150
 9398POPC   GL263566  18.296   8.041   6.150
 9398POPC   C1A63567  18.281   8.182   6.450
 9398POPC   D2A63568  18.300   8.161   6.750
 9398POPC   C3A63569  18.262   8.163   7.050
 9398POPC   C4A63570  18.307   8.192   7.350
 9398POPC   C1B63571  18.350   7.927   6.450
 9398POPC   C2B63572  18.349   7.997   6.750
 9398POPC   C3B63573  18.322   7.961   7.050
 9398POPC   C4B63574  18.311   7.905   7.350
 9399POPC   NC363575  11.260  37.682   5.550
 9399POPC   PO463576  11.305  37.725   5.850
 9399POPC   GL163577  11.337  37.653   6.150
 9399POPC   GL263578  11.254  37.521   6.150
 9399POPC   C1A63579  11.329  37.658   6.450
 9399POPC   D2A63580  11.307  37.652   6.750
 9399POPC   C3A63581  11.272  37.679   7.050
 9399POPC   C4A63582  11.253  37.680   7.350
 9399POPC   C1B63583  11.259  37.418   6.450
 9399POPC   C2B63584  11.310  37.381   6.750
 9399POPC   C3B63585  11.320  37.433   7.050
 9399POPC   C4B63586  11.326  37.474   7.350
 9400POPC   NC363587  23.738  29.122   5.550
 9400POPC   PO463588  23.704  29.172   5.850
 9400POPC   GL163589  23.714  29.106   6.150
 9400POPC   GL263590  23.626  29.162   6.150
 9400POPC   C1A63591  23.678  29.097   6.450
 9400POPC   D2A63592  23.716  29.153   6.750
 9400POPC   C3A63593  23.740  29.119   7.050
 9400POPC   C4A63594  23.697  29.103   7.350
 9400POPC   C1B63595  23.467  29.128   6.450
 9400POPC   C2B63596  23.478  29.139   6.750
 9400POPC   C3B63597  23.480  29.138   7.050
 9400POPC   C4B63598  23.511  29.135   7.350
 9401POPC   NC363599  24.522  26.015   5.550
 9401POPC   PO463600  24.467  26.082   5.850
 9401POPC   GL163601  24.509  25.995   6.150
 9401POPC   GL263602  24.399  26.077   6.150
 9401POPC   C1A63603  24.447  26.040   6.450
 9401POPC   D2A63604  24.492  26.045   6.750
 9401POPC   C3A63605  24.486  26.022   7.050
 9401POPC   C4A63606  24.475  26.054   7.350
 9401POPC   C1B63607  24.225  26.142   6.450
 9401POPC   C2B63608  24.282  26.065   6.750
 9401POPC   C3B63609  24.288  26.094   7.050
 9401POPC   C4B63610  24.211  26.070   7.350
 9402POPC   NC363611  10.521  17.542   5.550
 9402POPC   PO463612  10.540  17.541   5.850
 9402POPC   GL163613  10.555  17.504   6.150
 9402POPC   GL263614  10.639  17.459   6.150
 9402POPC   C1A63615  10.550  17.457   6.450
 9402POPC   D2A63616  10.498  17.499   6.750
 9402POPC   C3A63617  10.528  17.511   7.050
 9402POPC   C4A63618  10.563  17.471   7.350
 9402POPC   C1B63619  10.697  17.426   6.450
 9402POPC   C2B63620  10.770  17.418   6.750
 9402POPC   C3B63621  10.742  17.413   7.050
 9402POPC   C4B63622  10.745  17.357   7.350
 9403POPC   NC363623  15.934  22.941   5.550
 9403POPC   PO463624  16.004  22.905   5.850
 9403POPC   GL163625  15.906  22.937   6.150
 9403POPC   GL263626  15.947  22.767   6.150
 9403POPC   C1A63627  15.955  22.915   6.450
 9403POPC   D2A63628  15.917  22.900   6.750
 9403POPC   C3A63629  15.922  22.966   7.050
 9403POPC   C4A63630  15.938  22.966   7.350
 9403POPC   C1B63631  16.049  22.662   6.450
 9403POPC   C2B63632  15.966  22.673   6.750
 9403POPC   C3B63633  15.991  22.665   7.050
 9403POPC   C4B63634  15.996  22.702   7.350
 9404POPC   NC363635   1.177   0.478   5.550
 9404POPC   PO463636   1.216   0.451   5.850
 9404POPC   GL163637   1.209   0.421   6.150
 9404POPC   GL263638   1.135   0.366   6.150
 9404POPC   C1A63639   1.185   0.421   6.450
 9404POPC   D2A63640   1.188   0.429   6.750
 9404POPC   C3A63641   1.241   0.452   7.050
 9404POPC   C4A63642   1.216   0.421   7.350
 9404POPC   C1B63643   1.058   0.262   6.450
 9404POPC   C2B63644   1.034   0.243   6.750
 9404POPC   C3B63645   1.078   0.261   7.050
 9404POPC   C4B63646   1.022   0.277   7.350
 9405POPC   NC363647  34.541  36.137   5.550
 9405POPC   PO463648  34.577  36.125   5.850
 9405POPC   GL163649  34.543  36.127   6.150
 9405POPC   GL263650  34.557  36.006   6.150
 9405POPC   C1A63651  34.587  36.160   6.450
 9405POPC   D2A63652  34.596  36.105   6.750
 9405POPC   C3A63653  34.532  36.166   7.050
 9405POPC   C4A63654  34.547  36.166   7.350
 9405POPC   C1B63655  34.435  35.891   6.450
 9405POPC   C2B63656  34.463  35.902   6.750
 9405POPC   C3B63657  34.425  35.912   7.050
 9405POPC   C4B63658  34.414  35.916   7.350
 9406POPC   NC363659  15.928  26.830   5.550
 9406POPC   PO463660  15.912  26.862   5.850
 9406POPC   GL163661  16.005  26.833   6.150
 9406POPC   GL263662  16.107  26.894   6.150
 9406POPC   C1A63663  16.001  26.828   6.450
 9406POPC   D2A63664  15.909  26.806   6.750
 9406POPC   C3A63665  15.906  26.772   7.050
 9406POPC   C4A63666  15.927  26.842   7.350
 9406POPC   C1B63667  16.175  26.988   6.450
 9406POPC   C2B63668  16.189  26.903   6.750
 9406POPC   C3B63669  16.173  26.986   7.050
 9406POPC   C4B63670  16.220  26.905   7.350
 9407POPC   NC363671   7.450  39.995   5.550
 9407POPC   PO463672   7.394  40.048   5.850
 9407POPC   GL163673   7.396  39.993   6.150
 9407POPC   GL263674   7.484  39.879   6.150
 9407POPC   C1A63675   7.419  40.045   6.450
 9407POPC   D2A63676   7.390  39.983   6.750
 9407POPC   C3A63677   7.413  40.022   7.050
 9407POPC   C4A63678   7.390  40.040   7.350
 9407POPC   C1B63679   7.543  39.751   6.450
 9407POPC   C2B63680   7.524  39.726   6.750
 9407POPC   C3B63681   7.469  39.816   7.050
 9407POPC   C4B63682   7.532  39.815   7.350
 9408POPC   NC363683  34.546  23.734   5.550
 9408POPC   PO463684  34.531  23.684   5.850
 9408POPC   GL163685  34.564  23.744   6.150
 9408POPC   GL263686  34.501  23.596   6.150
 9408POPC   C1A63687  34.600  23.720   6.450
 9408POPC   D2A63688  34.558  23.748   6.750
 9408POPC   C3A63689  34.571  23.688   7.050
 9408POPC   C4A63690  34.576  23.741   7.350
 9408POPC   C1B63691  34.418  23.495   6.450
 9408POPC   C2B63692  34.442  23.495   6.750
 9408POPC   C3B63693  34.386  23.580   7.050
 9408POPC   C4B63694  34.345  23.590   7.350
 9409POPC   NC363695  42.357  43.839   5.550
 9409POPC   PO463696  42.294  43.931   5.850
 9409POPC   GL163697  42.310  43.916   6.150
 9409POPC   GL263698  42.486  43.834   6.150
 9409POPC   C1A63699  42.382  43.888   6.450
 9409POPC   D2A63700  42.353  43.912   6.750
 9409POPC   C3A63701  42.292  43.912   7.050
 9409POPC   C4A63702  42.297  43.909   7.350
 9409POPC   C1B63703  42.619  43.833   6.450
 9409POPC   C2B63704  42.586  43.820   6.750
 9409POPC   C3B63705  42.551  43.808   7.050
 9409POPC   C4B63706  42.561  43.844   7.350
 9410POPC   NC363707   4.308  26.063   5.550
 9410POPC   PO463708   4.320  26.016   5.850
 9410POPC   GL163709   4.342  26.044   6.150
 9410POPC   GL263710   4.226  26.089   6.150
 9410POPC   C1A63711   4.274  26.089   6.450
 9410POPC   D2A63712   4.274  26.061   6.750
 9410POPC   C3A63713   4.270  26.056   7.050
 9410POPC   C4A63714   4.353  26.017   7.350
 9410POPC   C1B63715   4.098  26.151   6.450
 9410POPC   C2B63716   4.149  26.169   6.750
 9410POPC   C3B63717   4.151  26.189   7.050
 9410POPC   C4B63718   4.135  26.170   7.350
 9411POPC   NC363719  10.484  27.546   5.550
 9411POPC   PO463720  10.540  27.624   5.850
 9411POPC   GL163721  10.505  27.610   6.150
 9411POPC   GL263722  10.468  27.482   6.150
 9411POPC   C1A63723  10.487  27.613   6.450
 9411POPC   D2A63724  10.547  27.640   6.750
 9411POPC   C3A63725  10.488  27.555   7.050
 9411POPC   C4A63726  10.541  27.578   7.350
 9411POPC   C1B63727  10.342  27.366   6.450
 9411POPC   C2B63728  10.387  27.389   6.750
 9411POPC   C3B63729  10.385  27.415   7.050
 9411POPC   C4B63730  10.340  27.366   7.350
 9412POPC   NC363731  44.662   7.451   5.550
 9412POPC   PO463732  44.630   7.389   5.850
 9412POPC   GL163733  44.685   7.456   6.150
 9412POPC   GL263734  44.622   7.273   6.150
 9412POPC   C1A63735  44.638   7.469   6.450
 9412POPC   D2A63736  44.644   7.466   6.750
 9412POPC   C3A63737  44.651   7.438   7.050
 9412POPC   C4A63738  44.704   7.376   7.350
 9412POPC   C1B63739  44.597   7.175   6.450
 9412POPC   C2B63740  44.638   7.165   6.750
 9412POPC   C3B63741  44.576   7.215   7.050
 9412POPC   C4B63742  44.635   7.189   7.350
 9413POPC   NC363743  22.952  22.913   5.550
 9413POPC   PO463744  22.919  22.892   5.850
 9413POPC   GL163745  22.917  22.945   6.150
 9413POPC   GL263746  22.836  22.895   6.150
 9413POPC   C1A63747  22.979  22.919   6.450
 9413POPC   D2A63748  22.959  22.967   6.750
 9413POPC   C3A63749  22.913  22.968   7.050
 9413POPC   C4A63750  22.891  22.929   7.350
 9413POPC   C1B63751  22.735  22.893   6.450
 9413POPC   C2B63752  22.662  22.849   6.750
 9413POPC   C3B63753  22.729  22.844   7.050
 9413POPC   C4B63754  22.727  22.874   7.350
 9414POPC   NC363755   1.221  44.680   5.550
 9414POPC   PO463756   1.186  44.649   5.850
 9414POPC   GL163757   1.201  44.678   6.150
 9414POPC   GL263758   1.161  44.610   6.150
 9414POPC   C1A63759   1.260  44.651   6.450
 9414POPC   D2A63760   1.241  44.623   6.750
 9414POPC   C3A63761   1.188  44.649   7.050
 9414POPC   C4A63762   1.179  44.672   7.350
 9414POPC   C1B63763   1.020  44.436   6.450
 9414POPC   C2B63764   1.112  44.480   6.750
 9414POPC   C3B63765   1.018  44.504   7.050
 9414POPC   C4B63766   1.090  44.481   7.350
 9415POPC   NC363767   2.718  23.703   5.550
 9415POPC   PO463768   2.746  23.728   5.850
 9415POPC   GL163769   2.811  23.753   6.150
 9415POPC   GL263770   2.671  23.804   6.150
 9415POPC   C1A63771   2.777  23.758   6.450
 9415POPC   D2A63772   2.776  23.699   6.750
 9415POPC   C3A63773   2.815  23.744   7.050
 9415POPC   C4A63774   2.787  23.752   7.350
 9415POPC   C1B63775   2.550  23.895   6.450
 9415POPC   C2B63776   2.539  23.837   6.750
 9415POPC   C3B63777   2.597  23.837   7.050
 9415POPC   C4B63778   2.606  23.831   7.350
 9416POPC   NC363779  34.597  19.815   5.550
 9416POPC   PO463780  34.590  19.850   5.850
 9416POPC   GL163781  34.622  19.850   6.150
 9416POPC   GL263782  34.587  19.723   6.150
 9416POPC   C1A63783  34.544  19.807   6.450
 9416POPC   D2A63784  34.542  19.865   6.750
 9416POPC   C3A63785  34.602  19.863   7.050
 9416POPC   C4A63786  34.543  19.846   7.350
 9416POPC   C1B63787  34.628  19.593   6.450
 9416POPC   C2B63788  34.651  19.631   6.750
 9416POPC   C3B63789  34.659  19.586   7.050
 9416POPC   C4B63790  34.603  19.619   7.350
 9417POPC   NC363791  29.182  18.288   5.550
 9417POPC   PO463792  29.145  18.259   5.850
 9417POPC   GL163793  29.111  18.328   6.150
 9417POPC   GL263794  29.052  18.352   6.150
 9417POPC   C1A63795  29.132  18.309   6.450
 9417POPC   D2A63796  29.146  18.268   6.750
 9417POPC   C3A63797  29.129  18.247   7.050
 9417POPC   C4A63798  29.183  18.293   7.350
 9417POPC   C1B63799  28.944  18.389   6.450
 9417POPC   C2B63800  28.961  18.373   6.750
 9417POPC   C3B63801  28.962  18.403   7.050
 9417POPC   C4B63802  28.904  18.355   7.350
 9418POPC   NC363803   1.231  11.340   5.550
 9418POPC   PO463804   1.184  11.316   5.850
 9418POPC   GL163805   1.235  11.348   6.150
 9418POPC   GL263806   1.195  11.189   6.150
 9418POPC   C1A63807   1.254  11.319   6.450
 9418POPC   D2A63808   1.209  11.269   6.750
 9418POPC   C3A63809   1.239  11.289   7.050
 9418POPC   C4A63810   1.251  11.341   7.350
 9418POPC   C1B63811   1.198  11.030   6.450
 9418POPC   C2B63812   1.222  11.055   6.750
 9418POPC   C3B63813   1.205  11.082   7.050
 9418POPC   C4B63814   1.186  11.041   7.350
 9419POPC   NC363815   3.500   1.963   5.550
 9419POPC   PO463816   3.521   1.943   5.850
 9419POPC   GL163817   3.571   1.947   6.150
 9419POPC   GL263818   3.537   2.067   6.150
 9419POPC   C1A63819   3.582   2.008   6.450
 9419POPC   D2A63820   3.555   1.945   6.750
 9419POPC   C3A63821   3.526   2.022   7.050
 9419POPC   C4A63822   3.560   1.981   7.350
 9419POPC   C1B63823   3.509   2.199   6.450
 9419POPC   C2B63824   3.504   2.196   6.750
 9419POPC   C3B63825   3.502   2.277   7.050
 9419POPC   C4B63826   3.546   2.239   7.350
 9420POPC   NC363827  37.648  10.500   5.550
 9420POPC   PO463828  37.648  10.530   5.850
 9420POPC   GL163829  37.682  10.572   6.150
 9420POPC   GL263830  37.603  10.437   6.150
 9420POPC   C1A63831  37.637  10.503   6.450
 9420POPC   D2A63832  37.675  10.480   6.750
 9420POPC   C3A63833  37.714  10.509   7.050
 9420POPC   C4A63834  37.727  10.545   7.350
 9420POPC   C1B63835  37.580  10.261   6.450
 9420POPC   C2B63836  37.532  10.252   6.750
 9420POPC   C3B63837  37.567  10.331   7.050
 9420POPC   C4B63838  37.583  10.319   7.350
 9421POPC   NC363839  43.877  43.837   5.550
 9421POPC   PO463840  43.892  43.881   5.850
 9421POPC   GL163841  43.863  43.935   6.150
 9421POPC   GL263842  44.045  43.847   6.150
 9421POPC   C1A63843  43.928  43.915   6.450
 9421POPC   D2A63844  43.839  43.885   6.750
 9421POPC   C3A63845  43.882  43.882   7.050
 9421POPC   C4A63846  43.869  43.924   7.350
 9421POPC   C1B63847  44.084  43.846   6.450
 9421POPC   C2B63848  44.168  43.854   6.750
 9421POPC   C3B63849  44.132  43.836   7.050
 9421POPC   C4B63850  44.162  43.814   7.350
 9422POPC   NC363851  33.042  12.044   5.550
 9422POPC   PO463852  32.976  12.055   5.850
 9422POPC   GL163853  33.053  12.082   6.150
 9422POPC   GL263854  33.040  11.921   6.150
 9422POPC   C1A63855  32.997  12.125   6.450
 9422POPC   D2A63856  33.012  12.100   6.750
 9422POPC   C3A63857  33.074  12.124   7.050
 9422POPC   C4A63858  33.003  12.088   7.350
 9422POPC   C1B63859  32.976  11.878   6.450
 9422POPC   C2B63860  33.019  11.810   6.750
 9422POPC   C3B63861  32.993  11.864   7.050
 9422POPC   C4B63862  33.034  11.792   7.350
 9423POPC   NC363863  25.311  23.699   5.550
 9423POPC   PO463864  25.283  23.687   5.850
 9423POPC   GL163865  25.223  23.707   6.150
 9423POPC   GL263866  25.203  23.638   6.150
 9423POPC   C1A63867  25.231  23.703   6.450
 9423POPC   D2A63868  25.251  23.762   6.750
 9423POPC   C3A63869  25.273  23.711   7.050
 9423POPC   C4A63870  25.312  23.762   7.350
 9423POPC   C1B63871  25.071  23.609   6.450
 9423POPC   C2B63872  25.077  23.573   6.750
 9423POPC   C3B63873  25.001  23.580   7.050
 9423POPC   C4B63874  25.064  23.631   7.350
 9424POPC   NC363875  24.540  33.823   5.550
 9424POPC   PO463876  24.497  33.814   5.850
 9424POPC   GL163877  24.530  33.753   6.150
 9424POPC   GL263878  24.360  33.787   6.150
 9424POPC   C1A63879  24.503  33.817   6.450
 9424POPC   D2A63880  24.440  33.797   6.750
 9424POPC   C3A63881  24.537  33.814   7.050
 9424POPC   C4A63882  24.534  33.807   7.350
 9424POPC   C1B63883  24.204  33.697   6.450
 9424POPC   C2B63884  24.250  33.736   6.750
 9424POPC   C3B63885  24.207  33.724   7.050
 9424POPC   C4B63886  24.289  33.759   7.350
 9425POPC   NC363887  22.951  14.410   5.550
 9425POPC   PO463888  22.932  14.406   5.850
 9425POPC   GL163889  22.973  14.382   6.150
 9425POPC   GL263890  22.870  14.431   6.150
 9425POPC   C1A63891  22.902  14.393   6.450
 9425POPC   D2A63892  22.951  14.421   6.750
 9425POPC   C3A63893  22.987  14.366   7.050
 9425POPC   C4A63894  22.921  14.419   7.350
 9425POPC   C1B63895  22.730  14.584   6.450
 9425POPC   C2B63896  22.740  14.576   6.750
 9425POPC   C3B63897  22.738  14.527   7.050
 9425POPC   C4B63898  22.687  14.507   7.350
 9426POPC   NC363899  15.994  44.626   5.550
 9426POPC   PO463900  15.993  44.679   5.850
 9426POPC   GL163901  15.905  44.697   6.150
 9426POPC   GL263902  15.918  44.585   6.150
 9426POPC   C1A63903  15.980  44.670   6.450
 9426POPC   D2A63904  15.953  44.659   6.750
 9426POPC   C3A63905  15.965  44.670   7.050
 9426POPC   C4A63906  15.975  44.650   7.350
 9426POPC   C1B63907  15.758  44.427   6.450
 9426POPC   C2B63908  15.780  44.515   6.750
 9426POPC   C3B63909  15.787  44.444   7.050
 9426POPC   C4B63910  15.841  44.509   7.350
 9427POPC   NC363911  23.713  38.498   5.550
 9427POPC   PO463912  23.754  38.409   5.850
 9427POPC   GL163913  23.736  38.465   6.150
 9427POPC   GL263914  23.858  38.480   6.150
 9427POPC   C1A63915  23.744  38.419   6.450
 9427POPC   D2A63916  23.747  38.452   6.750
 9427POPC   C3A63917  23.750  38.472   7.050
 9427POPC   C4A63918  23.748  38.502   7.350
 9427POPC   C1B63919  23.965  38.623   6.450
 9427POPC   C2B63920  23.884  38.585   6.750
 9427POPC   C3B63921  23.917  38.527   7.050
 9427POPC   C4B63922  23.972  38.594   7.350
 9428POPC   NC363923   5.049  23.746   5.550
 9428POPC   PO463924   5.124  23.741   5.850
 9428POPC   GL163925   5.109  23.756   6.150
 9428POPC   GL263926   5.054  23.836   6.150
 9428POPC   C1A63927   5.061  23.761   6.450
 9428POPC   D2A63928   5.111  23.686   6.750
 9428POPC   C3A63929   5.095  23.709   7.050
 9428POPC   C4A63930   5.112  23.727   7.350
 9428POPC   C1B63931   5.091  23.976   6.450
 9428POPC   C2B63932   5.039  23.931   6.750
 9428POPC   C3B63933   5.019  23.941   7.050
 9428POPC   C4B63934   5.038  23.994   7.350
 9429POPC   NC363935  19.044  36.169   5.550
 9429POPC   PO463936  19.054  36.157   5.850
 9429POPC   GL163937  19.035  36.175   6.150
 9429POPC   GL263938  18.955  36.214   6.150
 9429POPC   C1A63939  19.046  36.174   6.450
 9429POPC   D2A63940  19.029  36.169   6.750
 9429POPC   C3A63941  19.073  36.137   7.050
 9429POPC   C4A63942  19.021  36.090   7.350
 9429POPC   C1B63943  18.830  36.238   6.450
 9429POPC   C2B63944  18.865  36.290   6.750
 9429POPC   C3B63945  18.790  36.241   7.050
 9429POPC   C4B63946  18.788  36.239   7.350
 9430POPC   NC363947  14.364  26.034   5.550
 9430POPC   PO463948  14.426  26.076   5.850
 9430POPC   GL163949  14.365  26.037   6.150
 9430POPC   GL263950  14.428  25.940   6.150
 9430POPC   C1A63951  14.447  26.046   6.450
 9430POPC   D2A63952  14.412  26.065   6.750
 9430POPC   C3A63953  14.361  26.078   7.050
 9430POPC   C4A63954  14.370  26.079   7.350
 9430POPC   C1B63955  14.506  25.843   6.450
 9430POPC   C2B63956  14.496  25.834   6.750
 9430POPC   C3B63957  14.515  25.823   7.050
 9430POPC   C4B63958  14.575  25.882   7.350
 9431POPC   NC363959  22.154  31.431   5.550
 9431POPC   PO463960  22.201  31.427   5.850
 9431POPC   GL163961  22.176  31.494   6.150
 9431POPC   GL263962  22.295  31.357   6.150
 9431POPC   C1A63963  22.183  31.428   6.450
 9431POPC   D2A63964  22.158  31.427   6.750
 9431POPC   C3A63965  22.169  31.449   7.050
 9431POPC   C4A63966  22.196  31.480   7.350
 9431POPC   C1B63967  22.360  31.312   6.450
 9431POPC   C2B63968  22.393  31.286   6.750
 9431POPC   C3B63969  22.384  31.345   7.050
 9431POPC   C4B63970  22.332  31.273   7.350
 9432POPC   NC363971  40.752  44.676   5.550
 9432POPC   PO463972  40.770  44.615   5.850
 9432POPC   GL163973  40.750  44.614   6.150
 9432POPC   GL263974  40.722  44.532   6.150
 9432POPC   C1A63975  40.736  44.692   6.450
 9432POPC   D2A63976  40.743  44.697   6.750
 9432POPC   C3A63977  40.733  44.641   7.050
 9432POPC   C4A63978  40.797  44.628   7.350
 9432POPC   C1B63979  40.686  44.464   6.450
 9432POPC   C2B63980  40.642  44.407   6.750
 9432POPC   C3B63981  40.623  44.474   7.050
 9432POPC   C4B63982  40.655  44.443   7.350
 9433POPC   NC363983  39.974  36.921   5.550
 9433POPC   PO463984  40.019  36.917   5.850
 9433POPC   GL163985  39.974  36.925   6.150
 9433POPC   GL263986  40.064  37.029   6.150
 9433POPC   C1A63987  40.055  36.944   6.450
 9433POPC   D2A63988  39.987  36.870   6.750
 9433POPC   C3A63989  40.030  36.856   7.050
 9433POPC   C4A63990  39.973  36.893   7.350
 9433POPC   C1B63991  40.076  37.099   6.450
 9433POPC   C2B63992  40.071  37.175   6.750
 9433POPC   C3B63993  40.122  37.087   7.050
 9433POPC   C4B63994  40.106  37.167   7.350
 9434POPC   NC363995  25.313  10.496   5.550
 9434POPC   PO463996  25.223  10.516   5.850
 9434POPC   GL163997  25.277  10.518   6.150
 9434POPC   GL263998  25.357  10.376   6.150
 9434POPC   C1A63999  25.297  10.490   6.450
 9434POPC   D2A64000  25.258  10.505   6.750
 9434POPC   C3A64001  25.301  10.507   7.050
 9434POPC   C4A64002  25.290  10.532   7.350
 9434POPC   C1B64003  25.420  10.352   6.450
 9434POPC   C2B64004  25.374  10.320   6.750
 9434POPC   C3B64005  25.429  10.334   7.050
 9434POPC   C4B64006  25.369  10.353   7.350
 9435POPC   NC364007  15.214  39.978   5.550
 9435POPC   PO464008  15.224  40.054   5.850
 9435POPC   GL164009  15.167  40.043   6.150
 9435POPC   GL264010  15.294  39.955   6.150
 9435POPC   C1A64011  15.205  39.998   6.450
 9435POPC   D2A64012  15.225  40.020   6.750
 9435POPC   C3A64013  15.218  40.024   7.050
 9435POPC   C4A64014  15.144  40.005   7.350
 9435POPC   C1B64015  15.354  39.843   6.450
 9435POPC   C2B64016  15.387  39.802   6.750
 9435POPC   C3B64017  15.390  39.860   7.050
 9435POPC   C4B64018  15.383  39.812   7.350
 9436POPC   NC364019   7.401   4.337   5.550
 9436POPC   PO464020   7.404   4.352   5.850
 9436POPC   GL164021   7.416   4.340   6.150
 9436POPC   GL264022   7.581   4.311   6.150
 9436POPC   C1A64023   7.456   4.332   6.450
 9436POPC   D2A64024   7.469   4.352   6.750
 9436POPC   C3A64025   7.372   4.314   7.050
 9436POPC   C4A64026   7.437   4.326   7.350
 9436POPC   C1B64027   7.607   4.194   6.450
 9436POPC   C2B64028   7.631   4.222   6.750
 9436POPC   C3B64029   7.626   4.203   7.050
 9436POPC   C4B64030   7.632   4.263   7.350
 9437POPC   NC364031  26.786  43.920   5.550
 9437POPC   PO464032  26.802  43.924   5.850
 9437POPC   GL164033  26.828  43.852   6.150
 9437POPC   GL264034  26.951  43.759   6.150
 9437POPC   C1A64035  26.806  43.911   6.450
 9437POPC   D2A64036  26.848  43.921   6.750
 9437POPC   C3A64037  26.804  43.931   7.050
 9437POPC   C4A64038  26.853  43.898   7.350
 9437POPC   C1B64039  27.023  43.688   6.450
 9437POPC   C2B64040  27.013  43.728   6.750
 9437POPC   C3B64041  27.034  43.749   7.050
 9437POPC   C4B64042  26.955  43.683   7.350
 9438POPC   NC364043  13.592  17.489   5.550
 9438POPC   PO464044  13.609  17.498   5.850
 9438POPC   GL164045  13.607  17.521   6.150
 9438POPC   GL264046  13.682  17.461   6.150
 9438POPC   C1A64047  13.668  17.500   6.450
 9438POPC   D2A64048  13.662  17.476   6.750
 9438POPC   C3A64049  13.582  17.502   7.050
 9438POPC   C4A64050  13.609  17.527   7.350
 9438POPC   C1B64051  13.755  17.278   6.450
 9438POPC   C2B64052  13.791  17.328   6.750
 9438POPC   C3B64053  13.817  17.334   7.050
 9438POPC   C4B64054  13.759  17.285   7.350
 9439POPC   NC364055  19.833   8.158   5.550
 9439POPC   PO464056  19.795   8.150   5.850
 9439POPC   GL164057  19.863   8.171   6.150
 9439POPC   GL264058  19.887   8.031   6.150
 9439POPC   C1A64059  19.818   8.210   6.450
 9439POPC   D2A64060  19.821   8.159   6.750
 9439POPC   C3A64061  19.839   8.161   7.050
 9439POPC   C4A64062  19.871   8.176   7.350
 9439POPC   C1B64063  19.904   7.918   6.450
 9439POPC   C2B64064  19.881   7.931   6.750
 9439POPC   C3B64065  19.929   7.921   7.050
 9439POPC   C4B64066  19.888   7.907   7.350
 9440POPC   NC364067   1.195  29.177   5.550
 9440POPC   PO464068   1.263  29.110   5.850
 9440POPC   GL164069   1.190  29.159   6.150
 9440POPC   GL264070   1.186  28.994   6.150
 9440POPC   C1A64071   1.175  29.104   6.450
 9440POPC   D2A64072   1.203  29.188   6.750
 9440POPC   C3A64073   1.178  29.192   7.050
 9440POPC   C4A64074   1.253  29.147   7.350
 9440POPC   C1B64075   1.261  28.932   6.450
 9440POPC   C2B64076   1.183  28.876   6.750
 9440POPC   C3B64077   1.174  28.893   7.050
 9440POPC   C4B64078   1.269  28.923   7.350
 9441POPC   NC364079  39.989  16.758   5.550
 9441POPC   PO464080  39.996  16.755   5.850
 9441POPC   GL164081  40.021  16.746   6.150
 9441POPC   GL264082  39.981  16.604   6.150
 9441POPC   C1A64083  39.977  16.711   6.450
 9441POPC   D2A64084  39.984  16.733   6.750
 9441POPC   C3A64085  40.030  16.753   7.050
 9441POPC   C4A64086  40.011  16.703   7.350
 9441POPC   C1B64087  40.016  16.475   6.450
 9441POPC   C2B64088  39.987  16.507   6.750
 9441POPC   C3B64089  39.969  16.438   7.050
 9441POPC   C4B64090  39.979  16.454   7.350
 9442POPC   NC364091  43.145  42.333   5.550
 9442POPC   PO464092  43.091  42.295   5.850
 9442POPC   GL164093  43.113  42.312   6.150
 9442POPC   GL264094  43.212  42.409   6.150
 9442POPC   C1A64095  43.100  42.352   6.450
 9442POPC   D2A64096  43.140  42.304   6.750
 9442POPC   C3A64097  43.119  42.298   7.050
 9442POPC   C4A64098  43.113  42.343   7.350
 9442POPC   C1B64099  43.265  42.586   6.450
 9442POPC   C2B64100  43.258  42.495   6.750
 9442POPC   C3B64101  43.201  42.511   7.050
 9442POPC   C4B64102  43.213  42.532   7.350
 9443POPC   NC364103   8.956  12.078   5.550
 9443POPC   PO464104   8.998  12.097   5.850
 9443POPC   GL164105   8.964  12.062   6.150
 9443POPC   GL264106   8.917  12.121   6.150
 9443POPC   C1A64107   9.001  12.058   6.450
 9443POPC   D2A64108   8.995  12.029   6.750
 9443POPC   C3A64109   8.931  12.048   7.050
 9443POPC   C4A64110   8.986  12.080   7.350
 9443POPC   C1B64111   8.746  12.199   6.450
 9443POPC   C2B64112   8.751  12.257   6.750
 9443POPC   C3B64113   8.793  12.240   7.050
 9443POPC   C4B64114   8.763  12.261   7.350
 9444POPC   NC364115  42.368  36.136   5.550
 9444POPC   PO464116  42.298  36.136   5.850
 9444POPC   GL164117  42.309  36.094   6.150
 9444POPC   GL264118  42.255  36.148   6.150
 9444POPC   C1A64119  42.329  36.161   6.450
 9444POPC   D2A64120  42.321  36.132   6.750
 9444POPC   C3A64121  42.355  36.176   7.050
 9444POPC   C4A64122  42.350  36.122   7.350
 9444POPC   C1B64123  42.076  36.145   6.450
 9444POPC   C2B64124  42.110  36.210   6.750
 9444POPC   C3B64125  42.115  36.222   7.050
 9444POPC   C4B64126  42.085  36.140   7.350
 9445POPC   NC364127  14.434  29.168   5.550
 9445POPC   PO464128  14.436  29.123   5.850
 9445POPC   GL164129  14.369  29.169   6.150
 9445POPC   GL264130  14.298  29.202   6.150
 9445POPC   C1A64131  14.434  29.108   6.450
 9445POPC   D2A64132  14.386  29.171   6.750
 9445POPC   C3A64133  14.380  29.169   7.050
 9445POPC   C4A64134  14.370  29.126   7.350
 9445POPC   C1B64135  14.206  29.344   6.450
 9445POPC   C2B64136  14.216  29.282   6.750
 9445POPC   C3B64137  14.257  29.364   7.050
 9445POPC   C4B64138  14.185  29.281   7.350
 9446POPC   NC364139  24.486  37.718   5.550
 9446POPC   PO464140  24.513  37.646   5.850
 9446POPC   GL164141  24.529  37.669   6.150
 9446POPC   GL264142  24.320  37.710   6.150
 9446POPC   C1A64143  24.458  37.693   6.450
 9446POPC   D2A64144  24.446  37.728   6.750
 9446POPC   C3A64145  24.511  37.651   7.050
 9446POPC   C4A64146  24.482  37.690   7.350
 9446POPC   C1B64147  24.235  37.661   6.450
 9446POPC   C2B64148  24.265  37.667   6.750
 9446POPC   C3B64149  24.238  37.681   7.050
 9446POPC   C4B64150  24.209  37.729   7.350
 9447POPC   NC364151   5.870  11.348   5.550
 9447POPC   PO464152   5.911  11.264   5.850
 9447POPC   GL164153   5.851  11.345   6.150
 9447POPC   GL264154   5.725  11.369   6.150
 9447POPC   C1A64155   5.909  11.322   6.450
 9447POPC   D2A64156   5.897  11.285   6.750
 9447POPC   C3A64157   5.830  11.280   7.050
 9447POPC   C4A64158   5.909  11.275   7.350
 9447POPC   C1B64159   5.643  11.339   6.450
 9447POPC   C2B64160   5.672  11.369   6.750
 9447POPC   C3B64161   5.669  11.298   7.050
 9447POPC   C4B64162   5.605  11.334   7.350
 9448POPC   NC364163  28.361   2.767   5.550
 9448POPC   PO464164  28.353   2.805   5.850
 9448POPC   GL164165  28.379   2.743   6.150
 9448POPC   GL264166  28.322   2.651   6.150
 9448POPC   C1A64167  28.378   2.772   6.450
 9448POPC   D2A64168  28.394   2.761   6.750
 9448POPC   C3A64169  28.385   2.742   7.050
 9448POPC   C4A64170  28.397   2.755   7.350
 9448POPC   C1B64171  28.326   2.479   6.450
 9448POPC   C2B64172  28.362   2.541   6.750
 9448POPC   C3B64173  28.368   2.522   7.050
 9448POPC   C4B64174  28.368   2.534   7.350
 9449POPC   NC364175   7.396  43.868   5.550
 9449POPC   PO464176   7.382  43.858   5.850
 9449POPC   GL164177   7.411  43.867   6.150
 9449POPC   GL264178   7.383  43.973   6.150
 9449POPC   C1A64179   7.430  43.889   6.450
 9449POPC   D2A64180   7.430  43.894   6.750
 9449POPC   C3A64181   7.454  43.847   7.050
 9449POPC   C4A64182   7.431  43.851   7.350
 9449POPC   C1B64183   7.258  44.102   6.450
 9449POPC   C2B64184   7.349  44.120   6.750
 9449POPC   C3B64185   7.277  44.089   7.050
 9449POPC   C4B64186   7.341  44.152   7.350
 9450POPC   NC364187  11.258  14.355   5.550
 9450POPC   PO464188  11.343  14.444   5.850
 9450POPC   GL164189  11.276  14.430   6.150
 9450POPC   GL264190  11.359  14.537   6.150
 9450POPC   C1A64191  11.280  14.449   6.450
 9450POPC   D2A64192  11.273  14.381   6.750
 9450POPC   C3A64193  11.319  14.414   7.050
 9450POPC   C4A64194  11.335  14.360   7.350
 9450POPC   C1B64195  11.464  14.581   6.450
 9450POPC   C2B64196  11.457  14.566   6.750
 9450POPC   C3B64197  11.466  14.611   7.050
 9450POPC   C4B64198  11.461  14.581   7.350
 9451POPC   NC364199  36.174  12.032   5.550
 9451POPC   PO464200  36.107  12.038   5.850
 9451POPC   GL164201  36.157  12.042   6.150
 9451POPC   GL264202  36.043  12.149   6.150
 9451POPC   C1A64203  36.118  12.051   6.450
 9451POPC   D2A64204  36.091  12.034   6.750
 9451POPC   C3A64205  36.118  12.060   7.050
 9451POPC   C4A64206  36.099  12.028   7.350
 9451POPC   C1B64207  35.995  12.264   6.450
 9451POPC   C2B64208  35.997  12.343   6.750
 9451POPC   C3B64209  36.078  12.308   7.050
 9451POPC   C4B64210  36.051  12.309   7.350
 9452POPC   NC364211  36.177   8.960   5.550
 9452POPC   PO464212  36.082   8.933   5.850
 9452POPC   GL164213  36.138   8.934   6.150
 9452POPC   GL264214  36.125   8.837   6.150
 9452POPC   C1A64215  36.143   9.022   6.450
 9452POPC   D2A64216  36.097   8.967   6.750
 9452POPC   C3A64217  36.154   8.986   7.050
 9452POPC   C4A64218  36.125   8.981   7.350
 9452POPC   C1B64219  36.140   8.675   6.450
 9452POPC   C2B64220  36.153   8.708   6.750
 9452POPC   C3B64221  36.159   8.696   7.050
 9452POPC   C4B64222  36.131   8.691   7.350
 9453POPC   NC364223   7.466   8.246   5.550
 9453POPC   PO464224   7.431   8.174   5.850
 9453POPC   GL164225   7.373   8.170   6.150
 9453POPC   GL264226   7.558   8.091   6.150
 9453POPC   C1A64227   7.417   8.191   6.450
 9453POPC   D2A64228   7.385   8.240   6.750
 9453POPC   C3A64229   7.408   8.206   7.050
 9453POPC   C4A64230   7.409   8.235   7.350
 9453POPC   C1B64231   7.661   8.001   6.450
 9453POPC   C2B64232   7.623   8.052   6.750
 9453POPC   C3B64233   7.650   8.036   7.050
 9453POPC   C4B64234   7.592   8.081   7.350
 9454POPC   NC364235   6.627  22.890   5.550
 9454POPC   PO464236   6.640  22.929   5.850
 9454POPC   GL164237   6.642  22.893   6.150
 9454POPC   GL264238   6.520  22.805   6.150
 9454POPC   C1A64239   6.632  22.964   6.450
 9454POPC   D2A64240   6.620  22.961   6.750
 9454POPC   C3A64241   6.636  22.985   7.050
 9454POPC   C4A64242   6.653  22.892   7.350
 9454POPC   C1B64243   6.443  22.784   6.450
 9454POPC   C2B64244   6.504  22.741   6.750
 9454POPC   C3B64245   6.534  22.714   7.050
 9454POPC   C4B64246   6.518  22.787   7.350
 9455POPC   NC364247  33.021  41.556   5.550
 9455POPC   PO464248  33.064  41.557   5.850
 9455POPC   GL164249  33.038  41.545   6.150
 9455POPC   GL264250  33.078  41.523   6.150
 9455POPC   C1A64251  33.029  41.585   6.450
 9455POPC   D2A64252  33.017  41.577   6.750
 9455POPC   C3A64253  32.976  41.546   7.050
 9455POPC   C4A64254  32.975  41.538   7.350
 9455POPC   C1B64255  33.203  41.396   6.450
 9455POPC   C2B64256  33.259  41.421   6.750
 9455POPC   C3B64257  33.209  41.379   7.050
 9455POPC   C4B64258  33.195  41.372   7.350
 9456POPC   NC364259  33.826  33.845   5.550
 9456POPC   PO464260  33.769  33.846   5.850
 9456POPC   GL164261  33.776  33.839   6.150
 9456POPC   GL264262  33.884  33.723   6.150
 9456POPC   C1A64263  33.843  33.837   6.450
 9456POPC   D2A64264  33.758  33.825   6.750
 9456POPC   C3A64265  33.768  33.812   7.050
 9456POPC   C4A64266  33.767  33.787   7.350
 9456POPC   C1B64267  33.986  33.664   6.450
 9456POPC   C2B64268  33.990  33.634   6.750
 9456POPC   C3B64269  34.064  33.668   7.050
 9456POPC   C4B64270  34.014  33.670   7.350
 9457POPC   NC364271  19.846   9.757   5.550
 9457POPC   PO464272  19.836   9.719   5.850
 9457POPC   GL164273  19.832   9.751   6.150
 9457POPC   GL264274  19.705   9.666   6.150
 9457POPC   C1A64275  19.835   9.728   6.450
 9457POPC   D2A64276  19.880   9.762   6.750
 9457POPC   C3A64277  19.827   9.756   7.050
 9457POPC   C4A64278  19.788   9.770   7.350
 9457POPC   C1B64279  19.656   9.625   6.450
 9457POPC   C2B64280  19.619   9.667   6.750
 9457POPC   C3B64281  19.603   9.652   7.050
 9457POPC   C4B64282  19.597   9.694   7.350
 9458POPC   NC364283  32.268  29.944   5.550
 9458POPC   PO464284  32.201  29.945   5.850
 9458POPC   GL164285  32.222  29.952   6.150
 9458POPC   GL264286  32.181  30.005   6.150
 9458POPC   C1A64287  32.261  29.891   6.450
 9458POPC   D2A64288  32.243  29.904   6.750
 9458POPC   C3A64289  32.227  29.959   7.050
 9458POPC   C4A64290  32.230  29.944   7.350
 9458POPC   C1B64291  32.161  30.143   6.450
 9458POPC   C2B64292  32.215  30.185   6.750
 9458POPC   C3B64293  32.211  30.174   7.050
 9458POPC   C4B64294  32.187  30.117   7.350
 9459POPC   NC364295  36.136   0.390   5.550
 9459POPC   PO464296  36.118   0.399   5.850
 9459POPC   GL164297  36.131   0.398   6.150
 9459POPC   GL264298  36.040   0.501   6.150
 9459POPC   C1A64299  36.151   0.449   6.450
 9459POPC   D2A64300  36.148   0.463   6.750
 9459POPC   C3A64301  36.153   0.463   7.050
 9459POPC   C4A64302  36.175   0.399   7.350
 9459POPC   C1B64303  35.942   0.660   6.450
 9459POPC   C2B64304  35.946   0.626   6.750
 9459POPC   C3B64305  35.995   0.679   7.050
 9459POPC   C4B64306  36.002   0.600   7.350
 9460POPC   NC364307  42.379  24.512   5.550
 9460POPC   PO464308  42.346  24.446   5.850
 9460POPC   GL164309  42.329  24.477   6.150
 9460POPC   GL264310  42.229  24.432   6.150
 9460POPC   C1A64311  42.370  24.481   6.450
 9460POPC   D2A64312  42.302  24.463   6.750
 9460POPC   C3A64313  42.309  24.456   7.050
 9460POPC   C4A64314  42.375  24.535   7.350
 9460POPC   C1B64315  42.175  24.333   6.450
 9460POPC   C2B64316  42.112  24.358   6.750
 9460POPC   C3B64317  42.169  24.287   7.050
 9460POPC   C4B64318  42.200  24.312   7.350
 9461POPC   NC364319  33.059  28.324   5.550
 9461POPC   PO464320  33.014  28.324   5.850
 9461POPC   GL164321  33.060  28.363   6.150
 9461POPC   GL264322  32.916  28.417   6.150
 9461POPC   C1A64323  33.041  28.327   6.450
 9461POPC   D2A64324  33.012  28.355   6.750
 9461POPC   C3A64325  33.037  28.333   7.050
 9461POPC   C4A64326  32.984  28.367   7.350
 9461POPC   C1B64327  32.772  28.477   6.450
 9461POPC   C2B64328  32.784  28.422   6.750
 9461POPC   C3B64329  32.777  28.474   7.050
 9461POPC   C4B64330  32.818  28.430   7.350
 9462POPC   NC364331  19.056  43.082   5.550
 9462POPC   PO464332  19.013  43.097   5.850
 9462POPC   GL164333  19.025  43.140   6.150
 9462POPC   GL264334  18.887  43.107   6.150
 9462POPC   C1A64335  19.046  43.150   6.450
 9462POPC   D2A64336  19.065  43.078   6.750
 9462POPC   C3A64337  19.018  43.070   7.050
 9462POPC   C4A64338  19.023  43.108   7.350
 9462POPC   C1B64339  18.764  43.092   6.450
 9462POPC   C2B64340  18.825  43.129   6.750
 9462POPC   C3B64341  18.823  43.107   7.050
 9462POPC   C4B64342  18.856  43.100   7.350
 9463POPC   NC364343  14.402  12.900   5.550
 9463POPC   PO464344  14.380  12.887   5.850
 9463POPC   GL164345  14.450  12.877   6.150
 9463POPC   GL264346  14.541  12.873   6.150
 9463POPC   C1A64347  14.379  12.887   6.450
 9463POPC   D2A64348  14.356  12.866   6.750
 9463POPC   C3A64349  14.423  12.814   7.050
 9463POPC   C4A64350  14.453  12.877   7.350
 9463POPC   C1B64351  14.605  12.951   6.450
 9463POPC   C2B64352  14.669  12.929   6.750
 9463POPC   C3B64353  14.666  12.882   7.050
 9463POPC   C4B64354  14.619  12.872   7.350
 9464POPC   NC364355   3.538  32.261   5.550
 9464POPC   PO464356   3.548  32.220   5.850
 9464POPC   GL164357   3.591  32.202   6.150
 9464POPC   GL264358   3.567  32.102   6.150
 9464POPC   C1A64359   3.561  32.284   6.450
 9464POPC   D2A64360   3.520  32.275   6.750
 9464POPC   C3A64361   3.517  32.260   7.050
 9464POPC   C4A64362   3.585  32.244   7.350
 9464POPC   C1B64363   3.669  31.994   6.450
 9464POPC   C2B64364   3.614  32.043   6.750
 9464POPC   C3B64365   3.668  31.972   7.050
 9464POPC   C4B64366   3.622  31.990   7.350
 9465POPC   NC364367  35.387  35.395   5.550
 9465POPC   PO464368  35.356  35.347   5.850
 9465POPC   GL164369  35.317  35.335   6.150
 9465POPC   GL264370  35.420  35.408   6.150
 9465POPC   C1A64371  35.374  35.337   6.450
 9465POPC   D2A64372  35.400  35.373   6.750
 9465POPC   C3A64373  35.372  35.341   7.050
 9465POPC   C4A64374  35.319  35.311   7.350
 9465POPC   C1B64375  35.468  35.559   6.450
 9465POPC   C2B64376  35.479  35.571   6.750
 9465POPC   C3B64377  35.488  35.566   7.050
 9465POPC   C4B64378  35.554  35.531   7.350
 9466POPC   NC364379   8.998   6.606   5.550
 9466POPC   PO464380   8.960   6.684   5.850
 9466POPC   GL164381   8.958   6.674   6.150
 9466POPC   GL264382   9.029   6.735   6.150
 9466POPC   C1A64383   8.944   6.684   6.450
 9466POPC   D2A64384   9.002   6.604   6.750
 9466POPC   C3A64385   8.977   6.621   7.050
 9466POPC   C4A64386   8.930   6.686   7.350
 9466POPC   C1B64387   9.140   6.772   6.450
 9466POPC   C2B64388   9.200   6.794   6.750
 9466POPC   C3B64389   9.195   6.846   7.050
 9466POPC   C4B64390   9.109   6.788   7.350
 9467POPC   NC364391  37.679  34.553   5.550
 9467POPC   PO464392  37.667  34.536   5.850
 9467POPC   GL164393  37.637  34.615   6.150
 9467POPC   GL264394  37.730  34.475   6.150
 9467POPC   C1A64395  37.630  34.570   6.450
 9467POPC   D2A64396  37.651  34.587   6.750
 9467POPC   C3A64397  37.672  34.610   7.050
 9467POPC   C4A64398  37.629  34.546   7.350
 9467POPC   C1B64399  37.704  34.282   6.450
 9467POPC   C2B64400  37.677  34.337   6.750
 9467POPC   C3B64401  37.715  34.328   7.050
 9467POPC   C4B64402  37.722  34.348   7.350
 9468POPC   NC364403  30.663  33.802   5.550
 9468POPC   PO464404  30.690  33.751   5.850
 9468POPC   GL164405  30.668  33.785   6.150
 9468POPC   GL264406  30.579  33.724   6.150
 9468POPC   C1A64407  30.724  33.758   6.450
 9468POPC   D2A64408  30.743  33.781   6.750
 9468POPC   C3A64409  30.730  33.750   7.050
 9468POPC   C4A64410  30.669  33.843   7.350
 9468POPC   C1B64411  30.488  33.685   6.450
 9468POPC   C2B64412  30.449  33.714   6.750
 9468POPC   C3B64413  30.421  33.693   7.050
 9468POPC   C4B64414  30.483  33.736   7.350
 9469POPC   NC364415  22.112   1.997   5.550
 9469POPC   PO464416  22.126   1.956   5.850
 9469POPC   GL164417  22.204   1.993   6.150
 9469POPC   GL264418  22.047   2.101   6.150
 9469POPC   C1A64419  22.123   1.977   6.450
 9469POPC   D2A64420  22.117   1.940   6.750
 9469POPC   C3A64421  22.172   1.975   7.050
 9469POPC   C4A64422  22.136   1.956   7.350
 9469POPC   C1B64423  22.037   2.140   6.450
 9469POPC   C2B64424  21.994   2.229   6.750
 9469POPC   C3B64425  22.053   2.148   7.050
 9469POPC   C4B64426  22.000   2.227   7.350
 9470POPC   NC364427  20.657   8.175   5.550
 9470POPC   PO464428  20.644   8.155   5.850
 9470POPC   GL164429  20.646   8.178   6.150
 9470POPC   GL264430  20.547   8.122   6.150
 9470POPC   C1A64431  20.587   8.155   6.450
 9470POPC   D2A64432  20.618   8.219   6.750
 9470POPC   C3A64433  20.574   8.185   7.050
 9470POPC   C4A64434  20.569   8.219   7.350
 9470POPC   C1B64435  20.468   8.055   6.450
 9470POPC   C2B64436  20.428   7.998   6.750
 9470POPC   C3B64437  20.394   7.988   7.050
 9470POPC   C4B64438  20.397   8.021   7.350
 9471POPC   NC364439  37.666  19.799   5.550
 9471POPC   PO464440  37.669  19.848   5.850
 9471POPC   GL164441  37.674  19.863   6.150
 9471POPC   GL264442  37.641  19.974   6.150
 9471POPC   C1A64443  37.658  19.857   6.450
 9471POPC   D2A64444  37.726  19.810   6.750
 9471POPC   C3A64445  37.706  19.852   7.050
 9471POPC   C4A64446  37.673  19.850   7.350
 9471POPC   C1B64447  37.562  20.061   6.450
 9471POPC   C2B64448  37.486  20.000   6.750
 9471POPC   C3B64449  37.530  20.051   7.050
 9471POPC   C4B64450  37.511  20.018   7.350
 9472POPC   NC364451   5.858  12.891   5.550
 9472POPC   PO464452   5.869  12.855   5.850
 9472POPC   GL164453   5.903  12.854   6.150
 9472POPC   GL264454   5.759  12.903   6.150
 9472POPC   C1A64455   5.820  12.849   6.450
 9472POPC   D2A64456   5.854  12.861   6.750
 9472POPC   C3A64457   5.915  12.898   7.050
 9472POPC   C4A64458   5.915  12.856   7.350
 9472POPC   C1B64459   5.597  12.864   6.450
 9472POPC   C2B64460   5.660  12.955   6.750
 9472POPC   C3B64461   5.652  12.925   7.050
 9472POPC   C4B64462   5.630  12.924   7.350
 9473POPC   NC364463  13.603  43.882   5.550
 9473POPC   PO464464  13.669  43.902   5.850
 9473POPC   GL164465  13.618  43.932   6.150
 9473POPC   GL264466  13.534  43.784   6.150
 9473POPC   C1A64467  13.580  43.871   6.450
 9473POPC   D2A64468  13.603  43.881   6.750
 9473POPC   C3A64469  13.608  43.845   7.050
 9473POPC   C4A64470  13.597  43.860   7.350
 9473POPC   C1B64471  13.451  43.809   6.450
 9473POPC   C2B64472  13.427  43.751   6.750
 9473POPC   C3B64473  13.413  43.777   7.050
 9473POPC   C4B64474  13.364  43.766   7.350
 9474POPC   NC364475  36.146  43.133   5.550
 9474POPC   PO464476  36.124  43.143   5.850
 9474POPC   GL164477  36.117  43.092   6.150
 9474POPC   GL264478  36.156  42.976   6.150
 9474POPC   C1A64479  36.087  43.093   6.450
 9474POPC   D2A64480  36.096  43.160   6.750
 9474POPC   C3A64481  36.147  43.069   7.050
 9474POPC   C4A64482  36.118  43.125   7.350
 9474POPC   C1B64483  36.163  42.873   6.450
 9474POPC   C2B64484  36.123  42.821   6.750
 9474POPC   C3B64485  36.187  42.831   7.050
 9474POPC   C4B64486  36.121  42.814   7.350
 9475POPC   NC364487  38.415  28.371   5.550
 9475POPC   PO464488  38.475  28.370   5.850
 9475POPC   GL164489  38.472  28.320   6.150
 9475POPC   GL264490  38.482  28.467   6.150
 9475POPC   C1A64491  38.437  28.378   6.450
 9475POPC   D2A64492  38.435  28.320   6.750
 9475POPC   C3A64493  38.498  28.376   7.050
 9475POPC   C4A64494  38.428  28.334   7.350
 9475POPC   C1B64495  38.531  28.642   6.450
 9475POPC   C2B64496  38.498  28.633   6.750
 9475POPC   C3B64497  38.563  28.592   7.050
 9475POPC   C4B64498  38.490  28.611   7.350
 9476POPC   NC364499  14.447  36.941   5.550
 9476POPC   PO464500  14.391  36.942   5.850
 9476POPC   GL164501  14.360  36.899   6.150
 9476POPC   GL264502  14.379  37.074   6.150
 9476POPC   C1A64503  14.438  36.947   6.450
 9476POPC   D2A64504  14.362  36.888   6.750
 9476POPC   C3A64505  14.426  36.935   7.050
 9476POPC   C4A64506  14.422  36.940   7.350
 9476POPC   C1B64507  14.428  37.186   6.450
 9476POPC   C2B64508  14.384  37.120   6.750
 9476POPC   C3B64509  14.363  37.124   7.050
 9476POPC   C4B64510  14.372  37.116   7.350
 9477POPC   NC364511  25.270   7.443   5.550
 9477POPC   PO464512  25.259   7.438   5.850
 9477POPC   GL164513  25.308   7.400   6.150
 9477POPC   GL264514  25.225   7.284   6.150
 9477POPC   C1A64515  25.231   7.377   6.450
 9477POPC   D2A64516  25.229   7.436   6.750
 9477POPC   C3A64517  25.283   7.401   7.050
 9477POPC   C4A64518  25.259   7.374   7.350
 9477POPC   C1B64519  25.221   7.139   6.450
 9477POPC   C2B64520  25.246   7.143   6.750
 9477POPC   C3B64521  25.251   7.205   7.050
 9477POPC   C4B64522  25.273   7.171   7.350
 9478POPC   NC364523  36.094  26.813   5.550
 9478POPC   PO464524  36.140  26.802   5.850
 9478POPC   GL164525  36.158  26.837   6.150
 9478POPC   GL264526  35.996  26.754   6.150
 9478POPC   C1A64527  36.163  26.773   6.450
 9478POPC   D2A64528  36.124  26.834   6.750
 9478POPC   C3A64529  36.122  26.810   7.050
 9478POPC   C4A64530  36.109  26.827   7.350
 9478POPC   C1B64531  35.900  26.608   6.450
 9478POPC   C2B64532  35.933  26.610   6.750
 9478POPC   C3B64533  35.905  26.607   7.050
 9478POPC   C4B64534  35.927  26.656   7.350
 9479POPC   NC364535   7.464  15.216   5.550
 9479POPC   PO464536   7.434  15.135   5.850
 9479POPC   GL164537   7.390  15.220   6.150
 9479POPC   GL264538   7.532  15.265   6.150
 9479POPC   C1A64539   7.376  15.214   6.450
 9479POPC   D2A64540   7.383  15.143   6.750
 9479POPC   C3A64541   7.403  15.205   7.050
 9479POPC   C4A64542   7.451  15.131   7.350
 9479POPC   C1B64543   7.642  15.344   6.450
 9479POPC   C2B64544   7.604  15.329   6.750
 9479POPC   C3B64545   7.620  15.379   7.050
 9479POPC   C4B64546   7.640  15.333   7.350
 9480POPC   NC364547  36.157  11.279   5.550
 9480POPC   PO464548  36.101  11.318   5.850
 9480POPC   GL164549  36.078  11.343   6.150
 9480POPC   GL264550  36.284  11.225   6.150
 9480POPC   C1A64551  36.174  11.280   6.450
 9480POPC   D2A64552  36.142  11.329   6.750
 9480POPC   C3A64553  36.079  11.324   7.050
 9480POPC   C4A64554  36.141  11.271   7.350
 9480POPC   C1B64555  36.298  11.194   6.450
 9480POPC   C2B64556  36.369  11.192   6.750
 9480POPC   C3B64557  36.378  11.226   7.050
 9480POPC   C4B64558  36.379  11.211   7.350
 9481POPC   NC364559  36.099   4.282   5.550
 9481POPC   PO464560  36.158   4.303   5.850
 9481POPC   GL164561  36.156   4.272   6.150
 9481POPC   GL264562  36.018   4.284   6.150
 9481POPC   C1A64563  36.080   4.353   6.450
 9481POPC   D2A64564  36.135   4.344   6.750
 9481POPC   C3A64565  36.091   4.309   7.050
 9481POPC   C4A64566  36.100   4.317   7.350
 9481POPC   C1B64567  35.947   4.190   6.450
 9481POPC   C2B64568  35.903   4.105   6.750
 9481POPC   C3B64569  35.922   4.165   7.050
 9481POPC   C4B64570  35.980   4.129   7.350
 9482POPC   NC364571  15.143  44.663   5.550
 9482POPC   PO464572  15.134  44.674   5.850
 9482POPC   GL164573  15.198  44.699   6.150
 9482POPC   GL264574  15.194  44.757   6.150
 9482POPC   C1A64575  15.142  44.689   6.450
 9482POPC   D2A64576  15.148  44.618   6.750
 9482POPC   C3A64577  15.132  44.622   7.050
 9482POPC   C4A64578  15.158  44.684   7.350
 9482POPC   C1B64579  15.164  44.957   6.450
 9482POPC   C2B64580  15.222  44.888   6.750
 9482POPC   C3B64581  15.151  44.922   7.050
 9482POPC   C4B64582  15.167  44.941   7.350
 9483POPC   NC364583  28.397  44.636   5.550
 9483POPC   PO464584  28.402  44.625   5.850
 9483POPC   GL164585  28.336  44.625   6.150
 9483POPC   GL264586  28.379  44.749   6.150
 9483POPC   C1A64587  28.388  44.656   6.450
 9483POPC   D2A64588  28.407  44.625   6.750
 9483POPC   C3A64589  28.384  44.625   7.050
 9483POPC   C4A64590  28.339  44.675   7.350
 9483POPC   C1B64591  28.324  44.910   6.450
 9483POPC   C2B64592  28.310  44.893   6.750
 9483POPC   C3B64593  28.275  44.860   7.050
 9483POPC   C4B64594  28.323  44.893   7.350
 9484POPC   NC364595  22.901  25.268   5.550
 9484POPC   PO464596  22.924  25.262   5.850
 9484POPC   GL164597  22.986  25.259   6.150
 9484POPC   GL264598  22.807  25.212   6.150
 9484POPC   C1A64599  22.932  25.289   6.450
 9484POPC   D2A64600  22.983  25.254   6.750
 9484POPC   C3A64601  22.958  25.225   7.050
 9484POPC   C4A64602  22.983  25.238   7.350
 9484POPC   C1B64603  22.689  25.199   6.450
 9484POPC   C2B64604  22.694  25.147   6.750
 9484POPC   C3B64605  22.687  25.136   7.050
 9484POPC   C4B64606  22.669  25.149   7.350
 9485POPC   NC364607  39.199  22.152   5.550
 9485POPC   PO464608  39.274  22.158   5.850
 9485POPC   GL164609  39.185  22.177   6.150
 9485POPC   GL264610  39.363  22.077   6.150
 9485POPC   C1A64611  39.214  22.162   6.450
 9485POPC   D2A64612  39.256  22.192   6.750
 9485POPC   C3A64613  39.275  22.201   7.050
 9485POPC   C4A64614  39.197  22.160   7.350
 9485POPC   C1B64615  39.460  22.107   6.450
 9485POPC   C2B64616  39.415  22.056   6.750
 9485POPC   C3B64617  39.444  22.048   7.050
 9485POPC   C4B64618  39.415  22.055   7.350
 9486POPC   NC364619  17.462  26.867   5.550
 9486POPC   PO464620  17.542  26.821   5.850
 9486POPC   GL164621  17.488  26.864   6.150
 9486POPC   GL264622  17.382  26.876   6.150
 9486POPC   C1A64623  17.458  26.839   6.450
 9486POPC   D2A64624  17.528  26.771   6.750
 9486POPC   C3A64625  17.479  26.861   7.050
 9486POPC   C4A64626  17.492  26.796   7.350
 9486POPC   C1B64627  17.272  26.920   6.450
 9486POPC   C2B64628  17.265  26.910   6.750
 9486POPC   C3B64629  17.299  26.902   7.050
 9486POPC   C4B64630  17.288  26.934   7.350
 9487POPC   NC364631   5.122  22.196   5.550
 9487POPC   PO464632   5.097  22.159   5.850
 9487POPC   GL164633   5.060  22.150   6.150
 9487POPC   GL264634   5.247  22.159   6.150
 9487POPC   C1A64635   5.098  22.180   6.450
 9487POPC   D2A64636   5.126  22.203   6.750
 9487POPC   C3A64637   5.044  22.198   7.050
 9487POPC   C4A64638   5.125  22.196   7.350
 9487POPC   C1B64639   5.349  22.053   6.450
 9487POPC   C2B64640   5.287  22.028   6.750
 9487POPC   C3B64641   5.349  22.076   7.050
 9487POPC   C4B64642   5.290  22.023   7.350
 9488POPC   NC364643  20.603   8.934   5.550
 9488POPC   PO464644  20.615   8.990   5.850
 9488POPC   GL164645  20.624   8.939   6.150
 9488POPC   GL264646  20.618   8.861   6.150
 9488POPC   C1A64647  20.583   8.957   6.450
 9488POPC   D2A64648  20.573   9.012   6.750
 9488POPC   C3A64649  20.651   8.974   7.050
 9488POPC   C4A64650  20.571   8.947   7.350
 9488POPC   C1B64651  20.716   8.708   6.450
 9488POPC   C2B64652  20.722   8.736   6.750
 9488POPC   C3B64653  20.712   8.722   7.050
 9488POPC   C4B64654  20.658   8.697   7.350
 9489POPC   NC364655  44.640  40.037   5.550
 9489POPC   PO464656  44.674  39.973   5.850
 9489POPC   GL164657  44.664  39.997   6.150
 9489POPC   GL264658  44.781  40.072   6.150
 9489POPC   C1A64659  44.652  39.962   6.450
 9489POPC   D2A64660  44.618  39.971   6.750
 9489POPC   C3A64661  44.683  39.968   7.050
 9489POPC   C4A64662  44.635  39.977   7.350
 9489POPC   C1B64663  44.857  40.225   6.450
 9489POPC   C2B64664  44.770  40.234   6.750
 9489POPC   C3B64665  44.822  40.191   7.050
 9489POPC   C4B64666  44.810  40.220   7.350
 9490POPC   NC364667   5.067  28.396   5.550
 9490POPC   PO464668   5.090  28.365   5.850
 9490POPC   GL164669   5.131  28.321   6.150
 9490POPC   GL264670   5.165  28.282   6.150
 9490POPC   C1A64671   5.053  28.418   6.450
 9490POPC   D2A64672   5.051  28.401   6.750
 9490POPC   C3A64673   5.063  28.362   7.050
 9490POPC   C4A64674   5.065  28.360   7.350
 9490POPC   C1B64675   5.319  28.287   6.450
 9490POPC   C2B64676   5.294  28.283   6.750
 9490POPC   C3B64677   5.353  28.202   7.050
 9490POPC   C4B64678   5.347  28.213   7.350
 9491POPC   NC364679   0.476   3.525   5.550
 9491POPC   PO464680   0.407   3.498   5.850
 9491POPC   GL164681   0.442   3.587   6.150
 9491POPC   GL264682   0.392   3.466   6.150
 9491POPC   C1A64683   0.457   3.561   6.450
 9491POPC   D2A64684   0.463   3.539   6.750
 9491POPC   C3A64685   0.481   3.503   7.050
 9491POPC   C4A64686   0.480   3.533   7.350
 9491POPC   C1B64687   0.320   3.286   6.450
 9491POPC   C2B64688   0.349   3.371   6.750
 9491POPC   C3B64689   0.338   3.335   7.050
 9491POPC   C4B64690   0.316   3.342   7.350
 9492POPC   NC364691   1.187   5.087   5.550
 9492POPC   PO464692   1.242   5.136   5.850
 9492POPC   GL164693   1.186   5.116   6.150
 9492POPC   GL264694   1.344   5.147   6.150
 9492POPC   C1A64695   1.232   5.085   6.450
 9492POPC   D2A64696   1.257   5.117   6.750
 9492POPC   C3A64697   1.227   5.054   7.050
 9492POPC   C4A64698   1.256   5.103   7.350
 9492POPC   C1B64699   1.490   5.169   6.450
 9492POPC   C2B64700   1.421   5.124   6.750
 9492POPC   C3B64701   1.455   5.134   7.050
 9492POPC   C4B64702   1.492   5.165   7.350
 9493POPC   NC364703  12.808  24.500   5.550
 9493POPC   PO464704  12.830  24.482   5.850
 9493POPC   GL164705  12.874  24.490   6.150
 9493POPC   GL264706  13.000  24.440   6.150
 9493POPC   C1A64707  12.842  24.516   6.450
 9493POPC   D2A64708  12.890  24.443   6.750
 9493POPC   C3A64709  12.856  24.520   7.050
 9493POPC   C4A64710  12.857  24.486   7.350
 9493POPC   C1B64711  13.018  24.359   6.450
 9493POPC   C2B64712  13.088  24.346   6.750
 9493POPC   C3B64713  13.033  24.364   7.050
 9493POPC   C4B64714  13.092  24.361   7.350
 9494POPC   NC364715   2.760  19.068   5.550
 9494POPC   PO464716   2.769  19.103   5.850
 9494POPC   GL164717   2.776  19.049   6.150
 9494POPC   GL264718   2.937  19.078   6.150
 9494POPC   C1A64719   2.761  19.020   6.450
 9494POPC   D2A64720   2.796  19.041   6.750
 9494POPC   C3A64721   2.804  19.107   7.050
 9494POPC   C4A64722   2.804  19.073   7.350
 9494POPC   C1B64723   3.036  19.017   6.450
 9494POPC   C2B64724   3.019  19.024   6.750
 9494POPC   C3B64725   2.968  19.017   7.050
 9494POPC   C4B64726   2.988  19.077   7.350
 9495POPC   NC364727  41.573  12.802   5.550
 9495POPC   PO464728  41.580  12.828   5.850
 9495POPC   GL164729  41.583  12.900   6.150
 9495POPC   GL264730  41.478  12.979   6.150
 9495POPC   C1A64731  41.524  12.808   6.450
 9495POPC   D2A64732  41.585  12.892   6.750
 9495POPC   C3A64733  41.563  12.886   7.050
 9495POPC   C4A64734  41.598  12.848   7.350
 9495POPC   C1B64735  41.340  13.058   6.450
 9495POPC   C2B64736  41.378  12.981   6.750
 9495POPC   C3B64737  41.365  12.984   7.050
 9495POPC   C4B64738  41.402  13.055   7.350
 9496POPC   NC364739  33.772  44.633   5.550
 9496POPC   PO464740  33.838  44.630   5.850
 9496POPC   GL164741  33.818  44.648   6.150
 9496POPC   GL264742  33.757  44.728   6.150
 9496POPC   C1A64743  33.806  44.688   6.450
 9496POPC   D2A64744  33.801  44.710   6.750
 9496POPC   C3A64745  33.834  44.665   7.050
 9496POPC   C4A64746  33.800  44.686   7.350
 9496POPC   C1B64747  33.679  44.891   6.450
 9496POPC   C2B64748  33.655  44.864   6.750
 9496POPC   C3B64749  33.742  44.866   7.050
 9496POPC   C4B64750  33.745  44.874   7.350
 9497POPC   NC364751  39.206  42.291   5.550
 9497POPC   PO464752  39.193  42.328   5.850
 9497POPC   GL164753  39.217  42.327   6.150
 9497POPC   GL264754  39.131  42.218   6.150
 9497POPC   C1A64755  39.211  42.377   6.450
 9497POPC   D2A64756  39.208  42.351   6.750
 9497POPC   C3A64757  39.194  42.317   7.050
 9497POPC   C4A64758  39.273  42.331   7.350
 9497POPC   C1B64759  39.106  42.070   6.450
 9497POPC   C2B64760  39.140  42.128   6.750
 9497POPC   C3B64761  39.106  42.126   7.050
 9497POPC   C4B64762  39.130  42.137   7.350
 9498POPC   NC364763   7.450   3.552   5.550
 9498POPC   PO464764   7.442   3.585   5.850
 9498POPC   GL164765   7.399   3.589   6.150
 9498POPC   GL264766   7.298   3.606   6.150
 9498POPC   C1A64767   7.377   3.549   6.450
 9498POPC   D2A64768   7.447   3.499   6.750
 9498POPC   C3A64769   7.411   3.578   7.050
 9498POPC   C4A64770   7.458   3.552   7.350
 9498POPC   C1B64771   7.282   3.669   6.450
 9498POPC   C2B64772   7.209   3.750   6.750
 9498POPC   C3B64773   7.230   3.689   7.050
 9498POPC   C4B64774   7.204   3.692   7.350
 9499POPC   NC364775  10.477  20.574   5.550
 9499POPC   PO464776  10.562  20.593   5.850
 9499POPC   GL164777  10.504  20.593   6.150
 9499POPC   GL264778  10.662  20.564   6.150
 9499POPC   C1A64779  10.511  20.578   6.450
 9499POPC   D2A64780  10.507  20.598   6.750
 9499POPC   C3A64781  10.507  20.624   7.050
 9499POPC   C4A64782  10.506  20.584   7.350
 9499POPC   C1B64783  10.771  20.521   6.450
 9499POPC   C2B64784  10.780  20.509   6.750
 9499POPC   C3B64785  10.781  20.516   7.050
 9499POPC   C4B64786  10.760  20.538   7.350
 9500POPC   NC364787  29.948  27.632   5.550
 9500POPC   PO464788  29.938  27.618   5.850
 9500POPC   GL164789  29.901  27.642   6.150
 9500POPC   GL264790  29.782  27.659   6.150
 9500POPC   C1A64791  29.944  27.617   6.450
 9500POPC   D2A64792  29.914  27.548   6.750
 9500POPC   C3A64793  29.903  27.552   7.050
 9500POPC   C4A64794  29.963  27.571   7.350
 9500POPC   C1B64795  29.740  27.779   6.450
 9500POPC   C2B64796  29.765  27.767   6.750
 9500POPC   C3B64797  29.759  27.777   7.050
 9500POPC   C4B64798  29.775  27.807   7.350
 9501POPC   NC364799  39.237  12.855   5.550
 9501POPC   PO464800  39.233  12.900   5.850
 9501POPC   GL164801  39.225  12.861   6.150
 9501POPC   GL264802  39.402  12.862   6.150
 9501POPC   C1A64803  39.236  12.831   6.450
 9501POPC   D2A64804  39.211  12.839   6.750
 9501POPC   C3A64805  39.223  12.830   7.050
 9501POPC   C4A64806  39.202  12.895   7.350
 9501POPC   C1B64807  39.442  12.827   6.450
 9501POPC   C2B64808  39.468  12.912   6.750
 9501POPC   C3B64809  39.489  12.909   7.050
 9501POPC   C4B64810  39.478  12.830   7.350
 9502POPC   NC364811  31.469   3.524   5.550
 9502POPC   PO464812  31.459   3.520   5.850
 9502POPC   GL164813  31.466   3.509   6.150
 9502POPC   GL264814  31.407   3.477   6.150
 9502POPC   C1A64815  31.521   3.496   6.450
 9502POPC   D2A64816  31.510   3.590   6.750
 9502POPC   C3A64817  31.443   3.528   7.050
 9502POPC   C4A64818  31.493   3.512   7.350
 9502POPC   C1B64819  31.317   3.331   6.450
 9502POPC   C2B64820  31.284   3.331   6.750
 9502POPC   C3B64821  31.269   3.372   7.050
 9502POPC   C4B64822  31.277   3.352   7.350
 9503POPC   NC364823  11.286   4.343   5.550
 9503POPC   PO464824  11.310   4.323   5.850
 9503POPC   GL164825  11.282   4.275   6.150
 9503POPC   GL264826  11.378   4.301   6.150
 9503POPC   C1A64827  11.304   4.303   6.450
 9503POPC   D2A64828  11.281   4.297   6.750
 9503POPC   C3A64829  11.257   4.310   7.050
 9503POPC   C4A64830  11.252   4.276   7.350
 9503POPC   C1B64831  11.569   4.367   6.450
 9503POPC   C2B64832  11.524   4.356   6.750
 9503POPC   C3B64833  11.522   4.328   7.050
 9503POPC   C4B64834  11.566   4.400   7.350
 9504POPC   NC364835  13.616  15.921   5.550
 9504POPC   PO464836  13.580  15.915   5.850
 9504POPC   GL164837  13.615  15.936   6.150
 9504POPC   GL264838  13.532  16.032   6.150
 9504POPC   C1A64839  13.606  15.971   6.450
 9504POPC   D2A64840  13.584  16.005   6.750
 9504POPC   C3A64841  13.657  15.913   7.050
 9504POPC   C4A64842  13.594  15.941   7.350
 9504POPC   C1B64843  13.514  16.163   6.450
 9504POPC   C2B64844  13.482  16.173   6.750
 9504POPC   C3B64845  13.499  16.156   7.050
 9504POPC   C4B64846  13.452  16.119   7.350
 9505POPC   NC364847   5.065  35.388   5.550
 9505POPC   PO464848   5.056  35.307   5.850
 9505POPC   GL164849   5.124  35.356   6.150
 9505POPC   GL264850   5.184  35.317   6.150
 9505POPC   C1A64851   5.089  35.385   6.450
 9505POPC   D2A64852   5.113  35.357   6.750
 9505POPC   C3A64853   5.052  35.390   7.050
 9505POPC   C4A64854   5.098  35.343   7.350
 9505POPC   C1B64855   5.287  35.274   6.450
 9505POPC   C2B64856   5.280  35.273   6.750
 9505POPC   C3B64857   5.278  35.278   7.050
 9505POPC   C4B64858   5.318  35.181   7.350
 9506POPC   NC364859   0.395  43.062   5.550
 9506POPC   PO464860   0.469  43.115   5.850
 9506POPC   GL164861   0.478  43.139   6.150
 9506POPC   GL264862   0.578  43.034   6.150
 9506POPC   C1A64863   0.409  43.092   6.450
 9506POPC   D2A64864   0.393  43.127   6.750
 9506POPC   C3A64865   0.466  43.124   7.050
 9506POPC   C4A64866   0.476  43.113   7.350
 9506POPC   C1B64867   0.588  42.981   6.450
 9506POPC   C2B64868   0.590  42.949   6.750
 9506POPC   C3B64869   0.671  42.913   7.050
 9506POPC   C4B64870   0.625  42.894   7.350
 9507POPC   NC364871  28.410  37.666   5.550
 9507POPC   PO464872  28.418  37.668   5.850
 9507POPC   GL164873  28.361  37.656   6.150
 9507POPC   GL264874  28.312  37.829   6.150
 9507POPC   C1A64875  28.377  37.711   6.450
 9507POPC   D2A64876  28.353  37.649   6.750
 9507POPC   C3A64877  28.342  37.696   7.050
 9507POPC   C4A64878  28.319  37.720   7.350
 9507POPC   C1B64879  28.189  37.848   6.450
 9507POPC   C2B64880  28.238  37.907   6.750
 9507POPC   C3B64881  28.222  37.871   7.050
 9507POPC   C4B64882  28.217  37.882   7.350
 9508POPC   NC364883  16.717  14.376   5.550
 9508POPC   PO464884  16.768  14.431   5.850
 9508POPC   GL164885  16.768  14.377   6.150
 9508POPC   GL264886  16.627  14.479   6.150
 9508POPC   C1A64887  16.712  14.421   6.450
 9508POPC   D2A64888  16.725  14.386   6.750
 9508POPC   C3A64889  16.740  14.360   7.050
 9508POPC   C4A64890  16.693  14.418   7.350
 9508POPC   C1B64891  16.511  14.555   6.450
 9508POPC   C2B64892  16.545  14.531   6.750
 9508POPC   C3B64893  16.578  14.519   7.050
 9508POPC   C4B64894  16.511  14.509   7.350
 9509POPC   NC364895  36.939  31.492   5.550
 9509POPC   PO464896  36.883  31.506   5.850
 9509POPC   GL164897  36.890  31.431   6.150
 9509POPC   GL264898  37.021  31.443   6.150
 9509POPC   C1A64899  36.879  31.445   6.450
 9509POPC   D2A64900  36.871  31.467   6.750
 9509POPC   C3A64901  36.898  31.426   7.050
 9509POPC   C4A64902  36.953  31.428   7.350
 9509POPC   C1B64903  37.155  31.504   6.450
 9509POPC   C2B64904  37.169  31.504   6.750
 9509POPC   C3B64905  37.134  31.510   7.050
 9509POPC   C4B64906  37.167  31.472   7.350
 9510POPC   NC364907   5.857  33.813   5.550
 9510POPC   PO464908   5.844  33.803   5.850
 9510POPC   GL164909   5.858  33.793   6.150
 9510POPC   GL264910   5.782  33.867   6.150
 9510POPC   C1A64911   5.869  33.847   6.450
 9510POPC   D2A64912   5.843  33.801   6.750
 9510POPC   C3A64913   5.890  33.795   7.050
 9510POPC   C4A64914   5.893  33.845   7.350
 9510POPC   C1B64915   5.710  33.955   6.450
 9510POPC   C2B64916   5.700  34.028   6.750
 9510POPC   C3B64917   5.670  33.963   7.050
 9510POPC   C4B64918   5.707  34.014   7.350
 9511POPC   NC364919  12.880  37.709   5.550
 9511POPC   PO464920  12.823  37.693   5.850
 9511POPC   GL164921  12.873  37.713   6.150
 9511POPC   GL264922  12.944  37.816   6.150
 9511POPC   C1A64923  12.872  37.661   6.450
 9511POPC   D2A64924  12.856  37.719   6.750
 9511POPC   C3A64925  12.856  37.672   7.050
 9511POPC   C4A64926  12.896  37.669   7.350
 9511POPC   C1B64927  12.939  37.919   6.450
 9511POPC   C2B64928  12.982  37.858   6.750
 9511POPC   C3B64929  13.022  37.864   7.050
 9511POPC   C4B64930  12.983  37.883   7.350
 9512POPC   NC364931  11.339  38.476   5.550
 9512POPC   PO464932  11.330  38.453   5.850
 9512POPC   GL164933  11.291  38.473   6.150
 9512POPC   GL264934  11.379  38.467   6.150
 9512POPC   C1A64935  11.322  38.488   6.450
 9512POPC   D2A64936  11.265  38.410   6.750
 9512POPC   C3A64937  11.303  38.436   7.050
 9512POPC   C4A64938  11.295  38.501   7.350
 9512POPC   C1B64939  11.509  38.518   6.450
 9512POPC   C2B64940  11.565  38.549   6.750
 9512POPC   C3B64941  11.533  38.526   7.050
 9512POPC   C4B64942  11.508  38.545   7.350
 9513POPC   NC364943  31.508  42.291   5.550
 9513POPC   PO464944  31.440  42.352   5.850
 9513POPC   GL164945  31.469  42.295   6.150
 9513POPC   GL264946  31.577  42.208   6.150
 9513POPC   C1A64947  31.506  42.301   6.450
 9513POPC   D2A64948  31.511  42.310   6.750
 9513POPC   C3A64949  31.488  42.348   7.050
 9513POPC   C4A64950  31.509  42.370   7.350
 9513POPC   C1B64951  31.660  42.179   6.450
 9513POPC   C2B64952  31.598  42.147   6.750
 9513POPC   C3B64953  31.662  42.128   7.050
 9513POPC   C4B64954  31.601  42.176   7.350
 9514POPC   NC364955  38.475  23.722   5.550
 9514POPC   PO464956  38.492  23.709   5.850
 9514POPC   GL164957  38.434  23.698   6.150
 9514POPC   GL264958  38.359  23.772   6.150
 9514POPC   C1A64959  38.502  23.697   6.450
 9514POPC   D2A64960  38.435  23.754   6.750
 9514POPC   C3A64961  38.426  23.668   7.050
 9514POPC   C4A64962  38.436  23.682   7.350
 9514POPC   C1B64963  38.368  23.941   6.450
 9514POPC   C2B64964  38.337  23.923   6.750
 9514POPC   C3B64965  38.301  23.956   7.050
 9514POPC   C4B64966  38.371  23.958   7.350
 9515POPC   NC364967  32.997  36.884   5.550
 9515POPC   PO464968  33.063  36.911   5.850
 9515POPC   GL164969  33.066  36.924   6.150
 9515POPC   GL264970  33.169  36.926   6.150
 9515POPC   C1A64971  33.003  36.864   6.450
 9515POPC   D2A64972  33.024  36.901   6.750
 9515POPC   C3A64973  33.021  36.893   7.050
 9515POPC   C4A64974  33.068  36.939   7.350
 9515POPC   C1B64975  33.315  36.916   6.450
 9515POPC   C2B64976  33.258  36.907   6.750
 9515POPC   C3B64977  33.227  36.922   7.050
 9515POPC   C4B64978  33.273  36.913   7.350
 9516POPC   NC364979   5.850  12.111   5.550
 9516POPC   PO464980   5.822  12.029   5.850
 9516POPC   GL164981   5.884  12.122   6.150
 9516POPC   GL264982   5.739  12.010   6.150
 9516POPC   C1A64983   5.822  12.077   6.450
 9516POPC   D2A64984   5.915  12.098   6.750
 9516POPC   C3A64985   5.884  12.096   7.050
 9516POPC   C4A64986   5.865  12.045   7.350
 9516POPC   C1B64987   5.599  12.021   6.450
 9516POPC   C2B64988   5.581  12.067   6.750
 9516POPC   C3B64989   5.610  12.012   7.050
 9516POPC   C4B64990   5.619  12.002   7.350
 9517POPC   NC364991   5.130   3.564   5.550
 9517POPC   PO464992   5.043   3.577   5.850
 9517POPC   GL164993   5.139   3.572   6.150
 9517POPC   GL264994   5.266   3.508   6.150
 9517POPC   C1A64995   5.124   3.556   6.450
 9517POPC   D2A64996   5.049   3.519   6.750
 9517POPC   C3A64997   5.103   3.580   7.050
 9517POPC   C4A64998   5.052   3.580   7.350
 9517POPC   C1B64999   5.345   3.518   6.450
 9517POPC   C2B65000   5.355   3.539   6.750
 9517POPC   C3B65001   5.349   3.485   7.050
 9517POPC   C4B65002   5.311   3.480   7.350
 9518POPC   NC365003  36.126  31.423   5.550
 9518POPC   PO465004  36.125  31.436   5.850
 9518POPC   GL165005  36.125  31.480   6.150
 9518POPC   GL265006  36.128  31.643   6.150
 9518POPC   C1A65007  36.098  31.428   6.450
 9518POPC   D2A65008  36.107  31.490   6.750
 9518POPC   C3A65009  36.084  31.463   7.050
 9518POPC   C4A65010  36.094  31.445   7.350
 9518POPC   C1B65011  36.083  31.755   6.450
 9518POPC   C2B65012  36.083  31.704   6.750
 9518POPC   C3B65013  36.114  31.712   7.050
 9518POPC   C4B65014  36.117  31.704   7.350
 9519POPC   NC365015   2.812  12.849   5.550
 9519POPC   PO465016   2.775  12.807   5.850
 9519POPC   GL165017   2.738  12.810   6.150
 9519POPC   GL265018   2.671  12.733   6.150
 9519POPC   C1A65019   2.791  12.819   6.450
 9519POPC   D2A65020   2.761  12.856   6.750
 9519POPC   C3A65021   2.791  12.827   7.050
 9519POPC   C4A65022   2.743  12.877   7.350
 9519POPC   C1B65023   2.636  12.631   6.450
 9519POPC   C2B65024   2.620  12.644   6.750
 9519POPC   C3B65025   2.617  12.654   7.050
 9519POPC   C4B65026   2.615  12.611   7.350
 9520POPC   NC365027  14.441  44.629   5.550
 9520POPC   PO465028  14.452  44.709   5.850
 9520POPC   GL165029  14.431  44.642   6.150
 9520POPC   GL265030  14.544  44.722   6.150
 9520POPC   C1A65031  14.356  44.657   6.450
 9520POPC   D2A65032  14.379  44.708   6.750
 9520POPC   C3A65033  14.405  44.677   7.050
 9520POPC   C4A65034  14.380  44.704   7.350
 9520POPC   C1B65035  14.693  44.692   6.450
 9520POPC   C2B65036  14.619  44.712   6.750
 9520POPC   C3B65037  14.679  44.648   7.050
 9520POPC   C4B65038  14.683  44.677   7.350
 9521POPC   NC365039  23.704  15.977   5.550
 9521POPC   PO465040  23.718  15.920   5.850
 9521POPC   GL165041  23.730  15.980   6.150
 9521POPC   GL265042  23.652  15.842   6.150
 9521POPC   C1A65043  23.715  15.957   6.450
 9521POPC   D2A65044  23.736  15.907   6.750
 9521POPC   C3A65045  23.674  15.971   7.050
 9521POPC   C4A65046  23.679  16.005   7.350
 9521POPC   C1B65047  23.694  15.708   6.450
 9521POPC   C2B65048  23.681  15.718   6.750
 9521POPC   C3B65049  23.703  15.697   7.050
 9521POPC   C4B65050  23.639  15.703   7.350
 9522POPC   NC365051  39.274  20.580   5.550
 9522POPC   PO465052  39.248  20.631   5.850
 9522POPC   GL165053  39.239  20.634   6.150
 9522POPC   GL265054  39.348  20.490   6.150
 9522POPC   C1A65055  39.235  20.600   6.450
 9522POPC   D2A65056  39.224  20.591   6.750
 9522POPC   C3A65057  39.225  20.626   7.050
 9522POPC   C4A65058  39.273  20.600   7.350
 9522POPC   C1B65059  39.420  20.431   6.450
 9522POPC   C2B65060  39.468  20.438   6.750
 9522POPC   C3B65061  39.428  20.510   7.050
 9522POPC   C4B65062  39.397  20.438   7.350
 9523POPC   NC365063  13.601   5.827   5.550
 9523POPC   PO465064  13.639   5.850   5.850
 9523POPC   GL165065  13.646   5.878   6.150
 9523POPC   GL265066  13.705   5.783   6.150
 9523POPC   C1A65067  13.599   5.905   6.450
 9523POPC   D2A65068  13.612   5.825   6.750
 9523POPC   C3A65069  13.663   5.885   7.050
 9523POPC   C4A65070  13.581   5.857   7.350
 9523POPC   C1B65071  13.901   5.825   6.450
 9523POPC   C2B65072  13.856   5.780   6.750
 9523POPC   C3B65073  13.812   5.791   7.050
 9523POPC   C4B65074  13.837   5.737   7.350
 9524POPC   NC365075   6.680  11.272   5.550
 9524POPC   PO465076   6.632  11.327   5.850
 9524POPC   GL165077   6.615  11.342   6.150
 9524POPC   GL265078   6.769  11.220   6.150
 9524POPC   C1A65079   6.689  11.336   6.450
 9524POPC   D2A65080   6.603  11.260   6.750
 9524POPC   C3A65081   6.623  11.294   7.050
 9524POPC   C4A65082   6.634  11.318   7.350
 9524POPC   C1B65083   6.883  11.230   6.450
 9524POPC   C2B65084   6.862  11.262   6.750
 9524POPC   C3B65085   6.877  11.269   7.050
 9524POPC   C4B65086   6.890  11.200   7.350
 9525POPC   NC365087   4.328  24.512   5.550
 9525POPC   PO465088   4.277  24.452   5.850
 9525POPC   GL165089   4.306  24.463   6.150
 9525POPC   GL265090   4.265  24.615   6.150
 9525POPC   C1A65091   4.348  24.444   6.450
 9525POPC   D2A65092   4.318  24.535   6.750
 9525POPC   C3A65093   4.315  24.514   7.050
 9525POPC   C4A65094   4.328  24.532   7.350
 9525POPC   C1B65095   4.331  24.709   6.450
 9525POPC   C2B65096   4.307  24.781   6.750
 9525POPC   C3B65097   4.351  24.764   7.050
 9525POPC   C4B65098   4.301  24.762   7.350
 9526POPC   NC365099  36.156  25.254   5.550
 9526POPC   PO465100  36.159  25.277   5.850
 9526POPC   GL165101  36.108  25.264   6.150
 9526POPC   GL265102  36.159  25.375   6.150
 9526POPC   C1A65103  36.160  25.257   6.450
 9526POPC   D2A65104  36.099  25.224   6.750
 9526POPC   C3A65105  36.155  25.247   7.050
 9526POPC   C4A65106  36.087  25.222   7.350
 9526POPC   C1B65107  36.307  25.453   6.450
 9526POPC   C2B65108  36.290  25.436   6.750
 9526POPC   C3B65109  36.242  25.506   7.050
 9526POPC   C4B65110  36.259  25.523   7.350
 9527POPC   NC365111  24.503  42.350   5.550
 9527POPC   PO465112  24.510  42.339   5.850
 9527POPC   GL165113  24.459  42.350   6.150
 9527POPC   GL265114  24.511  42.203   6.150
 9527POPC   C1A65115  24.499  42.378   6.450
 9527POPC   D2A65116  24.448  42.334   6.750
 9527POPC   C3A65117  24.529  42.347   7.050
 9527POPC   C4A65118  24.521  42.383   7.350
 9527POPC   C1B65119  24.581  42.066   6.450
 9527POPC   C2B65120  24.616  42.073   6.750
 9527POPC   C3B65121  24.608  42.068   7.050
 9527POPC   C4B65122  24.596  42.076   7.350
 9528POPC   NC365123   5.851   1.219   5.550
 9528POPC   PO465124   5.848   1.240   5.850
 9528POPC   GL165125   5.866   1.188   6.150
 9528POPC   GL265126   5.694   1.187   6.150
 9528POPC   C1A65127   5.897   1.262   6.450
 9528POPC   D2A65128   5.878   1.175   6.750
 9528POPC   C3A65129   5.891   1.167   7.050
 9528POPC   C4A65130   5.897   1.258   7.350
 9528POPC   C1B65131   5.668   1.214   6.450
 9528POPC   C2B65132   5.580   1.254   6.750
 9528POPC   C3B65133   5.578   1.216   7.050
 9528POPC   C4B65134   5.629   1.233   7.350
 9529POPC   NC365135  31.479   8.991   5.550
 9529POPC   PO465136  31.512   8.946   5.850
 9529POPC   GL165137  31.430   9.002   6.150
 9529POPC   GL265138  31.330   8.885   6.150
 9529POPC   C1A65139  31.424   8.934   6.450
 9529POPC   D2A65140  31.432   8.958   6.750
 9529POPC   C3A65141  31.518   8.947   7.050
 9529POPC   C4A65142  31.460   8.935   7.350
 9529POPC   C1B65143  31.303   8.821   6.450
 9529POPC   C2B65144  31.243   8.844   6.750
 9529POPC   C3B65145  31.210   8.839   7.050
 9529POPC   C4B65146  31.215   8.797   7.350
 9530POPC   NC365147   6.626  16.763   5.550
 9530POPC   PO465148   6.642  16.712   5.850
 9530POPC   GL165149   6.663  16.695   6.150
 9530POPC   GL265150   6.674  16.821   6.150
 9530POPC   C1A65151   6.671  16.773   6.450
 9530POPC   D2A65152   6.658  16.695   6.750
 9530POPC   C3A65153   6.682  16.700   7.050
 9530POPC   C4A65154   6.677  16.688   7.350
 9530POPC   C1B65155   6.652  17.005   6.450
 9530POPC   C2B65156   6.643  16.956   6.750
 9530POPC   C3B65157   6.705  16.976   7.050
 9530POPC   C4B65158   6.701  17.005   7.350
 9531POPC   NC365159  11.256  26.063   5.550
 9531POPC   PO465160  11.317  26.066   5.850
 9531POPC   GL165161  11.258  26.076   6.150
 9531POPC   GL265162  11.194  25.968   6.150
 9531POPC   C1A65163  11.329  26.073   6.450
 9531POPC   D2A65164  11.339  26.077   6.750
 9531POPC   C3A65165  11.280  26.083   7.050
 9531POPC   C4A65166  11.342  26.042   7.350
 9531POPC   C1B65167  11.116  25.871   6.450
 9531POPC   C2B65168  11.208  25.822   6.750
 9531POPC   C3B65169  11.145  25.815   7.050
 9531POPC   C4B65170  11.144  25.865   7.350
 9532POPC   NC365171  26.036   2.019   5.550
 9532POPC   PO465172  26.031   1.955   5.850
 9532POPC   GL165173  26.004   1.956   6.150
 9532POPC   GL265174  26.117   1.879   6.150
 9532POPC   C1A65175  26.035   1.964   6.450
 9532POPC   D2A65176  26.080   1.991   6.750
 9532POPC   C3A65177  26.029   1.982   7.050
 9532POPC   C4A65178  26.040   2.040   7.350
 9532POPC   C1B65179  26.266   1.908   6.450
 9532POPC   C2B65180  26.272   1.867   6.750
 9532POPC   C3B65181  26.281   1.913   7.050
 9532POPC   C4B65182  26.247   1.904   7.350
 9533POPC   NC365183  29.903   8.934   5.550
 9533POPC   PO465184  29.932   8.960   5.850
 9533POPC   GL165185  29.956   8.998   6.150
 9533POPC   GL265186  29.901   8.833   6.150
 9533POPC   C1A65187  29.918   8.961   6.450
 9533POPC   D2A65188  29.898   8.955   6.750
 9533POPC   C3A65189  29.882   9.019   7.050
 9533POPC   C4A65190  29.936   8.923   7.350
 9533POPC   C1B65191  29.932   8.760   6.450
 9533POPC   C2B65192  29.982   8.763   6.750
 9533POPC   C3B65193  29.917   8.729   7.050
 9533POPC   C4B65194  29.937   8.678   7.350
 9534POPC   NC365195  12.803  40.024   5.550
 9534POPC   PO465196  12.866  39.967   5.850
 9534POPC   GL165197  12.810  40.026   6.150
 9534POPC   GL265198  12.931  40.097   6.150
 9534POPC   C1A65199  12.806  40.032   6.450
 9534POPC   D2A65200  12.811  39.984   6.750
 9534POPC   C3A65201  12.804  40.033   7.050
 9534POPC   C4A65202  12.876  40.038   7.350
 9534POPC   C1B65203  12.966  40.250   6.450
 9534POPC   C2B65204  12.921  40.226   6.750
 9534POPC   C3B65205  12.929  40.246   7.050
 9534POPC   C4B65206  12.923  40.264   7.350
 9535POPC   NC365207   0.476  29.961   5.550
 9535POPC   PO465208   0.391  29.878   5.850
 9535POPC   GL165209   0.404  29.944   6.150
 9535POPC   GL265210   0.561  29.989   6.150
 9535POPC   C1A65211   0.483  29.927   6.450
 9535POPC   D2A65212   0.449  29.902   6.750
 9535POPC   C3A65213   0.422  29.933   7.050
 9535POPC   C4A65214   0.462  29.910   7.350
 9535POPC   C1B65215   0.604  30.123   6.450
 9535POPC   C2B65216   0.562  30.104   6.750
 9535POPC   C3B65217   0.620  30.106   7.050
 9535POPC   C4B65218   0.628  30.062   7.350
 9536POPC   NC365219  37.666  16.750   5.550
 9536POPC   PO465220  37.635  16.760   5.850
 9536POPC   GL165221  37.712  16.717   6.150
 9536POPC   GL265222  37.709  16.637   6.150
 9536POPC   C1A65223  37.664  16.703   6.450
 9536POPC   D2A65224  37.707  16.707   6.750
 9536POPC   C3A65225  37.659  16.700   7.050
 9536POPC   C4A65226  37.707  16.763   7.350
 9536POPC   C1B65227  37.765  16.514   6.450
 9536POPC   C2B65228  37.846  16.503   6.750
 9536POPC   C3B65229  37.840  16.544   7.050
 9536POPC   C4B65230  37.809  16.527   7.350
 9537POPC   NC365231  17.554   7.426   5.550
 9537POPC   PO465232  17.536   7.462   5.850
 9537POPC   GL165233  17.533   7.415   6.150
 9537POPC   GL265234  17.627   7.499   6.150
 9537POPC   C1A65235  17.538   7.390   6.450
 9537POPC   D2A65236  17.552   7.468   6.750
 9537POPC   C3A65237  17.491   7.430   7.050
 9537POPC   C4A65238  17.515   7.406   7.350
 9537POPC   C1B65239  17.668   7.561   6.450
 9537POPC   C2B65240  17.739   7.607   6.750
 9537POPC   C3B65241  17.662   7.546   7.050
 9537POPC   C4B65242  17.697   7.553   7.350
 9538POPC   NC365243   3.514   8.184   5.550
 9538POPC   PO465244   3.559   8.215   5.850
 9538POPC   GL165245   3.537   8.221   6.150
 9538POPC   GL265246   3.575   8.047   6.150
 9538POPC   C1A65247   3.540   8.224   6.450
 9538POPC   D2A65248   3.566   8.161   6.750
 9538POPC   C3A65249   3.499   8.156   7.050
 9538POPC   C4A65250   3.589   8.210   7.350
 9538POPC   C1B65251   3.710   7.971   6.450
 9538POPC   C2B65252   3.695   8.021   6.750
 9538POPC   C3B65253   3.619   8.008   7.050
 9538POPC   C4B65254   3.696   7.939   7.350
 9539POPC   NC365255  41.549   9.773   5.550
 9539POPC   PO465256  41.538   9.726   5.850
 9539POPC   GL165257  41.596   9.758   6.150
 9539POPC   GL265258  41.553   9.884   6.150
 9539POPC   C1A65259  41.541   9.727   6.450
 9539POPC   D2A65260  41.602   9.712   6.750
 9539POPC   C3A65261  41.561   9.728   7.050
 9539POPC   C4A65262  41.605   9.723   7.350
 9539POPC   C1B65263  41.502  10.006   6.450
 9539POPC   C2B65264  41.543   9.990   6.750
 9539POPC   C3B65265  41.508   9.950   7.050
 9539POPC   C4B65266  41.494  10.011   7.350
 9540POPC   NC365267  12.109  11.266   5.550
 9540POPC   PO465268  12.056  11.345   5.850
 9540POPC   GL165269  12.064  11.342   6.150
 9540POPC   GL265270  12.160  11.339   6.150
 9540POPC   C1A65271  12.088  11.320   6.450
 9540POPC   D2A65272  12.085  11.255   6.750
 9540POPC   C3A65273  12.096  11.300   7.050
 9540POPC   C4A65274  12.039  11.276   7.350
 9540POPC   C1B65275  12.243  11.442   6.450
 9540POPC   C2B65276  12.326  11.404   6.750
 9540POPC   C3B65277  12.280  11.398   7.050
 9540POPC   C4B65278  12.296  11.411   7.350
 9541POPC   NC365279  14.376  41.567   5.550
 9541POPC   PO465280  14.420  41.577   5.850
 9541POPC   GL165281  14.413  41.567   6.150
 9541POPC   GL265282  14.247  41.562   6.150
 9541POPC   C1A65283  14.391  41.523   6.450
 9541POPC   D2A65284  14.386  41.542   6.750
 9541POPC   C3A65285  14.430  41.518   7.050
 9541POPC   C4A65286  14.367  41.533   7.350
 9541POPC   C1B65287  14.129  41.554   6.450
 9541POPC   C2B65288  14.169  41.489   6.750
 9541POPC   C3B65289  14.159  41.547   7.050
 9541POPC   C4B65290  14.190  41.466   7.350
 9542POPC   NC365291  36.161  13.633   5.550
 9542POPC   PO465292  36.108  13.625   5.850
 9542POPC   GL165293  36.135  13.619   6.150
 9542POPC   GL265294  36.025  13.653   6.150
 9542POPC   C1A65295  36.107  13.658   6.450
 9542POPC   D2A65296  36.087  13.579   6.750
 9542POPC   C3A65297  36.108  13.646   7.050
 9542POPC   C4A65298  36.123  13.669   7.350
 9542POPC   C1B65299  35.902  13.712   6.450
 9542POPC   C2B65300  35.905  13.673   6.750
 9542POPC   C3B65301  35.888  13.669   7.050
 9542POPC   C4B65302  35.881  13.636   7.350
 9543POPC   NC365303  22.962   4.320   5.550
 9543POPC   PO465304  22.923   4.322   5.850
 9543POPC   GL165305  22.976   4.362   6.150
 9543POPC   GL265306  23.003   4.254   6.150
 9543POPC   C1A65307  22.890   4.331   6.450
 9543POPC   D2A65308  22.964   4.347   6.750
 9543POPC   C3A65309  22.905   4.289   7.050
 9543POPC   C4A65310  22.978   4.350   7.350
 9543POPC   C1B65311  23.118   4.139   6.450
 9543POPC   C2B65312  23.118   4.152   6.750
 9543POPC   C3B65313  23.139   4.222   7.050
 9543POPC   C4B65314  23.125   4.207   7.350
 9544POPC   NC365315  25.303   4.311   5.550
 9544POPC   PO465316  25.291   4.358   5.850
 9544POPC   GL165317  25.217   4.343   6.150
 9544POPC   GL265318  25.221   4.427   6.150
 9544POPC   C1A65319  25.315   4.312   6.450
 9544POPC   D2A65320  25.232   4.268   6.750
 9544POPC   C3A65321  25.230   4.282   7.050
 9544POPC   C4A65322  25.229   4.349   7.350
 9544POPC   C1B65323  25.103   4.499   6.450
 9544POPC   C2B65324  25.082   4.475   6.750
 9544POPC   C3B65325  25.094   4.487   7.050
 9544POPC   C4B65326  25.149   4.469   7.350
 9545POPC   NC365327  13.631  12.877   5.550
 9545POPC   PO465328  13.636  12.815   5.850
 9545POPC   GL165329  13.664  12.828   6.150
 9545POPC   GL265330  13.482  12.848   6.150
 9545POPC   C1A65331  13.640  12.860   6.450
 9545POPC   D2A65332  13.581  12.888   6.750
 9545POPC   C3A65333  13.588  12.882   7.050
 9545POPC   C4A65334  13.676  12.845   7.350
 9545POPC   C1B65335  13.404  12.936   6.450
 9545POPC   C2B65336  13.347  12.914   6.750
 9545POPC   C3B65337  13.399  12.903   7.050
 9545POPC   C4B65338  13.386  12.889   7.350
 9546POPC   NC365339   6.599  15.205   5.550
 9546POPC   PO465340   6.597  15.212   5.850
 9546POPC   GL165341   6.638  15.221   6.150
 9546POPC   GL265342   6.580  15.031   6.150
 9546POPC   C1A65343   6.634  15.199   6.450
 9546POPC   D2A65344   6.670  15.147   6.750
 9546POPC   C3A65345   6.650  15.145   7.050
 9546POPC   C4A65346   6.651  15.164   7.350
 9546POPC   C1B65347   6.499  15.005   6.450
 9546POPC   C2B65348   6.529  15.019   6.750
 9546POPC   C3B65349   6.529  15.008   7.050
 9546POPC   C4B65350   6.482  15.023   7.350
 9547POPC   NC365351  12.813  36.084   5.550
 9547POPC   PO465352  12.884  36.110   5.850
 9547POPC   GL165353  12.868  36.121   6.150
 9547POPC   GL265354  12.718  36.200   6.150
 9547POPC   C1A65355  12.822  36.151   6.450
 9547POPC   D2A65356  12.841  36.092   6.750
 9547POPC   C3A65357  12.896  36.154   7.050
 9547POPC   C4A65358  12.825  36.168   7.350
 9547POPC   C1B65359  12.592  36.275   6.450
 9547POPC   C2B65360  12.601  36.229   6.750
 9547POPC   C3B65361  12.598  36.273   7.050
 9547POPC   C4B65362  12.639  36.293   7.350
 9548POPC   NC365363   6.665  23.751   5.550
 9548POPC   PO465364   6.677  23.714   5.850
 9548POPC   GL165365   6.665  23.718   6.150
 9548POPC   GL265366   6.723  23.794   6.150
 9548POPC   C1A65367   6.604  23.705   6.450
 9548POPC   D2A65368   6.649  23.714   6.750
 9548POPC   C3A65369   6.687  23.753   7.050
 9548POPC   C4A65370   6.605  23.751   7.350
 9548POPC   C1B65371   6.710  23.920   6.450
 9548POPC   C2B65372   6.754  23.954   6.750
 9548POPC   C3B65373   6.747  23.996   7.050
 9548POPC   C4B65374   6.765  23.980   7.350
 9549POPC   NC365375  43.127  26.028   5.550
 9549POPC   PO465376  43.153  26.062   5.850
 9549POPC   GL165377  43.089  26.040   6.150
 9549POPC   GL265378  43.180  25.930   6.150
 9549POPC   C1A65379  43.134  26.058   6.450
 9549POPC   D2A65380  43.156  26.041   6.750
 9549POPC   C3A65381  43.133  26.064   7.050
 9549POPC   C4A65382  43.066  26.074   7.350
 9549POPC   C1B65383  43.348  25.892   6.450
 9549POPC   C2B65384  43.295  25.941   6.750
 9549POPC   C3B65385  43.307  25.918   7.050
 9549POPC   C4B65386  43.328  25.894   7.350
 9550POPC   NC365387  10.527   3.542   5.550
 9550POPC   PO465388  10.487   3.564   5.850
 9550POPC   GL165389  10.474   3.571   6.150
 9550POPC   GL265390  10.590   3.597   6.150
 9550POPC   C1A65391  10.544   3.509   6.450
 9550POPC   D2A65392  10.563   3.497   6.750
 9550POPC   C3A65393  10.512   3.579   7.050
 9550POPC   C4A65394  10.545   3.525   7.350
 9550POPC   C1B65395  10.717   3.735   6.450
 9550POPC   C2B65396  10.721   3.769   6.750
 9550POPC   C3B65397  10.642   3.681   7.050
 9550POPC   C4B65398  10.688   3.689   7.350
 9551POPC   NC365399  31.432  20.639   5.550
 9551POPC   PO465400  31.471  20.596   5.850
 9551POPC   GL165401  31.520  20.615   6.150
 9551POPC   GL265402  31.544  20.724   6.150
 9551POPC   C1A65403  31.451  20.578   6.450
 9551POPC   D2A65404  31.511  20.573   6.750
 9551POPC   C3A65405  31.438  20.651   7.050
 9551POPC   C4A65406  31.462  20.656   7.350
 9551POPC   C1B65407  31.585  20.840   6.450
 9551POPC   C2B65408  31.524  20.817   6.750
 9551POPC   C3B65409  31.580  20.831   7.050
 9551POPC   C4B65410  31.513  20.813   7.350
 9552POPC   NC365411  27.584  40.793   5.550
 9552POPC   PO465412  27.589  40.785   5.850
 9552POPC   GL165413  27.602  40.818   6.150
 9552POPC   GL265414  27.566  40.652   6.150
 9552POPC   C1A65415  27.586  40.822   6.450
 9552POPC   D2A65416  27.580  40.816   6.750
 9552POPC   C3A65417  27.560  40.765   7.050
 9552POPC   C4A65418  27.555  40.772   7.350
 9552POPC   C1B65419  27.523  40.492   6.450
 9552POPC   C2B65420  27.564  40.584   6.750
 9552POPC   C3B65421  27.562  40.520   7.050
 9552POPC   C4B65422  27.576  40.584   7.350
 9553POPC   NC365423   2.769  31.461   5.550
 9553POPC   PO465424   2.814  31.501   5.850
 9553POPC   GL165425   2.768  31.475   6.150
 9553POPC   GL265426   2.783  31.379   6.150
 9553POPC   C1A65427   2.750  31.449   6.450
 9553POPC   D2A65428   2.809  31.471   6.750
 9553POPC   C3A65429   2.745  31.503   7.050
 9553POPC   C4A65430   2.765  31.512   7.350
 9553POPC   C1B65431   2.894  31.214   6.450
 9553POPC   C2B65432   2.853  31.274   6.750
 9553POPC   C3B65433   2.886  31.213   7.050
 9553POPC   C4B65434   2.896  31.278   7.350
 9554POPC   NC365435  12.853  42.361   5.550
 9554POPC   PO465436  12.870  42.326   5.850
 9554POPC   GL165437  12.865  42.374   6.150
 9554POPC   GL265438  12.761  42.261   6.150
 9554POPC   C1A65439  12.866  42.363   6.450
 9554POPC   D2A65440  12.854  42.313   6.750
 9554POPC   C3A65441  12.855  42.309   7.050
 9554POPC   C4A65442  12.822  42.362   7.350
 9554POPC   C1B65443  12.672  42.108   6.450
 9554POPC   C2B65444  12.683  42.087   6.750
 9554POPC   C3B65445  12.735  42.131   7.050
 9554POPC   C4B65446  12.661  42.159   7.350
 9555POPC   NC365447  20.652  17.512   5.550
 9555POPC   PO465448  20.578  17.496   5.850
 9555POPC   GL165449  20.643  17.507   6.150
 9555POPC   GL265450  20.666  17.634   6.150
 9555POPC   C1A65451  20.570  17.514   6.450
 9555POPC   D2A65452  20.621  17.510   6.750
 9555POPC   C3A65453  20.641  17.458   7.050
 9555POPC   C4A65454  20.649  17.529   7.350
 9555POPC   C1B65455  20.847  17.652   6.450
 9555POPC   C2B65456  20.823  17.690   6.750
 9555POPC   C3B65457  20.769  17.614   7.050
 9555POPC   C4B65458  20.789  17.691   7.350
 9556POPC   NC365459   8.205  15.207   5.550
 9556POPC   PO465460   8.199  15.192   5.850
 9556POPC   GL165461   8.198  15.174   6.150
 9556POPC   GL265462   8.168  15.246   6.150
 9556POPC   C1A65463   8.220  15.156   6.450
 9556POPC   D2A65464   8.238  15.181   6.750
 9556POPC   C3A65465   8.198  15.216   7.050
 9556POPC   C4A65466   8.201  15.163   7.350
 9556POPC   C1B65467   8.108  15.389   6.450
 9556POPC   C2B65468   8.036  15.405   6.750
 9556POPC   C3B65469   8.075  15.407   7.050
 9556POPC   C4B65470   8.062  15.355   7.350
 9557POPC   NC365471   0.402  21.346   5.550
 9557POPC   PO465472   0.450  21.378   5.850
 9557POPC   GL165473   0.396  21.343   6.150
 9557POPC   GL265474   0.441  21.508   6.150
 9557POPC   C1A65475   0.461  21.432   6.450
 9557POPC   D2A65476   0.409  21.399   6.750
 9557POPC   C3A65477   0.392  21.398   7.050
 9557POPC   C4A65478   0.474  21.420   7.350
 9557POPC   C1B65479   0.540  21.580   6.450
 9557POPC   C2B65480   0.537  21.653   6.750
 9557POPC   C3B65481   0.585  21.663   7.050
 9557POPC   C4B65482   0.525  21.583   7.350
 9558POPC   NC365483  25.999   3.541   5.550
 9558POPC   PO465484  26.029   3.505   5.850
 9558POPC   GL165485  26.029   3.590   6.150
 9558POPC   GL265486  26.026   3.434   6.150
 9558POPC   C1A65487  26.064   3.525   6.450
 9558POPC   D2A65488  25.995   3.509   6.750
 9558POPC   C3A65489  26.090   3.530   7.050
 9558POPC   C4A65490  26.075   3.533   7.350
 9558POPC   C1B65491  26.068   3.309   6.450
 9558POPC   C2B65492  26.035   3.315   6.750
 9558POPC   C3B65493  26.008   3.291   7.050
 9558POPC   C4B65494  26.013   3.298   7.350
 9559POPC   NC365495   9.712  17.492   5.550
 9559POPC   PO465496   9.715  17.554   5.850
 9559POPC   GL165497   9.739  17.523   6.150
 9559POPC   GL265498   9.899  17.488   6.150
 9559POPC   C1A65499   9.783  17.518   6.450
 9559POPC   D2A65500   9.794  17.464   6.750
 9559POPC   C3A65501   9.764  17.483   7.050
 9559POPC   C4A65502   9.784  17.464   7.350
 9559POPC   C1B65503   9.984  17.427   6.450
 9559POPC   C2B65504   9.958  17.439   6.750
 9559POPC   C3B65505  10.016  17.381   7.050
 9559POPC   C4B65506   9.990  17.415   7.350
 9560POPC   NC365507   9.785  12.086   5.550
 9560POPC   PO465508   9.714  12.044   5.850
 9560POPC   GL165509   9.768  12.105   6.150
 9560POPC   GL265510   9.862  12.075   6.150
 9560POPC   C1A65511   9.742  12.099   6.450
 9560POPC   D2A65512   9.767  12.047   6.750
 9560POPC   C3A65513   9.746  12.059   7.050
 9560POPC   C4A65514   9.780  12.039   7.350
 9560POPC   C1B65515  10.040  12.182   6.450
 9560POPC   C2B65516   9.949  12.103   6.750
 9560POPC   C3B65517   9.948  12.116   7.050
 9560POPC   C4B65518  10.005  12.161   7.350
 9561POPC   NC365519  35.344  14.385   5.550
 9561POPC   PO465520  35.366  14.400   5.850
 9561POPC   GL165521  35.360  14.423   6.150
 9561POPC   GL265522  35.322  14.286   6.150
 9561POPC   C1A65523  35.376  14.410   6.450
 9561POPC   D2A65524  35.348  14.380   6.750
 9561POPC   C3A65525  35.309  14.426   7.050
 9561POPC   C4A65526  35.355  14.439   7.350
 9561POPC   C1B65527  35.325  14.189   6.450
 9561POPC   C2B65528  35.364  14.114   6.750
 9561POPC   C3B65529  35.302  14.185   7.050
 9561POPC   C4B65530  35.333  14.111   7.350
 9562POPC   NC365531  22.200   7.428   5.550
 9562POPC   PO465532  22.130   7.391   5.850
 9562POPC   GL165533  22.202   7.420   6.150
 9562POPC   GL265534  22.109   7.324   6.150
 9562POPC   C1A65535  22.135   7.402   6.450
 9562POPC   D2A65536  22.171   7.395   6.750
 9562POPC   C3A65537  22.164   7.463   7.050
 9562POPC   C4A65538  22.131   7.401   7.350
 9562POPC   C1B65539  21.928   7.243   6.450
 9562POPC   C2B65540  22.013   7.303   6.750
 9562POPC   C3B65541  21.941   7.295   7.050
 9562POPC   C4B65542  21.990   7.271   7.350
 9563POPC   NC365543  36.100  18.324   5.550
 9563POPC   PO465544  36.159  18.278   5.850
 9563POPC   GL165545  36.078  18.326   6.150
 9563POPC   GL265546  36.201  18.204   6.150
 9563POPC   C1A65547  36.102  18.263   6.450
 9563POPC   D2A65548  36.100  18.252   6.750
 9563POPC   C3A65549  36.092  18.324   7.050
 9563POPC   C4A65550  36.095  18.250   7.350
 9563POPC   C1B65551  36.381  18.180   6.450
 9563POPC   C2B65552  36.310  18.204   6.750
 9563POPC   C3B65553  36.335  18.168   7.050
 9563POPC   C4B65554  36.347  18.174   7.350
 9564POPC   NC365555  10.506  22.130   5.550
 9564POPC   PO465556  10.480  22.200   5.850
 9564POPC   GL165557  10.508  22.180   6.150
 9564POPC   GL265558  10.607  22.085   6.150
 9564POPC   C1A65559  10.565  22.139   6.450
 9564POPC   D2A65560  10.552  22.156   6.750
 9564POPC   C3A65561  10.559  22.143   7.050
 9564POPC   C4A65562  10.537  22.131   7.350
 9564POPC   C1B65563  10.632  21.964   6.450
 9564POPC   C2B65564  10.585  21.889   6.750
 9564POPC   C3B65565  10.632  21.894   7.050
 9564POPC   C4B65566  10.630  21.964   7.350
 9565POPC   NC365567  10.489  14.406   5.550
 9565POPC   PO465568  10.568  14.370   5.850
 9565POPC   GL165569  10.568  14.449   6.150
 9565POPC   GL265570  10.451  14.363   6.150
 9565POPC   C1A65571  10.514  14.368   6.450
 9565POPC   D2A65572  10.535  14.414   6.750
 9565POPC   C3A65573  10.564  14.392   7.050
 9565POPC   C4A65574  10.552  14.389   7.350
 9565POPC   C1B65575  10.390  14.265   6.450
 9565POPC   C2B65576  10.388  14.246   6.750
 9565POPC   C3B65577  10.318  14.182   7.050
 9565POPC   C4B65578  10.358  14.196   7.350
 9566POPC   NC365579  15.208   2.782   5.550
 9566POPC   PO465580  15.144   2.725   5.850
 9566POPC   GL165581  15.149   2.722   6.150
 9566POPC   GL265582  15.144   2.849   6.150
 9566POPC   C1A65583  15.210   2.781   6.450
 9566POPC   D2A65584  15.196   2.776   6.750
 9566POPC   C3A65585  15.188   2.770   7.050
 9566POPC   C4A65586  15.135   2.803   7.350
 9566POPC   C1B65587  15.103   2.991   6.450
 9566POPC   C2B65588  15.173   3.012   6.750
 9566POPC   C3B65589  15.162   3.001   7.050
 9566POPC   C4B65590  15.124   2.969   7.350
 9567POPC   NC365591   4.307  15.985   5.550
 9567POPC   PO465592   4.362  15.914   5.850
 9567POPC   GL165593   4.348  15.907   6.150
 9567POPC   GL265594   4.231  15.915   6.150
 9567POPC   C1A65595   4.285  15.945   6.450
 9567POPC   D2A65596   4.272  15.923   6.750
 9567POPC   C3A65597   4.328  15.909   7.050
 9567POPC   C4A65598   4.291  16.001   7.350
 9567POPC   C1B65599   4.064  15.864   6.450
 9567POPC   C2B65600   4.046  15.834   6.750
 9567POPC   C3B65601   4.075  15.892   7.050
 9567POPC   C4B65602   4.055  15.910   7.350
 9568POPC   NC365603  44.692   0.442   5.550
 9568POPC   PO465604  44.711   0.478   5.850
 9568POPC   GL165605  44.632   0.412   6.150
 9568POPC   GL265606  44.688   0.369   6.150
 9568POPC   C1A65607  44.656   0.441   6.450
 9568POPC   D2A65608  44.692   0.463   6.750
 9568POPC   C3A65609  44.634   0.450   7.050
 9568POPC   C4A65610  44.657   0.469   7.350
 9568POPC   C1B65611  44.823   0.186   6.450
 9568POPC   C2B65612  44.818   0.205   6.750
 9568POPC   C3B65613  44.826   0.282   7.050
 9568POPC   C4B65614  44.797   0.200   7.350
 9569POPC   NC365615  32.226   5.915   5.550
 9569POPC   PO465616  32.265   5.905   5.850
 9569POPC   GL165617  32.247   5.877   6.150
 9569POPC   GL265618  32.337   5.798   6.150
 9569POPC   C1A65619  32.217   5.896   6.450
 9569POPC   D2A65620  32.225   5.822   6.750
 9569POPC   C3A65621  32.234   5.863   7.050
 9569POPC   C4A65622  32.281   5.852   7.350
 9569POPC   C1B65623  32.320   5.657   6.450
 9569POPC   C2B65624  32.354   5.598   6.750
 9569POPC   C3B65625  32.316   5.671   7.050
 9569POPC   C4B65626  32.311   5.624   7.350
 9570POPC   NC365627  19.800  11.268   5.550
 9570POPC   PO465628  19.852  11.253   5.850
 9570POPC   GL165629  19.804  11.329   6.150
 9570POPC   GL265630  19.841  11.150   6.150
 9570POPC   C1A65631  19.842  11.301   6.450
 9570POPC   D2A65632  19.790  11.334   6.750
 9570POPC   C3A65633  19.799  11.336   7.050
 9570POPC   C4A65634  19.842  11.268   7.350
 9570POPC   C1B65635  19.840  11.062   6.450
 9570POPC   C2B65636  19.871  11.050   6.750
 9570POPC   C3B65637  19.831  11.004   7.050
 9570POPC   C4B65638  19.911  11.025   7.350
 9571POPC   NC365639  39.280  19.841   5.550
 9571POPC   PO465640  39.235  19.882   5.850
 9571POPC   GL165641  39.193  19.813   6.150
 9571POPC   GL265642  39.173  19.751   6.150
 9571POPC   C1A65643  39.275  19.785   6.450
 9571POPC   D2A65644  39.189  19.869   6.750
 9571POPC   C3A65645  39.281  19.846   7.050
 9571POPC   C4A65646  39.229  19.794   7.350
 9571POPC   C1B65647  39.244  19.540   6.450
 9571POPC   C2B65648  39.196  19.552   6.750
 9571POPC   C3B65649  39.195  19.620   7.050
 9571POPC   C4B65650  39.165  19.582   7.350
 9572POPC   NC365651  18.236  25.287   5.550
 9572POPC   PO465652  18.301  25.259   5.850
 9572POPC   GL165653  18.325  25.238   6.150
 9572POPC   GL265654  18.384  25.207   6.150
 9572POPC   C1A65655  18.271  25.279   6.450
 9572POPC   D2A65656  18.289  25.309   6.750
 9572POPC   C3A65657  18.262  25.222   7.050
 9572POPC   C4A65658  18.329  25.312   7.350
 9572POPC   C1B65659  18.512  25.198   6.450
 9572POPC   C2B65660  18.491  25.195   6.750
 9572POPC   C3B65661  18.493  25.233   7.050
 9572POPC   C4B65662  18.476  25.202   7.350
 9573POPC   NC365663  40.742  43.105   5.550
 9573POPC   PO465664  40.828  43.068   5.850
 9573POPC   GL165665  40.749  43.084   6.150
 9573POPC   GL265666  40.768  42.944   6.150
 9573POPC   C1A65667  40.734  43.140   6.450
 9573POPC   D2A65668  40.829  43.143   6.750
 9573POPC   C3A65669  40.734  43.130   7.050
 9573POPC   C4A65670  40.788  43.065   7.350
 9573POPC   C1B65671  40.733  42.839   6.450
 9573POPC   C2B65672  40.700  42.827   6.750
 9573POPC   C3B65673  40.669  42.903   7.050
 9573POPC   C4B65674  40.691  42.912   7.350
 9574POPC   NC365675   7.407   2.808   5.550
 9574POPC   PO465676   7.371   2.803   5.850
 9574POPC   GL165677   7.455   2.783   6.150
 9574POPC   GL265678   7.576   2.851   6.150
 9574POPC   C1A65679   7.428   2.717   6.450
 9574POPC   D2A65680   7.387   2.773   6.750
 9574POPC   C3A65681   7.408   2.729   7.050
 9574POPC   C4A65682   7.425   2.770   7.350
 9574POPC   C1B65683   7.635   2.827   6.450
 9574POPC   C2B65684   7.636   2.897   6.750
 9574POPC   C3B65685   7.649   2.854   7.050
 9574POPC   C4B65686   7.668   2.841   7.350
 9575POPC   NC365687  26.010  25.303   5.550
 9575POPC   PO465688  26.054  25.268   5.850
 9575POPC   GL165689  26.000  25.256   6.150
 9575POPC   GL265690  25.935  25.341   6.150
 9575POPC   C1A65691  26.002  25.227   6.450
 9575POPC   D2A65692  26.080  25.251   6.750
 9575POPC   C3A65693  26.059  25.308   7.050
 9575POPC   C4A65694  26.058  25.285   7.350
 9575POPC   C1B65695  25.926  25.462   6.450
 9575POPC   C2B65696  25.924  25.458   6.750
 9575POPC   C3B65697  25.888  25.435   7.050
 9575POPC   C4B65698  25.842  25.439   7.350
 9576POPC   NC365699  11.313  31.495   5.550
 9576POPC   PO465700  11.300  31.447   5.850
 9576POPC   GL165701  11.296  31.455   6.150
 9576POPC   GL265702  11.436  31.455   6.150
 9576POPC   C1A65703  11.283  31.427   6.450
 9576POPC   D2A65704  11.323  31.504   6.750
 9576POPC   C3A65705  11.256  31.467   7.050
 9576POPC   C4A65706  11.276  31.461   7.350
 9576POPC   C1B65707  11.480  31.379   6.450
 9576POPC   C2B65708  11.563  31.306   6.750
 9576POPC   C3B65709  11.499  31.391   7.050
 9576POPC   C4B65710  11.472  31.372   7.350
 9577POPC   NC365711  33.760   5.095   5.550
 9577POPC   PO465712  33.845   5.103   5.850
 9577POPC   GL165713  33.792   5.046   6.150
 9577POPC   GL265714  33.808   5.196   6.150
 9577POPC   C1A65715  33.811   5.060   6.450
 9577POPC   D2A65716  33.773   5.122   6.750
 9577POPC   C3A65717  33.764   5.140   7.050
 9577POPC   C4A65718  33.758   5.070   7.350
 9577POPC   C1B65719  33.945   5.321   6.450
 9577POPC   C2B65720  33.915   5.352   6.750
 9577POPC   C3B65721  33.870   5.352   7.050
 9577POPC   C4B65722  33.884   5.337   7.350
 9578POPC   NC365723   4.327  31.501   5.550
 9578POPC   PO465724   4.330  31.497   5.850
 9578POPC   GL165725   4.329  31.509   6.150
 9578POPC   GL265726   4.455  31.391   6.150
 9578POPC   C1A65727   4.292  31.501   6.450
 9578POPC   D2A65728   4.325  31.428   6.750
 9578POPC   C3A65729   4.345  31.444   7.050
 9578POPC   C4A65730   4.339  31.424   7.350
 9578POPC   C1B65731   4.518  31.397   6.450
 9578POPC   C2B65732   4.585  31.358   6.750
 9578POPC   C3B65733   4.502  31.375   7.050
 9578POPC   C4B65734   4.532  31.342   7.350
 9579POPC   NC365735  40.003   4.327   5.550
 9579POPC   PO465736  40.029   4.295   5.850
 9579POPC   GL165737  40.002   4.271   6.150
 9579POPC   GL265738  40.144   4.360   6.150
 9579POPC   C1A65739  40.001   4.325   6.450
 9579POPC   D2A65740  40.026   4.292   6.750
 9579POPC   C3A65741  40.022   4.307   7.050
 9579POPC   C4A65742  40.040   4.334   7.350
 9579POPC   C1B65743  40.206   4.483   6.450
 9579POPC   C2B65744  40.174   4.466   6.750
 9579POPC   C3B65745  40.161   4.460   7.050
 9579POPC   C4B65746  40.164   4.488   7.350
 9580POPC   NC365747  19.083  43.932   5.550
 9580POPC   PO465748  19.064  43.839   5.850
 9580POPC   GL165749  19.068  43.838   6.150
 9580POPC   GL265750  19.106  43.773   6.150
 9580POPC   C1A65751  19.101  43.901   6.450
 9580POPC   D2A65752  19.094  43.879   6.750
 9580POPC   C3A65753  19.075  43.869   7.050
 9580POPC   C4A65754  19.053  43.913   7.350
 9580POPC   C1B65755  19.245  43.661   6.450
 9580POPC   C2B65756  19.277  43.662   6.750
 9580POPC   C3B65757  19.209  43.685   7.050
 9580POPC   C4B65758  19.213  43.679   7.350
 9581POPC   NC365759   5.874  30.660   5.550
 9581POPC   PO465760   5.830  30.746   5.850
 9581POPC   GL165761   5.830  30.651   6.150
 9581POPC   GL265762   5.782  30.771   6.150
 9581POPC   C1A65763   5.820  30.661   6.450
 9581POPC   D2A65764   5.851  30.692   6.750
 9581POPC   C3A65765   5.854  30.720   7.050
 9581POPC   C4A65766   5.853  30.707   7.350
 9581POPC   C1B65767   5.676  30.827   6.450
 9581POPC   C2B65768   5.590  30.753   6.750
 9581POPC   C3B65769   5.634  30.753   7.050
 9581POPC   C4B65770   5.643  30.811   7.350
 9582POPC   NC365771  41.516   4.290   5.550
 9582POPC   PO465772  41.517   4.307   5.850
 9582POPC   GL165773  41.559   4.344   6.150
 9582POPC   GL265774  41.583   4.443   6.150
 9582POPC   C1A65775  41.552   4.305   6.450
 9582POPC   D2A65776  41.560   4.311   6.750
 9582POPC   C3A65777  41.566   4.289   7.050
 9582POPC   C4A65778  41.582   4.362   7.350
 9582POPC   C1B65779  41.707   4.566   6.450
 9582POPC   C2B65780  41.686   4.564   6.750
 9582POPC   C3B65781  41.708   4.498   7.050
 9582POPC   C4B65782  41.682   4.516   7.350
 9583POPC   NC365783   8.936  14.403   5.550
 9583POPC   PO465784   8.966  14.369   5.850
 9583POPC   GL165785   8.941  14.386   6.150
 9583POPC   GL265786   8.833  14.332   6.150
 9583POPC   C1A65787   8.997  14.451   6.450
 9583POPC   D2A65788   8.980  14.358   6.750
 9583POPC   C3A65789   9.013  14.388   7.050
 9583POPC   C4A65790   8.989  14.400   7.350
 9583POPC   C1B65791   8.786  14.195   6.450
 9583POPC   C2B65792   8.837  14.242   6.750
 9583POPC   C3B65793   8.807  14.248   7.050
 9583POPC   C4B65794   8.795  14.264   7.350
 9584POPC   NC365795  26.008  11.319   5.550
 9584POPC   PO465796  26.025  11.251   5.850
 9584POPC   GL165797  26.067  11.312   6.150
 9584POPC   GL265798  25.901  11.303   6.150
 9584POPC   C1A65799  26.087  11.251   6.450
 9584POPC   D2A65800  26.042  11.294   6.750
 9584POPC   C3A65801  26.005  11.339   7.050
 9584POPC   C4A65802  26.081  11.263   7.350
 9584POPC   C1B65803  25.795  11.234   6.450
 9584POPC   C2B65804  25.840  11.302   6.750
 9584POPC   C3B65805  25.777  11.238   7.050
 9584POPC   C4B65806  25.775  11.241   7.350
 9585POPC   NC365807  18.294  13.642   5.550
 9585POPC   PO465808  18.274  13.620   5.850
 9585POPC   GL165809  18.277  13.642   6.150
 9585POPC   GL265810  18.205  13.756   6.150
 9585POPC   C1A65811  18.318  13.635   6.450
 9585POPC   D2A65812  18.236  13.632   6.750
 9585POPC   C3A65813  18.308  13.669   7.050
 9585POPC   C4A65814  18.330  13.647   7.350
 9585POPC   C1B65815  18.086  13.787   6.450
 9585POPC   C2B65816  18.152  13.770   6.750
 9585POPC   C3B65817  18.089  13.812   7.050
 9585POPC   C4B65818  18.162  13.830   7.350
 9586POPC   NC365819  15.911  15.215   5.550
 9586POPC   PO465820  15.970  15.206   5.850
 9586POPC   GL165821  15.967  15.146   6.150
 9586POPC   GL265822  16.062  15.267   6.150
 9586POPC   C1A65823  15.932  15.138   6.450
 9586POPC   D2A65824  15.993  15.218   6.750
 9586POPC   C3A65825  15.985  15.225   7.050
 9586POPC   C4A65826  15.944  15.167   7.350
 9586POPC   C1B65827  16.192  15.307   6.450
 9586POPC   C2B65828  16.162  15.348   6.750
 9586POPC   C3B65829  16.182  15.303   7.050
 9586POPC   C4B65830  16.124  15.362   7.350
 9587POPC   NC365831  24.466  32.257   5.550
 9587POPC   PO465832  24.460  32.232   5.850
 9587POPC   GL165833  24.491  32.289   6.150
 9587POPC   GL265834  24.638  32.292   6.150
 9587POPC   C1A65835  24.448  32.242   6.450
 9587POPC   D2A65836  24.445  32.239   6.750
 9587POPC   C3A65837  24.478  32.249   7.050
 9587POPC   C4A65838  24.519  32.254   7.350
 9587POPC   C1B65839  24.756  32.367   6.450
 9587POPC   C2B65840  24.740  32.315   6.750
 9587POPC   C3B65841  24.690  32.297   7.050
 9587POPC   C4B65842  24.766  32.325   7.350
 9588POPC   NC365843   6.598  33.017   5.550
 9588POPC   PO465844   6.601  33.042   5.850
 9588POPC   GL165845   6.657  33.006   6.150
 9588POPC   GL265846   6.560  33.081   6.150
 9588POPC   C1A65847   6.604  33.048   6.450
 9588POPC   D2A65848   6.672  33.066   6.750
 9588POPC   C3A65849   6.689  33.054   7.050
 9588POPC   C4A65850   6.652  33.048   7.350
 9588POPC   C1B65851   6.447  33.142   6.450
 9588POPC   C2B65852   6.447  33.069   6.750
 9588POPC   C3B65853   6.376  33.116   7.050
 9588POPC   C4B65854   6.400  33.081   7.350
 9589POPC   NC365855  42.306  37.645   5.550
 9589POPC   PO465856  42.308  37.690   5.850
 9589POPC   GL165857  42.361  37.706   6.150
 9589POPC   GL265858  42.357  37.763   6.150
 9589POPC   C1A65859  42.363  37.683   6.450
 9589POPC   D2A65860  42.314  37.705   6.750
 9589POPC   C3A65861  42.286  37.702   7.050
 9589POPC   C4A65862  42.291  37.634   7.350
 9589POPC   C1B65863  42.432  37.885   6.450
 9589POPC   C2B65864  42.434  37.875   6.750
 9589POPC   C3B65865  42.427  37.864   7.050
 9589POPC   C4B65866  42.409  37.942   7.350
 9590POPC   NC365867  40.814   8.198   5.550
 9590POPC   PO465868  40.801   8.150   5.850
 9590POPC   GL165869  40.825   8.191   6.150
 9590POPC   GL265870  40.640   8.274   6.150
 9590POPC   C1A65871  40.743   8.222   6.450
 9590POPC   D2A65872  40.785   8.184   6.750
 9590POPC   C3A65873  40.815   8.233   7.050
 9590POPC   C4A65874  40.780   8.191   7.350
 9590POPC   C1B65875  40.568   8.377   6.450
 9590POPC   C2B65876  40.545   8.379   6.750
 9590POPC   C3B65877  40.565   8.369   7.050
 9590POPC   C4B65878  40.599   8.380   7.350
 9591POPC   NC365879  24.448  40.807   5.550
 9591POPC   PO465880  24.476  40.772   5.850
 9591POPC   GL165881  24.493  40.759   6.150
 9591POPC   GL265882  24.643  40.787   6.150
 9591POPC   C1A65883  24.462  40.769   6.450
 9591POPC   D2A65884  24.475  40.744   6.750
 9591POPC   C3A65885  24.536  40.820   7.050
 9591POPC   C4A65886  24.458  40.766   7.350
 9591POPC   C1B65887  24.741  40.799   6.450
 9591POPC   C2B65888  24.767  40.782   6.750
 9591POPC   C3B65889  24.694  40.829   7.050
 9591POPC   C4B65890  24.760  40.767   7.350
 9592POPC   NC365891  40.807  32.257   5.550
 9592POPC   PO465892  40.796  32.207   5.850
 9592POPC   GL165893  40.760  32.232   6.150
 9592POPC   GL265894  40.631  32.222   6.150
 9592POPC   C1A65895  40.783  32.273   6.450
 9592POPC   D2A65896  40.737  32.256   6.750
 9592POPC   C3A65897  40.810  32.220   7.050
 9592POPC   C4A65898  40.769  32.242   7.350
 9592POPC   C1B65899  40.582  32.147   6.450
 9592POPC   C2B65900  40.525  32.160   6.750
 9592POPC   C3B65901  40.596  32.089   7.050
 9592POPC   C4B65902  40.582  32.106   7.350
 9593POPC   NC365903   8.171   2.736   5.550
 9593POPC   PO465904   8.219   2.793   5.850
 9593POPC   GL165905   8.212   2.752   6.150
 9593POPC   GL265906   8.342   2.769   6.150
 9593POPC   C1A65907   8.153   2.748   6.450
 9593POPC   D2A65908   8.156   2.796   6.750
 9593POPC   C3A65909   8.224   2.737   7.050
 9593POPC   C4A65910   8.235   2.796   7.350
 9593POPC   C1B65911   8.480   2.821   6.450
 9593POPC   C2B65912   8.466   2.729   6.750
 9593POPC   C3B65913   8.461   2.747   7.050
 9593POPC   C4B65914   8.429   2.790   7.350
 9594POPC   NC365915  36.949  17.550   5.550
 9594POPC   PO465916  36.867  17.528   5.850
 9594POPC   GL165917  36.947  17.502   6.150
 9594POPC   GL265918  36.847  17.362   6.150
 9594POPC   C1A65919  36.888  17.553   6.450
 9594POPC   D2A65920  36.921  17.534   6.750
 9594POPC   C3A65921  36.952  17.534   7.050
 9594POPC   C4A65922  36.906  17.461   7.350
 9594POPC   C1B65923  36.826  17.232   6.450
 9594POPC   C2B65924  36.804  17.259   6.750
 9594POPC   C3B65925  36.768  17.274   7.050
 9594POPC   C4B65926  36.838  17.261   7.350
 9595POPC   NC365927  20.598   5.097   5.550
 9595POPC   PO465928  20.587   5.047   5.850
 9595POPC   GL165929  20.566   5.113   6.150
 9595POPC   GL265930  20.451   5.095   6.150
 9595POPC   C1A65931  20.600   5.087   6.450
 9595POPC   D2A65932  20.598   5.104   6.750
 9595POPC   C3A65933  20.603   5.103   7.050
 9595POPC   C4A65934  20.581   5.106   7.350
 9595POPC   C1B65935  20.372   5.180   6.450
 9595POPC   C2B65936  20.323   5.135   6.750
 9595POPC   C3B65937  20.373   5.158   7.050
 9595POPC   C4B65938  20.351   5.114   7.350
 9596POPC   NC365939  42.294  14.419   5.550
 9596POPC   PO465940  42.294  14.426   5.850
 9596POPC   GL165941  42.329  14.381   6.150
 9596POPC   GL265942  42.433  14.345   6.150
 9596POPC   C1A65943  42.299  14.403   6.450
 9596POPC   D2A65944  42.313  14.374   6.750
 9596POPC   C3A65945  42.310  14.412   7.050
 9596POPC   C4A65946  42.371  14.358   7.350
 9596POPC   C1B65947  42.514  14.159   6.450
 9596POPC   C2B65948  42.441  14.143   6.750
 9596POPC   C3B65949  42.432  14.198   7.050
 9596POPC   C4B65950  42.490  14.226   7.350
 9597POPC   NC365951  23.664  41.519   5.550
 9597POPC   PO465952  23.694  41.598   5.850
 9597POPC   GL165953  23.716  41.528   6.150
 9597POPC   GL265954  23.639  41.476   6.150
 9597POPC   C1A65955  23.715  41.564   6.450
 9597POPC   D2A65956  23.709  41.568   6.750
 9597POPC   C3A65957  23.676  41.586   7.050
 9597POPC   C4A65958  23.727  41.580   7.350
 9597POPC   C1B65959  23.457  41.445   6.450
 9597POPC   C2B65960  23.434  41.455   6.750
 9597POPC   C3B65961  23.529  41.414   7.050
 9597POPC   C4B65962  23.517  41.419   7.350
 9598POPC   NC365963  30.678   2.804   5.550
 9598POPC   PO465964  30.703   2.753   5.850
 9598POPC   GL165965  30.694   2.759   6.150
 9598POPC   GL265966  30.749   2.599   6.150
 9598POPC   C1A65967  30.666   2.753   6.450
 9598POPC   D2A65968  30.727   2.726   6.750
 9598POPC   C3A65969  30.719   2.800   7.050
 9598POPC   C4A65970  30.685   2.721   7.350
 9598POPC   C1B65971  30.748   2.537   6.450
 9598POPC   C2B65972  30.698   2.565   6.750
 9598POPC   C3B65973  30.711   2.561   7.050
 9598POPC   C4B65974  30.746   2.504   7.350
 9599POPC   NC365975  22.138  33.755   5.550
 9599POPC   PO465976  22.186  33.788   5.850
 9599POPC   GL165977  22.191  33.813   6.150
 9599POPC   GL265978  22.088  33.859   6.150
 9599POPC   C1A65979  22.142  33.780   6.450
 9599POPC   D2A65980  22.188  33.759   6.750
 9599POPC   C3A65981  22.136  33.824   7.050
 9599POPC   C4A65982  22.141  33.824   7.350
 9599POPC   C1B65983  21.975  33.896   6.450
 9599POPC   C2B65984  21.899  33.885   6.750
 9599POPC   C3B65985  21.918  33.888   7.050
 9599POPC   C4B65986  21.978  33.870   7.350
 9600POPC   NC365987  43.063  19.090   5.550
 9600POPC   PO465988  43.064  19.038   5.850
 9600POPC   GL165989  43.122  19.019   6.150
 9600POPC   GL265990  43.149  18.984   6.150
 9600POPC   C1A65991  43.066  19.102   6.450
 9600POPC   D2A65992  43.149  19.080   6.750
 9600POPC   C3A65993  43.089  19.093   7.050
 9600POPC   C4A65994  43.108  19.025   7.350
 9600POPC   C1B65995  43.113  18.838   6.450
 9600POPC   C2B65996  43.128  18.806   6.750
 9600POPC   C3B65997  43.193  18.768   7.050
 9600POPC   C4B65998  43.127  18.762   7.350
 9601POPC   NC365999  37.643  29.902   5.550
 9601POPC   PO466000  37.701  29.936   5.850
 9601POPC   GL166001  37.666  29.962   6.150
 9601POPC   GL266002  37.656  30.051   6.150
 9601POPC   C1A66003  37.657  29.967   6.450
 9601POPC   D2A66004  37.647  29.911   6.750
 9601POPC   C3A66005  37.686  29.912   7.050
 9601POPC   C4A66006  37.676  29.948   7.350
 9601POPC   C1B66007  37.555  30.200   6.450
 9601POPC   C2B66008  37.553  30.155   6.750
 9601POPC   C3B66009  37.611  30.177   7.050
 9601POPC   C4B66010  37.562  30.105   7.350
 9602POPC   NC366011  20.566   0.469   5.550
 9602POPC   PO466012  20.628   0.440   5.850
 9602POPC   GL166013  20.614   0.442   6.150
 9602POPC   GL266014  20.636   0.574   6.150
 9602POPC   C1A66015  20.580   0.481   6.450
 9602POPC   D2A66016  20.572   0.416   6.750
 9602POPC   C3A66017  20.639   0.427   7.050
 9602POPC   C4A66018  20.650   0.428   7.350
 9602POPC   C1B66019  20.620   0.648   6.450
 9602POPC   C2B66020  20.671   0.670   6.750
 9602POPC   C3B66021  20.611   0.677   7.050
 9602POPC   C4B66022  20.609   0.709   7.350
 9603POPC   NC366023  35.334  43.911   5.550
 9603POPC   PO466024  35.376  43.900   5.850
 9603POPC   GL166025  35.339  43.935   6.150
 9603POPC   GL266026  35.469  43.945   6.150
 9603POPC   C1A66027  35.348  43.865   6.450
 9603POPC   D2A66028  35.355  43.925   6.750
 9603POPC   C3A66029  35.311  43.910   7.050
 9603POPC   C4A66030  35.396  43.844   7.350
 9603POPC   C1B66031  35.493  44.094   6.450
 9603POPC   C2B66032  35.553  44.095   6.750
 9603POPC   C3B66033  35.535  44.073   7.050
 9603POPC   C4B66034  35.521  44.070   7.350
 9604POPC   NC366035  44.637  44.649   5.550
 9604POPC   PO466036  44.696  44.677   5.850
 9604POPC   GL166037  44.680  44.636   6.150
 9604POPC   GL266038  44.746  44.546   6.150
 9604POPC   C1A66039  44.710  44.674   6.450
 9604POPC   D2A66040  44.707  44.691   6.750
 9604POPC   C3A66041  44.626  44.660   7.050
 9604POPC   C4A66042  44.657  44.676   7.350
 9604POPC   C1B66043  44.862  44.463   6.450
 9604POPC   C2B66044  44.848  44.449   6.750
 9604POPC   C3B66045  44.788  44.473   7.050
 9604POPC   C4B66046  44.807  44.517   7.350
 9605POPC   NC366047  28.322  28.360   5.550
 9605POPC   PO466048  28.389  28.410   5.850
 9605POPC   GL166049  28.348  28.325   6.150
 9605POPC   GL266050  28.391  28.264   6.150
 9605POPC   C1A66051  28.387  28.344   6.450
 9605POPC   D2A66052  28.339  28.399   6.750
 9605POPC   C3A66053  28.397  28.330   7.050
 9605POPC   C4A66054  28.344  28.376   7.350
 9605POPC   C1B66055  28.381  28.110   6.450
 9605POPC   C2B66056  28.291  28.103   6.750
 9605POPC   C3B66057  28.375  28.151   7.050
 9605POPC   C4B66058  28.313  28.106   7.350
 9606POPC   NC366059  44.634   1.974   5.550
 9606POPC   PO466060  44.671   1.944   5.850
 9606POPC   GL166061  44.692   1.956   6.150
 9606POPC   GL266062  44.630   1.910   6.150
 9606POPC   C1A66063  44.632   1.970   6.450
 9606POPC   D2A66064  44.675   1.978   6.750
 9606POPC   C3A66065  44.668   1.976   7.050
 9606POPC   C4A66066  44.669   1.982   7.350
 9606POPC   C1B66067  44.646   1.708   6.450
 9606POPC   C2B66068  44.623   1.743   6.750
 9606POPC   C3B66069  44.646   1.774   7.050
 9606POPC   C4B66070  44.638   1.736   7.350
 9607POPC   NC366071  32.219  20.623   5.550
 9607POPC   PO466072  32.263  20.593   5.850
 9607POPC   GL166073  32.292  20.631   6.150
 9607POPC   GL266074  32.386  20.539   6.150
 9607POPC   C1A66075  32.202  20.660   6.450
 9607POPC   D2A66076  32.206  20.564   6.750
 9607POPC   C3A66077  32.269  20.612   7.050
 9607POPC   C4A66078  32.251  20.594   7.350
 9607POPC   C1B66079  32.420  20.452   6.450
 9607POPC   C2B66080  32.404  20.426   6.750
 9607POPC   C3B66081  32.456  20.442   7.050
 9607POPC   C4B66082  32.397  20.504   7.350
 9608POPC   NC366083  43.871  13.581   5.550
 9608POPC   PO466084  43.885  13.636   5.850
 9608POPC   GL166085  43.873  13.588   6.150
 9608POPC   GL266086  43.769  13.553   6.150
 9608POPC   C1A66087  43.922  13.627   6.450
 9608POPC   D2A66088  43.845  13.614   6.750
 9608POPC   C3A66089  43.926  13.604   7.050
 9608POPC   C4A66090  43.923  13.624   7.350
 9608POPC   C1B66091  43.644  13.484   6.450
 9608POPC   C2B66092  43.630  13.533   6.750
 9608POPC   C3B66093  43.659  13.503   7.050
 9608POPC   C4B66094  43.637  13.502   7.350
 9609POPC   NC366095  42.295   8.973   5.550
 9609POPC   PO466096  42.384   8.968   5.850
 9609POPC   GL166097  42.302   8.928   6.150
 9609POPC   GL266098  42.412   9.055   6.150
 9609POPC   C1A66099  42.301   8.996   6.450
 9609POPC   D2A66100  42.373   8.944   6.750
 9609POPC   C3A66101  42.361   8.945   7.050
 9609POPC   C4A66102  42.302   8.978   7.350
 9609POPC   C1B66103  42.463   9.163   6.450
 9609POPC   C2B66104  42.465   9.187   6.750
 9609POPC   C3B66105  42.377   9.172   7.050
 9609POPC   C4B66106  42.449   9.220   7.350
 9610POPC   NC366107   8.175  11.324   5.550
 9610POPC   PO466108   8.210  11.265   5.850
 9610POPC   GL166109   8.230  11.286   6.150
 9610POPC   GL266110   8.059  11.295   6.150
 9610POPC   C1A66111   8.210  11.257   6.450
 9610POPC   D2A66112   8.198  11.326   6.750
 9610POPC   C3A66113   8.152  11.254   7.050
 9610POPC   C4A66114   8.151  11.262   7.350
 9610POPC   C1B66115   7.934  11.283   6.450
 9610POPC   C2B66116   7.945  11.349   6.750
 9610POPC   C3B66117   7.914  11.275   7.050
 9610POPC   C4B66118   7.961  11.339   7.350
 9611POPC   NC366119  31.498  29.916   5.550
 9611POPC   PO466120  31.477  29.917   5.850
 9611POPC   GL166121  31.464  29.915   6.150
 9611POPC   GL266122  31.475  29.829   6.150
 9611POPC   C1A66123  31.445  29.965   6.450
 9611POPC   D2A66124  31.467  29.936   6.750
 9611POPC   C3A66125  31.460  29.939   7.050
 9611POPC   C4A66126  31.506  29.885   7.350
 9611POPC   C1B66127  31.462  29.718   6.450
 9611POPC   C2B66128  31.496  29.702   6.750
 9611POPC   C3B66129  31.458  29.653   7.050
 9611POPC   C4B66130  31.483  29.654   7.350
 9612POPC   NC366131   3.567  24.475   5.550
 9612POPC   PO466132   3.576  24.494   5.850
 9612POPC   GL166133   3.509  24.453   6.150
 9612POPC   GL266134   3.612  24.629   6.150
 9612POPC   C1A66135   3.553  24.489   6.450
 9612POPC   D2A66136   3.570  24.455   6.750
 9612POPC   C3A66137   3.517  24.472   7.050
 9612POPC   C4A66138   3.562  24.492   7.350
 9612POPC   C1B66139   3.639  24.753   6.450
 9612POPC   C2B66140   3.594  24.734   6.750
 9612POPC   C3B66141   3.651  24.765   7.050
 9612POPC   C4B66142   3.662  24.747   7.350
 9613POPC   NC366143  36.860  35.327   5.550
 9613POPC   PO466144  36.948  35.333   5.850
 9613POPC   GL166145  36.892  35.382   6.150
 9613POPC   GL266146  36.812  35.422   6.150
 9613POPC   C1A66147  36.891  35.383   6.450
 9613POPC   D2A66148  36.873  35.402   6.750
 9613POPC   C3A66149  36.953  35.385   7.050
 9613POPC   C4A66150  36.903  35.353   7.350
 9613POPC   C1B66151  36.653  35.468   6.450
 9613POPC   C2B66152  36.712  35.519   6.750
 9613POPC   C3B66153  36.715  35.541   7.050
 9613POPC   C4B66154  36.725  35.499   7.350
 9614POPC   NC366155  33.836   7.383   5.550
 9614POPC   PO466156  33.775   7.436   5.850
 9614POPC   GL166157  33.756   7.375   6.150
 9614POPC   GL266158  33.783   7.533   6.150
 9614POPC   C1A66159  33.813   7.442   6.450
 9614POPC   D2A66160  33.750   7.411   6.750
 9614POPC   C3A66161  33.778   7.386   7.050
 9614POPC   C4A66162  33.783   7.427   7.350
 9614POPC   C1B66163  33.819   7.704   6.450
 9614POPC   C2B66164  33.819   7.685   6.750
 9614POPC   C3B66165  33.873   7.630   7.050
 9614POPC   C4B66166  33.802   7.710   7.350
 9615POPC   NC366167  33.800  36.167   5.550
 9615POPC   PO466168  33.751  36.080   5.850
 9615POPC   GL166169  33.756  36.089   6.150
 9615POPC   GL266170  33.678  36.164   6.150
 9615POPC   C1A66171  33.842  36.139   6.450
 9615POPC   D2A66172  33.785  36.155   6.750
 9615POPC   C3A66173  33.849  36.157   7.050
 9615POPC   C4A66174  33.828  36.123   7.350
 9615POPC   C1B66175  33.562  36.138   6.450
 9615POPC   C2B66176  33.581  36.191   6.750
 9615POPC   C3B66177  33.549  36.150   7.050
 9615POPC   C4B66178  33.562  36.152   7.350
 9616POPC   NC366179  28.401  19.059   5.550
 9616POPC   PO466180  28.398  19.064   5.850
 9616POPC   GL166181  28.362  19.016   6.150
 9616POPC   GL266182  28.429  19.146   6.150
 9616POPC   C1A66183  28.375  19.089   6.450
 9616POPC   D2A66184  28.394  19.024   6.750
 9616POPC   C3A66185  28.347  19.103   7.050
 9616POPC   C4A66186  28.343  19.060   7.350
 9616POPC   C1B66187  28.519  19.254   6.450
 9616POPC   C2B66188  28.481  19.298   6.750
 9616POPC   C3B66189  28.524  19.294   7.050
 9616POPC   C4B66190  28.525  19.228   7.350
 9617POPC   NC366191  40.000  17.487   5.550
 9617POPC   PO466192  40.023  17.509   5.850
 9617POPC   GL166193  39.963  17.477   6.150
 9617POPC   GL266194  40.141  17.486   6.150
 9617POPC   C1A66195  40.001  17.526   6.450
 9617POPC   D2A66196  40.007  17.524   6.750
 9617POPC   C3A66197  40.044  17.543   7.050
 9617POPC   C4A66198  39.958  17.503   7.350
 9617POPC   C1B66199  40.209  17.453   6.450
 9617POPC   C2B66200  40.227  17.430   6.750
 9617POPC   C3B66201  40.254  17.494   7.050
 9617POPC   C4B66202  40.234  17.450   7.350
 9618POPC   NC366203  19.046  15.947   5.550
 9618POPC   PO466204  19.057  15.939   5.850
 9618POPC   GL166205  19.064  15.950   6.150
 9618POPC   GL266206  19.200  15.872   6.150
 9618POPC   C1A66207  19.034  15.974   6.450
 9618POPC   D2A66208  19.074  15.988   6.750
 9618POPC   C3A66209  19.092  15.970   7.050
 9618POPC   C4A66210  19.069  16.001   7.350
 9618POPC   C1B66211  19.286  15.893   6.450
 9618POPC   C2B66212  19.264  15.852   6.750
 9618POPC   C3B66213  19.264  15.866   7.050
 9618POPC   C4B66214  19.290  15.865   7.350
 9619POPC   NC366215  23.740  15.159   5.550
 9619POPC   PO466216  23.678  15.188   5.850
 9619POPC   GL166217  23.723  15.213   6.150
 9619POPC   GL266218  23.687  15.061   6.150
 9619POPC   C1A66219  23.715  15.219   6.450
 9619POPC   D2A66220  23.744  15.185   6.750
 9619POPC   C3A66221  23.703  15.191   7.050
 9619POPC   C4A66222  23.697  15.204   7.350
 9619POPC   C1B66223  23.781  14.903   6.450
 9619POPC   C2B66224  23.733  14.922   6.750
 9619POPC   C3B66225  23.746  14.906   7.050
 9619POPC   C4B66226  23.695  14.891   7.350
 9620POPC   NC366227  23.695  20.640   5.550
 9620POPC   PO466228  23.755  20.630   5.850
 9620POPC   GL166229  23.756  20.631   6.150
 9620POPC   GL266230  23.806  20.621   6.150
 9620POPC   C1A66231  23.714  20.575   6.450
 9620POPC   D2A66232  23.748  20.650   6.750
 9620POPC   C3A66233  23.735  20.591   7.050
 9620POPC   C4A66234  23.733  20.633   7.350
 9620POPC   C1B66235  23.970  20.555   6.450
 9620POPC   C2B66236  23.958  20.507   6.750
 9620POPC   C3B66237  23.942  20.592   7.050
 9620POPC   C4B66238  23.936  20.561   7.350
 9621POPC   NC366239  31.435  31.424   5.550
 9621POPC   PO466240  31.472  31.454   5.850
 9621POPC   GL166241  31.489  31.476   6.150
 9621POPC   GL266242  31.555  31.449   6.150
 9621POPC   C1A66243  31.502  31.509   6.450
 9621POPC   D2A66244  31.440  31.486   6.750
 9621POPC   C3A66245  31.516  31.484   7.050
 9621POPC   C4A66246  31.481  31.437   7.350
 9621POPC   C1B66247  31.673  31.389   6.450
 9621POPC   C2B66248  31.686  31.433   6.750
 9621POPC   C3B66249  31.668  31.425   7.050
 9621POPC   C4B66250  31.717  31.440   7.350
 9622POPC   NC366251   9.705  15.138   5.550
 9622POPC   PO466252   9.747  15.178   5.850
 9622POPC   GL166253   9.716  15.156   6.150
 9622POPC   GL266254   9.915  15.235   6.150
 9622POPC   C1A66255   9.788  15.163   6.450
 9622POPC   D2A66256   9.705  15.214   6.750
 9622POPC   C3A66257   9.770  15.185   7.050
 9622POPC   C4A66258   9.746  15.147   7.350
 9622POPC   C1B66259   9.977  15.201   6.450
 9622POPC   C2B66260   9.967  15.251   6.750
 9622POPC   C3B66261   9.994  15.240   7.050
 9622POPC   C4B66262  10.002  15.265   7.350
 9623POPC   NC366263  36.091  19.849   5.550
 9623POPC   PO466264  36.133  19.788   5.850
 9623POPC   GL166265  36.107  19.822   6.150
 9623POPC   GL266266  36.178  19.773   6.150
 9623POPC   C1A66267  36.123  19.855   6.450
 9623POPC   D2A66268  36.136  19.861   6.750
 9623POPC   C3A66269  36.133  19.844   7.050
 9623POPC   C4A66270  36.146  19.813   7.350
 9623POPC   C1B66271  36.247  19.683   6.450
 9623POPC   C2B66272  36.329  19.596   6.750
 9623POPC   C3B66273  36.263  19.638   7.050
 9623POPC   C4B66274  36.289  19.598   7.350
 9624POPC   NC366275  28.366  11.313   5.550
 9624POPC   PO466276  28.359  11.270   5.850
 9624POPC   GL166277  28.395  11.333   6.150
 9624POPC   GL266278  28.397  11.404   6.150
 9624POPC   C1A66279  28.322  11.334   6.450
 9624POPC   D2A66280  28.335  11.269   6.750
 9624POPC   C3A66281  28.417  11.281   7.050
 9624POPC   C4A66282  28.344  11.316   7.350
 9624POPC   C1B66283  28.503  11.483   6.450
 9624POPC   C2B66284  28.539  11.465   6.750
 9624POPC   C3B66285  28.468  11.555   7.050
 9624POPC   C4B66286  28.544  11.501   7.350
 9625POPC   NC366287  37.652  19.092   5.550
 9625POPC   PO466288  37.654  19.023   5.850
 9625POPC   GL166289  37.657  19.019   6.150
 9625POPC   GL266290  37.776  19.030   6.150
 9625POPC   C1A66291  37.637  19.101   6.450
 9625POPC   D2A66292  37.662  19.105   6.750
 9625POPC   C3A66293  37.691  19.055   7.050
 9625POPC   C4A66294  37.654  19.069   7.350
 9625POPC   C1B66295  37.919  18.993   6.450
 9625POPC   C2B66296  37.889  19.069   6.750
 9625POPC   C3B66297  37.920  19.032   7.050
 9625POPC   C4B66298  37.895  19.037   7.350
 9626POPC   NC366299  22.115  13.663   5.550
 9626POPC   PO466300  22.145  13.669   5.850
 9626POPC   GL166301  22.125  13.668   6.150
 9626POPC   GL266302  22.269  13.707   6.150
 9626POPC   C1A66303  22.148  13.620   6.450
 9626POPC   D2A66304  22.130  13.628   6.750
 9626POPC   C3A66305  22.115  13.636   7.050
 9626POPC   C4A66306  22.130  13.660   7.350
 9626POPC   C1B66307  22.363  13.698   6.450
 9626POPC   C2B66308  22.446  13.718   6.750
 9626POPC   C3B66309  22.425  13.683   7.050
 9626POPC   C4B66310  22.398  13.711   7.350
 9627POPC   NC366311   4.347  14.375   5.550
 9627POPC   PO466312   4.351  14.362   5.850
 9627POPC   GL166313   4.299  14.434   6.150
 9627POPC   GL266314   4.224  14.429   6.150
 9627POPC   C1A66315   4.290  14.390   6.450
 9627POPC   D2A66316   4.360  14.373   6.750
 9627POPC   C3A66317   4.273  14.399   7.050
 9627POPC   C4A66318   4.355  14.366   7.350
 9627POPC   C1B66319   4.058  14.484   6.450
 9627POPC   C2B66320   4.060  14.512   6.750
 9627POPC   C3B66321   4.126  14.476   7.050
 9627POPC   C4B66322   4.112  14.488   7.350
 9628POPC   NC366323  37.661  35.329   5.550
 9628POPC   PO466324  37.723  35.392   5.850
 9628POPC   GL166325  37.704  35.377   6.150
 9628POPC   GL266326  37.550  35.276   6.150
 9628POPC   C1A66327  37.661  35.367   6.450
 9628POPC   D2A66328  37.642  35.372   6.750
 9628POPC   C3A66329  37.659  35.386   7.050
 9628POPC   C4A66330  37.695  35.379   7.350
 9628POPC   C1B66331  37.497  35.292   6.450
 9628POPC   C2B66332  37.414  35.291   6.750
 9628POPC   C3B66333  37.420  35.293   7.050
 9628POPC   C4B66334  37.404  35.239   7.350
 9629POPC   NC366335  27.599  39.217   5.550
 9629POPC   PO466336  27.550  39.221   5.850
 9629POPC   GL166337  27.551  39.236   6.150
 9629POPC   GL266338  27.533  39.318   6.150
 9629POPC   C1A66339  27.557  39.227   6.450
 9629POPC   D2A66340  27.557  39.266   6.750
 9629POPC   C3A66341  27.545  39.281   7.050
 9629POPC   C4A66342  27.551  39.183   7.350
 9629POPC   C1B66343  27.458  39.459   6.450
 9629POPC   C2B66344  27.443  39.498   6.750
 9629POPC   C3B66345  27.523  39.434   7.050
 9629POPC   C4B66346  27.511  39.420   7.350
 9630POPC   NC366347  23.721  42.381   5.550
 9630POPC   PO466348  23.706  42.322   5.850
 9630POPC   GL166349  23.730  42.357   6.150
 9630POPC   GL266350  23.703  42.426   6.150
 9630POPC   C1A66351  23.678  42.376   6.450
 9630POPC   D2A66352  23.676  42.302   6.750
 9630POPC   C3A66353  23.688  42.288   7.050
 9630POPC   C4A66354  23.706  42.354   7.350
 9630POPC   C1B66355  23.627  42.550   6.450
 9630POPC   C2B66356  23.635  42.597   6.750
 9630POPC   C3B66357  23.694  42.572   7.050
 9630POPC   C4B66358  23.682  42.535   7.350
 9631POPC   NC366359  26.801   3.503   5.550
 9631POPC   PO466360  26.854   3.516   5.850
 9631POPC   GL166361  26.800   3.531   6.150
 9631POPC   GL266362  26.913   3.681   6.150
 9631POPC   C1A66363  26.852   3.561   6.450
 9631POPC   D2A66364  26.787   3.569   6.750
 9631POPC   C3A66365  26.833   3.553   7.050
 9631POPC   C4A66366  26.799   3.498   7.350
 9631POPC   C1B66367  26.965   3.765   6.450
 9631POPC   C2B66368  26.958   3.754   6.750
 9631POPC   C3B66369  26.992   3.786   7.050
 9631POPC   C4B66370  26.899   3.756   7.350
 9632POPC   NC366371  26.079  37.699   5.550
 9632POPC   PO466372  26.037  37.676   5.850
 9632POPC   GL166373  26.079  37.661   6.150
 9632POPC   GL266374  26.035  37.830   6.150
 9632POPC   C1A66375  26.086  37.640   6.450
 9632POPC   D2A66376  26.057  37.719   6.750
 9632POPC   C3A66377  26.083  37.674   7.050
 9632POPC   C4A66378  26.082  37.647   7.350
 9632POPC   C1B66379  26.000  37.936   6.450
 9632POPC   C2B66380  25.991  37.881   6.750
 9632POPC   C3B66381  26.039  37.895   7.050
 9632POPC   C4B66382  25.986  37.929   7.350
 9633POPC   NC366383  21.418  18.298   5.550
 9633POPC   PO466384  21.386  18.259   5.850
 9633POPC   GL166385  21.349  18.260   6.150
 9633POPC   GL266386  21.389  18.410   6.150
 9633POPC   C1A66387  21.387  18.331   6.450
 9633POPC   D2A66388  21.359  18.241   6.750
 9633POPC   C3A66389  21.359  18.278   7.050
 9633POPC   C4A66390  21.423  18.311   7.350
 9633POPC   C1B66391  21.430  18.551   6.450
 9633POPC   C2B66392  21.406  18.488   6.750
 9633POPC   C3B66393  21.413  18.490   7.050
 9633POPC   C4B66394  21.483  18.489   7.350
 9634POPC   NC366395  36.934  12.112   5.550
 9634POPC   PO466396  36.871  12.079   5.850
 9634POPC   GL166397  36.901  12.112   6.150
 9634POPC   GL266398  36.953  11.929   6.150
 9634POPC   C1A66399  36.927  12.124   6.450
 9634POPC   D2A66400  36.945  12.117   6.750
 9634POPC   C3A66401  36.877  12.071   7.050
 9634POPC   C4A66402  36.910  12.092   7.350
 9634POPC   C1B66403  37.033  11.892   6.450
 9634POPC   C2B66404  37.035  11.892   6.750
 9634POPC   C3B66405  37.013  11.878   7.050
 9634POPC   C4B66406  37.005  11.914   7.350
 9635POPC   NC366407  15.972  40.042   5.550
 9635POPC   PO466408  15.959  39.984   5.850
 9635POPC   GL166409  15.964  40.042   6.150
 9635POPC   GL266410  16.035  40.054   6.150
 9635POPC   C1A66411  15.994  40.045   6.450
 9635POPC   D2A66412  15.985  39.999   6.750
 9635POPC   C3A66413  15.988  40.021   7.050
 9635POPC   C4A66414  15.963  40.048   7.350
 9635POPC   C1B66415  16.190  40.127   6.450
 9635POPC   C2B66416  16.136  40.101   6.750
 9635POPC   C3B66417  16.174  40.162   7.050
 9635POPC   C4B66418  16.110  40.108   7.350
 9636POPC   NC366419   3.507  23.739   5.550
 9636POPC   PO466420   3.520  23.731   5.850
 9636POPC   GL166421   3.560  23.712   6.150
 9636POPC   GL266422   3.684  23.702   6.150
 9636POPC   C1A66423   3.526  23.686   6.450
 9636POPC   D2A66424   3.586  23.715   6.750
 9636POPC   C3A66425   3.568  23.718   7.050
 9636POPC   C4A66426   3.536  23.753   7.350
 9636POPC   C1B66427   3.810  23.658   6.450
 9636POPC   C2B66428   3.780  23.654   6.750
 9636POPC   C3B66429   3.748  23.689   7.050
 9636POPC   C4B66430   3.750  23.677   7.350
 9637POPC   NC366431  34.598  22.950   5.550
 9637POPC   PO466432  34.607  22.942   5.850
 9637POPC   GL166433  34.619  22.970   6.150
 9637POPC   GL266434  34.566  22.837   6.150
 9637POPC   C1A66435  34.573  22.977   6.450
 9637POPC   D2A66436  34.541  22.933   6.750
 9637POPC   C3A66437  34.549  22.969   7.050
 9637POPC   C4A66438  34.553  22.913   7.350
 9637POPC   C1B66439  34.560  22.663   6.450
 9637POPC   C2B66440  34.524  22.654   6.750
 9637POPC   C3B66441  34.496  22.686   7.050
 9637POPC   C4B66442  34.510  22.733   7.350
 9638POPC   NC366443  39.967   1.958   5.550
 9638POPC   PO466444  39.973   1.957   5.850
 9638POPC   GL166445  39.976   1.992   6.150
 9638POPC   GL266446  39.834   2.017   6.150
 9638POPC   C1A66447  39.966   1.988   6.450
 9638POPC   D2A66448  39.980   2.021   6.750
 9638POPC   C3A66449  40.031   1.950   7.050
 9638POPC   C4A66450  39.982   1.990   7.350
 9638POPC   C1B66451  39.731   1.953   6.450
 9638POPC   C2B66452  39.723   1.998   6.750
 9638POPC   C3B66453  39.796   1.961   7.050
 9638POPC   C4B66454  39.781   1.961   7.350
 9639POPC   NC366455  12.094  37.689   5.550
 9639POPC   PO466456  12.103  37.650   5.850
 9639POPC   GL166457  12.042  37.680   6.150
 9639POPC   GL266458  12.027  37.823   6.150
 9639POPC   C1A66459  12.105  37.632   6.450
 9639POPC   D2A66460  12.081  37.723   6.750
 9639POPC   C3A66461  12.072  37.663   7.050
 9639POPC   C4A66462  12.033  37.697   7.350
 9639POPC   C1B66463  12.088  37.933   6.450
 9639POPC   C2B66464  12.025  37.925   6.750
 9639POPC   C3B66465  12.023  37.947   7.050
 9639POPC   C4B66466  12.040  37.972   7.350
 9640POPC   NC366467  19.793  33.750   5.550
 9640POPC   PO466468  19.882  33.850   5.850
 9640POPC   GL166469  19.883  33.792   6.150
 9640POPC   GL266470  19.756  33.824   6.150
 9640POPC   C1A66471  19.829  33.782   6.450
 9640POPC   D2A66472  19.789  33.824   6.750
 9640POPC   C3A66473  19.818  33.790   7.050
 9640POPC   C4A66474  19.816  33.849   7.350
 9640POPC   C1B66475  19.583  33.792   6.450
 9640POPC   C2B66476  19.589  33.720   6.750
 9640POPC   C3B66477  19.602  33.723   7.050
 9640POPC   C4B66478  19.589  33.747   7.350
 9641POPC   NC366479  38.467  43.130   5.550
 9641POPC   PO466480  38.503  43.075   5.850
 9641POPC   GL166481  38.486  43.106   6.150
 9641POPC   GL266482  38.475  43.250   6.150
 9641POPC   C1A66483  38.420  43.113   6.450
 9641POPC   D2A66484  38.410  43.115   6.750
 9641POPC   C3A66485  38.420  43.128   7.050
 9641POPC   C4A66486  38.439  43.137   7.350
 9641POPC   C1B66487  38.567  43.353   6.450
 9641POPC   C2B66488  38.548  43.325   6.750
 9641POPC   C3B66489  38.539  43.383   7.050
 9641POPC   C4B66490  38.593  43.361   7.350
 9642POPC   NC366491   9.768  24.451   5.550
 9642POPC   PO466492   9.797  24.499   5.850
 9642POPC   GL166493   9.705  24.463   6.150
 9642POPC   GL266494   9.759  24.587   6.150
 9642POPC   C1A66495   9.715  24.476   6.450
 9642POPC   D2A66496   9.702  24.441   6.750
 9642POPC   C3A66497   9.706  24.481   7.050
 9642POPC   C4A66498   9.717  24.539   7.350
 9642POPC   C1B66499   9.794  24.768   6.450
 9642POPC   C2B66500   9.808  24.744   6.750
 9642POPC   C3B66501   9.867  24.682   7.050
 9642POPC   C4B66502   9.783  24.719   7.350
 9643POPC   NC366503  33.072  13.582   5.550
 9643POPC   PO466504  32.976  13.592   5.850
 9643POPC   GL166505  33.072  13.666   6.150
 9643POPC   GL266506  33.094  13.468   6.150
 9643POPC   C1A66507  33.030  13.638   6.450
 9643POPC   D2A66508  33.020  13.593   6.750
 9643POPC   C3A66509  33.049  13.633   7.050
 9643POPC   C4A66510  32.991  13.638   7.350
 9643POPC   C1B66511  33.108  13.439   6.450
 9643POPC   C2B66512  33.138  13.440   6.750
 9643POPC   C3B66513  33.091  13.385   7.050
 9643POPC   C4B66514  33.123  13.360   7.350
 9644POPC   NC366515  33.006  11.277   5.550
 9644POPC   PO466516  33.035  11.330   5.850
 9644POPC   GL166517  33.010  11.252   6.150
 9644POPC   GL266518  32.876  11.269   6.150
 9644POPC   C1A66519  33.018  11.329   6.450
 9644POPC   D2A66520  32.990  11.277   6.750
 9644POPC   C3A66521  32.980  11.340   7.050
 9644POPC   C4A66522  33.064  11.292   7.350
 9644POPC   C1B66523  32.792  11.241   6.450
 9644POPC   C2B66524  32.758  11.265   6.750
 9644POPC   C3B66525  32.764  11.253   7.050
 9644POPC   C4B66526  32.806  11.320   7.350
 9645POPC   NC366527  20.587  43.111   5.550
 9645POPC   PO466528  20.579  43.076   5.850
 9645POPC   GL166529  20.603  43.109   6.150
 9645POPC   GL266530  20.747  43.008   6.150
 9645POPC   C1A66531  20.640  43.109   6.450
 9645POPC   D2A66532  20.575  43.111   6.750
 9645POPC   C3A66533  20.587  43.140   7.050
 9645POPC   C4A66534  20.629  43.115   7.350
 9645POPC   C1B66535  20.845  42.933   6.450
 9645POPC   C2B66536  20.779  42.901   6.750
 9645POPC   C3B66537  20.832  42.895   7.050
 9645POPC   C4B66538  20.841  42.895   7.350
 9646POPC   NC366539  24.532  26.833   5.550
 9646POPC   PO466540  24.493  26.825   5.850
 9646POPC   GL166541  24.491  26.768   6.150
 9646POPC   GL266542  24.437  26.905   6.150
 9646POPC   C1A66543  24.488  26.791   6.450
 9646POPC   D2A66544  24.491  26.783   6.750
 9646POPC   C3A66545  24.503  26.856   7.050
 9646POPC   C4A66546  24.509  26.799   7.350
 9646POPC   C1B66547  24.284  26.974   6.450
 9646POPC   C2B66548  24.326  27.016   6.750
 9646POPC   C3B66549  24.351  26.966   7.050
 9646POPC   C4B66550  24.337  27.024   7.350
 9647POPC   NC366551  36.945  37.648   5.550
 9647POPC   PO466552  36.944  37.663   5.850
 9647POPC   GL166553  36.933  37.678   6.150
 9647POPC   GL266554  36.910  37.805   6.150
 9647POPC   C1A66555  36.889  37.635   6.450
 9647POPC   D2A66556  36.908  37.644   6.750
 9647POPC   C3A66557  36.931  37.636   7.050
 9647POPC   C4A66558  36.910  37.729   7.350
 9647POPC   C1B66559  36.935  37.966   6.450
 9647POPC   C2B66560  36.911  37.885   6.750
 9647POPC   C3B66561  36.935  37.976   7.050
 9647POPC   C4B66562  36.922  37.928   7.350
 9648POPC   NC366563   0.473   5.876   5.550
 9648POPC   PO466564   0.395   5.890   5.850
 9648POPC   GL166565   0.447   5.847   6.150
 9648POPC   GL266566   0.362   5.822   6.150
 9648POPC   C1A66567   0.401   5.901   6.450
 9648POPC   D2A66568   0.463   5.844   6.750
 9648POPC   C3A66569   0.407   5.823   7.050
 9648POPC   C4A66570   0.396   5.891   7.350
 9648POPC   C1B66571   0.165   5.885   6.450
 9648POPC   C2B66572   0.206   5.866   6.750
 9648POPC   C3B66573   0.171   5.892   7.050
 9648POPC   C4B66574   0.236   5.856   7.350
 9649POPC   NC366575  25.275  13.653   5.550
 9649POPC   PO466576  25.266  13.603   5.850
 9649POPC   GL166577  25.297  13.587   6.150
 9649POPC   GL266578  25.188  13.595   6.150
 9649POPC   C1A66579  25.244  13.628   6.450
 9649POPC   D2A66580  25.300  13.674   6.750
 9649POPC   C3A66581  25.275  13.621   7.050
 9649POPC   C4A66582  25.292  13.603   7.350
 9649POPC   C1B66583  25.001  13.638   6.450
 9649POPC   C2B66584  24.971  13.633   6.750
 9649POPC   C3B66585  25.059  13.695   7.050
 9649POPC   C4B66586  24.991  13.692   7.350
 9650POPC   NC366587  29.962   9.764   5.550
 9650POPC   PO466588  29.937   9.701   5.850
 9650POPC   GL166589  29.913   9.758   6.150
 9650POPC   GL266590  29.783   9.662   6.150
 9650POPC   C1A66591  29.930   9.737   6.450
 9650POPC   D2A66592  29.939   9.745   6.750
 9650POPC   C3A66593  29.900   9.700   7.050
 9650POPC   C4A66594  29.900   9.721   7.350
 9650POPC   C1B66595  29.651   9.689   6.450
 9650POPC   C2B66596  29.666   9.633   6.750
 9650POPC   C3B66597  29.698   9.658   7.050
 9650POPC   C4B66598  29.739   9.597   7.350
 9651POPC   NC366599   6.668  27.615   5.550
 9651POPC   PO466600   6.604  27.626   5.850
 9651POPC   GL166601   6.627  27.641   6.150
 9651POPC   GL266602   6.586  27.751   6.150
 9651POPC   C1A66603   6.616  27.558   6.450
 9651POPC   D2A66604   6.629  27.585   6.750
 9651POPC   C3A66605   6.614  27.544   7.050
 9651POPC   C4A66606   6.674  27.617   7.350
 9651POPC   C1B66607   6.639  27.865   6.450
 9651POPC   C2B66608   6.604  27.832   6.750
 9651POPC   C3B66609   6.636  27.826   7.050
 9651POPC   C4B66610   6.651  27.838   7.350
 9652POPC   NC366611  40.810  19.850   5.550
 9652POPC   PO466612  40.808  19.798   5.850
 9652POPC   GL166613  40.761  19.786   6.150
 9652POPC   GL266614  40.849  19.994   6.150
 9652POPC   C1A66615  40.785  19.805   6.450
 9652POPC   D2A66616  40.770  19.785   6.750
 9652POPC   C3A66617  40.740  19.812   7.050
 9652POPC   C4A66618  40.743  19.838   7.350
 9652POPC   C1B66619  40.911  20.063   6.450
 9652POPC   C2B66620  40.874  20.047   6.750
 9652POPC   C3B66621  40.861  20.087   7.050
 9652POPC   C4B66622  40.893  20.068   7.350
 9653POPC   NC366623  25.251  43.103   5.550
 9653POPC   PO466624  25.226  43.066   5.850
 9653POPC   GL166625  25.251  43.152   6.150
 9653POPC   GL266626  25.326  43.201   6.150
 9653POPC   C1A66627  25.269  43.154   6.450
 9653POPC   D2A66628  25.276  43.100   6.750
 9653POPC   C3A66629  25.231  43.088   7.050
 9653POPC   C4A66630  25.230  43.077   7.350
 9653POPC   C1B66631  25.344  43.305   6.450
 9653POPC   C2B66632  25.378  43.309   6.750
 9653POPC   C3B66633  25.396  43.381   7.050
 9653POPC   C4B66634  25.338  43.365   7.350
 9654POPC   NC366635  12.807   9.772   5.550
 9654POPC   PO466636  12.862   9.738   5.850
 9654POPC   GL166637  12.802   9.718   6.150
 9654POPC   GL266638  12.768   9.766   6.150
 9654POPC   C1A66639  12.857   9.784   6.450
 9654POPC   D2A66640  12.812   9.755   6.750
 9654POPC   C3A66641  12.902   9.734   7.050
 9654POPC   C4A66642  12.861   9.705   7.350
 9654POPC   C1B66643  12.617   9.670   6.450
 9654POPC   C2B66644  12.580   9.746   6.750
 9654POPC   C3B66645  12.607   9.729   7.050
 9654POPC   C4B66646  12.580   9.656   7.350
 9655POPC   NC366647  12.898  38.493   5.550
 9655POPC   PO466648  12.890  38.491   5.850
 9655POPC   GL166649  12.872  38.484   6.150
 9655POPC   GL266650  12.848  38.547   6.150
 9655POPC   C1A66651  12.866  38.458   6.450
 9655POPC   D2A66652  12.877  38.488   6.750
 9655POPC   C3A66653  12.850  38.451   7.050
 9655POPC   C4A66654  12.839  38.502   7.350
 9655POPC   C1B66655  12.888  38.750   6.450
 9655POPC   C2B66656  12.887  38.746   6.750
 9655POPC   C3B66657  12.854  38.660   7.050
 9655POPC   C4B66658  12.885  38.743   7.350
 9656POPC   NC366659  40.748  26.771   5.550
 9656POPC   PO466660  40.786  26.787   5.850
 9656POPC   GL166661  40.759  26.789   6.150
 9656POPC   GL266662  40.657  26.859   6.150
 9656POPC   C1A66663  40.767  26.783   6.450
 9656POPC   D2A66664  40.790  26.798   6.750
 9656POPC   C3A66665  40.828  26.859   7.050
 9656POPC   C4A66666  40.756  26.850   7.350
 9656POPC   C1B66667  40.552  26.856   6.450
 9656POPC   C2B66668  40.584  26.856   6.750
 9656POPC   C3B66669  40.593  26.917   7.050
 9656POPC   C4B66670  40.530  26.879   7.350
 9657POPC   NC366671  20.604  13.677   5.550
 9657POPC   PO466672  20.645  13.630   5.850
 9657POPC   GL166673  20.592  13.586   6.150
 9657POPC   GL266674  20.451  13.676   6.150
 9657POPC   C1A66675  20.595  13.641   6.450
 9657POPC   D2A66676  20.598  13.667   6.750
 9657POPC   C3A66677  20.596  13.638   7.050
 9657POPC   C4A66678  20.641  13.650   7.350
 9657POPC   C1B66679  20.376  13.636   6.450
 9657POPC   C2B66680  20.385  13.631   6.750
 9657POPC   C3B66681  20.401  13.592   7.050
 9657POPC   C4B66682  20.358  13.663   7.350
 9658POPC   NC366683   2.721  28.390   5.550
 9658POPC   PO466684   2.753  28.324   5.850
 9658POPC   GL166685   2.803  28.395   6.150
 9658POPC   GL266686   2.908  28.333   6.150
 9658POPC   C1A66687   2.794  28.340   6.450
 9658POPC   D2A66688   2.722  28.341   6.750
 9658POPC   C3A66689   2.809  28.363   7.050
 9658POPC   C4A66690   2.753  28.395   7.350
 9658POPC   C1B66691   2.940  28.249   6.450
 9658POPC   C2B66692   2.991  28.217   6.750
 9658POPC   C3B66693   2.975  28.190   7.050
 9658POPC   C4B66694   2.958  28.270   7.350
 9659POPC   NC366695  27.635  25.300   5.550
 9659POPC   PO466696  27.625  25.250   5.850
 9659POPC   GL166697  27.573  25.254   6.150
 9659POPC   GL266698  27.517  25.201   6.150
 9659POPC   C1A66699  27.567  25.301   6.450
 9659POPC   D2A66700  27.598  25.288   6.750
 9659POPC   C3A66701  27.590  25.315   7.050
 9659POPC   C4A66702  27.585  25.276   7.350
 9659POPC   C1B66703  27.433  25.113   6.450
 9659POPC   C2B66704  27.392  25.073   6.750
 9659POPC   C3B66705  27.454  25.140   7.050
 9659POPC   C4B66706  27.445  25.084   7.350
 9660POPC   NC366707  27.611   2.740   5.550
 9660POPC   PO466708  27.600   2.730   5.850
 9660POPC   GL166709  27.545   2.763   6.150
 9660POPC   GL266710  27.755   2.826   6.150
 9660POPC   C1A66711  27.599   2.755   6.450
 9660POPC   D2A66712  27.610   2.798   6.750
 9660POPC   C3A66713  27.568   2.748   7.050
 9660POPC   C4A66714  27.576   2.807   7.350
 9660POPC   C1B66715  27.847   2.864   6.450
 9660POPC   C2B66716  27.795   2.797   6.750
 9660POPC   C3B66717  27.823   2.863   7.050
 9660POPC   C4B66718  27.806   2.826   7.350
 9661POPC   NC366719  12.038  41.510   5.550
 9661POPC   PO466720  12.100  41.530   5.850
 9661POPC   GL166721  12.082  41.576   6.150
 9661POPC   GL266722  12.073  41.650   6.150
 9661POPC   C1A66723  12.042  41.571   6.450
 9661POPC   D2A66724  12.102  41.510   6.750
 9661POPC   C3A66725  12.099  41.566   7.050
 9661POPC   C4A66726  12.065  41.592   7.350
 9661POPC   C1B66727  12.067  41.773   6.450
 9661POPC   C2B66728  12.071  41.853   6.750
 9661POPC   C3B66729  11.981  41.810   7.050
 9661POPC   C4B66730  12.051  41.802   7.350
 9662POPC   NC366731  41.598  29.178   5.550
 9662POPC   PO466732  41.524  29.149   5.850
 9662POPC   GL166733  41.547  29.149   6.150
 9662POPC   GL266734  41.637  29.212   6.150
 9662POPC   C1A66735  41.530  29.123   6.450
 9662POPC   D2A66736  41.566  29.179   6.750
 9662POPC   C3A66737  41.567  29.141   7.050
 9662POPC   C4A66738  41.585  29.117   7.350
 9662POPC   C1B66739  41.690  29.344   6.450
 9662POPC   C2B66740  41.624  29.369   6.750
 9662POPC   C3B66741  41.612  29.374   7.050
 9662POPC   C4B66742  41.635  29.346   7.350
 9663POPC   NC366743  43.931  22.135   5.550
 9663POPC   PO466744  43.929  22.211   5.850
 9663POPC   GL166745  43.887  22.112   6.150
 9663POPC   GL266746  43.992  22.061   6.150
 9663POPC   C1A66747  43.853  22.113   6.450
 9663POPC   D2A66748  43.878  22.168   6.750
 9663POPC   C3A66749  43.842  22.127   7.050
 9663POPC   C4A66750  43.920  22.139   7.350
 9663POPC   C1B66751  44.028  21.991   6.450
 9663POPC   C2B66752  44.025  21.929   6.750
 9663POPC   C3B66753  44.031  21.997   7.050
 9663POPC   C4B66754  44.059  22.008   7.350
 9664POPC   NC366755  14.359  14.432   5.550
 9664POPC   PO466756  14.424  14.386   5.850
 9664POPC   GL166757  14.437  14.422   6.150
 9664POPC   GL266758  14.447  14.537   6.150
 9664POPC   C1A66759  14.402  14.425   6.450
 9664POPC   D2A66760  14.383  14.379   6.750
 9664POPC   C3A66761  14.426  14.450   7.050
 9664POPC   C4A66762  14.371  14.364   7.350
 9664POPC   C1B66763  14.522  14.613   6.450
 9664POPC   C2B66764  14.460  14.671   6.750
 9664POPC   C3B66765  14.503  14.606   7.050
 9664POPC   C4B66766  14.491  14.606   7.350
 9665POPC   NC366767   1.991  35.326   5.550
 9665POPC   PO466768   1.990  35.381   5.850
 9665POPC   GL166769   1.998  35.339   6.150
 9665POPC   GL266770   1.945  35.434   6.150
 9665POPC   C1A66771   1.990  35.368   6.450
 9665POPC   D2A66772   1.980  35.366   6.750
 9665POPC   C3A66773   1.996  35.331   7.050
 9665POPC   C4A66774   1.996  35.394   7.350
 9665POPC   C1B66775   1.913  35.571   6.450
 9665POPC   C2B66776   1.864  35.531   6.750
 9665POPC   C3B66777   1.869  35.526   7.050
 9665POPC   C4B66778   1.838  35.548   7.350
 9666POPC   NC366779  29.184  11.319   5.550
 9666POPC   PO466780  29.165  11.280   5.850
 9666POPC   GL166781  29.118  11.311   6.150
 9666POPC   GL266782  29.260  11.444   6.150
 9666POPC   C1A66783  29.160  11.322   6.450
 9666POPC   D2A66784  29.185  11.279   6.750
 9666POPC   C3A66785  29.122  11.298   7.050
 9666POPC   C4A66786  29.154  11.293   7.350
 9666POPC   C1B66787  29.272  11.487   6.450
 9666POPC   C2B66788  29.271  11.481   6.750
 9666POPC   C3B66789  29.345  11.475   7.050
 9666POPC   C4B66790  29.323  11.497   7.350
 9667POPC   NC366791   9.737  20.619   5.550
 9667POPC   PO466792   9.715  20.567   5.850
 9667POPC   GL166793   9.728  20.587   6.150
 9667POPC   GL266794   9.784  20.753   6.150
 9667POPC   C1A66795   9.725  20.614   6.450
 9667POPC   D2A66796   9.729  20.579   6.750
 9667POPC   C3A66797   9.742  20.630   7.050
 9667POPC   C4A66798   9.715  20.660   7.350
 9667POPC   C1B66799   9.773  20.844   6.450
 9667POPC   C2B66800   9.787  20.841   6.750
 9667POPC   C3B66801   9.769  20.845   7.050
 9667POPC   C4B66802   9.799  20.874   7.350
 9668POPC   NC366803  30.715   8.185   5.550
 9668POPC   PO466804  30.735   8.171   5.850
 9668POPC   GL166805  30.687   8.229   6.150
 9668POPC   GL266806  30.656   8.089   6.150
 9668POPC   C1A66807  30.679   8.149   6.450
 9668POPC   D2A66808  30.678   8.240   6.750
 9668POPC   C3A66809  30.698   8.238   7.050
 9668POPC   C4A66810  30.664   8.180   7.350
 9668POPC   C1B66811  30.567   7.996   6.450
 9668POPC   C2B66812  30.529   8.014   6.750
 9668POPC   C3B66813  30.519   7.982   7.050
 9668POPC   C4B66814  30.544   7.998   7.350
 9669POPC   NC366815  10.503  29.154   5.550
 9669POPC   PO466816  10.527  29.174   5.850
 9669POPC   GL166817  10.487  29.104   6.150
 9669POPC   GL266818  10.458  29.258   6.150
 9669POPC   C1A66819  10.532  29.150   6.450
 9669POPC   D2A66820  10.530  29.128   6.750
 9669POPC   C3A66821  10.505  29.141   7.050
 9669POPC   C4A66822  10.506  29.121   7.350
 9669POPC   C1B66823  10.289  29.261   6.450
 9669POPC   C2B66824  10.371  29.261   6.750
 9669POPC   C3B66825  10.336  29.320   7.050
 9669POPC   C4B66826  10.339  29.306   7.350
 9670POPC   NC366827   9.701   2.777   5.550
 9670POPC   PO466828   9.746   2.728   5.850
 9670POPC   GL166829   9.727   2.758   6.150
 9670POPC   GL266830   9.862   2.785   6.150
 9670POPC   C1A66831   9.724   2.753   6.450
 9670POPC   D2A66832   9.777   2.757   6.750
 9670POPC   C3A66833   9.715   2.785   7.050
 9670POPC   C4A66834   9.797   2.774   7.350
 9670POPC   C1B66835  10.018   2.824   6.450
 9670POPC   C2B66836  10.017   2.833   6.750
 9670POPC   C3B66837   9.963   2.826   7.050
 9670POPC   C4B66838  10.010   2.768   7.350
 9671POPC   NC366839  10.503  11.274   5.550
 9671POPC   PO466840  10.475  11.339   5.850
 9671POPC   GL166841  10.543  11.313   6.150
 9671POPC   GL266842  10.393  11.231   6.150
 9671POPC   C1A66843  10.535  11.309   6.450
 9671POPC   D2A66844  10.547  11.274   6.750
 9671POPC   C3A66845  10.488  11.301   7.050
 9671POPC   C4A66846  10.498  11.314   7.350
 9671POPC   C1B66847  10.372  11.154   6.450
 9671POPC   C2B66848  10.342  11.112   6.750
 9671POPC   C3B66849  10.348  11.106   7.050
 9671POPC   C4B66850  10.360  11.174   7.350
 9672POPC   NC366851  12.035  13.582   5.550
 9672POPC   PO466852  12.032  13.631   5.850
 9672POPC   GL166853  12.104  13.627   6.150
 9672POPC   GL266854  12.143  13.497   6.150
 9672POPC   C1A66855  12.044  13.652   6.450
 9672POPC   D2A66856  12.122  13.607   6.750
 9672POPC   C3A66857  12.031  13.664   7.050
 9672POPC   C4A66858  12.090  13.630   7.350
 9672POPC   C1B66859  12.129  13.355   6.450
 9672POPC   C2B66860  12.134  13.416   6.750
 9672POPC   C3B66861  12.160  13.351   7.050
 9672POPC   C4B66862  12.142  13.424   7.350
 9673POPC   NC366863  19.849  20.645   5.550
 9673POPC   PO466864  19.810  20.586   5.850
 9673POPC   GL166865  19.799  20.614   6.150
 9673POPC   GL266866  19.801  20.690   6.150
 9673POPC   C1A66867  19.870  20.622   6.450
 9673POPC   D2A66868  19.858  20.605   6.750
 9673POPC   C3A66869  19.837  20.639   7.050
 9673POPC   C4A66870  19.860  20.573   7.350
 9673POPC   C1B66871  19.710  20.789   6.450
 9673POPC   C2B66872  19.656  20.791   6.750
 9673POPC   C3B66873  19.659  20.874   7.050
 9673POPC   C4B66874  19.681  20.823   7.350
 9674POPC   NC366875  16.685   2.022   5.550
 9674POPC   PO466876  16.697   1.941   5.850
 9674POPC   GL166877  16.690   1.980   6.150
 9674POPC   GL266878  16.692   1.911   6.150
 9674POPC   C1A66879  16.726   1.945   6.450
 9674POPC   D2A66880  16.748   2.016   6.750
 9674POPC   C3A66881  16.741   2.015   7.050
 9674POPC   C4A66882  16.726   2.023   7.350
 9674POPC   C1B66883  16.633   1.760   6.450
 9674POPC   C2B66884  16.663   1.787   6.750
 9674POPC   C3B66885  16.639   1.707   7.050
 9674POPC   C4B66886  16.669   1.796   7.350
 9675POPC   NC366887  30.701  32.980   5.550
 9675POPC   PO466888  30.680  32.998   5.850
 9675POPC   GL166889  30.691  33.047   6.150
 9675POPC   GL266890  30.614  32.954   6.150
 9675POPC   C1A66891  30.649  33.039   6.450
 9675POPC   D2A66892  30.654  33.028   6.750
 9675POPC   C3A66893  30.657  33.038   7.050
 9675POPC   C4A66894  30.688  32.996   7.350
 9675POPC   C1B66895  30.506  32.855   6.450
 9675POPC   C2B66896  30.576  32.889   6.750
 9675POPC   C3B66897  30.565  32.792   7.050
 9675POPC   C4B66898  30.507  32.824   7.350
 9676POPC   NC366899  12.047  15.195   5.550
 9676POPC   PO466900  12.087  15.165   5.850
 9676POPC   GL166901  12.087  15.220   6.150
 9676POPC   GL266902  11.945  15.252   6.150
 9676POPC   C1A66903  12.040  15.185   6.450
 9676POPC   D2A66904  12.051  15.221   6.750
 9676POPC   C3A66905  12.122  15.204   7.050
 9676POPC   C4A66906  12.117  15.141   7.350
 9676POPC   C1B66907  11.881  15.278   6.450
 9676POPC   C2B66908  11.853  15.207   6.750
 9676POPC   C3B66909  11.834  15.272   7.050
 9676POPC   C4B66910  11.840  15.238   7.350
 9677POPC   NC366911   9.756  36.078   5.550
 9677POPC   PO466912   9.762  36.165   5.850
 9677POPC   GL166913   9.720  36.169   6.150
 9677POPC   GL266914   9.716  36.279   6.150
 9677POPC   C1A66915   9.784  36.093   6.450
 9677POPC   D2A66916   9.795  36.113   6.750
 9677POPC   C3A66917   9.763  36.139   7.050
 9677POPC   C4A66918   9.710  36.149   7.350
 9677POPC   C1B66919   9.650  36.382   6.450
 9677POPC   C2B66920   9.669  36.324   6.750
 9677POPC   C3B66921   9.728  36.409   7.050
 9677POPC   C4B66922   9.716  36.363   7.350
 9678POPC   NC366923   4.293   2.804   5.550
 9678POPC   PO466924   4.273   2.806   5.850
 9678POPC   GL166925   4.297   2.815   6.150
 9678POPC   GL266926   4.420   2.799   6.150
 9678POPC   C1A66927   4.367   2.787   6.450
 9678POPC   D2A66928   4.299   2.813   6.750
 9678POPC   C3A66929   4.353   2.760   7.050
 9678POPC   C4A66930   4.318   2.812   7.350
 9678POPC   C1B66931   4.570   2.766   6.450
 9678POPC   C2B66932   4.579   2.738   6.750
 9678POPC   C3B66933   4.559   2.762   7.050
 9678POPC   C4B66934   4.564   2.727   7.350
 9679POPC   NC366935  30.682  10.480   5.550
 9679POPC   PO466936  30.658  10.538   5.850
 9679POPC   GL166937  30.738  10.521   6.150
 9679POPC   GL266938  30.647  10.405   6.150
 9679POPC   C1A66939  30.742  10.559   6.450
 9679POPC   D2A66940  30.653  10.487   6.750
 9679POPC   C3A66941  30.678  10.546   7.050
 9679POPC   C4A66942  30.692  10.561   7.350
 9679POPC   C1B66943  30.523  10.292   6.450
 9679POPC   C2B66944  30.566  10.271   6.750
 9679POPC   C3B66945  30.516  10.319   7.050
 9679POPC   C4B66946  30.587  10.357   7.350
 9680POPC   NC366947  40.054   6.635   5.550
 9680POPC   PO466948  39.969   6.647   5.850
 9680POPC   GL166949  39.988   6.650   6.150
 9680POPC   GL266950  39.865   6.676   6.150
 9680POPC   C1A66951  40.048   6.670   6.450
 9680POPC   D2A66952  39.988   6.613   6.750
 9680POPC   C3A66953  40.003   6.667   7.050
 9680POPC   C4A66954  39.979   6.637   7.350
 9680POPC   C1B66955  39.800   6.818   6.450
 9680POPC   C2B66956  39.764   6.818   6.750
 9680POPC   C3B66957  39.822   6.750   7.050
 9680POPC   C4B66958  39.839   6.797   7.350
 9681POPC   NC366959  23.716  16.712   5.550
 9681POPC   PO466960  23.683  16.727   5.850
 9681POPC   GL166961  23.702  16.777   6.150
 9681POPC   GL266962  23.654  16.621   6.150
 9681POPC   C1A66963  23.686  16.767   6.450
 9681POPC   D2A66964  23.763  16.724   6.750
 9681POPC   C3A66965  23.677  16.704   7.050
 9681POPC   C4A66966  23.671  16.698   7.350
 9681POPC   C1B66967  23.648  16.448   6.450
 9681POPC   C2B66968  23.649  16.444   6.750
 9681POPC   C3B66969  23.680  16.448   7.050
 9681POPC   C4B66970  23.688  16.536   7.350
 9682POPC   NC366971  26.858  35.319   5.550
 9682POPC   PO466972  26.811  35.306   5.850
 9682POPC   GL166973  26.858  35.331   6.150
 9682POPC   GL266974  26.826  35.515   6.150
 9682POPC   C1A66975  26.844  35.401   6.450
 9682POPC   D2A66976  26.841  35.310   6.750
 9682POPC   C3A66977  26.865  35.363   7.050
 9682POPC   C4A66978  26.832  35.342   7.350
 9682POPC   C1B66979  26.770  35.597   6.450
 9682POPC   C2B66980  26.801  35.618   6.750
 9682POPC   C3B66981  26.759  35.616   7.050
 9682POPC   C4B66982  26.716  35.634   7.350
 9683POPC   NC366983  15.216   1.246   5.550
 9683POPC   PO466984  15.176   1.167   5.850
 9683POPC   GL166985  15.190   1.184   6.150
 9683POPC   GL266986  15.222   1.069   6.150
 9683POPC   C1A66987  15.183   1.227   6.450
 9683POPC   D2A66988  15.226   1.179   6.750
 9683POPC   C3A66989  15.189   1.167   7.050
 9683POPC   C4A66990  15.131   1.210   7.350
 9683POPC   C1B66991  15.196   1.004   6.450
 9683POPC   C2B66992  15.249   0.997   6.750
 9683POPC   C3B66993  15.257   1.008   7.050
 9683POPC   C4B66994  15.184   0.989   7.350
 9684POPC   NC366995   5.133  26.850   5.550
 9684POPC   PO466996   5.071  26.837   5.850
 9684POPC   GL166997   5.070  26.831   6.150
 9684POPC   GL266998   5.174  26.669   6.150
 9684POPC   C1A66999   5.115  26.770   6.450
 9684POPC   D2A67000   5.070  26.849   6.750
 9684POPC   C3A67001   5.123  26.786   7.050
 9684POPC   C4A67002   5.139  26.824   7.350
 9684POPC   C1B67003   5.209  26.596   6.450
 9684POPC   C2B67004   5.186  26.599   6.750
 9684POPC   C3B67005   5.228  26.600   7.050
 9684POPC   C4B67006   5.203  26.631   7.350
 9685POPC   NC367007  12.090   5.115   5.550
 9685POPC   PO467008  12.076   5.096   5.850
 9685POPC   GL167009  12.091   5.116   6.150
 9685POPC   GL267010  12.076   4.978   6.150
 9685POPC   C1A67011  12.030   5.130   6.450
 9685POPC   D2A67012  12.108   5.070   6.750
 9685POPC   C3A67013  12.112   5.065   7.050
 9685POPC   C4A67014  12.042   5.097   7.350
 9685POPC   C1B67015  12.133   4.903   6.450
 9685POPC   C2B67016  12.116   4.860   6.750
 9685POPC   C3B67017  12.138   4.881   7.050
 9685POPC   C4B67018  12.206   4.887   7.350
 9686POPC   NC367019  18.310  39.983   5.550
 9686POPC   PO467020  18.327  39.974   5.850
 9686POPC   GL167021  18.287  40.046   6.150
 9686POPC   GL267022  18.207  39.961   6.150
 9686POPC   C1A67023  18.302  40.023   6.450
 9686POPC   D2A67024  18.271  39.990   6.750
 9686POPC   C3A67025  18.248  40.015   7.050
 9686POPC   C4A67026  18.267  39.986   7.350
 9686POPC   C1B67027  18.029  39.985   6.450
 9686POPC   C2B67028  18.031  40.000   6.750
 9686POPC   C3B67029  18.063  39.935   7.050
 9686POPC   C4B67030  18.055  40.005   7.350
 9687POPC   NC367031   6.654  41.583   5.550
 9687POPC   PO467032   6.641  41.552   5.850
 9687POPC   GL167033   6.692  41.580   6.150
 9687POPC   GL267034   6.655  41.722   6.150
 9687POPC   C1A67035   6.613  41.549   6.450
 9687POPC   D2A67036   6.670  41.561   6.750
 9687POPC   C3A67037   6.630  41.513   7.050
 9687POPC   C4A67038   6.652  41.541   7.350
 9687POPC   C1B67039   6.660  41.771   6.450
 9687POPC   C2B67040   6.688  41.836   6.750
 9687POPC   C3B67041   6.715  41.837   7.050
 9687POPC   C4B67042   6.682  41.833   7.350
 9688POPC   NC367043  37.724   4.353   5.550
 9688POPC   PO467044  37.641   4.281   5.850
 9688POPC   GL167045  37.706   4.339   6.150
 9688POPC   GL267046  37.791   4.369   6.150
 9688POPC   C1A67047  37.721   4.324   6.450
 9688POPC   D2A67048  37.713   4.280   6.750
 9688POPC   C3A67049  37.660   4.301   7.050
 9688POPC   C4A67050  37.674   4.342   7.350
 9688POPC   C1B67051  37.791   4.525   6.450
 9688POPC   C2B67052  37.803   4.519   6.750
 9688POPC   C3B67053  37.860   4.489   7.050
 9688POPC   C4B67054  37.844   4.472   7.350
 9689POPC   NC367055  11.259  35.308   5.550
 9689POPC   PO467056  11.296  35.334   5.850
 9689POPC   GL167057  11.291  35.333   6.150
 9689POPC   GL267058  11.282  35.210   6.150
 9689POPC   C1A67059  11.328  35.326   6.450
 9689POPC   D2A67060  11.278  35.324   6.750
 9689POPC   C3A67061  11.341  35.354   7.050
 9689POPC   C4A67062  11.306  35.334   7.350
 9689POPC   C1B67063  11.303  35.098   6.450
 9689POPC   C2B67064  11.296  35.145   6.750
 9689POPC   C3B67065  11.233  35.119   7.050
 9689POPC   C4B67066  11.245  35.102   7.350
 9690POPC   NC367067  19.845  37.696   5.550
 9690POPC   PO467068  19.828  37.633   5.850
 9690POPC   GL167069  19.793  37.727   6.150
 9690POPC   GL267070  19.916  37.697   6.150
 9690POPC   C1A67071  19.840  37.640   6.450
 9690POPC   D2A67072  19.876  37.664   6.750
 9690POPC   C3A67073  19.853  37.644   7.050
 9690POPC   C4A67074  19.867  37.685   7.350
 9690POPC   C1B67075  20.108  37.611   6.450
 9690POPC   C2B67076  20.078  37.594   6.750
 9690POPC   C3B67077  20.076  37.617   7.050
 9690POPC   C4B67078  20.056  37.664   7.350
 9691POPC   NC367079  12.894  12.824   5.550
 9691POPC   PO467080  12.863  12.860   5.850
 9691POPC   GL167081  12.867  12.829   6.150
 9691POPC   GL267082  12.767  12.836   6.150
 9691POPC   C1A67083  12.809  12.817   6.450
 9691POPC   D2A67084  12.889  12.878   6.750
 9691POPC   C3A67085  12.849  12.826   7.050
 9691POPC   C4A67086  12.862  12.846   7.350
 9691POPC   C1B67087  12.560  12.925   6.450
 9691POPC   C2B67088  12.555  12.851   6.750
 9691POPC   C3B67089  12.652  12.927   7.050
 9691POPC   C4B67090  12.645  12.853   7.350
 9692POPC   NC367091   9.732  31.431   5.550
 9692POPC   PO467092   9.792  31.463   5.850
 9692POPC   GL167093   9.769  31.508   6.150
 9692POPC   GL267094   9.845  31.391   6.150
 9692POPC   C1A67095   9.730  31.466   6.450
 9692POPC   D2A67096   9.709  31.480   6.750
 9692POPC   C3A67097   9.731  31.458   7.050
 9692POPC   C4A67098   9.748  31.507   7.350
 9692POPC   C1B67099   9.964  31.285   6.450
 9692POPC   C2B67100   9.922  31.365   6.750
 9692POPC   C3B67101   9.900  31.353   7.050
 9692POPC   C4B67102   9.922  31.295   7.350
 9693POPC   NC367103  12.054  33.798   5.550
 9693POPC   PO467104  12.029  33.817   5.850
 9693POPC   GL167105  12.107  33.805   6.150
 9693POPC   GL267106  12.174  33.901   6.150
 9693POPC   C1A67107  12.082  33.802   6.450
 9693POPC   D2A67108  12.037  33.808   6.750
 9693POPC   C3A67109  12.090  33.796   7.050
 9693POPC   C4A67110  12.112  33.756   7.350
 9693POPC   C1B67111  12.286  33.949   6.450
 9693POPC   C2B67112  12.212  33.968   6.750
 9693POPC   C3B67113  12.226  34.024   7.050
 9693POPC   C4B67114  12.228  33.990   7.350
 9694POPC   NC367115  12.068  22.977   5.550
 9694POPC   PO467116  12.124  22.959   5.850
 9694POPC   GL167117  12.106  22.921   6.150
 9694POPC   GL267118  12.136  23.094   6.150
 9694POPC   C1A67119  12.064  22.974   6.450
 9694POPC   D2A67120  12.121  22.916   6.750
 9694POPC   C3A67121  12.052  22.942   7.050
 9694POPC   C4A67122  12.067  22.982   7.350
 9694POPC   C1B67123  12.197  23.195   6.450
 9694POPC   C2B67124  12.147  23.162   6.750
 9694POPC   C3B67125  12.155  23.209   7.050
 9694POPC   C4B67126  12.145  23.131   7.350
 9695POPC   NC367127  31.497   7.374   5.550
 9695POPC   PO467128  31.443   7.441   5.850
 9695POPC   GL167129  31.428   7.419   6.150
 9695POPC   GL267130  31.401   7.519   6.150
 9695POPC   C1A67131  31.489   7.427   6.450
 9695POPC   D2A67132  31.509   7.382   6.750
 9695POPC   C3A67133  31.504   7.441   7.050
 9695POPC   C4A67134  31.461   7.450   7.350
 9695POPC   C1B67135  31.251   7.538   6.450
 9695POPC   C2B67136  31.299   7.585   6.750
 9695POPC   C3B67137  31.243   7.576   7.050
 9695POPC   C4B67138  31.300   7.572   7.350
 9696POPC   NC367139  19.880  14.358   5.550
 9696POPC   PO467140  19.863  14.438   5.850
 9696POPC   GL167141  19.799  14.400   6.150
 9696POPC   GL267142  19.700  14.462   6.150
 9696POPC   C1A67143  19.793  14.450   6.450
 9696POPC   D2A67144  19.797  14.360   6.750
 9696POPC   C3A67145  19.823  14.381   7.050
 9696POPC   C4A67146  19.787  14.372   7.350
 9696POPC   C1B67147  19.655  14.528   6.450
 9696POPC   C2B67148  19.647  14.603   6.750
 9696POPC   C3B67149  19.678  14.597   7.050
 9696POPC   C4B67150  19.681  14.587   7.350
 9697POPC   NC367151  15.974  29.108   5.550
 9697POPC   PO467152  15.910  29.177   5.850
 9697POPC   GL167153  15.970  29.127   6.150
 9697POPC   GL267154  16.045  29.075   6.150
 9697POPC   C1A67155  15.917  29.193   6.450
 9697POPC   D2A67156  15.941  29.175   6.750
 9697POPC   C3A67157  15.990  29.121   7.050
 9697POPC   C4A67158  15.928  29.119   7.350
 9697POPC   C1B67159  16.104  28.928   6.450
 9697POPC   C2B67160  16.107  28.966   6.750
 9697POPC   C3B67161  16.087  28.955   7.050
 9697POPC   C4B67162  16.100  28.916   7.350
 9698POPC   NC367163  43.867  35.329   5.550
 9698POPC   PO467164  43.874  35.335   5.850
 9698POPC   GL167165  43.911  35.312   6.150
 9698POPC   GL267166  43.819  35.424   6.150
 9698POPC   C1A67167  43.875  35.337   6.450
 9698POPC   D2A67168  43.900  35.316   6.750
 9698POPC   C3A67169  43.895  35.337   7.050
 9698POPC   C4A67170  43.870  35.335   7.350
 9698POPC   C1B67171  43.685  35.442   6.450
 9698POPC   C2B67172  43.688  35.459   6.750
 9698POPC   C3B67173  43.712  35.536   7.050
 9698POPC   C4B67174  43.694  35.458   7.350
 9699POPC   NC367175  40.739  27.625   5.550
 9699POPC   PO467176  40.751  27.601   5.850
 9699POPC   GL167177  40.764  27.546   6.150
 9699POPC   GL267178  40.849  27.464   6.150
 9699POPC   C1A67179  40.765  27.566   6.450
 9699POPC   D2A67180  40.796  27.635   6.750
 9699POPC   C3A67181  40.803  27.564   7.050
 9699POPC   C4A67182  40.810  27.553   7.350
 9699POPC   C1B67183  40.876  27.376   6.450
 9699POPC   C2B67184  40.806  27.399   6.750
 9699POPC   C3B67185  40.840  27.333   7.050
 9699POPC   C4B67186  40.818  27.307   7.350
 9700POPC   NC367187  36.912  20.627   5.550
 9700POPC   PO467188  36.897  20.573   5.850
 9700POPC   GL167189  36.932  20.617   6.150
 9700POPC   GL267190  37.007  20.715   6.150
 9700POPC   C1A67191  36.901  20.609   6.450
 9700POPC   D2A67192  36.892  20.597   6.750
 9700POPC   C3A67193  36.927  20.629   7.050
 9700POPC   C4A67194  36.883  20.614   7.350
 9700POPC   C1B67195  37.044  20.740   6.450
 9700POPC   C2B67196  37.119  20.771   6.750
 9700POPC   C3B67197  37.054  20.816   7.050
 9700POPC   C4B67198  37.134  20.742   7.350
 9701POPC   NC367199   1.959  19.848   5.550
 9701POPC   PO467200   1.989  19.785   5.850
 9701POPC   GL167201   1.941  19.874   6.150
 9701POPC   GL267202   1.975  19.668   6.150
 9701POPC   C1A67203   1.947  19.845   6.450
 9701POPC   D2A67204   1.965  19.807   6.750
 9701POPC   C3A67205   2.034  19.848   7.050
 9701POPC   C4A67206   2.017  19.875   7.350
 9701POPC   C1B67207   2.052  19.553   6.450
 9701POPC   C2B67208   2.067  19.568   6.750
 9701POPC   C3B67209   2.029  19.559   7.050
 9701POPC   C4B67210   2.050  19.596   7.350
 9702POPC   NC367211   8.186   5.875   5.550
 9702POPC   PO467212   8.183   5.850   5.850
 9702POPC   GL167213   8.190   5.849   6.150
 9702POPC   GL267214   8.277   5.956   6.150
 9702POPC   C1A67215   8.158   5.885   6.450
 9702POPC   D2A67216   8.246   5.901   6.750
 9702POPC   C3A67217   8.169   5.883   7.050
 9702POPC   C4A67218   8.232   5.838   7.350
 9702POPC   C1B67219   8.357   5.989   6.450
 9702POPC   C2B67220   8.410   5.977   6.750
 9702POPC   C3B67221   8.343   6.011   7.050
 9702POPC   C4B67222   8.395   6.018   7.350
 9703POPC   NC367223  26.795  21.339   5.550
 9703POPC   PO467224  26.786  21.363   5.850
 9703POPC   GL167225  26.784  21.413   6.150
 9703POPC   GL267226  26.914  21.261   6.150
 9703POPC   C1A67227  26.812  21.375   6.450
 9703POPC   D2A67228  26.769  21.342   6.750
 9703POPC   C3A67229  26.790  21.419   7.050
 9703POPC   C4A67230  26.772  21.434   7.350
 9703POPC   C1B67231  26.974  21.148   6.450
 9703POPC   C2B67232  26.912  21.151   6.750
 9703POPC   C3B67233  26.971  21.204   7.050
 9703POPC   C4B67234  26.923  21.140   7.350
 9704POPC   NC367235   3.580  36.085   5.550
 9704POPC   PO467236   3.547  36.096   5.850
 9704POPC   GL167237   3.548  36.137   6.150
 9704POPC   GL267238   3.531  35.982   6.150
 9704POPC   C1A67239   3.529  36.117   6.450
 9704POPC   D2A67240   3.576  36.121   6.750
 9704POPC   C3A67241   3.561  36.155   7.050
 9704POPC   C4A67242   3.561  36.089   7.350
 9704POPC   C1B67243   3.598  35.885   6.450
 9704POPC   C2B67244   3.655  35.899   6.750
 9704POPC   C3B67245   3.581  35.886   7.050
 9704POPC   C4B67246   3.645  35.907   7.350
 9705POPC   NC367247  44.710  12.113   5.550
 9705POPC   PO467248  44.616  12.074   5.850
 9705POPC   GL167249  44.659  12.104   6.150
 9705POPC   GL267250  44.612  12.178   6.150
 9705POPC   C1A67251  44.635  12.056   6.450
 9705POPC   D2A67252  44.678  12.108   6.750
 9705POPC   C3A67253  44.613  12.116   7.050
 9705POPC   C4A67254  44.651  12.119   7.350
 9705POPC   C1B67255  44.633  12.271   6.450
 9705POPC   C2B67256  44.640  12.301   6.750
 9705POPC   C3B67257  44.561  12.325   7.050
 9705POPC   C4B67258  44.544  12.338   7.350
 9706POPC   NC367259   5.845  36.165   5.550
 9706POPC   PO467260   5.909  36.079   5.850
 9706POPC   GL167261   5.825  36.150   6.150
 9706POPC   GL267262   5.954  36.283   6.150
 9706POPC   C1A67263   5.895  36.165   6.450
 9706POPC   D2A67264   5.874  36.114   6.750
 9706POPC   C3A67265   5.888  36.137   7.050
 9706POPC   C4A67266   5.844  36.111   7.350
 9706POPC   C1B67267   5.939  36.318   6.450
 9706POPC   C2B67268   5.936  36.340   6.750
 9706POPC   C3B67269   5.987  36.311   7.050
 9706POPC   C4B67270   5.998  36.388   7.350
 9707POPC   NC367271  14.431  37.719   5.550
 9707POPC   PO467272  14.365  37.714   5.850
 9707POPC   GL167273  14.410  37.686   6.150
 9707POPC   GL267274  14.466  37.789   6.150
 9707POPC   C1A67275  14.425  37.665   6.450
 9707POPC   D2A67276  14.383  37.651   6.750
 9707POPC   C3A67277  14.440  37.664   7.050
 9707POPC   C4A67278  14.427  37.693   7.350
 9707POPC   C1B67279  14.531  37.903   6.450
 9707POPC   C2B67280  14.551  37.843   6.750
 9707POPC   C3B67281  14.538  37.936   7.050
 9707POPC   C4B67282  14.490  37.908   7.350
 9708POPC   NC367283   7.399   0.462   5.550
 9708POPC   PO467284   7.453   0.461   5.850
 9708POPC   GL167285   7.433   0.394   6.150
 9708POPC   GL267286   7.511   0.436   6.150
 9708POPC   C1A67287   7.375   0.449   6.450
 9708POPC   D2A67288   7.447   0.483   6.750
 9708POPC   C3A67289   7.395   0.437   7.050
 9708POPC   C4A67290   7.407   0.408   7.350
 9708POPC   C1B67291   7.693   0.466   6.450
 9708POPC   C2B67292   7.678   0.420   6.750
 9708POPC   C3B67293   7.696   0.442   7.050
 9708POPC   C4B67294   7.626   0.447   7.350
 9709POPC   NC367295  21.400  33.016   5.550
 9709POPC   PO467296  21.433  33.008   5.850
 9709POPC   GL167297  21.391  33.041   6.150
 9709POPC   GL267298  21.290  33.177   6.150
 9709POPC   C1A67299  21.342  32.998   6.450
 9709POPC   D2A67300  21.435  32.997   6.750
 9709POPC   C3A67301  21.392  33.042   7.050
 9709POPC   C4A67302  21.409  33.056   7.350
 9709POPC   C1B67303  21.258  33.219   6.450
 9709POPC   C2B67304  21.264  33.296   6.750
 9709POPC   C3B67305  21.272  33.218   7.050
 9709POPC   C4B67306  21.267  33.253   7.350
 9710POPC   NC367307  28.363   5.114   5.550
 9710POPC   PO467308  28.417   5.051   5.850
 9710POPC   GL167309  28.354   5.103   6.150
 9710POPC   GL267310  28.214   5.128   6.150
 9710POPC   C1A67311  28.389   5.083   6.450
 9710POPC   D2A67312  28.405   5.085   6.750
 9710POPC   C3A67313  28.324   5.085   7.050
 9710POPC   C4A67314  28.330   5.069   7.350
 9710POPC   C1B67315  28.174   5.179   6.450
 9710POPC   C2B67316  28.093   5.218   6.750
 9710POPC   C3B67317  28.102   5.208   7.050
 9710POPC   C4B67318  28.156   5.140   7.350
 9711POPC   NC367319  26.821   1.954   5.550
 9711POPC   PO467320  26.843   2.001   5.850
 9711POPC   GL167321  26.796   2.035   6.150
 9711POPC   GL267322  26.730   2.026   6.150
 9711POPC   C1A67323  26.790   1.950   6.450
 9711POPC   D2A67324  26.826   2.018   6.750
 9711POPC   C3A67325  26.839   1.978   7.050
 9711POPC   C4A67326  26.811   1.947   7.350
 9711POPC   C1B67327  26.541   2.000   6.450
 9711POPC   C2B67328  26.531   2.020   6.750
 9711POPC   C3B67329  26.520   1.974   7.050
 9711POPC   C4B67330  26.603   1.966   7.350
 9712POPC   NC367331  29.108   3.544   5.550
 9712POPC   PO467332  29.139   3.502   5.850
 9712POPC   GL167333  29.140   3.579   6.150
 9712POPC   GL267334  29.245   3.653   6.150
 9712POPC   C1A67335  29.108   3.514   6.450
 9712POPC   D2A67336  29.189   3.501   6.750
 9712POPC   C3A67337  29.147   3.513   7.050
 9712POPC   C4A67338  29.156   3.541   7.350
 9712POPC   C1B67339  29.379   3.665   6.450
 9712POPC   C2B67340  29.383   3.696   6.750
 9712POPC   C3B67341  29.360   3.725   7.050
 9712POPC   C4B67342  29.295   3.751   7.350
 9713POPC   NC367343   5.826  26.859   5.550
 9713POPC   PO467344   5.827  26.853   5.850
 9713POPC   GL167345   5.833  26.804   6.150
 9713POPC   GL267346   5.813  26.919   6.150
 9713POPC   C1A67347   5.896  26.783   6.450
 9713POPC   D2A67348   5.869  26.803   6.750
 9713POPC   C3A67349   5.857  26.789   7.050
 9713POPC   C4A67350   5.849  26.797   7.350
 9713POPC   C1B67351   5.783  27.039   6.450
 9713POPC   C2B67352   5.792  27.048   6.750
 9713POPC   C3B67353   5.742  27.061   7.050
 9713POPC   C4B67354   5.742  27.036   7.350
 9714POPC   NC367355  29.153  37.707   5.550
 9714POPC   PO467356  29.139  37.694   5.850
 9714POPC   GL167357  29.113  37.663   6.150
 9714POPC   GL267358  29.294  37.774   6.150
 9714POPC   C1A67359  29.165  37.657   6.450
 9714POPC   D2A67360  29.183  37.632   6.750
 9714POPC   C3A67361  29.114  37.654   7.050
 9714POPC   C4A67362  29.180  37.667   7.350
 9714POPC   C1B67363  29.357  37.766   6.450
 9714POPC   C2B67364  29.342  37.844   6.750
 9714POPC   C3B67365  29.398  37.833   7.050
 9714POPC   C4B67366  29.398  37.805   7.350
 9715POPC   NC367367  36.924  11.255   5.550
 9715POPC   PO467368  36.934  11.343   5.850
 9715POPC   GL167369  36.893  11.252   6.150
 9715POPC   GL267370  36.749  11.238   6.150
 9715POPC   C1A67371  36.947  11.277   6.450
 9715POPC   D2A67372  36.874  11.271   6.750
 9715POPC   C3A67373  36.866  11.289   7.050
 9715POPC   C4A67374  36.934  11.278   7.350
 9715POPC   C1B67375  36.700  11.196   6.450
 9715POPC   C2B67376  36.684  11.222   6.750
 9715POPC   C3B67377  36.693  11.244   7.050
 9715POPC   C4B67378  36.669  11.278   7.350
 9716POPC   NC367379  10.493  10.505   5.550
 9716POPC   PO467380  10.558  10.567   5.850
 9716POPC   GL167381  10.551  10.550   6.150
 9716POPC   GL267382  10.685  10.610   6.150
 9716POPC   C1A67383  10.502  10.534   6.450
 9716POPC   D2A67384  10.564  10.525   6.750
 9716POPC   C3A67385  10.536  10.553   7.050
 9716POPC   C4A67386  10.531  10.489   7.350
 9716POPC   C1B67387  10.769  10.634   6.450
 9716POPC   C2B67388  10.745  10.648   6.750
 9716POPC   C3B67389  10.766  10.577   7.050
 9716POPC   C4B67390  10.729  10.612   7.350
 9717POPC   NC367391  43.113   3.551   5.550
 9717POPC   PO467392  43.094   3.524   5.850
 9717POPC   GL167393  43.116   3.518   6.150
 9717POPC   GL267394  43.000   3.420   6.150
 9717POPC   C1A67395  43.106   3.525   6.450
 9717POPC   D2A67396  43.065   3.525   6.750
 9717POPC   C3A67397  43.152   3.542   7.050
 9717POPC   C4A67398  43.067   3.555   7.350
 9717POPC   C1B67399  42.954   3.359   6.450
 9717POPC   C2B67400  43.013   3.286   6.750
 9717POPC   C3B67401  43.029   3.374   7.050
 9717POPC   C4B67402  42.983   3.328   7.350
 9718POPC   NC367403  29.142   1.971   5.550
 9718POPC   PO467404  29.142   2.023   5.850
 9718POPC   GL167405  29.153   1.941   6.150
 9718POPC   GL267406  29.170   1.861   6.150
 9718POPC   C1A67407  29.096   1.984   6.450
 9718POPC   D2A67408  29.191   1.981   6.750
 9718POPC   C3A67409  29.150   1.958   7.050
 9718POPC   C4A67410  29.147   1.972   7.350
 9718POPC   C1B67411  29.245   1.792   6.450
 9718POPC   C2B67412  29.294   1.785   6.750
 9718POPC   C3B67413  29.264   1.782   7.050
 9718POPC   C4B67414  29.256   1.784   7.350
 9719POPC   NC367415   4.303  26.807   5.550
 9719POPC   PO467416   4.277  26.773   5.850
 9719POPC   GL167417   4.339  26.817   6.150
 9719POPC   GL267418   4.334  26.699   6.150
 9719POPC   C1A67419   4.343  26.790   6.450
 9719POPC   D2A67420   4.346  26.839   6.750
 9719POPC   C3A67421   4.312  26.791   7.050
 9719POPC   C4A67422   4.340  26.843   7.350
 9719POPC   C1B67423   4.427  26.621   6.450
 9719POPC   C2B67424   4.386  26.610   6.750
 9719POPC   C3B67425   4.413  26.558   7.050
 9719POPC   C4B67426   4.377  26.588   7.350
 9720POPC   NC367427  36.869  29.888   5.550
 9720POPC   PO467428  36.917  29.925   5.850
 9720POPC   GL167429  36.875  29.894   6.150
 9720POPC   GL267430  36.933  30.048   6.150
 9720POPC   C1A67431  36.929  29.914   6.450
 9720POPC   D2A67432  36.949  29.915   6.750
 9720POPC   C3A67433  36.922  29.896   7.050
 9720POPC   C4A67434  36.920  29.873   7.350
 9720POPC   C1B67435  37.037  30.129   6.450
 9720POPC   C2B67436  37.041  30.158   6.750
 9720POPC   C3B67437  36.961  30.136   7.050
 9720POPC   C4B67438  37.055  30.167   7.350
 9721POPC   NC367439  18.332  39.270   5.550
 9721POPC   PO467440  18.327  39.238   5.850
 9721POPC   GL167441  18.272  39.258   6.150
 9721POPC   GL267442  18.243  39.311   6.150
 9721POPC   C1A67443  18.326  39.187   6.450
 9721POPC   D2A67444  18.298  39.274   6.750
 9721POPC   C3A67445  18.260  39.204   7.050
 9721POPC   C4A67446  18.280  39.215   7.350
 9721POPC   C1B67447  18.212  39.473   6.450
 9721POPC   C2B67448  18.251  39.444   6.750
 9721POPC   C3B67449  18.238  39.433   7.050
 9721POPC   C4B67450  18.227  39.429   7.350
 9722POPC   NC367451  12.840   8.938   5.550
 9722POPC   PO467452  12.865   8.965   5.850
 9722POPC   GL167453  12.846   9.019   6.150
 9722POPC   GL267454  12.983   8.991   6.150
 9722POPC   C1A67455  12.829   8.946   6.450
 9722POPC   D2A67456  12.806   8.982   6.750
 9722POPC   C3A67457  12.877   9.016   7.050
 9722POPC   C4A67458  12.854   8.929   7.350
 9722POPC   C1B67459  13.132   8.883   6.450
 9722POPC   C2B67460  13.075   8.923   6.750
 9722POPC   C3B67461  13.060   8.875   7.050
 9722POPC   C4B67462  13.121   8.868   7.350
 9723POPC   NC367463   2.721  18.240   5.550
 9723POPC   PO467464   2.799  18.306   5.850
 9723POPC   GL167465   2.807  18.233   6.150
 9723POPC   GL267466   2.843  18.184   6.150
 9723POPC   C1A67467   2.720  18.323   6.450
 9723POPC   D2A67468   2.781  18.241   6.750
 9723POPC   C3A67469   2.799  18.278   7.050
 9723POPC   C4A67470   2.774  18.315   7.350
 9723POPC   C1B67471   2.964  18.072   6.450
 9723POPC   C2B67472   2.903  18.114   6.750
 9723POPC   C3B67473   2.915  18.091   7.050
 9723POPC   C4B67474   2.949  18.126   7.350
 9724POPC   NC367475  32.254   8.963   5.550
 9724POPC   PO467476  32.250   9.013   5.850
 9724POPC   GL167477  32.298   8.979   6.150
 9724POPC   GL267478  32.166   9.112   6.150
 9724POPC   C1A67479  32.288   8.955   6.450
 9724POPC   D2A67480  32.285   8.975   6.750
 9724POPC   C3A67481  32.205   8.952   7.050
 9724POPC   C4A67482  32.247   8.993   7.350
 9724POPC   C1B67483  32.103   9.231   6.450
 9724POPC   C2B67484  32.120   9.194   6.750
 9724POPC   C3B67485  32.112   9.207   7.050
 9724POPC   C4B67486  32.132   9.151   7.350
 9725POPC   NC367487  18.326   3.551   5.550
 9725POPC   PO467488  18.331   3.544   5.850
 9725POPC   GL167489  18.279   3.555   6.150
 9725POPC   GL267490  18.317   3.637   6.150
 9725POPC   C1A67491  18.327   3.540   6.450
 9725POPC   D2A67492  18.286   3.555   6.750
 9725POPC   C3A67493  18.304   3.518   7.050
 9725POPC   C4A67494  18.324   3.531   7.350
 9725POPC   C1B67495  18.269   3.817   6.450
 9725POPC   C2B67496  18.272   3.831   6.750
 9725POPC   C3B67497  18.268   3.746   7.050
 9725POPC   C4B67498  18.252   3.792   7.350
 9726POPC   NC367499   4.341  39.963   5.550
 9726POPC   PO467500   4.283  39.985   5.850
 9726POPC   GL167501   4.280  39.960   6.150
 9726POPC   GL267502   4.344  39.898   6.150
 9726POPC   C1A67503   4.327  40.054   6.450
 9726POPC   D2A67504   4.327  40.001   6.750
 9726POPC   C3A67505   4.324  40.010   7.050
 9726POPC   C4A67506   4.366  40.029   7.350
 9726POPC   C1B67507   4.335  39.767   6.450
 9726POPC   C2B67508   4.329  39.773   6.750
 9726POPC   C3B67509   4.320  39.768   7.050
 9726POPC   C4B67510   4.347  39.759   7.350
 9727POPC   NC367511  16.004   3.521   5.550
 9727POPC   PO467512  15.979   3.535   5.850
 9727POPC   GL167513  16.003   3.494   6.150
 9727POPC   GL267514  16.060   3.429   6.150
 9727POPC   C1A67515  15.961   3.523   6.450
 9727POPC   D2A67516  15.912   3.548   6.750
 9727POPC   C3A67517  15.942   3.527   7.050
 9727POPC   C4A67518  15.932   3.532   7.350
 9727POPC   C1B67519  16.107   3.370   6.450
 9727POPC   C2B67520  16.125   3.320   6.750
 9727POPC   C3B67521  16.104   3.346   7.050
 9727POPC   C4B67522  16.122   3.364   7.350
 9728POPC   NC367523   2.734  42.314   5.550
 9728POPC   PO467524   2.811  42.382   5.850
 9728POPC   GL167525   2.729  42.366   6.150
 9728POPC   GL267526   2.848  42.264   6.150
 9728POPC   C1A67527   2.766  42.327   6.450
 9728POPC   D2A67528   2.783  42.373   6.750
 9728POPC   C3A67529   2.784  42.355   7.050
 9728POPC   C4A67530   2.811  42.336   7.350
 9728POPC   C1B67531   2.922  42.125   6.450
 9728POPC   C2B67532   2.922  42.157   6.750
 9728POPC   C3B67533   2.869  42.109   7.050
 9728POPC   C4B67534   2.935  42.135   7.350
 9729POPC   NC367535  23.754  26.854   5.550
 9729POPC   PO467536  23.726  26.818   5.850
 9729POPC   GL167537  23.685  26.859   6.150
 9729POPC   GL267538  23.602  26.731   6.150
 9729POPC   C1A67539  23.699  26.862   6.450
 9729POPC   D2A67540  23.744  26.831   6.750
 9729POPC   C3A67541  23.712  26.819   7.050
 9729POPC   C4A67542  23.722  26.816   7.350
 9729POPC   C1B67543  23.533  26.739   6.450
 9729POPC   C2B67544  23.526  26.735   6.750
 9729POPC   C3B67545  23.444  26.671   7.050
 9729POPC   C4B67546  23.469  26.702   7.350
 9730POPC   NC367547  41.582  42.344   5.550
 9730POPC   PO467548  41.543  42.330   5.850
 9730POPC   GL167549  41.534  42.291   6.150
 9730POPC   GL267550  41.623  42.387   6.150
 9730POPC   C1A67551  41.575  42.364   6.450
 9730POPC   D2A67552  41.563  42.361   6.750
 9730POPC   C3A67553  41.558  42.299   7.050
 9730POPC   C4A67554  41.535  42.337   7.350
 9730POPC   C1B67555  41.804  42.417   6.450
 9730POPC   C2B67556  41.766  42.398   6.750
 9730POPC   C3B67557  41.761  42.449   7.050
 9730POPC   C4B67558  41.807  42.444   7.350
 9731POPC   NC367559  29.139  16.711   5.550
 9731POPC   PO467560  29.136  16.700   5.850
 9731POPC   GL167561  29.113  16.772   6.150
 9731POPC   GL267562  29.298  16.814   6.150
 9731POPC   C1A67563  29.141  16.704   6.450
 9731POPC   D2A67564  29.129  16.724   6.750
 9731POPC   C3A67565  29.179  16.693   7.050
 9731POPC   C4A67566  29.106  16.764   7.350
 9731POPC   C1B67567  29.398  16.761   6.450
 9731POPC   C2B67568  29.411  16.841   6.750
 9731POPC   C3B67569  29.411  16.802   7.050
 9731POPC   C4B67570  29.422  16.772   7.350
 9732POPC   NC367571  29.924   1.225   5.550
 9732POPC   PO467572  29.923   1.240   5.850
 9732POPC   GL167573  29.956   1.247   6.150
 9732POPC   GL267574  30.041   1.318   6.150
 9732POPC   C1A67575  29.945   1.258   6.450
 9732POPC   D2A67576  29.957   1.186   6.750
 9732POPC   C3A67577  29.908   1.182   7.050
 9732POPC   C4A67578  29.880   1.226   7.350
 9732POPC   C1B67579  30.096   1.368   6.450
 9732POPC   C2B67580  30.147   1.326   6.750
 9732POPC   C3B67581  30.163   1.381   7.050
 9732POPC   C4B67582  30.144   1.365   7.350
 9733POPC   NC367583  10.572  33.014   5.550
 9733POPC   PO467584  10.519  32.974   5.850
 9733POPC   GL167585  10.477  33.026   6.150
 9733POPC   GL267586  10.446  33.120   6.150
 9733POPC   C1A67587  10.495  33.051   6.450
 9733POPC   D2A67588  10.503  33.057   6.750
 9733POPC   C3A67589  10.560  33.029   7.050
 9733POPC   C4A67590  10.560  32.991   7.350
 9733POPC   C1B67591  10.454  33.249   6.450
 9733POPC   C2B67592  10.378  33.206   6.750
 9733POPC   C3B67593  10.425  33.234   7.050
 9733POPC   C4B67594  10.407  33.261   7.350
 9734POPC   NC367595   1.961   2.779   5.550
 9734POPC   PO467596   2.031   2.736   5.850
 9734POPC   GL167597   2.001   2.784   6.150
 9734POPC   GL267598   1.883   2.705   6.150
 9734POPC   C1A67599   1.983   2.741   6.450
 9734POPC   D2A67600   1.951   2.808   6.750
 9734POPC   C3A67601   1.961   2.792   7.050
 9734POPC   C4A67602   1.940   2.749   7.350
 9734POPC   C1B67603   1.839   2.586   6.450
 9734POPC   C2B67604   1.778   2.634   6.750
 9734POPC   C3B67605   1.824   2.630   7.050
 9734POPC   C4B67606   1.815   2.581   7.350
 9735POPC   NC367607  36.108  15.183   5.550
 9735POPC   PO467608  36.142  15.141   5.850
 9735POPC   GL167609  36.102  15.174   6.150
 9735POPC   GL267610  35.996  15.230   6.150
 9735POPC   C1A67611  36.078  15.204   6.450
 9735POPC   D2A67612  36.088  15.205   6.750
 9735POPC   C3A67613  36.111  15.151   7.050
 9735POPC   C4A67614  36.129  15.175   7.350
 9735POPC   C1B67615  35.888  15.265   6.450
 9735POPC   C2B67616  35.864  15.254   6.750
 9735POPC   C3B67617  35.872  15.287   7.050
 9735POPC   C4B67618  35.871  15.225   7.350
 9736POPC   NC367619  11.275  33.760   5.550
 9736POPC   PO467620  11.269  33.848   5.850
 9736POPC   GL167621  11.318  33.776   6.150
 9736POPC   GL267622  11.268  33.640   6.150
 9736POPC   C1A67623  11.279  33.786   6.450
 9736POPC   D2A67624  11.270  33.815   6.750
 9736POPC   C3A67625  11.260  33.791   7.050
 9736POPC   C4A67626  11.295  33.762   7.350
 9736POPC   C1B67627  11.157  33.536   6.450
 9736POPC   C2B67628  11.239  33.576   6.750
 9736POPC   C3B67629  11.226  33.611   7.050
 9736POPC   C4B67630  11.211  33.555   7.350
 9737POPC   NC367631  38.450  42.333   5.550
 9737POPC   PO467632  38.501  42.365   5.850
 9737POPC   GL167633  38.478  42.364   6.150
 9737POPC   GL267634  38.539  42.420   6.150
 9737POPC   C1A67635  38.411  42.377   6.450
 9737POPC   D2A67636  38.446  42.376   6.750
 9737POPC   C3A67637  38.458  42.291   7.050
 9737POPC   C4A67638  38.465  42.382   7.350
 9737POPC   C1B67639  38.641  42.470   6.450
 9737POPC   C2B67640  38.687  42.420   6.750
 9737POPC   C3B67641  38.728  42.396   7.050
 9737POPC   C4B67642  38.683  42.384   7.350
 9738POPC   NC367643  28.419   4.313   5.550
 9738POPC   PO467644  28.369   4.331   5.850
 9738POPC   GL167645  28.359   4.326   6.150
 9738POPC   GL267646  28.244   4.361   6.150
 9738POPC   C1A67647  28.415   4.364   6.450
 9738POPC   D2A67648  28.325   4.322   6.750
 9738POPC   C3A67649  28.405   4.303   7.050
 9738POPC   C4A67650  28.319   4.336   7.350
 9738POPC   C1B67651  28.146   4.354   6.450
 9738POPC   C2B67652  28.168   4.330   6.750
 9738POPC   C3B67653  28.095   4.361   7.050
 9738POPC   C4B67654  28.140   4.337   7.350
 9739POPC   NC367655  31.430  16.766   5.550
 9739POPC   PO467656  31.442  16.725   5.850
 9739POPC   GL167657  31.518  16.727   6.150
 9739POPC   GL267658  31.353  16.817   6.150
 9739POPC   C1A67659  31.488  16.736   6.450
 9739POPC   D2A67660  31.443  16.709   6.750
 9739POPC   C3A67661  31.508  16.739   7.050
 9739POPC   C4A67662  31.462  16.719   7.350
 9739POPC   C1B67663  31.243  16.879   6.450
 9739POPC   C2B67664  31.210  16.850   6.750
 9739POPC   C3B67665  31.218  16.844   7.050
 9739POPC   C4B67666  31.238  16.885   7.350
 9740POPC   NC367667   3.497  39.232   5.550
 9740POPC   PO467668   3.583  39.192   5.850
 9740POPC   GL167669   3.588  39.234   6.150
 9740POPC   GL267670   3.581  39.312   6.150
 9740POPC   C1A67671   3.493  39.232   6.450
 9740POPC   D2A67672   3.557  39.232   6.750
 9740POPC   C3A67673   3.528  39.277   7.050
 9740POPC   C4A67674   3.562  39.206   7.350
 9740POPC   C1B67675   3.644  39.457   6.450
 9740POPC   C2B67676   3.678  39.408   6.750
 9740POPC   C3B67677   3.648  39.413   7.050
 9740POPC   C4B67678   3.638  39.456   7.350
 9741POPC   NC367679  18.318  19.098   5.550
 9741POPC   PO467680  18.300  19.042   5.850
 9741POPC   GL167681  18.293  19.056   6.150
 9741POPC   GL267682  18.339  19.141   6.150
 9741POPC   C1A67683  18.240  19.016   6.450
 9741POPC   D2A67684  18.298  19.025   6.750
 9741POPC   C3A67685  18.302  19.081   7.050
 9741POPC   C4A67686  18.311  19.038   7.350
 9741POPC   C1B67687  18.409  19.255   6.450
 9741POPC   C2B67688  18.454  19.266   6.750
 9741POPC   C3B67689  18.500  19.258   7.050
 9741POPC   C4B67690  18.446  19.206   7.350
 9742POPC   NC367691  17.502  31.436   5.550
 9742POPC   PO467692  17.474  31.428   5.850
 9742POPC   GL167693  17.484  31.511   6.150
 9742POPC   GL267694  17.588  31.463   6.150
 9742POPC   C1A67695  17.514  31.520   6.450
 9742POPC   D2A67696  17.536  31.472   6.750
 9742POPC   C3A67697  17.469  31.522   7.050
 9742POPC   C4A67698  17.551  31.483   7.350
 9742POPC   C1B67699  17.710  31.325   6.450
 9742POPC   C2B67700  17.700  31.348   6.750
 9742POPC   C3B67701  17.681  31.378   7.050
 9742POPC   C4B67702  17.685  31.396   7.350
 9743POPC   NC367703  20.577  22.982   5.550
 9743POPC   PO467704  20.640  22.925   5.850
 9743POPC   GL167705  20.614  22.928   6.150
 9743POPC   GL267706  20.519  22.995   6.150
 9743POPC   C1A67707  20.579  22.899   6.450
 9743POPC   D2A67708  20.577  22.980   6.750
 9743POPC   C3A67709  20.603  22.912   7.050
 9743POPC   C4A67710  20.653  22.915   7.350
 9743POPC   C1B67711  20.345  23.002   6.450
 9743POPC   C2B67712  20.339  23.007   6.750
 9743POPC   C3B67713  20.358  22.977   7.050
 9743POPC   C4B67714  20.366  22.941   7.350
 9744POPC   NC367715  40.827  34.565   5.550
 9744POPC   PO467716  40.790  34.606   5.850
 9744POPC   GL167717  40.821  34.554   6.150
 9744POPC   GL267718  40.946  34.553   6.150
 9744POPC   C1A67719  40.831  34.596   6.450
 9744POPC   D2A67720  40.767  34.578   6.750
 9744POPC   C3A67721  40.826  34.567   7.050
 9744POPC   C4A67722  40.766  34.546   7.350
 9744POPC   C1B67723  41.010  34.530   6.450
 9744POPC   C2B67724  41.048  34.595   6.750
 9744POPC   C3B67725  41.058  34.530   7.050
 9744POPC   C4B67726  40.985  34.594   7.350
 9745POPC   NC367727   7.443  34.585   5.550
 9745POPC   PO467728   7.373  34.557   5.850
 9745POPC   GL167729   7.447  34.562   6.150
 9745POPC   GL267730   7.447  34.432   6.150
 9745POPC   C1A67731   7.416  34.606   6.450
 9745POPC   D2A67732   7.454  34.614   6.750
 9745POPC   C3A67733   7.378  34.572   7.050
 9745POPC   C4A67734   7.371  34.620   7.350
 9745POPC   C1B67735   7.532  34.337   6.450
 9745POPC   C2B67736   7.579  34.343   6.750
 9745POPC   C3B67737   7.585  34.320   7.050
 9745POPC   C4B67738   7.570  34.355   7.350
 9746POPC   NC367739   2.783  22.970   5.550
 9746POPC   PO467740   2.731  22.954   5.850
 9746POPC   GL167741   2.790  22.893   6.150
 9746POPC   GL267742   2.831  22.855   6.150
 9746POPC   C1A67743   2.811  22.973   6.450
 9746POPC   D2A67744   2.754  22.906   6.750
 9746POPC   C3A67745   2.772  22.954   7.050
 9746POPC   C4A67746   2.735  22.986   7.350
 9746POPC   C1B67747   2.945  22.812   6.450
 9746POPC   C2B67748   2.927  22.745   6.750
 9746POPC   C3B67749   2.983  22.764   7.050
 9746POPC   C4B67750   2.908  22.797   7.350
 9747POPC   NC367751  10.540  41.580   5.550
 9747POPC   PO467752  10.552  41.530   5.850
 9747POPC   GL167753  10.506  41.589   6.150
 9747POPC   GL267754  10.401  41.544   6.150
 9747POPC   C1A67755  10.568  41.515   6.450
 9747POPC   D2A67756  10.485  41.581   6.750
 9747POPC   C3A67757  10.528  41.529   7.050
 9747POPC   C4A67758  10.501  41.517   7.350
 9747POPC   C1B67759  10.268  41.597   6.450
 9747POPC   C2B67760  10.238  41.603   6.750
 9747POPC   C3B67761  10.236  41.675   7.050
 9747POPC   C4B67762  10.285  41.597   7.350
 9748POPC   NC367763  29.163  19.032   5.550
 9748POPC   PO467764  29.115  19.024   5.850
 9748POPC   GL167765  29.124  19.073   6.150
 9748POPC   GL267766  29.115  19.194   6.150
 9748POPC   C1A67767  29.109  19.085   6.450
 9748POPC   D2A67768  29.119  19.081   6.750
 9748POPC   C3A67769  29.189  19.088   7.050
 9748POPC   C4A67770  29.101  19.062   7.350
 9748POPC   C1B67771  29.071  19.250   6.450
 9748POPC   C2B67772  29.086  19.254   6.750
 9748POPC   C3B67773  29.079  19.260   7.050
 9748POPC   C4B67774  29.032  19.277   7.350
 9749POPC   NC367775   2.796  13.588   5.550
 9749POPC   PO467776   2.768  13.590   5.850
 9749POPC   GL167777   2.741  13.612   6.150
 9749POPC   GL267778   2.830  13.590   6.150
 9749POPC   C1A67779   2.744  13.636   6.450
 9749POPC   D2A67780   2.813  13.673   6.750
 9749POPC   C3A67781   2.776  13.677   7.050
 9749POPC   C4A67782   2.742  13.614   7.350
 9749POPC   C1B67783   3.017  13.473   6.450
 9749POPC   C2B67784   2.950  13.516   6.750
 9749POPC   C3B67785   3.015  13.452   7.050
 9749POPC   C4B67786   3.016  13.520   7.350
 9750POPC   NC367787  22.114  44.619   5.550
 9750POPC   PO467788  22.148  44.646   5.850
 9750POPC   GL167789  22.190  44.648   6.150
 9750POPC   GL267790  22.006  44.592   6.150
 9750POPC   C1A67791  22.126  44.675   6.450
 9750POPC   D2A67792  22.188  44.674   6.750
 9750POPC   C3A67793  22.194  44.655   7.050
 9750POPC   C4A67794  22.145  44.628   7.350
 9750POPC   C1B67795  21.892  44.544   6.450
 9750POPC   C2B67796  21.971  44.589   6.750
 9750POPC   C3B67797  21.895  44.516   7.050
 9750POPC   C4B67798  21.914  44.591   7.350
 9751POPC   NC367799   6.613  42.334   5.550
 9751POPC   PO467800   6.667  42.349   5.850
 9751POPC   GL167801   6.620  42.325   6.150
 9751POPC   GL267802   6.605  42.228   6.150
 9751POPC   C1A67803   6.620  42.376   6.450
 9751POPC   D2A67804   6.628  42.357   6.750
 9751POPC   C3A67805   6.654  42.295   7.050
 9751POPC   C4A67806   6.670  42.366   7.350
 9751POPC   C1B67807   6.541  42.077   6.450
 9751POPC   C2B67808   6.538  42.137   6.750
 9751POPC   C3B67809   6.477  42.151   7.050
 9751POPC   C4B67810   6.535  42.104   7.350
 9752POPC   NC367811  23.682  43.923   5.550
 9752POPC   PO467812  23.680  43.882   5.850
 9752POPC   GL167813  23.736  43.869   6.150
 9752POPC   GL267814  23.844  43.922   6.150
 9752POPC   C1A67815  23.687  43.891   6.450
 9752POPC   D2A67816  23.710  43.856   6.750
 9752POPC   C3A67817  23.678  43.900   7.050
 9752POPC   C4A67818  23.681  43.845   7.350
 9752POPC   C1B67819  23.971  43.943   6.450
 9752POPC   C2B67820  23.981  43.947   6.750
 9752POPC   C3B67821  23.910  44.000   7.050
 9752POPC   C4B67822  23.991  44.028   7.350
 9753POPC   NC367823  26.799  37.715   5.550
 9753POPC   PO467824  26.860  37.729   5.850
 9753POPC   GL167825  26.767  37.681   6.150
 9753POPC   GL267826  26.902  37.667   6.150
 9753POPC   C1A67827  26.795  37.650   6.450
 9753POPC   D2A67828  26.852  37.675   6.750
 9753POPC   C3A67829  26.819  37.706   7.050
 9753POPC   C4A67830  26.840  37.649   7.350
 9753POPC   C1B67831  26.994  37.593   6.450
 9753POPC   C2B67832  26.993  37.598   6.750
 9753POPC   C3B67833  27.017  37.541   7.050
 9753POPC   C4B67834  27.083  37.541   7.350
 9754POPC   NC367835  33.781  26.023   5.550
 9754POPC   PO467836  33.789  26.086   5.850
 9754POPC   GL167837  33.825  26.009   6.150
 9754POPC   GL267838  33.799  25.939   6.150
 9754POPC   C1A67839  33.786  26.043   6.450
 9754POPC   D2A67840  33.838  26.081   6.750
 9754POPC   C3A67841  33.763  26.016   7.050
 9754POPC   C4A67842  33.819  26.002   7.350
 9754POPC   C1B67843  33.880  25.829   6.450
 9754POPC   C2B67844  33.920  25.771   6.750
 9754POPC   C3B67845  33.890  25.820   7.050
 9754POPC   C4B67846  33.847  25.847   7.350
 9755POPC   NC367847  29.939   6.682   5.550
 9755POPC   PO467848  29.967   6.625   5.850
 9755POPC   GL167849  29.924   6.659   6.150
 9755POPC   GL267850  29.854   6.557   6.150
 9755POPC   C1A67851  29.965   6.673   6.450
 9755POPC   D2A67852  29.941   6.612   6.750
 9755POPC   C3A67853  29.919   6.662   7.050
 9755POPC   C4A67854  29.875   6.686   7.350
 9755POPC   C1B67855  29.716   6.444   6.450
 9755POPC   C2B67856  29.715   6.481   6.750
 9755POPC   C3B67857  29.709   6.480   7.050
 9755POPC   C4B67858  29.713   6.470   7.350
 9756POPC   NC367859  22.965   8.225   5.550
 9756POPC   PO467860  22.893   8.154   5.850
 9756POPC   GL167861  22.898   8.226   6.150
 9756POPC   GL267862  23.080   8.238   6.150
 9756POPC   C1A67863  22.908   8.212   6.450
 9756POPC   D2A67864  22.975   8.199   6.750
 9756POPC   C3A67865  22.926   8.155   7.050
 9756POPC   C4A67866  22.943   8.205   7.350
 9756POPC   C1B67867  23.119   8.309   6.450
 9756POPC   C2B67868  23.146   8.384   6.750
 9756POPC   C3B67869  23.151   8.357   7.050
 9756POPC   C4B67870  23.096   8.290   7.350
 9757POPC   NC367871   6.656  26.850   5.550
 9757POPC   PO467872   6.666  26.782   5.850
 9757POPC   GL167873   6.637  26.831   6.150
 9757POPC   GL267874   6.748  26.806   6.150
 9757POPC   C1A67875   6.597  26.836   6.450
 9757POPC   D2A67876   6.616  26.827   6.750
 9757POPC   C3A67877   6.674  26.851   7.050
 9757POPC   C4A67878   6.659  26.778   7.350
 9757POPC   C1B67879   6.846  26.804   6.450
 9757POPC   C2B67880   6.940  26.813   6.750
 9757POPC   C3B67881   6.895  26.827   7.050
 9757POPC   C4B67882   6.915  26.825   7.350
 9758POPC   NC367883  35.323  15.181   5.550
 9758POPC   PO467884  35.303  15.154   5.850
 9758POPC   GL167885  35.340  15.133   6.150
 9758POPC   GL267886  35.384  15.083   6.150
 9758POPC   C1A67887  35.381  15.158   6.450
 9758POPC   D2A67888  35.308  15.211   6.750
 9758POPC   C3A67889  35.311  15.213   7.050
 9758POPC   C4A67890  35.325  15.221   7.350
 9758POPC   C1B67891  35.399  14.957   6.450
 9758POPC   C2B67892  35.449  14.902   6.750
 9758POPC   C3B67893  35.449  14.935   7.050
 9758POPC   C4B67894  35.394  14.984   7.350
 9759POPC   NC367895  15.906  33.074   5.550
 9759POPC   PO467896  15.922  33.001   5.850
 9759POPC   GL167897  15.912  33.028   6.150
 9759POPC   GL267898  16.037  33.169   6.150
 9759POPC   C1A67899  16.004  32.998   6.450
 9759POPC   D2A67900  15.908  32.979   6.750
 9759POPC   C3A67901  15.920  33.052   7.050
 9759POPC   C4A67902  15.967  32.997   7.350
 9759POPC   C1B67903  16.079  33.272   6.450
 9759POPC   C2B67904  16.092  33.286   6.750
 9759POPC   C3B67905  16.090  33.228   7.050
 9759POPC   C4B67906  16.114  33.239   7.350
 9760POPC   NC367907  10.550  23.730   5.550
 9760POPC   PO467908  10.526  23.757   5.850
 9760POPC   GL167909  10.564  23.742   6.150
 9760POPC   GL267910  10.569  23.760   6.150
 9760POPC   C1A67911  10.489  23.716   6.450
 9760POPC   D2A67912  10.494  23.763   6.750
 9760POPC   C3A67913  10.528  23.735   7.050
 9760POPC   C4A67914  10.497  23.696   7.350
 9760POPC   C1B67915  10.643  23.883   6.450
 9760POPC   C2B67916  10.641  23.904   6.750
 9760POPC   C3B67917  10.691  23.900   7.050
 9760POPC   C4B67918  10.681  23.899   7.350
 9761POPC   NC367919   5.130  12.833   5.550
 9761POPC   PO467920   5.136  12.841   5.850
 9761POPC   GL167921   5.081  12.840   6.150
 9761POPC   GL267922   4.983  12.887   6.150
 9761POPC   C1A67923   5.071  12.826   6.450
 9761POPC   D2A67924   5.074  12.844   6.750
 9761POPC   C3A67925   5.104  12.877   7.050
 9761POPC   C4A67926   5.054  12.868   7.350
 9761POPC   C1B67927   4.860  13.039   6.450
 9761POPC   C2B67928   4.858  13.003   6.750
 9761POPC   C3B67929   4.925  12.960   7.050
 9761POPC   C4B67930   4.865  12.978   7.350
 9762POPC   NC367931  13.596   1.169   5.550
 9762POPC   PO467932  13.670   1.164   5.850
 9762POPC   GL167933  13.587   1.244   6.150
 9762POPC   GL267934  13.564   1.368   6.150
 9762POPC   C1A67935  13.608   1.182   6.450
 9762POPC   D2A67936  13.637   1.215   6.750
 9762POPC   C3A67937  13.649   1.223   7.050
 9762POPC   C4A67938  13.673   1.175   7.350
 9762POPC   C1B67939  13.493   1.445   6.450
 9762POPC   C2B67940  13.508   1.470   6.750
 9762POPC   C3B67941  13.475   1.453   7.050
 9762POPC   C4B67942  13.482   1.391   7.350
 9763POPC   NC367943  43.905  29.136   5.550
 9763POPC   PO467944  43.903  29.129   5.850
 9763POPC   GL167945  43.920  29.156   6.150
 9763POPC   GL267946  43.737  29.195   6.150
 9763POPC   C1A67947  43.923  29.102   6.450
 9763POPC   D2A67948  43.929  29.180   6.750
 9763POPC   C3A67949  43.931  29.127   7.050
 9763POPC   C4A67950  43.905  29.182   7.350
 9763POPC   C1B67951  43.679  29.302   6.450
 9763POPC   C2B67952  43.640  29.276   6.750
 9763POPC   C3B67953  43.698  29.297   7.050
 9763POPC   C4B67954  43.697  29.270   7.350
 9764POPC   NC367955   8.228  18.324   5.550
 9764POPC   PO467956   8.185  18.327   5.850
 9764POPC   GL167957   8.169  18.290   6.150
 9764POPC   GL267958   8.332  18.344   6.150
 9764POPC   C1A67959   8.168  18.288   6.450
 9764POPC   D2A67960   8.159  18.272   6.750
 9764POPC   C3A67961   8.201  18.242   7.050
 9764POPC   C4A67962   8.212  18.257   7.350
 9764POPC   C1B67963   8.359  18.415   6.450
 9764POPC   C2B67964   8.408  18.471   6.750
 9764POPC   C3B67965   8.418  18.428   7.050
 9764POPC   C4B67966   8.376  18.441   7.350
 9765POPC   NC367967  43.907   4.300   5.550
 9765POPC   PO467968  43.847   4.335   5.850
 9765POPC   GL167969  43.866   4.307   6.150
 9765POPC   GL267970  43.789   4.406   6.150
 9765POPC   C1A67971  43.856   4.283   6.450
 9765POPC   D2A67972  43.886   4.316   6.750
 9765POPC   C3A67973  43.914   4.301   7.050
 9765POPC   C4A67974  43.871   4.289   7.350
 9765POPC   C1B67975  43.672   4.405   6.450
 9765POPC   C2B67976  43.614   4.369   6.750
 9765POPC   C3B67977  43.681   4.410   7.050
 9765POPC   C4B67978  43.613   4.465   7.350
 9766POPC   NC367979  29.195  22.944   5.550
 9766POPC   PO467980  29.171  22.945   5.850
 9766POPC   GL167981  29.184  22.972   6.150
 9766POPC   GL267982  29.208  23.012   6.150
 9766POPC   C1A67983  29.177  22.923   6.450
 9766POPC   D2A67984  29.121  22.979   6.750
 9766POPC   C3A67985  29.101  22.918   7.050
 9766POPC   C4A67986  29.175  22.971   7.350
 9766POPC   C1B67987  29.248  23.186   6.450
 9766POPC   C2B67988  29.317  23.146   6.750
 9766POPC   C3B67989  29.321  23.199   7.050
 9766POPC   C4B67990  29.308  23.184   7.350
 9767POPC   NC367991   3.561  29.181   5.550
 9767POPC   PO467992   3.496  29.149   5.850
 9767POPC   GL167993   3.494  29.107   6.150
 9767POPC   GL267994   3.637  29.043   6.150
 9767POPC   C1A67995   3.545  29.180   6.450
 9767POPC   D2A67996   3.492  29.138   6.750
 9767POPC   C3A67997   3.511  29.113   7.050
 9767POPC   C4A67998   3.510  29.181   7.350
 9767POPC   C1B67999   3.784  28.965   6.450
 9767POPC   C2B68000   3.789  29.007   6.750
 9767POPC   C3B68001   3.725  29.049   7.050
 9767POPC   C4B68002   3.765  29.033   7.350
 9768POPC   NC368003  24.518  16.710   5.550
 9768POPC   PO468004  24.458  16.691   5.850
 9768POPC   GL168005  24.467  16.775   6.150
 9768POPC   GL268006  24.566  16.758   6.150
 9768POPC   C1A68007  24.482  16.722   6.450
 9768POPC   D2A68008  24.464  16.715   6.750
 9768POPC   C3A68009  24.503  16.741   7.050
 9768POPC   C4A68010  24.527  16.693   7.350
 9768POPC   C1B68011  24.686  16.810   6.450
 9768POPC   C2B68012  24.746  16.834   6.750
 9768POPC   C3B68013  24.699  16.782   7.050
 9768POPC   C4B68014  24.722  16.822   7.350
 9769POPC   NC368015  36.946  22.980   5.550
 9769POPC   PO468016  36.886  22.889   5.850
 9769POPC   GL168017  36.893  22.913   6.150
 9769POPC   GL268018  36.873  22.841   6.150
 9769POPC   C1A68019  36.921  22.940   6.450
 9769POPC   D2A68020  36.905  22.936   6.750
 9769POPC   C3A68021  36.865  22.978   7.050
 9769POPC   C4A68022  36.888  22.902   7.350
 9769POPC   C1B68023  36.928  22.697   6.450
 9769POPC   C2B68024  36.920  22.683   6.750
 9769POPC   C3B68025  36.938  22.696   7.050
 9769POPC   C4B68026  36.935  22.723   7.350
 9770POPC   NC368027  34.526  39.983   5.550
 9770POPC   PO468028  34.614  39.962   5.850
 9770POPC   GL168029  34.587  39.972   6.150
 9770POPC   GL268030  34.541  40.115   6.150
 9770POPC   C1A68031  34.619  39.962   6.450
 9770POPC   D2A68032  34.621  40.020   6.750
 9770POPC   C3A68033  34.570  39.991   7.050
 9770POPC   C4A68034  34.624  40.017   7.350
 9770POPC   C1B68035  34.512  40.208   6.450
 9770POPC   C2B68036  34.571  40.214   6.750
 9770POPC   C3B68037  34.561  40.261   7.050
 9770POPC   C4B68038  34.535  40.234   7.350
 9771POPC   NC368039   0.447   1.993   5.550
 9771POPC   PO468040   0.418   2.004   5.850
 9771POPC   GL168041   0.472   1.998   6.150
 9771POPC   GL268042   0.548   2.026   6.150
 9771POPC   C1A68043   0.449   1.987   6.450
 9771POPC   D2A68044   0.474   1.946   6.750
 9771POPC   C3A68045   0.400   2.021   7.050
 9771POPC   C4A68046   0.479   2.024   7.350
 9771POPC   C1B68047   0.651   2.073   6.450
 9771POPC   C2B68048   0.678   2.036   6.750
 9771POPC   C3B68049   0.647   2.055   7.050
 9771POPC   C4B68050   0.680   2.045   7.350
 9772POPC   NC368051   7.407  25.298   5.550
 9772POPC   PO468052   7.377  25.258   5.850
 9772POPC   GL168053   7.404  25.258   6.150
 9772POPC   GL268054   7.515  25.366   6.150
 9772POPC   C1A68055   7.374  25.312   6.450
 9772POPC   D2A68056   7.375  25.284   6.750
 9772POPC   C3A68057   7.454  25.248   7.050
 9772POPC   C4A68058   7.373  25.270   7.350
 9772POPC   C1B68059   7.599  25.438   6.450
 9772POPC   C2B68060   7.662  25.381   6.750
 9772POPC   C3B68061   7.621  25.401   7.050
 9772POPC   C4B68062   7.605  25.356   7.350
 9773POPC   NC368063  36.927  33.037   5.550
 9773POPC   PO468064  36.921  33.053   5.850
 9773POPC   GL168065  36.865  33.041   6.150
 9773POPC   GL268066  36.902  33.135   6.150
 9773POPC   C1A68067  36.941  33.014   6.450
 9773POPC   D2A68068  36.938  33.026   6.750
 9773POPC   C3A68069  36.854  32.985   7.050
 9773POPC   C4A68070  36.898  33.030   7.350
 9773POPC   C1B68071  36.839  33.209   6.450
 9773POPC   C2B68072  36.771  33.257   6.750
 9773POPC   C3B68073  36.823  33.280   7.050
 9773POPC   C4B68074  36.790  33.268   7.350
 9774POPC   NC368075   9.707  35.345   5.550
 9774POPC   PO468076   9.731  35.358   5.850
 9774POPC   GL168077   9.736  35.326   6.150
 9774POPC   GL268078   9.701  35.281   6.150
 9774POPC   C1A68079   9.726  35.343   6.450
 9774POPC   D2A68080   9.732  35.357   6.750
 9774POPC   C3A68081   9.769  35.353   7.050
 9774POPC   C4A68082   9.720  35.343   7.350
 9774POPC   C1B68083   9.651  35.157   6.450
 9774POPC   C2B68084   9.728  35.135   6.750
 9774POPC   C3B68085   9.650  35.078   7.050
 9774POPC   C4B68086   9.684  35.148   7.350
 9775POPC   NC368087  12.851   5.880   5.550
 9775POPC   PO468088  12.833   5.855   5.850
 9775POPC   GL168089  12.882   5.871   6.150
 9775POPC   GL268090  12.906   5.728   6.150
 9775POPC   C1A68091  12.829   5.882   6.450
 9775POPC   D2A68092  12.829   5.843   6.750
 9775POPC   C3A68093  12.884   5.846   7.050
 9775POPC   C4A68094  12.834   5.908   7.350
 9775POPC   C1B68095  12.952   5.629   6.450
 9775POPC   C2B68096  12.951   5.687   6.750
 9775POPC   C3B68097  13.006   5.628   7.050
 9775POPC   C4B68098  13.014   5.627   7.350
 9776POPC   NC368099  25.218  25.272   5.550
 9776POPC   PO468100  25.254  25.277   5.850
 9776POPC   GL168101  25.216  25.294   6.150
 9776POPC   GL268102  25.252  25.110   6.150
 9776POPC   C1A68103  25.234  25.221   6.450
 9776POPC   D2A68104  25.251  25.304   6.750
 9776POPC   C3A68105  25.299  25.268   7.050
 9776POPC   C4A68106  25.301  25.284   7.350
 9776POPC   C1B68107  25.303  25.046   6.450
 9776POPC   C2B68108  25.288  25.033   6.750
 9776POPC   C3B68109  25.272  25.003   7.050
 9776POPC   C4B68110  25.330  24.976   7.350
 9777POPC   NC368111   5.096   7.455   5.550
 9777POPC   PO468112   5.063   7.373   5.850
 9777POPC   GL168113   5.131   7.375   6.150
 9777POPC   GL268114   5.013   7.377   6.150
 9777POPC   C1A68115   5.104   7.385   6.450
 9777POPC   D2A68116   5.127   7.413   6.750
 9777POPC   C3A68117   5.071   7.403   7.050
 9777POPC   C4A68118   5.096   7.448   7.350
 9777POPC   C1B68119   4.874   7.276   6.450
 9777POPC   C2B68120   4.867   7.290   6.750
 9777POPC   C3B68121   4.876   7.278   7.050
 9777POPC   C4B68122   4.899   7.346   7.350
 9778POPC   NC368123  39.274  26.069   5.550
 9778POPC   PO468124  39.255  26.013   5.850
 9778POPC   GL168125  39.262  26.062   6.150
 9778POPC   GL268126  39.349  26.000   6.150
 9778POPC   C1A68127  39.182  26.051   6.450
 9778POPC   D2A68128  39.208  26.047   6.750
 9778POPC   C3A68129  39.252  26.076   7.050
 9778POPC   C4A68130  39.263  25.996   7.350
 9778POPC   C1B68131  39.466  25.973   6.450
 9778POPC   C2B68132  39.435  25.986   6.750
 9778POPC   C3B68133  39.510  25.953   7.050
 9778POPC   C4B68134  39.476  25.959   7.350
 9779POPC   NC368135  44.645  19.813   5.550
 9779POPC   PO468136  44.643  19.798   5.850
 9779POPC   GL168137  44.628  19.832   6.150
 9779POPC   GL268138  44.530  19.853   6.150
 9779POPC   C1A68139  44.686  19.834   6.450
 9779POPC   D2A68140  44.683  19.818   6.750
 9779POPC   C3A68141  44.655  19.797   7.050
 9779POPC   C4A68142  44.672  19.851   7.350
 9779POPC   C1B68143  44.419  19.871   6.450
 9779POPC   C2B68144  44.397  19.864   6.750
 9779POPC   C3B68145  44.452  19.848   7.050
 9779POPC   C4B68146  44.363  19.827   7.350
 9780POPC   NC368147  33.825  19.076   5.550
 9780POPC   PO468148  33.771  19.069   5.850
 9780POPC   GL168149  33.823  19.045   6.150
 9780POPC   GL268150  33.748  19.162   6.150
 9780POPC   C1A68151  33.757  19.025   6.450
 9780POPC   D2A68152  33.825  19.095   6.750
 9780POPC   C3A68153  33.790  19.022   7.050
 9780POPC   C4A68154  33.808  19.094   7.350
 9780POPC   C1B68155  33.620  19.241   6.450
 9780POPC   C2B68156  33.642  19.205   6.750
 9780POPC   C3B68157  33.632  19.256   7.050
 9780POPC   C4B68158  33.629  19.206   7.350
 9781POPC   NC368159  18.238   5.886   5.550
 9781POPC   PO468160  18.287   5.843   5.850
 9781POPC   GL168161  18.266   5.824   6.150
 9781POPC   GL268162  18.188   5.997   6.150
 9781POPC   C1A68163  18.262   5.860   6.450
 9781POPC   D2A68164  18.267   5.846   6.750
 9781POPC   C3A68165  18.241   5.896   7.050
 9781POPC   C4A68166  18.307   5.895   7.350
 9781POPC   C1B68167  18.205   6.063   6.450
 9781POPC   C2B68168  18.153   6.099   6.750
 9781POPC   C3B68169  18.200   6.043   7.050
 9781POPC   C4B68170  18.131   6.054   7.350
 9782POPC   NC368171  19.837  39.982   5.550
 9782POPC   PO468172  19.823  40.005   5.850
 9782POPC   GL168173  19.839  40.000   6.150
 9782POPC   GL268174  19.792  40.177   6.150
 9782POPC   C1A68175  19.823  40.053   6.450
 9782POPC   D2A68176  19.880  39.996   6.750
 9782POPC   C3A68177  19.804  39.991   7.050
 9782POPC   C4A68178  19.871  39.985   7.350
 9782POPC   C1B68179  19.804  40.289   6.450
 9782POPC   C2B68180  19.819  40.296   6.750
 9782POPC   C3B68181  19.812  40.209   7.050
 9782POPC   C4B68182  19.818  40.258   7.350
 9783POPC   NC368183  15.168  29.182   5.550
 9783POPC   PO468184  15.182  29.170   5.850
 9783POPC   GL168185  15.139  29.120   6.150
 9783POPC   GL268186  15.096  29.094   6.150
 9783POPC   C1A68187  15.180  29.130   6.450
 9783POPC   D2A68188  15.135  29.151   6.750
 9783POPC   C3A68189  15.223  29.189   7.050
 9783POPC   C4A68190  15.137  29.174   7.350
 9783POPC   C1B68191  14.904  29.037   6.450
 9783POPC   C2B68192  14.946  29.090   6.750
 9783POPC   C3B68193  14.947  29.011   7.050
 9783POPC   C4B68194  14.934  29.042   7.350
 9784POPC   NC368195  13.662  13.665   5.550
 9784POPC   PO468196  13.616  13.633   5.850
 9784POPC   GL168197  13.623  13.595   6.150
 9784POPC   GL268198  13.626  13.726   6.150
 9784POPC   C1A68199  13.602  13.661   6.450
 9784POPC   D2A68200  13.662  13.661   6.750
 9784POPC   C3A68201  13.613  13.595   7.050
 9784POPC   C4A68202  13.579  13.619   7.350
 9784POPC   C1B68203  13.690  13.838   6.450
 9784POPC   C2B68204  13.715  13.879   6.750
 9784POPC   C3B68205  13.699  13.898   7.050
 9784POPC   C4B68206  13.741  13.849   7.350
 9785POPC   NC368207  31.464  29.193   5.550
 9785POPC   PO468208  31.436  29.138   5.850
 9785POPC   GL168209  31.512  29.117   6.150
 9785POPC   GL268210  31.375  29.146   6.150
 9785POPC   C1A68211  31.490  29.129   6.450
 9785POPC   D2A68212  31.474  29.136   6.750
 9785POPC   C3A68213  31.435  29.141   7.050
 9785POPC   C4A68214  31.446  29.105   7.350
 9785POPC   C1B68215  31.196  29.069   6.450
 9785POPC   C2B68216  31.250  29.084   6.750
 9785POPC   C3B68217  31.245  29.071   7.050
 9785POPC   C4B68218  31.196  29.098   7.350
 9786POPC   NC368219  29.956   7.374   5.550
 9786POPC   PO468220  29.962   7.373   5.850
 9786POPC   GL168221  29.899   7.462   6.150
 9786POPC   GL268222  29.804   7.479   6.150
 9786POPC   C1A68223  29.954   7.442   6.450
 9786POPC   D2A68224  29.926   7.398   6.750
 9786POPC   C3A68225  29.944   7.466   7.050
 9786POPC   C4A68226  29.888   7.375   7.350
 9786POPC   C1B68227  29.760   7.593   6.450
 9786POPC   C2B68228  29.713   7.595   6.750
 9786POPC   C3B68229  29.675   7.537   7.050
 9786POPC   C4B68230  29.697   7.512   7.350
 9787POPC   NC368231   5.820  23.692   5.550
 9787POPC   PO468232   5.825  23.756   5.850
 9787POPC   GL168233   5.901  23.753   6.150
 9787POPC   GL268234   5.733  23.737   6.150
 9787POPC   C1A68235   5.852  23.711   6.450
 9787POPC   D2A68236   5.831  23.678   6.750
 9787POPC   C3A68237   5.874  23.704   7.050
 9787POPC   C4A68238   5.889  23.693   7.350
 9787POPC   C1B68239   5.645  23.712   6.450
 9787POPC   C2B68240   5.623  23.722   6.750
 9787POPC   C3B68241   5.610  23.680   7.050
 9787POPC   C4B68242   5.648  23.716   7.350
 9788POPC   NC368243  35.353  12.120   5.550
 9788POPC   PO468244  35.318  12.115   5.850
 9788POPC   GL168245  35.376  12.073   6.150
 9788POPC   GL268246  35.261  12.001   6.150
 9788POPC   C1A68247  35.355  12.111   6.450
 9788POPC   D2A68248  35.370  12.031   6.750
 9788POPC   C3A68249  35.390  12.061   7.050
 9788POPC   C4A68250  35.351  12.067   7.350
 9788POPC   C1B68251  35.093  11.998   6.450
 9788POPC   C2B68252  35.087  11.993   6.750
 9788POPC   C3B68253  35.159  11.929   7.050
 9788POPC   C4B68254  35.147  11.949   7.350
 9789POPC   NC368255  24.450  22.918   5.550
 9789POPC   PO468256  24.518  22.925   5.850
 9789POPC   GL168257  24.486  22.892   6.150
 9789POPC   GL268258  24.436  23.094   6.150
 9789POPC   C1A68259  24.494  22.898   6.450
 9789POPC   D2A68260  24.531  22.952   6.750
 9789POPC   C3A68261  24.529  22.933   7.050
 9789POPC   C4A68262  24.514  22.940   7.350
 9789POPC   C1B68263  24.488  23.146   6.450
 9789POPC   C2B68264  24.489  23.192   6.750
 9789POPC   C3B68265  24.455  23.200   7.050
 9789POPC   C4B68266  24.407  23.154   7.350
 9790POPC   NC368267  38.414  33.032   5.550
 9790POPC   PO468268  38.497  33.021   5.850
 9790POPC   GL168269  38.435  32.998   6.150
 9790POPC   GL268270  38.317  33.076   6.150
 9790POPC   C1A68271  38.411  33.061   6.450
 9790POPC   D2A68272  38.489  33.011   6.750
 9790POPC   C3A68273  38.461  33.062   7.050
 9790POPC   C4A68274  38.424  33.037   7.350
 9790POPC   C1B68275  38.293  33.171   6.450
 9790POPC   C2B68276  38.289  33.148   6.750
 9790POPC   C3B68277  38.275  33.200   7.050
 9790POPC   C4B68278  38.254  33.190   7.350
 9791POPC   NC368279  43.120  33.754   5.550
 9791POPC   PO468280  43.153  33.825   5.850
 9791POPC   GL168281  43.091  33.772   6.150
 9791POPC   GL268282  42.957  33.788   6.150
 9791POPC   C1A68283  43.137  33.774   6.450
 9791POPC   D2A68284  43.119  33.781   6.750
 9791POPC   C3A68285  43.084  33.781   7.050
 9791POPC   C4A68286  43.074  33.811   7.350
 9791POPC   C1B68287  42.876  33.768   6.450
 9791POPC   C2B68288  42.840  33.753   6.750
 9791POPC   C3B68289  42.834  33.721   7.050
 9791POPC   C4B68290  42.833  33.731   7.350
 9792POPC   NC368291  32.201  19.810   5.550
 9792POPC   PO468292  32.207  19.854   5.850
 9792POPC   GL168293  32.245  19.881   6.150
 9792POPC   GL268294  32.120  19.831   6.150
 9792POPC   C1A68295  32.247  19.805   6.450
 9792POPC   D2A68296  32.210  19.844   6.750
 9792POPC   C3A68297  32.248  19.872   7.050
 9792POPC   C4A68298  32.272  19.873   7.350
 9792POPC   C1B68299  31.999  19.860   6.450
 9792POPC   C2B68300  31.953  19.850   6.750
 9792POPC   C3B68301  32.022  19.830   7.050
 9792POPC   C4B68302  32.031  19.798   7.350
 9793POPC   NC368303  25.280  38.443   5.550
 9793POPC   PO468304  25.298  38.481   5.850
 9793POPC   GL168305  25.273  38.501   6.150
 9793POPC   GL268306  25.334  38.612   6.150
 9793POPC   C1A68307  25.242  38.465   6.450
 9793POPC   D2A68308  25.281  38.406   6.750
 9793POPC   C3A68309  25.280  38.489   7.050
 9793POPC   C4A68310  25.228  38.452   7.350
 9793POPC   C1B68311  25.298  38.738   6.450
 9793POPC   C2B68312  25.277  38.659   6.750
 9793POPC   C3B68313  25.323  38.695   7.050
 9793POPC   C4B68314  25.327  38.736   7.350
 9794POPC   NC368315  17.534   4.337   5.550
 9794POPC   PO468316  17.555   4.351   5.850
 9794POPC   GL168317  17.547   4.278   6.150
 9794POPC   GL268318  17.430   4.462   6.150
 9794POPC   C1A68319  17.516   4.349   6.450
 9794POPC   D2A68320  17.486   4.315   6.750
 9794POPC   C3A68321  17.472   4.292   7.050
 9794POPC   C4A68322  17.517   4.327   7.350
 9794POPC   C1B68323  17.339   4.470   6.450
 9794POPC   C2B68324  17.306   4.514   6.750
 9794POPC   C3B68325  17.329   4.483   7.050
 9794POPC   C4B68326  17.352   4.493   7.350
 9795POPC   NC368327   5.085  40.772   5.550
 9795POPC   PO468328   5.052  40.780   5.850
 9795POPC   GL168329   5.070  40.801   6.150
 9795POPC   GL268330   5.174  40.839   6.150
 9795POPC   C1A68331   5.051  40.800   6.450
 9795POPC   D2A68332   5.070  40.735   6.750
 9795POPC   C3A68333   5.121  40.827   7.050
 9795POPC   C4A68334   5.118  40.753   7.350
 9795POPC   C1B68335   5.314  40.945   6.450
 9795POPC   C2B68336   5.347  40.876   6.750
 9795POPC   C3B68337   5.296  40.934   7.050
 9795POPC   C4B68338   5.323  40.897   7.350
 9796POPC   NC368339  29.163  22.211   5.550
 9796POPC   PO468340  29.135  22.150   5.850
 9796POPC   GL168341  29.133  22.189   6.150
 9796POPC   GL268342  29.097  22.097   6.150
 9796POPC   C1A68343  29.138  22.130   6.450
 9796POPC   D2A68344  29.134  22.174   6.750
 9796POPC   C3A68345  29.168  22.160   7.050
 9796POPC   C4A68346  29.118  22.148   7.350
 9796POPC   C1B68347  28.977  22.016   6.450
 9796POPC   C2B68348  28.954  22.019   6.750
 9796POPC   C3B68349  28.975  21.997   7.050
 9796POPC   C4B68350  28.908  22.017   7.350
 9797POPC   NC368351  38.436  30.712   5.550
 9797POPC   PO468352  38.442  30.656   5.850
 9797POPC   GL168353  38.421  30.717   6.150
 9797POPC   GL268354  38.522  30.639   6.150
 9797POPC   C1A68355  38.407  30.740   6.450
 9797POPC   D2A68356  38.467  30.735   6.750
 9797POPC   C3A68357  38.409  30.733   7.050
 9797POPC   C4A68358  38.442  30.689   7.350
 9797POPC   C1B68359  38.708  30.599   6.450
 9797POPC   C2B68360  38.665  30.569   6.750
 9797POPC   C3B68361  38.618  30.566   7.050
 9797POPC   C4B68362  38.679  30.562   7.350
 9798POPC   NC368363  27.630  12.106   5.550
 9798POPC   PO468364  27.582  12.051   5.850
 9798POPC   GL168365  27.576  12.071   6.150
 9798POPC   GL268366  27.562  12.201   6.150
 9798POPC   C1A68367  27.615  12.079   6.450
 9798POPC   D2A68368  27.568  12.039   6.750
 9798POPC   C3A68369  27.571  12.052   7.050
 9798POPC   C4A68370  27.578  12.089   7.350
 9798POPC   C1B68371  27.475  12.316   6.450
 9798POPC   C2B68372  27.483  12.242   6.750
 9798POPC   C3B68373  27.436  12.243   7.050
 9798POPC   C4B68374  27.432  12.234   7.350
 9799POPC   NC368375  27.619   2.012   5.550
 9799POPC   PO468376  27.587   1.944   5.850
 9799POPC   GL168377  27.596   2.025   6.150
 9799POPC   GL268378  27.605   2.112   6.150
 9799POPC   C1A68379  27.597   1.946   6.450
 9799POPC   D2A68380  27.621   1.956   6.750
 9799POPC   C3A68381  27.624   1.976   7.050
 9799POPC   C4A68382  27.565   2.020   7.350
 9799POPC   C1B68383  27.656   2.187   6.450
 9799POPC   C2B68384  27.645   2.261   6.750
 9799POPC   C3B68385  27.674   2.200   7.050
 9799POPC   C4B68386  27.655   2.196   7.350
 9800POPC   NC368387  20.640  14.375   5.550
 9800POPC   PO468388  20.641  14.364   5.850
 9800POPC   GL168389  20.563  14.378   6.150
 9800POPC   GL268390  20.604  14.235   6.150
 9800POPC   C1A68391  20.616  14.384   6.450
 9800POPC   D2A68392  20.561  14.363   6.750
 9800POPC   C3A68393  20.600  14.416   7.050
 9800POPC   C4A68394  20.624  14.428   7.350
 9800POPC   C1B68395  20.594  14.161   6.450
 9800POPC   C2B68396  20.532  14.143   6.750
 9800POPC   C3B68397  20.595  14.154   7.050
 9800POPC   C4B68398  20.547  14.198   7.350
 9801POPC   NC368399  27.581   1.242   5.550
 9801POPC   PO468400  27.633   1.259   5.850
 9801POPC   GL168401  27.593   1.264   6.150
 9801POPC   GL268402  27.649   1.291   6.150
 9801POPC   C1A68403  27.636   1.241   6.450
 9801POPC   D2A68404  27.589   1.212   6.750
 9801POPC   C3A68405  27.569   1.173   7.050
 9801POPC   C4A68406  27.561   1.217   7.350
 9801POPC   C1B68407  27.765   1.350   6.450
 9801POPC   C2B68408  27.744   1.432   6.750
 9801POPC   C3B68409  27.744   1.368   7.050
 9801POPC   C4B68410  27.724   1.398   7.350
 9802POPC   NC368411  24.442  31.431   5.550
 9802POPC   PO468412  24.463  31.492   5.850
 9802POPC   GL168413  24.472  31.447   6.150
 9802POPC   GL268414  24.626  31.609   6.150
 9802POPC   C1A68415  24.514  31.500   6.450
 9802POPC   D2A68416  24.513  31.507   6.750
 9802POPC   C3A68417  24.517  31.477   7.050
 9802POPC   C4A68418  24.488  31.520   7.350
 9802POPC   C1B68419  24.703  31.614   6.450
 9802POPC   C2B68420  24.662  31.663   6.750
 9802POPC   C3B68421  24.684  31.666   7.050
 9802POPC   C4B68422  24.645  31.641   7.350
 9803POPC   NC368423  12.842   5.075   5.550
 9803POPC   PO468424  12.839   5.116   5.850
 9803POPC   GL168425  12.840   5.057   6.150
 9803POPC   GL268426  12.967   5.237   6.150
 9803POPC   C1A68427  12.866   5.089   6.450
 9803POPC   D2A68428  12.820   5.087   6.750
 9803POPC   C3A68429  12.845   5.051   7.050
 9803POPC   C4A68430  12.872   5.060   7.350
 9803POPC   C1B68431  12.968   5.314   6.450
 9803POPC   C2B68432  12.991   5.284   6.750
 9803POPC   C3B68433  12.980   5.290   7.050
 9803POPC   C4B68434  12.974   5.306   7.350
 9804POPC   NC368435   9.764  19.028   5.550
 9804POPC   PO468436   9.734  19.085   5.850
 9804POPC   GL168437   9.767  19.058   6.150
 9804POPC   GL268438   9.691  19.110   6.150
 9804POPC   C1A68439   9.758  19.091   6.450
 9804POPC   D2A68440   9.762  19.072   6.750
 9804POPC   C3A68441   9.774  19.012   7.050
 9804POPC   C4A68442   9.751  19.061   7.350
 9804POPC   C1B68443   9.581  19.250   6.450
 9804POPC   C2B68444   9.586  19.247   6.750
 9804POPC   C3B68445   9.631  19.264   7.050
 9804POPC   C4B68446   9.555  19.215   7.350
 9805POPC   NC368447  43.849  12.821   5.550
 9805POPC   PO468448  43.920  12.886   5.850
 9805POPC   GL168449  43.920  12.880   6.150
 9805POPC   GL268450  43.847  12.741   6.150
 9805POPC   C1A68451  43.840  12.829   6.450
 9805POPC   D2A68452  43.872  12.855   6.750
 9805POPC   C3A68453  43.886  12.819   7.050
 9805POPC   C4A68454  43.879  12.889   7.350
 9805POPC   C1B68455  43.820  12.643   6.450
 9805POPC   C2B68456  43.815  12.588   6.750
 9805POPC   C3B68457  43.812  12.649   7.050
 9805POPC   C4B68458  43.873  12.595   7.350
 9806POPC   NC368459  28.392   6.629   5.550
 9806POPC   PO468460  28.391   6.626   5.850
 9806POPC   GL168461  28.326   6.643   6.150
 9806POPC   GL268462  28.292   6.791   6.150
 9806POPC   C1A68463  28.329   6.648   6.450
 9806POPC   D2A68464  28.366   6.670   6.750
 9806POPC   C3A68465  28.397   6.617   7.050
 9806POPC   C4A68466  28.378   6.654   7.350
 9806POPC   C1B68467  28.256   6.845   6.450
 9806POPC   C2B68468  28.319   6.868   6.750
 9806POPC   C3B68469  28.278   6.874   7.050
 9806POPC   C4B68470  28.258   6.923   7.350
 9807POPC   NC368471   3.529  35.347   5.550
 9807POPC   PO468472   3.534  35.334   5.850
 9807POPC   GL168473   3.548  35.400   6.150
 9807POPC   GL268474   3.457  35.473   6.150
 9807POPC   C1A68475   3.533  35.378   6.450
 9807POPC   D2A68476   3.551  35.304   6.750
 9807POPC   C3A68477   3.555  35.373   7.050
 9807POPC   C4A68478   3.516  35.385   7.350
 9807POPC   C1B68479   3.428  35.504   6.450
 9807POPC   C2B68480   3.409  35.593   6.750
 9807POPC   C3B68481   3.346  35.587   7.050
 9807POPC   C4B68482   3.373  35.534   7.350
 9808POPC   NC368483  36.868  44.668   5.550
 9808POPC   PO468484  36.875  44.673   5.850
 9808POPC   GL168485  36.883  44.613   6.150
 9808POPC   GL268486  36.822  44.628   6.150
 9808POPC   C1A68487  36.860  44.696   6.450
 9808POPC   D2A68488  36.935  44.706   6.750
 9808POPC   C3A68489  36.921  44.640   7.050
 9808POPC   C4A68490  36.949  44.661   7.350
 9808POPC   C1B68491  36.611  44.592   6.450
 9808POPC   C2B68492  36.681  44.624   6.750
 9808POPC   C3B68493  36.615  44.612   7.050
 9808POPC   C4B68494  36.691  44.608   7.350
 9809POPC   NC368495  29.879   3.505   5.550
 9809POPC   PO468496  29.890   3.519   5.850
 9809POPC   GL168497  29.905   3.513   6.150
 9809POPC   GL268498  29.830   3.501   6.150
 9809POPC   C1A68499  29.899   3.559   6.450
 9809POPC   D2A68500  29.943   3.500   6.750
 9809POPC   C3A68501  29.926   3.502   7.050
 9809POPC   C4A68502  29.926   3.548   7.350
 9809POPC   C1B68503  29.727   3.388   6.450
 9809POPC   C2B68504  29.675   3.394   6.750
 9809POPC   C3B68505  29.669   3.412   7.050
 9809POPC   C4B68506  29.674   3.403   7.350
 9810POPC   NC368507  39.234  21.416   5.550
 9810POPC   PO468508  39.259  21.427   5.850
 9810POPC   GL168509  39.201  21.416   6.150
 9810POPC   GL268510  39.184  21.496   6.150
 9810POPC   C1A68511  39.269  21.397   6.450
 9810POPC   D2A68512  39.242  21.385   6.750
 9810POPC   C3A68513  39.220  21.405   7.050
 9810POPC   C4A68514  39.192  21.370   7.350
 9810POPC   C1B68515  39.104  21.606   6.450
 9810POPC   C2B68516  39.125  21.584   6.750
 9810POPC   C3B68517  39.150  21.569   7.050
 9810POPC   C4B68518  39.088  21.613   7.350
 9811POPC   NC368519  43.154  17.515   5.550
 9811POPC   PO468520  43.113  17.509   5.850
 9811POPC   GL168521  43.112  17.472   6.150
 9811POPC   GL268522  43.054  17.396   6.150
 9811POPC   C1A68523  43.131  17.502   6.450
 9811POPC   D2A68524  43.083  17.510   6.750
 9811POPC   C3A68525  43.134  17.544   7.050
 9811POPC   C4A68526  43.097  17.540   7.350
 9811POPC   C1B68527  43.129  17.230   6.450
 9811POPC   C2B68528  43.082  17.236   6.750
 9811POPC   C3B68529  43.094  17.263   7.050
 9811POPC   C4B68530  43.123  17.217   7.350
 9812POPC   NC368531  12.815  31.460   5.550
 9812POPC   PO468532  12.828  31.456   5.850
 9812POPC   GL168533  12.825  31.497   6.150
 9812POPC   GL268534  12.858  31.373   6.150
 9812POPC   C1A68535  12.871  31.512   6.450
 9812POPC   D2A68536  12.804  31.447   6.750
 9812POPC   C3A68537  12.866  31.427   7.050
 9812POPC   C4A68538  12.864  31.465   7.350
 9812POPC   C1B68539  12.882  31.187   6.450
 9812POPC   C2B68540  12.901  31.256   6.750
 9812POPC   C3B68541  12.831  31.234   7.050
 9812POPC   C4B68542  12.919  31.235   7.350
 9813POPC   NC368543  41.535  17.470   5.550
 9813POPC   PO468544  41.583  17.503   5.850
 9813POPC   GL168545  41.547  17.493   6.150
 9813POPC   GL268546  41.587  17.596   6.150
 9813POPC   C1A68547  41.572  17.527   6.450
 9813POPC   D2A68548  41.542  17.523   6.750
 9813POPC   C3A68549  41.573  17.479   7.050
 9813POPC   C4A68550  41.527  17.553   7.350
 9813POPC   C1B68551  41.680  17.772   6.450
 9813POPC   C2B68552  41.679  17.728   6.750
 9813POPC   C3B68553  41.722  17.685   7.050
 9813POPC   C4B68554  41.727  17.688   7.350
 9814POPC   NC368555  31.477  36.158   5.550
 9814POPC   PO468556  31.485  36.103   5.850
 9814POPC   GL168557  31.520  36.099   6.150
 9814POPC   GL268558  31.606  36.045   6.150
 9814POPC   C1A68559  31.503  36.080   6.450
 9814POPC   D2A68560  31.453  36.119   6.750
 9814POPC   C3A68561  31.489  36.136   7.050
 9814POPC   C4A68562  31.461  36.095   7.350
 9814POPC   C1B68563  31.643  35.969   6.450
 9814POPC   C2B68564  31.686  36.045   6.750
 9814POPC   C3B68565  31.665  36.012   7.050
 9814POPC   C4B68566  31.683  36.050   7.350
 9815POPC   NC368567  36.893  10.574   5.550
 9815POPC   PO468568  36.946  10.490   5.850
 9815POPC   GL168569  36.932  10.526   6.150
 9815POPC   GL268570  36.858  10.589   6.150
 9815POPC   C1A68571  36.871  10.563   6.450
 9815POPC   D2A68572  36.905  10.533   6.750
 9815POPC   C3A68573  36.921  10.533   7.050
 9815POPC   C4A68574  36.906  10.571   7.350
 9815POPC   C1B68575  36.766  10.735   6.450
 9815POPC   C2B68576  36.778  10.750   6.750
 9815POPC   C3B68577  36.831  10.729   7.050
 9815POPC   C4B68578  36.803  10.702   7.350
 9816POPC   NC368579  22.891  19.042   5.550
 9816POPC   PO468580  22.889  19.074   5.850
 9816POPC   GL168581  22.982  19.079   6.150
 9816POPC   GL268582  22.793  18.947   6.150
 9816POPC   C1A68583  22.912  19.036   6.450
 9816POPC   D2A68584  22.985  19.064   6.750
 9816POPC   C3A68585  22.916  19.014   7.050
 9816POPC   C4A68586  22.970  19.015   7.350
 9816POPC   C1B68587  22.713  18.888   6.450
 9816POPC   C2B68588  22.762  18.895   6.750
 9816POPC   C3B68589  22.686  18.957   7.050
 9816POPC   C4B68590  22.767  18.908   7.350
 9817POPC   NC368591  29.151  26.068   5.550
 9817POPC   PO468592  29.116  26.081   5.850
 9817POPC   GL168593  29.126  26.018   6.150
 9817POPC   GL268594  29.188  25.904   6.150
 9817POPC   C1A68595  29.120  26.033   6.450
 9817POPC   D2A68596  29.171  26.070   6.750
 9817POPC   C3A68597  29.194  26.061   7.050
 9817POPC   C4A68598  29.104  26.048   7.350
 9817POPC   C1B68599  29.185  25.770   6.450
 9817POPC   C2B68600  29.156  25.789   6.750
 9817POPC   C3B68601  29.182  25.812   7.050
 9817POPC   C4B68602  29.194  25.835   7.350
 9818POPC   NC368603  38.411  13.611   5.550
 9818POPC   PO468604  38.467  13.624   5.850
 9818POPC   GL168605  38.434  13.656   6.150
 9818POPC   GL268606  38.543  13.688   6.150
 9818POPC   C1A68607  38.422  13.633   6.450
 9818POPC   D2A68608  38.427  13.596   6.750
 9818POPC   C3A68609  38.441  13.662   7.050
 9818POPC   C4A68610  38.433  13.662   7.350
 9818POPC   C1B68611  38.577  13.876   6.450
 9818POPC   C2B68612  38.570  13.810   6.750
 9818POPC   C3B68613  38.559  13.866   7.050
 9818POPC   C4B68614  38.629  13.858   7.350
 9819POPC   NC368615  25.273  44.696   5.550
 9819POPC   PO468616  25.309  44.622   5.850
 9819POPC   GL168617  25.216  44.680   6.150
 9819POPC   GL268618  25.143  44.707   6.150
 9819POPC   C1A68619  25.257  44.689   6.450
 9819POPC   D2A68620  25.269  44.712   6.750
 9819POPC   C3A68621  25.301  44.684   7.050
 9819POPC   C4A68622  25.237  44.668   7.350
 9819POPC   C1B68623  25.060  44.777   6.450
 9819POPC   C2B68624  25.069  44.817   6.750
 9819POPC   C3B68625  25.016  44.846   7.050
 9819POPC   C4B68626  25.035  44.763   7.350
 9820POPC   NC368627  37.652  36.139   5.550
 9820POPC   PO468628  37.722  36.176   5.850
 9820POPC   GL168629  37.659  36.152   6.150
 9820POPC   GL268630  37.626  36.211   6.150
 9820POPC   C1A68631  37.680  36.140   6.450
 9820POPC   D2A68632  37.688  36.169   6.750
 9820POPC   C3A68633  37.727  36.155   7.050
 9820POPC   C4A68634  37.686  36.162   7.350
 9820POPC   C1B68635  37.602  36.401   6.450
 9820POPC   C2B68636  37.583  36.316   6.750
 9820POPC   C3B68637  37.566  36.377   7.050
 9820POPC   C4B68638  37.542  36.346   7.350
 9821POPC   NC368639  33.033   4.354   5.550
 9821POPC   PO468640  32.991   4.269   5.850
 9821POPC   GL168641  33.007   4.305   6.150
 9821POPC   GL268642  33.188   4.344   6.150
 9821POPC   C1A68643  33.038   4.295   6.450
 9821POPC   D2A68644  33.018   4.298   6.750
 9821POPC   C3A68645  33.017   4.366   7.050
 9821POPC   C4A68646  33.064   4.302   7.350
 9821POPC   C1B68647  33.264   4.335   6.450
 9821POPC   C2B68648  33.305   4.411   6.750
 9821POPC   C3B68649  33.267   4.421   7.050
 9821POPC   C4B68650  33.270   4.344   7.350
 9822POPC   NC368651  25.252   2.773   5.550
 9822POPC   PO468652  25.232   2.794   5.850
 9822POPC   GL168653  25.227   2.721   6.150
 9822POPC   GL268654  25.338   2.777   6.150
 9822POPC   C1A68655  25.280   2.809   6.450
 9822POPC   D2A68656  25.274   2.794   6.750
 9822POPC   C3A68657  25.279   2.724   7.050
 9822POPC   C4A68658  25.314   2.813   7.350
 9822POPC   C1B68659  25.543   2.830   6.450
 9822POPC   C2B68660  25.469   2.790   6.750
 9822POPC   C3B68661  25.490   2.847   7.050
 9822POPC   C4B68662  25.511   2.813   7.350
 9823POPC   NC368663  22.959  37.669   5.550
 9823POPC   PO468664  22.987  37.680   5.850
 9823POPC   GL168665  22.978  37.634   6.150
 9823POPC   GL268666  22.875  37.742   6.150
 9823POPC   C1A68667  22.974  37.653   6.450
 9823POPC   D2A68668  22.957  37.717   6.750
 9823POPC   C3A68669  22.971  37.704   7.050
 9823POPC   C4A68670  22.921  37.723   7.350
 9823POPC   C1B68671  22.788  37.904   6.450
 9823POPC   C2B68672  22.716  37.810   6.750
 9823POPC   C3B68673  22.731  37.859   7.050
 9823POPC   C4B68674  22.750  37.809   7.350
 9824POPC   NC368675   3.556   4.311   5.550
 9824POPC   PO468676   3.560   4.281   5.850
 9824POPC   GL168677   3.555   4.327   6.150
 9824POPC   GL268678   3.408   4.220   6.150
 9824POPC   C1A68679   3.534   4.285   6.450
 9824POPC   D2A68680   3.580   4.336   6.750
 9824POPC   C3A68681   3.508   4.320   7.050
 9824POPC   C4A68682   3.530   4.327   7.350
 9824POPC   C1B68683   3.370   4.211   6.450
 9824POPC   C2B68684   3.353   4.205   6.750
 9824POPC   C3B68685   3.351   4.158   7.050
 9824POPC   C4B68686   3.348   4.118   7.350
 9825POPC   NC368687  38.472  29.913   5.550
 9825POPC   PO468688  38.454  29.885   5.850
 9825POPC   GL168689  38.425  29.904   6.150
 9825POPC   GL268690  38.380  29.906   6.150
 9825POPC   C1A68691  38.473  29.959   6.450
 9825POPC   D2A68692  38.438  29.908   6.750
 9825POPC   C3A68693  38.471  29.915   7.050
 9825POPC   C4A68694  38.447  29.921   7.350
 9825POPC   C1B68695  38.214  29.937   6.450
 9825POPC   C2B68696  38.185  29.961   6.750
 9825POPC   C3B68697  38.248  29.870   7.050
 9825POPC   C4B68698  38.171  29.898   7.350
 9826POPC   NC368699  22.165  22.135   5.550
 9826POPC   PO468700  22.181  22.192   5.850
 9826POPC   GL168701  22.188  22.118   6.150
 9826POPC   GL268702  22.306  22.112   6.150
 9826POPC   C1A68703  22.200  22.130   6.450
 9826POPC   D2A68704  22.142  22.201   6.750
 9826POPC   C3A68705  22.120  22.179   7.050
 9826POPC   C4A68706  22.147  22.146   7.350
 9826POPC   C1B68707  22.366  22.061   6.450
 9826POPC   C2B68708  22.414  22.031   6.750
 9826POPC   C3B68709  22.357  22.110   7.050
 9826POPC   C4B68710  22.441  22.048   7.350
 9827POPC   NC368711  37.723  23.693   5.550
 9827POPC   PO468712  37.693  23.763   5.850
 9827POPC   GL168713  37.655  23.692   6.150
 9827POPC   GL268714  37.609  23.789   6.150
 9827POPC   C1A68715  37.726  23.685   6.450
 9827POPC   D2A68716  37.712  23.670   6.750
 9827POPC   C3A68717  37.680  23.750   7.050
 9827POPC   C4A68718  37.643  23.726   7.350
 9827POPC   C1B68719  37.471  23.888   6.450
 9827POPC   C2B68720  37.478  23.862   6.750
 9827POPC   C3B68721  37.532  23.901   7.050
 9827POPC   C4B68722  37.528  23.888   7.350
 9828POPC   NC368723  30.735  36.949   5.550
 9828POPC   PO468724  30.686  36.912   5.850
 9828POPC   GL168725  30.732  36.888   6.150
 9828POPC   GL268726  30.792  36.806   6.150
 9828POPC   C1A68727  30.667  36.888   6.450
 9828POPC   D2A68728  30.652  36.923   6.750
 9828POPC   C3A68729  30.705  36.856   7.050
 9828POPC   C4A68730  30.675  36.887   7.350
 9828POPC   C1B68731  30.881  36.740   6.450
 9828POPC   C2B68732  30.857  36.690   6.750
 9828POPC   C3B68733  30.927  36.707   7.050
 9828POPC   C4B68734  30.900  36.694   7.350
 9829POPC   NC368735  41.509  29.884   5.550
 9829POPC   PO468736  41.548  29.961   5.850
 9829POPC   GL168737  41.537  29.936   6.150
 9829POPC   GL268738  41.528  29.828   6.150
 9829POPC   C1A68739  41.595  29.956   6.450
 9829POPC   D2A68740  41.575  29.881   6.750
 9829POPC   C3A68741  41.575  29.902   7.050
 9829POPC   C4A68742  41.570  29.949   7.350
 9829POPC   C1B68743  41.463  29.640   6.450
 9829POPC   C2B68744  41.452  29.686   6.750
 9829POPC   C3B68745  41.532  29.687   7.050
 9829POPC   C4B68746  41.455  29.678   7.350
 9830POPC   NC368747  17.488  34.595   5.550
 9830POPC   PO468748  17.505  34.565   5.850
 9830POPC   GL168749  17.548  34.543   6.150
 9830POPC   GL268750  17.609  34.570   6.150
 9830POPC   C1A68751  17.554  34.534   6.450
 9830POPC   D2A68752  17.516  34.587   6.750
 9830POPC   C3A68753  17.461  34.565   7.050
 9830POPC   C4A68754  17.486  34.582   7.350
 9830POPC   C1B68755  17.769  34.570   6.450
 9830POPC   C2B68756  17.735  34.545   6.750
 9830POPC   C3B68757  17.715  34.585   7.050
 9830POPC   C4B68758  17.799  34.557   7.350
 9831POPC   NC368759  20.601  22.198   5.550
 9831POPC   PO468760  20.574  22.140   5.850
 9831POPC   GL168761  20.614  22.145   6.150
 9831POPC   GL268762  20.699  22.054   6.150
 9831POPC   C1A68763  20.631  22.165   6.450
 9831POPC   D2A68764  20.574  22.144   6.750
 9831POPC   C3A68765  20.654  22.136   7.050
 9831POPC   C4A68766  20.638  22.190   7.350
 9831POPC   C1B68767  20.786  21.994   6.450
 9831POPC   C2B68768  20.841  22.009   6.750
 9831POPC   C3B68769  20.859  22.017   7.050
 9831POPC   C4B68770  20.853  22.049   7.350
 9832POPC   NC368771  37.699  24.536   5.550
 9832POPC   PO468772  37.658  24.506   5.850
 9832POPC   GL168773  37.674  24.487   6.150
 9832POPC   GL268774  37.673  24.595   6.150
 9832POPC   C1A68775  37.641  24.478   6.450
 9832POPC   D2A68776  37.670  24.519   6.750
 9832POPC   C3A68777  37.718  24.462   7.050
 9832POPC   C4A68778  37.632  24.485   7.350
 9832POPC   C1B68779  37.662  24.779   6.450
 9832POPC   C2B68780  37.632  24.746   6.750
 9832POPC   C3B68781  37.688  24.744   7.050
 9832POPC   C4B68782  37.611  24.714   7.350
 9833POPC   NC368783  34.579  17.492   5.550
 9833POPC   PO468784  34.619  17.527   5.850
 9833POPC   GL168785  34.599  17.499   6.150
 9833POPC   GL268786  34.492  17.507   6.150
 9833POPC   C1A68787  34.552  17.467   6.450
 9833POPC   D2A68788  34.603  17.508   6.750
 9833POPC   C3A68789  34.616  17.506   7.050
 9833POPC   C4A68790  34.588  17.545   7.350
 9833POPC   C1B68791  34.321  17.401   6.450
 9833POPC   C2B68792  34.303  17.398   6.750
 9833POPC   C3B68793  34.371  17.469   7.050
 9833POPC   C4B68794  34.357  17.439   7.350
 9834POPC   NC368795  43.880  38.466   5.550
 9834POPC   PO468796  43.870  38.430   5.850
 9834POPC   GL168797  43.851  38.437   6.150
 9834POPC   GL268798  44.026  38.463   6.150
 9834POPC   C1A68799  43.844  38.454   6.450
 9834POPC   D2A68800  43.905  38.462   6.750
 9834POPC   C3A68801  43.854  38.481   7.050
 9834POPC   C4A68802  43.934  38.483   7.350
 9834POPC   C1B68803  44.159  38.337   6.450
 9834POPC   C2B68804  44.104  38.343   6.750
 9834POPC   C3B68805  44.150  38.361   7.050
 9834POPC   C4B68806  44.134  38.347   7.350
 9835POPC   NC368807  16.766  35.368   5.550
 9835POPC   PO468808  16.690  35.368   5.850
 9835POPC   GL168809  16.714  35.383   6.150
 9835POPC   GL268810  16.695  35.453   6.150
 9835POPC   C1A68811  16.751  35.324   6.450
 9835POPC   D2A68812  16.780  35.360   6.750
 9835POPC   C3A68813  16.759  35.387   7.050
 9835POPC   C4A68814  16.770  35.374   7.350
 9835POPC   C1B68815  16.564  35.535   6.450
 9835POPC   C2B68816  16.537  35.516   6.750
 9835POPC   C3B68817  16.576  35.517   7.050
 9835POPC   C4B68818  16.561  35.539   7.350
 9836POPC   NC368819  35.390  44.659   5.550
 9836POPC   PO468820  35.303  44.667   5.850
 9836POPC   GL168821  35.346  44.690   6.150
 9836POPC   GL268822  35.327  44.556   6.150
 9836POPC   C1A68823  35.317  44.619   6.450
 9836POPC   D2A68824  35.355  44.692   6.750
 9836POPC   C3A68825  35.329  44.709   7.050
 9836POPC   C4A68826  35.314  44.621   7.350
 9836POPC   C1B68827  35.242  44.482   6.450
 9836POPC   C2B68828  35.209  44.413   6.750
 9836POPC   C3B68829  35.212  44.453   7.050
 9836POPC   C4B68830  35.228  44.398   7.350
 9837POPC   NC368831  20.579  12.051   5.550
 9837POPC   PO468832  20.565  12.114   5.850
 9837POPC   GL168833  20.660  12.039   6.150
 9837POPC   GL268834  20.487  12.004   6.150
 9837POPC   C1A68835  20.613  12.045   6.450
 9837POPC   D2A68836  20.561  12.102   6.750
 9837POPC   C3A68837  20.610  12.102   7.050
 9837POPC   C4A68838  20.626  12.109   7.350
 9837POPC   C1B68839  20.341  12.014   6.450
 9837POPC   C2B68840  20.402  11.997   6.750
 9837POPC   C3B68841  20.402  11.993   7.050
 9837POPC   C4B68842  20.355  11.993   7.350
 9838POPC   NC368843  41.563  16.730   5.550
 9838POPC   PO468844  41.608  16.691   5.850
 9838POPC   GL168845  41.566  16.708   6.150
 9838POPC   GL268846  41.584  16.640   6.150
 9838POPC   C1A68847  41.547  16.775   6.450
 9838POPC   D2A68848  41.534  16.747   6.750
 9838POPC   C3A68849  41.590  16.702   7.050
 9838POPC   C4A68850  41.524  16.706   7.350
 9838POPC   C1B68851  41.640  16.540   6.450
 9838POPC   C2B68852  41.672  16.534   6.750
 9838POPC   C3B68853  41.614  16.474   7.050
 9838POPC   C4B68854  41.683  16.515   7.350
 9839POPC   NC368855  15.963  40.783   5.550
 9839POPC   PO468856  15.953  40.797   5.850
 9839POPC   GL168857  15.993  40.743   6.150
 9839POPC   GL268858  15.822  40.809   6.150
 9839POPC   C1A68859  15.927  40.738   6.450
 9839POPC   D2A68860  15.986  40.742   6.750
 9839POPC   C3A68861  15.937  40.789   7.050
 9839POPC   C4A68862  15.929  40.832   7.350
 9839POPC   C1B68863  15.744  40.755   6.450
 9839POPC   C2B68864  15.681  40.717   6.750
 9839POPC   C3B68865  15.708  40.786   7.050
 9839POPC   C4B68866  15.672  40.778   7.350
 9840POPC   NC368867  42.321  10.477   5.550
 9840POPC   PO468868  42.352  10.536   5.850
 9840POPC   GL168869  42.348  10.551   6.150
 9840POPC   GL268870  42.458  10.549   6.150
 9840POPC   C1A68871  42.324  10.477   6.450
 9840POPC   D2A68872  42.317  10.503   6.750
 9840POPC   C3A68873  42.315  10.560   7.050
 9840POPC   C4A68874  42.355  10.483   7.350
 9840POPC   C1B68875  42.542  10.633   6.450
 9840POPC   C2B68876  42.599  10.680   6.750
 9840POPC   C3B68877  42.563  10.624   7.050
 9840POPC   C4B68878  42.583  10.627   7.350
 9841POPC   NC368879  27.579  21.413   5.550
 9841POPC   PO468880  27.597  21.424   5.850
 9841POPC   GL168881  27.641  21.400   6.150
 9841POPC   GL268882  27.628  21.493   6.150
 9841POPC   C1A68883  27.579  21.382   6.450
 9841POPC   D2A68884  27.624  21.436   6.750
 9841POPC   C3A68885  27.608  21.405   7.050
 9841POPC   C4A68886  27.608  21.416   7.350
 9841POPC   C1B68887  27.625  21.646   6.450
 9841POPC   C2B68888  27.664  21.587   6.750
 9841POPC   C3B68889  27.683  21.624   7.050
 9841POPC   C4B68890  27.651  21.590   7.350
 9842POPC   NC368891  11.327  42.295   5.550
 9842POPC   PO468892  11.304  42.295   5.850
 9842POPC   GL168893  11.303  42.376   6.150
 9842POPC   GL268894  11.281  42.173   6.150
 9842POPC   C1A68895  11.260  42.310   6.450
 9842POPC   D2A68896  11.320  42.327   6.750
 9842POPC   C3A68897  11.321  42.327   7.050
 9842POPC   C4A68898  11.340  42.286   7.350
 9842POPC   C1B68899  11.258  42.129   6.450
 9842POPC   C2B68900  11.279  42.136   6.750
 9842POPC   C3B68901  11.303  42.086   7.050
 9842POPC   C4B68902  11.237  42.082   7.350
 9843POPC   NC368903  27.545  26.793   5.550
 9843POPC   PO468904  27.559  26.768   5.850
 9843POPC   GL168905  27.577  26.852   6.150
 9843POPC   GL268906  27.502  26.900   6.150
 9843POPC   C1A68907  27.598  26.799   6.450
 9843POPC   D2A68908  27.544  26.794   6.750
 9843POPC   C3A68909  27.572  26.805   7.050
 9843POPC   C4A68910  27.598  26.835   7.350
 9843POPC   C1B68911  27.491  27.012   6.450
 9843POPC   C2B68912  27.523  27.089   6.750
 9843POPC   C3B68913  27.453  27.066   7.050
 9843POPC   C4B68914  27.487  27.037   7.350
 9844POPC   NC368915   0.486  17.524   5.550
 9844POPC   PO468916   0.416  17.469   5.850
 9844POPC   GL168917   0.464  17.466   6.150
 9844POPC   GL268918   0.478  17.433   6.150
 9844POPC   C1A68919   0.410  17.550   6.450
 9844POPC   D2A68920   0.420  17.470   6.750
 9844POPC   C3A68921   0.477  17.474   7.050
 9844POPC   C4A68922   0.443  17.504   7.350
 9844POPC   C1B68923   0.491  17.238   6.450
 9844POPC   C2B68924   0.498  17.291   6.750
 9844POPC   C3B68925   0.493  17.283   7.050
 9844POPC   C4B68926   0.474  17.279   7.350
 9845POPC   NC368927  43.848  16.779   5.550
 9845POPC   PO468928  43.849  16.727   5.850
 9845POPC   GL168929  43.883  16.703   6.150
 9845POPC   GL268930  44.007  16.772   6.150
 9845POPC   C1A68931  43.886  16.718   6.450
 9845POPC   D2A68932  43.873  16.732   6.750
 9845POPC   C3A68933  43.900  16.775   7.050
 9845POPC   C4A68934  43.927  16.764   7.350
 9845POPC   C1B68935  44.094  16.720   6.450
 9845POPC   C2B68936  44.178  16.714   6.750
 9845POPC   C3B68937  44.106  16.739   7.050
 9845POPC   C4B68938  44.137  16.678   7.350
 9846POPC   NC368939  12.841  30.674   5.550
 9846POPC   PO468940  12.841  30.706   5.850
 9846POPC   GL168941  12.854  30.673   6.150
 9846POPC   GL268942  12.981  30.704   6.150
 9846POPC   C1A68943  12.823  30.650   6.450
 9846POPC   D2A68944  12.858  30.683   6.750
 9846POPC   C3A68945  12.810  30.680   7.050
 9846POPC   C4A68946  12.832  30.742   7.350
 9846POPC   C1B68947  13.116  30.771   6.450
 9846POPC   C2B68948  13.120  30.772   6.750
 9846POPC   C3B68949  13.104  30.794   7.050
 9846POPC   C4B68950  13.083  30.811   7.350
 9847POPC   NC368951  13.626  24.484   5.550
 9847POPC   PO468952  13.582  24.521   5.850
 9847POPC   GL168953  13.594  24.517   6.150
 9847POPC   GL268954  13.704  24.423   6.150
 9847POPC   C1A68955  13.597  24.531   6.450
 9847POPC   D2A68956  13.591  24.477   6.750
 9847POPC   C3A68957  13.615  24.444   7.050
 9847POPC   C4A68958  13.672  24.498   7.350
 9847POPC   C1B68959  13.804  24.352   6.450
 9847POPC   C2B68960  13.785  24.296   6.750
 9847POPC   C3B68961  13.750  24.273   7.050
 9847POPC   C4B68962  13.827  24.302   7.350
 9848POPC   NC368963  30.736  43.072   5.550
 9848POPC   PO468964  30.736  43.144   5.850
 9848POPC   GL168965  30.725  43.122   6.150
 9848POPC   GL268966  30.841  43.197   6.150
 9848POPC   C1A68967  30.727  43.068   6.450
 9848POPC   D2A68968  30.700  43.153   6.750
 9848POPC   C3A68969  30.713  43.076   7.050
 9848POPC   C4A68970  30.700  43.144   7.350
 9848POPC   C1B68971  30.958  43.238   6.450
 9848POPC   C2B68972  30.911  43.181   6.750
 9848POPC   C3B68973  30.910  43.191   7.050
 9848POPC   C4B68974  30.941  43.220   7.350
 9849POPC   NC368975  25.256  39.972   5.550
 9849POPC   PO468976  25.289  40.029   5.850
 9849POPC   GL168977  25.293  39.974   6.150
 9849POPC   GL268978  25.202  40.078   6.150
 9849POPC   C1A68979  25.260  40.051   6.450
 9849POPC   D2A68980  25.315  40.055   6.750
 9849POPC   C3A68981  25.267  40.055   7.050
 9849POPC   C4A68982  25.241  39.964   7.350
 9849POPC   C1B68983  25.071  40.135   6.450
 9849POPC   C2B68984  25.020  40.134   6.750
 9849POPC   C3B68985  25.083  40.138   7.050
 9849POPC   C4B68986  25.049  40.134   7.350
 9850POPC   NC368987  36.895  36.877   5.550
 9850POPC   PO468988  36.906  36.892   5.850
 9850POPC   GL168989  36.884  36.906   6.150
 9850POPC   GL268990  36.776  36.875   6.150
 9850POPC   C1A68991  36.856  36.913   6.450
 9850POPC   D2A68992  36.942  36.921   6.750
 9850POPC   C3A68993  36.906  36.947   7.050
 9850POPC   C4A68994  36.918  36.856   7.350
 9850POPC   C1B68995  36.690  36.819   6.450
 9850POPC   C2B68996  36.643  36.793   6.750
 9850POPC   C3B68997  36.644  36.863   7.050
 9850POPC   C4B68998  36.645  36.849   7.350
 9851POPC   NC368999  29.930  21.427   5.550
 9851POPC   PO469000  29.890  21.427   5.850
 9851POPC   GL169001  29.967  21.371   6.150
 9851POPC   GL269002  29.984  21.313   6.150
 9851POPC   C1A69003  29.959  21.363   6.450
 9851POPC   D2A69004  29.904  21.402   6.750
 9851POPC   C3A69005  29.881  21.336   7.050
 9851POPC   C4A69006  29.887  21.345   7.350
 9851POPC   C1B69007  30.129  21.193   6.450
 9851POPC   C2B69008  30.085  21.254   6.750
 9851POPC   C3B69009  30.111  21.214   7.050
 9851POPC   C4B69010  30.100  21.271   7.350
 9852POPC   NC369011  24.529  15.991   5.550
 9852POPC   PO469012  24.445  15.959   5.850
 9852POPC   GL169013  24.482  15.919   6.150
 9852POPC   GL269014  24.597  15.894   6.150
 9852POPC   C1A69015  24.513  15.969   6.450
 9852POPC   D2A69016  24.477  15.931   6.750
 9852POPC   C3A69017  24.472  15.927   7.050
 9852POPC   C4A69018  24.456  15.958   7.350
 9852POPC   C1B69019  24.707  15.807   6.450
 9852POPC   C2B69020  24.689  15.841   6.750
 9852POPC   C3B69021  24.715  15.797   7.050
 9852POPC   C4B69022  24.725  15.817   7.350
 9853POPC   NC369023  42.380  40.754   5.550
 9853POPC   PO469024  42.383  40.800   5.850
 9853POPC   GL169025  42.305  40.780   6.150
 9853POPC   GL269026  42.307  40.904   6.150
 9853POPC   C1A69027  42.333  40.791   6.450
 9853POPC   D2A69028  42.313  40.799   6.750
 9853POPC   C3A69029  42.366  40.767   7.050
 9853POPC   C4A69030  42.292  40.791   7.350
 9853POPC   C1B69031  42.276  41.043   6.450
 9853POPC   C2B69032  42.287  41.002   6.750
 9853POPC   C3B69033  42.275  41.012   7.050
 9853POPC   C4B69034  42.239  41.013   7.350
 9854POPC   NC369035  30.723  29.129   5.550
 9854POPC   PO469036  30.718  29.112   5.850
 9854POPC   GL169037  30.647  29.181   6.150
 9854POPC   GL269038  30.802  29.091   6.150
 9854POPC   C1A69039  30.693  29.178   6.450
 9854POPC   D2A69040  30.679  29.194   6.750
 9854POPC   C3A69041  30.687  29.113   7.050
 9854POPC   C4A69042  30.723  29.150   7.350
 9854POPC   C1B69043  30.912  29.089   6.450
 9854POPC   C2B69044  30.928  29.112   6.750
 9854POPC   C3B69045  30.984  29.073   7.050
 9854POPC   C4B69046  30.964  29.108   7.350
 9855POPC   NC369047   3.577  13.636   5.550
 9855POPC   PO469048   3.576  13.582   5.850
 9855POPC   GL169049   3.535  13.669   6.150
 9855POPC   GL269050   3.431  13.751   6.150
 9855POPC   C1A69051   3.588  13.652   6.450
 9855POPC   D2A69052   3.521  13.606   6.750
 9855POPC   C3A69053   3.576  13.579   7.050
 9855POPC   C4A69054   3.582  13.672   7.350
 9855POPC   C1B69055   3.334  13.770   6.450
 9855POPC   C2B69056   3.422  13.851   6.750
 9855POPC   C3B69057   3.354  13.846   7.050
 9855POPC   C4B69058   3.394  13.772   7.350
 9856POPC   NC369059  15.944   2.730   5.550
 9856POPC   PO469060  15.919   2.814   5.850
 9856POPC   GL169061  15.928   2.744   6.150
 9856POPC   GL269062  16.059   2.856   6.150
 9856POPC   C1A69063  15.970   2.760   6.450
 9856POPC   D2A69064  15.977   2.727   6.750
 9856POPC   C3A69065  15.977   2.742   7.050
 9856POPC   C4A69066  15.922   2.756   7.350
 9856POPC   C1B69067  16.204   2.897   6.450
 9856POPC   C2B69068  16.128   2.864   6.750
 9856POPC   C3B69069  16.142   2.906   7.050
 9856POPC   C4B69070  16.147   2.936   7.350
 9857POPC   NC369071  22.896   0.481   5.550
 9857POPC   PO469072  22.912   0.401   5.850
 9857POPC   GL169073  22.890   0.403   6.150
 9857POPC   GL269074  22.858   0.374   6.150
 9857POPC   C1A69075  22.910   0.391   6.450
 9857POPC   D2A69076  22.982   0.441   6.750
 9857POPC   C3A69077  22.919   0.480   7.050
 9857POPC   C4A69078  22.932   0.438   7.350
 9857POPC   C1B69079  22.838   0.250   6.450
 9857POPC   C2B69080  22.769   0.202   6.750
 9857POPC   C3B69081  22.783   0.271   7.050
 9857POPC   C4B69082  22.806   0.213   7.350
 9858POPC   NC369083  10.512  37.644   5.550
 9858POPC   PO469084  10.483  37.677   5.850
 9858POPC   GL169085  10.557  37.687   6.150
 9858POPC   GL269086  10.392  37.563   6.150
 9858POPC   C1A69087  10.530  37.719   6.450
 9858POPC   D2A69088  10.474  37.644   6.750
 9858POPC   C3A69089  10.475  37.646   7.050
 9858POPC   C4A69090  10.533  37.667   7.350
 9858POPC   C1B69091  10.270  37.497   6.450
 9858POPC   C2B69092  10.309  37.587   6.750
 9858POPC   C3B69093  10.343  37.577   7.050
 9858POPC   C4B69094  10.297  37.517   7.350
 9859POPC   NC369095  26.004  33.057   5.550
 9859POPC   PO469096  26.087  32.985   5.850
 9859POPC   GL169097  26.008  33.052   6.150
 9859POPC   GL269098  25.989  33.173   6.150
 9859POPC   C1A69099  26.030  33.057   6.450
 9859POPC   D2A69100  26.005  33.021   6.750
 9859POPC   C3A69101  26.062  33.063   7.050
 9859POPC   C4A69102  26.000  33.060   7.350
 9859POPC   C1B69103  26.054  33.235   6.450
 9859POPC   C2B69104  26.006  33.244   6.750
 9859POPC   C3B69105  26.024  33.266   7.050
 9859POPC   C4B69106  26.019  33.267   7.350
 9860POPC   NC369107  37.667  26.046   5.550
 9860POPC   PO469108  37.704  26.001   5.850
 9860POPC   GL169109  37.672  26.004   6.150
 9860POPC   GL269110  37.543  26.081   6.150
 9860POPC   C1A69111  37.646  26.030   6.450
 9860POPC   D2A69112  37.679  26.026   6.750
 9860POPC   C3A69113  37.696  26.022   7.050
 9860POPC   C4A69114  37.717  26.036   7.350
 9860POPC   C1B69115  37.505  26.147   6.450
 9860POPC   C2B69116  37.511  26.179   6.750
 9860POPC   C3B69117  37.500  26.142   7.050
 9860POPC   C4B69118  37.453  26.140   7.350
 9861POPC   NC369119  29.905  10.555   5.550
 9861POPC   PO469120  29.927  10.532   5.850
 9861POPC   GL169121  29.874  10.487   6.150
 9861POPC   GL269122  29.920  10.610   6.150
 9861POPC   C1A69123  29.961  10.531   6.450
 9861POPC   D2A69124  29.878  10.551   6.750
 9861POPC   C3A69125  29.930  10.545   7.050
 9861POPC   C4A69126  29.945  10.511   7.350
 9861POPC   C1B69127  29.956  10.807   6.450
 9861POPC   C2B69128  29.984  10.756   6.750
 9861POPC   C3B69129  29.914  10.805   7.050
 9861POPC   C4B69130  29.964  10.763   7.350
 9862POPC   NC369131   1.250  12.039   5.550
 9862POPC   PO469132   1.202  12.102   5.850
 9862POPC   GL169133   1.182  12.058   6.150
 9862POPC   GL269134   1.271  12.138   6.150
 9862POPC   C1A69135   1.185  12.062   6.450
 9862POPC   D2A69136   1.216  12.060   6.750
 9862POPC   C3A69137   1.237  12.109   7.050
 9862POPC   C4A69138   1.227  12.088   7.350
 9862POPC   C1B69139   1.454  12.234   6.450
 9862POPC   C2B69140   1.441  12.238   6.750
 9862POPC   C3B69141   1.435  12.242   7.050
 9862POPC   C4B69142   1.432  12.262   7.350
 9863POPC   NC369143  36.151  16.708   5.550
 9863POPC   PO469144  36.117  16.709   5.850
 9863POPC   GL169145  36.097  16.755   6.150
 9863POPC   GL269146  36.039  16.815   6.150
 9863POPC   C1A69147  36.139  16.758   6.450
 9863POPC   D2A69148  36.087  16.750   6.750
 9863POPC   C3A69149  36.149  16.686   7.050
 9863POPC   C4A69150  36.092  16.746   7.350
 9863POPC   C1B69151  35.916  16.897   6.450
 9863POPC   C2B69152  35.869  16.886   6.750
 9863POPC   C3B69153  35.922  16.851   7.050
 9863POPC   C4B69154  35.888  16.858   7.350
 9864POPC   NC369155   5.140  26.049   5.550
 9864POPC   PO469156   5.138  26.069   5.850
 9864POPC   GL169157   5.089  26.027   6.150
 9864POPC   GL269158   4.941  26.041   6.150
 9864POPC   C1A69159   5.046  26.056   6.450
 9864POPC   D2A69160   5.045  25.998   6.750
 9864POPC   C3A69161   5.056  26.012   7.050
 9864POPC   C4A69162   5.079  26.004   7.350
 9864POPC   C1B69163   4.878  26.009   6.450
 9864POPC   C2B69164   4.892  26.087   6.750
 9864POPC   C3B69165   4.829  26.050   7.050
 9864POPC   C4B69166   4.825  26.031   7.350
 9865POPC   NC369167   8.154   7.377   5.550
 9865POPC   PO469168   8.244   7.377   5.850
 9865POPC   GL169169   8.245   7.423   6.150
 9865POPC   GL269170   8.132   7.341   6.150
 9865POPC   C1A69171   8.166   7.428   6.450
 9865POPC   D2A69172   8.186   7.395   6.750
 9865POPC   C3A69173   8.203   7.377   7.050
 9865POPC   C4A69174   8.217   7.465   7.350
 9865POPC   C1B69175   8.073   7.275   6.450
 9865POPC   C2B69176   8.020   7.275   6.750
 9865POPC   C3B69177   8.010   7.182   7.050
 9865POPC   C4B69178   8.010   7.198   7.350
 9866POPC   NC369179  38.477  19.854   5.550
 9866POPC   PO469180  38.473  19.808   5.850
 9866POPC   GL169181  38.417  19.791   6.150
 9866POPC   GL269182  38.539  19.920   6.150
 9866POPC   C1A69183  38.503  19.834   6.450
 9866POPC   D2A69184  38.464  19.870   6.750
 9866POPC   C3A69185  38.452  19.800   7.050
 9866POPC   C4A69186  38.425  19.818   7.350
 9866POPC   C1B69187  38.640  19.940   6.450
 9866POPC   C2B69188  38.655  19.958   6.750
 9866POPC   C3B69189  38.711  19.984   7.050
 9866POPC   C4B69190  38.661  19.950   7.350
 9867POPC   NC369191   8.240   4.351   5.550
 9867POPC   PO469192   8.167   4.286   5.850
 9867POPC   GL169193   8.224   4.365   6.150
 9867POPC   GL269194   8.262   4.221   6.150
 9867POPC   C1A69195   8.174   4.269   6.450
 9867POPC   D2A69196   8.164   4.353   6.750
 9867POPC   C3A69197   8.171   4.282   7.050
 9867POPC   C4A69198   8.157   4.308   7.350
 9867POPC   C1B69199   8.354   4.188   6.450
 9867POPC   C2B69200   8.359   4.159   6.750
 9867POPC   C3B69201   8.387   4.196   7.050
 9867POPC   C4B69202   8.433   4.148   7.350
 9868POPC   NC369203  14.355  39.239   5.550
 9868POPC   PO469204  14.402  39.217   5.850
 9868POPC   GL169205  14.389  39.218   6.150
 9868POPC   GL269206  14.326  39.140   6.150
 9868POPC   C1A69207  14.431  39.200   6.450
 9868POPC   D2A69208  14.415  39.210   6.750
 9868POPC   C3A69209  14.376  39.214   7.050
 9868POPC   C4A69210  14.447  39.257   7.350
 9868POPC   C1B69211  14.250  39.058   6.450
 9868POPC   C2B69212  14.227  39.070   6.750
 9868POPC   C3B69213  14.230  39.083   7.050
 9868POPC   C4B69214  14.217  39.059   7.350
 9869POPC   NC369215  28.346  19.797   5.550
 9869POPC   PO469216  28.357  19.844   5.850
 9869POPC   GL169217  28.385  19.839   6.150
 9869POPC   GL269218  28.508  19.872   6.150
 9869POPC   C1A69219  28.396  19.846   6.450
 9869POPC   D2A69220  28.327  19.865   6.750
 9869POPC   C3A69221  28.414  19.837   7.050
 9869POPC   C4A69222  28.335  19.865   7.350
 9869POPC   C1B69223  28.552  19.940   6.450
 9869POPC   C2B69224  28.554  19.905   6.750
 9869POPC   C3B69225  28.596  19.892   7.050
 9869POPC   C4B69226  28.553  19.929   7.350
 9870POPC   NC369227  31.497   4.307   5.550
 9870POPC   PO469228  31.516   4.333   5.850
 9870POPC   GL169229  31.510   4.314   6.150
 9870POPC   GL269230  31.343   4.246   6.150
 9870POPC   C1A69231  31.427   4.300   6.450
 9870POPC   D2A69232  31.480   4.343   6.750
 9870POPC   C3A69233  31.423   4.342   7.050
 9870POPC   C4A69234  31.496   4.317   7.350
 9870POPC   C1B69235  31.335   4.145   6.450
 9870POPC   C2B69236  31.263   4.166   6.750
 9870POPC   C3B69237  31.278   4.147   7.050
 9870POPC   C4B69238  31.259   4.094   7.350
 9871POPC   NC369239  30.745  31.519   5.550
 9871POPC   PO469240  30.695  31.440   5.850
 9871POPC   GL169241  30.672  31.504   6.150
 9871POPC   GL269242  30.783  31.574   6.150
 9871POPC   C1A69243  30.666  31.518   6.450
 9871POPC   D2A69244  30.669  31.505   6.750
 9871POPC   C3A69245  30.709  31.465   7.050
 9871POPC   C4A69246  30.665  31.452   7.350
 9871POPC   C1B69247  30.944  31.595   6.450
 9871POPC   C2B69248  30.890  31.653   6.750
 9871POPC   C3B69249  30.933  31.651   7.050
 9871POPC   C4B69250  30.899  31.619   7.350
 9872POPC   NC369251   2.778  15.913   5.550
 9872POPC   PO469252   2.762  15.945   5.850
 9872POPC   GL169253   2.731  15.906   6.150
 9872POPC   GL269254   2.811  15.849   6.150
 9872POPC   C1A69255   2.775  15.977   6.450
 9872POPC   D2A69256   2.770  16.001   6.750
 9872POPC   C3A69257   2.739  15.950   7.050
 9872POPC   C4A69258   2.809  15.941   7.350
 9872POPC   C1B69259   2.733  15.715   6.450
 9872POPC   C2B69260   2.781  15.706   6.750
 9872POPC   C3B69261   2.744  15.682   7.050
 9872POPC   C4B69262   2.778  15.747   7.350
 9873POPC   NC369263  37.697  18.246   5.550
 9873POPC   PO469264  37.666  18.281   5.850
 9873POPC   GL169265  37.673  18.240   6.150
 9873POPC   GL269266  37.538  18.384   6.150
 9873POPC   C1A69267  37.727  18.292   6.450
 9873POPC   D2A69268  37.698  18.321   6.750
 9873POPC   C3A69269  37.691  18.310   7.050
 9873POPC   C4A69270  37.693  18.259   7.350
 9873POPC   C1B69271  37.485  18.355   6.450
 9873POPC   C2B69272  37.440  18.438   6.750
 9873POPC   C3B69273  37.410  18.388   7.050
 9873POPC   C4B69274  37.436  18.428   7.350
 9874POPC   NC369275   3.525   5.916   5.550
 9874POPC   PO469276   3.506   5.852   5.850
 9874POPC   GL169277   3.492   5.840   6.150
 9874POPC   GL269278   3.623   5.855   6.150
 9874POPC   C1A69279   3.536   5.840   6.450
 9874POPC   D2A69280   3.505   5.876   6.750
 9874POPC   C3A69281   3.587   5.895   7.050
 9874POPC   C4A69282   3.514   5.841   7.350
 9874POPC   C1B69283   3.744   5.713   6.450
 9874POPC   C2B69284   3.727   5.727   6.750
 9874POPC   C3B69285   3.752   5.754   7.050
 9874POPC   C4B69286   3.740   5.739   7.350
 9875POPC   NC369287  26.784  42.339   5.550
 9875POPC   PO469288  26.856  42.319   5.850
 9875POPC   GL169289  26.834  42.319   6.150
 9875POPC   GL269290  26.681  42.385   6.150
 9875POPC   C1A69291  26.832  42.288   6.450
 9875POPC   D2A69292  26.802  42.317   6.750
 9875POPC   C3A69293  26.775  42.379   7.050
 9875POPC   C4A69294  26.857  42.308   7.350
 9875POPC   C1B69295  26.577  42.436   6.450
 9875POPC   C2B69296  26.573  42.471   6.750
 9875POPC   C3B69297  26.638  42.514   7.050
 9875POPC   C4B69298  26.626  42.514   7.350
 9876POPC   NC369299   8.202  21.368   5.550
 9876POPC   PO469300   8.186  21.411   5.850
 9876POPC   GL169301   8.239  21.338   6.150
 9876POPC   GL269302   8.058  21.420   6.150
 9876POPC   C1A69303   8.163  21.366   6.450
 9876POPC   D2A69304   8.238  21.407   6.750
 9876POPC   C3A69305   8.243  21.407   7.050
 9876POPC   C4A69306   8.213  21.424   7.350
 9876POPC   C1B69307   7.931  21.417   6.450
 9876POPC   C2B69308   7.939  21.338   6.750
 9876POPC   C3B69309   7.917  21.420   7.050
 9876POPC   C4B69310   7.907  21.392   7.350
 9877POPC   NC369311  32.266  23.759   5.550
 9877POPC   PO469312  32.251  23.763   5.850
 9877POPC   GL169313  32.266  23.716   6.150
 9877POPC   GL269314  32.279  23.555   6.150
 9877POPC   C1A69315  32.292  23.692   6.450
 9877POPC   D2A69316  32.245  23.721   6.750
 9877POPC   C3A69317  32.236  23.669   7.050
 9877POPC   C4A69318  32.243  23.719   7.350
 9877POPC   C1B69319  32.336  23.498   6.450
 9877POPC   C2B69320  32.362  23.510   6.750
 9877POPC   C3B69321  32.341  23.446   7.050
 9877POPC   C4B69322  32.399  23.526   7.350
 9878POPC   NC369323  19.037   8.166   5.550
 9878POPC   PO469324  19.045   8.195   5.850
 9878POPC   GL169325  19.041   8.242   6.150
 9878POPC   GL269326  19.153   8.231   6.150
 9878POPC   C1A69327  19.070   8.220   6.450
 9878POPC   D2A69328  19.036   8.176   6.750
 9878POPC   C3A69329  19.029   8.236   7.050
 9878POPC   C4A69330  19.085   8.215   7.350
 9878POPC   C1B69331  19.262   8.188   6.450
 9878POPC   C2B69332  19.335   8.234   6.750
 9878POPC   C3B69333  19.280   8.212   7.050
 9878POPC   C4B69334  19.311   8.143   7.350
 9879POPC   NC369335  34.541  25.260   5.550
 9879POPC   PO469336  34.579  25.302   5.850
 9879POPC   GL169337  34.557  25.315   6.150
 9879POPC   GL269338  34.518  25.341   6.150
 9879POPC   C1A69339  34.609  25.271   6.450
 9879POPC   D2A69340  34.598  25.296   6.750
 9879POPC   C3A69341  34.608  25.273   7.050
 9879POPC   C4A69342  34.583  25.311   7.350
 9879POPC   C1B69343  34.398  25.435   6.450
 9879POPC   C2B69344  34.420  25.507   6.750
 9879POPC   C3B69345  34.442  25.448   7.050
 9879POPC   C4B69346  34.458  25.495   7.350
 9880POPC   NC369347  43.903  15.213   5.550
 9880POPC   PO469348  43.888  15.151   5.850
 9880POPC   GL169349  43.841  15.170   6.150
 9880POPC   GL269350  43.989  15.209   6.150
 9880POPC   C1A69351  43.839  15.197   6.450
 9880POPC   D2A69352  43.923  15.177   6.750
 9880POPC   C3A69353  43.902  15.147   7.050
 9880POPC   C4A69354  43.846  15.164   7.350
 9880POPC   C1B69355  44.103  15.313   6.450
 9880POPC   C2B69356  44.098  15.228   6.750
 9880POPC   C3B69357  44.085  15.300   7.050
 9880POPC   C4B69358  44.113  15.239   7.350
 9881POPC   NC369359   1.241   3.523   5.550
 9881POPC   PO469360   1.261   3.578   5.850
 9881POPC   GL169361   1.213   3.515   6.150
 9881POPC   GL269362   1.323   3.563   6.150
 9881POPC   C1A69363   1.212   3.507   6.450
 9881POPC   D2A69364   1.253   3.582   6.750
 9881POPC   C3A69365   1.187   3.591   7.050
 9881POPC   C4A69366   1.202   3.513   7.350
 9881POPC   C1B69367   1.401   3.608   6.450
 9881POPC   C2B69368   1.429   3.662   6.750
 9881POPC   C3B69369   1.449   3.668   7.050
 9881POPC   C4B69370   1.487   3.652   7.350
 9882POPC   NC369371  22.949  15.915   5.550
 9882POPC   PO469372  22.980  15.916   5.850
 9882POPC   GL169373  22.942  15.940   6.150
 9882POPC   GL269374  22.901  15.873   6.150
 9882POPC   C1A69375  22.892  15.953   6.450
 9882POPC   D2A69376  22.954  15.982   6.750
 9882POPC   C3A69377  22.979  15.960   7.050
 9882POPC   C4A69378  22.901  15.940   7.350
 9882POPC   C1B69379  22.902  15.664   6.450
 9882POPC   C2B69380  22.903  15.671   6.750
 9882POPC   C3B69381  22.877  15.675   7.050
 9882POPC   C4B69382  22.936  15.715   7.350
 9883POPC   NC369383  21.342  15.956   5.550
 9883POPC   PO469384  21.419  15.941   5.850
 9883POPC   GL169385  21.348  15.955   6.150
 9883POPC   GL269386  21.374  15.850   6.150
 9883POPC   C1A69387  21.398  15.929   6.450
 9883POPC   D2A69388  21.346  15.997   6.750
 9883POPC   C3A69389  21.350  15.921   7.050
 9883POPC   C4A69390  21.407  15.972   7.350
 9883POPC   C1B69391  21.242  15.715   6.450
 9883POPC   C2B69392  21.276  15.703   6.750
 9883POPC   C3B69393  21.292  15.719   7.050
 9883POPC   C4B69394  21.292  15.752   7.350
 9884POPC   NC369395  26.075   1.183   5.550
 9884POPC   PO469396  26.076   1.234   5.850
 9884POPC   GL169397  26.017   1.231   6.150
 9884POPC   GL269398  26.017   1.129   6.150
 9884POPC   C1A69399  26.049   1.220   6.450
 9884POPC   D2A69400  26.045   1.233   6.750
 9884POPC   C3A69401  26.055   1.171   7.050
 9884POPC   C4A69402  26.087   1.243   7.350
 9884POPC   C1B69403  26.098   0.974   6.450
 9884POPC   C2B69404  26.076   0.932   6.750
 9884POPC   C3B69405  26.100   0.925   7.050
 9884POPC   C4B69406  26.073   0.944   7.350
 9885POPC   NC369407  37.728   0.435   5.550
 9885POPC   PO469408  37.706   0.401   5.850
 9885POPC   GL169409  37.671   0.457   6.150
 9885POPC   GL269410  37.835   0.450   6.150
 9885POPC   C1A69411  37.728   0.420   6.450
 9885POPC   D2A69412  37.655   0.432   6.750
 9885POPC   C3A69413  37.643   0.442   7.050
 9885POPC   C4A69414  37.657   0.487   7.350
 9885POPC   C1B69415  37.903   0.397   6.450
 9885POPC   C2B69416  37.966   0.473   6.750
 9885POPC   C3B69417  37.898   0.406   7.050
 9885POPC   C4B69418  37.907   0.393   7.350
 9886POPC   NC369419  15.947  13.603   5.550
 9886POPC   PO469420  15.948  13.672   5.850
 9886POPC   GL169421  15.961  13.600   6.150
 9886POPC   GL269422  15.990  13.483   6.150
 9886POPC   C1A69423  15.939  13.586   6.450
 9886POPC   D2A69424  15.991  13.646   6.750
 9886POPC   C3A69425  15.940  13.606   7.050
 9886POPC   C4A69426  15.979  13.673   7.350
 9886POPC   C1B69427  15.964  13.414   6.450
 9886POPC   C2B69428  16.028  13.370   6.750
 9886POPC   C3B69429  15.966  13.388   7.050
 9886POPC   C4B69430  16.055  13.428   7.350
 9887POPC   NC369431  19.841   1.254   5.550
 9887POPC   PO469432  19.805   1.234   5.850
 9887POPC   GL169433  19.838   1.256   6.150
 9887POPC   GL269434  19.890   1.087   6.150
 9887POPC   C1A69435  19.845   1.204   6.450
 9887POPC   D2A69436  19.859   1.264   6.750
 9887POPC   C3A69437  19.860   1.236   7.050
 9887POPC   C4A69438  19.862   1.219   7.350
 9887POPC   C1B69439  20.009   1.045   6.450
 9887POPC   C2B69440  20.001   1.058   6.750
 9887POPC   C3B69441  19.939   0.981   7.050
 9887POPC   C4B69442  19.968   0.966   7.350
 9888POPC   NC369443   4.275  41.599   5.550
 9888POPC   PO469444   4.284  41.596   5.850
 9888POPC   GL169445   4.358  41.601   6.150
 9888POPC   GL269446   4.411  41.422   6.150
 9888POPC   C1A69447   4.345  41.513   6.450
 9888POPC   D2A69448   4.277  41.565   6.750
 9888POPC   C3A69449   4.342  41.516   7.050
 9888POPC   C4A69450   4.334  41.538   7.350
 9888POPC   C1B69451   4.463  41.312   6.450
 9888POPC   C2B69452   4.438  41.356   6.750
 9888POPC   C3B69453   4.438  41.353   7.050
 9888POPC   C4B69454   4.448  41.388   7.350
 9889POPC   NC369455  11.269   8.965   5.550
 9889POPC   PO469456  11.347   8.937   5.850
 9889POPC   GL169457  11.337   8.932   6.150
 9889POPC   GL269458  11.194   8.958   6.150
 9889POPC   C1A69459  11.333   8.946   6.450
 9889POPC   D2A69460  11.302   8.945   6.750
 9889POPC   C3A69461  11.298   9.003   7.050
 9889POPC   C4A69462  11.313   9.011   7.350
 9889POPC   C1B69463  11.021   8.866   6.450
 9889POPC   C2B69464  11.079   8.900   6.750
 9889POPC   C3B69465  11.043   8.919   7.050
 9889POPC   C4B69466  11.098   8.922   7.350
 9890POPC   NC369467   4.346  12.062   5.550
 9890POPC   PO469468   4.280  12.026   5.850
 9890POPC   GL169469   4.315  12.041   6.150
 9890POPC   GL269470   4.297  12.157   6.150
 9890POPC   C1A69471   4.289  12.040   6.450
 9890POPC   D2A69472   4.277  12.089   6.750
 9890POPC   C3A69473   4.286  12.039   7.050
 9890POPC   C4A69474   4.298  12.068   7.350
 9890POPC   C1B69475   4.178  12.329   6.450
 9890POPC   C2B69476   4.179  12.338   6.750
 9890POPC   C3B69477   4.212  12.265   7.050
 9890POPC   C4B69478   4.188  12.314   7.350
 9891POPC   NC369479  39.985  42.315   5.550
 9891POPC   PO469480  40.021  42.301   5.850
 9891POPC   GL169481  40.038  42.310   6.150
 9891POPC   GL269482  39.919  42.239   6.150
 9891POPC   C1A69483  39.965  42.322   6.450
 9891POPC   D2A69484  40.014  42.348   6.750
 9891POPC   C3A69485  40.008  42.318   7.050
 9891POPC   C4A69486  40.057  42.316   7.350
 9891POPC   C1B69487  39.917  42.139   6.450
 9891POPC   C2B69488  39.864  42.074   6.750
 9891POPC   C3B69489  39.952  42.108   7.050
 9891POPC   C4B69490  39.859  42.147   7.350
 9892POPC   NC369491  44.658  41.513   5.550
 9892POPC   PO469492  44.701  41.552   5.850
 9892POPC   GL169493  44.657  41.543   6.150
 9892POPC   GL269494  44.580  41.611   6.150
 9892POPC   C1A69495  44.696  41.512   6.450
 9892POPC   D2A69496  44.617  41.533   6.750
 9892POPC   C3A69497  44.638  41.532   7.050
 9892POPC   C4A69498  44.649  41.522   7.350
 9892POPC   C1B69499  44.397  41.645   6.450
 9892POPC   C2B69500  44.427  41.678   6.750
 9892POPC   C3B69501  44.410  41.636   7.050
 9892POPC   C4B69502  44.435  41.630   7.350
 9893POPC   NC369503   8.165  38.433   5.550
 9893POPC   PO469504   8.236  38.438   5.850
 9893POPC   GL169505   8.200  38.469   6.150
 9893POPC   GL269506   8.098  38.446   6.150
 9893POPC   C1A69507   8.199  38.464   6.450
 9893POPC   D2A69508   8.200  38.428   6.750
 9893POPC   C3A69509   8.208  38.487   7.050
 9893POPC   C4A69510   8.198  38.424   7.350
 9893POPC   C1B69511   7.935  38.548   6.450
 9893POPC   C2B69512   7.975  38.539   6.750
 9893POPC   C3B69513   7.993  38.479   7.050
 9893POPC   C4B69514   7.943  38.530   7.350
 9894POPC   NC369515   2.001   5.044   5.550
 9894POPC   PO469516   2.019   5.076   5.850
 9894POPC   GL169517   1.992   5.063   6.150
 9894POPC   GL269518   2.150   5.102   6.150
 9894POPC   C1A69519   2.033   5.102   6.450
 9894POPC   D2A69520   1.952   5.109   6.750
 9894POPC   C3A69521   1.945   5.074   7.050
 9894POPC   C4A69522   1.964   5.084   7.350
 9894POPC   C1B69523   2.211   5.213   6.450
 9894POPC   C2B69524   2.212   5.242   6.750
 9894POPC   C3B69525   2.196   5.171   7.050
 9894POPC   C4B69526   2.244   5.235   7.350
 9895POPC   NC369527  22.171  29.917   5.550
 9895POPC   PO469528  22.167  29.883   5.850
 9895POPC   GL169529  22.211  29.892   6.150
 9895POPC   GL269530  22.281  29.785   6.150
 9895POPC   C1A69531  22.177  29.954   6.450
 9895POPC   D2A69532  22.147  29.929   6.750
 9895POPC   C3A69533  22.163  29.895   7.050
 9895POPC   C4A69534  22.168  29.878   7.350
 9895POPC   C1B69535  22.318  29.769   6.450
 9895POPC   C2B69536  22.333  29.742   6.750
 9895POPC   C3B69537  22.354  29.772   7.050
 9895POPC   C4B69538  22.321  29.762   7.350
 9896POPC   NC369539  42.384  35.309   5.550
 9896POPC   PO469540  42.324  35.328   5.850
 9896POPC   GL169541  42.305  35.326   6.150
 9896POPC   GL269542  42.211  35.308   6.150
 9896POPC   C1A69543  42.354  35.372   6.450
 9896POPC   D2A69544  42.344  35.313   6.750
 9896POPC   C3A69545  42.365  35.393   7.050
 9896POPC   C4A69546  42.351  35.365   7.350
 9896POPC   C1B69547  42.142  35.265   6.450
 9896POPC   C2B69548  42.088  35.231   6.750
 9896POPC   C3B69549  42.055  35.292   7.050
 9896POPC   C4B69550  42.128  35.292   7.350
 9897POPC   NC369551  27.596  24.516   5.550
 9897POPC   PO469552  27.598  24.511   5.850
 9897POPC   GL169553  27.566  24.535   6.150
 9897POPC   GL269554  27.508  24.513   6.150
 9897POPC   C1A69555  27.582  24.535   6.450
 9897POPC   D2A69556  27.620  24.456   6.750
 9897POPC   C3A69557  27.584  24.451   7.050
 9897POPC   C4A69558  27.635  24.525   7.350
 9897POPC   C1B69559  27.380  24.524   6.450
 9897POPC   C2B69560  27.337  24.533   6.750
 9897POPC   C3B69561  27.374  24.577   7.050
 9897POPC   C4B69562  27.385  24.531   7.350
 9898POPC   NC369563  13.607  19.880   5.550
 9898POPC   PO469564  13.636  19.791   5.850
 9898POPC   GL169565  13.626  19.816   6.150
 9898POPC   GL269566  13.476  19.882   6.150
 9898POPC   C1A69567  13.650  19.845   6.450
 9898POPC   D2A69568  13.623  19.848   6.750
 9898POPC   C3A69569  13.632  19.874   7.050
 9898POPC   C4A69570  13.636  19.880   7.350
 9898POPC   C1B69571  13.460  19.930   6.450
 9898POPC   C2B69572  13.394  19.947   6.750
 9898POPC   C3B69573  13.436  19.949   7.050
 9898POPC   C4B69574  13.400  19.944   7.350
 9899POPC   NC369575   4.344  43.902   5.550
 9899POPC   PO469576   4.291  43.899   5.850
 9899POPC   GL169577   4.354  43.922   6.150
 9899POPC   GL269578   4.425  43.946   6.150
 9899POPC   C1A69579   4.320  43.886   6.450
 9899POPC   D2A69580   4.327  43.905   6.750
 9899POPC   C3A69581   4.308  43.908   7.050
 9899POPC   C4A69582   4.329  43.885   7.350
 9899POPC   C1B69583   4.611  43.932   6.450
 9899POPC   C2B69584   4.558  43.912   6.750
 9899POPC   C3B69585   4.615  43.900   7.050
 9899POPC   C4B69586   4.537  43.909   7.350
 9900POPC   NC369587  15.939   5.873   5.550
 9900POPC   PO469588  15.979   5.841   5.850
 9900POPC   GL169589  15.942   5.898   6.150
 9900POPC   GL269590  15.865   5.817   6.150
 9900POPC   C1A69591  15.929   5.901   6.450
 9900POPC   D2A69592  15.960   5.911   6.750
 9900POPC   C3A69593  15.926   5.832   7.050
 9900POPC   C4A69594  15.979   5.912   7.350
 9900POPC   C1B69595  15.748   5.752   6.450
 9900POPC   C2B69596  15.781   5.776   6.750
 9900POPC   C3B69597  15.728   5.751   7.050
 9900POPC   C4B69598  15.763   5.728   7.350
 9901POPC   NC369599  12.879   6.638   5.550
 9901POPC   PO469600  12.891   6.604   5.850
 9901POPC   GL169601  12.823   6.652   6.150
 9901POPC   GL269602  12.713   6.725   6.150
 9901POPC   C1A69603  12.888   6.605   6.450
 9901POPC   D2A69604  12.862   6.647   6.750
 9901POPC   C3A69605  12.834   6.666   7.050
 9901POPC   C4A69606  12.829   6.641   7.350
 9901POPC   C1B69607  12.593   6.776   6.450
 9901POPC   C2B69608  12.637   6.742   6.750
 9901POPC   C3B69609  12.663   6.744   7.050
 9901POPC   C4B69610  12.619   6.760   7.350
 9902POPC   NC369611  15.151  33.835   5.550
 9902POPC   PO469612  15.175  33.786   5.850
 9902POPC   GL169613  15.171  33.816   6.150
 9902POPC   GL269614  15.269  33.687   6.150
 9902POPC   C1A69615  15.144  33.815   6.450
 9902POPC   D2A69616  15.214  33.820   6.750
 9902POPC   C3A69617  15.219  33.757   7.050
 9902POPC   C4A69618  15.195  33.786   7.350
 9902POPC   C1B69619  15.324  33.610   6.450
 9902POPC   C2B69620  15.349  33.598   6.750
 9902POPC   C3B69621  15.340  33.593   7.050
 9902POPC   C4B69622  15.403  33.610   7.350
 9903POPC   NC369623  36.090  43.897   5.550
 9903POPC   PO469624  36.126  43.864   5.850
 9903POPC   GL169625  36.159  43.852   6.150
 9903POPC   GL269626  36.052  43.796   6.150
 9903POPC   C1A69627  36.101  43.912   6.450
 9903POPC   D2A69628  36.156  43.838   6.750
 9903POPC   C3A69629  36.089  43.907   7.050
 9903POPC   C4A69630  36.084  43.856   7.350
 9903POPC   C1B69631  35.919  43.784   6.450
 9903POPC   C2B69632  35.916  43.718   6.750
 9903POPC   C3B69633  35.903  43.756   7.050
 9903POPC   C4B69634  35.957  43.748   7.350
 9904POPC   NC369635  12.112  39.962   5.550
 9904POPC   PO469636  12.080  40.009   5.850
 9904POPC   GL169637  12.053  39.968   6.150
 9904POPC   GL269638  12.015  39.962   6.150
 9904POPC   C1A69639  12.104  39.992   6.450
 9904POPC   D2A69640  12.042  40.007   6.750
 9904POPC   C3A69641  12.037  39.968   7.050
 9904POPC   C4A69642  12.093  39.994   7.350
 9904POPC   C1B69643  11.916  39.838   6.450
 9904POPC   C2B69644  11.917  39.867   6.750
 9904POPC   C3B69645  11.865  39.810   7.050
 9904POPC   C4B69646  11.845  39.809   7.350
 9905POPC   NC369647  39.271  16.694   5.550
 9905POPC   PO469648  39.204  16.758   5.850
 9905POPC   GL169649  39.223  16.762   6.150
 9905POPC   GL269650  39.349  16.773   6.150
 9905POPC   C1A69651  39.196  16.775   6.450
 9905POPC   D2A69652  39.198  16.689   6.750
 9905POPC   C3A69653  39.249  16.683   7.050
 9905POPC   C4A69654  39.236  16.700   7.350
 9905POPC   C1B69655  39.409  16.898   6.450
 9905POPC   C2B69656  39.438  16.833   6.750
 9905POPC   C3B69657  39.453  16.884   7.050
 9905POPC   C4B69658  39.423  16.851   7.350
 9906POPC   NC369659  14.402  16.731   5.550
 9906POPC   PO469660  14.366  16.753   5.850
 9906POPC   GL169661  14.376  16.778   6.150
 9906POPC   GL269662  14.428  16.902   6.150
 9906POPC   C1A69663  14.362  16.767   6.450
 9906POPC   D2A69664  14.446  16.688   6.750
 9906POPC   C3A69665  14.381  16.707   7.050
 9906POPC   C4A69666  14.415  16.780   7.350
 9906POPC   C1B69667  14.437  16.936   6.450
 9906POPC   C2B69668  14.415  17.025   6.750
 9906POPC   C3B69669  14.389  16.959   7.050
 9906POPC   C4B69670  14.486  16.963   7.350
 9907POPC   NC369671   4.344  29.953   5.550
 9907POPC   PO469672   4.329  29.950   5.850
 9907POPC   GL169673   4.333  29.961   6.150
 9907POPC   GL269674   4.339  29.767   6.150
 9907POPC   C1A69675   4.340  29.951   6.450
 9907POPC   D2A69676   4.320  29.966   6.750
 9907POPC   C3A69677   4.335  29.960   7.050
 9907POPC   C4A69678   4.310  29.886   7.350
 9907POPC   C1B69679   4.269  29.667   6.450
 9907POPC   C2B69680   4.294  29.640   6.750
 9907POPC   C3B69681   4.225  29.645   7.050
 9907POPC   C4B69682   4.243  29.665   7.350
 9908POPC   NC369683  39.216   0.422   5.550
 9908POPC   PO469684  39.225   0.434   5.850
 9908POPC   GL169685  39.228   0.481   6.150
 9908POPC   GL269686  39.322   0.506   6.150
 9908POPC   C1A69687  39.195   0.478   6.450
 9908POPC   D2A69688  39.227   0.389   6.750
 9908POPC   C3A69689  39.251   0.456   7.050
 9908POPC   C4A69690  39.254   0.432   7.350
 9908POPC   C1B69691  39.362   0.643   6.450
 9908POPC   C2B69692  39.364   0.654   6.750
 9908POPC   C3B69693  39.354   0.657   7.050
 9908POPC   C4B69694  39.348   0.680   7.350
 9909POPC   NC369695   6.600   1.978   5.550
 9909POPC   PO469696   6.665   1.947   5.850
 9909POPC   GL169697   6.690   1.958   6.150
 9909POPC   GL269698   6.664   1.845   6.150
 9909POPC   C1A69699   6.605   1.975   6.450
 9909POPC   D2A69700   6.680   1.998   6.750
 9909POPC   C3A69701   6.664   1.982   7.050
 9909POPC   C4A69702   6.675   1.988   7.350
 9909POPC   C1B69703   6.703   1.740   6.450
 9909POPC   C2B69704   6.689   1.735   6.750
 9909POPC   C3B69705   6.661   1.782   7.050
 9909POPC   C4B69706   6.666   1.696   7.350
 9910POPC   NC369707  36.878  18.278   5.550
 9910POPC   PO469708  36.913  18.323   5.850
 9910POPC   GL169709  36.911  18.297   6.150
 9910POPC   GL269710  37.065  18.246   6.150
 9910POPC   C1A69711  36.882  18.270   6.450
 9910POPC   D2A69712  36.860  18.319   6.750
 9910POPC   C3A69713  36.899  18.283   7.050
 9910POPC   C4A69714  36.914  18.238   7.350
 9910POPC   C1B69715  37.167  18.292   6.450
 9910POPC   C2B69716  37.194  18.289   6.750
 9910POPC   C3B69717  37.116  18.303   7.050
 9910POPC   C4B69718  37.176  18.321   7.350
 9911POPC   NC369719  22.133  18.291   5.550
 9911POPC   PO469720  22.160  18.238   5.850
 9911POPC   GL169721  22.127  18.272   6.150
 9911POPC   GL269722  22.194  18.200   6.150
 9911POPC   C1A69723  22.123  18.298   6.450
 9911POPC   D2A69724  22.159  18.258   6.750
 9911POPC   C3A69725  22.138  18.301   7.050
 9911POPC   C4A69726  22.206  18.332   7.350
 9911POPC   C1B69727  22.239  18.045   6.450
 9911POPC   C2B69728  22.291  18.089   6.750
 9911POPC   C3B69729  22.230  18.029   7.050
 9911POPC   C4B69730  22.238  18.095   7.350
 9912POPC   NC369731  19.799   1.970   5.550
 9912POPC   PO469732  19.818   1.940   5.850
 9912POPC   GL169733  19.816   1.940   6.150
 9912POPC   GL269734  19.813   2.117   6.150
 9912POPC   C1A69735  19.863   2.034   6.450
 9912POPC   D2A69736  19.824   1.993   6.750
 9912POPC   C3A69737  19.882   2.013   7.050
 9912POPC   C4A69738  19.818   1.946   7.350
 9912POPC   C1B69739  19.867   2.216   6.450
 9912POPC   C2B69740  19.812   2.208   6.750
 9912POPC   C3B69741  19.858   2.240   7.050
 9912POPC   C4B69742  19.882   2.196   7.350
 9913POPC   NC369743  26.055  19.813   5.550
 9913POPC   PO469744  26.005  19.880   5.850
 9913POPC   GL169745  26.034  19.802   6.150
 9913POPC   GL269746  26.079  19.972   6.150
 9913POPC   C1A69747  26.063  19.833   6.450
 9913POPC   D2A69748  26.013  19.815   6.750
 9913POPC   C3A69749  26.075  19.807   7.050
 9913POPC   C4A69750  26.068  19.828   7.350
 9913POPC   C1B69751  26.010  20.130   6.450
 9913POPC   C2B69752  26.061  20.082   6.750
 9913POPC   C3B69753  26.024  20.132   7.050
 9913POPC   C4B69754  26.034  20.069   7.350
 9914POPC   NC369755  23.751  21.381   5.550
 9914POPC   PO469756  23.735  21.390   5.850
 9914POPC   GL169757  23.712  21.361   6.150
 9914POPC   GL269758  23.735  21.522   6.150
 9914POPC   C1A69759  23.718  21.398   6.450
 9914POPC   D2A69760  23.682  21.374   6.750
 9914POPC   C3A69761  23.665  21.354   7.050
 9914POPC   C4A69762  23.684  21.420   7.350
 9914POPC   C1B69763  23.779  21.619   6.450
 9914POPC   C2B69764  23.800  21.577   6.750
 9914POPC   C3B69765  23.829  21.600   7.050
 9914POPC   C4B69766  23.804  21.649   7.350
 9915POPC   NC369767  14.377  28.351   5.550
 9915POPC   PO469768  14.379  28.402   5.850
 9915POPC   GL169769  14.391  28.324   6.150
 9915POPC   GL269770  14.268  28.376   6.150
 9915POPC   C1A69771  14.450  28.353   6.450
 9915POPC   D2A69772  14.356  28.337   6.750
 9915POPC   C3A69773  14.380  28.396   7.050
 9915POPC   C4A69774  14.384  28.324   7.350
 9915POPC   C1B69775  14.173  28.334   6.450
 9915POPC   C2B69776  14.198  28.407   6.750
 9915POPC   C3B69777  14.194  28.330   7.050
 9915POPC   C4B69778  14.137  28.350   7.350
 9916POPC   NC369779   8.981  29.157   5.550
 9916POPC   PO469780   9.020  29.146   5.850
 9916POPC   GL169781   8.997  29.139   6.150
 9916POPC   GL269782   8.905  29.254   6.150
 9916POPC   C1A69783   8.926  29.117   6.450
 9916POPC   D2A69784   9.000  29.156   6.750
 9916POPC   C3A69785   8.960  29.139   7.050
 9916POPC   C4A69786   8.972  29.177   7.350
 9916POPC   C1B69787   8.718  29.267   6.450
 9916POPC   C2B69788   8.799  29.280   6.750
 9916POPC   C3B69789   8.716  29.284   7.050
 9916POPC   C4B69790   8.809  29.254   7.350
 9917POPC   NC369791  17.518  42.346   5.550
 9917POPC   PO469792  17.495  42.384   5.850
 9917POPC   GL169793  17.547  42.320   6.150
 9917POPC   GL269794  17.376  42.260   6.150
 9917POPC   C1A69795  17.495  42.328   6.450
 9917POPC   D2A69796  17.522  42.366   6.750
 9917POPC   C3A69797  17.538  42.319   7.050
 9917POPC   C4A69798  17.525  42.290   7.350
 9917POPC   C1B69799  17.281  42.221   6.450
 9917POPC   C2B69800  17.257  42.210   6.750
 9917POPC   C3B69801  17.296  42.293   7.050
 9917POPC   C4B69802  17.297  42.269   7.350
 9918POPC   NC369803  44.683  24.509   5.550
 9918POPC   PO469804  44.667  24.527   5.850
 9918POPC   GL169805  44.703  24.522   6.150
 9918POPC   GL269806  44.572  24.591   6.150
 9918POPC   C1A69807  44.668  24.457   6.450
 9918POPC   D2A69808  44.655  24.473   6.750
 9918POPC   C3A69809  44.691  24.519   7.050
 9918POPC   C4A69810  44.689  24.483   7.350
 9918POPC   C1B69811  44.504  24.659   6.450
 9918POPC   C2B69812  44.425  24.589   6.750
 9918POPC   C3B69813  44.433  24.647   7.050
 9918POPC   C4B69814  44.484  24.606   7.350
 9919POPC   NC369815  36.158  39.276   5.550
 9919POPC   PO469816  36.159  39.262   5.850
 9919POPC   GL169817  36.084  39.189   6.150
 9919POPC   GL269818  36.132  39.400   6.150
 9919POPC   C1A69819  36.174  39.190   6.450
 9919POPC   D2A69820  36.089  39.202   6.750
 9919POPC   C3A69821  36.106  39.259   7.050
 9919POPC   C4A69822  36.109  39.254   7.350
 9919POPC   C1B69823  36.077  39.469   6.450
 9919POPC   C2B69824  36.047  39.462   6.750
 9919POPC   C3B69825  36.056  39.474   7.050
 9919POPC   C4B69826  36.052  39.439   7.350
 9920POPC   NC369827  36.163  29.922   5.550
 9920POPC   PO469828  36.130  29.909   5.850
 9920POPC   GL169829  36.112  29.924   6.150
 9920POPC   GL269830  36.283  29.854   6.150
 9920POPC   C1A69831  36.119  29.873   6.450
 9920POPC   D2A69832  36.172  29.912   6.750
 9920POPC   C3A69833  36.120  29.911   7.050
 9920POPC   C4A69834  36.172  29.872   7.350
 9920POPC   C1B69835  36.417  29.872   6.450
 9920POPC   C2B69836  36.333  29.840   6.750
 9920POPC   C3B69837  36.367  29.827   7.050
 9920POPC   C4B69838  36.398  29.878   7.350
 9921POPC   NC369839  41.515   2.730   5.550
 9921POPC   PO469840  41.570   2.746   5.850
 9921POPC   GL169841  41.519   2.764   6.150
 9921POPC   GL269842  41.473   2.682   6.150
 9921POPC   C1A69843  41.597   2.741   6.450
 9921POPC   D2A69844  41.596   2.740   6.750
 9921POPC   C3A69845  41.569   2.739   7.050
 9921POPC   C4A69846  41.553   2.800   7.350
 9921POPC   C1B69847  41.305   2.584   6.450
 9921POPC   C2B69848  41.373   2.604   6.750
 9921POPC   C3B69849  41.375   2.604   7.050
 9921POPC   C4B69850  41.392   2.604   7.350
 9922POPC   NC369851  13.668  21.388   5.550
 9922POPC   PO469852  13.630  21.420   5.850
 9922POPC   GL169853  13.665  21.338   6.150
 9922POPC   GL269854  13.503  21.388   6.150
 9922POPC   C1A69855  13.624  21.413   6.450
 9922POPC   D2A69856  13.661  21.381   6.750
 9922POPC   C3A69857  13.606  21.371   7.050
 9922POPC   C4A69858  13.650  21.369   7.350
 9922POPC   C1B69859  13.353  21.329   6.450
 9922POPC   C2B69860  13.400  21.268   6.750
 9922POPC   C3B69861  13.380  21.260   7.050
 9922POPC   C4B69862  13.347  21.267   7.350
 9923POPC   NC369863  43.079  32.210   5.550
 9923POPC   PO469864  43.076  32.212   5.850
 9923POPC   GL169865  43.146  32.279   6.150
 9923POPC   GL269866  43.236  32.219   6.150
 9923POPC   C1A69867  43.074  32.222   6.450
 9923POPC   D2A69868  43.110  32.234   6.750
 9923POPC   C3A69869  43.081  32.206   7.050
 9923POPC   C4A69870  43.134  32.298   7.350
 9923POPC   C1B69871  43.361  32.182   6.450
 9923POPC   C2B69872  43.374  32.196   6.750
 9923POPC   C3B69873  43.314  32.249   7.050
 9923POPC   C4B69874  43.355  32.181   7.350
 9924POPC   NC369875   1.251  19.804   5.550
 9924POPC   PO469876   1.242  19.836   5.850
 9924POPC   GL169877   1.257  19.858   6.150
 9924POPC   GL269878   1.296  19.777   6.150
 9924POPC   C1A69879   1.209  19.833   6.450
 9924POPC   D2A69880   1.170  19.874   6.750
 9924POPC   C3A69881   1.247  19.839   7.050
 9924POPC   C4A69882   1.186  19.823   7.350
 9924POPC   C1B69883   1.469  19.771   6.450
 9924POPC   C2B69884   1.429  19.826   6.750
 9924POPC   C3B69885   1.496  19.841   7.050
 9924POPC   C4B69886   1.434  19.754   7.350
 9925POPC   NC369887  23.736  22.176   5.550
 9925POPC   PO469888  23.668  22.134   5.850
 9925POPC   GL169889  23.731  22.159   6.150
 9925POPC   GL269890  23.729  22.055   6.150
 9925POPC   C1A69891  23.737  22.205   6.450
 9925POPC   D2A69892  23.707  22.114   6.750
 9925POPC   C3A69893  23.743  22.113   7.050
 9925POPC   C4A69894  23.702  22.195   7.350
 9925POPC   C1B69895  23.691  21.901   6.450
 9925POPC   C2B69896  23.705  21.936   6.750
 9925POPC   C3B69897  23.660  21.961   7.050
 9925POPC   C4B69898  23.649  21.870   7.350
 9926POPC   NC369899  11.311   3.517   5.550
 9926POPC   PO469900  11.277   3.563   5.850
 9926POPC   GL169901  11.330   3.531   6.150
 9926POPC   GL269902  11.334   3.689   6.150
 9926POPC   C1A69903  11.338   3.555   6.450
 9926POPC   D2A69904  11.252   3.567   6.750
 9926POPC   C3A69905  11.271   3.526   7.050
 9926POPC   C4A69906  11.306   3.572   7.350
 9926POPC   C1B69907  11.293   3.764   6.450
 9926POPC   C2B69908  11.338   3.792   6.750
 9926POPC   C3B69909  11.326   3.834   7.050
 9926POPC   C4B69910  11.308   3.822   7.350
 9927POPC   NC369911  28.328  20.587   5.550
 9927POPC   PO469912  28.372  20.629   5.850
 9927POPC   GL169913  28.405  20.618   6.150
 9927POPC   GL269914  28.286  20.669   6.150
 9927POPC   C1A69915  28.339  20.632   6.450
 9927POPC   D2A69916  28.361  20.578   6.750
 9927POPC   C3A69917  28.391  20.638   7.050
 9927POPC   C4A69918  28.399  20.660   7.350
 9927POPC   C1B69919  28.125  20.713   6.450
 9927POPC   C2B69920  28.131  20.645   6.750
 9927POPC   C3B69921  28.101  20.627   7.050
 9927POPC   C4B69922  28.148  20.676   7.350
 9928POPC   NC369923  39.963   5.909   5.550
 9928POPC   PO469924  39.983   5.859   5.850
 9928POPC   GL169925  39.958   5.847   6.150
 9928POPC   GL269926  40.150   5.852   6.150
 9928POPC   C1A69927  39.962   5.903   6.450
 9928POPC   D2A69928  40.037   5.894   6.750
 9928POPC   C3A69929  40.028   5.899   7.050
 9928POPC   C4A69930  40.002   5.869   7.350
 9928POPC   C1B69931  40.290   5.852   6.450
 9928POPC   C2B69932  40.266   5.834   6.750
 9928POPC   C3B69933  40.255   5.822   7.050
 9928POPC   C4B69934  40.217   5.827   7.350
 9929POPC   NC369935  14.381  38.462   5.550
 9929POPC   PO469936  14.366  38.495   5.850
 9929POPC   GL169937  14.393  38.483   6.150
 9929POPC   GL269938  14.309  38.441   6.150
 9929POPC   C1A69939  14.420  38.406   6.450
 9929POPC   D2A69940  14.400  38.431   6.750
 9929POPC   C3A69941  14.409  38.477   7.050
 9929POPC   C4A69942  14.432  38.417   7.350
 9929POPC   C1B69943  14.182  38.358   6.450
 9929POPC   C2B69944  14.178  38.375   6.750
 9929POPC   C3B69945  14.196  38.317   7.050
 9929POPC   C4B69946  14.169  38.381   7.350
 9930POPC   NC369947  43.873   9.796   5.550
 9930POPC   PO469948  43.917   9.773   5.850
 9930POPC   GL169949  43.902   9.797   6.150
 9930POPC   GL269950  43.960   9.727   6.150
 9930POPC   C1A69951  43.845   9.721   6.450
 9930POPC   D2A69952  43.842   9.788   6.750
 9930POPC   C3A69953  43.901   9.775   7.050
 9930POPC   C4A69954  43.878   9.761   7.350
 9930POPC   C1B69955  44.170   9.783   6.450
 9930POPC   C2B69956  44.133   9.828   6.750
 9930POPC   C3B69957  44.136   9.749   7.050
 9930POPC   C4B69958  44.182   9.754   7.350
 9931POPC   NC369959   5.851  44.645   5.550
 9931POPC   PO469960   5.894  44.677   5.850
 9931POPC   GL169961   5.866  44.615   6.150
 9931POPC   GL269962   5.944  44.533   6.150
 9931POPC   C1A69963   5.833  44.658   6.450
 9931POPC   D2A69964   5.834  44.692   6.750
 9931POPC   C3A69965   5.836  44.640   7.050
 9931POPC   C4A69966   5.840  44.628   7.350
 9931POPC   C1B69967   6.061  44.491   6.450
 9931POPC   C2B69968   6.022  44.482   6.750
 9931POPC   C3B69969   5.997  44.498   7.050
 9931POPC   C4B69970   6.044  44.474   7.350
 9932POPC   NC369971  32.199   2.011   5.550
 9932POPC   PO469972  32.201   1.984   5.850
 9932POPC   GL169973  32.199   1.991   6.150
 9932POPC   GL269974  32.270   2.118   6.150
 9932POPC   C1A69975  32.269   2.021   6.450
 9932POPC   D2A69976  32.267   2.034   6.750
 9932POPC   C3A69977  32.260   1.956   7.050
 9932POPC   C4A69978  32.287   2.011   7.350
 9932POPC   C1B69979  32.340   2.210   6.450
 9932POPC   C2B69980  32.339   2.190   6.750
 9932POPC   C3B69981  32.363   2.180   7.050
 9932POPC   C4B69982  32.362   2.186   7.350
 9933POPC   NC369983   1.989   6.601   5.550
 9933POPC   PO469984   2.038   6.640   5.850
 9933POPC   GL169985   2.029   6.659   6.150
 9933POPC   GL269986   1.983   6.476   6.150
 9933POPC   C1A69987   2.000   6.671   6.450
 9933POPC   D2A69988   2.002   6.663   6.750
 9933POPC   C3A69989   1.972   6.676   7.050
 9933POPC   C4A69990   2.035   6.626   7.350
 9933POPC   C1B69991   1.986   6.438   6.450
 9933POPC   C2B69992   1.994   6.410   6.750
 9933POPC   C3B69993   1.986   6.432   7.050
 9933POPC   C4B69994   2.002   6.440   7.350
 9934POPC   NC369995  40.748  35.398   5.550
 9934POPC   PO469996  40.753  35.370   5.850
 9934POPC   GL169997  40.772  35.367   6.150
 9934POPC   GL269998  40.692  35.506   6.150
 9934POPC   C1A69999  40.818  35.384   6.450
 9934POPC   D2A70000  40.827  35.324   6.750
 9934POPC   C3A70001  40.789  35.320   7.050
 9934POPC   C4A70002  40.793  35.331   7.350
 9934POPC   C1B70003  40.660  35.584   6.450
 9934POPC   C2B70004  40.676  35.555   6.750
 9934POPC   C3B70005  40.723  35.585   7.050
 9934POPC   C4B70006  40.678  35.579   7.350
 9935POPC   NC370007   5.835   3.512   5.550
 9935POPC   PO470008   5.819   3.529   5.850
 9935POPC   GL170009   5.824   3.566   6.150
 9935POPC   GL270010   5.725   3.538   6.150
 9935POPC   C1A70011   5.895   3.585   6.450
 9935POPC   D2A70012   5.837   3.510   6.750
 9935POPC   C3A70013   5.882   3.520   7.050
 9935POPC   C4A70014   5.838   3.584   7.350
 9935POPC   C1B70015   5.630   3.501   6.450
 9935POPC   C2B70016   5.617   3.502   6.750
 9935POPC   C3B70017   5.665   3.509   7.050
 9935POPC   C4B70018   5.570   3.523   7.350
 9936POPC   NC370019  41.591  26.087   5.550
 9936POPC   PO470020  41.544  26.046   5.850
 9936POPC   GL170021  41.595  26.015   6.150
 9936POPC   GL270022  41.538  26.139   6.150
 9936POPC   C1A70023  41.539  26.090   6.450
 9936POPC   D2A70024  41.550  26.051   6.750
 9936POPC   C3A70025  41.518  26.007   7.050
 9936POPC   C4A70026  41.567  26.046   7.350
 9936POPC   C1B70027  41.643  26.299   6.450
 9936POPC   C2B70028  41.590  26.327   6.750
 9936POPC   C3B70029  41.574  26.296   7.050
 9936POPC   C4B70030  41.577  26.333   7.350
 9937POPC   NC370031  33.010  20.641   5.550
 9937POPC   PO470032  33.013  20.565   5.850
 9937POPC   GL170033  33.028  20.586   6.150
 9937POPC   GL270034  32.925  20.492   6.150
 9937POPC   C1A70035  33.069  20.606   6.450
 9937POPC   D2A70036  32.994  20.658   6.750
 9937POPC   C3A70037  33.026  20.566   7.050
 9937POPC   C4A70038  33.054  20.606   7.350
 9937POPC   C1B70039  32.927  20.350   6.450
 9937POPC   C2B70040  32.911  20.373   6.750
 9937POPC   C3B70041  32.906  20.351   7.050
 9937POPC   C4B70042  32.953  20.413   7.350
 9938POPC   NC370043   3.519   9.708   5.550
 9938POPC   PO470044   3.505   9.714   5.850
 9938POPC   GL170045   3.500   9.701   6.150
 9938POPC   GL270046   3.450   9.861   6.150
 9938POPC   C1A70047   3.557   9.762   6.450
 9938POPC   D2A70048   3.516   9.760   6.750
 9938POPC   C3A70049   3.570   9.791   7.050
 9938POPC   C4A70050   3.559   9.771   7.350
 9938POPC   C1B70051   3.463   9.921   6.450
 9938POPC   C2B70052   3.424   9.987   6.750
 9938POPC   C3B70053   3.418   9.987   7.050
 9938POPC   C4B70054   3.421   9.954   7.350
 9939POPC   NC370055  34.537  29.920   5.550
 9939POPC   PO470056  34.556  29.891   5.850
 9939POPC   GL170057  34.553  29.898   6.150
 9939POPC   GL270058  34.698  29.862   6.150
 9939POPC   C1A70059  34.617  29.897   6.450
 9939POPC   D2A70060  34.541  29.892   6.750
 9939POPC   C3A70061  34.590  29.919   7.050
 9939POPC   C4A70062  34.617  29.890   7.350
 9939POPC   C1B70063  34.782  29.808   6.450
 9939POPC   C2B70064  34.781  29.726   6.750
 9939POPC   C3B70065  34.820  29.767   7.050
 9939POPC   C4B70066  34.770  29.790   7.350
 9940POPC   NC370067  29.892  36.141   5.550
 9940POPC   PO470068  29.966  36.127   5.850
 9940POPC   GL170069  29.910  36.092   6.150
 9940POPC   GL270070  29.832  36.004   6.150
 9940POPC   C1A70071  29.967  36.165   6.450
 9940POPC   D2A70072  29.935  36.100   6.750
 9940POPC   C3A70073  29.907  36.170   7.050
 9940POPC   C4A70074  29.960  36.127   7.350
 9940POPC   C1B70075  29.753  35.939   6.450
 9940POPC   C2B70076  29.795  35.977   6.750
 9940POPC   C3B70077  29.792  35.926   7.050
 9940POPC   C4B70078  29.744  35.879   7.350
 9941POPC   NC370079  20.657  20.603   5.550
 9941POPC   PO470080  20.607  20.600   5.850
 9941POPC   GL170081  20.594  20.581   6.150
 9941POPC   GL270082  20.513  20.668   6.150
 9941POPC   C1A70083  20.567  20.622   6.450
 9941POPC   D2A70084  20.566  20.565   6.750
 9941POPC   C3A70085  20.650  20.597   7.050
 9941POPC   C4A70086  20.592  20.591   7.350
 9941POPC   C1B70087  20.344  20.637   6.450
 9941POPC   C2B70088  20.387  20.685   6.750
 9941POPC   C3B70089  20.319  20.644   7.050
 9941POPC   C4B70090  20.353  20.653   7.350
 9942POPC   NC370091   6.639  40.781   5.550
 9942POPC   PO470092   6.678  40.790   5.850
 9942POPC   GL170093   6.613  40.760   6.150
 9942POPC   GL270094   6.555  40.937   6.150
 9942POPC   C1A70095   6.655  40.830   6.450
 9942POPC   D2A70096   6.652  40.816   6.750
 9942POPC   C3A70097   6.641  40.739   7.050
 9942POPC   C4A70098   6.643  40.769   7.350
 9942POPC   C1B70099   6.565  40.993   6.450
 9942POPC   C2B70100   6.522  41.009   6.750
 9942POPC   C3B70101   6.516  40.984   7.050
 9942POPC   C4B70102   6.569  40.987   7.350
 9943POPC   NC370103   6.677  33.797   5.550
 9943POPC   PO470104   6.665  33.849   5.850
 9943POPC   GL170105   6.660  33.838   6.150
 9943POPC   GL270106   6.726  33.866   6.150
 9943POPC   C1A70107   6.663  33.799   6.450
 9943POPC   D2A70108   6.669  33.792   6.750
 9943POPC   C3A70109   6.602  33.823   7.050
 9943POPC   C4A70110   6.677  33.765   7.350
 9943POPC   C1B70111   6.785  33.991   6.450
 9943POPC   C2B70112   6.852  33.944   6.750
 9943POPC   C3B70113   6.813  33.993   7.050
 9943POPC   C4B70114   6.808  33.924   7.350
 9944POPC   NC370115  39.224  38.481   5.550
 9944POPC   PO470116  39.202  38.459   5.850
 9944POPC   GL170117  39.195  38.497   6.150
 9944POPC   GL270118  39.253  38.297   6.150
 9944POPC   C1A70119  39.186  38.464   6.450
 9944POPC   D2A70120  39.261  38.458   6.750
 9944POPC   C3A70121  39.243  38.443   7.050
 9944POPC   C4A70122  39.269  38.436   7.350
 9944POPC   C1B70123  39.147  38.174   6.450
 9944POPC   C2B70124  39.197  38.170   6.750
 9944POPC   C3B70125  39.194  38.211   7.050
 9944POPC   C4B70126  39.173  38.198   7.350
 9945POPC   NC370127  32.205  33.761   5.550
 9945POPC   PO470128  32.252  33.759   5.850
 9945POPC   GL170129  32.296  33.789   6.150
 9945POPC   GL270130  32.138  33.836   6.150
 9945POPC   C1A70131  32.229  33.757   6.450
 9945POPC   D2A70132  32.286  33.759   6.750
 9945POPC   C3A70133  32.220  33.763   7.050
 9945POPC   C4A70134  32.253  33.844   7.350
 9945POPC   C1B70135  31.968  33.821   6.450
 9945POPC   C2B70136  32.039  33.824   6.750
 9945POPC   C3B70137  31.980  33.862   7.050
 9945POPC   C4B70138  31.978  33.874   7.350
 9946POPC   NC370139   1.202  17.546   5.550
 9946POPC   PO470140   1.167  17.541   5.850
 9946POPC   GL170141   1.214  17.473   6.150
 9946POPC   GL270142   1.357  17.516   6.150
 9946POPC   C1A70143   1.232  17.478   6.450
 9946POPC   D2A70144   1.203  17.498   6.750
 9946POPC   C3A70145   1.172  17.513   7.050
 9946POPC   C4A70146   1.233  17.549   7.350
 9946POPC   C1B70147   1.469  17.571   6.450
 9946POPC   C2B70148   1.490  17.592   6.750
 9946POPC   C3B70149   1.466  17.546   7.050
 9946POPC   C4B70150   1.494  17.525   7.350
 9947POPC   NC370151   4.323   1.994   5.550
 9947POPC   PO470152   4.350   1.941   5.850
 9947POPC   GL170153   4.323   2.020   6.150
 9947POPC   GL270154   4.284   1.817   6.150
 9947POPC   C1A70155   4.299   2.009   6.450
 9947POPC   D2A70156   4.330   2.018   6.750
 9947POPC   C3A70157   4.295   2.037   7.050
 9947POPC   C4A70158   4.309   2.024   7.350
 9947POPC   C1B70159   4.311   1.710   6.450
 9947POPC   C2B70160   4.286   1.746   6.750
 9947POPC   C3B70161   4.347   1.764   7.050
 9947POPC   C4B70162   4.345   1.787   7.350
 9948POPC   NC370163  26.831  22.138   5.550
 9948POPC   PO470164  26.835  22.176   5.850
 9948POPC   GL170165  26.798  22.179   6.150
 9948POPC   GL270166  26.888  22.098   6.150
 9948POPC   C1A70167  26.866  22.180   6.450
 9948POPC   D2A70168  26.778  22.120   6.750
 9948POPC   C3A70169  26.800  22.118   7.050
 9948POPC   C4A70170  26.839  22.195   7.350
 9948POPC   C1B70171  26.995  22.008   6.450
 9948POPC   C2B70172  27.062  22.000   6.750
 9948POPC   C3B70173  26.994  22.035   7.050
 9948POPC   C4B70174  27.003  22.040   7.350
 9949POPC   NC370175  35.394  32.222   5.550
 9949POPC   PO470176  35.364  32.225   5.850
 9949POPC   GL170177  35.310  32.288   6.150
 9949POPC   GL270178  35.220  32.368   6.150
 9949POPC   C1A70179  35.400  32.288   6.450
 9949POPC   D2A70180  35.392  32.215   6.750
 9949POPC   C3A70181  35.379  32.285   7.050
 9949POPC   C4A70182  35.317  32.272   7.350
 9949POPC   C1B70183  35.205  32.387   6.450
 9949POPC   C2B70184  35.209  32.442   6.750
 9949POPC   C3B70185  35.152  32.381   7.050
 9949POPC   C4B70186  35.140  32.423   7.350
 9950POPC   NC370187   5.888   2.783   5.550
 9950POPC   PO470188   5.858   2.729   5.850
 9950POPC   GL170189   5.914   2.804   6.150
 9950POPC   GL270190   5.827   2.888   6.150
 9950POPC   C1A70191   5.847   2.721   6.450
 9950POPC   D2A70192   5.894   2.722   6.750
 9950POPC   C3A70193   5.872   2.798   7.050
 9950POPC   C4A70194   5.888   2.798   7.350
 9950POPC   C1B70195   5.803   2.973   6.450
 9950POPC   C2B70196   5.773   3.003   6.750
 9950POPC   C3B70197   5.790   3.025   7.050
 9950POPC   C4B70198   5.826   3.033   7.350
 9951POPC   NC370199  30.669  38.455   5.550
 9951POPC   PO470200  30.655  38.505   5.850
 9951POPC   GL170201  30.658  38.477   6.150
 9951POPC   GL270202  30.768  38.496   6.150
 9951POPC   C1A70203  30.704  38.499   6.450
 9951POPC   D2A70204  30.712  38.501   6.750
 9951POPC   C3A70205  30.662  38.501   7.050
 9951POPC   C4A70206  30.705  38.424   7.350
 9951POPC   C1B70207  30.883  38.580   6.450
 9951POPC   C2B70208  30.899  38.619   6.750
 9951POPC   C3B70209  30.867  38.631   7.050
 9951POPC   C4B70210  30.868  38.653   7.350
 9952POPC   NC370211  29.154  20.565   5.550
 9952POPC   PO470212  29.190  20.623   5.850
 9952POPC   GL170213  29.152  20.621   6.150
 9952POPC   GL270214  29.250  20.567   6.150
 9952POPC   C1A70215  29.178  20.604   6.450
 9952POPC   D2A70216  29.157  20.576   6.750
 9952POPC   C3A70217  29.111  20.616   7.050
 9952POPC   C4A70218  29.146  20.650   7.350
 9952POPC   C1B70219  29.374  20.442   6.450
 9952POPC   C2B70220  29.396  20.455   6.750
 9952POPC   C3B70221  29.380  20.445   7.050
 9952POPC   C4B70222  29.338  20.518   7.350
 9953POPC   NC370223   5.883  28.393   5.550
 9953POPC   PO470224   5.917  28.341   5.850
 9953POPC   GL170225   5.856  28.414   6.150
 9953POPC   GL270226   6.017  28.280   6.150
 9953POPC   C1A70227   5.848  28.359   6.450
 9953POPC   D2A70228   5.891  28.329   6.750
 9953POPC   C3A70229   5.845  28.395   7.050
 9953POPC   C4A70230   5.903  28.411   7.350
 9953POPC   C1B70231   6.115  28.179   6.450
 9953POPC   C2B70232   6.073  28.269   6.750
 9953POPC   C3B70233   6.124  28.240   7.050
 9953POPC   C4B70234   6.092  28.223   7.350
 9954POPC   NC370235  44.679  15.938   5.550
 9954POPC   PO470236  44.686  15.935   5.850
 9954POPC   GL170237  44.679  15.949   6.150
 9954POPC   GL270238  44.734  15.919   6.150
 9954POPC   C1A70239  44.694  15.971   6.450
 9954POPC   D2A70240  44.614  15.990   6.750
 9954POPC   C3A70241  44.708  15.925   7.050
 9954POPC   C4A70242  44.663  15.995   7.350
 9954POPC   C1B70243  44.808  15.817   6.450
 9954POPC   C2B70244  44.875  15.804   6.750
 9954POPC   C3B70245  44.854  15.786   7.050
 9954POPC   C4B70246  44.903  15.798   7.350
 9955POPC   NC370247   8.184  31.432   5.550
 9955POPC   PO470248   8.207  31.461   5.850
 9955POPC   GL170249   8.229  31.521   6.150
 9955POPC   GL270250   8.066  31.439   6.150
 9955POPC   C1A70251   8.158  31.453   6.450
 9955POPC   D2A70252   8.208  31.445   6.750
 9955POPC   C3A70253   8.147  31.487   7.050
 9955POPC   C4A70254   8.183  31.425   7.350
 9955POPC   C1B70255   7.982  31.405   6.450
 9955POPC   C2B70256   7.915  31.383   6.750
 9955POPC   C3B70257   7.989  31.385   7.050
 9955POPC   C4B70258   7.910  31.361   7.350
 9956POPC   NC370259   1.241   7.467   5.550
 9956POPC   PO470260   1.209   7.374   5.850
 9956POPC   GL170261   1.169   7.422   6.150
 9956POPC   GL270262   1.136   7.498   6.150
 9956POPC   C1A70263   1.231   7.375   6.450
 9956POPC   D2A70264   1.239   7.400   6.750
 9956POPC   C3A70265   1.230   7.383   7.050
 9956POPC   C4A70266   1.252   7.425   7.350
 9956POPC   C1B70267   1.036   7.590   6.450
 9956POPC   C2B70268   0.987   7.549   6.750
 9956POPC   C3B70269   1.040   7.585   7.050
 9956POPC   C4B70270   1.026   7.532   7.350
 9957POPC   NC370271  26.784  13.639   5.550
 9957POPC   PO470272  26.772  13.642   5.850
 9957POPC   GL170273  26.789  13.584   6.150
 9957POPC   GL270274  26.972  13.699   6.150
 9957POPC   C1A70275  26.801  13.624   6.450
 9957POPC   D2A70276  26.804  13.648   6.750
 9957POPC   C3A70277  26.771  13.646   7.050
 9957POPC   C4A70278  26.814  13.588   7.350
 9957POPC   C1B70279  27.081  13.673   6.450
 9957POPC   C2B70280  27.040  13.743   6.750
 9957POPC   C3B70281  27.076  13.682   7.050
 9957POPC   C4B70282  27.090  13.706   7.350
 9958POPC   NC370283  28.324  40.008   5.550
 9958POPC   PO470284  28.370  40.013   5.850
 9958POPC   GL170285  28.351  40.020   6.150
 9958POPC   GL270286  28.508  39.999   6.150
 9958POPC   C1A70287  28.407  40.022   6.450
 9958POPC   D2A70288  28.341  39.963   6.750
 9958POPC   C3A70289  28.418  40.002   7.050
 9958POPC   C4A70290  28.407  39.969   7.350
 9958POPC   C1B70291  28.640  39.961   6.450
 9958POPC   C2B70292  28.631  39.961   6.750
 9958POPC   C3B70293  28.594  39.995   7.050
 9958POPC   C4B70294  28.614  40.019   7.350
 9959POPC   NC370295  11.272  43.111   5.550
 9959POPC   PO470296  11.342  43.138   5.850
 9959POPC   GL170297  11.254  43.069   6.150
 9959POPC   GL270298  11.222  43.205   6.150
 9959POPC   C1A70299  11.309  43.147   6.450
 9959POPC   D2A70300  11.288  43.142   6.750
 9959POPC   C3A70301  11.335  43.066   7.050
 9959POPC   C4A70302  11.333  43.119   7.350
 9959POPC   C1B70303  11.271  43.338   6.450
 9959POPC   C2B70304  11.244  43.389   6.750
 9959POPC   C3B70305  11.195  43.314   7.050
 9959POPC   C4B70306  11.264  43.372   7.350
 9960POPC   NC370307  23.707  23.733   5.550
 9960POPC   PO470308  23.730  23.664   5.850
 9960POPC   GL170309  23.740  23.675   6.150
 9960POPC   GL270310  23.712  23.868   6.150
 9960POPC   C1A70311  23.733  23.729   6.450
 9960POPC   D2A70312  23.745  23.689   6.750
 9960POPC   C3A70313  23.686  23.670   7.050
 9960POPC   C4A70314  23.737  23.687   7.350
 9960POPC   C1B70315  23.664  23.972   6.450
 9960POPC   C2B70316  23.698  24.005   6.750
 9960POPC   C3B70317  23.736  23.941   7.050
 9960POPC   C4B70318  23.662  23.916   7.350
 9961POPC   NC370319  35.339  43.151   5.550
 9961POPC   PO470320  35.361  43.098   5.850
 9961POPC   GL170321  35.303  43.159   6.150
 9961POPC   GL270322  35.454  43.142   6.150
 9961POPC   C1A70323  35.302  43.144   6.450
 9961POPC   D2A70324  35.390  43.076   6.750
 9961POPC   C3A70325  35.340  43.098   7.050
 9961POPC   C4A70326  35.334  43.069   7.350
 9961POPC   C1B70327  35.552  43.193   6.450
 9961POPC   C2B70328  35.584  43.157   6.750
 9961POPC   C3B70329  35.562  43.222   7.050
 9961POPC   C4B70330  35.544  43.176   7.350
 9962POPC   NC370331   4.339  36.928   5.550
 9962POPC   PO470332   4.282  36.934   5.850
 9962POPC   GL170333   4.322  36.921   6.150
 9962POPC   GL270334   4.406  36.785   6.150
 9962POPC   C1A70335   4.366  36.896   6.450
 9962POPC   D2A70336   4.367  36.892   6.750
 9962POPC   C3A70337   4.284  36.895   7.050
 9962POPC   C4A70338   4.307  36.898   7.350
 9962POPC   C1B70339   4.529  36.731   6.450
 9962POPC   C2B70340   4.440  36.698   6.750
 9962POPC   C3B70341   4.431  36.718   7.050
 9962POPC   C4B70342   4.484  36.740   7.350
 9963POPC   NC370343  28.338   3.498   5.550
 9963POPC   PO470344  28.359   3.549   5.850
 9963POPC   GL170345  28.341   3.492   6.150
 9963POPC   GL270346  28.472   3.693   6.150
 9963POPC   C1A70347  28.378   3.562   6.450
 9963POPC   D2A70348  28.410   3.539   6.750
 9963POPC   C3A70349  28.415   3.584   7.050
 9963POPC   C4A70350  28.415   3.576   7.350
 9963POPC   C1B70351  28.459   3.757   6.450
 9963POPC   C2B70352  28.487   3.763   6.750
 9963POPC   C3B70353  28.543   3.805   7.050
 9963POPC   C4B70354  28.454   3.802   7.350
 9964POPC   NC370355  39.976  21.401   5.550
 9964POPC   PO470356  39.961  21.385   5.850
 9964POPC   GL170357  40.002  21.412   6.150
 9964POPC   GL270358  39.939  21.271   6.150
 9964POPC   C1A70359  39.991  21.428   6.450
 9964POPC   D2A70360  39.985  21.389   6.750
 9964POPC   C3A70361  39.977  21.399   7.050
 9964POPC   C4A70362  40.022  21.375   7.350
 9964POPC   C1B70363  39.822  21.195   6.450
 9964POPC   C2B70364  39.843  21.235   6.750
 9964POPC   C3B70365  39.789  21.270   7.050
 9964POPC   C4B70366  39.836  21.222   7.350
 9965POPC   NC370367  23.717  32.999   5.550
 9965POPC   PO470368  23.676  33.037   5.850
 9965POPC   GL170369  23.745  33.025   6.150
 9965POPC   GL270370  23.617  32.990   6.150
 9965POPC   C1A70371  23.679  32.991   6.450
 9965POPC   D2A70372  23.715  32.997   6.750
 9965POPC   C3A70373  23.763  33.072   7.050
 9965POPC   C4A70374  23.672  32.988   7.350
 9965POPC   C1B70375  23.516  32.916   6.450
 9965POPC   C2B70376  23.489  32.904   6.750
 9965POPC   C3B70377  23.522  32.958   7.050
 9965POPC   C4B70378  23.520  32.899   7.350
 9966POPC   NC370379   2.782  24.530   5.550
 9966POPC   PO470380   2.752  24.537   5.850
 9966POPC   GL170381   2.744  24.539   6.150
 9966POPC   GL270382   2.686  24.507   6.150
 9966POPC   C1A70383   2.783  24.526   6.450
 9966POPC   D2A70384   2.774  24.467   6.750
 9966POPC   C3A70385   2.804  24.486   7.050
 9966POPC   C4A70386   2.811  24.534   7.350
 9966POPC   C1B70387   2.573  24.632   6.450
 9966POPC   C2B70388   2.583  24.555   6.750
 9966POPC   C3B70389   2.521  24.639   7.050
 9966POPC   C4B70390   2.545  24.634   7.350
 9967POPC   NC370391  26.069  40.786   5.550
 9967POPC   PO470392  26.021  40.757   5.850
 9967POPC   GL170393  26.070  40.788   6.150
 9967POPC   GL270394  25.898  40.848   6.150
 9967POPC   C1A70395  26.020  40.799   6.450
 9967POPC   D2A70396  26.067  40.766   6.750
 9967POPC   C3A70397  26.084  40.781   7.050
 9967POPC   C4A70398  26.084  40.826   7.350
 9967POPC   C1B70399  25.819  40.894   6.450
 9967POPC   C2B70400  25.854  40.975   6.750
 9967POPC   C3B70401  25.863  40.911   7.050
 9967POPC   C4B70402  25.804  40.925   7.350
 9968POPC   NC370403  26.045  43.118   5.550
 9968POPC   PO470404  26.030  43.132   5.850
 9968POPC   GL170405  26.006  43.127   6.150
 9968POPC   GL270406  26.089  43.039   6.150
 9968POPC   C1A70407  26.018  43.112   6.450
 9968POPC   D2A70408  26.016  43.130   6.750
 9968POPC   C3A70409  26.027  43.124   7.050
 9968POPC   C4A70410  26.078  43.157   7.350
 9968POPC   C1B70411  26.192  42.874   6.450
 9968POPC   C2B70412  26.167  42.896   6.750
 9968POPC   C3B70413  26.162  42.919   7.050
 9968POPC   C4B70414  26.213  42.879   7.350
 9969POPC   NC370415   8.147  10.476   5.550
 9969POPC   PO470416   8.193  10.482   5.850
 9969POPC   GL170417   8.194  10.570   6.150
 9969POPC   GL270418   8.165  10.426   6.150
 9969POPC   C1A70419   8.174  10.567   6.450
 9969POPC   D2A70420   8.157  10.566   6.750
 9969POPC   C3A70421   8.230  10.559   7.050
 9969POPC   C4A70422   8.199  10.520   7.350
 9969POPC   C1B70423   8.157  10.303   6.450
 9969POPC   C2B70424   8.135  10.242   6.750
 9969POPC   C3B70425   8.107  10.320   7.050
 9969POPC   C4B70426   8.147  10.260   7.350
 9970POPC   NC370427  30.664   5.821   5.550
 9970POPC   PO470428  30.692   5.914   5.850
 9970POPC   GL170429  30.683   5.868   6.150
 9970POPC   GL270430  30.802   5.848   6.150
 9970POPC   C1A70431  30.713   5.896   6.450
 9970POPC   D2A70432  30.729   5.866   6.750
 9970POPC   C3A70433  30.712   5.822   7.050
 9970POPC   C4A70434  30.678   5.863   7.350
 9970POPC   C1B70435  30.942   5.814   6.450
 9970POPC   C2B70436  30.916   5.790   6.750
 9970POPC   C3B70437  30.985   5.806   7.050
 9970POPC   C4B70438  30.961   5.773   7.350
 9971POPC   NC370439  24.455  23.737   5.550
 9971POPC   PO470440  24.478  23.670   5.850
 9971POPC   GL170441  24.467  23.716   6.150
 9971POPC   GL270442  24.409  23.688   6.150
 9971POPC   C1A70443  24.488  23.672   6.450
 9971POPC   D2A70444  24.441  23.729   6.750
 9971POPC   C3A70445  24.493  23.690   7.050
 9971POPC   C4A70446  24.446  23.726   7.350
 9971POPC   C1B70447  24.267  23.706   6.450
 9971POPC   C2B70448  24.281  23.722   6.750
 9971POPC   C3B70449  24.274  23.792   7.050
 9971POPC   C4B70450  24.228  23.717   7.350
 9972POPC   NC370451  17.493  32.234   5.550
 9972POPC   PO470452  17.515  32.208   5.850
 9972POPC   GL170453  17.516  32.268   6.150
 9972POPC   GL270454  17.520  32.080   6.150
 9972POPC   C1A70455  17.543  32.221   6.450
 9972POPC   D2A70456  17.517  32.246   6.750
 9972POPC   C3A70457  17.516  32.252   7.050
 9972POPC   C4A70458  17.471  32.228   7.350
 9972POPC   C1B70459  17.460  31.993   6.450
 9972POPC   C2B70460  17.473  31.965   6.750
 9972POPC   C3B70461  17.428  32.050   7.050
 9972POPC   C4B70462  17.516  31.982   7.350
 9973POPC   NC370463  38.458  27.632   5.550
 9973POPC   PO470464  38.460  27.635   5.850
 9973POPC   GL170465  38.473  27.610   6.150
 9973POPC   GL270466  38.367  27.644   6.150
 9973POPC   C1A70467  38.501  27.609   6.450
 9973POPC   D2A70468  38.422  27.599   6.750
 9973POPC   C3A70469  38.485  27.604   7.050
 9973POPC   C4A70470  38.487  27.556   7.350
 9973POPC   C1B70471  38.212  27.691   6.450
 9973POPC   C2B70472  38.251  27.672   6.750
 9973POPC   C3B70473  38.250  27.678   7.050
 9973POPC   C4B70474  38.239  27.686   7.350
 9974POPC   NC370475  12.044  18.281   5.550
 9974POPC   PO470476  12.114  18.243   5.850
 9974POPC   GL170477  12.092  18.322   6.150
 9974POPC   GL270478  12.112  18.222   6.150
 9974POPC   C1A70479  12.048  18.306   6.450
 9974POPC   D2A70480  12.049  18.240   6.750
 9974POPC   C3A70481  12.027  18.287   7.050
 9974POPC   C4A70482  12.050  18.280   7.350
 9974POPC   C1B70483  12.218  18.049   6.450
 9974POPC   C2B70484  12.252  18.060   6.750
 9974POPC   C3B70485  12.185  18.093   7.050
 9974POPC   C4B70486  12.194  18.071   7.350
 9975POPC   NC370487  26.850  14.410   5.550
 9975POPC   PO470488  26.805  14.379   5.850
 9975POPC   GL170489  26.804  14.437   6.150
 9975POPC   GL270490  26.710  14.308   6.150
 9975POPC   C1A70491  26.848  14.413   6.450
 9975POPC   D2A70492  26.807  14.394   6.750
 9975POPC   C3A70493  26.802  14.434   7.050
 9975POPC   C4A70494  26.844  14.380   7.350
 9975POPC   C1B70495  26.581  14.263   6.450
 9975POPC   C2B70496  26.559  14.280   6.750
 9975POPC   C3B70497  26.569  14.267   7.050
 9975POPC   C4B70498  26.628  14.260   7.350
 9976POPC   NC370499  18.317  40.734   5.550
 9976POPC   PO470500  18.248  40.792   5.850
 9976POPC   GL170501  18.254  40.771   6.150
 9976POPC   GL270502  18.308  40.718   6.150
 9976POPC   C1A70503  18.265  40.755   6.450
 9976POPC   D2A70504  18.318  40.801   6.750
 9976POPC   C3A70505  18.236  40.799   7.050
 9976POPC   C4A70506  18.315  40.788   7.350
 9976POPC   C1B70507  18.393  40.617   6.450
 9976POPC   C2B70508  18.393  40.589   6.750
 9976POPC   C3B70509  18.421  40.574   7.050
 9976POPC   C4B70510  18.478  40.596   7.350
 9977POPC   NC370511  39.217  40.781   5.550
 9977POPC   PO470512  39.251  40.790   5.850
 9977POPC   GL170513  39.218  40.733   6.150
 9977POPC   GL270514  39.148  40.780   6.150
 9977POPC   C1A70515  39.221  40.735   6.450
 9977POPC   D2A70516  39.206  40.768   6.750
 9977POPC   C3A70517  39.241  40.812   7.050
 9977POPC   C4A70518  39.265  40.766   7.350
 9977POPC   C1B70519  39.018  40.690   6.450
 9977POPC   C2B70520  38.963  40.718   6.750
 9977POPC   C3B70521  38.990  40.713   7.050
 9977POPC   C4B70522  39.006  40.747   7.350
 9978POPC   NC370523   8.927   9.007   5.550
 9978POPC   PO470524   8.986   8.962   5.850
 9978POPC   GL170525   8.998   9.003   6.150
 9978POPC   GL270526   9.129   8.944   6.150
 9978POPC   C1A70527   8.934   8.931   6.450
 9978POPC   D2A70528   8.932   8.967   6.750
 9978POPC   C3A70529   8.940   8.926   7.050
 9978POPC   C4A70530   8.940   8.965   7.350
 9978POPC   C1B70531   9.165   8.845   6.450
 9978POPC   C2B70532   9.246   8.873   6.750
 9978POPC   C3B70533   9.238   8.825   7.050
 9978POPC   C4B70534   9.245   8.899   7.350
 9979POPC   NC370535  32.203  40.035   5.550
 9979POPC   PO470536  32.249  39.978   5.850
 9979POPC   GL170537  32.203  40.054   6.150
 9979POPC   GL270538  32.095  40.018   6.150
 9979POPC   C1A70539  32.298  40.000   6.450
 9979POPC   D2A70540  32.206  39.959   6.750
 9979POPC   C3A70541  32.238  40.053   7.050
 9979POPC   C4A70542  32.295  39.999   7.350
 9979POPC   C1B70543  31.996  40.065   6.450
 9979POPC   C2B70544  31.953  40.046   6.750
 9979POPC   C3B70545  31.967  40.068   7.050
 9979POPC   C4B70546  32.035  40.056   7.350
 9980POPC   NC370547  13.638   6.630   5.550
 9980POPC   PO470548  13.654   6.616   5.850
 9980POPC   GL170549  13.617   6.628   6.150
 9980POPC   GL270550  13.709   6.487   6.150
 9980POPC   C1A70551  13.593   6.665   6.450
 9980POPC   D2A70552  13.645   6.665   6.750
 9980POPC   C3A70553  13.585   6.682   7.050
 9980POPC   C4A70554  13.614   6.638   7.350
 9980POPC   C1B70555  13.754   6.434   6.450
 9980POPC   C2B70556  13.716   6.452   6.750
 9980POPC   C3B70557  13.796   6.464   7.050
 9980POPC   C4B70558  13.723   6.462   7.350
 9981POPC   NC370559   1.181  40.754   5.550
 9981POPC   PO470560   1.229  40.767   5.850
 9981POPC   GL170561   1.170  40.820   6.150
 9981POPC   GL270562   1.276  40.632   6.150
 9981POPC   C1A70563   1.225  40.799   6.450
 9981POPC   D2A70564   1.217  40.816   6.750
 9981POPC   C3A70565   1.255  40.806   7.050
 9981POPC   C4A70566   1.226  40.825   7.350
 9981POPC   C1B70567   1.196  40.566   6.450
 9981POPC   C2B70568   1.266  40.572   6.750
 9981POPC   C3B70569   1.269  40.554   7.050
 9981POPC   C4B70570   1.281  40.529   7.350
 9982POPC   NC370571  41.532  32.199   5.550
 9982POPC   PO470572  41.522  32.205   5.850
 9982POPC   GL170573  41.517  32.254   6.150
 9982POPC   GL270574  41.662  32.137   6.150
 9982POPC   C1A70575  41.593  32.203   6.450
 9982POPC   D2A70576  41.534  32.252   6.750
 9982POPC   C3A70577  41.521  32.222   7.050
 9982POPC   C4A70578  41.562  32.281   7.350
 9982POPC   C1B70579  41.717  32.083   6.450
 9982POPC   C2B70580  41.693  32.076   6.750
 9982POPC   C3B70581  41.705  32.052   7.050
 9982POPC   C4B70582  41.741  32.013   7.350
 9983POPC   NC370583   9.004  26.038   5.550
 9983POPC   PO470584   8.990  26.088   5.850
 9983POPC   GL170585   8.970  25.996   6.150
 9983POPC   GL270586   9.017  26.184   6.150
 9983POPC   C1A70587   8.937  26.006   6.450
 9983POPC   D2A70588   8.961  26.020   6.750
 9983POPC   C3A70589   8.999  26.030   7.050
 9983POPC   C4A70590   9.013  26.088   7.350
 9983POPC   C1B70591   9.051  26.248   6.450
 9983POPC   C2B70592   9.015  26.338   6.750
 9983POPC   C3B70593   8.992  26.252   7.050
 9983POPC   C4B70594   8.955  26.279   7.350
 9984POPC   NC370595  42.313  25.257   5.550
 9984POPC   PO470596  42.316  25.240   5.850
 9984POPC   GL170597  42.291  25.301   6.150
 9984POPC   GL270598  42.360  25.385   6.150
 9984POPC   C1A70599  42.345  25.244   6.450
 9984POPC   D2A70600  42.382  25.275   6.750
 9984POPC   C3A70601  42.354  25.292   7.050
 9984POPC   C4A70602  42.328  25.242   7.350
 9984POPC   C1B70603  42.366  25.472   6.450
 9984POPC   C2B70604  42.302  25.528   6.750
 9984POPC   C3B70605  42.350  25.478   7.050
 9984POPC   C4B70606  42.356  25.475   7.350
 9985POPC   NC370607   1.992  15.983   5.550
 9985POPC   PO470608   1.961  15.992   5.850
 9985POPC   GL170609   2.019  15.972   6.150
 9985POPC   GL270610   2.006  15.868   6.150
 9985POPC   C1A70611   2.007  15.940   6.450
 9985POPC   D2A70612   2.014  15.934   6.750
 9985POPC   C3A70613   1.999  15.949   7.050
 9985POPC   C4A70614   1.992  15.998   7.350
 9985POPC   C1B70615   1.970  15.717   6.450
 9985POPC   C2B70616   1.956  15.697   6.750
 9985POPC   C3B70617   1.988  15.737   7.050
 9985POPC   C4B70618   1.952  15.749   7.350
 9986POPC   NC370619  44.680  28.368   5.550
 9986POPC   PO470620  44.651  28.358   5.850
 9986POPC   GL170621  44.664  28.346   6.150
 9986POPC   GL270622  44.561  28.360   6.150
 9986POPC   C1A70623  44.675  28.399   6.450
 9986POPC   D2A70624  44.638  28.398   6.750
 9986POPC   C3A70625  44.671  28.331   7.050
 9986POPC   C4A70626  44.676  28.401   7.350
 9986POPC   C1B70627  44.367  28.339   6.450
 9986POPC   C2B70628  44.409  28.317   6.750
 9986POPC   C3B70629  44.392  28.347   7.050
 9986POPC   C4B70630  44.403  28.400   7.350
 9987POPC   NC370631  43.912  39.999   5.550
 9987POPC   PO470632  43.909  39.964   5.850
 9987POPC   GL170633  43.918  40.011   6.150
 9987POPC   GL270634  43.943  40.112   6.150
 9987POPC   C1A70635  43.883  40.025   6.450
 9987POPC   D2A70636  43.918  40.023   6.750
 9987POPC   C3A70637  43.851  39.991   7.050
 9987POPC   C4A70638  43.881  40.016   7.350
 9987POPC   C1B70639  44.018  40.217   6.450
 9987POPC   C2B70640  44.032  40.269   6.750
 9987POPC   C3B70641  44.000  40.215   7.050
 9987POPC   C4B70642  44.031  40.177   7.350
 9988POPC   NC370643  17.478  11.311   5.550
 9988POPC   PO470644  17.465  11.322   5.850
 9988POPC   GL170645  17.485  11.325   6.150
 9988POPC   GL270646  17.641  11.367   6.150
 9988POPC   C1A70647  17.494  11.345   6.450
 9988POPC   D2A70648  17.533  11.264   6.750
 9988POPC   C3A70649  17.458  11.312   7.050
 9988POPC   C4A70650  17.488  11.273   7.350
 9988POPC   C1B70651  17.742  11.357   6.450
 9988POPC   C2B70652  17.742  11.391   6.750
 9988POPC   C3B70653  17.770  11.443   7.050
 9988POPC   C4B70654  17.785  11.403   7.350
 9989POPC   NC370655  32.976  43.119   5.550
 9989POPC   PO470656  32.997  43.067   5.850
 9989POPC   GL170657  33.022  43.074   6.150
 9989POPC   GL270658  33.040  43.210   6.150
 9989POPC   C1A70659  33.003  43.154   6.450
 9989POPC   D2A70660  33.002  43.123   6.750
 9989POPC   C3A70661  32.982  43.155   7.050
 9989POPC   C4A70662  33.054  43.104   7.350
 9989POPC   C1B70663  32.951  43.352   6.450
 9989POPC   C2B70664  32.926  43.315   6.750
 9989POPC   C3B70665  32.917  43.379   7.050
 9989POPC   C4B70666  33.002  43.344   7.350
 9990POPC   NC370667   8.954  42.335   5.550
 9990POPC   PO470668   9.018  42.293   5.850
 9990POPC   GL170669   8.966  42.316   6.150
 9990POPC   GL270670   8.914  42.252   6.150
 9990POPC   C1A70671   9.018  42.293   6.450
 9990POPC   D2A70672   8.985  42.307   6.750
 9990POPC   C3A70673   8.929  42.348   7.050
 9990POPC   C4A70674   9.003  42.330   7.350
 9990POPC   C1B70675   8.772  42.211   6.450
 9990POPC   C2B70676   8.795  42.243   6.750
 9990POPC   C3B70677   8.783  42.207   7.050
 9990POPC   C4B70678   8.807  42.185   7.350
 9991POPC   NC370679  20.642   9.702   5.550
 9991POPC   PO470680  20.602   9.793   5.850
 9991POPC   GL170681  20.595   9.717   6.150
 9991POPC   GL270682  20.746   9.772   6.150
 9991POPC   C1A70683  20.581   9.721   6.450
 9991POPC   D2A70684  20.561   9.721   6.750
 9991POPC   C3A70685  20.655   9.778   7.050
 9991POPC   C4A70686  20.630   9.720   7.350
 9991POPC   C1B70687  20.865   9.686   6.450
 9991POPC   C2B70688  20.812   9.701   6.750
 9991POPC   C3B70689  20.837   9.743   7.050
 9991POPC   C4B70690  20.812   9.662   7.350
 9992POPC   NC370691  11.324   5.881   5.550
 9992POPC   PO470692  11.280   5.859   5.850
 9992POPC   GL170693  11.349   5.834   6.150
 9992POPC   GL270694  11.191   5.934   6.150
 9992POPC   C1A70695  11.280   5.856   6.450
 9992POPC   D2A70696  11.255   5.852   6.750
 9992POPC   C3A70697  11.254   5.852   7.050
 9992POPC   C4A70698  11.282   5.849   7.350
 9992POPC   C1B70699  11.123   6.018   6.450
 9992POPC   C2B70700  11.126   5.939   6.750
 9992POPC   C3B70701  11.042   5.995   7.050
 9992POPC   C4B70702  11.029   5.984   7.350
 9993POPC   NC370703  38.412   0.426   5.550
 9993POPC   PO470704  38.443   0.468   5.850
 9993POPC   GL170705  38.462   0.408   6.150
 9993POPC   GL270706  38.448   0.346   6.150
 9993POPC   C1A70707  38.501   0.484   6.450
 9993POPC   D2A70708  38.495   0.406   6.750
 9993POPC   C3A70709  38.447   0.452   7.050
 9993POPC   C4A70710  38.408   0.400   7.350
 9993POPC   C1B70711  38.403   0.177   6.450
 9993POPC   C2B70712  38.404   0.196   6.750
 9993POPC   C3B70713  38.456   0.213   7.050
 9993POPC   C4B70714  38.440   0.202   7.350
 9994POPC   NC370715  38.478  19.102   5.550
 9994POPC   PO470716  38.430  19.011   5.850
 9994POPC   GL170717  38.468  19.054   6.150
 9994POPC   GL270718  38.485  18.963   6.150
 9994POPC   C1A70719  38.421  19.059   6.450
 9994POPC   D2A70720  38.416  19.042   6.750
 9994POPC   C3A70721  38.415  19.025   7.050
 9994POPC   C4A70722  38.438  19.103   7.350
 9994POPC   C1B70723  38.520  18.818   6.450
 9994POPC   C2B70724  38.532  18.795   6.750
 9994POPC   C3B70725  38.479  18.813   7.050
 9994POPC   C4B70726  38.514  18.816   7.350
 9995POPC   NC370727  21.382  24.490   5.550
 9995POPC   PO470728  21.435  24.530   5.850
 9995POPC   GL170729  21.408  24.488   6.150
 9995POPC   GL270730  21.439  24.614   6.150
 9995POPC   C1A70731  21.361  24.486   6.450
 9995POPC   D2A70732  21.414  24.456   6.750
 9995POPC   C3A70733  21.375  24.519   7.050
 9995POPC   C4A70734  21.354  24.502   7.350
 9995POPC   C1B70735  21.515  24.726   6.450
 9995POPC   C2B70736  21.486  24.685   6.750
 9995POPC   C3B70737  21.475  24.767   7.050
 9995POPC   C4B70738  21.435  24.722   7.350
 9996POPC   NC370739  22.148  32.979   5.550
 9996POPC   PO470740  22.180  32.992   5.850
 9996POPC   GL170741  22.207  33.005   6.150
 9996POPC   GL270742  22.043  32.984   6.150
 9996POPC   C1A70743  22.156  33.043   6.450
 9996POPC   D2A70744  22.146  33.007   6.750
 9996POPC   C3A70745  22.145  33.000   7.050
 9996POPC   C4A70746  22.171  33.009   7.350
 9996POPC   C1B70747  22.022  32.817   6.450
 9996POPC   C2B70748  21.931  32.812   6.750
 9996POPC   C3B70749  21.939  32.886   7.050
 9996POPC   C4B70750  22.012  32.831   7.350
 9997POPC   NC370751   6.649   4.350   5.550
 9997POPC   PO470752   6.669   4.356   5.850
 9997POPC   GL170753   6.604   4.324   6.150
 9997POPC   GL270754   6.699   4.438   6.150
 9997POPC   C1A70755   6.670   4.304   6.450
 9997POPC   D2A70756   6.694   4.344   6.750
 9997POPC   C3A70757   6.623   4.296   7.050
 9997POPC   C4A70758   6.597   4.309   7.350
 9997POPC   C1B70759   6.694   4.535   6.450
 9997POPC   C2B70760   6.655   4.534   6.750
 9997POPC   C3B70761   6.644   4.600   7.050
 9997POPC   C4B70762   6.630   4.532   7.350
 9998POPC   NC370763  16.703  13.653   5.550
 9998POPC   PO470764  16.737  13.628   5.850
 9998POPC   GL170765  16.759  13.649   6.150
 9998POPC   GL270766  16.759  13.684   6.150
 9998POPC   C1A70767  16.734  13.582   6.450
 9998POPC   D2A70768  16.778  13.613   6.750
 9998POPC   C3A70769  16.747  13.584   7.050
 9998POPC   C4A70770  16.701  13.662   7.350
 9998POPC   C1B70771  16.867  13.817   6.450
 9998POPC   C2B70772  16.840  13.862   6.750
 9998POPC   C3B70773  16.874  13.869   7.050
 9998POPC   C4B70774  16.918  13.818   7.350
 9999POPC   NC370775  21.407  44.654   5.550
 9999POPC   PO470776  21.431  44.622   5.850
 9999POPC   GL170777  21.415  44.634   6.150
 9999POPC   GL270778  21.488  44.567   6.150
 9999POPC   C1A70779  21.357  44.686   6.450
 9999POPC   D2A70780  21.348  44.643   6.750
 9999POPC   C3A70781  21.346  44.676   7.050
 9999POPC   C4A70782  21.375  44.707   7.350
 9999POPC   C1B70783  21.545  44.425   6.450
 9999POPC   C2B70784  21.472  44.468   6.750
 9999POPC   C3B70785  21.544  44.458   7.050
 9999POPC   C4B70786  21.493  44.496   7.350
10000POPC   NC370787  10.565  42.356   5.550
10000POPC   PO470788  10.539  42.346   5.850
10000POPC   GL170789  10.503  42.343   6.150
10000POPC   GL270790  10.630  42.446   6.150
10000POPC   C1A70791  10.549  42.313   6.450
10000POPC   D2A70792  10.505  42.383   6.750
10000POPC   C3A70793  10.545  42.331   7.050
10000POPC   C4A70794  10.542  42.319   7.350
10000POPC   C1B70795  10.698  42.515   6.450
10000POPC   C2B70796  10.736  42.501   6.750
10000POPC   C3B70797  10.776  42.524   7.050
10000POPC   C4B70798  10.694  42.437   7.350
10001POPC   NC370799  26.011   8.991   5.550
10001POPC   PO470800  26.023   8.962   5.850
10001POPC   GL170801  26.011   8.949   6.150
10001POPC   GL270802  26.134   9.030   6.150
10001POPC   C1A70803  26.073   8.935   6.450
10001POPC   D2A70804  26.069   8.991   6.750
10001POPC   C3A70805  26.041   9.008   7.050
10001POPC   C4A70806  26.032   9.009   7.350
10001POPC   C1B70807  26.196   9.147   6.450
10001POPC   C2B70808  26.123   9.219   6.750
10001POPC   C3B70809  26.133   9.191   7.050
10001POPC   C4B70810  26.134   9.150   7.350
10002POPC   NC370811  26.795  29.099   5.550
10002POPC   PO470812  26.846  29.122   5.850
10002POPC   GL170813  26.831  29.106   6.150
10002POPC   GL270814  26.812  29.240   6.150
10002POPC   C1A70815  26.823  29.095   6.450
10002POPC   D2A70816  26.859  29.135   6.750
10002POPC   C3A70817  26.791  29.192   7.050
10002POPC   C4A70818  26.796  29.097   7.350
10002POPC   C1B70819  26.725  29.401   6.450
10002POPC   C2B70820  26.751  29.390   6.750
10002POPC   C3B70821  26.735  29.337   7.050
10002POPC   C4B70822  26.687  29.332   7.350
10003POPC   NC370823  43.885  37.678   5.550
10003POPC   PO470824  43.926  37.703   5.850
10003POPC   GL170825  43.920  37.716   6.150
10003POPC   GL270826  44.048  37.735   6.150
10003POPC   C1A70827  43.849  37.716   6.450
10003POPC   D2A70828  43.850  37.674   6.750
10003POPC   C3A70829  43.924  37.702   7.050
10003POPC   C4A70830  43.875  37.720   7.350
10003POPC   C1B70831  44.108  37.754   6.450
10003POPC   C2B70832  44.118  37.715   6.750
10003POPC   C3B70833  44.152  37.776   7.050
10003POPC   C4B70834  44.096  37.776   7.350
10004POPC   NC370835  42.287  27.635   5.550
10004POPC   PO470836  42.354  27.555   5.850
10004POPC   GL170837  42.334  27.606   6.150
10004POPC   GL270838  42.455  27.508   6.150
10004POPC   C1A70839  42.349  27.596   6.450
10004POPC   D2A70840  42.367  27.600   6.750
10004POPC   C3A70841  42.321  27.603   7.050
10004POPC   C4A70842  42.349  27.611   7.350
10004POPC   C1B70843  42.565  27.463   6.450
10004POPC   C2B70844  42.552  27.407   6.750
10004POPC   C3B70845  42.476  27.452   7.050
10004POPC   C4B70846  42.491  27.417   7.350
10005POPC   NC370847   0.396  15.195   5.550
10005POPC   PO470848   0.426  15.143   5.850
10005POPC   GL170849   0.439  15.134   6.150
10005POPC   GL270850   0.470  15.314   6.150
10005POPC   C1A70851   0.481  15.138   6.450
10005POPC   D2A70852   0.464  15.174   6.750
10005POPC   C3A70853   0.445  15.199   7.050
10005POPC   C4A70854   0.407  15.194   7.350
10005POPC   C1B70855   0.618  15.390   6.450
10005POPC   C2B70856   0.622  15.404   6.750
10005POPC   C3B70857   0.587  15.345   7.050
10005POPC   C4B70858   0.627  15.424   7.350
10006POPC   NC370859  23.752  31.425   5.550
10006POPC   PO470860  23.747  31.474   5.850
10006POPC   GL170861  23.720  31.487   6.150
10006POPC   GL270862  23.763  31.575   6.150
10006POPC   C1A70863  23.732  31.428   6.450
10006POPC   D2A70864  23.666  31.515   6.750
10006POPC   C3A70865  23.730  31.436   7.050
10006POPC   C4A70866  23.743  31.436   7.350
10006POPC   C1B70867  23.854  31.709   6.450
10006POPC   C2B70868  23.837  31.655   6.750
10006POPC   C3B70869  23.788  31.699   7.050
10006POPC   C4B70870  23.843  31.720   7.350
10007POPC   NC370871  41.573  13.638   5.550
10007POPC   PO470872  41.581  13.624   5.850
10007POPC   GL170873  41.609  13.584   6.150
10007POPC   GL270874  41.658  13.587   6.150
10007POPC   C1A70875  41.566  13.677   6.450
10007POPC   D2A70876  41.523  13.623   6.750
10007POPC   C3A70877  41.594  13.588   7.050
10007POPC   C4A70878  41.596  13.594   7.350
10007POPC   C1B70879  41.808  13.615   6.450
10007POPC   C2B70880  41.827  13.530   6.750
10007POPC   C3B70881  41.752  13.613   7.050
10007POPC   C4B70882  41.819  13.561   7.350
10008POPC   NC370883  33.773  10.546   5.550
10008POPC   PO470884  33.821  10.525   5.850
10008POPC   GL170885  33.771  10.564   6.150
10008POPC   GL270886  33.666  10.498   6.150
10008POPC   C1A70887  33.830  10.501   6.450
10008POPC   D2A70888  33.790  10.481   6.750
10008POPC   C3A70889  33.810  10.516   7.050
10008POPC   C4A70890  33.808  10.556   7.350
10008POPC   C1B70891  33.551  10.329   6.450
10008POPC   C2B70892  33.559  10.356   6.750
10008POPC   C3B70893  33.612  10.412   7.050
10008POPC   C4B70894  33.573  10.399   7.350
10009POPC   NC370895  12.829  21.370   5.550
10009POPC   PO470896  12.893  21.388   5.850
10009POPC   GL170897  12.861  21.432   6.150
10009POPC   GL270898  12.862  21.270   6.150
10009POPC   C1A70899  12.817  21.350   6.450
10009POPC   D2A70900  12.895  21.380   6.750
10009POPC   C3A70901  12.820  21.417   7.050
10009POPC   C4A70902  12.852  21.382   7.350
10009POPC   C1B70903  12.961  21.208   6.450
10009POPC   C2B70904  13.004  21.214   6.750
10009POPC   C3B70905  12.998  21.201   7.050
10009POPC   C4B70906  12.989  21.144   7.350
10010POPC   NC370907  39.974  13.621   5.550
10010POPC   PO470908  40.049  13.596   5.850
10010POPC   GL170909  39.985  13.591   6.150
10010POPC   GL270910  40.020  13.747   6.150
10010POPC   C1A70911  40.032  13.578   6.450
10010POPC   D2A70912  39.985  13.663   6.750
10010POPC   C3A70913  39.976  13.647   7.050
10010POPC   C4A70914  40.036  13.650   7.350
10010POPC   C1B70915  40.087  13.859   6.450
10010POPC   C2B70916  40.056  13.844   6.750
10010POPC   C3B70917  40.067  13.906   7.050
10010POPC   C4B70918  40.008  13.874   7.350
10011POPC   NC370919  15.207   5.900   5.550
10011POPC   PO470920  15.153   5.854   5.850
10011POPC   GL170921  15.169   5.845   6.150
10011POPC   GL270922  15.275   5.814   6.150
10011POPC   C1A70923  15.219   5.884   6.450
10011POPC   D2A70924  15.140   5.864   6.750
10011POPC   C3A70925  15.138   5.862   7.050
10011POPC   C4A70926  15.211   5.832   7.350
10011POPC   C1B70927  15.435   5.730   6.450
10011POPC   C2B70928  15.385   5.791   6.750
10011POPC   C3B70929  15.394   5.802   7.050
10011POPC   C4B70930  15.415   5.784   7.350
10012POPC   NC370931  35.314  28.395   5.550
10012POPC   PO470932  35.315  28.370   5.850
10012POPC   GL170933  35.400  28.400   6.150
10012POPC   GL270934  35.193  28.364   6.150
10012POPC   C1A70935  35.400  28.364   6.450
10012POPC   D2A70936  35.388  28.381   6.750
10012POPC   C3A70937  35.398  28.333   7.050
10012POPC   C4A70938  35.380  28.342   7.350
10012POPC   C1B70939  35.103  28.373   6.450
10012POPC   C2B70940  35.132  28.404   6.750
10012POPC   C3B70941  35.144  28.447   7.050
10012POPC   C4B70942  35.086  28.355   7.350
10013POPC   NC370943  27.566  22.909   5.550
10013POPC   PO470944  27.607  22.976   5.850
10013POPC   GL170945  27.592  22.909   6.150
10013POPC   GL270946  27.505  22.943   6.150
10013POPC   C1A70947  27.580  22.983   6.450
10013POPC   D2A70948  27.602  22.933   6.750
10013POPC   C3A70949  27.626  22.899   7.050
10013POPC   C4A70950  27.553  22.985   7.350
10013POPC   C1B70951  27.331  22.937   6.450
10013POPC   C2B70952  27.369  22.901   6.750
10013POPC   C3B70953  27.328  22.929   7.050
10013POPC   C4B70954  27.368  22.860   7.350
10014POPC   NC370955  26.070  42.293   5.550
10014POPC   PO470956  26.080  42.305   5.850
10014POPC   GL170957  25.992  42.288   6.150
10014POPC   GL270958  25.976  42.237   6.150
10014POPC   C1A70959  26.029  42.372   6.450
10014POPC   D2A70960  26.085  42.287   6.750
10014POPC   C3A70961  26.056  42.335   7.050
10014POPC   C4A70962  26.019  42.330   7.350
10014POPC   C1B70963  25.788  42.240   6.450
10014POPC   C2B70964  25.813  42.170   6.750
10014POPC   C3B70965  25.825  42.231   7.050
10014POPC   C4B70966  25.811  42.217   7.350
10015POPC   NC370967   3.537  34.595   5.550
10015POPC   PO470968   3.574  34.589   5.850
10015POPC   GL170969   3.563  34.542   6.150
10015POPC   GL270970   3.598  34.705   6.150
10015POPC   C1A70971   3.530  34.612   6.450
10015POPC   D2A70972   3.568  34.573   6.750
10015POPC   C3A70973   3.545  34.591   7.050
10015POPC   C4A70974   3.535  34.559   7.350
10015POPC   C1B70975   3.605  34.780   6.450
10015POPC   C2B70976   3.563  34.772   6.750
10015POPC   C3B70977   3.635  34.853   7.050
10015POPC   C4B70978   3.538  34.789   7.350
10016POPC   NC370979  36.079  32.296   5.550
10016POPC   PO470980  36.091  32.254   5.850
10016POPC   GL170981  36.139  32.232   6.150
10016POPC   GL270982  36.273  32.246   6.150
10016POPC   C1A70983  36.161  32.254   6.450
10016POPC   D2A70984  36.100  32.234   6.750
10016POPC   C3A70985  36.177  32.289   7.050
10016POPC   C4A70986  36.177  32.282   7.350
10016POPC   C1B70987  36.351  32.190   6.450
10016POPC   C2B70988  36.353  32.187   6.750
10016POPC   C3B70989  36.383  32.173   7.050
10016POPC   C4B70990  36.347  32.201   7.350
10017POPC   NC370991  34.550  10.492   5.550
10017POPC   PO470992  34.560  10.499   5.850
10017POPC   GL170993  34.548  10.537   6.150
10017POPC   GL270994  34.526  10.401   6.150
10017POPC   C1A70995  34.614  10.495   6.450
10017POPC   D2A70996  34.553  10.517   6.750
10017POPC   C3A70997  34.615  10.502   7.050
10017POPC   C4A70998  34.581  10.560   7.350
10017POPC   C1B70999  34.432  10.355   6.450
10017POPC   C2B71000  34.409  10.380   6.750
10017POPC   C3B71001  34.350  10.390   7.050
10017POPC   C4B71002  34.372  10.313   7.350
10018POPC   NC371003   2.790  26.829   5.550
10018POPC   PO471004   2.744  26.804   5.850
10018POPC   GL171005   2.784  26.794   6.150
10018POPC   GL271006   2.814  26.719   6.150
10018POPC   C1A71007   2.760  26.802   6.450
10018POPC   D2A71008   2.789  26.843   6.750
10018POPC   C3A71009   2.803  26.801   7.050
10018POPC   C4A71010   2.786  26.858   7.350
10018POPC   C1B71011   2.854  26.575   6.450
10018POPC   C2B71012   2.914  26.606   6.750
10018POPC   C3B71013   2.919  26.556   7.050
10018POPC   C4B71014   2.940  26.582   7.350
10019POPC   NC371015  43.121   1.224   5.550
10019POPC   PO471016  43.148   1.237   5.850
10019POPC   GL171017  43.147   1.215   6.150
10019POPC   GL271018  43.003   1.261   6.150
10019POPC   C1A71019  43.128   1.177   6.450
10019POPC   D2A71020  43.158   1.193   6.750
10019POPC   C3A71021  43.122   1.251   7.050
10019POPC   C4A71022  43.064   1.238   7.350
10019POPC   C1B71023  42.814   1.210   6.450
10019POPC   C2B71024  42.839   1.207   6.750
10019POPC   C3B71025  42.864   1.217   7.050
10019POPC   C4B71026  42.890   1.201   7.350
10020POPC   NC371027  40.819   5.855   5.550
10020POPC   PO471028  40.735   5.831   5.850
10020POPC   GL171029  40.818   5.854   6.150
10020POPC   GL271030  40.870   5.976   6.150
10020POPC   C1A71031  40.790   5.837   6.450
10020POPC   D2A71032  40.742   5.881   6.750
10020POPC   C3A71033  40.766   5.865   7.050
10020POPC   C4A71034  40.826   5.854   7.350
10020POPC   C1B71035  40.942   5.990   6.450
10020POPC   C2B71036  41.009   6.030   6.750
10020POPC   C3B71037  40.960   6.025   7.050
10020POPC   C4B71038  40.988   6.041   7.350
10021POPC   NC371039   2.762  29.918   5.550
10021POPC   PO471040   2.735  29.884   5.850
10021POPC   GL171041   2.757  29.876   6.150
10021POPC   GL271042   2.667  30.056   6.150
10021POPC   C1A71043   2.731  29.963   6.450
10021POPC   D2A71044   2.754  29.949   6.750
10021POPC   C3A71045   2.746  29.926   7.050
10021POPC   C4A71046   2.772  29.894   7.350
10021POPC   C1B71047   2.695  30.145   6.450
10021POPC   C2B71048   2.664  30.146   6.750
10021POPC   C3B71049   2.683  30.179   7.050
10021POPC   C4B71050   2.600  30.175   7.350
10022POPC   NC371051  27.641  19.013   5.550
10022POPC   PO471052  27.576  19.093   5.850
10022POPC   GL171053  27.545  19.033   6.150
10022POPC   GL271054  27.469  19.141   6.150
10022POPC   C1A71055  27.628  19.082   6.450
10022POPC   D2A71056  27.573  19.105   6.750
10022POPC   C3A71057  27.613  19.018   7.050
10022POPC   C4A71058  27.548  19.070   7.350
10022POPC   C1B71059  27.348  19.120   6.450
10022POPC   C2B71060  27.349  19.190   6.750
10022POPC   C3B71061  27.384  19.103   7.050
10022POPC   C4B71062  27.377  19.150   7.350
10023POPC   NC371063  33.016  16.737   5.550
10023POPC   PO471064  32.994  16.744   5.850
10023POPC   GL171065  32.999  16.715   6.150
10023POPC   GL271066  33.051  16.576   6.150
10023POPC   C1A71067  32.979  16.757   6.450
10023POPC   D2A71068  33.073  16.743   6.750
10023POPC   C3A71069  32.993  16.727   7.050
10023POPC   C4A71070  32.987  16.710   7.350
10023POPC   C1B71071  33.043  16.473   6.450
10023POPC   C2B71072  33.038  16.525   6.750
10023POPC   C3B71073  32.987  16.522   7.050
10023POPC   C4B71074  32.968  16.444   7.350
10024POPC   NC371075  29.145  24.506   5.550
10024POPC   PO471076  29.097  24.524   5.850
10024POPC   GL171077  29.171  24.523   6.150
10024POPC   GL271078  29.268  24.447   6.150
10024POPC   C1A71079  29.194  24.458   6.450
10024POPC   D2A71080  29.162  24.443   6.750
10024POPC   C3A71081  29.113  24.452   7.050
10024POPC   C4A71082  29.127  24.499   7.350
10024POPC   C1B71083  29.405  24.427   6.450
10024POPC   C2B71084  29.392  24.442   6.750
10024POPC   C3B71085  29.381  24.413   7.050
10024POPC   C4B71086  29.421  24.357   7.350
10025POPC   NC371087  25.227   1.964   5.550
10025POPC   PO471088  25.291   2.004   5.850
10025POPC   GL171089  25.236   1.951   6.150
10025POPC   GL271090  25.343   1.895   6.150
10025POPC   C1A71091  25.304   2.020   6.450
10025POPC   D2A71092  25.242   2.019   6.750
10025POPC   C3A71093  25.222   2.002   7.050
10025POPC   C4A71094  25.289   1.951   7.350
10025POPC   C1B71095  25.425   1.806   6.450
10025POPC   C2B71096  25.488   1.872   6.750
10025POPC   C3B71097  25.505   1.793   7.050
10025POPC   C4B71098  25.452   1.839   7.350
10026POPC   NC371099  43.129  35.399   5.550
10026POPC   PO471100  43.075  35.304   5.850
10026POPC   GL171101  43.097  35.311   6.150
10026POPC   GL271102  43.004  35.334   6.150
10026POPC   C1A71103  43.111  35.397   6.450
10026POPC   D2A71104  43.086  35.329   6.750
10026POPC   C3A71105  43.142  35.394   7.050
10026POPC   C4A71106  43.119  35.365   7.350
10026POPC   C1B71107  42.838  35.286   6.450
10026POPC   C2B71108  42.884  35.264   6.750
10026POPC   C3B71109  42.859  35.321   7.050
10026POPC   C4B71110  42.827  35.285   7.350
10027POPC   NC371111   1.947  43.849   5.550
10027POPC   PO471112   1.985  43.921   5.850
10027POPC   GL171113   2.025  43.915   6.150
10027POPC   GL271114   1.845  43.947   6.150
10027POPC   C1A71115   1.943  43.927   6.450
10027POPC   D2A71116   1.982  43.884   6.750
10027POPC   C3A71117   2.016  43.888   7.050
10027POPC   C4A71118   1.954  43.858   7.350
10027POPC   C1B71119   1.709  43.924   6.450
10027POPC   C2B71120   1.717  43.930   6.750
10027POPC   C3B71121   1.748  43.903   7.050
10027POPC   C4B71122   1.705  43.889   7.350
10028POPC   NC371123  21.365  13.666   5.550
10028POPC   PO471124  21.342  13.665   5.850
10028POPC   GL171125  21.412  13.620   6.150
10028POPC   GL271126  21.476  13.587   6.150
10028POPC   C1A71127  21.417  13.620   6.450
10028POPC   D2A71128  21.429  13.590   6.750
10028POPC   C3A71129  21.353  13.612   7.050
10028POPC   C4A71130  21.427  13.593   7.350
10028POPC   C1B71131  21.628  13.490   6.450
10028POPC   C2B71132  21.562  13.493   6.750
10028POPC   C3B71133  21.577  13.470   7.050
10028POPC   C4B71134  21.612  13.435   7.350
10029POPC   NC371135  20.570  33.809   5.550
10029POPC   PO471136  20.659  33.834   5.850
10029POPC   GL171137  20.627  33.787   6.150
10029POPC   GL271138  20.491  33.764   6.150
10029POPC   C1A71139  20.597  33.806   6.450
10029POPC   D2A71140  20.602  33.779   6.750
10029POPC   C3A71141  20.574  33.846   7.050
10029POPC   C4A71142  20.583  33.799   7.350
10029POPC   C1B71143  20.407  33.740   6.450
10029POPC   C2B71144  20.365  33.828   6.750
10029POPC   C3B71145  20.317  33.763   7.050
10029POPC   C4B71146  20.390  33.748   7.350
10030POPC   NC371147  36.165  22.915   5.550
10030POPC   PO471148  36.087  22.948   5.850
10030POPC   GL171149  36.146  22.915   6.150
10030POPC   GL271150  36.092  23.019   6.150
10030POPC   C1A71151  36.122  22.980   6.450
10030POPC   D2A71152  36.144  22.967   6.750
10030POPC   C3A71153  36.113  22.976   7.050
10030POPC   C4A71154  36.111  22.977   7.350
10030POPC   C1B71155  36.066  23.179   6.450
10030POPC   C2B71156  36.080  23.186   6.750
10030POPC   C3B71157  36.021  23.166   7.050
10030POPC   C4B71158  36.013  23.165   7.350
10031POPC   NC371159  19.037  20.621   5.550
10031POPC   PO471160  19.028  20.655   5.850
10031POPC   GL171161  19.085  20.607   6.150
10031POPC   GL271162  19.204  20.553   6.150
10031POPC   C1A71163  19.045  20.647   6.450
10031POPC   D2A71164  19.046  20.655   6.750
10031POPC   C3A71165  19.071  20.632   7.050
10031POPC   C4A71166  19.059  20.599   7.350
10031POPC   C1B71167  19.343  20.529   6.450
10031POPC   C2B71168  19.346  20.539   6.750
10031POPC   C3B71169  19.337  20.601   7.050
10031POPC   C4B71170  19.309  20.530   7.350
10032POPC   NC371171   3.558  27.640   5.550
10032POPC   PO471172   3.502  27.613   5.850
10032POPC   GL171173   3.493  27.563   6.150
10032POPC   GL271174   3.545  27.706   6.150
10032POPC   C1A71175   3.541  27.544   6.450
10032POPC   D2A71176   3.543  27.579   6.750
10032POPC   C3A71177   3.557  27.571   7.050
10032POPC   C4A71178   3.587  27.604   7.350
10032POPC   C1B71179   3.451  27.863   6.450
10032POPC   C2B71180   3.477  27.791   6.750
10032POPC   C3B71181   3.455  27.830   7.050
10032POPC   C4B71182   3.444  27.855   7.350
10033POPC   NC371183  38.464   9.736   5.550
10033POPC   PO471184  38.415   9.785   5.850
10033POPC   GL171185  38.467   9.701   6.150
10033POPC   GL271186  38.440   9.832   6.150
10033POPC   C1A71187  38.485   9.735   6.450
10033POPC   D2A71188  38.490   9.738   6.750
10033POPC   C3A71189  38.452   9.714   7.050
10033POPC   C4A71190  38.424   9.774   7.350
10033POPC   C1B71191  38.464   9.961   6.450
10033POPC   C2B71192  38.480  10.024   6.750
10033POPC   C3B71193  38.465  10.041   7.050
10033POPC   C4B71194  38.444   9.949   7.350
10034POPC   NC371195  43.121  28.334   5.550
10034POPC   PO471196  43.126  28.330   5.850
10034POPC   GL171197  43.109  28.322   6.150
10034POPC   GL271198  42.958  28.339   6.150
10034POPC   C1A71199  43.120  28.380   6.450
10034POPC   D2A71200  43.075  28.354   6.750
10034POPC   C3A71201  43.133  28.359   7.050
10034POPC   C4A71202  43.072  28.329   7.350
10034POPC   C1B71203  42.906  28.299   6.450
10034POPC   C2B71204  42.841  28.292   6.750
10034POPC   C3B71205  42.894  28.247   7.050
10034POPC   C4B71206  42.901  28.283   7.350
10035POPC   NC371207  22.143  19.879   5.550
10035POPC   PO471208  22.118  19.807   5.850
10035POPC   GL171209  22.192  19.811   6.150
10035POPC   GL271210  22.218  19.985   6.150
10035POPC   C1A71211  22.146  19.842   6.450
10035POPC   D2A71212  22.185  19.805   6.750
10035POPC   C3A71213  22.206  19.850   7.050
10035POPC   C4A71214  22.137  19.867   7.350
10035POPC   C1B71215  22.238  20.039   6.450
10035POPC   C2B71216  22.231  20.061   6.750
10035POPC   C3B71217  22.257  20.094   7.050
10035POPC   C4B71218  22.291  20.092   7.350
10036POPC   NC371219  19.832  18.309   5.550
10036POPC   PO471220  19.839  18.272   5.850
10036POPC   GL171221  19.850  18.274   6.150
10036POPC   GL271222  19.872  18.155   6.150
10036POPC   C1A71223  19.831  18.323   6.450
10036POPC   D2A71224  19.790  18.280   6.750
10036POPC   C3A71225  19.879  18.331   7.050
10036POPC   C4A71226  19.840  18.241   7.350
10036POPC   C1B71227  19.860  18.075   6.450
10036POPC   C2B71228  19.782  18.072   6.750
10036POPC   C3B71229  19.784  18.049   7.050
10036POPC   C4B71230  19.856  18.015   7.350
10037POPC   NC371231  27.582  16.762   5.550
10037POPC   PO471232  27.572  16.777   5.850
10037POPC   GL171233  27.619  16.779   6.150
10037POPC   GL271234  27.675  16.591   6.150
10037POPC   C1A71235  27.574  16.771   6.450
10037POPC   D2A71236  27.583  16.687   6.750
10037POPC   C3A71237  27.599  16.727   7.050
10037POPC   C4A71238  27.598  16.698   7.350
10037POPC   C1B71239  27.776  16.488   6.450
10037POPC   C2B71240  27.726  16.576   6.750
10037POPC   C3B71241  27.702  16.487   7.050
10037POPC   C4B71242  27.793  16.543   7.350
10038POPC   NC371243  19.800  43.915   5.550
10038POPC   PO471244  19.844  43.935   5.850
10038POPC   GL171245  19.882  43.892   6.150
10038POPC   GL271246  19.994  43.934   6.150
10038POPC   C1A71247  19.882  43.901   6.450
10038POPC   D2A71248  19.796  43.929   6.750
10038POPC   C3A71249  19.853  43.919   7.050
10038POPC   C4A71250  19.869  43.845   7.350
10038POPC   C1B71251  20.075  43.855   6.450
10038POPC   C2B71252  20.050  43.859   6.750
10038POPC   C3B71253  20.040  43.906   7.050
10038POPC   C4B71254  20.101  43.860   7.350
10039POPC   NC371255   2.735  36.900   5.550
10039POPC   PO471256   2.737  36.888   5.850
10039POPC   GL171257   2.716  36.920   6.150
10039POPC   GL271258   2.732  37.047   6.150
10039POPC   C1A71259   2.748  36.874   6.450
10039POPC   D2A71260   2.743  36.915   6.750
10039POPC   C3A71261   2.810  36.855   7.050
10039POPC   C4A71262   2.730  36.946   7.350
10039POPC   C1B71263   2.765  37.112   6.450
10039POPC   C2B71264   2.692  37.188   6.750
10039POPC   C3B71265   2.735  37.142   7.050
10039POPC   C4B71266   2.766  37.108   7.350
10040POPC   NC371267  34.559  33.061   5.550
10040POPC   PO471268  34.537  33.066   5.850
10040POPC   GL171269  34.555  32.991   6.150
10040POPC   GL271270  34.497  32.916   6.150
10040POPC   C1A71271  34.566  32.982   6.450
10040POPC   D2A71272  34.536  32.976   6.750
10040POPC   C3A71273  34.612  33.014   7.050
10040POPC   C4A71274  34.622  33.053   7.350
10040POPC   C1B71275  34.409  32.836   6.450
10040POPC   C2B71276  34.379  32.858   6.750
10040POPC   C3B71277  34.441  32.805   7.050
10040POPC   C4B71278  34.395  32.867   7.350
10041POPC   NC371279   9.702  38.413   5.550
10041POPC   PO471280   9.748  38.489   5.850
10041POPC   GL171281   9.740  38.406   6.150
10041POPC   GL271282   9.880  38.441   6.150
10041POPC   C1A71283   9.730  38.450   6.450
10041POPC   D2A71284   9.721  38.484   6.750
10041POPC   C3A71285   9.722  38.476   7.050
10041POPC   C4A71286   9.793  38.493   7.350
10041POPC   C1B71287  10.009  38.454   6.450
10041POPC   C2B71288   9.992  38.506   6.750
10041POPC   C3B71289  10.038  38.491   7.050
10041POPC   C4B71290   9.953  38.499   7.350
10042POPC   NC371291  26.852   5.899   5.550
10042POPC   PO471292  26.785   5.895   5.850
10042POPC   GL171293  26.849   5.821   6.150
10042POPC   GL271294  26.719   5.841   6.150
10042POPC   C1A71295  26.861   5.867   6.450
10042POPC   D2A71296  26.835   5.866   6.750
10042POPC   C3A71297  26.822   5.851   7.050
10042POPC   C4A71298  26.855   5.893   7.350
10042POPC   C1B71299  26.602   5.848   6.450
10042POPC   C2B71300  26.544   5.899   6.750
10042POPC   C3B71301  26.578   5.880   7.050
10042POPC   C4B71302  26.560   5.890   7.350
10043POPC   NC371303  12.085   6.614   5.550
10043POPC   PO471304  12.037   6.600   5.850
10043POPC   GL171305  12.109   6.687   6.150
10043POPC   GL271306  11.975   6.631   6.150
10043POPC   C1A71307  12.081   6.691   6.450
10043POPC   D2A71308  12.091   6.640   6.750
10043POPC   C3A71309  12.093   6.664   7.050
10043POPC   C4A71310  12.036   6.621   7.350
10043POPC   C1B71311  11.844   6.635   6.450
10043POPC   C2B71312  11.847   6.579   6.750
10043POPC   C3B71313  11.786   6.633   7.050
10043POPC   C4B71314  11.786   6.659   7.350
10044POPC   NC371315  11.298  34.563   5.550
10044POPC   PO471316  11.296  34.624   5.850
10044POPC   GL171317  11.314  34.562   6.150
10044POPC   GL271318  11.153  34.569   6.150
10044POPC   C1A71319  11.276  34.530   6.450
10044POPC   D2A71320  11.333  34.572   6.750
10044POPC   C3A71321  11.308  34.575   7.050
10044POPC   C4A71322  11.323  34.592   7.350
10044POPC   C1B71323  11.055  34.666   6.450
10044POPC   C2B71324  11.014  34.644   6.750
10044POPC   C3B71325  11.097  34.629   7.050
10044POPC   C4B71326  11.015  34.581   7.350
10045POPC   NC371327  26.003  41.524   5.550
10045POPC   PO471328  26.023  41.567   5.850
10045POPC   GL171329  26.084  41.593   6.150
10045POPC   GL271330  25.962  41.465   6.150
10045POPC   C1A71331  26.063  41.588   6.450
10045POPC   D2A71332  26.085  41.555   6.750
10045POPC   C3A71333  26.026  41.551   7.050
10045POPC   C4A71334  26.073  41.585   7.350
10045POPC   C1B71335  25.863  41.393   6.450
10045POPC   C2B71336  25.919  41.368   6.750
10045POPC   C3B71337  25.881  41.395   7.050
10045POPC   C4B71338  25.876  41.351   7.350
10046POPC   NC371339  25.282  26.071   5.550
10046POPC   PO471340  25.246  26.006   5.850
10046POPC   GL171341  25.278  26.063   6.150
10046POPC   GL271342  25.293  26.161   6.150
10046POPC   C1A71343  25.277  26.072   6.450
10046POPC   D2A71344  25.256  26.040   6.750
10046POPC   C3A71345  25.290  26.047   7.050
10046POPC   C4A71346  25.233  26.014   7.350
10046POPC   C1B71347  25.187  26.293   6.450
10046POPC   C2B71348  25.174  26.337   6.750
10046POPC   C3B71349  25.182  26.336   7.050
10046POPC   C4B71350  25.227  26.287   7.350
10047POPC   NC371351  15.928  43.075   5.550
10047POPC   PO471352  15.971  43.077   5.850
10047POPC   GL171353  15.967  43.127   6.150
10047POPC   GL271354  15.948  43.257   6.150
10047POPC   C1A71355  15.944  43.067   6.450
10047POPC   D2A71356  15.936  43.149   6.750
10047POPC   C3A71357  15.986  43.160   7.050
10047POPC   C4A71358  15.952  43.085   7.350
10047POPC   C1B71359  15.839  43.396   6.450
10047POPC   C2B71360  15.932  43.346   6.750
10047POPC   C3B71361  15.910  43.355   7.050
10047POPC   C4B71362  15.849  43.390   7.350
10048POPC   NC371363  12.111   5.886   5.550
10048POPC   PO471364  12.040   5.820   5.850
10048POPC   GL171365  12.102   5.838   6.150
10048POPC   GL271366  11.970   5.795   6.150
10048POPC   C1A71367  12.111   5.873   6.450
10048POPC   D2A71368  12.082   5.918   6.750
10048POPC   C3A71369  12.095   5.914   7.050
10048POPC   C4A71370  12.046   5.859   7.350
10048POPC   C1B71371  11.811   5.809   6.450
10048POPC   C2B71372  11.873   5.775   6.750
10048POPC   C3B71373  11.867   5.756   7.050
10048POPC   C4B71374  11.834   5.831   7.350
10049POPC   NC371375  15.162  32.229   5.550
10049POPC   PO471376  15.205  32.225   5.850
10049POPC   GL171377  15.178  32.282   6.150
10049POPC   GL271378  15.167  32.384   6.150
10049POPC   C1A71379  15.212  32.266   6.450
10049POPC   D2A71380  15.182  32.246   6.750
10049POPC   C3A71381  15.169  32.228   7.050
10049POPC   C4A71382  15.134  32.261   7.350
10049POPC   C1B71383  15.063  32.473   6.450
10049POPC   C2B71384  15.112  32.498   6.750
10049POPC   C3B71385  15.086  32.470   7.050
10049POPC   C4B71386  15.080  32.480   7.350
10050POPC   NC371387  31.514  30.698   5.550
10050POPC   PO471388  31.458  30.670   5.850
10050POPC   GL171389  31.457  30.673   6.150
10050POPC   GL271390  31.499  30.612   6.150
10050POPC   C1A71391  31.448  30.738   6.450
10050POPC   D2A71392  31.456  30.719   6.750
10050POPC   C3A71393  31.500  30.675   7.050
10050POPC   C4A71394  31.449  30.698   7.350
10050POPC   C1B71395  31.508  30.468   6.450
10050POPC   C2B71396  31.492  30.492   6.750
10050POPC   C3B71397  31.487  30.412   7.050
10050POPC   C4B71398  31.511  30.487   7.350
10051POPC   NC371399  36.932  15.140   5.550
10051POPC   PO471400  36.948  15.217   5.850
10051POPC   GL171401  36.898  15.180   6.150
10051POPC   GL271402  36.754  15.221   6.150
10051POPC   C1A71403  36.889  15.142   6.450
10051POPC   D2A71404  36.870  15.170   6.750
10051POPC   C3A71405  36.869  15.219   7.050
10051POPC   C4A71406  36.858  15.212   7.350
10051POPC   C1B71407  36.643  15.194   6.450
10051POPC   C2B71408  36.691  15.243   6.750
10051POPC   C3B71409  36.695  15.249   7.050
10051POPC   C4B71410  36.706  15.190   7.350
10052POPC   NC371411  26.834  28.384   5.550
10052POPC   PO471412  26.864  28.414   5.850
10052POPC   GL171413  26.776  28.394   6.150
10052POPC   GL271414  26.761  28.318   6.150
10052POPC   C1A71415  26.775  28.373   6.450
10052POPC   D2A71416  26.846  28.397   6.750
10052POPC   C3A71417  26.823  28.369   7.050
10052POPC   C4A71418  26.789  28.374   7.350
10052POPC   C1B71419  26.588  28.215   6.450
10052POPC   C2B71420  26.618  28.200   6.750
10052POPC   C3B71421  26.664  28.220   7.050
10052POPC   C4B71422  26.589  28.167   7.350
10053POPC   NC371423  15.156  33.068   5.550
10053POPC   PO471424  15.160  32.993   5.850
10053POPC   GL171425  15.219  33.069   6.150
10053POPC   GL271426  15.057  32.954   6.150
10053POPC   C1A71427  15.198  33.049   6.450
10053POPC   D2A71428  15.163  33.001   6.750
10053POPC   C3A71429  15.181  33.023   7.050
10053POPC   C4A71430  15.154  33.021   7.350
10053POPC   C1B71431  14.951  32.912   6.450
10053POPC   C2B71432  14.970  32.942   6.750
10053POPC   C3B71433  14.902  32.991   7.050
10053POPC   C4B71434  14.952  32.974   7.350
10054POPC   NC371435   9.022  13.659   5.550
10054POPC   PO471436   8.951  13.592   5.850
10054POPC   GL171437   8.923  13.608   6.150
10054POPC   GL271438   8.923  13.708   6.150
10054POPC   C1A71439   8.977  13.598   6.450
10054POPC   D2A71440   9.000  13.589   6.750
10054POPC   C3A71441   8.987  13.579   7.050
10054POPC   C4A71442   8.935  13.594   7.350
10054POPC   C1B71443   8.849  13.881   6.450
10054POPC   C2B71444   8.847  13.831   6.750
10054POPC   C3B71445   8.903  13.870   7.050
10054POPC   C4B71446   8.858  13.839   7.350
10055POPC   NC371447  44.655  38.496   5.550
10055POPC   PO471448  44.652  38.432   5.850
10055POPC   GL171449  44.663  38.414   6.150
10055POPC   GL271450  44.581  38.513   6.150
10055POPC   C1A71451  44.669  38.499   6.450
10055POPC   D2A71452  44.707  38.495   6.750
10055POPC   C3A71453  44.632  38.422   7.050
10055POPC   C4A71454  44.701  38.442   7.350
10055POPC   C1B71455  44.431  38.515   6.450
10055POPC   C2B71456  44.416  38.531   6.750
10055POPC   C3B71457  44.441  38.512   7.050
10055POPC   C4B71458  44.457  38.498   7.350
10056POPC   NC371459   9.778   9.736   5.550
10056POPC   PO471460   9.739   9.780   5.850
10056POPC   GL171461   9.796   9.711   6.150
10056POPC   GL271462   9.830   9.701   6.150
10056POPC   C1A71463   9.730   9.749   6.450
10056POPC   D2A71464   9.756   9.783   6.750
10056POPC   C3A71465   9.736   9.759   7.050
10056POPC   C4A71466   9.768   9.765   7.350
10056POPC   C1B71467   9.943   9.594   6.450
10056POPC   C2B71468   9.946   9.557   6.750
10056POPC   C3B71469   9.921   9.579   7.050
10056POPC   C4B71470   9.992   9.586   7.350
10057POPC   NC371471  21.382  10.566   5.550
10057POPC   PO471472  21.408  10.514   5.850
10057POPC   GL171473  21.355  10.551   6.150
10057POPC   GL271474  21.298  10.641   6.150
10057POPC   C1A71475  21.386  10.543   6.450
10057POPC   D2A71476  21.358  10.495   6.750
10057POPC   C3A71477  21.365  10.483   7.050
10057POPC   C4A71478  21.360  10.532   7.350
10057POPC   C1B71479  21.186  10.718   6.450
10057POPC   C2B71480  21.147  10.707   6.750
10057POPC   C3B71481  21.138  10.631   7.050
10057POPC   C4B71482  21.192  10.724   7.350
10058POPC   NC371483  38.465  43.848   5.550
10058POPC   PO471484  38.500  43.844   5.850
10058POPC   GL171485  38.414  43.903   6.150
10058POPC   GL271486  38.427  43.967   6.150
10058POPC   C1A71487  38.501  43.849   6.450
10058POPC   D2A71488  38.427  43.889   6.750
10058POPC   C3A71489  38.427  43.903   7.050
10058POPC   C4A71490  38.406  43.869   7.350
10058POPC   C1B71491  38.438  44.142   6.450
10058POPC   C2B71492  38.445  44.168   6.750
10058POPC   C3B71493  38.439  44.104   7.050
10058POPC   C4B71494  38.358  44.144   7.350
10059POPC   NC371495   6.596  12.050   5.550
10059POPC   PO471496   6.666  12.058   5.850
10059POPC   GL171497   6.627  12.118   6.150
10059POPC   GL271498   6.633  12.223   6.150
10059POPC   C1A71499   6.600  12.042   6.450
10059POPC   D2A71500   6.682  12.123   6.750
10059POPC   C3A71501   6.611  12.050   7.050
10059POPC   C4A71502   6.611  12.066   7.350
10059POPC   C1B71503   6.690  12.297   6.450
10059POPC   C2B71504   6.716  12.344   6.750
10059POPC   C3B71505   6.711  12.356   7.050
10059POPC   C4B71506   6.699  12.321   7.350
10060POPC   NC371507  29.948  18.233   5.550
10060POPC   PO471508  29.901  18.284   5.850
10060POPC   GL171509  29.894  18.278   6.150
10060POPC   GL271510  29.773  18.291   6.150
10060POPC   C1A71511  29.946  18.289   6.450
10060POPC   D2A71512  29.928  18.263   6.750
10060POPC   C3A71513  29.946  18.297   7.050
10060POPC   C4A71514  29.963  18.274   7.350
10060POPC   C1B71515  29.687  18.246   6.450
10060POPC   C2B71516  29.690  18.264   6.750
10060POPC   C3B71517  29.708  18.256   7.050
10060POPC   C4B71518  29.711  18.290   7.350
10061POPC   NC371519  44.684  22.963   5.550
10061POPC   PO471520  44.634  22.955   5.850
10061POPC   GL171521  44.651  22.942   6.150
10061POPC   GL271522  44.636  23.018   6.150
10061POPC   C1A71523  44.676  22.978   6.450
10061POPC   D2A71524  44.687  22.904   6.750
10061POPC   C3A71525  44.656  22.948   7.050
10061POPC   C4A71526  44.631  22.900   7.350
10061POPC   C1B71527  44.478  23.159   6.450
10061POPC   C2B71528  44.573  23.134   6.750
10061POPC   C3B71529  44.480  23.190   7.050
10061POPC   C4B71530  44.533  23.146   7.350
10062POPC   NC371531  10.560  12.086   5.550
10062POPC   PO471532  10.561  12.113   5.850
10062POPC   GL171533  10.477  12.085   6.150
10062POPC   GL271534  10.496  11.936   6.150
10062POPC   C1A71535  10.516  12.090   6.450
10062POPC   D2A71536  10.496  12.112   6.750
10062POPC   C3A71537  10.525  12.121   7.050
10062POPC   C4A71538  10.569  12.067   7.350
10062POPC   C1B71539  10.417  11.827   6.450
10062POPC   C2B71540  10.498  11.789   6.750
10062POPC   C3B71541  10.450  11.852   7.050
10062POPC   C4B71542  10.458  11.860   7.350
10063POPC   NC371543   5.888   4.308   5.550
10063POPC   PO471544   5.905   4.334   5.850
10063POPC   GL171545   5.903   4.349   6.150
10063POPC   GL271546   5.983   4.215   6.150
10063POPC   C1A71547   5.865   4.277   6.450
10063POPC   D2A71548   5.915   4.367   6.750
10063POPC   C3A71549   5.897   4.300   7.050
10063POPC   C4A71550   5.898   4.273   7.350
10063POPC   C1B71551   6.078   4.157   6.450
10063POPC   C2B71552   6.054   4.168   6.750
10063POPC   C3B71553   6.055   4.122   7.050
10063POPC   C4B71554   6.094   4.171   7.350
10064POPC   NC371555  40.012  18.325   5.550
10064POPC   PO471556  40.006  18.274   5.850
10064POPC   GL171557  39.991  18.313   6.150
10064POPC   GL271558  39.947  18.348   6.150
10064POPC   C1A71559  40.011  18.317   6.450
10064POPC   D2A71560  40.051  18.296   6.750
10064POPC   C3A71561  39.988  18.283   7.050
10064POPC   C4A71562  40.009  18.268   7.350
10064POPC   C1B71563  39.889  18.472   6.450
10064POPC   C2B71564  39.879  18.483   6.750
10064POPC   C3B71565  39.923  18.519   7.050
10064POPC   C4B71566  39.862  18.478   7.350
10065POPC   NC371567   7.390  40.752   5.550
10065POPC   PO471568   7.419  40.755   5.850
10065POPC   GL171569   7.379  40.738   6.150
10065POPC   GL271570   7.336  40.778   6.150
10065POPC   C1A71571   7.409  40.786   6.450
10065POPC   D2A71572   7.404  40.786   6.750
10065POPC   C3A71573   7.464  40.815   7.050
10065POPC   C4A71574   7.411  40.760   7.350
10065POPC   C1B71575   7.158  40.692   6.450
10065POPC   C2B71576   7.223  40.739   6.750
10065POPC   C3B71577   7.206  40.722   7.050
10065POPC   C4B71578   7.196  40.744   7.350
10066POPC   NC371579  34.571  29.138   5.550
10066POPC   PO471580  34.584  29.134   5.850
10066POPC   GL171581  34.625  29.159   6.150
10066POPC   GL271582  34.684  29.193   6.150
10066POPC   C1A71583  34.582  29.147   6.450
10066POPC   D2A71584  34.530  29.128   6.750
10066POPC   C3A71585  34.553  29.189   7.050
10066POPC   C4A71586  34.605  29.103   7.350
10066POPC   C1B71587  34.842  29.187   6.450
10066POPC   C2B71588  34.831  29.199   6.750
10066POPC   C3B71589  34.800  29.173   7.050
10066POPC   C4B71590  34.811  29.209   7.350
10067POPC   NC371591  32.238  21.395   5.550
10067POPC   PO471592  32.284  21.378   5.850
10067POPC   GL171593  32.229  21.379   6.150
10067POPC   GL271594  32.295  21.510   6.150
10067POPC   C1A71595  32.204  21.389   6.450
10067POPC   D2A71596  32.217  21.404   6.750
10067POPC   C3A71597  32.228  21.358   7.050
10067POPC   C4A71598  32.252  21.430   7.350
10067POPC   C1B71599  32.261  21.640   6.450
10067POPC   C2B71600  32.328  21.613   6.750
10067POPC   C3B71601  32.318  21.651   7.050
10067POPC   C4B71602  32.256  21.628   7.350
10068POPC   NC371603  19.106  10.494   5.550
10068POPC   PO471604  19.031  10.531   5.850
10068POPC   GL171605  19.010  10.476   6.150
10068POPC   GL271606  18.987  10.600   6.150
10068POPC   C1A71607  19.080  10.529   6.450
10068POPC   D2A71608  19.096  10.565   6.750
10068POPC   C3A71609  19.105  10.541   7.050
10068POPC   C4A71610  19.059  10.571   7.350
10068POPC   C1B71611  18.857  10.634   6.450
10068POPC   C2B71612  18.884  10.694   6.750
10068POPC   C3B71613  18.857  10.713   7.050
10068POPC   C4B71614  18.848  10.684   7.350
10069POPC   NC371615  28.408  12.064   5.550
10069POPC   PO471616  28.330  12.077   5.850
10069POPC   GL171617  28.330  12.073   6.150
10069POPC   GL271618  28.320  11.936   6.150
10069POPC   C1A71619  28.369  12.060   6.450
10069POPC   D2A71620  28.406  12.079   6.750
10069POPC   C3A71621  28.412  12.109   7.050
10069POPC   C4A71622  28.338  12.027   7.350
10069POPC   C1B71623  28.317  11.843   6.450
10069POPC   C2B71624  28.293  11.875   6.750
10069POPC   C3B71625  28.288  11.868   7.050
10069POPC   C4B71626  28.312  11.783   7.350
10070POPC   NC371627   7.373  29.165   5.550
10070POPC   PO471628   7.401  29.184   5.850
10070POPC   GL171629   7.373  29.155   6.150
10070POPC   GL271630   7.281  29.123   6.150
10070POPC   C1A71631   7.455  29.174   6.450
10070POPC   D2A71632   7.385  29.180   6.750
10070POPC   C3A71633   7.392  29.169   7.050
10070POPC   C4A71634   7.398  29.108   7.350
10070POPC   C1B71635   7.153  29.156   6.450
10070POPC   C2B71636   7.170  29.115   6.750
10070POPC   C3B71637   7.194  29.187   7.050
10070POPC   C4B71638   7.131  29.101   7.350
10071POPC   NC371639  10.502  39.244   5.550
10071POPC   PO471640  10.555  39.243   5.850
10071POPC   GL171641  10.488  39.236   6.150
10071POPC   GL271642  10.518  39.074   6.150
10071POPC   C1A71643  10.538  39.231   6.450
10071POPC   D2A71644  10.524  39.224   6.750
10071POPC   C3A71645  10.554  39.193   7.050
10071POPC   C4A71646  10.523  39.233   7.350
10071POPC   C1B71647  10.484  39.031   6.450
10071POPC   C2B71648  10.446  38.998   6.750
10071POPC   C3B71649  10.472  38.983   7.050
10071POPC   C4B71650  10.401  38.945   7.350
10072POPC   NC371651  41.603  15.142   5.550
10072POPC   PO471652  41.583  15.168   5.850
10072POPC   GL171653  41.595  15.193   6.150
10072POPC   GL271654  41.709  15.153   6.150
10072POPC   C1A71655  41.543  15.175   6.450
10072POPC   D2A71656  41.600  15.157   6.750
10072POPC   C3A71657  41.526  15.215   7.050
10072POPC   C4A71658  41.549  15.223   7.350
10072POPC   C1B71659  41.792  15.058   6.450
10072POPC   C2B71660  41.829  15.036   6.750
10072POPC   C3B71661  41.816  15.062   7.050
10072POPC   C4B71662  41.758  15.115   7.350
10073POPC   NC371663  26.864   9.006   5.550
10073POPC   PO471664  26.800   8.976   5.850
10073POPC   GL171665  26.824   8.966   6.150
10073POPC   GL271666  26.847   8.883   6.150
10073POPC   C1A71667  26.845   8.984   6.450
10073POPC   D2A71668  26.839   9.010   6.750
10073POPC   C3A71669  26.804   9.001   7.050
10073POPC   C4A71670  26.866   8.988   7.350
10073POPC   C1B71671  26.970   8.771   6.450
10073POPC   C2B71672  26.939   8.771   6.750
10073POPC   C3B71673  26.993   8.764   7.050
10073POPC   C4B71674  27.015   8.817   7.350
10074POPC   NC371675  22.136  22.906   5.550
10074POPC   PO471676  22.162  22.959   5.850
10074POPC   GL171677  22.207  22.930   6.150
10074POPC   GL271678  22.076  22.870   6.150
10074POPC   C1A71679  22.165  22.897   6.450
10074POPC   D2A71680  22.134  22.945   6.750
10074POPC   C3A71681  22.132  22.920   7.050
10074POPC   C4A71682  22.178  22.907   7.350
10074POPC   C1B71683  21.946  22.800   6.450
10074POPC   C2B71684  21.940  22.827   6.750
10074POPC   C3B71685  21.940  22.805   7.050
10074POPC   C4B71686  21.972  22.801   7.350
10075POPC   NC371687  29.948  11.348   5.550
10075POPC   PO471688  29.941  11.337   5.850
10075POPC   GL171689  29.906  11.316   6.150
10075POPC   GL271690  30.025  11.340   6.150
10075POPC   C1A71691  29.937  11.277   6.450
10075POPC   D2A71692  29.909  11.286   6.750
10075POPC   C3A71693  29.877  11.271   7.050
10075POPC   C4A71694  29.932  11.276   7.350
10075POPC   C1B71695  30.128  11.295   6.450
10075POPC   C2B71696  30.221  11.342   6.750
10075POPC   C3B71697  30.137  11.330   7.050
10075POPC   C4B71698  30.219  11.290   7.350
10076POPC   NC371699   9.746   8.174   5.550
10076POPC   PO471700   9.778   8.228   5.850
10076POPC   GL171701   9.758   8.188   6.150
10076POPC   GL271702   9.680   8.068   6.150
10076POPC   C1A71703   9.754   8.222   6.450
10076POPC   D2A71704   9.745   8.223   6.750
10076POPC   C3A71705   9.711   8.196   7.050
10076POPC   C4A71706   9.721   8.198   7.350
10076POPC   C1B71707   9.558   8.030   6.450
10076POPC   C2B71708   9.644   8.027   6.750
10076POPC   C3B71709   9.649   8.042   7.050
10076POPC   C4B71710   9.637   8.026   7.350
10077POPC   NC371711  23.745  17.489   5.550
10077POPC   PO471712  23.733  17.549   5.850
10077POPC   GL171713  23.738  17.537   6.150
10077POPC   GL271714  23.653  17.675   6.150
10077POPC   C1A71715  23.753  17.508   6.450
10077POPC   D2A71716  23.715  17.532   6.750
10077POPC   C3A71717  23.747  17.476   7.050
10077POPC   C4A71718  23.725  17.513   7.350
10077POPC   C1B71719  23.689  17.724   6.450
10077POPC   C2B71720  23.613  17.721   6.750
10077POPC   C3B71721  23.648  17.789   7.050
10077POPC   C4B71722  23.676  17.757   7.350
10078POPC   NC371723  12.046  29.175   5.550
10078POPC   PO471724  12.093  29.194   5.850
10078POPC   GL171725  12.064  29.171   6.150
10078POPC   GL271726  11.954  29.224   6.150
10078POPC   C1A71727  12.089  29.188   6.450
10078POPC   D2A71728  12.112  29.189   6.750
10078POPC   C3A71729  12.122  29.183   7.050
10078POPC   C4A71730  12.057  29.115   7.350
10078POPC   C1B71731  11.877  29.362   6.450
10078POPC   C2B71732  11.958  29.374   6.750
10078POPC   C3B71733  11.879  29.364   7.050
10078POPC   C4B71734  11.936  29.299   7.350
10079POPC   NC371735  10.517  36.933   5.550
10079POPC   PO471736  10.502  36.937   5.850
10079POPC   GL171737  10.482  36.889   6.150
10079POPC   GL271738  10.628  36.764   6.150
10079POPC   C1A71739  10.485  36.920   6.450
10079POPC   D2A71740  10.544  36.919   6.750
10079POPC   C3A71741  10.514  36.938   7.050
10079POPC   C4A71742  10.503  36.908   7.350
10079POPC   C1B71743  10.692  36.707   6.450
10079POPC   C2B71744  10.648  36.657   6.750
10079POPC   C3B71745  10.691  36.686   7.050
10079POPC   C4B71746  10.688  36.744   7.350
10080POPC   NC371747  39.229  36.122   5.550
10080POPC   PO471748  39.246  36.116   5.850
10080POPC   GL171749  39.264  36.164   6.150
10080POPC   GL271750  39.284  36.265   6.150
10080POPC   C1A71751  39.206  36.088   6.450
10080POPC   D2A71752  39.219  36.121   6.750
10080POPC   C3A71753  39.278  36.086   7.050
10080POPC   C4A71754  39.255  36.156   7.350
10080POPC   C1B71755  39.285  36.324   6.450
10080POPC   C2B71756  39.322  36.345   6.750
10080POPC   C3B71757  39.257  36.353   7.050
10080POPC   C4B71758  39.236  36.404   7.350
10081POPC   NC371759  41.585  36.171   5.550
10081POPC   PO471760  41.515  36.125   5.850
10081POPC   GL171761  41.554  36.175   6.150
10081POPC   GL271762  41.430  36.160   6.150
10081POPC   C1A71763  41.542  36.110   6.450
10081POPC   D2A71764  41.520  36.099   6.750
10081POPC   C3A71765  41.517  36.171   7.050
10081POPC   C4A71766  41.529  36.083   7.350
10081POPC   C1B71767  41.354  36.160   6.450
10081POPC   C2B71768  41.291  36.086   6.750
10081POPC   C3B71769  41.317  36.156   7.050
10081POPC   C4B71770  41.269  36.168   7.350
10082POPC   NC371771  10.556  15.140   5.550
10082POPC   PO471772  10.523  15.207   5.850
10082POPC   GL171773  10.554  15.186   6.150
10082POPC   GL271774  10.585  15.268   6.150
10082POPC   C1A71775  10.528  15.221   6.450
10082POPC   D2A71776  10.551  15.162   6.750
10082POPC   C3A71777  10.518  15.185   7.050
10082POPC   C4A71778  10.533  15.216   7.350
10082POPC   C1B71779  10.752  15.330   6.450
10082POPC   C2B71780  10.721  15.249   6.750
10082POPC   C3B71781  10.705  15.333   7.050
10082POPC   C4B71782  10.711  15.298   7.350
10083POPC   NC371783  32.982  33.065   5.550
10083POPC   PO471784  33.038  33.003   5.850
10083POPC   GL171785  32.981  32.993   6.150
10083POPC   GL271786  33.053  33.111   6.150
10083POPC   C1A71787  33.018  33.072   6.450
10083POPC   D2A71788  33.012  33.040   6.750
10083POPC   C3A71789  32.991  33.064   7.050
10083POPC   C4A71790  33.069  32.997   7.350
10083POPC   C1B71791  33.109  33.256   6.450
10083POPC   C2B71792  33.201  33.231   6.750
10083POPC   C3B71793  33.192  33.284   7.050
10083POPC   C4B71794  33.182  33.263   7.350
10084POPC   NC371795   2.003  29.927   5.550
10084POPC   PO471796   1.943  29.880   5.850
10084POPC   GL171797   2.011  29.903   6.150
10084POPC   GL271798   1.932  29.812   6.150
10084POPC   C1A71799   2.032  29.898   6.450
10084POPC   D2A71800   1.968  29.914   6.750
10084POPC   C3A71801   1.996  29.922   7.050
10084POPC   C4A71802   2.025  29.902   7.350
10084POPC   C1B71803   1.951  29.668   6.450
10084POPC   C2B71804   1.903  29.659   6.750
10084POPC   C3B71805   1.935  29.685   7.050
10084POPC   C4B71806   1.939  29.661   7.350
10085POPC   NC371807  28.343  35.395   5.550
10085POPC   PO471808  28.410  35.322   5.850
10085POPC   GL171809  28.363  35.350   6.150
10085POPC   GL271810  28.531  35.361   6.150
10085POPC   C1A71811  28.374  35.380   6.450
10085POPC   D2A71812  28.375  35.389   6.750
10085POPC   C3A71813  28.379  35.385   7.050
10085POPC   C4A71814  28.399  35.396   7.350
10085POPC   C1B71815  28.593  35.465   6.450
10085POPC   C2B71816  28.564  35.378   6.750
10085POPC   C3B71817  28.565  35.422   7.050
10085POPC   C4B71818  28.648  35.437   7.350
10086POPC   NC371819  38.432  24.509   5.550
10086POPC   PO471820  38.455  24.485   5.850
10086POPC   GL171821  38.410  24.483   6.150
10086POPC   GL271822  38.495  24.632   6.150
10086POPC   C1A71823  38.431  24.519   6.450
10086POPC   D2A71824  38.456  24.524   6.750
10086POPC   C3A71825  38.462  24.451   7.050
10086POPC   C4A71826  38.497  24.505   7.350
10086POPC   C1B71827  38.509  24.757   6.450
10086POPC   C2B71828  38.580  24.713   6.750
10086POPC   C3B71829  38.499  24.750   7.050
10086POPC   C4B71830  38.517  24.716   7.350
10087POPC   NC371831  13.664  12.113   5.550
10087POPC   PO471832  13.648  12.031   5.850
10087POPC   GL171833  13.671  12.028   6.150
10087POPC   GL271834  13.721  12.077   6.150
10087POPC   C1A71835  13.661  12.125   6.450
10087POPC   D2A71836  13.628  12.099   6.750
10087POPC   C3A71837  13.666  12.100   7.050
10087POPC   C4A71838  13.603  12.035   7.350
10087POPC   C1B71839  13.908  12.024   6.450
10087POPC   C2B71840  13.903  12.005   6.750
10087POPC   C3B71841  13.923  12.036   7.050
10087POPC   C4B71842  13.840  12.009   7.350
10088POPC   NC371843  36.875   1.209   5.550
10088POPC   PO471844  36.922   1.235   5.850
10088POPC   GL171845  36.929   1.258   6.150
10088POPC   GL271846  36.843   1.329   6.150
10088POPC   C1A71847  36.896   1.253   6.450
10088POPC   D2A71848  36.942   1.170   6.750
10088POPC   C3A71849  36.933   1.261   7.050
10088POPC   C4A71850  36.876   1.246   7.350
10088POPC   C1B71851  36.807   1.420   6.450
10088POPC   C2B71852  36.823   1.399   6.750
10088POPC   C3B71853  36.824   1.476   7.050
10088POPC   C4B71854  36.837   1.460   7.350
10089POPC   NC371855   2.010  22.979   5.550
10089POPC   PO471856   1.991  22.918   5.850
10089POPC   GL171857   2.039  22.933   6.150
10089POPC   GL271858   2.049  22.794   6.150
10089POPC   C1A71859   1.967  22.896   6.450
10089POPC   D2A71860   1.966  22.931   6.750
10089POPC   C3A71861   1.950  22.952   7.050
10089POPC   C4A71862   1.971  22.906   7.350
10089POPC   C1B71863   2.104  22.769   6.450
10089POPC   C2B71864   2.092  22.736   6.750
10089POPC   C3B71865   2.134  22.694   7.050
10089POPC   C4B71866   2.112  22.762   7.350
10090POPC   NC371867  29.891  19.874   5.550
10090POPC   PO471868  29.965  19.814   5.850
10090POPC   GL171869  29.956  19.863   6.150
10090POPC   GL271870  29.786  19.883   6.150
10090POPC   C1A71871  29.933  19.786   6.450
10090POPC   D2A71872  29.940  19.807   6.750
10090POPC   C3A71873  29.878  19.836   7.050
10090POPC   C4A71874  29.893  19.797   7.350
10090POPC   C1B71875  29.637  19.851   6.450
10090POPC   C2B71876  29.676  19.854   6.750
10090POPC   C3B71877  29.636  19.882   7.050
10090POPC   C4B71878  29.641  19.884   7.350
10091POPC   NC371879  20.599  23.723   5.550
10091POPC   PO471880  20.581  23.714   5.850
10091POPC   GL171881  20.597  23.735   6.150
10091POPC   GL271882  20.521  23.688   6.150
10091POPC   C1A71883  20.646  23.742   6.450
10091POPC   D2A71884  20.610  23.759   6.750
10091POPC   C3A71885  20.581  23.686   7.050
10091POPC   C4A71886  20.588  23.739   7.350
10091POPC   C1B71887  20.372  23.652   6.450
10091POPC   C2B71888  20.393  23.699   6.750
10091POPC   C3B71889  20.345  23.661   7.050
10091POPC   C4B71890  20.352  23.643   7.350
10092POPC   NC371891  32.280  10.566   5.550
10092POPC   PO471892  32.246  10.520   5.850
10092POPC   GL171893  32.209  10.516   6.150
10092POPC   GL271894  32.175  10.510   6.150
10092POPC   C1A71895  32.223  10.553   6.450
10092POPC   D2A71896  32.233  10.528   6.750
10092POPC   C3A71897  32.260  10.512   7.050
10092POPC   C4A71898  32.219  10.516   7.350
10092POPC   C1B71899  32.058  10.458   6.450
10092POPC   C2B71900  32.063  10.477   6.750
10092POPC   C3B71901  31.996  10.464   7.050
10092POPC   C4B71902  32.054  10.457   7.350
10093POPC   NC371903  40.737  10.500   5.550
10093POPC   PO471904  40.789  10.492   5.850
10093POPC   GL171905  40.748  10.536   6.150
10093POPC   GL271906  40.694  10.465   6.150
10093POPC   C1A71907  40.772  10.498   6.450
10093POPC   D2A71908  40.820  10.482   6.750
10093POPC   C3A71909  40.747  10.552   7.050
10093POPC   C4A71910  40.775  10.551   7.350
10093POPC   C1B71911  40.568  10.451   6.450
10093POPC   C2B71912  40.531  10.376   6.750
10093POPC   C3B71913  40.585  10.401   7.050
10093POPC   C4B71914  40.528  10.443   7.350
10094POPC   NC371915  39.249  44.688   5.550
10094POPC   PO471916  39.220  44.642   5.850
10094POPC   GL171917  39.245  44.674   6.150
10094POPC   GL271918  39.186  44.544   6.150
10094POPC   C1A71919  39.206  44.669   6.450
10094POPC   D2A71920  39.205  44.622   6.750
10094POPC   C3A71921  39.217  44.671   7.050
10094POPC   C4A71922  39.184  44.616   7.350
10094POPC   C1B71923  39.143  44.461   6.450
10094POPC   C2B71924  39.133  44.447   6.750
10094POPC   C3B71925  39.159  44.397   7.050
10094POPC   C4B71926  39.086  44.469   7.350
10095POPC   NC371927  15.205   4.314   5.550
10095POPC   PO471928  15.139   4.350   5.850
10095POPC   GL171929  15.198   4.271   6.150
10095POPC   GL271930  15.102   4.170   6.150
10095POPC   C1A71931  15.141   4.347   6.450
10095POPC   D2A71932  15.217   4.279   6.750
10095POPC   C3A71933  15.150   4.351   7.050
10095POPC   C4A71934  15.206   4.349   7.350
10095POPC   C1B71935  15.040   4.081   6.450
10095POPC   C2B71936  15.040   4.046   6.750
10095POPC   C3B71937  15.118   4.103   7.050
10095POPC   C4B71938  15.088   4.063   7.350
10096POPC   NC371939  19.807   5.913   5.550
10096POPC   PO471940  19.814   5.918   5.850
10096POPC   GL171941  19.861   5.847   6.150
10096POPC   GL271942  19.757   5.975   6.150
10096POPC   C1A71943  19.822   5.820   6.450
10096POPC   D2A71944  19.850   5.847   6.750
10096POPC   C3A71945  19.836   5.854   7.050
10096POPC   C4A71946  19.884   5.883   7.350
10096POPC   C1B71947  19.655   6.082   6.450
10096POPC   C2B71948  19.710   6.033   6.750
10096POPC   C3B71949  19.711   6.041   7.050
10096POPC   C4B71950  19.709   6.045   7.350
10097POPC   NC371951  16.706   5.044   5.550
10097POPC   PO471952  16.741   5.137   5.850
10097POPC   GL171953  16.781   5.063   6.150
10097POPC   GL271954  16.563   5.112   6.150
10097POPC   C1A71955  16.684   5.095   6.450
10097POPC   D2A71956  16.768   5.065   6.750
10097POPC   C3A71957  16.738   5.056   7.050
10097POPC   C4A71958  16.685   5.070   7.350
10097POPC   C1B71959  16.485   5.034   6.450
10097POPC   C2B71960  16.448   5.029   6.750
10097POPC   C3B71961  16.433   5.067   7.050
10097POPC   C4B71962  16.489   5.077   7.350
10098POPC   NC371963   1.993  31.476   5.550
10098POPC   PO471964   1.998  31.503   5.850
10098POPC   GL171965   2.013  31.447   6.150
10098POPC   GL271966   1.916  31.380   6.150
10098POPC   C1A71967   2.029  31.483   6.450
10098POPC   D2A71968   1.971  31.498   6.750
10098POPC   C3A71969   1.997  31.494   7.050
10098POPC   C4A71970   1.987  31.487   7.350
10098POPC   C1B71971   1.911  31.196   6.450
10098POPC   C2B71972   1.931  31.247   6.750
10098POPC   C3B71973   1.931  31.182   7.050
10098POPC   C4B71974   1.942  31.202   7.350
10099POPC   NC371975   6.678  36.147   5.550
10099POPC   PO471976   6.601  36.177   5.850
10099POPC   GL171977   6.670  36.096   6.150
10099POPC   GL271978   6.773  36.061   6.150
10099POPC   C1A71979   6.646  36.100   6.450
10099POPC   D2A71980   6.668  36.129   6.750
10099POPC   C3A71981   6.615  36.158   7.050
10099POPC   C4A71982   6.685  36.098   7.350
10099POPC   C1B71983   6.833  35.963   6.450
10099POPC   C2B71984   6.899  35.992   6.750
10099POPC   C3B71985   6.848  35.990   7.050
10099POPC   C4B71986   6.820  35.979   7.350
10100POPC   NC371987   1.957  21.349   5.550
10100POPC   PO471988   2.030  21.395   5.850
10100POPC   GL171989   1.957  21.347   6.150
10100POPC   GL271990   1.891  21.461   6.150
10100POPC   C1A71991   2.020  21.358   6.450
10100POPC   D2A71992   2.030  21.406   6.750
10100POPC   C3A71993   1.964  21.364   7.050
10100POPC   C4A71994   2.036  21.429   7.350
10100POPC   C1B71995   1.797  21.530   6.450
10100POPC   C2B71996   1.745  21.495   6.750
10100POPC   C3B71997   1.770  21.440   7.050
10100POPC   C4B71998   1.807  21.464   7.350
10101POPC   NC371999  19.860   4.361   5.550
10101POPC   PO472000  19.859   4.314   5.850
10101POPC   GL172001  19.828   4.300   6.150
10101POPC   GL272002  19.854   4.195   6.150
10101POPC   C1A72003  19.799   4.320   6.450
10101POPC   D2A72004  19.858   4.299   6.750
10101POPC   C3A72005  19.861   4.316   7.050
10101POPC   C4A72006  19.825   4.347   7.350
10101POPC   C1B72007  19.957   4.109   6.450
10101POPC   C2B72008  19.986   4.129   6.750
10101POPC   C3B72009  19.939   4.078   7.050
10101POPC   C4B72010  19.949   4.089   7.350
10102POPC   NC372011  33.007  10.515   5.550
10102POPC   PO472012  32.995  10.538   5.850
10102POPC   GL172013  33.010  10.551   6.150
10102POPC   GL272014  32.852  10.577   6.150
10102POPC   C1A72015  33.073  10.494   6.450
10102POPC   D2A72016  33.002  10.519   6.750
10102POPC   C3A72017  33.006  10.519   7.050
10102POPC   C4A72018  33.004  10.494   7.350
10102POPC   C1B72019  32.732  10.565   6.450
10102POPC   C2B72020  32.814  10.589   6.750
10102POPC   C3B72021  32.726  10.546   7.050
10102POPC   C4B72022  32.727  10.583   7.350
10103POPC   NC372023  12.896  13.664   5.550
10103POPC   PO472024  12.856  13.634   5.850
10103POPC   GL172025  12.820  13.581   6.150
10103POPC   GL272026  12.804  13.524   6.150
10103POPC   C1A72027  12.813  13.665   6.450
10103POPC   D2A72028  12.814  13.596   6.750
10103POPC   C3A72029  12.847  13.654   7.050
10103POPC   C4A72030  12.831  13.638   7.350
10103POPC   C1B72031  12.698  13.439   6.450
10103POPC   C2B72032  12.634  13.487   6.750
10103POPC   C3B72033  12.641  13.410   7.050
10103POPC   C4B72034  12.648  13.454   7.350
10104POPC   NC372035  34.562   1.196   5.550
10104POPC   PO472036  34.567   1.244   5.850
10104POPC   GL172037  34.590   1.246   6.150
10104POPC   GL272038  34.511   1.308   6.150
10104POPC   C1A72039  34.556   1.226   6.450
10104POPC   D2A72040  34.526   1.203   6.750
10104POPC   C3A72041  34.540   1.212   7.050
10104POPC   C4A72042  34.567   1.172   7.350
10104POPC   C1B72043  34.531   1.462   6.450
10104POPC   C2B72044  34.556   1.500   6.750
10104POPC   C3B72045  34.509   1.430   7.050
10104POPC   C4B72046  34.472   1.494   7.350
10105POPC   NC372047  34.570  14.422   5.550
10105POPC   PO472048  34.544  14.384   5.850
10105POPC   GL172049  34.584  14.385   6.150
10105POPC   GL272050  34.571  14.507   6.150
10105POPC   C1A72051  34.619  14.421   6.450
10105POPC   D2A72052  34.549  14.414   6.750
10105POPC   C3A72053  34.583  14.446   7.050
10105POPC   C4A72054  34.579  14.442   7.350
10105POPC   C1B72055  34.442  14.662   6.450
10105POPC   C2B72056  34.490  14.626   6.750
10105POPC   C3B72057  34.471  14.606   7.050
10105POPC   C4B72058  34.523  14.592   7.350
10106POPC   NC372059  37.648  32.995   5.550
10106POPC   PO472060  37.647  32.981   5.850
10106POPC   GL172061  37.675  33.067   6.150
10106POPC   GL272062  37.774  33.026   6.150
10106POPC   C1A72063  37.729  33.047   6.450
10106POPC   D2A72064  37.720  33.007   6.750
10106POPC   C3A72065  37.669  33.041   7.050
10106POPC   C4A72066  37.630  33.028   7.350
10106POPC   C1B72067  37.938  33.021   6.450
10106POPC   C2B72068  37.881  32.968   6.750
10106POPC   C3B72069  37.948  33.004   7.050
10106POPC   C4B72070  37.910  32.968   7.350
10107POPC   NC372071  22.133   1.198   5.550
10107POPC   PO472072  22.113   1.212   5.850
10107POPC   GL172073  22.140   1.167   6.150
10107POPC   GL272074  22.258   1.182   6.150
10107POPC   C1A72075  22.171   1.204   6.450
10107POPC   D2A72076  22.205   1.260   6.750
10107POPC   C3A72077  22.185   1.191   7.050
10107POPC   C4A72078  22.153   1.181   7.350
10107POPC   C1B72079  22.382   1.194   6.450
10107POPC   C2B72080  22.364   1.281   6.750
10107POPC   C3B72081  22.445   1.232   7.050
10107POPC   C4B72082  22.443   1.231   7.350
10108POPC   NC372083  32.997   6.691   5.550
10108POPC   PO472084  33.034   6.601   5.850
10108POPC   GL172085  33.068   6.619   6.150
10108POPC   GL272086  33.106   6.495   6.150
10108POPC   C1A72087  33.042   6.605   6.450
10108POPC   D2A72088  32.978   6.646   6.750
10108POPC   C3A72089  33.067   6.621   7.050
10108POPC   C4A72090  33.005   6.660   7.350
10108POPC   C1B72091  33.146   6.462   6.450
10108POPC   C2B72092  33.140   6.393   6.750
10108POPC   C3B72093  33.184   6.416   7.050
10108POPC   C4B72094  33.188   6.422   7.350
10109POPC   NC372095   5.907   1.988   5.550
10109POPC   PO472096   5.918   1.977   5.850
10109POPC   GL172097   5.843   1.991   6.150
10109POPC   GL272098   5.840   2.068   6.150
10109POPC   C1A72099   5.832   2.035   6.450
10109POPC   D2A72100   5.914   1.952   6.750
10109POPC   C3A72101   5.887   1.966   7.050
10109POPC   C4A72102   5.852   1.944   7.350
10109POPC   C1B72103   5.889   2.242   6.450
10109POPC   C2B72104   5.858   2.288   6.750
10109POPC   C3B72105   5.810   2.264   7.050
10109POPC   C4B72106   5.855   2.287   7.350
10110POPC   NC372107  40.024  15.962   5.550
10110POPC   PO472108  39.994  15.959   5.850
10110POPC   GL172109  39.969  15.976   6.150
10110POPC   GL272110  39.912  15.962   6.150
10110POPC   C1A72111  40.029  15.999   6.450
10110POPC   D2A72112  40.041  15.948   6.750
10110POPC   C3A72113  39.996  15.980   7.050
10110POPC   C4A72114  39.978  15.952   7.350
10110POPC   C1B72115  39.809  15.932   6.450
10110POPC   C2B72116  39.744  15.926   6.750
10110POPC   C3B72117  39.749  15.931   7.050
10110POPC   C4B72118  39.739  15.935   7.350
10111POPC   NC372119  12.101  31.480   5.550
10111POPC   PO472120  12.115  31.440   5.850
10111POPC   GL172121  12.117  31.475   6.150
10111POPC   GL272122  11.973  31.319   6.150
10111POPC   C1A72123  12.057  31.436   6.450
10111POPC   D2A72124  12.072  31.461   6.750
10111POPC   C3A72125  12.075  31.495   7.050
10111POPC   C4A72126  12.046  31.486   7.350
10111POPC   C1B72127  11.901  31.294   6.450
10111POPC   C2B72128  11.940  31.211   6.750
10111POPC   C3B72129  11.963  31.283   7.050
10111POPC   C4B72130  11.944  31.257   7.350
10112POPC   NC372131  40.768  12.058   5.550
10112POPC   PO472132  40.737  12.092   5.850
10112POPC   GL172133  40.798  12.049   6.150
10112POPC   GL272134  40.664  12.111   6.150
10112POPC   C1A72135  40.830  12.047   6.450
10112POPC   D2A72136  40.747  12.054   6.750
10112POPC   C3A72137  40.749  12.122   7.050
10112POPC   C4A72138  40.775  12.070   7.350
10112POPC   C1B72139  40.560  12.162   6.450
10112POPC   C2B72140  40.561  12.155   6.750
10112POPC   C3B72141  40.596  12.181   7.050
10112POPC   C4B72142  40.506  12.157   7.350
10113POPC   NC372143  26.772   9.794   5.550
10113POPC   PO472144  26.803   9.759   5.850
10113POPC   GL172145  26.856   9.769   6.150
10113POPC   GL272146  26.722   9.880   6.150
10113POPC   C1A72147  26.830   9.753   6.450
10113POPC   D2A72148  26.787   9.717   6.750
10113POPC   C3A72149  26.798   9.760   7.050
10113POPC   C4A72150  26.829   9.777   7.350
10113POPC   C1B72151  26.682   9.974   6.450
10113POPC   C2B72152  26.658   9.989   6.750
10113POPC   C3B72153  26.707  10.017   7.050
10113POPC   C4B72154  26.665  10.019   7.350
10114POPC   NC372155   8.239  29.881   5.550
10114POPC   PO472156   8.243  29.904   5.850
10114POPC   GL172157   8.190  29.954   6.150
10114POPC   GL272158   8.162  29.823   6.150
10114POPC   C1A72159   8.173  29.942   6.450
10114POPC   D2A72160   8.241  29.919   6.750
10114POPC   C3A72161   8.181  29.963   7.050
10114POPC   C4A72162   8.182  29.899   7.350
10114POPC   C1B72163   8.158  29.627   6.450
10114POPC   C2B72164   8.216  29.691   6.750
10114POPC   C3B72165   8.207  29.709   7.050
10114POPC   C4B72166   8.168  29.718   7.350
10115POPC   NC372167  33.833  37.709   5.550
10115POPC   PO472168  33.827  37.701   5.850
10115POPC   GL172169  33.812  37.717   6.150
10115POPC   GL272170  33.689  37.591   6.150
10115POPC   C1A72171  33.803  37.674   6.450
10115POPC   D2A72172  33.785  37.639   6.750
10115POPC   C3A72173  33.845  37.649   7.050
10115POPC   C4A72174  33.763  37.664   7.350
10115POPC   C1B72175  33.692  37.445   6.450
10115POPC   C2B72176  33.629  37.439   6.750
10115POPC   C3B72177  33.650  37.510   7.050
10115POPC   C4B72178  33.675  37.471   7.350
10116POPC   NC372179  35.401   0.460   5.550
10116POPC   PO472180  35.363   0.429   5.850
10116POPC   GL172181  35.384   0.476   6.150
10116POPC   GL272182  35.243   0.346   6.150
10116POPC   C1A72183  35.334   0.437   6.450
10116POPC   D2A72184  35.328   0.469   6.750
10116POPC   C3A72185  35.322   0.487   7.050
10116POPC   C4A72186  35.358   0.441   7.350
10116POPC   C1B72187  35.181   0.325   6.450
10116POPC   C2B72188  35.116   0.315   6.750
10116POPC   C3B72189  35.106   0.306   7.050
10116POPC   C4B72190  35.109   0.333   7.350
10117POPC   NC372191  41.549  34.538   5.550
10117POPC   PO472192  41.519  34.597   5.850
10117POPC   GL172193  41.584  34.610   6.150
10117POPC   GL272194  41.562  34.714   6.150
10117POPC   C1A72195  41.561  34.591   6.450
10117POPC   D2A72196  41.592  34.526   6.750
10117POPC   C3A72197  41.579  34.598   7.050
10117POPC   C4A72198  41.604  34.619   7.350
10117POPC   C1B72199  41.689  34.835   6.450
10117POPC   C2B72200  41.645  34.796   6.750
10117POPC   C3B72201  41.666  34.821   7.050
10117POPC   C4B72202  41.648  34.833   7.350
10118POPC   NC372203  19.017  22.925   5.550
10118POPC   PO472204  19.023  22.943   5.850
10118POPC   GL172205  19.101  22.933   6.150
10118POPC   GL272206  19.146  23.049   6.150
10118POPC   C1A72207  19.062  22.907   6.450
10118POPC   D2A72208  19.105  22.972   6.750
10118POPC   C3A72209  19.022  22.961   7.050
10118POPC   C4A72210  19.054  22.902   7.350
10118POPC   C1B72211  19.226  23.113   6.450
10118POPC   C2B72212  19.206  23.174   6.750
10118POPC   C3B72213  19.149  23.138   7.050
10118POPC   C4B72214  19.219  23.120   7.350
10119POPC   NC372215   3.569  28.417   5.550
10119POPC   PO472216   3.582  28.340   5.850
10119POPC   GL172217   3.499  28.355   6.150
10119POPC   GL272218   3.479  28.430   6.150
10119POPC   C1A72219   3.516  28.409   6.450
10119POPC   D2A72220   3.528  28.332   6.750
10119POPC   C3A72221   3.578  28.344   7.050
10119POPC   C4A72222   3.563  28.349   7.350
10119POPC   C1B72223   3.427  28.620   6.450
10119POPC   C2B72224   3.421  28.580   6.750
10119POPC   C3B72225   3.401  28.556   7.050
10119POPC   C4B72226   3.390  28.606   7.350
10120POPC   NC372227  29.191   8.976   5.550
10120POPC   PO472228  29.137   9.020   5.850
10120POPC   GL172229  29.130   8.962   6.150
10120POPC   GL272230  29.111   9.125   6.150
10120POPC   C1A72231  29.134   8.937   6.450
10120POPC   D2A72232  29.193   8.959   6.750
10120POPC   C3A72233  29.136   8.980   7.050
10120POPC   C4A72234  29.121   8.966   7.350
10120POPC   C1B72235  29.164   9.236   6.450
10120POPC   C2B72236  29.173   9.251   6.750
10120POPC   C3B72237  29.105   9.214   7.050
10120POPC   C4B72238  29.123   9.186   7.350
10121POPC   NC372239   1.185   4.299   5.550
10121POPC   PO472240   1.191   4.340   5.850
10121POPC   GL172241   1.167   4.284   6.150
10121POPC   GL272242   1.187   4.483   6.150
10121POPC   C1A72243   1.236   4.347   6.450
10121POPC   D2A72244   1.250   4.277   6.750
10121POPC   C3A72245   1.219   4.351   7.050
10121POPC   C4A72246   1.169   4.295   7.350
10121POPC   C1B72247   1.263   4.565   6.450
10121POPC   C2B72248   1.235   4.563   6.750
10121POPC   C3B72249   1.225   4.541   7.050
10121POPC   C4B72250   1.182   4.559   7.350
10122POPC   NC372251  42.309  17.548   5.550
10122POPC   PO472252  42.310  17.491   5.850
10122POPC   GL172253  42.303  17.510   6.150
10122POPC   GL272254  42.337  17.366   6.150
10122POPC   C1A72255  42.303  17.537   6.450
10122POPC   D2A72256  42.290  17.490   6.750
10122POPC   C3A72257  42.314  17.504   7.050
10122POPC   C4A72258  42.331  17.520   7.350
10122POPC   C1B72259  42.332  17.296   6.450
10122POPC   C2B72260  42.385  17.270   6.750
10122POPC   C3B72261  42.316  17.284   7.050
10122POPC   C4B72262  42.363  17.211   7.350
10123POPC   NC372263  43.066  41.608   5.550
10123POPC   PO472264  43.104  41.599   5.850
10123POPC   GL172265  43.102  41.543   6.150
10123POPC   GL272266  43.202  41.509   6.150
10123POPC   C1A72267  43.117  41.584   6.450
10123POPC   D2A72268  43.067  41.540   6.750
10123POPC   C3A72269  43.087  41.565   7.050
10123POPC   C4A72270  43.072  41.541   7.350
10123POPC   C1B72271  43.367  41.577   6.450
10123POPC   C2B72272  43.336  41.540   6.750
10123POPC   C3B72273  43.345  41.556   7.050
10123POPC   C4B72274  43.364  41.511   7.350
10124POPC   NC372275   8.167   6.634   5.550
10124POPC   PO472276   8.198   6.635   5.850
10124POPC   GL172277   8.163   6.618   6.150
10124POPC   GL272278   8.277   6.748   6.150
10124POPC   C1A72279   8.175   6.642   6.450
10124POPC   D2A72280   8.241   6.602   6.750
10124POPC   C3A72281   8.163   6.617   7.050
10124POPC   C4A72282   8.168   6.657   7.350
10124POPC   C1B72283   8.234   6.868   6.450
10124POPC   C2B72284   8.314   6.839   6.750
10124POPC   C3B72285   8.325   6.892   7.050
10124POPC   C4B72286   8.312   6.879   7.350
10125POPC   NC372287   8.944  20.605   5.550
10125POPC   PO472288   8.984  20.623   5.850
10125POPC   GL172289   9.007  20.643   6.150
10125POPC   GL272290   9.002  20.491   6.150
10125POPC   C1A72291   8.990  20.634   6.450
10125POPC   D2A72292   8.937  20.637   6.750
10125POPC   C3A72293   9.011  20.564   7.050
10125POPC   C4A72294   8.928  20.603   7.350
10125POPC   C1B72295   8.951  20.379   6.450
10125POPC   C2B72296   8.930  20.328   6.750
10125POPC   C3B72297   8.917  20.379   7.050
10125POPC   C4B72298   8.954  20.393   7.350
10126POPC   NC372299   9.741  40.774   5.550
10126POPC   PO472300   9.769  40.757   5.850
10126POPC   GL172301   9.757  40.800   6.150
10126POPC   GL272302   9.618  40.866   6.150
10126POPC   C1A72303   9.776  40.810   6.450
10126POPC   D2A72304   9.704  40.801   6.750
10126POPC   C3A72305   9.755  40.786   7.050
10126POPC   C4A72306   9.772  40.797   7.350
10126POPC   C1B72307   9.506  40.904   6.450
10126POPC   C2B72308   9.557  40.932   6.750
10126POPC   C3B72309   9.577  40.883   7.050
10126POPC   C4B72310   9.546  40.898   7.350
10127POPC   NC372311  26.780   0.484   5.550
10127POPC   PO472312  26.784   0.395   5.850
10127POPC   GL172313  26.823   0.442   6.150
10127POPC   GL272314  26.762   0.530   6.150
10127POPC   C1A72315  26.858   0.449   6.450
10127POPC   D2A72316  26.804   0.446   6.750
10127POPC   C3A72317  26.767   0.420   7.050
10127POPC   C4A72318  26.855   0.486   7.350
10127POPC   C1B72319  26.794   0.709   6.450
10127POPC   C2B72320  26.742   0.635   6.750
10127POPC   C3B72321  26.777   0.723   7.050
10127POPC   C4B72322  26.734   0.727   7.350
10128POPC   NC372323   7.454  12.822   5.550
10128POPC   PO472324   7.386  12.867   5.850
10128POPC   GL172325   7.447  12.893   6.150
10128POPC   GL272326   7.283  12.985   6.150
10128POPC   C1A72327   7.389  12.849   6.450
10128POPC   D2A72328   7.388  12.802   6.750
10128POPC   C3A72329   7.435  12.820   7.050
10128POPC   C4A72330   7.411  12.870   7.350
10128POPC   C1B72331   7.194  13.070   6.450
10128POPC   C2B72332   7.283  13.036   6.750
10128POPC   C3B72333   7.213  13.064   7.050
10128POPC   C4B72334   7.220  12.998   7.350
10129POPC   NC372335  34.551  42.377   5.550
10129POPC   PO472336  34.566  42.337   5.850
10129POPC   GL172337  34.585  42.325   6.150
10129POPC   GL272338  34.481  42.365   6.150
10129POPC   C1A72339  34.579  42.384   6.450
10129POPC   D2A72340  34.535  42.305   6.750
10129POPC   C3A72341  34.533  42.303   7.050
10129POPC   C4A72342  34.528  42.316   7.350
10129POPC   C1B72343  34.326  42.369   6.450
10129POPC   C2B72344  34.301  42.412   6.750
10129POPC   C3B72345  34.374  42.385   7.050
10129POPC   C4B72346  34.294  42.384   7.350
10130POPC   NC372347   9.778  18.268   5.550
10130POPC   PO472348   9.789  18.331   5.850
10130POPC   GL172349   9.786  18.282   6.150
10130POPC   GL272350   9.682  18.366   6.150
10130POPC   C1A72351   9.771  18.272   6.450
10130POPC   D2A72352   9.752  18.325   6.750
10130POPC   C3A72353   9.738  18.274   7.050
10130POPC   C4A72354   9.705  18.332   7.350
10130POPC   C1B72355   9.606  18.520   6.450
10130POPC   C2B72356   9.590  18.456   6.750
10130POPC   C3B72357   9.635  18.432   7.050
10130POPC   C4B72358   9.589  18.472   7.350
10131POPC   NC372359  28.388   2.034   5.550
10131POPC   PO472360  28.332   2.013   5.850
10131POPC   GL172361  28.348   1.984   6.150
10131POPC   GL272362  28.383   1.872   6.150
10131POPC   C1A72363  28.381   2.022   6.450
10131POPC   D2A72364  28.397   1.997   6.750
10131POPC   C3A72365  28.398   1.956   7.050
10131POPC   C4A72366  28.393   2.036   7.350
10131POPC   C1B72367  28.387   1.756   6.450
10131POPC   C2B72368  28.391   1.790   6.750
10131POPC   C3B72369  28.356   1.759   7.050
10131POPC   C4B72370  28.375   1.692   7.350
10132POPC   NC372371  36.121   7.410   5.550
10132POPC   PO472372  36.092   7.410   5.850
10132POPC   GL172373  36.142   7.405   6.150
10132POPC   GL272374  36.108   7.305   6.150
10132POPC   C1A72375  36.151   7.455   6.450
10132POPC   D2A72376  36.142   7.443   6.750
10132POPC   C3A72377  36.087   7.371   7.050
10132POPC   C4A72378  36.121   7.416   7.350
10132POPC   C1B72379  36.051   7.130   6.450
10132POPC   C2B72380  36.042   7.134   6.750
10132POPC   C3B72381  36.027   7.204   7.050
10132POPC   C4B72382  36.043   7.218   7.350
10133POPC   NC372383  19.866   9.001   5.550
10133POPC   PO472384  19.864   8.986   5.850
10133POPC   GL172385  19.868   8.973   6.150
10133POPC   GL272386  19.695   8.958   6.150
10133POPC   C1A72387  19.816   8.940   6.450
10133POPC   D2A72388  19.836   8.947   6.750
10133POPC   C3A72389  19.815   8.927   7.050
10133POPC   C4A72390  19.826   8.979   7.350
10133POPC   C1B72391  19.655   8.854   6.450
10133POPC   C2B72392  19.595   8.841   6.750
10133POPC   C3B72393  19.652   8.816   7.050
10133POPC   C4B72394  19.653   8.845   7.350
10134POPC   NC372395  39.992  26.090   5.550
10134POPC   PO472396  40.040  26.067   5.850
10134POPC   GL172397  40.028  26.085   6.150
10134POPC   GL272398  39.976  26.201   6.150
10134POPC   C1A72399  40.009  26.014   6.450
10134POPC   D2A72400  39.993  26.075   6.750
10134POPC   C3A72401  40.053  26.056   7.050
10134POPC   C4A72402  40.043  25.999   7.350
10134POPC   C1B72403  40.047  26.249   6.450
10134POPC   C2B72404  40.005  26.313   6.750
10134POPC   C3B72405  40.035  26.282   7.050
10134POPC   C4B72406  40.014  26.278   7.350
10135POPC   NC372407  35.312  25.277   5.550
10135POPC   PO472408  35.337  25.303   5.850
10135POPC   GL172409  35.322  25.256   6.150
10135POPC   GL272410  35.274  25.346   6.150
10135POPC   C1A72411  35.348  25.275   6.450
10135POPC   D2A72412  35.351  25.304   6.750
10135POPC   C3A72413  35.352  25.217   7.050
10135POPC   C4A72414  35.325  25.307   7.350
10135POPC   C1B72415  35.170  25.320   6.450
10135POPC   C2B72416  35.140  25.316   6.750
10135POPC   C3B72417  35.113  25.384   7.050
10135POPC   C4B72418  35.164  25.329   7.350
10136POPC   NC372419  32.981  39.253   5.550
10136POPC   PO472420  33.012  39.182   5.850
10136POPC   GL172421  33.068  39.279   6.150
10136POPC   GL272422  33.028  39.344   6.150
10136POPC   C1A72423  33.037  39.276   6.450
10136POPC   D2A72424  32.981  39.213   6.750
10136POPC   C3A72425  33.053  39.220   7.050
10136POPC   C4A72426  33.052  39.251   7.350
10136POPC   C1B72427  32.956  39.476   6.450
10136POPC   C2B72428  32.967  39.469   6.750
10136POPC   C3B72429  32.970  39.442   7.050
10136POPC   C4B72430  32.930  39.473   7.350
10137POPC   NC372431  18.332  15.985   5.550
10137POPC   PO472432  18.251  15.973   5.850
10137POPC   GL172433  18.291  15.914   6.150
10137POPC   GL272434  18.185  15.957   6.150
10137POPC   C1A72435  18.274  15.935   6.450
10137POPC   D2A72436  18.263  15.935   6.750
10137POPC   C3A72437  18.305  15.986   7.050
10137POPC   C4A72438  18.249  15.965   7.350
10137POPC   C1B72439  17.992  15.969   6.450
10137POPC   C2B72440  18.067  15.956   6.750
10137POPC   C3B72441  17.997  15.950   7.050
10137POPC   C4B72442  18.076  15.929   7.350
10138POPC   NC372443  32.283  43.878   5.550
10138POPC   PO472444  32.213  43.931   5.850
10138POPC   GL172445  32.226  43.853   6.150
10138POPC   GL272446  32.201  43.781   6.150
10138POPC   C1A72447  32.258  43.924   6.450
10138POPC   D2A72448  32.231  43.881   6.750
10138POPC   C3A72449  32.231  43.915   7.050
10138POPC   C4A72450  32.228  43.901   7.350
10138POPC   C1B72451  32.119  43.706   6.450
10138POPC   C2B72452  32.120  43.721   6.750
10138POPC   C3B72453  32.085  43.675   7.050
10138POPC   C4B72454  32.105  43.673   7.350
10139POPC   NC372455   4.297   0.407   5.550
10139POPC   PO472456   4.282   0.420   5.850
10139POPC   GL172457   4.268   0.480   6.150
10139POPC   GL272458   4.259   0.522   6.150
10139POPC   C1A72459   4.304   0.473   6.450
10139POPC   D2A72460   4.293   0.484   6.750
10139POPC   C3A72461   4.334   0.439   7.050
10139POPC   C4A72462   4.348   0.422   7.350
10139POPC   C1B72463   4.215   0.657   6.450
10139POPC   C2B72464   4.148   0.624   6.750
10139POPC   C3B72465   4.189   0.609   7.050
10139POPC   C4B72466   4.158   0.616   7.350
10140POPC   NC372467   7.421   5.884   5.550
10140POPC   PO472468   7.414   5.828   5.850
10140POPC   GL172469   7.412   5.867   6.150
10140POPC   GL272470   7.533   5.771   6.150
10140POPC   C1A72471   7.375   5.893   6.450
10140POPC   D2A72472   7.380   5.886   6.750
10140POPC   C3A72473   7.443   5.825   7.050
10140POPC   C4A72474   7.449   5.911   7.350
10140POPC   C1B72475   7.538   5.621   6.450
10140POPC   C2B72476   7.604   5.636   6.750
10140POPC   C3B72477   7.575   5.682   7.050
10140POPC   C4B72478   7.562   5.640   7.350
10141POPC   NC372479   5.080   4.287   5.550
10141POPC   PO472480   5.050   4.330   5.850
10141POPC   GL172481   5.085   4.358   6.150
10141POPC   GL272482   5.070   4.241   6.150
10141POPC   C1A72483   5.098   4.338   6.450
10141POPC   D2A72484   5.139   4.287   6.750
10141POPC   C3A72485   5.109   4.276   7.050
10141POPC   C4A72486   5.110   4.316   7.350
10141POPC   C1B72487   5.087   4.058   6.450
10141POPC   C2B72488   5.103   4.117   6.750
10141POPC   C3B72489   5.060   4.115   7.050
10141POPC   C4B72490   5.027   4.062   7.350
10142POPC   NC372491  27.547   5.130   5.550
10142POPC   PO472492  27.600   5.051   5.850
10142POPC   GL172493  27.570   5.047   6.150
10142POPC   GL272494  27.669   5.228   6.150
10142POPC   C1A72495  27.584   5.098   6.450
10142POPC   D2A72496  27.556   5.118   6.750
10142POPC   C3A72497  27.576   5.110   7.050
10142POPC   C4A72498  27.560   5.057   7.350
10142POPC   C1B72499  27.672   5.355   6.450
10142POPC   C2B72500  27.664   5.340   6.750
10142POPC   C3B72501  27.690   5.373   7.050
10142POPC   C4B72502  27.699   5.299   7.350
10143POPC   NC372503  21.364  32.289   5.550
10143POPC   PO472504  21.369  32.270   5.850
10143POPC   GL172505  21.390  32.239   6.150
10143POPC   GL272506  21.436  32.386   6.150
10143POPC   C1A72507  21.360  32.261   6.450
10143POPC   D2A72508  21.369  32.278   6.750
10143POPC   C3A72509  21.392  32.259   7.050
10143POPC   C4A72510  21.390  32.209   7.350
10143POPC   C1B72511  21.578  32.456   6.450
10143POPC   C2B72512  21.555  32.463   6.750
10143POPC   C3B72513  21.516  32.440   7.050
10143POPC   C4B72514  21.591  32.398   7.350
10144POPC   NC372515  33.068   0.407   5.550
10144POPC   PO472516  33.025   0.449   5.850
10144POPC   GL172517  33.005   0.467   6.150
10144POPC   GL272518  32.945   0.332   6.150
10144POPC   C1A72519  33.026   0.465   6.450
10144POPC   D2A72520  33.020   0.400   6.750
10144POPC   C3A72521  32.988   0.486   7.050
10144POPC   C4A72522  33.036   0.412   7.350
10144POPC   C1B72523  32.876   0.240   6.450
10144POPC   C2B72524  32.834   0.236   6.750
10144POPC   C3B72525  32.814   0.297   7.050
10144POPC   C4B72526  32.824   0.270   7.350
10145POPC   NC372527   9.742  39.251   5.550
10145POPC   PO472528   9.714  39.241   5.850
10145POPC   GL172529   9.752  39.185   6.150
10145POPC   GL272530   9.839  39.210   6.150
10145POPC   C1A72531   9.702  39.200   6.450
10145POPC   D2A72532   9.738  39.227   6.750
10145POPC   C3A72533   9.735  39.218   7.050
10145POPC   C4A72534   9.719  39.182   7.350
10145POPC   C1B72535   9.953  39.190   6.450
10145POPC   C2B72536  10.020  39.131   6.750
10145POPC   C3B72537  10.007  39.134   7.050
10145POPC   C4B72538  10.018  39.115   7.350
10146POPC   NC372539  15.200   0.426   5.550
10146POPC   PO472540  15.216   0.454   5.850
10146POPC   GL172541  15.152   0.451   6.150
10146POPC   GL272542  15.238   0.391   6.150
10146POPC   C1A72543  15.157   0.412   6.450
10146POPC   D2A72544  15.162   0.468   6.750
10146POPC   C3A72545  15.228   0.404   7.050
10146POPC   C4A72546  15.176   0.426   7.350
10146POPC   C1B72547  15.400   0.218   6.450
10146POPC   C2B72548  15.383   0.314   6.750
10146POPC   C3B72549  15.321   0.240   7.050
10146POPC   C4B72550  15.321   0.243   7.350
10147POPC   NC372551  26.824  16.685   5.550
10147POPC   PO472552  26.769  16.768   5.850
10147POPC   GL172553  26.824  16.722   6.150
10147POPC   GL272554  26.846  16.582   6.150
10147POPC   C1A72555  26.793  16.700   6.450
10147POPC   D2A72556  26.840  16.693   6.750
10147POPC   C3A72557  26.781  16.741   7.050
10147POPC   C4A72558  26.820  16.711   7.350
10147POPC   C1B72559  26.847  16.512   6.450
10147POPC   C2B72560  26.835  16.449   6.750
10147POPC   C3B72561  26.893  16.477   7.050
10147POPC   C4B72562  26.810  16.509   7.350
10148POPC   NC372563  40.038  33.837   5.550
10148POPC   PO472564  40.040  33.803   5.850
10148POPC   GL172565  40.046  33.764   6.150
10148POPC   GL272566  39.908  33.699   6.150
10148POPC   C1A72567  39.985  33.795   6.450
10148POPC   D2A72568  40.018  33.812   6.750
10148POPC   C3A72569  40.015  33.791   7.050
10148POPC   C4A72570  39.965  33.788   7.350
10148POPC   C1B72571  39.862  33.571   6.450
10148POPC   C2B72572  39.917  33.565   6.750
10148POPC   C3B72573  39.897  33.552   7.050
10148POPC   C4B72574  39.882  33.539   7.350
10149POPC   NC372575  44.658  35.374   5.550
10149POPC   PO472576  44.694  35.322   5.850
10149POPC   GL172577  44.701  35.317   6.150
10149POPC   GL272578  44.598  35.223   6.150
10149POPC   C1A72579  44.706  35.375   6.450
10149POPC   D2A72580  44.623  35.336   6.750
10149POPC   C3A72581  44.673  35.328   7.050
10149POPC   C4A72582  44.628  35.378   7.350
10149POPC   C1B72583  44.608  35.136   6.450
10149POPC   C2B72584  44.583  35.152   6.750
10149POPC   C3B72585  44.578  35.111   7.050
10149POPC   C4B72586  44.572  35.126   7.350
10150POPC   NC372587   9.010  16.697   5.550
10150POPC   PO472588   8.932  16.726   5.850
10150POPC   GL172589   8.990  16.702   6.150
10150POPC   GL272590   8.874  16.708   6.150
10150POPC   C1A72591   8.959  16.759   6.450
10150POPC   D2A72592   8.998  16.751   6.750
10150POPC   C3A72593   8.984  16.706   7.050
10150POPC   C4A72594   9.015  16.762   7.350
10150POPC   C1B72595   8.745  16.738   6.450
10150POPC   C2B72596   8.741  16.694   6.750
10150POPC   C3B72597   8.722  16.733   7.050
10150POPC   C4B72598   8.708  16.745   7.350
10151POPC   NC372599  20.604   5.892   5.550
10151POPC   PO472600  20.627   5.847   5.850
10151POPC   GL172601  20.651   5.855   6.150
10151POPC   GL272602  20.515   5.744   6.150
10151POPC   C1A72603  20.612   5.896   6.450
10151POPC   D2A72604  20.651   5.845   6.750
10151POPC   C3A72605  20.634   5.896   7.050
10151POPC   C4A72606  20.659   5.847   7.350
10151POPC   C1B72607  20.483   5.633   6.450
10151POPC   C2B72608  20.421   5.695   6.750
10151POPC   C3B72609  20.459   5.628   7.050
10151POPC   C4B72610  20.445   5.682   7.350
10152POPC   NC372611  18.255  26.054   5.550
10152POPC   PO472612  18.249  25.993   5.850
10152POPC   GL172613  18.261  26.088   6.150
10152POPC   GL272614  18.379  25.977   6.150
10152POPC   C1A72615  18.294  26.088   6.450
10152POPC   D2A72616  18.324  26.051   6.750
10152POPC   C3A72617  18.324  25.992   7.050
10152POPC   C4A72618  18.259  26.073   7.350
10152POPC   C1B72619  18.439  25.834   6.450
10152POPC   C2B72620  18.399  25.851   6.750
10152POPC   C3B72621  18.459  25.807   7.050
10152POPC   C4B72622  18.382  25.811   7.350
10153POPC   NC372623  15.174  31.424   5.550
10153POPC   PO472624  15.146  31.503   5.850
10153POPC   GL172625  15.174  31.489   6.150
10153POPC   GL272626  15.078  31.548   6.150
10153POPC   C1A72627  15.202  31.490   6.450
10153POPC   D2A72628  15.140  31.521   6.750
10153POPC   C3A72629  15.186  31.492   7.050
10153POPC   C4A72630  15.200  31.478   7.350
10153POPC   C1B72631  14.962  31.560   6.450
10153POPC   C2B72632  14.962  31.513   6.750
10153POPC   C3B72633  14.901  31.559   7.050
10153POPC   C4B72634  14.930  31.584   7.350
10154POPC   NC372635  29.098   1.227   5.550
10154POPC   PO472636  29.108   1.251   5.850
10154POPC   GL172637  29.165   1.259   6.150
10154POPC   GL272638  29.282   1.222   6.150
10154POPC   C1A72639  29.188   1.221   6.450
10154POPC   D2A72640  29.152   1.224   6.750
10154POPC   C3A72641  29.110   1.251   7.050
10154POPC   C4A72642  29.103   1.212   7.350
10154POPC   C1B72643  29.422   1.220   6.450
10154POPC   C2B72644  29.386   1.213   6.750
10154POPC   C3B72645  29.427   1.196   7.050
10154POPC   C4B72646  29.427   1.223   7.350
10155POPC   NC372647  32.206   1.235   5.550
10155POPC   PO472648  32.206   1.179   5.850
10155POPC   GL172649  32.229   1.241   6.150
10155POPC   GL272650  32.150   1.235   6.150
10155POPC   C1A72651  32.226   1.237   6.450
10155POPC   D2A72652  32.256   1.261   6.750
10155POPC   C3A72653  32.232   1.189   7.050
10155POPC   C4A72654  32.250   1.174   7.350
10155POPC   C1B72655  32.034   1.145   6.450
10155POPC   C2B72656  32.043   1.202   6.750
10155POPC   C3B72657  32.036   1.131   7.050
10155POPC   C4B72658  31.988   1.223   7.350
10156POPC   NC372659   6.616   9.710   5.550
10156POPC   PO472660   6.671   9.744   5.850
10156POPC   GL172661   6.626   9.731   6.150
10156POPC   GL272662   6.517   9.646   6.150
10156POPC   C1A72663   6.622   9.793   6.450
10156POPC   D2A72664   6.662   9.743   6.750
10156POPC   C3A72665   6.604   9.794   7.050
10156POPC   C4A72666   6.639   9.792   7.350
10156POPC   C1B72667   6.384   9.593   6.450
10156POPC   C2B72668   6.466   9.649   6.750
10156POPC   C3B72669   6.432   9.570   7.050
10156POPC   C4B72670   6.416   9.610   7.350
10157POPC   NC372671  36.108  35.313   5.550
10157POPC   PO472672  36.084  35.399   5.850
10157POPC   GL172673  36.143  35.320   6.150
10157POPC   GL272674  36.031  35.316   6.150
10157POPC   C1A72675  36.164  35.332   6.450
10157POPC   D2A72676  36.137  35.347   6.750
10157POPC   C3A72677  36.168  35.397   7.050
10157POPC   C4A72678  36.149  35.322   7.350
10157POPC   C1B72679  35.886  35.273   6.450
10157POPC   C2B72680  35.859  35.256   6.750
10157POPC   C3B72681  35.901  35.250   7.050
10157POPC   C4B72682  35.878  35.258   7.350
10158POPC   NC372683  41.594  22.895   5.550
10158POPC   PO472684  41.583  22.955   5.850
10158POPC   GL172685  41.559  22.964   6.150
10158POPC   GL272686  41.542  22.997   6.150
10158POPC   C1A72687  41.582  22.951   6.450
10158POPC   D2A72688  41.568  22.933   6.750
10158POPC   C3A72689  41.559  22.913   7.050
10158POPC   C4A72690  41.542  22.936   7.350
10158POPC   C1B72691  41.478  23.179   6.450
10158POPC   C2B72692  41.445  23.185   6.750
10158POPC   C3B72693  41.392  23.142   7.050
10158POPC   C4B72694  41.419  23.129   7.350
10159POPC   NC372695  16.693  43.134   5.550
10159POPC   PO472696  16.711  43.106   5.850
10159POPC   GL172697  16.746  43.143   6.150
10159POPC   GL272698  16.580  43.166   6.150
10159POPC   C1A72699  16.682  43.077   6.450
10159POPC   D2A72700  16.758  43.156   6.750
10159POPC   C3A72701  16.703  43.133   7.050
10159POPC   C4A72702  16.712  43.085   7.350
10159POPC   C1B72703  16.565  43.232   6.450
10159POPC   C2B72704  16.493  43.214   6.750
10159POPC   C3B72705  16.517  43.285   7.050
10159POPC   C4B72706  16.553  43.197   7.350
10160POPC   NC372707  13.614  11.258   5.550
10160POPC   PO472708  13.586  11.332   5.850
10160POPC   GL172709  13.612  11.252   6.150
10160POPC   GL272710  13.591  11.353   6.150
10160POPC   C1A72711  13.608  11.316   6.450
10160POPC   D2A72712  13.628  11.311   6.750
10160POPC   C3A72713  13.597  11.282   7.050
10160POPC   C4A72714  13.609  11.312   7.350
10160POPC   C1B72715  13.492  11.520   6.450
10160POPC   C2B72716  13.478  11.496   6.750
10160POPC   C3B72717  13.513  11.511   7.050
10160POPC   C4B72718  13.486  11.488   7.350
10161POPC   NC372719   8.999  37.698   5.550
10161POPC   PO472720   8.957  37.677   5.850
10161POPC   GL172721   9.015  37.656   6.150
10161POPC   GL272722   8.948  37.520   6.150
10161POPC   C1A72723   9.009  37.653   6.450
10161POPC   D2A72724   8.930  37.708   6.750
10161POPC   C3A72725   9.006  37.726   7.050
10161POPC   C4A72726   9.002  37.659   7.350
10161POPC   C1B72727   8.918  37.426   6.450
10161POPC   C2B72728   8.978  37.402   6.750
10161POPC   C3B72729   8.884  37.425   7.050
10161POPC   C4B72730   8.973  37.478   7.350
10162POPC   NC372731  26.787   7.395   5.550
10162POPC   PO472732  26.812   7.394   5.850
10162POPC   GL172733  26.831   7.431   6.150
10162POPC   GL272734  26.865   7.546   6.150
10162POPC   C1A72735  26.786   7.464   6.450
10162POPC   D2A72736  26.778   7.416   6.750
10162POPC   C3A72737  26.785   7.410   7.050
10162POPC   C4A72738  26.798   7.468   7.350
10162POPC   C1B72739  26.976   7.672   6.450
10162POPC   C2B72740  26.927   7.662   6.750
10162POPC   C3B72741  26.943   7.615   7.050
10162POPC   C4B72742  26.991   7.620   7.350
10163POPC   NC372743  36.878  34.591   5.550
10163POPC   PO472744  36.881  34.623   5.850
10163POPC   GL172745  36.908  34.576   6.150
10163POPC   GL272746  36.996  34.487   6.150
10163POPC   C1A72747  36.912  34.564   6.450
10163POPC   D2A72748  36.943  34.534   6.750
10163POPC   C3A72749  36.949  34.538   7.050
10163POPC   C4A72750  36.900  34.601   7.350
10163POPC   C1B72751  37.111  34.449   6.450
10163POPC   C2B72752  37.094  34.439   6.750
10163POPC   C3B72753  37.116  34.431   7.050
10163POPC   C4B72754  37.081  34.486   7.350
10164POPC   NC372755   8.963  27.593   5.550
10164POPC   PO472756   8.947  27.553   5.850
10164POPC   GL172757   8.966  27.580   6.150
10164POPC   GL272758   8.978  27.746   6.150
10164POPC   C1A72759   8.965  27.582   6.450
10164POPC   D2A72760   9.008  27.635   6.750
10164POPC   C3A72761   9.004  27.565   7.050
10164POPC   C4A72762   9.001  27.563   7.350
10164POPC   C1B72763   8.878  27.878   6.450
10164POPC   C2B72764   8.873  27.821   6.750
10164POPC   C3B72765   8.902  27.849   7.050
10164POPC   C4B72766   8.946  27.834   7.350
10165POPC   NC372767  28.401  42.285   5.550
10165POPC   PO472768  28.350  42.295   5.850
10165POPC   GL172769  28.400  42.343   6.150
10165POPC   GL272770  28.392  42.413   6.150
10165POPC   C1A72771  28.343  42.376   6.450
10165POPC   D2A72772  28.383  42.330   6.750
10165POPC   C3A72773  28.384  42.319   7.050
10165POPC   C4A72774  28.365  42.288   7.350
10165POPC   C1B72775  28.431  42.536   6.450
10165POPC   C2B72776  28.458  42.592   6.750
10165POPC   C3B72777  28.447  42.625   7.050
10165POPC   C4B72778  28.397  42.620   7.350
10166POPC   NC372779  32.268  12.034   5.550
10166POPC   PO472780  32.251  12.050   5.850
10166POPC   GL172781  32.260  12.043   6.150
10166POPC   GL272782  32.099  11.991   6.150
10166POPC   C1A72783  32.212  12.112   6.450
10166POPC   D2A72784  32.210  12.082   6.750
10166POPC   C3A72785  32.249  12.099   7.050
10166POPC   C4A72786  32.261  12.057   7.350
10166POPC   C1B72787  32.069  11.961   6.450
10166POPC   C2B72788  32.067  11.968   6.750
10166POPC   C3B72789  31.995  11.929   7.050
10166POPC   C4B72790  32.058  11.953   7.350
10167POPC   NC372791   8.968  17.484   5.550
10167POPC   PO472792   8.952  17.466   5.850
10167POPC   GL172793   9.003  17.513   6.150
10167POPC   GL272794   8.855  17.595   6.150
10167POPC   C1A72795   8.932  17.504   6.450
10167POPC   D2A72796   8.986  17.515   6.750
10167POPC   C3A72797   8.994  17.459   7.050
10167POPC   C4A72798   8.951  17.536   7.350
10167POPC   C1B72799   8.720  17.617   6.450
10167POPC   C2B72800   8.802  17.655   6.750
10167POPC   C3B72801   8.767  17.620   7.050
10167POPC   C4B72802   8.758  17.587   7.350
10168POPC   NC372803  43.875  15.930   5.550
10168POPC   PO472804  43.897  15.921   5.850
10168POPC   GL172805  43.925  15.943   6.150
10168POPC   GL272806  43.857  16.108   6.150
10168POPC   C1A72807  43.922  15.998   6.450
10168POPC   D2A72808  43.856  15.954   6.750
10168POPC   C3A72809  43.901  15.917   7.050
10168POPC   C4A72810  43.859  15.911   7.350
10168POPC   C1B72811  43.849  16.240   6.450
10168POPC   C2B72812  43.804  16.193   6.750
10168POPC   C3B72813  43.887  16.211   7.050
10168POPC   C4B72814  43.842  16.231   7.350
10169POPC   NC372815   8.175   2.028   5.550
10169POPC   PO472816   8.178   1.965   5.850
10169POPC   GL172817   8.203   2.014   6.150
10169POPC   GL272818   8.292   2.073   6.150
10169POPC   C1A72819   8.219   1.953   6.450
10169POPC   D2A72820   8.234   1.983   6.750
10169POPC   C3A72821   8.242   2.025   7.050
10169POPC   C4A72822   8.232   1.995   7.350
10169POPC   C1B72823   8.372   2.150   6.450
10169POPC   C2B72824   8.374   2.170   6.750
10169POPC   C3B72825   8.386   2.201   7.050
10169POPC   C4B72826   8.404   2.212   7.350
10170POPC   NC372827   4.330  38.431   5.550
10170POPC   PO472828   4.352  38.478   5.850
10170POPC   GL172829   4.359  38.489   6.150
10170POPC   GL272830   4.372  38.363   6.150
10170POPC   C1A72831   4.320  38.406   6.450
10170POPC   D2A72832   4.270  38.465   6.750
10170POPC   C3A72833   4.268  38.501   7.050
10170POPC   C4A72834   4.363  38.468   7.350
10170POPC   C1B72835   4.545  38.306   6.450
10170POPC   C2B72836   4.468  38.314   6.750
10170POPC   C3B72837   4.535  38.338   7.050
10170POPC   C4B72838   4.527  38.265   7.350
10171POPC   NC372839  42.325  12.901   5.550
10171POPC   PO472840  42.322  12.859   5.850
10171POPC   GL172841  42.317  12.880   6.150
10171POPC   GL272842  42.273  12.756   6.150
10171POPC   C1A72843  42.368  12.857   6.450
10171POPC   D2A72844  42.326  12.864   6.750
10171POPC   C3A72845  42.317  12.815   7.050
10171POPC   C4A72846  42.325  12.833   7.350
10171POPC   C1B72847  42.152  12.763   6.450
10171POPC   C2B72848  42.121  12.716   6.750
10171POPC   C3B72849  42.154  12.700   7.050
10171POPC   C4B72850  42.117  12.736   7.350
10172POPC   NC372851  36.135  28.411   5.550
10172POPC   PO472852  36.169  28.361   5.850
10172POPC   GL172853  36.085  28.340   6.150
10172POPC   GL272854  36.218  28.210   6.150
10172POPC   C1A72855  36.121  28.334   6.450
10172POPC   D2A72856  36.155  28.331   6.750
10172POPC   C3A72857  36.134  28.349   7.050
10172POPC   C4A72858  36.169  28.325   7.350
10172POPC   C1B72859  36.269  28.194   6.450
10172POPC   C2B72860  36.291  28.142   6.750
10172POPC   C3B72861  36.285  28.126   7.050
10172POPC   C4B72862  36.219  28.144   7.350
10173POPC   NC372863  23.739  32.250   5.550
10173POPC   PO472864  23.745  32.204   5.850
10173POPC   GL172865  23.681  32.283   6.150
10173POPC   GL272866  23.618  32.244   6.150
10173POPC   C1A72867  23.760  32.201   6.450
10173POPC   D2A72868  23.684  32.251   6.750
10173POPC   C3A72869  23.665  32.230   7.050
10173POPC   C4A72870  23.717  32.261   7.350
10173POPC   C1B72871  23.478  32.279   6.450
10173POPC   C2B72872  23.469  32.268   6.750
10173POPC   C3B72873  23.446  32.241   7.050
10173POPC   C4B72874  23.439  32.213   7.350
10174POPC   NC372875  14.417  34.589   5.550
10174POPC   PO472876  14.440  34.533   5.850
10174POPC   GL172877  14.440  34.567   6.150
10174POPC   GL272878  14.297  34.610   6.150
10174POPC   C1A72879  14.400  34.557   6.450
10174POPC   D2A72880  14.391  34.567   6.750
10174POPC   C3A72881  14.368  34.558   7.050
10174POPC   C4A72882  14.410  34.528   7.350
10174POPC   C1B72883  14.207  34.710   6.450
10174POPC   C2B72884  14.150  34.696   6.750
10174POPC   C3B72885  14.190  34.678   7.050
10174POPC   C4B72886  14.198  34.690   7.350
10175POPC   NC372887  42.373  19.036   5.550
10175POPC   PO472888  42.285  19.016   5.850
10175POPC   GL172889  42.335  19.082   6.150
10175POPC   GL272890  42.441  18.951   6.150
10175POPC   C1A72891  42.296  19.101   6.450
10175POPC   D2A72892  42.373  19.105   6.750
10175POPC   C3A72893  42.367  19.083   7.050
10175POPC   C4A72894  42.381  19.045   7.350
10175POPC   C1B72895  42.471  18.821   6.450
10175POPC   C2B72896  42.452  18.828   6.750
10175POPC   C3B72897  42.425  18.848   7.050
10175POPC   C4B72898  42.441  18.848   7.350
10176POPC   NC372899  40.749  19.040   5.550
10176POPC   PO472900  40.736  19.016   5.850
10176POPC   GL172901  40.771  19.054   6.150
10176POPC   GL272902  40.677  19.047   6.150
10176POPC   C1A72903  40.738  19.072   6.450
10176POPC   D2A72904  40.772  19.054   6.750
10176POPC   C3A72905  40.790  19.033   7.050
10176POPC   C4A72906  40.758  19.073   7.350
10176POPC   C1B72907  40.578  18.954   6.450
10176POPC   C2B72908  40.543  19.038   6.750
10176POPC   C3B72909  40.574  18.963   7.050
10176POPC   C4B72910  40.572  18.949   7.350
10177POPC   NC372911  37.699   3.534   5.550
10177POPC   PO472912  37.720   3.536   5.850
10177POPC   GL172913  37.715   3.542   6.150
10177POPC   GL272914  37.757   3.565   6.150
10177POPC   C1A72915  37.670   3.492   6.450
10177POPC   D2A72916  37.655   3.537   6.750
10177POPC   C3A72917  37.722   3.536   7.050
10177POPC   C4A72918  37.669   3.578   7.350
10177POPC   C1B72919  37.969   3.517   6.450
10177POPC   C2B72920  37.898   3.480   6.750
10177POPC   C3B72921  37.896   3.506   7.050
10177POPC   C4B72922  37.945   3.553   7.350
10178POPC   NC372923   0.468  12.821   5.550
10178POPC   PO472924   0.469  12.861   5.850
10178POPC   GL172925   0.429  12.862   6.150
10178POPC   GL272926   0.510  12.912   6.150
10178POPC   C1A72927   0.397  12.871   6.450
10178POPC   D2A72928   0.405  12.827   6.750
10178POPC   C3A72929   0.431  12.845   7.050
10178POPC   C4A72930   0.427  12.854   7.350
10178POPC   C1B72931   0.657  12.934   6.450
10178POPC   C2B72932   0.689  12.962   6.750
10178POPC   C3B72933   0.713  12.879   7.050
10178POPC   C4B72934   0.685  12.875   7.350
10179POPC   NC372935  14.387  29.969   5.550
10179POPC   PO472936  14.406  29.944   5.850
10179POPC   GL172937  14.367  29.915   6.150
10179POPC   GL272938  14.357  30.028   6.150
10179POPC   C1A72939  14.440  29.968   6.450
10179POPC   D2A72940  14.444  29.890   6.750
10179POPC   C3A72941  14.405  29.915   7.050
10179POPC   C4A72942  14.368  29.961   7.350
10179POPC   C1B72943  14.346  30.181   6.450
10179POPC   C2B72944  14.326  30.160   6.750
10179POPC   C3B72945  14.376  30.153   7.050
10179POPC   C4B72946  14.351  30.194   7.350
10180POPC   NC372947   8.174  22.984   5.550
10180POPC   PO472948   8.214  22.966   5.850
10180POPC   GL172949   8.221  22.971   6.150
10180POPC   GL272950   8.281  23.050   6.150
10180POPC   C1A72951   8.152  22.904   6.450
10180POPC   D2A72952   8.150  22.916   6.750
10180POPC   C3A72953   8.208  22.932   7.050
10180POPC   C4A72954   8.207  22.979   7.350
10180POPC   C1B72955   8.426  23.067   6.450
10180POPC   C2B72956   8.407  23.081   6.750
10180POPC   C3B72957   8.448  23.102   7.050
10180POPC   C4B72958   8.355  23.098   7.350
10181POPC   NC372959   1.191  26.806   5.550
10181POPC   PO472960   1.169  26.796   5.850
10181POPC   GL172961   1.252  26.849   6.150
10181POPC   GL272962   1.214  26.902   6.150
10181POPC   C1A72963   1.198  26.805   6.450
10181POPC   D2A72964   1.183  26.807   6.750
10181POPC   C3A72965   1.198  26.776   7.050
10181POPC   C4A72966   1.248  26.838   7.350
10181POPC   C1B72967   1.202  27.079   6.450
10181POPC   C2B72968   1.175  27.035   6.750
10181POPC   C3B72969   1.175  27.092   7.050
10181POPC   C4B72970   1.215  27.113   7.350
10182POPC   NC372971  24.495   1.254   5.550
10182POPC   PO472972  24.500   1.176   5.850
10182POPC   GL172973  24.440   1.257   6.150
10182POPC   GL272974  24.484   1.321   6.150
10182POPC   C1A72975  24.484   1.165   6.450
10182POPC   D2A72976  24.517   1.234   6.750
10182POPC   C3A72977  24.481   1.166   7.050
10182POPC   C4A72978  24.504   1.219   7.350
10182POPC   C1B72979  24.489   1.460   6.450
10182POPC   C2B72980  24.396   1.456   6.750
10182POPC   C3B72981  24.433   1.432   7.050
10182POPC   C4B72982  24.444   1.422   7.350
10183POPC   NC372983  16.730   2.718   5.550
10183POPC   PO472984  16.705   2.765   5.850
10183POPC   GL172985  16.746   2.777   6.150
10183POPC   GL272986  16.633   2.715   6.150
10183POPC   C1A72987  16.724   2.795   6.450
10183POPC   D2A72988  16.758   2.793   6.750
10183POPC   C3A72989  16.774   2.719   7.050
10183POPC   C4A72990  16.763   2.811   7.350
10183POPC   C1B72991  16.518   2.584   6.450
10183POPC   C2B72992  16.596   2.540   6.750
10183POPC   C3B72993  16.604   2.618   7.050
10183POPC   C4B72994  16.529   2.539   7.350
10184POPC   NC372995  26.851  41.549   5.550
10184POPC   PO472996  26.800  41.562   5.850
10184POPC   GL172997  26.863  41.516   6.150
10184POPC   GL272998  26.681  41.608   6.150
10184POPC   C1A72999  26.784  41.529   6.450
10184POPC   D2A73000  26.789  41.570   6.750
10184POPC   C3A73001  26.827  41.592   7.050
10184POPC   C4A73002  26.811  41.600   7.350
10184POPC   C1B73003  26.541  41.636   6.450
10184POPC   C2B73004  26.568  41.625   6.750
10184POPC   C3B73005  26.581  41.589   7.050
10184POPC   C4B73006  26.602  41.667   7.350
10185POPC   NC373007  37.652   9.766   5.550
10185POPC   PO473008  37.674   9.785   5.850
10185POPC   GL173009  37.673   9.711   6.150
10185POPC   GL273010  37.740   9.658   6.150
10185POPC   C1A73011  37.648   9.752   6.450
10185POPC   D2A73012  37.672   9.765   6.750
10185POPC   C3A73013  37.637   9.769   7.050
10185POPC   C4A73014  37.701   9.708   7.350
10185POPC   C1B73015  37.674   9.461   6.450
10185POPC   C2B73016  37.670   9.539   6.750
10185POPC   C3B73017  37.711   9.455   7.050
10185POPC   C4B73018  37.707   9.513   7.350
10186POPC   NC373019  22.905  17.521   5.550
10186POPC   PO473020  22.951  17.555   5.850
10186POPC   GL173021  22.941  17.461   6.150
10186POPC   GL273022  22.942  17.653   6.150
10186POPC   C1A73023  22.911  17.471   6.450
10186POPC   D2A73024  22.980  17.486   6.750
10186POPC   C3A73025  22.896  17.481   7.050
10186POPC   C4A73026  22.963  17.500   7.350
10186POPC   C1B73027  22.946  17.801   6.450
10186POPC   C2B73028  22.886  17.750   6.750
10186POPC   C3B73029  22.921  17.744   7.050
10186POPC   C4B73030  22.962  17.799   7.350
10187POPC   NC373031   8.990  12.832   5.550
10187POPC   PO473032   8.960  12.803   5.850
10187POPC   GL173033   8.962  12.896   6.150
10187POPC   GL273034   9.061  12.784   6.150
10187POPC   C1A73035   8.950  12.837   6.450
10187POPC   D2A73036   9.004  12.806   6.750
10187POPC   C3A73037   9.013  12.830   7.050
10187POPC   C4A73038   8.977  12.840   7.350
10187POPC   C1B73039   9.160  12.638   6.450
10187POPC   C2B73040   9.167  12.633   6.750
10187POPC   C3B73041   9.089  12.701   7.050
10187POPC   C4B73042   9.162  12.641   7.350
10188POPC   NC373043  24.459  29.123   5.550
10188POPC   PO473044  24.467  29.188   5.850
10188POPC   GL173045  24.525  29.126   6.150
10188POPC   GL273046  24.615  29.136   6.150
10188POPC   C1A73047  24.468  29.131   6.450
10188POPC   D2A73048  24.481  29.154   6.750
10188POPC   C3A73049  24.497  29.163   7.050
10188POPC   C4A73050  24.458  29.190   7.350
10188POPC   C1B73051  24.767  29.143   6.450
10188POPC   C2B73052  24.705  29.168   6.750
10188POPC   C3B73053  24.700  29.162   7.050
10188POPC   C4B73054  24.783  29.109   7.350
10189POPC   NC373055  15.917  17.508   5.550
10189POPC   PO473056  15.938  17.557   5.850
10189POPC   GL173057  15.978  17.540   6.150
10189POPC   GL273058  15.973  17.675   6.150
10189POPC   C1A73059  15.963  17.526   6.450
10189POPC   D2A73060  15.987  17.475   6.750
10189POPC   C3A73061  15.937  17.477   7.050
10189POPC   C4A73062  15.959  17.458   7.350
10189POPC   C1B73063  15.925  17.761   6.450
10189POPC   C2B73064  15.912  17.715   6.750
10189POPC   C3B73065  15.946  17.790   7.050
10189POPC   C4B73066  15.958  17.717   7.350
10190POPC   NC373067  10.537  30.670   5.550
10190POPC   PO473068  10.524  30.689   5.850
10190POPC   GL173069  10.487  30.669   6.150
10190POPC   GL273070  10.633  30.751   6.150
10190POPC   C1A73071  10.552  30.733   6.450
10190POPC   D2A73072  10.485  30.693   6.750
10190POPC   C3A73073  10.555  30.656   7.050
10190POPC   C4A73074  10.498  30.680   7.350
10190POPC   C1B73075  10.748  30.805   6.450
10190POPC   C2B73076  10.733  30.736   6.750
10190POPC   C3B73077  10.736  30.733   7.050
10190POPC   C4B73078  10.796  30.763   7.350
10191POPC   NC373079  19.852  24.442   5.550
10191POPC   PO473080  19.870  24.448   5.850
10191POPC   GL173081  19.848  24.499   6.150
10191POPC   GL273082  19.769  24.542   6.150
10191POPC   C1A73083  19.850  24.497   6.450
10191POPC   D2A73084  19.867  24.536   6.750
10191POPC   C3A73085  19.809  24.451   7.050
10191POPC   C4A73086  19.799  24.448   7.350
10191POPC   C1B73087  19.671  24.628   6.450
10191POPC   C2B73088  19.668  24.580   6.750
10191POPC   C3B73089  19.673  24.662   7.050
10191POPC   C4B73090  19.595  24.620   7.350
10192POPC   NC373091  42.343   9.787   5.550
10192POPC   PO473092  42.320   9.765   5.850
10192POPC   GL173093  42.380   9.748   6.150
10192POPC   GL273094  42.212   9.780   6.150
10192POPC   C1A73095  42.350   9.717   6.450
10192POPC   D2A73096  42.292   9.745   6.750
10192POPC   C3A73097  42.300   9.756   7.050
10192POPC   C4A73098  42.325   9.793   7.350
10192POPC   C1B73099  42.086   9.926   6.450
10192POPC   C2B73100  42.166   9.883   6.750
10192POPC   C3B73101  42.118   9.932   7.050
10192POPC   C4B73102  42.120   9.906   7.350
10193POPC   NC373103  32.248  42.325   5.550
10193POPC   PO473104  32.247  42.352   5.850
10193POPC   GL173105  32.217  42.295   6.150
10193POPC   GL273106  32.095  42.364   6.150
10193POPC   C1A73107  32.298  42.318   6.450
10193POPC   D2A73108  32.209  42.305   6.750
10193POPC   C3A73109  32.275  42.383   7.050
10193POPC   C4A73110  32.250  42.287   7.350
10193POPC   C1B73111  32.000  42.384   6.450
10193POPC   C2B73112  32.023  42.348   6.750
10193POPC   C3B73113  31.981  42.354   7.050
10193POPC   C4B73114  32.047  42.353   7.350
10194POPC   NC373115  33.817   4.301   5.550
10194POPC   PO473116  33.810   4.342   5.850
10194POPC   GL173117  33.836   4.348   6.150
10194POPC   GL273118  33.857   4.433   6.150
10194POPC   C1A73119  33.786   4.327   6.450
10194POPC   D2A73120  33.756   4.353   6.750
10194POPC   C3A73121  33.796   4.282   7.050
10194POPC   C4A73122  33.787   4.319   7.350
10194POPC   C1B73123  33.804   4.581   6.450
10194POPC   C2B73124  33.808   4.548   6.750
10194POPC   C3B73125  33.823   4.548   7.050
10194POPC   C4B73126  33.805   4.539   7.350
10195POPC   NC373127  33.786   1.999   5.550
10195POPC   PO473128  33.836   1.946   5.850
10195POPC   GL173129  33.807   1.948   6.150
10195POPC   GL273130  33.778   2.109   6.150
10195POPC   C1A73131  33.846   1.951   6.450
10195POPC   D2A73132  33.793   1.968   6.750
10195POPC   C3A73133  33.765   1.988   7.050
10195POPC   C4A73134  33.849   1.974   7.350
10195POPC   C1B73135  33.768   2.237   6.450
10195POPC   C2B73136  33.811   2.262   6.750
10195POPC   C3B73137  33.749   2.277   7.050
10195POPC   C4B73138  33.737   2.202   7.350
10196POPC   NC373139  42.304  38.435   5.550
10196POPC   PO473140  42.288  38.425   5.850
10196POPC   GL173141  42.366  38.430   6.150
10196POPC   GL273142  42.396  38.544   6.150
10196POPC   C1A73143  42.347  38.433   6.450
10196POPC   D2A73144  42.319  38.416   6.750
10196POPC   C3A73145  42.313  38.459   7.050
10196POPC   C4A73146  42.384  38.415   7.350
10196POPC   C1B73147  42.369  38.696   6.450
10196POPC   C2B73148  42.362  38.673   6.750
10196POPC   C3B73149  42.336  38.685   7.050
10196POPC   C4B73150  42.328  38.745   7.350
10197POPC   NC373151  29.159  40.749   5.550
10197POPC   PO473152  29.109  40.768   5.850
10197POPC   GL173153  29.146  40.776   6.150
10197POPC   GL273154  29.161  40.855   6.150
10197POPC   C1A73155  29.104  40.813   6.450
10197POPC   D2A73156  29.190  40.798   6.750
10197POPC   C3A73157  29.140  40.776   7.050
10197POPC   C4A73158  29.098  40.740   7.350
10197POPC   C1B73159  29.190  41.016   6.450
10197POPC   C2B73160  29.223  40.974   6.750
10197POPC   C3B73161  29.226  41.042   7.050
10197POPC   C4B73162  29.268  41.019   7.350
10198POPC   NC373163  19.837  44.624   5.550
10198POPC   PO473164  19.844  44.699   5.850
10198POPC   GL173165  19.794  44.648   6.150
10198POPC   GL273166  19.887  44.738   6.150
10198POPC   C1A73167  19.811  44.712   6.450
10198POPC   D2A73168  19.812  44.634   6.750
10198POPC   C3A73169  19.840  44.661   7.050
10198POPC   C4A73170  19.820  44.617   7.350
10198POPC   C1B73171  19.940  44.829   6.450
10198POPC   C2B73172  19.957  44.894   6.750
10198POPC   C3B73173  19.983  44.908   7.050
10198POPC   C4B73174  19.941  44.846   7.350
10199POPC   NC373175  22.141  26.846   5.550
10199POPC   PO473176  22.125  26.835   5.850
10199POPC   GL173177  22.145  26.841   6.150
10199POPC   GL273178  22.004  26.776   6.150
10199POPC   C1A73179  22.195  26.769   6.450
10199POPC   D2A73180  22.161  26.837   6.750
10199POPC   C3A73181  22.203  26.847   7.050
10199POPC   C4A73182  22.148  26.839   7.350
10199POPC   C1B73183  21.966  26.766   6.450
10199POPC   C2B73184  21.943  26.763   6.750
10199POPC   C3B73185  21.872  26.730   7.050
10199POPC   C4B73186  21.898  26.753   7.350
10200POPC   NC373187  35.327  22.951   5.550
10200POPC   PO473188  35.357  22.945   5.850
10200POPC   GL173189  35.399  22.914   6.150
10200POPC   GL273190  35.401  22.824   6.150
10200POPC   C1A73191  35.309  22.931   6.450
10200POPC   D2A73192  35.368  22.950   6.750
10200POPC   C3A73193  35.375  22.914   7.050
10200POPC   C4A73194  35.313  22.974   7.350
10200POPC   C1B73195  35.487  22.703   6.450
10200POPC   C2B73196  35.560  22.718   6.750
10200POPC   C3B73197  35.539  22.717   7.050
10200POPC   C4B73198  35.511  22.697   7.350
10201POPC   NC373199  40.811   6.666   5.550
10201POPC   PO473200  40.825   6.603   5.850
10201POPC   GL173201  40.824   6.632   6.150
10201POPC   GL273202  40.706   6.632   6.150
10201POPC   C1A73203  40.778   6.694   6.450
10201POPC   D2A73204  40.810   6.603   6.750
10201POPC   C3A73205  40.757   6.610   7.050
10201POPC   C4A73206  40.786   6.604   7.350
10201POPC   C1B73207  40.587   6.689   6.450
10201POPC   C2B73208  40.515   6.722   6.750
10201POPC   C3B73209  40.494   6.700   7.050
10201POPC   C4B73210  40.502   6.656   7.350
10202POPC   NC373211  19.801   5.111   5.550
10202POPC   PO473212  19.794   5.115   5.850
10202POPC   GL173213  19.832   5.127   6.150
10202POPC   GL273214  19.931   5.189   6.150
10202POPC   C1A73215  19.832   5.082   6.450
10202POPC   D2A73216  19.859   5.092   6.750
10202POPC   C3A73217  19.820   5.122   7.050
10202POPC   C4A73218  19.808   5.063   7.350
10202POPC   C1B73219  20.029   5.253   6.450
10202POPC   C2B73220  20.038   5.293   6.750
10202POPC   C3B73221  19.983   5.244   7.050
10202POPC   C4B73222  20.049   5.234   7.350
10203POPC   NC373223  25.230  14.364   5.550
10203POPC   PO473224  25.249  14.367   5.850
10203POPC   GL173225  25.314  14.391   6.150
10203POPC   GL273226  25.119  14.444   6.150
10203POPC   C1A73227  25.218  14.358   6.450
10203POPC   D2A73228  25.248  14.362   6.750
10203POPC   C3A73229  25.247  14.414   7.050
10203POPC   C4A73230  25.251  14.441   7.350
10203POPC   C1B73231  25.051  14.478   6.450
10203POPC   C2B73232  24.995  14.524   6.750
10203POPC   C3B73233  25.062  14.533   7.050
10203POPC   C4B73234  25.061  14.548   7.350
10204POPC   NC373235  14.370  18.246   5.550
10204POPC   PO473236  14.380  18.286   5.850
10204POPC   GL173237  14.386  18.302   6.150
10204POPC   GL273238  14.331  18.264   6.150
10204POPC   C1A73239  14.420  18.260   6.450
10204POPC   D2A73240  14.415  18.316   6.750
10204POPC   C3A73241  14.421  18.313   7.050
10204POPC   C4A73242  14.446  18.264   7.350
10204POPC   C1B73243  14.126  18.201   6.450
10204POPC   C2B73244  14.179  18.184   6.750
10204POPC   C3B73245  14.118  18.158   7.050
10204POPC   C4B73246  14.160  18.250   7.350
10205POPC   NC373247   3.523  15.947   5.550
10205POPC   PO473248   3.502  15.992   5.850
10205POPC   GL173249   3.530  15.946   6.150
10205POPC   GL273250   3.432  15.872   6.150
10205POPC   C1A73251   3.562  15.933   6.450
10205POPC   D2A73252   3.515  15.947   6.750
10205POPC   C3A73253   3.517  15.998   7.050
10205POPC   C4A73254   3.517  15.958   7.350
10205POPC   C1B73255   3.366  15.845   6.450
10205POPC   C2B73256   3.318  15.814   6.750
10205POPC   C3B73257   3.316  15.849   7.050
10205POPC   C4B73258   3.281  15.867   7.350
10206POPC   NC373259  33.763  22.974   5.550
10206POPC   PO473260  33.768  22.939   5.850
10206POPC   GL173261  33.790  22.912   6.150
10206POPC   GL273262  33.938  22.857   6.150
10206POPC   C1A73263  33.817  22.935   6.450
10206POPC   D2A73264  33.818  22.960   6.750
10206POPC   C3A73265  33.799  22.918   7.050
10206POPC   C4A73266  33.751  22.972   7.350
10206POPC   C1B73267  34.000  22.787   6.450
10206POPC   C2B73268  33.977  22.860   6.750
10206POPC   C3B73269  34.044  22.830   7.050
10206POPC   C4B73270  34.021  22.824   7.350
10207POPC   NC373271   9.014  43.151   5.550
10207POPC   PO473272   8.989  43.061   5.850
10207POPC   GL173273   8.976  43.063   6.150
10207POPC   GL273274   9.009  43.236   6.150
10207POPC   C1A73275   8.981  43.114   6.450
10207POPC   D2A73276   8.996  43.131   6.750
10207POPC   C3A73277   8.973  43.112   7.050
10207POPC   C4A73278   8.926  43.144   7.350
10207POPC   C1B73279   9.055  43.319   6.450
10207POPC   C2B73280   9.094  43.393   6.750
10207POPC   C3B73281   9.019  43.306   7.050
10207POPC   C4B73282   9.014  43.309   7.350
10208POPC   NC373283  35.382   1.197   5.550
10208POPC   PO473284  35.347   1.191   5.850
10208POPC   GL173285  35.378   1.251   6.150
10208POPC   GL273286  35.508   1.132   6.150
10208POPC   C1A73287  35.389   1.171   6.450
10208POPC   D2A73288  35.322   1.241   6.750
10208POPC   C3A73289  35.351   1.230   7.050
10208POPC   C4A73290  35.362   1.213   7.350
10208POPC   C1B73291  35.606   1.160   6.450
10208POPC   C2B73292  35.573   1.124   6.750
10208POPC   C3B73293  35.612   1.123   7.050
10208POPC   C4B73294  35.618   1.156   7.350
10209POPC   NC373295  25.308  17.458   5.550
10209POPC   PO473296  25.307  17.526   5.850
10209POPC   GL173297  25.259  17.527   6.150
10209POPC   GL273298  25.287  17.444   6.150
10209POPC   C1A73299  25.223  17.497   6.450
10209POPC   D2A73300  25.287  17.500   6.750
10209POPC   C3A73301  25.313  17.473   7.050
10209POPC   C4A73302  25.311  17.473   7.350
10209POPC   C1B73303  25.405  17.320   6.450
10209POPC   C2B73304  25.361  17.310   6.750
10209POPC   C3B73305  25.400  17.257   7.050
10209POPC   C4B73306  25.403  17.323   7.350
10210POPC   NC373307   8.157  23.733   5.550
10210POPC   PO473308   8.164  23.689   5.850
10210POPC   GL173309   8.154  23.718   6.150
10210POPC   GL273310   8.304  23.760   6.150
10210POPC   C1A73311   8.223  23.691   6.450
10210POPC   D2A73312   8.159  23.758   6.750
10210POPC   C3A73313   8.184  23.669   7.050
10210POPC   C4A73314   8.232  23.696   7.350
10210POPC   C1B73315   8.344  23.861   6.450
10210POPC   C2B73316   8.398  23.839   6.750
10210POPC   C3B73317   8.363  23.882   7.050
10210POPC   C4B73318   8.369  23.843   7.350
10211POPC   NC373319  24.461   1.987   5.550
10211POPC   PO473320  24.463   1.975   5.850
10211POPC   GL173321  24.521   1.985   6.150
10211POPC   GL273322  24.353   1.960   6.150
10211POPC   C1A73323  24.444   2.022   6.450
10211POPC   D2A73324  24.480   2.036   6.750
10211POPC   C3A73325  24.459   1.943   7.050
10211POPC   C4A73326  24.497   2.025   7.350
10211POPC   C1B73327  24.301   1.827   6.450
10211POPC   C2B73328  24.258   1.867   6.750
10211POPC   C3B73329  24.304   1.872   7.050
10211POPC   C4B73330  24.249   1.908   7.350
10212POPC   NC373331   2.786   5.098   5.550
10212POPC   PO473332   2.748   5.092   5.850
10212POPC   GL173333   2.796   5.044   6.150
10212POPC   GL273334   2.808   5.173   6.150
10212POPC   C1A73335   2.761   5.043   6.450
10212POPC   D2A73336   2.753   5.052   6.750
10212POPC   C3A73337   2.806   5.052   7.050
10212POPC   C4A73338   2.758   5.096   7.350
10212POPC   C1B73339   2.727   5.300   6.450
10212POPC   C2B73340   2.775   5.372   6.750
10212POPC   C3B73341   2.775   5.389   7.050
10212POPC   C4B73342   2.710   5.381   7.350
10213POPC   NC373343  13.640  26.848   5.550
10213POPC   PO473344  13.644  26.863   5.850
10213POPC   GL173345  13.677  26.823   6.150
10213POPC   GL273346  13.772  26.771   6.150
10213POPC   C1A73347  13.593  26.836   6.450
10213POPC   D2A73348  13.586  26.830   6.750
10213POPC   C3A73349  13.631  26.853   7.050
10213POPC   C4A73350  13.636  26.780   7.350
10213POPC   C1B73351  13.835  26.620   6.450
10213POPC   C2B73352  13.866  26.694   6.750
10213POPC   C3B73353  13.821  26.677   7.050
10213POPC   C4B73354  13.780  26.662   7.350
10214POPC   NC373355  41.590  11.297   5.550
10214POPC   PO473356  41.538  11.294   5.850
10214POPC   GL173357  41.510  11.340   6.150
10214POPC   GL273358  41.615  11.164   6.150
10214POPC   C1A73359  41.561  11.256   6.450
10214POPC   D2A73360  41.523  11.260   6.750
10214POPC   C3A73361  41.565  11.347   7.050
10214POPC   C4A73362  41.586  11.289   7.350
10214POPC   C1B73363  41.626  11.070   6.450
10214POPC   C2B73364  41.651  11.119   6.750
10214POPC   C3B73365  41.694  11.081   7.050
10214POPC   C4B73366  41.686  11.025   7.350
10215POPC   NC373367   9.778  22.135   5.550
10215POPC   PO473368   9.793  22.168   5.850
10215POPC   GL173369   9.759  22.113   6.150
10215POPC   GL273370   9.852  22.140   6.150
10215POPC   C1A73371   9.770  22.134   6.450
10215POPC   D2A73372   9.701  22.151   6.750
10215POPC   C3A73373   9.754  22.196   7.050
10215POPC   C4A73374   9.756  22.113   7.350
10215POPC   C1B73375   9.970  22.128   6.450
10215POPC   C2B73376  10.044  22.161   6.750
10215POPC   C3B73377   9.955  22.181   7.050
10215POPC   C4B73378   9.993  22.193   7.350
10216POPC   NC373379  31.467  43.143   5.550
10216POPC   PO473380  31.499  43.107   5.850
10216POPC   GL173381  31.513  43.112   6.150
10216POPC   GL273382  31.595  43.026   6.150
10216POPC   C1A73383  31.485  43.102   6.450
10216POPC   D2A73384  31.438  43.134   6.750
10216POPC   C3A73385  31.453  43.066   7.050
10216POPC   C4A73386  31.445  43.141   7.350
10216POPC   C1B73387  31.608  42.870   6.450
10216POPC   C2B73388  31.589  42.879   6.750
10216POPC   C3B73389  31.669  42.931   7.050
10216POPC   C4B73390  31.585  42.908   7.350
10217POPC   NC373391  21.369  30.669   5.550
10217POPC   PO473392  21.400  30.696   5.850
10217POPC   GL173393  21.427  30.691   6.150
10217POPC   GL273394  21.476  30.762   6.150
10217POPC   C1A73395  21.394  30.704   6.450
10217POPC   D2A73396  21.342  30.673   6.750
10217POPC   C3A73397  21.419  30.688   7.050
10217POPC   C4A73398  21.427  30.700   7.350
10217POPC   C1B73399  21.632  30.858   6.450
10217POPC   C2B73400  21.619  30.873   6.750
10217POPC   C3B73401  21.561  30.823   7.050
10217POPC   C4B73402  21.551  30.796   7.350
10218POPC   NC373403  44.632   2.798   5.550
10218POPC   PO473404  44.677   2.751   5.850
10218POPC   GL173405  44.698   2.745   6.150
10218POPC   GL273406  44.646   2.628   6.150
10218POPC   C1A73407  44.618   2.766   6.450
10218POPC   D2A73408  44.666   2.745   6.750
10218POPC   C3A73409  44.704   2.752   7.050
10218POPC   C4A73410  44.680   2.730   7.350
10218POPC   C1B73411  44.731   2.489   6.450
10218POPC   C2B73412  44.750   2.538   6.750
10218POPC   C3B73413  44.733   2.522   7.050
10218POPC   C4B73414  44.739   2.528   7.350
10219POPC   NC373415  33.047   2.785   5.550
10219POPC   PO473416  33.010   2.803   5.850
10219POPC   GL173417  32.986   2.750   6.150
10219POPC   GL273418  33.181   2.717   6.150
10219POPC   C1A73419  33.021   2.724   6.450
10219POPC   D2A73420  33.051   2.734   6.750
10219POPC   C3A73421  32.993   2.727   7.050
10219POPC   C4A73422  33.051   2.790   7.350
10219POPC   C1B73423  33.273   2.756   6.450
10219POPC   C2B73424  33.231   2.755   6.750
10219POPC   C3B73425  33.285   2.769   7.050
10219POPC   C4B73426  33.313   2.780   7.350
10220POPC   NC373427  33.776   8.971   5.550
10220POPC   PO473428  33.816   8.980   5.850
10220POPC   GL173429  33.755   8.983   6.150
10220POPC   GL273430  33.756   8.807   6.150
10220POPC   C1A73431  33.829   9.008   6.450
10220POPC   D2A73432  33.833   8.973   6.750
10220POPC   C3A73433  33.819   8.938   7.050
10220POPC   C4A73434  33.828   9.019   7.350
10220POPC   C1B73435  33.710   8.689   6.450
10220POPC   C2B73436  33.797   8.764   6.750
10220POPC   C3B73437  33.722   8.736   7.050
10220POPC   C4B73438  33.722   8.742   7.350
10221POPC   NC373439  27.567  19.877   5.550
10221POPC   PO473440  27.617  19.846   5.850
10221POPC   GL173441  27.556  19.835   6.150
10221POPC   GL273442  27.490  19.798   6.150
10221POPC   C1A73443  27.610  19.831   6.450
10221POPC   D2A73444  27.548  19.798   6.750
10221POPC   C3A73445  27.637  19.802   7.050
10221POPC   C4A73446  27.573  19.884   7.350
10221POPC   C1B73447  27.353  19.758   6.450
10221POPC   C2B73448  27.413  19.684   6.750
10221POPC   C3B73449  27.404  19.771   7.050
10221POPC   C4B73450  27.341  19.728   7.350
10222POPC   NC373451   9.772  12.829   5.550
10222POPC   PO473452   9.772  12.847   5.850
10222POPC   GL173453   9.750  12.853   6.150
10222POPC   GL273454   9.848  12.760   6.150
10222POPC   C1A73455   9.780  12.883   6.450
10222POPC   D2A73456   9.725  12.845   6.750
10222POPC   C3A73457   9.788  12.844   7.050
10222POPC   C4A73458   9.734  12.900   7.350
10222POPC   C1B73459   9.940  12.656   6.450
10222POPC   C2B73460   9.883  12.648   6.750
10222POPC   C3B73461   9.869  12.672   7.050
10222POPC   C4B73462   9.912  12.715   7.350
10223POPC   NC373463  22.894  34.601   5.550
10223POPC   PO473464  22.985  34.552   5.850
10223POPC   GL173465  22.894  34.607   6.150
10223POPC   GL273466  22.781  34.670   6.150
10223POPC   C1A73467  22.986  34.601   6.450
10223POPC   D2A73468  22.907  34.538   6.750
10223POPC   C3A73469  22.935  34.576   7.050
10223POPC   C4A73470  22.928  34.591   7.350
10223POPC   C1B73471  22.733  34.689   6.450
10223POPC   C2B73472  22.754  34.734   6.750
10223POPC   C3B73473  22.705  34.696   7.050
10223POPC   C4B73474  22.717  34.741   7.350
10224POPC   NC373475  34.534  19.108   5.550
10224POPC   PO473476  34.533  19.097   5.850
10224POPC   GL173477  34.545  19.037   6.150
10224POPC   GL273478  34.694  19.142   6.150
10224POPC   C1A73479  34.585  19.013   6.450
10224POPC   D2A73480  34.573  19.038   6.750
10224POPC   C3A73481  34.527  19.072   7.050
10224POPC   C4A73482  34.566  19.072   7.350
10224POPC   C1B73483  34.738  19.210   6.450
10224POPC   C2B73484  34.772  19.220   6.750
10224POPC   C3B73485  34.779  19.241   7.050
10224POPC   C4B73486  34.704  19.265   7.350
10225POPC   NC373487  35.333   4.359   5.550
10225POPC   PO473488  35.366   4.364   5.850
10225POPC   GL173489  35.337   4.291   6.150
10225POPC   GL273490  35.220   4.292   6.150
10225POPC   C1A73491  35.382   4.295   6.450
10225POPC   D2A73492  35.385   4.360   6.750
10225POPC   C3A73493  35.364   4.355   7.050
10225POPC   C4A73494  35.345   4.268   7.350
10225POPC   C1B73495  35.077   4.372   6.450
10225POPC   C2B73496  35.105   4.371   6.750
10225POPC   C3B73497  35.068   4.308   7.050
10225POPC   C4B73498  35.063   4.332   7.350
10226POPC   NC373499  12.880  14.442   5.550
10226POPC   PO473500  12.806  14.397   5.850
10226POPC   GL173501  12.859  14.386   6.150
10226POPC   GL273502  12.944  14.355   6.150
10226POPC   C1A73503  12.831  14.377   6.450
10226POPC   D2A73504  12.804  14.375   6.750
10226POPC   C3A73505  12.877  14.434   7.050
10226POPC   C4A73506  12.864  14.450   7.350
10226POPC   C1B73507  13.110  14.273   6.450
10226POPC   C2B73508  13.058  14.288   6.750
10226POPC   C3B73509  13.061  14.285   7.050
10226POPC   C4B73510  13.038  14.319   7.350
10227POPC   NC373511   1.230  18.263   5.550
10227POPC   PO473512   1.194  18.283   5.850
10227POPC   GL173513   1.229  18.259   6.150
10227POPC   GL273514   1.158  18.398   6.150
10227POPC   C1A73515   1.253  18.312   6.450
10227POPC   D2A73516   1.248  18.251   6.750
10227POPC   C3A73517   1.203  18.302   7.050
10227POPC   C4A73518   1.250  18.237   7.350
10227POPC   C1B73519   1.171  18.535   6.450
10227POPC   C2B73520   1.178  18.487   6.750
10227POPC   C3B73521   1.132  18.539   7.050
10227POPC   C4B73522   1.129  18.519   7.350
10228POPC   NC373523  20.629  27.617   5.550
10228POPC   PO473524  20.617  27.573   5.850
10228POPC   GL173525  20.616  27.580   6.150
10228POPC   GL273526  20.686  27.491   6.150
10228POPC   C1A73527  20.588  27.565   6.450
10228POPC   D2A73528  20.587  27.558   6.750
10228POPC   C3A73529  20.587  27.607   7.050
10228POPC   C4A73530  20.569  27.615   7.350
10228POPC   C1B73531  20.700  27.350   6.450
10228POPC   C2B73532  20.745  27.394   6.750
10228POPC   C3B73533  20.770  27.382   7.050
10228POPC   C4B73534  20.774  27.419   7.350
10229POPC   NC373535  30.671  40.030   5.550
10229POPC   PO473536  30.655  39.992   5.850
10229POPC   GL173537  30.733  40.016   6.150
10229POPC   GL273538  30.582  40.007   6.150
10229POPC   C1A73539  30.741  40.049   6.450
10229POPC   D2A73540  30.719  40.006   6.750
10229POPC   C3A73541  30.696  40.044   7.050
10229POPC   C4A73542  30.678  40.053   7.350
10229POPC   C1B73543  30.482  39.937   6.450
10229POPC   C2B73544  30.421  39.965   6.750
10229POPC   C3B73545  30.457  40.011   7.050
10229POPC   C4B73546  30.433  39.943   7.350
10230POPC   NC373547  35.361  37.665   5.550
10230POPC   PO473548  35.330  37.721   5.850
10230POPC   GL173549  35.380  37.641   6.150
10230POPC   GL273550  35.390  37.776   6.150
10230POPC   C1A73551  35.304  37.638   6.450
10230POPC   D2A73552  35.319  37.653   6.750
10230POPC   C3A73553  35.400  37.630   7.050
10230POPC   C4A73554  35.345  37.717   7.350
10230POPC   C1B73555  35.464  37.923   6.450
10230POPC   C2B73556  35.474  37.880   6.750
10230POPC   C3B73557  35.450  37.882   7.050
10230POPC   C4B73558  35.455  37.933   7.350
10231POPC   NC373559  12.898  20.647   5.550
10231POPC   PO473560  12.811  20.578   5.850
10231POPC   GL173561  12.876  20.564   6.150
10231POPC   GL273562  12.767  20.564   6.150
10231POPC   C1A73563  12.900  20.566   6.450
10231POPC   D2A73564  12.833  20.633   6.750
10231POPC   C3A73565  12.876  20.616   7.050
10231POPC   C4A73566  12.896  20.602   7.350
10231POPC   C1B73567  12.619  20.579   6.450
10231POPC   C2B73568  12.577  20.559   6.750
10231POPC   C3B73569  12.556  20.597   7.050
10231POPC   C4B73570  12.636  20.596   7.350
10232POPC   NC373571  36.884   5.086   5.550
10232POPC   PO473572  36.948   5.072   5.850
10232POPC   GL173573  36.935   5.093   6.150
10232POPC   GL273574  37.065   5.048   6.150
10232POPC   C1A73575  36.930   5.058   6.450
10232POPC   D2A73576  36.859   5.070   6.750
10232POPC   C3A73577  36.914   5.102   7.050
10232POPC   C4A73578  36.950   5.122   7.350
10232POPC   C1B73579  37.182   5.059   6.450
10232POPC   C2B73580  37.148   5.117   6.750
10232POPC   C3B73581  37.105   5.093   7.050
10232POPC   C4B73582  37.121   5.078   7.350
10233POPC   NC373583  41.571  20.639   5.550
10233POPC   PO473584  41.606  20.580   5.850
10233POPC   GL173585  41.583  20.612   6.150
10233POPC   GL273586  41.573  20.740   6.150
10233POPC   C1A73587  41.520  20.620   6.450
10233POPC   D2A73588  41.529  20.625   6.750
10233POPC   C3A73589  41.518  20.586   7.050
10233POPC   C4A73590  41.509  20.588   7.350
10233POPC   C1B73591  41.685  20.834   6.450
10233POPC   C2B73592  41.606  20.848   6.750
10233POPC   C3B73593  41.677  20.817   7.050
10233POPC   C4B73594  41.607  20.836   7.350
10234POPC   NC373595  20.614  12.865   5.550
10234POPC   PO473596  20.575  12.895   5.850
10234POPC   GL173597  20.617  12.894   6.150
10234POPC   GL273598  20.693  12.693   6.150
10234POPC   C1A73599  20.657  12.873   6.450
10234POPC   D2A73600  20.578  12.802   6.750
10234POPC   C3A73601  20.653  12.862   7.050
10234POPC   C4A73602  20.589  12.815   7.350
10234POPC   C1B73603  20.701  12.632   6.450
10234POPC   C2B73604  20.670  12.571   6.750
10234POPC   C3B73605  20.660  12.613   7.050
10234POPC   C4B73606  20.672  12.612   7.350
10235POPC   NC373607  26.079   5.072   5.550
10235POPC   PO473608  26.003   5.099   5.850
10235POPC   GL173609  26.078   5.075   6.150
10235POPC   GL273610  26.009   4.946   6.150
10235POPC   C1A73611  26.004   5.127   6.450
10235POPC   D2A73612  26.082   5.111   6.750
10235POPC   C3A73613  26.006   5.134   7.050
10235POPC   C4A73614  26.028   5.097   7.350
10235POPC   C1B73615  26.020   4.857   6.450
10235POPC   C2B73616  26.005   4.811   6.750
10235POPC   C3B73617  26.046   4.872   7.050
10235POPC   C4B73618  25.981   4.875   7.350
10236POPC   NC373619  20.594  32.252   5.550
10236POPC   PO473620  20.611  32.285   5.850
10236POPC   GL173621  20.650  32.236   6.150
10236POPC   GL273622  20.713  32.182   6.150
10236POPC   C1A73623  20.646  32.296   6.450
10236POPC   D2A73624  20.626  32.297   6.750
10236POPC   C3A73625  20.606  32.247   7.050
10236POPC   C4A73626  20.597  32.217   7.350
10236POPC   C1B73627  20.800  32.072   6.450
10236POPC   C2B73628  20.798  32.088   6.750
10236POPC   C3B73629  20.841  32.122   7.050
10236POPC   C4B73630  20.871  32.100   7.350
10237POPC   NC373631  27.612  11.286   5.550
10237POPC   PO473632  27.594  11.264   5.850
10237POPC   GL173633  27.554  11.342   6.150
10237POPC   GL273634  27.559  11.200   6.150
10237POPC   C1A73635  27.630  11.255   6.450
10237POPC   D2A73636  27.558  11.344   6.750
10237POPC   C3A73637  27.589  11.332   7.050
10237POPC   C4A73638  27.560  11.340   7.350
10237POPC   C1B73639  27.562  11.097   6.450
10237POPC   C2B73640  27.549  11.091   6.750
10237POPC   C3B73641  27.620  11.071   7.050
10237POPC   C4B73642  27.570  11.016   7.350
10238POPC   NC373643  41.571   8.232   5.550
10238POPC   PO473644  41.544   8.169   5.850
10238POPC   GL173645  41.574   8.241   6.150
10238POPC   GL273646  41.666   8.134   6.150
10238POPC   C1A73647  41.546   8.233   6.450
10238POPC   D2A73648  41.578   8.201   6.750
10238POPC   C3A73649  41.596   8.209   7.050
10238POPC   C4A73650  41.604   8.224   7.350
10238POPC   C1B73651  41.775   8.107   6.450
10238POPC   C2B73652  41.772   8.074   6.750
10238POPC   C3B73653  41.731   8.070   7.050
10238POPC   C4B73654  41.761   8.090   7.350
10239POPC   NC373655  40.795  22.172   5.550
10239POPC   PO473656  40.784  22.197   5.850
10239POPC   GL173657  40.743  22.185   6.150
10239POPC   GL273658  40.887  22.213   6.150
10239POPC   C1A73659  40.762  22.198   6.450
10239POPC   D2A73660  40.774  22.140   6.750
10239POPC   C3A73661  40.746  22.188   7.050
10239POPC   C4A73662  40.769  22.165   7.350
10239POPC   C1B73663  41.040  22.251   6.450
10239POPC   C2B73664  41.022  22.253   6.750
10239POPC   C3B73665  41.002  22.252   7.050
10239POPC   C4B73666  40.988  22.252   7.350
10240POPC   NC373667  39.249   4.342   5.550
10240POPC   PO473668  39.189   4.319   5.850
10240POPC   GL173669  39.204   4.275   6.150
10240POPC   GL273670  39.092   4.328   6.150
10240POPC   C1A73671  39.266   4.286   6.450
10240POPC   D2A73672  39.227   4.285   6.750
10240POPC   C3A73673  39.185   4.338   7.050
10240POPC   C4A73674  39.234   4.331   7.350
10240POPC   C1B73675  39.018   4.417   6.450
10240POPC   C2B73676  39.030   4.369   6.750
10240POPC   C3B73677  38.982   4.395   7.050
10240POPC   C4B73678  39.008   4.430   7.350
10241POPC   NC373679  29.924  30.715   5.550
10241POPC   PO473680  29.905  30.694   5.850
10241POPC   GL173681  29.910  30.676   6.150
10241POPC   GL273682  29.886  30.589   6.150
10241POPC   C1A73683  29.929  30.660   6.450
10241POPC   D2A73684  29.935  30.701   6.750
10241POPC   C3A73685  29.915  30.659   7.050
10241POPC   C4A73686  29.902  30.746   7.350
10241POPC   C1B73687  29.874  30.458   6.450
10241POPC   C2B73688  29.810  30.495   6.750
10241POPC   C3B73689  29.815  30.449   7.050
10241POPC   C4B73690  29.865  30.447   7.350
10242POPC   NC373691   7.449  41.607   5.550
10242POPC   PO473692   7.420  41.524   5.850
10242POPC   GL173693   7.435  41.567   6.150
10242POPC   GL273694   7.560  41.578   6.150
10242POPC   C1A73695   7.433  41.574   6.450
10242POPC   D2A73696   7.403  41.596   6.750
10242POPC   C3A73697   7.427  41.566   7.050
10242POPC   C4A73698   7.395  41.592   7.350
10242POPC   C1B73699   7.614  41.669   6.450
10242POPC   C2B73700   7.657  41.656   6.750
10242POPC   C3B73701   7.622  41.711   7.050
10242POPC   C4B73702   7.620  41.708   7.350
10243POPC   NC373703  19.868  12.037   5.550
10243POPC   PO473704  19.824  12.087   5.850
10243POPC   GL173705  19.882  12.052   6.150
10243POPC   GL273706  19.759  12.042   6.150
10243POPC   C1A73707  19.812  12.061   6.450
10243POPC   D2A73708  19.868  12.051   6.750
10243POPC   C3A73709  19.859  12.068   7.050
10243POPC   C4A73710  19.804  12.032   7.350
10243POPC   C1B73711  19.605  12.006   6.450
10243POPC   C2B73712  19.597  11.985   6.750
10243POPC   C3B73713  19.560  12.005   7.050
10243POPC   C4B73714  19.604  12.029   7.350
10244POPC   NC373715   2.007  27.586   5.550
10244POPC   PO473716   2.035  27.614   5.850
10244POPC   GL173717   1.972  27.568   6.150
10244POPC   GL273718   2.003  27.424   6.150
10244POPC   C1A73719   1.983  27.577   6.450
10244POPC   D2A73720   2.005  27.626   6.750
10244POPC   C3A73721   1.971  27.599   7.050
10244POPC   C4A73722   2.012  27.620   7.350
10244POPC   C1B73723   1.988  27.373   6.450
10244POPC   C2B73724   1.940  27.353   6.750
10244POPC   C3B73725   1.963  27.390   7.050
10244POPC   C4B73726   1.983  27.373   7.350
10245POPC   NC373727  15.968  42.367   5.550
10245POPC   PO473728  15.949  42.354   5.850
10245POPC   GL173729  15.935  42.325   6.150
10245POPC   GL273730  16.015  42.424   6.150
10245POPC   C1A73731  15.908  42.331   6.450
10245POPC   D2A73732  15.997  42.352   6.750
10245POPC   C3A73733  15.961  42.359   7.050
10245POPC   C4A73734  15.967  42.293   7.350
10245POPC   C1B73735  16.212  42.505   6.450
10245POPC   C2B73736  16.204  42.500   6.750
10245POPC   C3B73737  16.143  42.511   7.050
10245POPC   C4B73738  16.125  42.433   7.350
10246POPC   NC373739  31.485  35.384   5.550
10246POPC   PO473740  31.455  35.348   5.850
10246POPC   GL173741  31.464  35.399   6.150
10246POPC   GL273742  31.461  35.520   6.150
10246POPC   C1A73743  31.489  35.342   6.450
10246POPC   D2A73744  31.497  35.355   6.750
10246POPC   C3A73745  31.448  35.361   7.050
10246POPC   C4A73746  31.478  35.329   7.350
10246POPC   C1B73747  31.466  35.635   6.450
10246POPC   C2B73748  31.437  35.587   6.750
10246POPC   C3B73749  31.441  35.640   7.050
10246POPC   C4B73750  31.389  35.562   7.350
10247POPC   NC373751  23.760   8.974   5.550
10247POPC   PO473752  23.675   8.961   5.850
10247POPC   GL173753  23.733   8.988   6.150
10247POPC   GL273754  23.651   9.063   6.150
10247POPC   C1A73755  23.725   8.958   6.450
10247POPC   D2A73756  23.673   8.986   6.750
10247POPC   C3A73757  23.704   8.972   7.050
10247POPC   C4A73758  23.747   9.003   7.350
10247POPC   C1B73759  23.496   9.066   6.450
10247POPC   C2B73760  23.497   9.144   6.750
10247POPC   C3B73761  23.463   9.065   7.050
10247POPC   C4B73762  23.541   9.145   7.350
10248POPC   NC373763  43.069   9.017   5.550
10248POPC   PO473764  43.076   8.998   5.850
10248POPC   GL173765  43.140   8.969   6.150
10248POPC   GL273766  43.037   8.958   6.150
10248POPC   C1A73767  43.144   8.977   6.450
10248POPC   D2A73768  43.141   9.011   6.750
10248POPC   C3A73769  43.137   8.949   7.050
10248POPC   C4A73770  43.102   8.955   7.350
10248POPC   C1B73771  42.905   8.870   6.450
10248POPC   C2B73772  42.834   8.942   6.750
10248POPC   C3B73773  42.917   8.881   7.050
10248POPC   C4B73774  42.846   8.925   7.350
10249POPC   NC373775   9.717   5.891   5.550
10249POPC   PO473776   9.709   5.848   5.850
10249POPC   GL173777   9.735   5.836   6.150
10249POPC   GL273778   9.711   5.957   6.150
10249POPC   C1A73779   9.780   5.874   6.450
10249POPC   D2A73780   9.748   5.864   6.750
10249POPC   C3A73781   9.736   5.843   7.050
10249POPC   C4A73782   9.756   5.825   7.350
10249POPC   C1B73783   9.669   6.106   6.450
10249POPC   C2B73784   9.632   6.096   6.750
10249POPC   C3B73785   9.660   6.136   7.050
10249POPC   C4B73786   9.658   6.148   7.350
10250POPC   NC373787  26.782  38.481   5.550
10250POPC   PO473788  26.777  38.439   5.850
10250POPC   GL173789  26.834  38.497   6.150
10250POPC   GL273790  26.647  38.518   6.150
10250POPC   C1A73791  26.815  38.410   6.450
10250POPC   D2A73792  26.775  38.480   6.750
10250POPC   C3A73793  26.808  38.408   7.050
10250POPC   C4A73794  26.820  38.409   7.350
10250POPC   C1B73795  26.571  38.558   6.450
10250POPC   C2B73796  26.602  38.473   6.750
10250POPC   C3B73797  26.582  38.475   7.050
10250POPC   C4B73798  26.574  38.544   7.350
10251POPC   NC373799  22.889  42.358   5.550
10251POPC   PO473800  22.902  42.345   5.850
10251POPC   GL173801  22.964  42.330   6.150
10251POPC   GL273802  22.774  42.299   6.150
10251POPC   C1A73803  22.918  42.344   6.450
10251POPC   D2A73804  22.964  42.371   6.750
10251POPC   C3A73805  22.957  42.353   7.050
10251POPC   C4A73806  22.966  42.361   7.350
10251POPC   C1B73807  22.691  42.334   6.450
10251POPC   C2B73808  22.734  42.366   6.750
10251POPC   C3B73809  22.731  42.282   7.050
10251POPC   C4B73810  22.644  42.368   7.350
10252POPC   NC373811  12.082  38.447   5.550
10252POPC   PO473812  12.042  38.499   5.850
10252POPC   GL173813  12.059  38.476   6.150
10252POPC   GL273814  12.010  38.381   6.150
10252POPC   C1A73815  12.114  38.470   6.450
10252POPC   D2A73816  12.028  38.408   6.750
10252POPC   C3A73817  12.098  38.486   7.050
10252POPC   C4A73818  12.089  38.482   7.350
10252POPC   C1B73819  11.898  38.291   6.450
10252POPC   C2B73820  11.904  38.341   6.750
10252POPC   C3B73821  11.859  38.328   7.050
10252POPC   C4B73822  11.836  38.301   7.350
10253POPC   NC373823  39.958  35.321   5.550
10253POPC   PO473824  39.997  35.355   5.850
10253POPC   GL173825  40.002  35.352   6.150
10253POPC   GL273826  39.881  35.250   6.150
10253POPC   C1A73827  40.022  35.320   6.450
10253POPC   D2A73828  39.982  35.334   6.750
10253POPC   C3A73829  40.017  35.377   7.050
10253POPC   C4A73830  39.991  35.310   7.350
10253POPC   C1B73831  39.805  35.217   6.450
10253POPC   C2B73832  39.849  35.168   6.750
10253POPC   C3B73833  39.825  35.177   7.050
10253POPC   C4B73834  39.834  35.162   7.350
10254POPC   NC373835  22.151  28.349   5.550
10254POPC   PO473836  22.175  28.399   5.850
10254POPC   GL173837  22.197  28.326   6.150
10254POPC   GL273838  22.044  28.354   6.150
10254POPC   C1A73839  22.178  28.320   6.450
10254POPC   D2A73840  22.133  28.329   6.750
10254POPC   C3A73841  22.161  28.386   7.050
10254POPC   C4A73842  22.163  28.409   7.350
10254POPC   C1B73843  21.947  28.401   6.450
10254POPC   C2B73844  21.925  28.440   6.750
10254POPC   C3B73845  21.898  28.432   7.050
10254POPC   C4B73846  21.958  28.449   7.350
10255POPC   NC373847  29.896   1.943   5.550
10255POPC   PO473848  29.963   2.029   5.850
10255POPC   GL173849  29.942   2.012   6.150
10255POPC   GL273850  29.983   2.092   6.150
10255POPC   C1A73851  29.915   2.037   6.450
10255POPC   D2A73852  29.955   2.001   6.750
10255POPC   C3A73853  29.932   2.028   7.050
10255POPC   C4A73854  29.885   1.987   7.350
10255POPC   C1B73855  29.996   2.184   6.450
10255POPC   C2B73856  30.069   2.175   6.750
10255POPC   C3B73857  30.001   2.199   7.050
10255POPC   C4B73858  30.047   2.249   7.350
10256POPC   NC373859   8.244  40.808   5.550
10256POPC   PO473860   8.182  40.750   5.850
10256POPC   GL173861   8.173  40.804   6.150
10256POPC   GL273862   8.216  40.632   6.150
10256POPC   C1A73863   8.171  40.823   6.450
10256POPC   D2A73864   8.179  40.764   6.750
10256POPC   C3A73865   8.158  40.832   7.050
10256POPC   C4A73866   8.207  40.806   7.350
10256POPC   C1B73867   8.314  40.558   6.450
10256POPC   C2B73868   8.321  40.596   6.750
10256POPC   C3B73869   8.304  40.548   7.050
10256POPC   C4B73870   8.335  40.565   7.350
10257POPC   NC373871  30.714  19.815   5.550
10257POPC   PO473872  30.659  19.786   5.850
10257POPC   GL173873  30.733  19.798   6.150
10257POPC   GL273874  30.772  19.907   6.150
10257POPC   C1A73875  30.661  19.815   6.450
10257POPC   D2A73876  30.667  19.808   6.750
10257POPC   C3A73877  30.732  19.810   7.050
10257POPC   C4A73878  30.679  19.794   7.350
10257POPC   C1B73879  30.900  19.989   6.450
10257POPC   C2B73880  30.920  19.998   6.750
10257POPC   C3B73881  30.878  19.998   7.050
10257POPC   C4B73882  30.908  20.015   7.350
10258POPC   NC373883  21.344  12.055   5.550
10258POPC   PO473884  21.342  12.115   5.850
10258POPC   GL173885  21.363  12.074   6.150
10258POPC   GL273886  21.415  11.915   6.150
10258POPC   C1A73887  21.392  12.079   6.450
10258POPC   D2A73888  21.388  12.096   6.750
10258POPC   C3A73889  21.337  12.059   7.050
10258POPC   C4A73890  21.354  12.056   7.350
10258POPC   C1B73891  21.503  11.861   6.450
10258POPC   C2B73892  21.495  11.892   6.750
10258POPC   C3B73893  21.473  11.802   7.050
10258POPC   C4B73894  21.511  11.885   7.350
10259POPC   NC373895  17.491  18.300   5.550
10259POPC   PO473896  17.531  18.241   5.850
10259POPC   GL173897  17.467  18.302   6.150
10259POPC   GL273898  17.585  18.185   6.150
10259POPC   C1A73899  17.543  18.239   6.450
10259POPC   D2A73900  17.473  18.303   6.750
10259POPC   C3A73901  17.463  18.244   7.050
10259POPC   C4A73902  17.521  18.301   7.350
10259POPC   C1B73903  17.536  18.079   6.450
10259POPC   C2B73904  17.557  18.058   6.750
10259POPC   C3B73905  17.552  18.010   7.050
10259POPC   C4B73906  17.597  18.034   7.350
10260POPC   NC373907  26.030  22.191   5.550
10260POPC   PO473908  26.061  22.167   5.850
10260POPC   GL173909  26.017  22.211   6.150
10260POPC   GL273910  26.005  22.015   6.150
10260POPC   C1A73911  26.077  22.116   6.450
10260POPC   D2A73912  26.002  22.183   6.750
10260POPC   C3A73913  26.059  22.189   7.050
10260POPC   C4A73914  26.030  22.199   7.350
10260POPC   C1B73915  25.992  21.871   6.450
10260POPC   C2B73916  25.977  21.917   6.750
10260POPC   C3B73917  25.964  21.951   7.050
10260POPC   C4B73918  26.031  21.902   7.350
10261POPC   NC373919  28.399  25.305   5.550
10261POPC   PO473920  28.386  25.260   5.850
10261POPC   GL173921  28.389  25.272   6.150
10261POPC   GL273922  28.292  25.125   6.150
10261POPC   C1A73923  28.402  25.257   6.450
10261POPC   D2A73924  28.370  25.293   6.750
10261POPC   C3A73925  28.409  25.273   7.050
10261POPC   C4A73926  28.349  25.311   7.350
10261POPC   C1B73927  28.231  24.996   6.450
10261POPC   C2B73928  28.232  25.079   6.750
10261POPC   C3B73929  28.291  25.067   7.050
10261POPC   C4B73930  28.283  25.010   7.350
10262POPC   NC373931   0.466  20.626   5.550
10262POPC   PO473932   0.441  20.568   5.850
10262POPC   GL173933   0.473  20.620   6.150
10262POPC   GL273934   0.401  20.504   6.150
10262POPC   C1A73935   0.424  20.568   6.450
10262POPC   D2A73936   0.390  20.575   6.750
10262POPC   C3A73937   0.441  20.587   7.050
10262POPC   C4A73938   0.481  20.611   7.350
10262POPC   C1B73939   0.351  20.350   6.450
10262POPC   C2B73940   0.277  20.432   6.750
10262POPC   C3B73941   0.309  20.345   7.050
10262POPC   C4B73942   0.368  20.420   7.350
10263POPC   NC373943  39.193  23.680   5.550
10263POPC   PO473944  39.235  23.674   5.850
10263POPC   GL173945  39.206  23.683   6.150
10263POPC   GL273946  39.289  23.649   6.150
10263POPC   C1A73947  39.252  23.681   6.450
10263POPC   D2A73948  39.189  23.696   6.750
10263POPC   C3A73949  39.201  23.714   7.050
10263POPC   C4A73950  39.233  23.670   7.350
10263POPC   C1B73951  39.392  23.540   6.450
10263POPC   C2B73952  39.356  23.514   6.750
10263POPC   C3B73953  39.350  23.479   7.050
10263POPC   C4B73954  39.363  23.462   7.350
10264POPC   NC373955  25.251  11.302   5.550
10264POPC   PO473956  25.224  11.335   5.850
10264POPC   GL173957  25.296  11.264   6.150
10264POPC   GL273958  25.181  11.203   6.150
10264POPC   C1A73959  25.288  11.343   6.450
10264POPC   D2A73960  25.302  11.273   6.750
10264POPC   C3A73961  25.237  11.251   7.050
10264POPC   C4A73962  25.254  11.265   7.350
10264POPC   C1B73963  25.097  11.059   6.450
10264POPC   C2B73964  25.190  11.077   6.750
10264POPC   C3B73965  25.137  11.047   7.050
10264POPC   C4B73966  25.102  11.037   7.350
10265POPC   NC373967   5.123  12.103   5.550
10265POPC   PO473968   5.081  12.086   5.850
10265POPC   GL173969   5.141  12.042   6.150
10265POPC   GL273970   5.003  12.074   6.150
10265POPC   C1A73971   5.079  12.054   6.450
10265POPC   D2A73972   5.090  12.103   6.750
10265POPC   C3A73973   5.122  12.063   7.050
10265POPC   C4A73974   5.113  12.069   7.350
10265POPC   C1B73975   4.876  12.062   6.450
10265POPC   C2B73976   4.869  12.021   6.750
10265POPC   C3B73977   4.870  12.022   7.050
10265POPC   C4B73978   4.869  12.027   7.350
10266POPC   NC373979  36.880   0.464   5.550
10266POPC   PO473980  36.931   0.457   5.850
10266POPC   GL173981  36.901   0.424   6.150
10266POPC   GL273982  36.949   0.284   6.150
10266POPC   C1A73983  36.898   0.463   6.450
10266POPC   D2A73984  36.902   0.418   6.750
10266POPC   C3A73985  36.907   0.451   7.050
10266POPC   C4A73986  36.917   0.447   7.350
10266POPC   C1B73987  36.958   0.175   6.450
10266POPC   C2B73988  36.999   0.230   6.750
10266POPC   C3B73989  36.944   0.177   7.050
10266POPC   C4B73990  36.956   0.170   7.350
10267POPC   NC373991  33.068  22.910   5.550
10267POPC   PO473992  33.049  22.936   5.850
10267POPC   GL173993  32.991  22.945   6.150
10267POPC   GL273994  33.166  22.831   6.150
10267POPC   C1A73995  32.979  22.979   6.450
10267POPC   D2A73996  32.996  22.896   6.750
10267POPC   C3A73997  33.010  22.968   7.050
10267POPC   C4A73998  32.981  22.926   7.350
10267POPC   C1B73999  33.178  22.767   6.450
10267POPC   C2B74000  33.226  22.765   6.750
10267POPC   C3B74001  33.182  22.730   7.050
10267POPC   C4B74002  33.180  22.771   7.350
10268POPC   NC374003  12.090  20.619   5.550
10268POPC   PO474004  12.073  20.587   5.850
10268POPC   GL174005  12.107  20.652   6.150
10268POPC   GL274006  12.196  20.603   6.150
10268POPC   C1A74007  12.039  20.586   6.450
10268POPC   D2A74008  12.061  20.658   6.750
10268POPC   C3A74009  12.067  20.635   7.050
10268POPC   C4A74010  12.078  20.624   7.350
10268POPC   C1B74011  12.311  20.557   6.450
10268POPC   C2B74012  12.272  20.557   6.750
10268POPC   C3B74013  12.292  20.561   7.050
10268POPC   C4B74014  12.312  20.566   7.350
10269POPC   NC374015  21.349   4.322   5.550
10269POPC   PO474016  21.434   4.357   5.850
10269POPC   GL174017  21.407   4.360   6.150
10269POPC   GL274018  21.322   4.447   6.150
10269POPC   C1A74019  21.407   4.321   6.450
10269POPC   D2A74020  21.341   4.294   6.750
10269POPC   C3A74021  21.433   4.283   7.050
10269POPC   C4A74022  21.419   4.287   7.350
10269POPC   C1B74023  21.315   4.581   6.450
10269POPC   C2B74024  21.264   4.528   6.750
10269POPC   C3B74025  21.305   4.557   7.050
10269POPC   C4B74026  21.306   4.596   7.350
10270POPC   NC374027   8.168  36.876   5.550
10270POPC   PO474028   8.246  36.910   5.850
10270POPC   GL174029   8.154  36.938   6.150
10270POPC   GL274030   8.261  36.996   6.150
10270POPC   C1A74031   8.183  36.907   6.450
10270POPC   D2A74032   8.196  36.901   6.750
10270POPC   C3A74033   8.180  36.894   7.050
10270POPC   C4A74034   8.211  36.876   7.350
10270POPC   C1B74035   8.311  37.097   6.450
10270POPC   C2B74036   8.367  37.088   6.750
10270POPC   C3B74037   8.377  37.072   7.050
10270POPC   C4B74038   8.380  37.142   7.350
10271POPC   NC374039  30.744  21.414   5.550
10271POPC   PO474040  30.695  21.398   5.850
10271POPC   GL174041  30.746  21.408   6.150
10271POPC   GL274042  30.789  21.314   6.150
10271POPC   C1A74043  30.741  21.404   6.450
10271POPC   D2A74044  30.735  21.369   6.750
10271POPC   C3A74045  30.654  21.410   7.050
10271POPC   C4A74046  30.675  21.340   7.350
10271POPC   C1B74047  30.822  21.184   6.450
10271POPC   C2B74048  30.871  21.228   6.750
10271POPC   C3B74049  30.860  21.157   7.050
10271POPC   C4B74050  30.850  21.197   7.350
10272POPC   NC374051   7.395  28.410   5.550
10272POPC   PO474052   7.403  28.417   5.850
10272POPC   GL174053   7.444  28.397   6.150
10272POPC   GL274054   7.498  28.364   6.150
10272POPC   C1A74055   7.442  28.362   6.450
10272POPC   D2A74056   7.414  28.390   6.750
10272POPC   C3A74057   7.409  28.355   7.050
10272POPC   C4A74058   7.437  28.324   7.350
10272POPC   C1B74059   7.618  28.296   6.450
10272POPC   C2B74060   7.694  28.323   6.750
10272POPC   C3B74061   7.613  28.314   7.050
10272POPC   C4B74062   7.657  28.260   7.350
10273POPC   NC374063  23.703   6.680   5.550
10273POPC   PO474064  23.760   6.630   5.850
10273POPC   GL174065  23.756   6.637   6.150
10273POPC   GL274066  23.676   6.575   6.150
10273POPC   C1A74067  23.729   6.655   6.450
10273POPC   D2A74068  23.676   6.649   6.750
10273POPC   C3A74069  23.758   6.665   7.050
10273POPC   C4A74070  23.722   6.690   7.350
10273POPC   C1B74071  23.640   6.443   6.450
10273POPC   C2B74072  23.563   6.385   6.750
10273POPC   C3B74073  23.548   6.404   7.050
10273POPC   C4B74074  23.580   6.395   7.350
10274POPC   NC374075  15.922  27.630   5.550
10274POPC   PO474076  15.945  27.632   5.850
10274POPC   GL174077  15.943  27.601   6.150
10274POPC   GL274078  15.829  27.659   6.150
10274POPC   C1A74079  15.958  27.569   6.450
10274POPC   D2A74080  15.975  27.563   6.750
10274POPC   C3A74081  15.944  27.596   7.050
10274POPC   C4A74082  15.965  27.642   7.350
10274POPC   C1B74083  15.782  27.757   6.450
10274POPC   C2B74084  15.715  27.779   6.750
10274POPC   C3B74085  15.792  27.741   7.050
10274POPC   C4B74086  15.804  27.790   7.350
10275POPC   NC374087  37.674  17.515   5.550
10275POPC   PO474088  37.690  17.489   5.850
10275POPC   GL174089  37.666  17.528   6.150
10275POPC   GL274090  37.573  17.507   6.150
10275POPC   C1A74091  37.669  17.496   6.450
10275POPC   D2A74092  37.646  17.484   6.750
10275POPC   C3A74093  37.656  17.477   7.050
10275POPC   C4A74094  37.680  17.523   7.350
10275POPC   C1B74095  37.415  17.442   6.450
10275POPC   C2B74096  37.447  17.478   6.750
10275POPC   C3B74097  37.442  17.395   7.050
10275POPC   C4B74098  37.397  17.455   7.350
10276POPC   NC374099  25.225  24.494   5.550
10276POPC   PO474100  25.315  24.450   5.850
10276POPC   GL174101  25.276  24.512   6.150
10276POPC   GL274102  25.388  24.567   6.150
10276POPC   C1A74103  25.309  24.499   6.450
10276POPC   D2A74104  25.258  24.527   6.750
10276POPC   C3A74105  25.314  24.501   7.050
10276POPC   C4A74106  25.252  24.538   7.350
10276POPC   C1B74107  25.489  24.623   6.450
10276POPC   C2B74108  25.451  24.561   6.750
10276POPC   C3B74109  25.550  24.539   7.050
10276POPC   C4B74110  25.478  24.598   7.350
10277POPC   NC374111   4.301  20.640   5.550
10277POPC   PO474112   4.335  20.630   5.850
10277POPC   GL174113   4.366  20.629   6.150
10277POPC   GL274114   4.297  20.710   6.150
10277POPC   C1A74115   4.349  20.622   6.450
10277POPC   D2A74116   4.351  20.612   6.750
10277POPC   C3A74117   4.344  20.620   7.050
10277POPC   C4A74118   4.342  20.599   7.350
10277POPC   C1B74119   4.242  20.806   6.450
10277POPC   C2B74120   4.221  20.789   6.750
10277POPC   C3B74121   4.215  20.881   7.050
10277POPC   C4B74122   4.222  20.870   7.350
10278POPC   NC374123  15.176  25.225   5.550
10278POPC   PO474124  15.172  25.216   5.850
10278POPC   GL174125  15.150  25.273   6.150
10278POPC   GL274126  15.086  25.276   6.150
10278POPC   C1A74127  15.204  25.272   6.450
10278POPC   D2A74128  15.177  25.297   6.750
10278POPC   C3A74129  15.150  25.310   7.050
10278POPC   C4A74130  15.156  25.309   7.350
10278POPC   C1B74131  14.941  25.160   6.450
10278POPC   C2B74132  14.900  25.214   6.750
10278POPC   C3B74133  14.907  25.197   7.050
10278POPC   C4B74134  14.940  25.175   7.350
10279POPC   NC374135  44.616  26.823   5.550
10279POPC   PO474136  44.656  26.793   5.850
10279POPC   GL174137  44.618  26.850   6.150
10279POPC   GL274138  44.712  26.946   6.150
10279POPC   C1A74139  44.686  26.832   6.450
10279POPC   D2A74140  44.681  26.774   6.750
10279POPC   C3A74141  44.704  26.829   7.050
10279POPC   C4A74142  44.636  26.798   7.350
10279POPC   C1B74143  44.677  27.046   6.450
10279POPC   C2B74144  44.744  27.076   6.750
10279POPC   C3B74145  44.673  27.019   7.050
10279POPC   C4B74146  44.747  27.037   7.350
10280POPC   NC374147   8.957  36.942   5.550
10280POPC   PO474148   8.954  36.940   5.850
10280POPC   GL174149   8.941  36.862   6.150
10280POPC   GL274150   8.852  36.870   6.150
10280POPC   C1A74151   8.966  36.907   6.450
10280POPC   D2A74152   8.937  36.906   6.750
10280POPC   C3A74153   9.003  36.905   7.050
10280POPC   C4A74154   9.006  36.878   7.350
10280POPC   C1B74155   8.770  36.803   6.450
10280POPC   C2B74156   8.773  36.809   6.750
10280POPC   C3B74157   8.774  36.749   7.050
10280POPC   C4B74158   8.785  36.789   7.350
10281POPC   NC374159   4.349  35.313   5.550
10281POPC   PO474160   4.280  35.321   5.850
10281POPC   GL174161   4.322  35.310   6.150
10281POPC   GL274162   4.314  35.266   6.150
10281POPC   C1A74163   4.305  35.347   6.450
10281POPC   D2A74164   4.316  35.397   6.750
10281POPC   C3A74165   4.359  35.375   7.050
10281POPC   C4A74166   4.299  35.342   7.350
10281POPC   C1B74167   4.435  35.146   6.450
10281POPC   C2B74168   4.350  35.114   6.750
10281POPC   C3B74169   4.424  35.130   7.050
10281POPC   C4B74170   4.402  35.152   7.350
10282POPC   NC374171   6.688  10.557   5.550
10282POPC   PO474172   6.694  10.493   5.850
10282POPC   GL174173   6.605  10.555   6.150
10282POPC   GL274174   6.737  10.515   6.150
10282POPC   C1A74175   6.690  10.518   6.450
10282POPC   D2A74176   6.673  10.508   6.750
10282POPC   C3A74177   6.654  10.552   7.050
10282POPC   C4A74178   6.624  10.508   7.350
10282POPC   C1B74179   6.862  10.580   6.450
10282POPC   C2B74180   6.886  10.545   6.750
10282POPC   C3B74181   6.913  10.549   7.050
10282POPC   C4B74182   6.857  10.557   7.350
10283POPC   NC374183  23.740   0.448   5.550
10283POPC   PO474184  23.708   0.400   5.850
10283POPC   GL174185  23.730   0.408   6.150
10283POPC   GL274186  23.778   0.360   6.150
10283POPC   C1A74187  23.706   0.474   6.450
10283POPC   D2A74188  23.696   0.462   6.750
10283POPC   C3A74189  23.706   0.425   7.050
10283POPC   C4A74190  23.722   0.413   7.350
10283POPC   C1B74191  23.935   0.290   6.450
10283POPC   C2B74192  23.936   0.252   6.750
10283POPC   C3B74193  23.934   0.245   7.050
10283POPC   C4B74194  23.881   0.253   7.350
10284POPC   NC374195  17.536  12.088   5.550
10284POPC   PO474196  17.512  12.045   5.850
10284POPC   GL174197  17.538  12.052   6.150
10284POPC   GL274198  17.398  12.063   6.150
10284POPC   C1A74199  17.515  12.099   6.450
10284POPC   D2A74200  17.556  12.089   6.750
10284POPC   C3A74201  17.458  12.040   7.050
10284POPC   C4A74202  17.529  12.062   7.350
10284POPC   C1B74203  17.247  12.012   6.450
10284POPC   C2B74204  17.294  12.029   6.750
10284POPC   C3B74205  17.234  12.066   7.050
10284POPC   C4B74206  17.240  12.081   7.350
10285POPC   NC374207  12.840  11.260   5.550
10285POPC   PO474208  12.819  11.287   5.850
10285POPC   GL174209  12.852  11.335   6.150
10285POPC   GL274210  12.916  11.419   6.150
10285POPC   C1A74211  12.863  11.343   6.450
10285POPC   D2A74212  12.814  11.315   6.750
10285POPC   C3A74213  12.858  11.322   7.050
10285POPC   C4A74214  12.820  11.256   7.350
10285POPC   C1B74215  12.945  11.516   6.450
10285POPC   C2B74216  13.037  11.484   6.750
10285POPC   C3B74217  12.943  11.470   7.050
10285POPC   C4B74218  13.027  11.553   7.350
10286POPC   NC374219   5.113   8.993   5.550
10286POPC   PO474220   5.097   8.940   5.850
10286POPC   GL174221   5.084   8.999   6.150
10286POPC   GL274222   5.189   8.902   6.150
10286POPC   C1A74223   5.096   8.932   6.450
10286POPC   D2A74224   5.103   8.929   6.750
10286POPC   C3A74225   5.068   8.941   7.050
10286POPC   C4A74226   5.076   8.981   7.350
10286POPC   C1B74227   5.291   8.836   6.450
10286POPC   C2B74228   5.355   8.881   6.750
10286POPC   C3B74229   5.338   8.824   7.050
10286POPC   C4B74230   5.285   8.807   7.350
10287POPC   NC374231  15.225  28.348   5.550
10287POPC   PO474232  15.165  28.365   5.850
10287POPC   GL174233  15.145  28.339   6.150
10287POPC   GL274234  15.314  28.407   6.150
10287POPC   C1A74235  15.154  28.338   6.450
10287POPC   D2A74236  15.175  28.354   6.750
10287POPC   C3A74237  15.147  28.354   7.050
10287POPC   C4A74238  15.147  28.391   7.350
10287POPC   C1B74239  15.390  28.431   6.450
10287POPC   C2B74240  15.443  28.413   6.750
10287POPC   C3B74241  15.396  28.467   7.050
10287POPC   C4B74242  15.429  28.467   7.350
10288POPC   NC374243  17.463  16.767   5.550
10288POPC   PO474244  17.484  16.706   5.850
10288POPC   GL174245  17.477  16.762   6.150
10288POPC   GL274246  17.383  16.734   6.150
10288POPC   C1A74247  17.492  16.684   6.450
10288POPC   D2A74248  17.478  16.686   6.750
10288POPC   C3A74249  17.543  16.721   7.050
10288POPC   C4A74250  17.504  16.690   7.350
10288POPC   C1B74251  17.270  16.768   6.450
10288POPC   C2B74252  17.302  16.810   6.750
10288POPC   C3B74253  17.293  16.768   7.050
10288POPC   C4B74254  17.279  16.747   7.350
10289POPC   NC374255   5.829  36.928   5.550
10289POPC   PO474256   5.854  36.879   5.850
10289POPC   GL174257   5.848  36.945   6.150
10289POPC   GL274258   6.001  36.835   6.150
10289POPC   C1A74259   5.857  36.894   6.450
10289POPC   D2A74260   5.864  36.910   6.750
10289POPC   C3A74261   5.882  36.918   7.050
10289POPC   C4A74262   5.847  36.917   7.350
10289POPC   C1B74263   6.102  36.870   6.450
10289POPC   C2B74264   6.078  36.797   6.750
10289POPC   C3B74265   6.081  36.818   7.050
10289POPC   C4B74266   6.146  36.857   7.350
10290POPC   NC374267  26.847  33.769   5.550
10290POPC   PO474268  26.772  33.841   5.850
10290POPC   GL174269  26.859  33.815   6.150
10290POPC   GL274270  26.856  33.627   6.150
10290POPC   C1A74271  26.855  33.807   6.450
10290POPC   D2A74272  26.828  33.767   6.750
10290POPC   C3A74273  26.776  33.820   7.050
10290POPC   C4A74274  26.774  33.821   7.350
10290POPC   C1B74275  26.862  33.501   6.450
10290POPC   C2B74276  26.816  33.590   6.750
10290POPC   C3B74277  26.829  33.549   7.050
10290POPC   C4B74278  26.852  33.600   7.350
10291POPC   NC374279  10.514  39.995   5.550
10291POPC   PO474280  10.564  39.980   5.850
10291POPC   GL174281  10.572  40.021   6.150
10291POPC   GL274282  10.383  40.045   6.150
10291POPC   C1A74283  10.485  40.016   6.450
10291POPC   D2A74284  10.553  40.052   6.750
10291POPC   C3A74285  10.549  40.009   7.050
10291POPC   C4A74286  10.553  39.967   7.350
10291POPC   C1B74287  10.288  40.078   6.450
10291POPC   C2B74288  10.321  40.039   6.750
10291POPC   C3B74289  10.312  40.137   7.050
10291POPC   C4B74290  10.321  40.090   7.350
10292POPC   NC374291  13.627  22.965   5.550
10292POPC   PO474292  13.631  22.949   5.850
10292POPC   GL174293  13.644  22.922   6.150
10292POPC   GL274294  13.524  22.989   6.150
10292POPC   C1A74295  13.642  22.911   6.450
10292POPC   D2A74296  13.623  22.914   6.750
10292POPC   C3A74297  13.613  22.896   7.050
10292POPC   C4A74298  13.590  22.959   7.350
10292POPC   C1B74299  13.434  23.086   6.450
10292POPC   C2B74300  13.458  23.130   6.750
10292POPC   C3B74301  13.427  23.080   7.050
10292POPC   C4B74302  13.463  23.121   7.350
10293POPC   NC374303  22.183  21.394   5.550
10293POPC   PO474304  22.200  21.343   5.850
10293POPC   GL174305  22.136  21.417   6.150
10293POPC   GL274306  22.078  21.310   6.150
10293POPC   C1A74307  22.123  21.416   6.450
10293POPC   D2A74308  22.193  21.347   6.750
10293POPC   C3A74309  22.208  21.367   7.050
10293POPC   C4A74310  22.190  21.351   7.350
10293POPC   C1B74311  21.969  21.231   6.450
10293POPC   C2B74312  22.013  21.201   6.750
10293POPC   C3B74313  21.982  21.243   7.050
10293POPC   C4B74314  21.964  21.270   7.350
10294POPC   NC374315   2.754  16.744   5.550
10294POPC   PO474316   2.738  16.741   5.850
10294POPC   GL174317   2.791  16.753   6.150
10294POPC   GL274318   2.873  16.598   6.150
10294POPC   C1A74319   2.720  16.738   6.450
10294POPC   D2A74320   2.810  16.778   6.750
10294POPC   C3A74321   2.794  16.772   7.050
10294POPC   C4A74322   2.788  16.699   7.350
10294POPC   C1B74323   2.893  16.496   6.450
10294POPC   C2B74324   2.952  16.494   6.750
10294POPC   C3B74325   2.889  16.488   7.050
10294POPC   C4B74326   2.939  16.524   7.350
10295POPC   NC374327  26.847  26.774   5.550
10295POPC   PO474328  26.865  26.861   5.850
10295POPC   GL174329  26.841  26.837   6.150
10295POPC   GL274330  26.895  26.901   6.150
10295POPC   C1A74331  26.852  26.784   6.450
10295POPC   D2A74332  26.820  26.812   6.750
10295POPC   C3A74333  26.845  26.829   7.050
10295POPC   C4A74334  26.864  26.794   7.350
10295POPC   C1B74335  26.957  27.039   6.450
10295POPC   C2B74336  26.937  27.051   6.750
10295POPC   C3B74337  26.938  26.991   7.050
10295POPC   C4B74338  27.010  27.055   7.350
10296POPC   NC374339  19.828  35.391   5.550
10296POPC   PO474340  19.877  35.379   5.850
10296POPC   GL174341  19.793  35.307   6.150
10296POPC   GL274342  19.695  35.256   6.150
10296POPC   C1A74343  19.842  35.387   6.450
10296POPC   D2A74344  19.811  35.396   6.750
10296POPC   C3A74345  19.849  35.383   7.050
10296POPC   C4A74346  19.883  35.378   7.350
10296POPC   C1B74347  19.612  35.166   6.450
10296POPC   C2B74348  19.682  35.207   6.750
10296POPC   C3B74349  19.655  35.188   7.050
10296POPC   C4B74350  19.640  35.144   7.350
10297POPC   NC374351  37.706  43.064   5.550
10297POPC   PO474352  37.660  43.159   5.850
10297POPC   GL174353  37.719  43.113   6.150
10297POPC   GL274354  37.672  43.022   6.150
10297POPC   C1A74355  37.641  43.063   6.450
10297POPC   D2A74356  37.691  43.077   6.750
10297POPC   C3A74357  37.700  43.087   7.050
10297POPC   C4A74358  37.638  43.153   7.350
10297POPC   C1B74359  37.779  42.870   6.450
10297POPC   C2B74360  37.721  42.890   6.750
10297POPC   C3B74361  37.740  42.908   7.050
10297POPC   C4B74362  37.714  42.828   7.350
10298POPC   NC374363  33.847  16.742   5.550
10298POPC   PO474364  33.810  16.694   5.850
10298POPC   GL174365  33.837  16.735   6.150
10298POPC   GL274366  33.963  16.711   6.150
10298POPC   C1A74367  33.824  16.739   6.450
10298POPC   D2A74368  33.784  16.779   6.750
10298POPC   C3A74369  33.761  16.763   7.050
10298POPC   C4A74370  33.801  16.768   7.350
10298POPC   C1B74371  34.059  16.759   6.450
10298POPC   C2B74372  34.090  16.688   6.750
10298POPC   C3B74373  34.098  16.743   7.050
10298POPC   C4B74374  34.004  16.718   7.350
10299POPC   NC374375   4.358  22.127   5.550
10299POPC   PO474376   4.341  22.156   5.850
10299POPC   GL174377   4.295  22.202   6.150
10299POPC   GL274378   4.398  22.016   6.150
10299POPC   C1A74379   4.303  22.137   6.450
10299POPC   D2A74380   4.275  22.156   6.750
10299POPC   C3A74381   4.300  22.134   7.050
10299POPC   C4A74382   4.324  22.185   7.350
10299POPC   C1B74383   4.459  21.900   6.450
10299POPC   C2B74384   4.407  21.931   6.750
10299POPC   C3B74385   4.463  21.924   7.050
10299POPC   C4B74386   4.460  21.974   7.350
10300POPC   NC374387  12.815  33.049   5.550
10300POPC   PO474388  12.825  32.990   5.850
10300POPC   GL174389  12.846  33.003   6.150
10300POPC   GL274390  12.730  33.063   6.150
10300POPC   C1A74391  12.850  33.038   6.450
10300POPC   D2A74392  12.849  33.006   6.750
10300POPC   C3A74393  12.871  33.010   7.050
10300POPC   C4A74394  12.815  33.058   7.350
10300POPC   C1B74395  12.645  33.110   6.450
10300POPC   C2B74396  12.657  33.099   6.750
10300POPC   C3B74397  12.652  33.071   7.050
10300POPC   C4B74398  12.630  33.119   7.350
10301POPC   NC374399  19.855  43.067   5.550
10301POPC   PO474400  19.845  43.112   5.850
10301POPC   GL174401  19.788  43.142   6.150
10301POPC   GL274402  19.703  43.199   6.150
10301POPC   C1A74403  19.811  43.153   6.450
10301POPC   D2A74404  19.827  43.111   6.750
10301POPC   C3A74405  19.861  43.094   7.050
10301POPC   C4A74406  19.884  43.139   7.350
10301POPC   C1B74407  19.653  43.221   6.450
10301POPC   C2B74408  19.630  43.251   6.750
10301POPC   C3B74409  19.661  43.211   7.050
10301POPC   C4B74410  19.630  43.228   7.350
10302POPC   NC374411  10.501  33.775   5.550
10302POPC   PO474412  10.482  33.778   5.850
10302POPC   GL174413  10.506  33.771   6.150
10302POPC   GL274414  10.658  33.799   6.150
10302POPC   C1A74415  10.529  33.823   6.450
10302POPC   D2A74416  10.495  33.847   6.750
10302POPC   C3A74417  10.551  33.836   7.050
10302POPC   C4A74418  10.483  33.797   7.350
10302POPC   C1B74419  10.734  33.754   6.450
10302POPC   C2B74420  10.776  33.691   6.750
10302POPC   C3B74421  10.811  33.781   7.050
10302POPC   C4B74422  10.803  33.762   7.350
10303POPC   NC374423  36.080  40.818   5.550
10303POPC   PO474424  36.171  40.800   5.850
10303POPC   GL174425  36.088  40.821   6.150
10303POPC   GL274426  35.974  40.702   6.150
10303POPC   C1A74427  36.172  40.760   6.450
10303POPC   D2A74428  36.161  40.771   6.750
10303POPC   C3A74429  36.163  40.773   7.050
10303POPC   C4A74430  36.156  40.815   7.350
10303POPC   C1B74431  35.863  40.689   6.450
10303POPC   C2B74432  35.867  40.647   6.750
10303POPC   C3B74433  35.869  40.653   7.050
10303POPC   C4B74434  35.900  40.639   7.350
10304POPC   NC374435  27.609  13.623   5.550
10304POPC   PO474436  27.552  13.606   5.850
10304POPC   GL174437  27.595  13.628   6.150
10304POPC   GL274438  27.649  13.490   6.150
10304POPC   C1A74439  27.632  13.664   6.450
10304POPC   D2A74440  27.601  13.595   6.750
10304POPC   C3A74441  27.583  13.624   7.050
10304POPC   C4A74442  27.590  13.596   7.350
10304POPC   C1B74443  27.732  13.479   6.450
10304POPC   C2B74444  27.740  13.414   6.750
10304POPC   C3B74445  27.752  13.428   7.050
10304POPC   C4B74446  27.803  13.471   7.350
10305POPC   NC374447   1.193  19.026   5.550
10305POPC   PO474448   1.173  19.029   5.850
10305POPC   GL174449   1.244  19.042   6.150
10305POPC   GL274450   1.142  19.150   6.150
10305POPC   C1A74451   1.257  19.107   6.450
10305POPC   D2A74452   1.219  19.078   6.750
10305POPC   C3A74453   1.215  19.033   7.050
10305POPC   C4A74454   1.183  19.064   7.350
10305POPC   C1B74455   1.059  19.307   6.450
10305POPC   C2B74456   1.046  19.273   6.750
10305POPC   C3B74457   1.109  19.311   7.050
10305POPC   C4B74458   1.090  19.251   7.350
10306POPC   NC374459  41.523  44.657   5.550
10306POPC   PO474460  41.582  44.689   5.850
10306POPC   GL174461  41.564  44.672   6.150
10306POPC   GL274462  41.522  44.580   6.150
10306POPC   C1A74463  41.564  44.665   6.450
10306POPC   D2A74464  41.603  44.652   6.750
10306POPC   C3A74465  41.584  44.670   7.050
10306POPC   C4A74466  41.515  44.667   7.350
10306POPC   C1B74467  41.543  44.370   6.450
10306POPC   C2B74468  41.611  44.423   6.750
10306POPC   C3B74469  41.528  44.456   7.050
10306POPC   C4B74470  41.543  44.439   7.350
10307POPC   NC374471  15.972  16.721   5.550
10307POPC   PO474472  15.957  16.724   5.850
10307POPC   GL174473  16.004  16.703   6.150
10307POPC   GL274474  16.024  16.614   6.150
10307POPC   C1A74475  15.987  16.688   6.450
10307POPC   D2A74476  15.952  16.775   6.750
10307POPC   C3A74477  15.986  16.728   7.050
10307POPC   C4A74478  15.914  16.765   7.350
10307POPC   C1B74479  15.967  16.506   6.450
10307POPC   C2B74480  15.992  16.479   6.750
10307POPC   C3B74481  16.021  16.450   7.050
10307POPC   C4B74482  15.966  16.444   7.350
10308POPC   NC374483  26.864  32.289   5.550
10308POPC   PO474484  26.805  32.241   5.850
10308POPC   GL174485  26.857  32.238   6.150
10308POPC   GL274486  26.951  32.336   6.150
10308POPC   C1A74487  26.859  32.281   6.450
10308POPC   D2A74488  26.793  32.296   6.750
10308POPC   C3A74489  26.786  32.204   7.050
10308POPC   C4A74490  26.797  32.254   7.350
10308POPC   C1B74491  26.993  32.375   6.450
10308POPC   C2B74492  26.999  32.393   6.750
10308POPC   C3B74493  26.957  32.430   7.050
10308POPC   C4B74494  27.011  32.446   7.350
10309POPC   NC374495  38.407  38.430   5.550
10309POPC   PO474496  38.463  38.502   5.850
10309POPC   GL174497  38.415  38.420   6.150
10309POPC   GL274498  38.291  38.456   6.150
10309POPC   C1A74499  38.502  38.423   6.450
10309POPC   D2A74500  38.463  38.417   6.750
10309POPC   C3A74501  38.434  38.466   7.050
10309POPC   C4A74502  38.478  38.503   7.350
10309POPC   C1B74503  38.242  38.437   6.450
10309POPC   C2B74504  38.241  38.376   6.750
10309POPC   C3B74505  38.224  38.340   7.050
10309POPC   C4B74506  38.231  38.397   7.350
10310POPC   NC374507  39.272  17.534   5.550
10310POPC   PO474508  39.252  17.482   5.850
10310POPC   GL174509  39.220  17.556   6.150
10310POPC   GL274510  39.172  17.376   6.150
10310POPC   C1A74511  39.275  17.528   6.450
10310POPC   D2A74512  39.212  17.497   6.750
10310POPC   C3A74513  39.192  17.545   7.050
10310POPC   C4A74514  39.191  17.540   7.350
10310POPC   C1B74515  39.176  17.254   6.450
10310POPC   C2B74516  39.187  17.237   6.750
10310POPC   C3B74517  39.200  17.211   7.050
10310POPC   C4B74518  39.203  17.212   7.350
10311POPC   NC374519   9.008  40.004   5.550
10311POPC   PO474520   8.977  39.999   5.850
10311POPC   GL174521   9.022  39.957   6.150
10311POPC   GL274522   9.131  40.058   6.150
10311POPC   C1A74523   8.996  40.046   6.450
10311POPC   D2A74524   9.014  40.056   6.750
10311POPC   C3A74525   8.963  39.966   7.050
10311POPC   C4A74526   8.970  40.027   7.350
10311POPC   C1B74527   9.180  40.098   6.450
10311POPC   C2B74528   9.188  40.100   6.750
10311POPC   C3B74529   9.219  40.063   7.050
10311POPC   C4B74530   9.185  40.093   7.350
10312POPC   NC374531  40.761  28.366   5.550
10312POPC   PO474532  40.785  28.340   5.850
10312POPC   GL174533  40.759  28.370   6.150
10312POPC   GL274534  40.783  28.204   6.150
10312POPC   C1A74535  40.785  28.413   6.450
10312POPC   D2A74536  40.826  28.329   6.750
10312POPC   C3A74537  40.789  28.372   7.050
10312POPC   C4A74538  40.821  28.402   7.350
10312POPC   C1B74539  40.724  28.079   6.450
10312POPC   C2B74540  40.736  28.106   6.750
10312POPC   C3B74541  40.755  28.153   7.050
10312POPC   C4B74542  40.783  28.137   7.350
10313POPC   NC374543  41.509  43.926   5.550
10313POPC   PO474544  41.564  43.935   5.850
10313POPC   GL174545  41.603  43.915   6.150
10313POPC   GL274546  41.676  43.820   6.150
10313POPC   C1A74547  41.584  43.934   6.450
10313POPC   D2A74548  41.539  43.864   6.750
10313POPC   C3A74549  41.525  43.875   7.050
10313POPC   C4A74550  41.528  43.928   7.350
10313POPC   C1B74551  41.773  43.727   6.450
10313POPC   C2B74552  41.773  43.758   6.750
10313POPC   C3B74553  41.731  43.683   7.050
10313POPC   C4B74554  41.709  43.690   7.350
10314POPC   NC374555  25.302  41.511   5.550
10314POPC   PO474556  25.216  41.581   5.850
10314POPC   GL174557  25.251  41.536   6.150
10314POPC   GL274558  25.282  41.475   6.150
10314POPC   C1A74559  25.264  41.542   6.450
10314POPC   D2A74560  25.219  41.608   6.750
10314POPC   C3A74561  25.295  41.576   7.050
10314POPC   C4A74562  25.238  41.608   7.350
10314POPC   C1B74563  25.227  41.332   6.450
10314POPC   C2B74564  25.201  41.336   6.750
10314POPC   C3B74565  25.240  41.296   7.050
10314POPC   C4B74566  25.248  41.278   7.350
10315POPC   NC374567   1.237  22.930   5.550
10315POPC   PO474568   1.251  22.958   5.850
10315POPC   GL174569   1.216  22.977   6.150
10315POPC   GL274570   1.323  22.850   6.150
10315POPC   C1A74571   1.182  22.957   6.450
10315POPC   D2A74572   1.186  22.905   6.750
10315POPC   C3A74573   1.171  22.935   7.050
10315POPC   C4A74574   1.214  22.946   7.350
10315POPC   C1B74575   1.485  22.832   6.450
10315POPC   C2B74576   1.429  22.848   6.750
10315POPC   C3B74577   1.430  22.807   7.050
10315POPC   C4B74578   1.406  22.889   7.350
10316POPC   NC374579   5.886  22.175   5.550
10316POPC   PO474580   5.854  22.205   5.850
10316POPC   GL174581   5.919  22.206   6.150
10316POPC   GL274582   5.708  22.105   6.150
10316POPC   C1A74583   5.834  22.159   6.450
10316POPC   D2A74584   5.821  22.184   6.750
10316POPC   C3A74585   5.885  22.167   7.050
10316POPC   C4A74586   5.843  22.157   7.350
10316POPC   C1B74587   5.637  22.095   6.450
10316POPC   C2B74588   5.621  22.122   6.750
10316POPC   C3B74589   5.635  22.098   7.050
10316POPC   C4B74590   5.580  22.108   7.350
10317POPC   NC374591  21.402  19.056   5.550
10317POPC   PO474592  21.401  19.024   5.850
10317POPC   GL174593  21.432  19.108   6.150
10317POPC   GL274594  21.266  19.141   6.150
10317POPC   C1A74595  21.369  19.011   6.450
10317POPC   D2A74596  21.368  19.093   6.750
10317POPC   C3A74597  21.364  19.037   7.050
10317POPC   C4A74598  21.343  19.075   7.350
10317POPC   C1B74599  21.157  19.172   6.450
10317POPC   C2B74600  21.218  19.210   6.750
10317POPC   C3B74601  21.227  19.217   7.050
10317POPC   C4B74602  21.175  19.152   7.350
10318POPC   NC374603  36.144  26.056   5.550
10318POPC   PO474604  36.164  26.078   5.850
10318POPC   GL174605  36.085  26.067   6.150
10318POPC   GL274606  35.974  26.124   6.150
10318POPC   C1A74607  36.090  26.052   6.450
10318POPC   D2A74608  36.142  26.036   6.750
10318POPC   C3A74609  36.150  25.998   7.050
10318POPC   C4A74610  36.086  26.011   7.350
10318POPC   C1B74611  35.884  26.134   6.450
10318POPC   C2B74612  35.933  26.152   6.750
10318POPC   C3B74613  35.969  26.160   7.050
10318POPC   C4B74614  35.888  26.174   7.350
10319POPC   NC374615  25.296  32.975   5.550
10319POPC   PO474616  25.262  32.991   5.850
10319POPC   GL174617  25.272  33.057   6.150
10319POPC   GL274618  25.313  33.125   6.150
10319POPC   C1A74619  25.233  33.061   6.450
10319POPC   D2A74620  25.277  32.979   6.750
10319POPC   C3A74621  25.256  33.044   7.050
10319POPC   C4A74622  25.239  33.008   7.350
10319POPC   C1B74623  25.449  33.180   6.450
10319POPC   C2B74624  25.418  33.148   6.750
10319POPC   C3B74625  25.499  33.192   7.050
10319POPC   C4B74626  25.485  33.187   7.350
10320POPC   NC374627  15.135   1.990   5.550
10320POPC   PO474628  15.154   2.025   5.850
10320POPC   GL174629  15.182   1.951   6.150
10320POPC   GL274630  15.195   2.138   6.150
10320POPC   C1A74631  15.175   2.017   6.450
10320POPC   D2A74632  15.207   2.011   6.750
10320POPC   C3A74633  15.175   1.976   7.050
10320POPC   C4A74634  15.226   2.038   7.350
10320POPC   C1B74635  15.208   2.210   6.450
10320POPC   C2B74636  15.194   2.199   6.750
10320POPC   C3B74637  15.211   2.227   7.050
10320POPC   C4B74638  15.193   2.223   7.350
10321POPC   NC374639  19.063  22.212   5.550
10321POPC   PO474640  19.054  22.205   5.850
10321POPC   GL174641  19.087  22.134   6.150
10321POPC   GL274642  19.066  22.251   6.150
10321POPC   C1A74643  19.073  22.147   6.450
10321POPC   D2A74644  19.084  22.160   6.750
10321POPC   C3A74645  19.108  22.190   7.050
10321POPC   C4A74646  19.082  22.135   7.350
10321POPC   C1B74647  19.084  22.395   6.450
10321POPC   C2B74648  19.085  22.393   6.750
10321POPC   C3B74649  19.081  22.390   7.050
10321POPC   C4B74650  19.098  22.383   7.350
10322POPC   NC374651  26.007  32.232   5.550
10322POPC   PO474652  26.006  32.275   5.850
10322POPC   GL174653  26.016  32.234   6.150
10322POPC   GL274654  25.996  32.346   6.150
10322POPC   C1A74655  26.003  32.234   6.450
10322POPC   D2A74656  26.037  32.250   6.750
10322POPC   C3A74657  25.999  32.256   7.050
10322POPC   C4A74658  26.088  32.207   7.350
10322POPC   C1B74659  25.993  32.482   6.450
10322POPC   C2B74660  26.037  32.484   6.750
10322POPC   C3B74661  26.053  32.464   7.050
10322POPC   C4B74662  25.982  32.538   7.350
10323POPC   NC374663  23.671  25.278   5.550
10323POPC   PO474664  23.752  25.288   5.850
10323POPC   GL174665  23.683  25.262   6.150
10323POPC   GL274666  23.571  25.346   6.150
10323POPC   C1A74667  23.700  25.250   6.450
10323POPC   D2A74668  23.725  25.265   6.750
10323POPC   C3A74669  23.664  25.291   7.050
10323POPC   C4A74670  23.738  25.246   7.350
10323POPC   C1B74671  23.532  25.453   6.450
10323POPC   C2B74672  23.492  25.427   6.750
10323POPC   C3B74673  23.527  25.398   7.050
10323POPC   C4B74674  23.507  25.467   7.350
10324POPC   NC374675  25.286  42.316   5.550
10324POPC   PO474676  25.238  42.326   5.850
10324POPC   GL174677  25.285  42.358   6.150
10324POPC   GL274678  25.204  42.506   6.150
10324POPC   C1A74679  25.310  42.336   6.450
10324POPC   D2A74680  25.278  42.327   6.750
10324POPC   C3A74681  25.298  42.334   7.050
10324POPC   C4A74682  25.246  42.353   7.350
10324POPC   C1B74683  25.285  42.580   6.450
10324POPC   C2B74684  25.275  42.623   6.750
10324POPC   C3B74685  25.266  42.557   7.050
10324POPC   C4B74686  25.288  42.617   7.350
10325POPC   NC374687  22.118  36.884   5.550
10325POPC   PO474688  22.138  36.883   5.850
10325POPC   GL174689  22.157  36.907   6.150
10325POPC   GL274690  22.283  37.007   6.150
10325POPC   C1A74691  22.151  36.885   6.450
10325POPC   D2A74692  22.178  36.882   6.750
10325POPC   C3A74693  22.149  36.865   7.050
10325POPC   C4A74694  22.143  36.951   7.350
10325POPC   C1B74695  22.417  37.023   6.450
10325POPC   C2B74696  22.368  37.082   6.750
10325POPC   C3B74697  22.420  37.022   7.050
10325POPC   C4B74698  22.398  37.058   7.350
10326POPC   NC374699   8.203  13.671   5.550
10326POPC   PO474700   8.203  13.588   5.850
10326POPC   GL174701   8.152  13.590   6.150
10326POPC   GL274702   8.247  13.756   6.150
10326POPC   C1A74703   8.158  13.603   6.450
10326POPC   D2A74704   8.224  13.587   6.750
10326POPC   C3A74705   8.212  13.640   7.050
10326POPC   C4A74706   8.194  13.614   7.350
10326POPC   C1B74707   8.228  13.828   6.450
10326POPC   C2B74708   8.317  13.911   6.750
10326POPC   C3B74709   8.251  13.839   7.050
10326POPC   C4B74710   8.262  13.905   7.350
10327POPC   NC374711  43.865  31.456   5.550
10327POPC   PO474712  43.871  31.437   5.850
10327POPC   GL174713  43.860  31.522   6.150
10327POPC   GL274714  44.017  31.496   6.150
10327POPC   C1A74715  43.856  31.485   6.450
10327POPC   D2A74716  43.895  31.504   6.750
10327POPC   C3A74717  43.919  31.516   7.050
10327POPC   C4A74718  43.914  31.519   7.350
10327POPC   C1B74719  44.141  31.608   6.450
10327POPC   C2B74720  44.148  31.585   6.750
10327POPC   C3B74721  44.157  31.559   7.050
10327POPC   C4B74722  44.148  31.545   7.350
10328POPC   NC374723  42.366  30.659   5.550
10328POPC   PO474724  42.359  30.652   5.850
10328POPC   GL174725  42.383  30.653   6.150
10328POPC   GL274726  42.452  30.653   6.150
10328POPC   C1A74727  42.317  30.649   6.450
10328POPC   D2A74728  42.358  30.700   6.750
10328POPC   C3A74729  42.324  30.663   7.050
10328POPC   C4A74730  42.360  30.665   7.350
10328POPC   C1B74731  42.591  30.687   6.450
10328POPC   C2B74732  42.584  30.680   6.750
10328POPC   C3B74733  42.589  30.712   7.050
10328POPC   C4B74734  42.632  30.671   7.350
10329POPC   NC374735  44.615  40.736   5.550
10329POPC   PO474736  44.629  40.818   5.850
10329POPC   GL174737  44.622  40.764   6.150
10329POPC   GL274738  44.813  40.823   6.150
10329POPC   C1A74739  44.650  40.779   6.450
10329POPC   D2A74740  44.708  40.831   6.750
10329POPC   C3A74741  44.623  40.771   7.050
10329POPC   C4A74742  44.658  40.808   7.350
10329POPC   C1B74743  44.924  40.945   6.450
10329POPC   C2B74744  44.835  40.943   6.750
10329POPC   C3B74745  44.893  40.883   7.050
10329POPC   C4B74746  44.877  40.933   7.350
10330POPC   NC374747   5.106   5.049   5.550
10330POPC   PO474748   5.059   5.072   5.850
10330POPC   GL174749   5.070   5.111   6.150
10330POPC   GL274750   5.202   5.039   6.150
10330POPC   C1A74751   5.094   5.050   6.450
10330POPC   D2A74752   5.092   5.067   6.750
10330POPC   C3A74753   5.061   5.126   7.050
10330POPC   C4A74754   5.133   5.096   7.350
10330POPC   C1B74755   5.335   5.082   6.450
10330POPC   C2B74756   5.316   5.088   6.750
10330POPC   C3B74757   5.332   5.037   7.050
10330POPC   C4B74758   5.371   5.045   7.350
10331POPC   NC374759   9.010  38.461   5.550
10331POPC   PO474760   8.936  38.427   5.850
10331POPC   GL174761   8.986  38.460   6.150
10331POPC   GL274762   9.137  38.458   6.150
10331POPC   C1A74763   8.967  38.454   6.450
10331POPC   D2A74764   8.932  38.442   6.750
10331POPC   C3A74765   9.008  38.477   7.050
10331POPC   C4A74766   8.953  38.423   7.350
10331POPC   C1B74767   9.262  38.394   6.450
10331POPC   C2B74768   9.224  38.403   6.750
10331POPC   C3B74769   9.250  38.439   7.050
10331POPC   C4B74770   9.187  38.414   7.350
10332POPC   NC374771  41.562  33.767   5.550
10332POPC   PO474772  41.549  33.804   5.850
10332POPC   GL174773  41.565  33.783   6.150
10332POPC   GL274774  41.667  33.759   6.150
10332POPC   C1A74775  41.542  33.836   6.450
10332POPC   D2A74776  41.519  33.775   6.750
10332POPC   C3A74777  41.528  33.830   7.050
10332POPC   C4A74778  41.581  33.756   7.350
10332POPC   C1B74779  41.794  33.591   6.450
10332POPC   C2B74780  41.801  33.666   6.750
10332POPC   C3B74781  41.702  33.629   7.050
10332POPC   C4B74782  41.737  33.654   7.350
10333POPC   NC374783  38.505  16.692   5.550
10333POPC   PO474784  38.419  16.765   5.850
10333POPC   GL174785  38.420  16.761   6.150
10333POPC   GL274786  38.567  16.651   6.150
10333POPC   C1A74787  38.499  16.769   6.450
10333POPC   D2A74788  38.458  16.692   6.750
10333POPC   C3A74789  38.484  16.777   7.050
10333POPC   C4A74790  38.444  16.759   7.350
10333POPC   C1B74791  38.644  16.697   6.450
10333POPC   C2B74792  38.726  16.698   6.750
10333POPC   C3B74793  38.685  16.631   7.050
10333POPC   C4B74794  38.675  16.687   7.350
10334POPC   NC374795   4.270  42.382   5.550
10334POPC   PO474796   4.285  42.294   5.850
10334POPC   GL174797   4.333  42.365   6.150
10334POPC   GL274798   4.478  42.345   6.150
10334POPC   C1A74799   4.347  42.310   6.450
10334POPC   D2A74800   4.358  42.380   6.750
10334POPC   C3A74801   4.347  42.366   7.050
10334POPC   C4A74802   4.352  42.314   7.350
10334POPC   C1B74803   4.589  42.306   6.450
10334POPC   C2B74804   4.582  42.395   6.750
10334POPC   C3B74805   4.612  42.397   7.050
10334POPC   C4B74806   4.588  42.348   7.350
10335POPC   NC374807  39.183  32.975   5.550
10335POPC   PO474808  39.260  33.055   5.850
10335POPC   GL174809  39.271  32.987   6.150
10335POPC   GL274810  39.288  32.916   6.150
10335POPC   C1A74811  39.259  33.069   6.450
10335POPC   D2A74812  39.205  33.036   6.750
10335POPC   C3A74813  39.194  33.071   7.050
10335POPC   C4A74814  39.199  33.025   7.350
10335POPC   C1B74815  39.375  32.765   6.450
10335POPC   C2B74816  39.379  32.773   6.750
10335POPC   C3B74817  39.366  32.816   7.050
10335POPC   C4B74818  39.410  32.769   7.350
10336POPC   NC374819  33.017  27.590   5.550
10336POPC   PO474820  33.032  27.599   5.850
10336POPC   GL174821  33.069  27.565   6.150
10336POPC   GL274822  33.107  27.534   6.150
10336POPC   C1A74823  32.980  27.595   6.450
10336POPC   D2A74824  33.045  27.587   6.750
10336POPC   C3A74825  33.001  27.601   7.050
10336POPC   C4A74826  32.980  27.613   7.350
10336POPC   C1B74827  33.177  27.475   6.450
10336POPC   C2B74828  33.196  27.478   6.750
10336POPC   C3B74829  33.170  27.452   7.050
10336POPC   C4B74830  33.244  27.437   7.350
10337POPC   NC374831  33.768  42.374   5.550
10337POPC   PO474832  33.839  42.289   5.850
10337POPC   GL174833  33.840  42.320   6.150
10337POPC   GL274834  33.701  42.314   6.150
10337POPC   C1A74835  33.771  42.297   6.450
10337POPC   D2A74836  33.762  42.383   6.750
10337POPC   C3A74837  33.757  42.309   7.050
10337POPC   C4A74838  33.803  42.317   7.350
10337POPC   C1B74839  33.556  42.281   6.450
10337POPC   C2B74840  33.584  42.319   6.750
10337POPC   C3B74841  33.557  42.293   7.050
10337POPC   C4B74842  33.597  42.318   7.350
10338POPC   NC374843  14.380  22.968   5.550
10338POPC   PO474844  14.403  22.966   5.850
10338POPC   GL174845  14.447  22.922   6.150
10338POPC   GL274846  14.469  23.063   6.150
10338POPC   C1A74847  14.359  22.913   6.450
10338POPC   D2A74848  14.438  22.895   6.750
10338POPC   C3A74849  14.360  22.970   7.050
10338POPC   C4A74850  14.417  22.962   7.350
10338POPC   C1B74851  14.588  23.117   6.450
10338POPC   C2B74852  14.497  23.172   6.750
10338POPC   C3B74853  14.524  23.174   7.050
10338POPC   C4B74854  14.500  23.107   7.350
10339POPC   NC374855  18.302   4.364   5.550
10339POPC   PO474856  18.264   4.287   5.850
10339POPC   GL174857  18.326   4.341   6.150
10339POPC   GL274858  18.302   4.476   6.150
10339POPC   C1A74859  18.281   4.273   6.450
10339POPC   D2A74860  18.310   4.307   6.750
10339POPC   C3A74861  18.289   4.336   7.050
10339POPC   C4A74862  18.253   4.346   7.350
10339POPC   C1B74863  18.289   4.588   6.450
10339POPC   C2B74864  18.202   4.598   6.750
10339POPC   C3B74865  18.224   4.566   7.050
10339POPC   C4B74866  18.221   4.596   7.350
10340POPC   NC374867  44.671  42.332   5.550
10340POPC   PO474868  44.627  42.324   5.850
10340POPC   GL174869  44.629  42.295   6.150
10340POPC   GL274870  44.661  42.441   6.150
10340POPC   C1A74871  44.678  42.352   6.450
10340POPC   D2A74872  44.624  42.290   6.750
10340POPC   C3A74873  44.644  42.308   7.050
10340POPC   C4A74874  44.682  42.381   7.350
10340POPC   C1B74875  44.626  42.609   6.450
10340POPC   C2B74876  44.708  42.588   6.750
10340POPC   C3B74877  44.665  42.613   7.050
10340POPC   C4B74878  44.685  42.537   7.350
10341POPC   NC374879  17.508   2.036   5.550
10341POPC   PO474880  17.547   2.007   5.850
10341POPC   GL174881  17.548   2.034   6.150
10341POPC   GL274882  17.456   1.821   6.150
10341POPC   C1A74883  17.498   2.035   6.450
10341POPC   D2A74884  17.543   1.984   6.750
10341POPC   C3A74885  17.547   1.993   7.050
10341POPC   C4A74886  17.480   2.037   7.350
10341POPC   C1B74887  17.420   1.739   6.450
10341POPC   C2B74888  17.477   1.721   6.750
10341POPC   C3B74889  17.406   1.771   7.050
10341POPC   C4B74890  17.421   1.702   7.350
10342POPC   NC374891  18.268  43.888   5.550
10342POPC   PO474892  18.305  43.879   5.850
10342POPC   GL174893  18.275  43.892   6.150
10342POPC   GL274894  18.237  43.764   6.150
10342POPC   C1A74895  18.256  43.932   6.450
10342POPC   D2A74896  18.267  43.898   6.750
10342POPC   C3A74897  18.303  43.847   7.050
10342POPC   C4A74898  18.281  43.884   7.350
10342POPC   C1B74899  18.224  43.593   6.450
10342POPC   C2B74900  18.320  43.679   6.750
10342POPC   C3B74901  18.316  43.604   7.050
10342POPC   C4B74902  18.307  43.587   7.350
10343POPC   NC374903  25.231   8.968   5.550
10343POPC   PO474904  25.308   9.014   5.850
10343POPC   GL174905  25.244   9.003   6.150
10343POPC   GL274906  25.246   9.051   6.150
10343POPC   C1A74907  25.303   8.979   6.450
10343POPC   D2A74908  25.269   8.996   6.750
10343POPC   C3A74909  25.271   8.995   7.050
10343POPC   C4A74910  25.251   8.932   7.350
10343POPC   C1B74911  25.203   9.187   6.450
10343POPC   C2B74912  25.267   9.212   6.750
10343POPC   C3B74913  25.199   9.228   7.050
10343POPC   C4B74914  25.283   9.197   7.350
10344POPC   NC374915  12.053  22.200   5.550
10344POPC   PO474916  12.089  22.176   5.850
10344POPC   GL174917  12.070  22.148   6.150
10344POPC   GL274918  12.020  22.306   6.150
10344POPC   C1A74919  12.111  22.151   6.450
10344POPC   D2A74920  12.083  22.183   6.750
10344POPC   C3A74921  12.058  22.168   7.050
10344POPC   C4A74922  12.072  22.177   7.350
10344POPC   C1B74923  12.071  22.413   6.450
10344POPC   C2B74924  11.993  22.367   6.750
10344POPC   C3B74925  12.036  22.379   7.050
10344POPC   C4B74926  12.034  22.388   7.350
10345POPC   NC374927  16.781  26.852   5.550
10345POPC   PO474928  16.751  26.839   5.850
10345POPC   GL174929  16.703  26.862   6.150
10345POPC   GL274930  16.720  26.958   6.150
10345POPC   C1A74931  16.771  26.825   6.450
10345POPC   D2A74932  16.708  26.845   6.750
10345POPC   C3A74933  16.768  26.778   7.050
10345POPC   C4A74934  16.692  26.860   7.350
10345POPC   C1B74935  16.593  27.078   6.450
10345POPC   C2B74936  16.620  26.998   6.750
10345POPC   C3B74937  16.573  27.015   7.050
10345POPC   C4B74938  16.609  27.001   7.350
10346POPC   NC374939  43.149  10.501   5.550
10346POPC   PO474940  43.106  10.519   5.850
10346POPC   GL174941  43.151  10.573   6.150
10346POPC   GL274942  43.281  10.479   6.150
10346POPC   C1A74943  43.117  10.488   6.450
10346POPC   D2A74944  43.073  10.513   6.750
10346POPC   C3A74945  43.084  10.511   7.050
10346POPC   C4A74946  43.077  10.529   7.350
10346POPC   C1B74947  43.398  10.579   6.450
10346POPC   C2B74948  43.311  10.521   6.750
10346POPC   C3B74949  43.343  10.483   7.050
10346POPC   C4B74950  43.393  10.486   7.350
10347POPC   NC374951  17.522  26.075   5.550
10347POPC   PO474952  17.462  26.027   5.850
10347POPC   GL174953  17.515  26.038   6.150
10347POPC   GL274954  17.587  26.103   6.150
10347POPC   C1A74955  17.530  26.041   6.450
10347POPC   D2A74956  17.551  26.046   6.750
10347POPC   C3A74957  17.515  26.072   7.050
10347POPC   C4A74958  17.488  26.000   7.350
10347POPC   C1B74959  17.677  26.206   6.450
10347POPC   C2B74960  17.653  26.245   6.750
10347POPC   C3B74961  17.716  26.239   7.050
10347POPC   C4B74962  17.675  26.168   7.350
10348POPC   NC374963  28.381   7.382   5.550
10348POPC   PO474964  28.415   7.429   5.850
10348POPC   GL174965  28.326   7.447   6.150
10348POPC   GL274966  28.419   7.584   6.150
10348POPC   C1A74967  28.392   7.452   6.450
10348POPC   D2A74968  28.396   7.425   6.750
10348POPC   C3A74969  28.339   7.428   7.050
10348POPC   C4A74970  28.386   7.374   7.350
10348POPC   C1B74971  28.457   7.634   6.450
10348POPC   C2B74972  28.497   7.656   6.750
10348POPC   C3B74973  28.497   7.640   7.050
10348POPC   C4B74974  28.448   7.629   7.350
10349POPC   NC374975  36.161  30.741   5.550
10349POPC   PO474976  36.116  30.664   5.850
10349POPC   GL174977  36.156  30.697   6.150
10349POPC   GL274978  36.190  30.636   6.150
10349POPC   C1A74979  36.169  30.746   6.450
10349POPC   D2A74980  36.156  30.679   6.750
10349POPC   C3A74981  36.149  30.695   7.050
10349POPC   C4A74982  36.105  30.721   7.350
10349POPC   C1B74983  36.342  30.630   6.450
10349POPC   C2B74984  36.329  30.567   6.750
10349POPC   C3B74985  36.321  30.595   7.050
10349POPC   C4B74986  36.380  30.542   7.350
10350POPC   NC374987  32.984  31.456   5.550
10350POPC   PO474988  33.022  31.424   5.850
10350POPC   GL174989  32.980  31.478   6.150
10350POPC   GL274990  33.121  31.435   6.150
10350POPC   C1A74991  33.023  31.494   6.450
10350POPC   D2A74992  33.035  31.513   6.750
10350POPC   C3A74993  32.999  31.481   7.050
10350POPC   C4A74994  33.031  31.456   7.350
10350POPC   C1B74995  33.231  31.437   6.450
10350POPC   C2B74996  33.273  31.490   6.750
10350POPC   C3B74997  33.223  31.491   7.050
10350POPC   C4B74998  33.259  31.465   7.350
10351POPC   NC374999  33.046  33.803   5.550
10351POPC   PO475000  33.056  33.829   5.850
10351POPC   GL175001  33.070  33.805   6.150
10351POPC   GL275002  33.156  33.836   6.150
10351POPC   C1A75003  33.023  33.807   6.450
10351POPC   D2A75004  33.020  33.818   6.750
10351POPC   C3A75005  33.051  33.810   7.050
10351POPC   C4A75006  32.986  33.800   7.350
10351POPC   C1B75007  33.235  33.974   6.450
10351POPC   C2B75008  33.280  33.887   6.750
10351POPC   C3B75009  33.211  33.967   7.050
10351POPC   C4B75010  33.283  33.901   7.350
10352POPC   NC375011  30.700  23.721   5.550
10352POPC   PO475012  30.743  23.734   5.850
10352POPC   GL175013  30.705  23.718   6.150
10352POPC   GL275014  30.688  23.627   6.150
10352POPC   C1A75015  30.649  23.750   6.450
10352POPC   D2A75016  30.652  23.673   6.750
10352POPC   C3A75017  30.652  23.738   7.050
10352POPC   C4A75018  30.744  23.710   7.350
10352POPC   C1B75019  30.601  23.525   6.450
10352POPC   C2B75020  30.562  23.532   6.750
10352POPC   C3B75021  30.605  23.450   7.050
10352POPC   C4B75022  30.572  23.433   7.350
10353POPC   NC375023  12.866  25.219   5.550
10353POPC   PO475024  12.823  25.231   5.850
10353POPC   GL175025  12.835  25.303   6.150
10353POPC   GL275026  12.804  25.341   6.150
10353POPC   C1A75027  12.826  25.217   6.450
10353POPC   D2A75028  12.896  25.295   6.750
10353POPC   C3A75029  12.892  25.315   7.050
10353POPC   C4A75030  12.819  25.225   7.350
10353POPC   C1B75031  12.789  25.491   6.450
10353POPC   C2B75032  12.807  25.495   6.750
10353POPC   C3B75033  12.849  25.537   7.050
10353POPC   C4B75034  12.794  25.517   7.350
10354POPC   NC375035  43.156  27.628   5.550
10354POPC   PO475036  43.128  27.578   5.850
10354POPC   GL175037  43.144  27.629   6.150
10354POPC   GL275038  43.009  27.621   6.150
10354POPC   C1A75039  43.112  27.568   6.450
10354POPC   D2A75040  43.106  27.558   6.750
10354POPC   C3A75041  43.106  27.642   7.050
10354POPC   C4A75042  43.075  27.617   7.350
10354POPC   C1B75043  42.829  27.616   6.450
10354POPC   C2B75044  42.857  27.676   6.750
10354POPC   C3B75045  42.860  27.620   7.050
10354POPC   C4B75046  42.912  27.697   7.350
10355POPC   NC375047  15.177  17.529   5.550
10355POPC   PO475048  15.193  17.497   5.850
10355POPC   GL175049  15.165  17.509   6.150
10355POPC   GL275050  15.285  17.362   6.150
10355POPC   C1A75051  15.198  17.512   6.450
10355POPC   D2A75052  15.176  17.516   6.750
10355POPC   C3A75053  15.133  17.473   7.050
10355POPC   C4A75054  15.220  17.482   7.350
10355POPC   C1B75055  15.316  17.261   6.450
10355POPC   C2B75056  15.335  17.275   6.750
10355POPC   C3B75057  15.292  17.289   7.050
10355POPC   C4B75058  15.351  17.320   7.350
10356POPC   NC375059  32.218   3.581   5.550
10356POPC   PO475060  32.282   3.580   5.850
10356POPC   GL175061  32.223   3.520   6.150
10356POPC   GL275062  32.253   3.666   6.150
10356POPC   C1A75063  32.255   3.524   6.450
10356POPC   D2A75064  32.254   3.506   6.750
10356POPC   C3A75065  32.228   3.526   7.050
10356POPC   C4A75066  32.246   3.590   7.350
10356POPC   C1B75067  32.201   3.748   6.450
10356POPC   C2B75068  32.196   3.827   6.750
10356POPC   C3B75069  32.249   3.780   7.050
10356POPC   C4B75070  32.263   3.789   7.350
10357POPC   NC375071   4.300  15.180   5.550
10357POPC   PO475072   4.364  15.220   5.850
10357POPC   GL175073   4.341  15.213   6.150
10357POPC   GL275074   4.414  15.225   6.150
10357POPC   C1A75075   4.268  15.159   6.450
10357POPC   D2A75076   4.337  15.197   6.750
10357POPC   C3A75077   4.352  15.212   7.050
10357POPC   C4A75078   4.298  15.177   7.350
10357POPC   C1B75079   4.557  15.258   6.450
10357POPC   C2B75080   4.510  15.302   6.750
10357POPC   C3B75081   4.583  15.314   7.050
10357POPC   C4B75082   4.554  15.287   7.350
10358POPC   NC375083  40.026   8.999   5.550
10358POPC   PO475084  40.017   8.980   5.850
10358POPC   GL175085  39.985   8.988   6.150
10358POPC   GL275086  40.048   8.856   6.150
10358POPC   C1A75087  40.039   8.962   6.450
10358POPC   D2A75088  39.987   9.018   6.750
10358POPC   C3A75089  39.983   8.963   7.050
10358POPC   C4A75090  39.976   9.019   7.350
10358POPC   C1B75091  40.053   8.747   6.450
10358POPC   C2B75092  40.023   8.701   6.750
10358POPC   C3B75093  40.025   8.708   7.050
10358POPC   C4B75094  40.058   8.724   7.350
10359POPC   NC375095   0.477  30.679   5.550
10359POPC   PO475096   0.427  30.677   5.850
10359POPC   GL175097   0.485  30.719   6.150
10359POPC   GL275098   0.503  30.771   6.150
10359POPC   C1A75099   0.398  30.681   6.450
10359POPC   D2A75100   0.479  30.702   6.750
10359POPC   C3A75101   0.409  30.648   7.050
10359POPC   C4A75102   0.404  30.731   7.350
10359POPC   C1B75103   0.502  30.985   6.450
10359POPC   C2B75104   0.509  30.942   6.750
10359POPC   C3B75105   0.484  30.977   7.050
10359POPC   C4B75106   0.550  30.944   7.350
10360POPC   NC375107   5.131  43.902   5.550
10360POPC   PO475108   5.118  43.883   5.850
10360POPC   GL175109   5.051  43.849   6.150
10360POPC   GL275110   4.997  43.736   6.150
10360POPC   C1A75111   5.135  43.840   6.450
10360POPC   D2A75112   5.113  43.859   6.750
10360POPC   C3A75113   5.094  43.884   7.050
10360POPC   C4A75114   5.059  43.926   7.350
10360POPC   C1B75115   4.953  43.631   6.450
10360POPC   C2B75116   5.036  43.634   6.750
10360POPC   C3B75117   4.982  43.683   7.050
10360POPC   C4B75118   4.978  43.658   7.350
10361POPC   NC375119  11.340  23.738   5.550
10361POPC   PO475120  11.333  23.681   5.850
10361POPC   GL175121  11.313  23.740   6.150
10361POPC   GL275122  11.448  23.737   6.150
10361POPC   C1A75123  11.298  23.694   6.450
10361POPC   D2A75124  11.302  23.712   6.750
10361POPC   C3A75125  11.321  23.664   7.050
10361POPC   C4A75126  11.295  23.671   7.350
10361POPC   C1B75127  11.501  23.707   6.450
10361POPC   C2B75128  11.578  23.767   6.750
10361POPC   C3B75129  11.544  23.698   7.050
10361POPC   C4B75130  11.505  23.724   7.350
10362POPC   NC375131   7.413   9.014   5.550
10362POPC   PO475132   7.464   8.956   5.850
10362POPC   GL175133   7.434   8.981   6.150
10362POPC   GL275134   7.404   9.067   6.150
10362POPC   C1A75135   7.383   9.021   6.450
10362POPC   D2A75136   7.386   8.990   6.750
10362POPC   C3A75137   7.450   9.008   7.050
10362POPC   C4A75138   7.389   8.959   7.350
10362POPC   C1B75139   7.344   9.177   6.450
10362POPC   C2B75140   7.392   9.263   6.750
10362POPC   C3B75141   7.387   9.247   7.050
10362POPC   C4B75142   7.431   9.261   7.350
10363POPC   NC375143  11.292   6.687   5.550
10363POPC   PO475144  11.347   6.605   5.850
10363POPC   GL175145  11.303   6.661   6.150
10363POPC   GL275146  11.421   6.716   6.150
10363POPC   C1A75147  11.325   6.618   6.450
10363POPC   D2A75148  11.264   6.671   6.750
10363POPC   C3A75149  11.344   6.652   7.050
10363POPC   C4A75150  11.289   6.678   7.350
10363POPC   C1B75151  11.494   6.708   6.450
10363POPC   C2B75152  11.549   6.681   6.750
10363POPC   C3B75153  11.569   6.678   7.050
10363POPC   C4B75154  11.575   6.680   7.350
10364POPC   NC375155  40.804  29.902   5.550
10364POPC   PO475156  40.771  29.969   5.850
10364POPC   GL175157  40.776  29.968   6.150
10364POPC   GL275158  40.832  29.787   6.150
10364POPC   C1A75159  40.766  29.886   6.450
10364POPC   D2A75160  40.747  29.965   6.750
10364POPC   C3A75161  40.807  29.878   7.050
10364POPC   C4A75162  40.761  29.947   7.350
10364POPC   C1B75163  40.925  29.740   6.450
10364POPC   C2B75164  40.938  29.663   6.750
10364POPC   C3B75165  40.875  29.731   7.050
10364POPC   C4B75166  40.920  29.704   7.350
10365POPC   NC375167  38.471  36.924   5.550
10365POPC   PO475168  38.464  36.871   5.850
10365POPC   GL175169  38.415  36.860   6.150
10365POPC   GL275170  38.345  36.855   6.150
10365POPC   C1A75171  38.433  36.910   6.450
10365POPC   D2A75172  38.491  36.908   6.750
10365POPC   C3A75173  38.465  36.914   7.050
10365POPC   C4A75174  38.494  36.914   7.350
10365POPC   C1B75175  38.247  36.919   6.450
10365POPC   C2B75176  38.179  36.871   6.750
10365POPC   C3B75177  38.231  36.907   7.050
10365POPC   C4B75178  38.192  36.917   7.350
10366POPC   NC375179  30.665  12.069   5.550
10366POPC   PO475180  30.679  12.042   5.850
10366POPC   GL175181  30.716  12.094   6.150
10366POPC   GL275182  30.826  12.164   6.150
10366POPC   C1A75183  30.738  12.049   6.450
10366POPC   D2A75184  30.696  12.099   6.750
10366POPC   C3A75185  30.719  12.053   7.050
10366POPC   C4A75186  30.689  12.078   7.350
10366POPC   C1B75187  30.840  12.245   6.450
10366POPC   C2B75188  30.917  12.276   6.750
10366POPC   C3B75189  30.882  12.207   7.050
10366POPC   C4B75190  30.919  12.245   7.350
10367POPC   NC375191   1.993  36.889   5.550
10367POPC   PO475192   1.984  36.906   5.850
10367POPC   GL175193   2.025  36.939   6.150
10367POPC   GL275194   1.988  37.066   6.150
10367POPC   C1A75195   2.032  36.932   6.450
10367POPC   D2A75196   2.006  36.862   6.750
10367POPC   C3A75197   1.987  36.900   7.050
10367POPC   C4A75198   1.944  36.907   7.350
10367POPC   C1B75199   1.943  37.142   6.450
10367POPC   C2B75200   2.033  37.129   6.750
10367POPC   C3B75201   1.943  37.165   7.050
10367POPC   C4B75202   1.980  37.149   7.350
10368POPC   NC375203  32.976   9.760   5.550
10368POPC   PO475204  33.063   9.772   5.850
10368POPC   GL175205  33.047   9.785   6.150
10368POPC   GL275206  33.156   9.791   6.150
10368POPC   C1A75207  32.991   9.722   6.450
10368POPC   D2A75208  32.995   9.757   6.750
10368POPC   C3A75209  33.065   9.722   7.050
10368POPC   C4A75210  33.048   9.766   7.350
10368POPC   C1B75211  33.244   9.904   6.450
10368POPC   C2B75212  33.226   9.915   6.750
10368POPC   C3B75213  33.266   9.849   7.050
10368POPC   C4B75214  33.233   9.878   7.350
10369POPC   NC375215  14.449  27.584   5.550
10369POPC   PO475216  14.397  27.642   5.850
10369POPC   GL175217  14.415  27.613   6.150
10369POPC   GL275218  14.497  27.490   6.150
10369POPC   C1A75219  14.387  27.586   6.450
10369POPC   D2A75220  14.402  27.613   6.750
10369POPC   C3A75221  14.397  27.615   7.050
10369POPC   C4A75222  14.420  27.569   7.350
10369POPC   C1B75223  14.556  27.468   6.450
10369POPC   C2B75224  14.563  27.464   6.750
10369POPC   C3B75225  14.556  27.406   7.050
10369POPC   C4B75226  14.599  27.464   7.350
10370POPC   NC375227  43.135  26.786   5.550
10370POPC   PO475228  43.092  26.809   5.850
10370POPC   GL175229  43.090  26.794   6.150
10370POPC   GL275230  43.045  26.671   6.150
10370POPC   C1A75231  43.138  26.834   6.450
10370POPC   D2A75232  43.150  26.841   6.750
10370POPC   C3A75233  43.099  26.807   7.050
10370POPC   C4A75234  43.129  26.840   7.350
10370POPC   C1B75235  43.075  26.581   6.450
10370POPC   C2B75236  43.017  26.615   6.750
10370POPC   C3B75237  43.064  26.599   7.050
10370POPC   C4B75238  43.020  26.567   7.350
10371POPC   NC375239  13.614  19.035   5.550
10371POPC   PO475240  13.651  19.075   5.850
10371POPC   GL175241  13.637  19.037   6.150
10371POPC   GL275242  13.643  19.165   6.150
10371POPC   C1A75243  13.615  19.091   6.450
10371POPC   D2A75244  13.655  19.027   6.750
10371POPC   C3A75245  13.637  19.066   7.050
10371POPC   C4A75246  13.674  19.060   7.350
10371POPC   C1B75247  13.610  19.335   6.450
10371POPC   C2B75248  13.600  19.343   6.750
10371POPC   C3B75249  13.526  19.334   7.050
10371POPC   C4B75250  13.583  19.276   7.350
10372POPC   NC375251  21.436   5.100   5.550
10372POPC   PO475252  21.346   5.067   5.850
10372POPC   GL175253  21.342   5.046   6.150
10372POPC   GL275254  21.405   4.976   6.150
10372POPC   C1A75255  21.364   5.141   6.450
10372POPC   D2A75256  21.353   5.120   6.750
10372POPC   C3A75257  21.403   5.123   7.050
10372POPC   C4A75258  21.410   5.122   7.350
10372POPC   C1B75259  21.476   4.896   6.450
10372POPC   C2B75260  21.419   4.846   6.750
10372POPC   C3B75261  21.393   4.877   7.050
10372POPC   C4B75262  21.460   4.851   7.350
10373POPC   NC375263  25.295  43.865   5.550
10373POPC   PO475264  25.227  43.929   5.850
10373POPC   GL175265  25.243  43.895   6.150
10373POPC   GL275266  25.400  43.966   6.150
10373POPC   C1A75267  25.236  43.932   6.450
10373POPC   D2A75268  25.305  43.915   6.750
10373POPC   C3A75269  25.309  43.842   7.050
10373POPC   C4A75270  25.292  43.922   7.350
10373POPC   C1B75271  25.518  44.009   6.450
10373POPC   C2B75272  25.454  43.956   6.750
10373POPC   C3B75273  25.504  44.045   7.050
10373POPC   C4B75274  25.529  43.964   7.350
10374POPC   NC375275  12.869  33.797   5.550
10374POPC   PO475276  12.878  33.782   5.850
10374POPC   GL175277  12.860  33.768   6.150
10374POPC   GL275278  12.994  33.700   6.150
10374POPC   C1A75279  12.886  33.808   6.450
10374POPC   D2A75280  12.854  33.766   6.750
10374POPC   C3A75281  12.852  33.758   7.050
10374POPC   C4A75282  12.823  33.811   7.350
10374POPC   C1B75283  13.040  33.645   6.450
10374POPC   C2B75284  13.093  33.621   6.750
10374POPC   C3B75285  13.040  33.663   7.050
10374POPC   C4B75286  13.106  33.715   7.350
10375POPC   NC375287  23.694   5.879   5.550
10375POPC   PO475288  23.664   5.869   5.850
10375POPC   GL175289  23.668   5.875   6.150
10375POPC   GL275290  23.644   5.971   6.150
10375POPC   C1A75291  23.682   5.822   6.450
10375POPC   D2A75292  23.690   5.851   6.750
10375POPC   C3A75293  23.699   5.896   7.050
10375POPC   C4A75294  23.728   5.904   7.350
10375POPC   C1B75295  23.540   6.039   6.450
10375POPC   C2B75296  23.537   6.051   6.750
10375POPC   C3B75297  23.590   6.054   7.050
10375POPC   C4B75298  23.557   6.090   7.350
10376POPC   NC375299  43.127  43.928   5.550
10376POPC   PO475300  43.094  43.840   5.850
10376POPC   GL175301  43.068  43.924   6.150
10376POPC   GL275302  43.230  43.954   6.150
10376POPC   C1A75303  43.073  43.917   6.450
10376POPC   D2A75304  43.145  43.846   6.750
10376POPC   C3A75305  43.083  43.876   7.050
10376POPC   C4A75306  43.104  43.860   7.350
10376POPC   C1B75307  43.226  44.122   6.450
10376POPC   C2B75308  43.271  44.063   6.750
10376POPC   C3B75309  43.237  44.076   7.050
10376POPC   C4B75310  43.299  44.126   7.350
10377POPC   NC375311  22.961  12.887   5.550
10377POPC   PO475312  22.891  12.891   5.850
10377POPC   GL175313  22.962  12.857   6.150
10377POPC   GL275314  22.959  12.705   6.150
10377POPC   C1A75315  22.917  12.850   6.450
10377POPC   D2A75316  22.934  12.871   6.750
10377POPC   C3A75317  22.897  12.894   7.050
10377POPC   C4A75318  22.946  12.844   7.350
10377POPC   C1B75319  23.068  12.590   6.450
10377POPC   C2B75320  22.994  12.648   6.750
10377POPC   C3B75321  23.065  12.577   7.050
10377POPC   C4B75322  23.014  12.572   7.350
10378POPC   NC375323  26.862  20.608   5.550
10378POPC   PO475324  26.832  20.579   5.850
10378POPC   GL175325  26.845  20.588   6.150
10378POPC   GL275326  26.988  20.580   6.150
10378POPC   C1A75327  26.801  20.567   6.450
10378POPC   D2A75328  26.839  20.642   6.750
10378POPC   C3A75329  26.802  20.637   7.050
10378POPC   C4A75330  26.797  20.562   7.350
10378POPC   C1B75331  27.082  20.572   6.450
10378POPC   C2B75332  27.057  20.516   6.750
10378POPC   C3B75333  27.022  20.579   7.050
10378POPC   C4B75334  27.082  20.547   7.350
10379POPC   NC375335  26.039   8.230   5.550
10379POPC   PO475336  26.000   8.159   5.850
10379POPC   GL175337  25.997   8.221   6.150
10379POPC   GL275338  25.954   8.218   6.150
10379POPC   C1A75339  26.088   8.204   6.450
10379POPC   D2A75340  26.013   8.192   6.750
10379POPC   C3A75341  26.026   8.193   7.050
10379POPC   C4A75342  26.081   8.232   7.350
10379POPC   C1B75343  25.756   8.266   6.450
10379POPC   C2B75344  25.747   8.190   6.750
10379POPC   C3B75345  25.754   8.190   7.050
10379POPC   C4B75346  25.809   8.264   7.350
10380POPC   NC375347   8.186  43.845   5.550
10380POPC   PO475348   8.180  43.865   5.850
10380POPC   GL175349   8.225  43.883   6.150
10380POPC   GL275350   8.145  44.002   6.150
10380POPC   C1A75351   8.148  43.918   6.450
10380POPC   D2A75352   8.228  43.922   6.750
10380POPC   C3A75353   8.179  43.909   7.050
10380POPC   C4A75354   8.213  43.916   7.350
10380POPC   C1B75355   8.133  44.094   6.450
10380POPC   C2B75356   8.187  44.094   6.750
10380POPC   C3B75357   8.163  44.114   7.050
10380POPC   C4B75358   8.152  44.173   7.350
10381POPC   NC375359  39.974   0.432   5.550
10381POPC   PO475360  40.021   0.471   5.850
10381POPC   GL175361  39.984   0.403   6.150
10381POPC   GL275362  39.883   0.342   6.150
10381POPC   C1A75363  40.034   0.435   6.450
10381POPC   D2A75364  39.967   0.458   6.750
10381POPC   C3A75365  39.971   0.465   7.050
10381POPC   C4A75366  40.041   0.428   7.350
10381POPC   C1B75367  39.846   0.272   6.450
10381POPC   C2B75368  39.815   0.304   6.750
10381POPC   C3B75369  39.833   0.279   7.050
10381POPC   C4B75370  39.830   0.279   7.350
10382POPC   NC375371   5.866  43.932   5.550
10382POPC   PO475372   5.865  43.849   5.850
10382POPC   GL175373   5.856  43.935   6.150
10382POPC   GL275374   5.959  43.987   6.150
10382POPC   C1A75375   5.844  43.929   6.450
10382POPC   D2A75376   5.901  43.934   6.750
10382POPC   C3A75377   5.889  43.852   7.050
10382POPC   C4A75378   5.821  43.841   7.350
10382POPC   C1B75379   6.065  43.993   6.450
10382POPC   C2B75380   6.049  44.049   6.750
10382POPC   C3B75381   6.060  43.966   7.050
10382POPC   C4B75382   6.110  43.993   7.350
10383POPC   NC375383  24.511  10.528   5.550
10383POPC   PO475384  24.495  10.490   5.850
10383POPC   GL175385  24.463  10.481   6.150
10383POPC   GL275386  24.645  10.481   6.150
10383POPC   C1A75387  24.530  10.563   6.450
10383POPC   D2A75388  24.480  10.499   6.750
10383POPC   C3A75389  24.505  10.548   7.050
10383POPC   C4A75390  24.481  10.490   7.350
10383POPC   C1B75391  24.675  10.384   6.450
10383POPC   C2B75392  24.742  10.436   6.750
10383POPC   C3B75393  24.726  10.379   7.050
10383POPC   C4B75394  24.740  10.428   7.350
10384POPC   NC375395   9.755  36.898   5.550
10384POPC   PO475396   9.715  36.865   5.850
10384POPC   GL175397   9.761  36.915   6.150
10384POPC   GL275398   9.831  36.832   6.150
10384POPC   C1A75399   9.783  36.874   6.450
10384POPC   D2A75400   9.727  36.894   6.750
10384POPC   C3A75401   9.794  36.934   7.050
10384POPC   C4A75402   9.719  36.941   7.350
10384POPC   C1B75403   9.943  36.884   6.450
10384POPC   C2B75404   9.994  36.812   6.750
10384POPC   C3B75405   9.996  36.804   7.050
10384POPC   C4B75406  10.008  36.799   7.350
10385POPC   NC375407   7.439  32.269   5.550
10385POPC   PO475408   7.392  32.286   5.850
10385POPC   GL175409   7.448  32.281   6.150
10385POPC   GL275410   7.336  32.177   6.150
10385POPC   C1A75411   7.431  32.277   6.450
10385POPC   D2A75412   7.464  32.298   6.750
10385POPC   C3A75413   7.387  32.273   7.050
10385POPC   C4A75414   7.409  32.217   7.350
10385POPC   C1B75415   7.239  32.061   6.450
10385POPC   C2B75416   7.231  32.155   6.750
10385POPC   C3B75417   7.168  32.146   7.050
10385POPC   C4B75418   7.182  32.127   7.350
10386POPC   NC375419  26.772  18.239   5.550
10386POPC   PO475420  26.814  18.284   5.850
10386POPC   GL175421  26.845  18.237   6.150
10386POPC   GL275422  26.887  18.398   6.150
10386POPC   C1A75423  26.781  18.304   6.450
10386POPC   D2A75424  26.853  18.292   6.750
10386POPC   C3A75425  26.832  18.238   7.050
10386POPC   C4A75426  26.810  18.265   7.350
10386POPC   C1B75427  26.921  18.487   6.450
10386POPC   C2B75428  26.887  18.489   6.750
10386POPC   C3B75429  26.925  18.514   7.050
10386POPC   C4B75430  26.861  18.515   7.350
10387POPC   NC375431  24.532  44.700   5.550
10387POPC   PO475432  24.466  44.706   5.850
10387POPC   GL175433  24.528  44.680   6.150
10387POPC   GL275434  24.524  44.557   6.150
10387POPC   C1A75435  24.487  44.656   6.450
10387POPC   D2A75436  24.482  44.701   6.750
10387POPC   C3A75437  24.466  44.710   7.050
10387POPC   C4A75438  24.507  44.710   7.350
10387POPC   C1B75439  24.680  44.452   6.450
10387POPC   C2B75440  24.657  44.440   6.750
10387POPC   C3B75441  24.652  44.477   7.050
10387POPC   C4B75442  24.687  44.484   7.350
10388POPC   NC375443  22.978   3.573   5.550
10388POPC   PO475444  22.897   3.507   5.850
10388POPC   GL175445  22.897   3.564   6.150
10388POPC   GL275446  22.913   3.657   6.150
10388POPC   C1A75447  22.914   3.526   6.450
10388POPC   D2A75448  22.910   3.569   6.750
10388POPC   C3A75449  22.953   3.553   7.050
10388POPC   C4A75450  22.969   3.518   7.350
10388POPC   C1B75451  22.823   3.792   6.450
10388POPC   C2B75452  22.834   3.818   6.750
10388POPC   C3B75453  22.901   3.754   7.050
10388POPC   C4B75454  22.889   3.819   7.350
10389POPC   NC375455  33.071  19.092   5.550
10389POPC   PO475456  33.003  19.083   5.850
10389POPC   GL175457  33.070  19.019   6.150
10389POPC   GL275458  33.143  19.060   6.150
10389POPC   C1A75459  33.043  19.013   6.450
10389POPC   D2A75460  33.012  19.080   6.750
10389POPC   C3A75461  32.983  19.064   7.050
10389POPC   C4A75462  33.062  19.038   7.350
10389POPC   C1B75463  33.287  19.016   6.450
10389POPC   C2B75464  33.253  19.010   6.750
10389POPC   C3B75465  33.235  18.956   7.050
10389POPC   C4B75466  33.291  18.918   7.350
10390POPC   NC375467   2.026  24.528   5.550
10390POPC   PO475468   2.029  24.501   5.850
10390POPC   GL175469   2.038  24.466   6.150
10390POPC   GL275470   1.850  24.476   6.150
10390POPC   C1A75471   2.013  24.445   6.450
10390POPC   D2A75472   1.980  24.485   6.750
10390POPC   C3A75473   1.972  24.444   7.050
10390POPC   C4A75474   2.034  24.491   7.350
10390POPC   C1B75475   1.752  24.545   6.450
10390POPC   C2B75476   1.762  24.538   6.750
10390POPC   C3B75477   1.717  24.534   7.050
10390POPC   C4B75478   1.789  24.510   7.350
10391POPC   NC375479  16.713  42.300   5.550
10391POPC   PO475480  16.713  42.297   5.850
10391POPC   GL175481  16.775  42.336   6.150
10391POPC   GL275482  16.868  42.400   6.150
10391POPC   C1A75483  16.756  42.325   6.450
10391POPC   D2A75484  16.706  42.363   6.750
10391POPC   C3A75485  16.689  42.372   7.050
10391POPC   C4A75486  16.719  42.295   7.350
10391POPC   C1B75487  16.891  42.504   6.450
10391POPC   C2B75488  16.904  42.458   6.750
10391POPC   C3B75489  16.953  42.436   7.050
10391POPC   C4B75490  16.917  42.470   7.350
10392POPC   NC375491  19.106   5.127   5.550
10392POPC   PO475492  19.017   5.119   5.850
10392POPC   GL175493  19.085   5.049   6.150
10392POPC   GL275494  19.169   5.162   6.150
10392POPC   C1A75495  19.055   5.103   6.450
10392POPC   D2A75496  19.104   5.052   6.750
10392POPC   C3A75497  19.009   5.088   7.050
10392POPC   C4A75498  19.031   5.079   7.350
10392POPC   C1B75499  19.180   5.244   6.450
10392POPC   C2B75500  19.210   5.305   6.750
10392POPC   C3B75501  19.242   5.270   7.050
10392POPC   C4B75502  19.233   5.327   7.350
10393POPC   NC375503  40.824  40.829   5.550
10393POPC   PO475504  40.762  40.794   5.850
10393POPC   GL175505  40.776  40.774   6.150
10393POPC   GL275506  40.812  40.923   6.150
10393POPC   C1A75507  40.791  40.793   6.450
10393POPC   D2A75508  40.736  40.796   6.750
10393POPC   C3A75509  40.827  40.788   7.050
10393POPC   C4A75510  40.790  40.770   7.350
10393POPC   C1B75511  40.948  40.983   6.450
10393POPC   C2B75512  40.915  40.978   6.750
10393POPC   C3B75513  40.939  40.994   7.050
10393POPC   C4B75514  40.932  40.965   7.350
10394POPC   NC375515   0.408  22.155   5.550
10394POPC   PO475516   0.480  22.212   5.850
10394POPC   GL175517   0.410  22.136   6.150
10394POPC   GL275518   0.584  22.094   6.150
10394POPC   C1A75519   0.457  22.163   6.450
10394POPC   D2A75520   0.476  22.117   6.750
10394POPC   C3A75521   0.478  22.158   7.050
10394POPC   C4A75522   0.412  22.136   7.350
10394POPC   C1B75523   0.622  22.103   6.450
10394POPC   C2B75524   0.629  22.086   6.750
10394POPC   C3B75525   0.637  22.089   7.050
10394POPC   C4B75526   0.648  22.062   7.350
10395POPC   NC375527  19.852  26.855   5.550
10395POPC   PO475528  19.879  26.824   5.850
10395POPC   GL175529  19.862  26.824   6.150
10395POPC   GL275530  19.973  26.750   6.150
10395POPC   C1A75531  19.878  26.843   6.450
10395POPC   D2A75532  19.855  26.788   6.750
10395POPC   C3A75533  19.851  26.831   7.050
10395POPC   C4A75534  19.858  26.844   7.350
10395POPC   C1B75535  20.101  26.753   6.450
10395POPC   C2B75536  20.059  26.734   6.750
10395POPC   C3B75537  20.033  26.707   7.050
10395POPC   C4B75538  20.023  26.705   7.350
10396POPC   NC375539  40.769  24.467   5.550
10396POPC   PO475540  40.789  24.447   5.850
10396POPC   GL175541  40.767  24.487   6.150
10396POPC   GL275542  40.702  24.402   6.150
10396POPC   C1A75543  40.743  24.452   6.450
10396POPC   D2A75544  40.754  24.484   6.750
10396POPC   C3A75545  40.765  24.475   7.050
10396POPC   C4A75546  40.821  24.508   7.350
10396POPC   C1B75547  40.696  24.285   6.450
10396POPC   C2B75548  40.691  24.243   6.750
10396POPC   C3B75549  40.653  24.295   7.050
10396POPC   C4B75550  40.689  24.249   7.350
10397POPC   NC375551  38.498   8.979   5.550
10397POPC   PO475552  38.420   8.948   5.850
10397POPC   GL175553  38.445   9.015   6.150
10397POPC   GL275554  38.523   9.088   6.150
10397POPC   C1A75555  38.442   8.988   6.450
10397POPC   D2A75556  38.454   8.948   6.750
10397POPC   C3A75557  38.429   9.004   7.050
10397POPC   C4A75558  38.415   8.950   7.350
10397POPC   C1B75559  38.674   9.182   6.450
10397POPC   C2B75560  38.600   9.173   6.750
10397POPC   C3B75561  38.684   9.161   7.050
10397POPC   C4B75562  38.678   9.168   7.350
10398POPC   NC375563   2.003  26.034   5.550
10398POPC   PO475564   1.969  26.078   5.850
10398POPC   GL175565   1.999  26.080   6.150
10398POPC   GL275566   1.875  26.129   6.150
10398POPC   C1A75567   1.980  26.073   6.450
10398POPC   D2A75568   2.016  26.031   6.750
10398POPC   C3A75569   1.951  26.082   7.050
10398POPC   C4A75570   2.010  26.063   7.350
10398POPC   C1B75571   1.820  26.229   6.450
10398POPC   C2B75572   1.841  26.246   6.750
10398POPC   C3B75573   1.802  26.234   7.050
10398POPC   C4B75574   1.814  26.262   7.350
10399POPC   NC375575   3.509  31.433   5.550
10399POPC   PO475576   3.577  31.446   5.850
10399POPC   GL175577   3.587  31.433   6.150
10399POPC   GL275578   3.479  31.590   6.150
10399POPC   C1A75579   3.549  31.461   6.450
10399POPC   D2A75580   3.587  31.509   6.750
10399POPC   C3A75581   3.588  31.451   7.050
10399POPC   C4A75582   3.564  31.438   7.350
10399POPC   C1B75583   3.343  31.659   6.450
10399POPC   C2B75584   3.417  31.705   6.750
10399POPC   C3B75585   3.381  31.633   7.050
10399POPC   C4B75586   3.425  31.719   7.350
10400POPC   NC375587  38.457  12.845   5.550
10400POPC   PO475588  38.418  12.840   5.850
10400POPC   GL175589  38.495  12.869   6.150
10400POPC   GL275590  38.510  12.693   6.150
10400POPC   C1A75591  38.440  12.869   6.450
10400POPC   D2A75592  38.410  12.847   6.750
10400POPC   C3A75593  38.480  12.840   7.050
10400POPC   C4A75594  38.483  12.826   7.350
10400POPC   C1B75595  38.576  12.597   6.450
10400POPC   C2B75596  38.613  12.621   6.750
10400POPC   C3B75597  38.573  12.662   7.050
10400POPC   C4B75598  38.622  12.605   7.350
10401POPC   NC375599  44.624  39.248   5.550
10401POPC   PO475600  44.633  39.238   5.850
10401POPC   GL175601  44.658  39.280   6.150
10401POPC   GL275602  44.658  39.120   6.150
10401POPC   C1A75603  44.633  39.260   6.450
10401POPC   D2A75604  44.702  39.244   6.750
10401POPC   C3A75605  44.620  39.240   7.050
10401POPC   C4A75606  44.682  39.210   7.350
10401POPC   C1B75607  44.685  38.942   6.450
10401POPC   C2B75608  44.716  39.002   6.750
10401POPC   C3B75609  44.732  38.951   7.050
10401POPC   C4B75610  44.755  38.980   7.350
10402POPC   NC375611  43.081  37.688   5.550
10402POPC   PO475612  43.118  37.710   5.850
10402POPC   GL175613  43.148  37.697   6.150
10402POPC   GL275614  43.086  37.551   6.150
10402POPC   C1A75615  43.075  37.678   6.450
10402POPC   D2A75616  43.107  37.691   6.750
10402POPC   C3A75617  43.142  37.630   7.050
10402POPC   C4A75618  43.083  37.693   7.350
10402POPC   C1B75619  43.074  37.443   6.450
10402POPC   C2B75620  43.155  37.425   6.750
10402POPC   C3B75621  43.062  37.445   7.050
10402POPC   C4B75622  43.151  37.386   7.350
10403POPC   NC375623   9.713   4.335   5.550
10403POPC   PO475624   9.771   4.310   5.850
10403POPC   GL175625   9.774   4.267   6.150
10403POPC   GL275626   9.735   4.197   6.150
10403POPC   C1A75627   9.705   4.350   6.450
10403POPC   D2A75628   9.744   4.272   6.750
10403POPC   C3A75629   9.786   4.306   7.050
10403POPC   C4A75630   9.732   4.311   7.350
10403POPC   C1B75631   9.688   4.112   6.450
10403POPC   C2B75632   9.712   4.037   6.750
10403POPC   C3B75633   9.729   4.078   7.050
10403POPC   C4B75634   9.727   4.074   7.350
10404POPC   NC375635  19.077   7.417   5.550
10404POPC   PO475636  19.084   7.456   5.850
10404POPC   GL175637  19.108   7.440   6.150
10404POPC   GL275638  18.965   7.449   6.150
10404POPC   C1A75639  19.092   7.403   6.450
10404POPC   D2A75640  19.101   7.374   6.750
10404POPC   C3A75641  19.059   7.408   7.050
10404POPC   C4A75642  19.093   7.423   7.350
10404POPC   C1B75643  18.776   7.531   6.450
10404POPC   C2B75644  18.844   7.446   6.750
10404POPC   C3B75645  18.791   7.472   7.050
10404POPC   C4B75646  18.796   7.469   7.350
10405POPC   NC375647  10.537   6.660   5.550
10405POPC   PO475648  10.510   6.662   5.850
10405POPC   GL175649  10.500   6.660   6.150
10405POPC   GL275650  10.640   6.712   6.150
10405POPC   C1A75651  10.484   6.650   6.450
10405POPC   D2A75652  10.547   6.640   6.750
10405POPC   C3A75653  10.517   6.672   7.050
10405POPC   C4A75654  10.556   6.596   7.350
10405POPC   C1B75655  10.725   6.741   6.450
10405POPC   C2B75656  10.805   6.727   6.750
10405POPC   C3B75657  10.761   6.762   7.050
10405POPC   C4B75658  10.741   6.731   7.350
10406POPC   NC375659  33.067  29.892   5.550
10406POPC   PO475660  33.074  29.942   5.850
10406POPC   GL175661  33.041  29.935   6.150
10406POPC   GL275662  33.130  29.915   6.150
10406POPC   C1A75663  32.975  29.928   6.450
10406POPC   D2A75664  33.040  29.901   6.750
10406POPC   C3A75665  33.040  29.895   7.050
10406POPC   C4A75666  32.997  29.924   7.350
10406POPC   C1B75667  33.236  29.915   6.450
10406POPC   C2B75668  33.311  29.950   6.750
10406POPC   C3B75669  33.316  29.910   7.050
10406POPC   C4B75670  33.297  29.930   7.350
10407POPC   NC375671  25.267  22.910   5.550
10407POPC   PO475672  25.242  22.920   5.850
10407POPC   GL175673  25.267  22.898   6.150
10407POPC   GL275674  25.345  23.017   6.150
10407POPC   C1A75675  25.304  22.983   6.450
10407POPC   D2A75676  25.263  22.917   6.750
10407POPC   C3A75677  25.268  22.907   7.050
10407POPC   C4A75678  25.247  22.952   7.350
10407POPC   C1B75679  25.404  23.083   6.450
10407POPC   C2B75680  25.436  23.152   6.750
10407POPC   C3B75681  25.468  23.165   7.050
10407POPC   C4B75682  25.400  23.158   7.350
10408POPC   NC375683  35.367  15.995   5.550
10408POPC   PO475684  35.378  15.945   5.850
10408POPC   GL175685  35.334  15.943   6.150
10408POPC   GL275686  35.453  15.885   6.150
10408POPC   C1A75687  35.332  15.961   6.450
10408POPC   D2A75688  35.390  15.917   6.750
10408POPC   C3A75689  35.336  15.906   7.050
10408POPC   C4A75690  35.399  15.946   7.350
10408POPC   C1B75691  35.552  15.813   6.450
10408POPC   C2B75692  35.504  15.762   6.750
10408POPC   C3B75693  35.487  15.787   7.050
10408POPC   C4B75694  35.532  15.714   7.350
10409POPC   NC375695  15.183  26.861   5.550
10409POPC   PO475696  15.140  26.796   5.850
10409POPC   GL175697  15.211  26.800   6.150
10409POPC   GL275698  15.078  26.849   6.150
10409POPC   C1A75699  15.174  26.799   6.450
10409POPC   D2A75700  15.171  26.804   6.750
10409POPC   C3A75701  15.228  26.783   7.050
10409POPC   C4A75702  15.135  26.833   7.350
10409POPC   C1B75703  14.965  26.848   6.450
10409POPC   C2B75704  14.934  26.909   6.750
10409POPC   C3B75705  14.971  26.846   7.050
10409POPC   C4B75706  14.935  26.869   7.350
10410POPC   NC375707  22.163   4.340   5.550
10410POPC   PO475708  22.211   4.295   5.850
10410POPC   GL175709  22.186   4.345   6.150
10410POPC   GL275710  22.251   4.234   6.150
10410POPC   C1A75711  22.132   4.346   6.450
10410POPC   D2A75712  22.123   4.339   6.750
10410POPC   C3A75713  22.121   4.365   7.050
10410POPC   C4A75714  22.123   4.303   7.350
10410POPC   C1B75715  22.269   4.039   6.450
10410POPC   C2B75716  22.247   4.116   6.750
10410POPC   C3B75717  22.265   4.109   7.050
10410POPC   C4B75718  22.287   4.061   7.350
10411POPC   NC375719  40.757   1.243   5.550
10411POPC   PO475720  40.788   1.176   5.850
10411POPC   GL175721  40.743   1.196   6.150
10411POPC   GL275722  40.691   1.349   6.150
10411POPC   C1A75723  40.763   1.229   6.450
10411POPC   D2A75724  40.739   1.216   6.750
10411POPC   C3A75725  40.781   1.178   7.050
10411POPC   C4A75726  40.782   1.214   7.350
10411POPC   C1B75727  40.622   1.406   6.450
10411POPC   C2B75728  40.607   1.393   6.750
10411POPC   C3B75729  40.610   1.394   7.050
10411POPC   C4B75730  40.632   1.366   7.350
10412POPC   NC375731  40.762  43.928   5.550
10412POPC   PO475732  40.821  43.935   5.850
10412POPC   GL175733  40.783  43.875   6.150
10412POPC   GL275734  40.840  43.994   6.150
10412POPC   C1A75735  40.815  43.916   6.450
10412POPC   D2A75736  40.825  43.929   6.750
10412POPC   C3A75737  40.767  43.866   7.050
10412POPC   C4A75738  40.790  43.894   7.350
10412POPC   C1B75739  40.876  44.169   6.450
10412POPC   C2B75740  40.846  44.157   6.750
10412POPC   C3B75741  40.893  44.150   7.050
10412POPC   C4B75742  40.905  44.127   7.350
10413POPC   NC375743  29.918  29.882   5.550
10413POPC   PO475744  29.928  29.913   5.850
10413POPC   GL175745  29.943  29.923   6.150
10413POPC   GL275746  29.907  30.053   6.150
10413POPC   C1A75747  29.921  29.937   6.450
10413POPC   D2A75748  29.873  29.883   6.750
10413POPC   C3A75749  29.882  29.873   7.050
10413POPC   C4A75750  29.915  29.963   7.350
10413POPC   C1B75751  29.876  30.210   6.450
10413POPC   C2B75752  29.897  30.167   6.750
10413POPC   C3B75753  29.908  30.140   7.050
10413POPC   C4B75754  29.911  30.157   7.350
10414POPC   NC375755  43.850  39.228   5.550
10414POPC   PO475756  43.866  39.199   5.850
10414POPC   GL175757  43.855  39.182   6.150
10414POPC   GL275758  43.954  39.160   6.150
10414POPC   C1A75759  43.854  39.276   6.450
10414POPC   D2A75760  43.930  39.281   6.750
10414POPC   C3A75761  43.879  39.268   7.050
10414POPC   C4A75762  43.849  39.258   7.350
10414POPC   C1B75763  43.949  38.991   6.450
10414POPC   C2B75764  43.917  38.969   6.750
10414POPC   C3B75765  43.988  39.039   7.050
10414POPC   C4B75766  43.941  38.964   7.350
10415POPC   NC375767  39.982  11.289   5.550
10415POPC   PO475768  40.036  11.347   5.850
10415POPC   GL175769  39.983  11.270   6.150
10415POPC   GL275770  39.913  11.244   6.150
10415POPC   C1A75771  40.024  11.251   6.450
10415POPC   D2A75772  40.028  11.250   6.750
10415POPC   C3A75773  40.053  11.290   7.050
10415POPC   C4A75774  39.981  11.259   7.350
10415POPC   C1B75775  39.824  11.204   6.450
10415POPC   C2B75776  39.749  11.226   6.750
10415POPC   C3B75777  39.814  11.164   7.050
10415POPC   C4B75778  39.739  11.211   7.350
10416POPC   NC375779   8.989   0.411   5.550
10416POPC   PO475780   8.981   0.414   5.850
10416POPC   GL175781   8.929   0.438   6.150
10416POPC   GL275782   8.887   0.577   6.150
10416POPC   C1A75783   8.971   0.464   6.450
10416POPC   D2A75784   8.988   0.415   6.750
10416POPC   C3A75785   9.019   0.438   7.050
10416POPC   C4A75786   8.969   0.458   7.350
10416POPC   C1B75787   8.805   0.591   6.450
10416POPC   C2B75788   8.768   0.653   6.750
10416POPC   C3B75789   8.836   0.668   7.050
10416POPC   C4B75790   8.828   0.644   7.350
10417POPC   NC375791  29.192  43.896   5.550
10417POPC   PO475792  29.167  43.885   5.850
10417POPC   GL175793  29.180  43.883   6.150
10417POPC   GL275794  29.283  43.902   6.150
10417POPC   C1A75795  29.113  43.857   6.450
10417POPC   D2A75796  29.106  43.914   6.750
10417POPC   C3A75797  29.165  43.880   7.050
10417POPC   C4A75798  29.116  43.913   7.350
10417POPC   C1B75799  29.346  43.923   6.450
10417POPC   C2B75800  29.384  43.982   6.750
10417POPC   C3B75801  29.343  44.000   7.050
10417POPC   C4B75802  29.393  44.014   7.350
10418POPC   NC375803   8.204  35.340   5.550
10418POPC   PO475804   8.230  35.336   5.850
10418POPC   GL175805   8.170  35.366   6.150
10418POPC   GL275806   8.049  35.444   6.150
10418POPC   C1A75807   8.205  35.385   6.450
10418POPC   D2A75808   8.218  35.351   6.750
10418POPC   C3A75809   8.236  35.386   7.050
10418POPC   C4A75810   8.204  35.384   7.350
10418POPC   C1B75811   7.977  35.430   6.450
10418POPC   C2B75812   7.988  35.418   6.750
10418POPC   C3B75813   8.023  35.490   7.050
10418POPC   C4B75814   7.975  35.442   7.350
10419POPC   NC375815  42.338   2.020   5.550
10419POPC   PO475816  42.379   1.976   5.850
10419POPC   GL175817  42.321   1.959   6.150
10419POPC   GL275818  42.448   2.067   6.150
10419POPC   C1A75819  42.383   1.962   6.450
10419POPC   D2A75820  42.339   1.953   6.750
10419POPC   C3A75821  42.337   1.942   7.050
10419POPC   C4A75822  42.319   2.037   7.350
10419POPC   C1B75823  42.462   2.181   6.450
10419POPC   C2B75824  42.500   2.203   6.750
10419POPC   C3B75825  42.494   2.166   7.050
10419POPC   C4B75826  42.513   2.193   7.350
10420POPC   NC375827  17.489  41.520   5.550
10420POPC   PO475828  17.545  41.579   5.850
10420POPC   GL175829  17.461  41.599   6.150
10420POPC   GL275830  17.441  41.464   6.150
10420POPC   C1A75831  17.495  41.597   6.450
10420POPC   D2A75832  17.488  41.525   6.750
10420POPC   C3A75833  17.510  41.510   7.050
10420POPC   C4A75834  17.480  41.571   7.350
10420POPC   C1B75835  17.423  41.368   6.450
10420POPC   C2B75836  17.379  41.309   6.750
10420POPC   C3B75837  17.431  41.384   7.050
10420POPC   C4B75838  17.350  41.330   7.350
10421POPC   NC375839  24.463  20.593   5.550
10421POPC   PO475840  24.486  20.583   5.850
10421POPC   GL175841  24.477  20.571   6.150
10421POPC   GL275842  24.324  20.652   6.150
10421POPC   C1A75843  24.486  20.618   6.450
10421POPC   D2A75844  24.472  20.590   6.750
10421POPC   C3A75845  24.511  20.597   7.050
10421POPC   C4A75846  24.499  20.644   7.350
10421POPC   C1B75847  24.221  20.602   6.450
10421POPC   C2B75848  24.208  20.613   6.750
10421POPC   C3B75849  24.217  20.682   7.050
10421POPC   C4B75850  24.221  20.634   7.350
10422POPC   NC375851  27.546   6.675   5.550
10422POPC   PO475852  27.616   6.633   5.850
10422POPC   GL175853  27.612   6.669   6.150
10422POPC   GL275854  27.528   6.666   6.150
10422POPC   C1A75855  27.639   6.620   6.450
10422POPC   D2A75856  27.552   6.625   6.750
10422POPC   C3A75857  27.623   6.684   7.050
10422POPC   C4A75858  27.606   6.686   7.350
10422POPC   C1B75859  27.375   6.728   6.450
10422POPC   C2B75860  27.400   6.702   6.750
10422POPC   C3B75861  27.346   6.758   7.050
10422POPC   C4B75862  27.358   6.771   7.350
10423POPC   NC375863  43.101  11.321   5.550
10423POPC   PO475864  43.084  11.314   5.850
10423POPC   GL175865  43.133  11.297   6.150
10423POPC   GL275866  43.113  11.165   6.150
10423POPC   C1A75867  43.063  11.275   6.450
10423POPC   D2A75868  43.120  11.322   6.750
10423POPC   C3A75869  43.096  11.311   7.050
10423POPC   C4A75870  43.100  11.270   7.350
10423POPC   C1B75871  43.243  11.059   6.450
10423POPC   C2B75872  43.197  11.026   6.750
10423POPC   C3B75873  43.232  11.030   7.050
10423POPC   C4B75874  43.156  11.055   7.350
10424POPC   NC375875  22.155   9.715   5.550
10424POPC   PO475876  22.142   9.775   5.850
10424POPC   GL175877  22.126   9.719   6.150
10424POPC   GL275878  22.038   9.784   6.150
10424POPC   C1A75879  22.122   9.737   6.450
10424POPC   D2A75880  22.165   9.784   6.750
10424POPC   C3A75881  22.119   9.773   7.050
10424POPC   C4A75882  22.140   9.723   7.350
10424POPC   C1B75883  21.873   9.715   6.450
10424POPC   C2B75884  21.887   9.765   6.750
10424POPC   C3B75885  21.910   9.737   7.050
10424POPC   C4B75886  21.933   9.709   7.350
10425POPC   NC375887   9.016   9.717   5.550
10425POPC   PO475888   8.926   9.750   5.850
10425POPC   GL175889   8.939   9.761   6.150
10425POPC   GL275890   9.108   9.812   6.150
10425POPC   C1A75891   8.925   9.796   6.450
10425POPC   D2A75892   8.930   9.737   6.750
10425POPC   C3A75893   8.981   9.728   7.050
10425POPC   C4A75894   8.955   9.782   7.350
10425POPC   C1B75895   9.212   9.897   6.450
10425POPC   C2B75896   9.184   9.909   6.750
10425POPC   C3B75897   9.221   9.846   7.050
10425POPC   C4B75898   9.136   9.940   7.350
10426POPC   NC375899   0.460  40.028   5.550
10426POPC   PO475900   0.481  40.025   5.850
10426POPC   GL175901   0.460  39.986   6.150
10426POPC   GL275902   0.392  39.946   6.150
10426POPC   C1A75903   0.458  39.964   6.450
10426POPC   D2A75904   0.428  39.986   6.750
10426POPC   C3A75905   0.443  40.014   7.050
10426POPC   C4A75906   0.486  39.994   7.350
10426POPC   C1B75907   0.295  39.798   6.450
10426POPC   C2B75908   0.286  39.797   6.750
10426POPC   C3B75909   0.301  39.843   7.050
10426POPC   C4B75910   0.306  39.830   7.350
10427POPC   NC375911  36.868  26.075   5.550
10427POPC   PO475912  36.948  26.032   5.850
10427POPC   GL175913  36.893  26.035   6.150
10427POPC   GL275914  36.775  25.925   6.150
10427POPC   C1A75915  36.880  26.038   6.450
10427POPC   D2A75916  36.899  26.027   6.750
10427POPC   C3A75917  36.936  25.997   7.050
10427POPC   C4A75918  36.892  26.046   7.350
10427POPC   C1B75919  36.727  25.820   6.450
10427POPC   C2B75920  36.711  25.824   6.750
10427POPC   C3B75921  36.722  25.859   7.050
10427POPC   C4B75922  36.742  25.836   7.350
10428POPC   NC375923   6.677  43.124   5.550
10428POPC   PO475924   6.638  43.095   5.850
10428POPC   GL175925   6.672  43.128   6.150
10428POPC   GL275926   6.598  43.256   6.150
10428POPC   C1A75927   6.682  43.121   6.450
10428POPC   D2A75928   6.681  43.131   6.750
10428POPC   C3A75929   6.673  43.068   7.050
10428POPC   C4A75930   6.668  43.156   7.350
10428POPC   C1B75931   6.572  43.319   6.450
10428POPC   C2B75932   6.592  43.398   6.750
10428POPC   C3B75933   6.553  43.393   7.050
10428POPC   C4B75934   6.622  43.320   7.350
10429POPC   NC375935  26.819  27.629   5.550
10429POPC   PO475936  26.829  27.554   5.850
10429POPC   GL175937  26.833  27.552   6.150
10429POPC   GL275938  26.695  27.529   6.150
10429POPC   C1A75939  26.806  27.563   6.450
10429POPC   D2A75940  26.816  27.548   6.750
10429POPC   C3A75941  26.804  27.601   7.050
10429POPC   C4A75942  26.836  27.622   7.350
10429POPC   C1B75943  26.651  27.372   6.450
10429POPC   C2B75944  26.663  27.373   6.750
10429POPC   C3B75945  26.690  27.410   7.050
10429POPC   C4B75946  26.661  27.393   7.350
10430POPC   NC375947  33.807  17.462   5.550
10430POPC   PO475948  33.808  17.521   5.850
10430POPC   GL175949  33.751  17.531   6.150
10430POPC   GL275950  33.875  17.616   6.150
10430POPC   C1A75951  33.760  17.491   6.450
10430POPC   D2A75952  33.845  17.470   6.750
10430POPC   C3A75953  33.761  17.498   7.050
10430POPC   C4A75954  33.785  17.477   7.350
10430POPC   C1B75955  34.056  17.680   6.450
10430POPC   C2B75956  34.049  17.634   6.750
10430POPC   C3B75957  34.012  17.682   7.050
10430POPC   C4B75958  33.974  17.665   7.350
10431POPC   NC375959  40.036   1.201   5.550
10431POPC   PO475960  40.015   1.242   5.850
10431POPC   GL175961  40.053   1.191   6.150
10431POPC   GL275962  40.053   1.310   6.150
10431POPC   C1A75963  40.022   1.260   6.450
10431POPC   D2A75964  40.021   1.206   6.750
10431POPC   C3A75965  40.033   1.252   7.050
10431POPC   C4A75966  39.966   1.258   7.350
10431POPC   C1B75967  40.094   1.467   6.450
10431POPC   C2B75968  40.088   1.435   6.750
10431POPC   C3B75969  40.150   1.405   7.050
10431POPC   C4B75970  40.151   1.394   7.350
10432POPC   NC375971  43.137  33.063   5.550
10432POPC   PO475972  43.125  33.035   5.850
10432POPC   GL175973  43.105  33.040   6.150
10432POPC   GL275974  43.146  32.906   6.150
10432POPC   C1A75975  43.092  32.987   6.450
10432POPC   D2A75976  43.157  32.974   6.750
10432POPC   C3A75977  43.070  33.034   7.050
10432POPC   C4A75978  43.153  33.010   7.350
10432POPC   C1B75979  43.187  32.792   6.450
10432POPC   C2B75980  43.216  32.854   6.750
10432POPC   C3B75981  43.260  32.797   7.050
10432POPC   C4B75982  43.185  32.786   7.350
10433POPC   NC375983  24.510   4.367   5.550
10433POPC   PO475984  24.492   4.364   5.850
10433POPC   GL175985  24.477   4.355   6.150
10433POPC   GL275986  24.329   4.344   6.150
10433POPC   C1A75987  24.539   4.309   6.450
10433POPC   D2A75988  24.478   4.276   6.750
10433POPC   C3A75989  24.462   4.367   7.050
10433POPC   C4A75990  24.491   4.268   7.350
10433POPC   C1B75991  24.233   4.390   6.450
10433POPC   C2B75992  24.250   4.439   6.750
10433POPC   C3B75993  24.224   4.416   7.050
10433POPC   C4B75994  24.246   4.462   7.350
10434POPC   NC375995  23.704  24.440   5.550
10434POPC   PO475996  23.746  24.469   5.850
10434POPC   GL175997  23.730  24.537   6.150
10434POPC   GL275998  23.674  24.656   6.150
10434POPC   C1A75999  23.706  24.465   6.450
10434POPC   D2A76000  23.731  24.452   6.750
10434POPC   C3A76001  23.746  24.528   7.050
10434POPC   C4A76002  23.712  24.497   7.350
10434POPC   C1B76003  23.747  24.754   6.450
10434POPC   C2B76004  23.724  24.713   6.750
10434POPC   C3B76005  23.723  24.729   7.050
10434POPC   C4B76006  23.660  24.785   7.350
10435POPC   NC376007  10.476  15.928   5.550
10435POPC   PO476008  10.498  15.962   5.850
10435POPC   GL176009  10.534  15.939   6.150
10435POPC   GL276010  10.441  15.931   6.150
10435POPC   C1A76011  10.563  15.983   6.450
10435POPC   D2A76012  10.489  15.967   6.750
10435POPC   C3A76013  10.486  15.975   7.050
10435POPC   C4A76014  10.483  15.999   7.350
10435POPC   C1B76015  10.293  15.887   6.450
10435POPC   C2B76016  10.255  15.885   6.750
10435POPC   C3B76017  10.274  15.936   7.050
10435POPC   C4B76018  10.314  15.878   7.350
10436POPC   NC376019  22.147   3.566   5.550
10436POPC   PO476020  22.188   3.585   5.850
10436POPC   GL176021  22.123   3.514   6.150
10436POPC   GL276022  22.271   3.546   6.150
10436POPC   C1A76023  22.124   3.531   6.450
10436POPC   D2A76024  22.192   3.495   6.750
10436POPC   C3A76025  22.184   3.494   7.050
10436POPC   C4A76026  22.122   3.567   7.350
10436POPC   C1B76027  22.392   3.534   6.450
10436POPC   C2B76028  22.406   3.545   6.750
10436POPC   C3B76029  22.439   3.549   7.050
10436POPC   C4B76030  22.392   3.577   7.350
10437POPC   NC376031  15.165  30.746   5.550
10437POPC   PO476032  15.168  30.680   5.850
10437POPC   GL176033  15.164  30.744   6.150
10437POPC   GL276034  15.289  30.725   6.150
10437POPC   C1A76035  15.226  30.652   6.450
10437POPC   D2A76036  15.228  30.738   6.750
10437POPC   C3A76037  15.197  30.715   7.050
10437POPC   C4A76038  15.161  30.702   7.350
10437POPC   C1B76039  15.451  30.815   6.450
10437POPC   C2B76040  15.360  30.801   6.750
10437POPC   C3B76041  15.408  30.767   7.050
10437POPC   C4B76042  15.402  30.794   7.350
10438POPC   NC376043  10.533   2.022   5.550
10438POPC   PO476044  10.546   1.980   5.850
10438POPC   GL176045  10.559   2.025   6.150
10438POPC   GL276046  10.485   1.888   6.150
10438POPC   C1A76047  10.513   1.979   6.450
10438POPC   D2A76048  10.568   2.032   6.750
10438POPC   C3A76049  10.500   1.951   7.050
10438POPC   C4A76050  10.530   1.996   7.350
10438POPC   C1B76051  10.584   1.710   6.450
10438POPC   C2B76052  10.492   1.701   6.750
10438POPC   C3B76053  10.542   1.750   7.050
10438POPC   C4B76054  10.553   1.760   7.350
10439POPC   NC376055   8.974  34.600   5.550
10439POPC   PO476056   9.016  34.561   5.850
10439POPC   GL176057   9.016  34.617   6.150
10439POPC   GL276058   8.914  34.458   6.150
10439POPC   C1A76059   8.966  34.556   6.450
10439POPC   D2A76060   8.957  34.526   6.750
10439POPC   C3A76061   9.001  34.592   7.050
10439POPC   C4A76062   9.015  34.598   7.350
10439POPC   C1B76063   8.826  34.345   6.450
10439POPC   C2B76064   8.867  34.363   6.750
10439POPC   C3B76065   8.850  34.339   7.050
10439POPC   C4B76066   8.856  34.308   7.350
10440POPC   NC376067   8.967  23.732   5.550
10440POPC   PO476068   8.992  23.697   5.850
10440POPC   GL176069   8.935  23.705   6.150
10440POPC   GL276070   8.922  23.814   6.150
10440POPC   C1A76071   8.988  23.716   6.450
10440POPC   D2A76072   9.000  23.692   6.750
10440POPC   C3A76073   8.992  23.703   7.050
10440POPC   C4A76074   8.943  23.700   7.350
10440POPC   C1B76075   8.883  23.997   6.450
10440POPC   C2B76076   8.885  23.972   6.750
10440POPC   C3B76077   8.871  23.930   7.050
10440POPC   C4B76078   8.902  23.986   7.350
10441POPC   NC376079   6.608  32.268   5.550
10441POPC   PO476080   6.672  32.252   5.850
10441POPC   GL176081   6.658  32.252   6.150
10441POPC   GL276082   6.696  32.396   6.150
10441POPC   C1A76083   6.630  32.235   6.450
10441POPC   D2A76084   6.674  32.229   6.750
10441POPC   C3A76085   6.653  32.272   7.050
10441POPC   C4A76086   6.653  32.242   7.350
10441POPC   C1B76087   6.647  32.477   6.450
10441POPC   C2B76088   6.673  32.462   6.750
10441POPC   C3B76089   6.669  32.536   7.050
10441POPC   C4B76090   6.653  32.487   7.350
10442POPC   NC376091  28.417  27.630   5.550
10442POPC   PO476092  28.408  27.574   5.850
10442POPC   GL176093  28.382  27.544   6.150
10442POPC   GL276094  28.385  27.759   6.150
10442POPC   C1A76095  28.410  27.631   6.450
10442POPC   D2A76096  28.410  27.584   6.750
10442POPC   C3A76097  28.329  27.550   7.050
10442POPC   C4A76098  28.370  27.584   7.350
10442POPC   C1B76099  28.355  27.827   6.450
10442POPC   C2B76100  28.310  27.848   6.750
10442POPC   C3B76101  28.298  27.887   7.050
10442POPC   C4B76102  28.379  27.874   7.350
10443POPC   NC376103  15.996  43.925   5.550
10443POPC   PO476104  15.905  43.907   5.850
10443POPC   GL176105  15.963  43.931   6.150
10443POPC   GL276106  15.983  43.779   6.150
10443POPC   C1A76107  15.996  43.918   6.450
10443POPC   D2A76108  15.957  43.894   6.750
10443POPC   C3A76109  15.959  43.859   7.050
10443POPC   C4A76110  15.986  43.874   7.350
10443POPC   C1B76111  16.000  43.641   6.450
10443POPC   C2B76112  15.963  43.673   6.750
10443POPC   C3B76113  15.926  43.626   7.050
10443POPC   C4B76114  15.931  43.634   7.350
10444POPC   NC376115  17.522  25.308   5.550
10444POPC   PO476116  17.471  25.282   5.850
10444POPC   GL176117  17.493  25.280   6.150
10444POPC   GL276118  17.640  25.227   6.150
10444POPC   C1A76119  17.510  25.219   6.450
10444POPC   D2A76120  17.501  25.312   6.750
10444POPC   C3A76121  17.471  25.308   7.050
10444POPC   C4A76122  17.515  25.233   7.350
10444POPC   C1B76123  17.728  25.242   6.450
10444POPC   C2B76124  17.780  25.200   6.750
10444POPC   C3B76125  17.779  25.219   7.050
10444POPC   C4B76126  17.718  25.213   7.350
10445POPC   NC376127  36.135  23.693   5.550
10445POPC   PO476128  36.132  23.678   5.850
10445POPC   GL176129  36.112  23.759   6.150
10445POPC   GL276130  36.039  23.608   6.150
10445POPC   C1A76131  36.136  23.693   6.450
10445POPC   D2A76132  36.132  23.696   6.750
10445POPC   C3A76133  36.153  23.719   7.050
10445POPC   C4A76134  36.095  23.742   7.350
10445POPC   C1B76135  35.921  23.567   6.450
10445POPC   C2B76136  35.918  23.531   6.750
10445POPC   C3B76137  35.964  23.504   7.050
10445POPC   C4B76138  36.000  23.555   7.350
10446POPC   NC376139   4.295  12.892   5.550
10446POPC   PO476140   4.356  12.816   5.850
10446POPC   GL176141   4.277  12.818   6.150
10446POPC   GL276142   4.363  12.724   6.150
10446POPC   C1A76143   4.336  12.843   6.450
10446POPC   D2A76144   4.270  12.835   6.750
10446POPC   C3A76145   4.283  12.886   7.050
10446POPC   C4A76146   4.365  12.808   7.350
10446POPC   C1B76147   4.380  12.583   6.450
10446POPC   C2B76148   4.407  12.629   6.750
10446POPC   C3B76149   4.383  12.583   7.050
10446POPC   C4B76150   4.350  12.633   7.350
10447POPC   NC376151  29.900  43.840   5.550
10447POPC   PO476152  29.932  43.879   5.850
10447POPC   GL176153  29.871  43.928   6.150
10447POPC   GL276154  30.027  43.900   6.150
10447POPC   C1A76155  29.891  43.928   6.450
10447POPC   D2A76156  29.929  43.925   6.750
10447POPC   C3A76157  29.958  43.877   7.050
10447POPC   C4A76158  29.880  43.909   7.350
10447POPC   C1B76159  30.190  43.822   6.450
10447POPC   C2B76160  30.118  43.847   6.750
10447POPC   C3B76161  30.175  43.796   7.050
10447POPC   C4B76162  30.194  43.851   7.350
10448POPC   NC376163  19.026  12.865   5.550
10448POPC   PO476164  19.034  12.895   5.850
10448POPC   GL176165  19.081  12.869   6.150
10448POPC   GL276166  18.961  12.942   6.150
10448POPC   C1A76167  19.014  12.889   6.450
10448POPC   D2A76168  19.028  12.876   6.750
10448POPC   C3A76169  19.056  12.898   7.050
10448POPC   C4A76170  19.080  12.879   7.350
10448POPC   C1B76171  18.833  12.990   6.450
10448POPC   C2B76172  18.798  13.000   6.750
10448POPC   C3B76173  18.894  13.019   7.050
10448POPC   C4B76174  18.882  13.021   7.350
10449POPC   NC376175  38.469  34.546   5.550
10449POPC   PO476176  38.445  34.572   5.850
10449POPC   GL176177  38.488  34.564   6.150
10449POPC   GL276178  38.419  34.481   6.150
10449POPC   C1A76179  38.466  34.570   6.450
10449POPC   D2A76180  38.422  34.585   6.750
10449POPC   C3A76181  38.472  34.540   7.050
10449POPC   C4A76182  38.494  34.547   7.350
10449POPC   C1B76183  38.328  34.398   6.450
10449POPC   C2B76184  38.384  34.345   6.750
10449POPC   C3B76185  38.370  34.317   7.050
10449POPC   C4B76186  38.341  34.385   7.350
10450POPC   NC376187   5.819   8.148   5.550
10450POPC   PO476188   5.856   8.180   5.850
10450POPC   GL176189   5.839   8.160   6.150
10450POPC   GL276190   5.769   8.078   6.150
10450POPC   C1A76191   5.877   8.179   6.450
10450POPC   D2A76192   5.913   8.152   6.750
10450POPC   C3A76193   5.913   8.153   7.050
10450POPC   C4A76194   5.830   8.158   7.350
10450POPC   C1B76195   5.813   7.919   6.450
10450POPC   C2B76196   5.779   7.986   6.750
10450POPC   C3B76197   5.724   7.989   7.050
10450POPC   C4B76198   5.801   7.944   7.350
10451POPC   NC376199  36.124   1.184   5.550
10451POPC   PO476200  36.146   1.194   5.850
10451POPC   GL176201  36.112   1.188   6.150
10451POPC   GL276202  36.107   1.071   6.150
10451POPC   C1A76203  36.108   1.255   6.450
10451POPC   D2A76204  36.146   1.261   6.750
10451POPC   C3A76205  36.129   1.176   7.050
10451POPC   C4A76206  36.102   1.174   7.350
10451POPC   C1B76207  36.052   1.023   6.450
10451POPC   C2B76208  36.029   0.968   6.750
10451POPC   C3B76209  36.034   0.948   7.050
10451POPC   C4B76210  36.024   1.044   7.350
10452POPC   NC376211  36.950  29.106   5.550
10452POPC   PO476212  36.867  29.144   5.850
10452POPC   GL176213  36.912  29.148   6.150
10452POPC   GL276214  36.822  29.145   6.150
10452POPC   C1A76215  36.873  29.131   6.450
10452POPC   D2A76216  36.915  29.169   6.750
10452POPC   C3A76217  36.914  29.164   7.050
10452POPC   C4A76218  36.872  29.112   7.350
10452POPC   C1B76219  36.676  29.101   6.450
10452POPC   C2B76220  36.667  29.095   6.750
10452POPC   C3B76221  36.682  29.113   7.050
10452POPC   C4B76222  36.651  29.054   7.350
10453POPC   NC376223  43.867   6.652   5.550
10453POPC   PO476224  43.925   6.637   5.850
10453POPC   GL176225  43.837   6.639   6.150
10453POPC   GL276226  43.926   6.559   6.150
10453POPC   C1A76227  43.874   6.637   6.450
10453POPC   D2A76228  43.887   6.673   6.750
10453POPC   C3A76229  43.907   6.671   7.050
10453POPC   C4A76230  43.843   6.607   7.350
10453POPC   C1B76231  43.929   6.427   6.450
10453POPC   C2B76232  43.862   6.441   6.750
10453POPC   C3B76233  43.862   6.442   7.050
10453POPC   C4B76234  43.938   6.397   7.350
10454POPC   NC376235  35.315  18.275   5.550
10454POPC   PO476236  35.379  18.300   5.850
10454POPC   GL176237  35.344  18.291   6.150
10454POPC   GL276238  35.248  18.130   6.150
10454POPC   C1A76239  35.340  18.280   6.450
10454POPC   D2A76240  35.397  18.310   6.750
10454POPC   C3A76241  35.358  18.284   7.050
10454POPC   C4A76242  35.374  18.276   7.350
10454POPC   C1B76243  35.202  18.036   6.450
10454POPC   C2B76244  35.210  18.092   6.750
10454POPC   C3B76245  35.208  18.105   7.050
10454POPC   C4B76246  35.189  18.053   7.350
10455POPC   NC376247  31.494   0.445   5.550
10455POPC   PO476248  31.510   0.430   5.850
10455POPC   GL176249  31.488   0.389   6.150
10455POPC   GL276250  31.471   0.299   6.150
10455POPC   C1A76251  31.439   0.467   6.450
10455POPC   D2A76252  31.503   0.458   6.750
10455POPC   C3A76253  31.521   0.395   7.050
10455POPC   C4A76254  31.424   0.474   7.350
10455POPC   C1B76255  31.427   0.217   6.450
10455POPC   C2B76256  31.491   0.148   6.750
10455POPC   C3B76257  31.419   0.236   7.050
10455POPC   C4B76258  31.414   0.152   7.350
10456POPC   NC376259  22.952  18.308   5.550
10456POPC   PO476260  22.913  18.257   5.850
10456POPC   GL176261  22.908  18.263   6.150
10456POPC   GL276262  22.941  18.140   6.150
10456POPC   C1A76263  22.902  18.303   6.450
10456POPC   D2A76264  22.915  18.245   6.750
10456POPC   C3A76265  22.967  18.292   7.050
10456POPC   C4A76266  22.952  18.320   7.350
10456POPC   C1B76267  22.880  18.001   6.450
10456POPC   C2B76268  22.872  18.085   6.750
10456POPC   C3B76269  22.806  18.072   7.050
10456POPC   C4B76270  22.842  18.024   7.350
10457POPC   NC376271  15.229  41.593   5.550
10457POPC   PO476272  15.181  41.548   5.850
10457POPC   GL176273  15.151  41.536   6.150
10457POPC   GL276274  15.276  41.482   6.150
10457POPC   C1A76275  15.199  41.568   6.450
10457POPC   D2A76276  15.199  41.532   6.750
10457POPC   C3A76277  15.134  41.543   7.050
10457POPC   C4A76278  15.164  41.547   7.350
10457POPC   C1B76279  15.382  41.403   6.450
10457POPC   C2B76280  15.371  41.454   6.750
10457POPC   C3B76281  15.361  41.440   7.050
10457POPC   C4B76282  15.377  41.464   7.350
10458POPC   NC376283  44.671  29.150   5.550
10458POPC   PO476284  44.625  29.190   5.850
10458POPC   GL176285  44.658  29.192   6.150
10458POPC   GL276286  44.624  29.280   6.150
10458POPC   C1A76287  44.627  29.178   6.450
10458POPC   D2A76288  44.694  29.108   6.750
10458POPC   C3A76289  44.656  29.165   7.050
10458POPC   C4A76290  44.704  29.151   7.350
10458POPC   C1B76291  44.552  29.369   6.450
10458POPC   C2B76292  44.522  29.348   6.750
10458POPC   C3B76293  44.569  29.389   7.050
10458POPC   C4B76294  44.522  29.416   7.350
10459POPC   NC376295  10.485  28.374   5.550
10459POPC   PO476296  10.488  28.385   5.850
10459POPC   GL176297  10.566  28.395   6.150
10459POPC   GL276298  10.658  28.392   6.150
10459POPC   C1A76299  10.532  28.395   6.450
10459POPC   D2A76300  10.555  28.409   6.750
10459POPC   C3A76301  10.506  28.409   7.050
10459POPC   C4A76302  10.511  28.336   7.350
10459POPC   C1B76303  10.762  28.473   6.450
10459POPC   C2B76304  10.813  28.433   6.750
10459POPC   C3B76305  10.726  28.401   7.050
10459POPC   C4B76306  10.742  28.417   7.350
10460POPC   NC376307  20.591  19.061   5.550
10460POPC   PO476308  20.652  19.096   5.850
10460POPC   GL176309  20.598  19.105   6.150
10460POPC   GL276310  20.653  19.005   6.150
10460POPC   C1A76311  20.607  19.052   6.450
10460POPC   D2A76312  20.617  19.094   6.750
10460POPC   C3A76313  20.657  19.057   7.050
10460POPC   C4A76314  20.604  19.062   7.350
10460POPC   C1B76315  20.783  18.821   6.450
10460POPC   C2B76316  20.767  18.848   6.750
10460POPC   C3B76317  20.715  18.830   7.050
10460POPC   C4B76318  20.710  18.824   7.350
10461POPC   NC376319  40.790  21.401   5.550
10461POPC   PO476320  40.811  21.429   5.850
10461POPC   GL176321  40.810  21.403   6.150
10461POPC   GL276322  40.894  21.348   6.150
10461POPC   C1A76323  40.770  21.427   6.450
10461POPC   D2A76324  40.747  21.403   6.750
10461POPC   C3A76325  40.818  21.378   7.050
10461POPC   C4A76326  40.747  21.380   7.350
10461POPC   C1B76327  41.016  21.340   6.450
10461POPC   C2B76328  41.047  21.351   6.750
10461POPC   C3B76329  41.035  21.363   7.050
10461POPC   C4B76330  41.053  21.319   7.350
10462POPC   NC376331  25.308  37.681   5.550
10462POPC   PO476332  25.219  37.702   5.850
10462POPC   GL176333  25.310  37.699   6.150
10462POPC   GL276334  25.122  37.757   6.150
10462POPC   C1A76335  25.232  37.700   6.450
10462POPC   D2A76336  25.246  37.719   6.750
10462POPC   C3A76337  25.286  37.662   7.050
10462POPC   C4A76338  25.298  37.668   7.350
10462POPC   C1B76339  25.078  37.747   6.450
10462POPC   C2B76340  25.078  37.790   6.750
10462POPC   C3B76341  25.026  37.794   7.050
10462POPC   C4B76342  25.029  37.749   7.350
10463POPC   NC376343  15.209  29.969   5.550
10463POPC   PO476344  15.142  29.909   5.850
10463POPC   GL176345  15.210  29.956   6.150
10463POPC   GL276346  15.165  30.074   6.150
10463POPC   C1A76347  15.170  29.958   6.450
10463POPC   D2A76348  15.169  29.878   6.750
10463POPC   C3A76349  15.131  29.949   7.050
10463POPC   C4A76350  15.224  29.942   7.350
10463POPC   C1B76351  15.278  30.151   6.450
10463POPC   C2B76352  15.272  30.183   6.750
10463POPC   C3B76353  15.270  30.153   7.050
10463POPC   C4B76354  15.250  30.180   7.350
10464POPC   NC376355  40.008  24.510   5.550
10464POPC   PO476356  39.961  24.440   5.850
10464POPC   GL176357  40.014  24.539   6.150
10464POPC   GL276358  40.133  24.493   6.150
10464POPC   C1A76359  40.044  24.440   6.450
10464POPC   D2A76360  39.971  24.470   6.750
10464POPC   C3A76361  40.023  24.442   7.050
10464POPC   C4A76362  40.006  24.511   7.350
10464POPC   C1B76363  40.212  24.347   6.450
10464POPC   C2B76364  40.237  24.373   6.750
10464POPC   C3B76365  40.277  24.443   7.050
10464POPC   C4B76366  40.250  24.374   7.350
10465POPC   NC376367   8.991  21.435   5.550
10465POPC   PO476368   9.008  21.420   5.850
10465POPC   GL176369   9.002  21.377   6.150
10465POPC   GL276370   8.900  21.458   6.150
10465POPC   C1A76371   8.940  21.420   6.450
10465POPC   D2A76372   8.966  21.364   6.750
10465POPC   C3A76373   8.936  21.387   7.050
10465POPC   C4A76374   9.015  21.396   7.350
10465POPC   C1B76375   8.838  21.622   6.450
10465POPC   C2B76376   8.801  21.627   6.750
10465POPC   C3B76377   8.869  21.637   7.050
10465POPC   C4B76378   8.816  21.637   7.350
10466POPC   NC376379  10.515  36.096   5.550
10466POPC   PO476380  10.508  36.113   5.850
10466POPC   GL176381  10.487  36.142   6.150
10466POPC   GL276382  10.624  36.204   6.150
10466POPC   C1A76383  10.567  36.154   6.450
10466POPC   D2A76384  10.569  36.136   6.750
10466POPC   C3A76385  10.502  36.105   7.050
10466POPC   C4A76386  10.517  36.157   7.350
10466POPC   C1B76387  10.720  36.179   6.450
10466POPC   C2B76388  10.731  36.270   6.750
10466POPC   C3B76389  10.739  36.256   7.050
10466POPC   C4B76390  10.734  36.262   7.350
10467POPC   NC376391   5.882  32.251   5.550
10467POPC   PO476392   5.886  32.250   5.850
10467POPC   GL176393   5.873  32.268   6.150
10467POPC   GL276394   5.809  32.113   6.150
10467POPC   C1A76395   5.835  32.251   6.450
10467POPC   D2A76396   5.900  32.257   6.750
10467POPC   C3A76397   5.879  32.240   7.050
10467POPC   C4A76398   5.831  32.200   7.350
10467POPC   C1B76399   5.731  32.026   6.450
10467POPC   C2B76400   5.724  32.036   6.750
10467POPC   C3B76401   5.662  32.099   7.050
10467POPC   C4B76402   5.703  32.024   7.350
10468POPC   NC376403   5.065  27.572   5.550
10468POPC   PO476404   5.122  27.600   5.850
10468POPC   GL176405   5.128  27.562   6.150
10468POPC   GL276406   5.020  27.709   6.150
10468POPC   C1A76407   5.122  27.558   6.450
10468POPC   D2A76408   5.086  27.603   6.750
10468POPC   C3A76409   5.059  27.610   7.050
10468POPC   C4A76410   5.129  27.572   7.350
10468POPC   C1B76411   4.918  27.823   6.450
10468POPC   C2B76412   4.951  27.804   6.750
10468POPC   C3B76413   4.973  27.811   7.050
10468POPC   C4B76414   4.919  27.797   7.350
10469POPC   NC376415  19.828  10.554   5.550
10469POPC   PO476416  19.854  10.494   5.850
10469POPC   GL176417  19.786  10.480   6.150
10469POPC   GL276418  19.802  10.647   6.150
10469POPC   C1A76419  19.869  10.547   6.450
10469POPC   D2A76420  19.833  10.545   6.750
10469POPC   C3A76421  19.831  10.556   7.050
10469POPC   C4A76422  19.870  10.555   7.350
10469POPC   C1B76423  19.813  10.733   6.450
10469POPC   C2B76424  19.855  10.778   6.750
10469POPC   C3B76425  19.825  10.758   7.050
10469POPC   C4B76426  19.873  10.796   7.350
10470POPC   NC376427  37.694  14.411   5.550
10470POPC   PO476428  37.681  14.418   5.850
10470POPC   GL176429  37.630  14.375   6.150
10470POPC   GL276430  37.750  14.458   6.150
10470POPC   C1A76431  37.644  14.366   6.450
10470POPC   D2A76432  37.679  14.354   6.750
10470POPC   C3A76433  37.691  14.371   7.050
10470POPC   C4A76434  37.646  14.354   7.350
10470POPC   C1B76435  37.896  14.479   6.450
10470POPC   C2B76436  37.931  14.528   6.750
10470POPC   C3B76437  37.869  14.469   7.050
10470POPC   C4B76438  37.897  14.514   7.350
10471POPC   NC376439  27.544  10.484   5.550
10471POPC   PO476440  27.624  10.544   5.850
10471POPC   GL176441  27.588  10.554   6.150
10471POPC   GL276442  27.647  10.563   6.150
10471POPC   C1A76443  27.549  10.480   6.450
10471POPC   D2A76444  27.581  10.571   6.750
10471POPC   C3A76445  27.543  10.548   7.050
10471POPC   C4A76446  27.614  10.494   7.350
10471POPC   C1B76447  27.762  10.665   6.450
10471POPC   C2B76448  27.807  10.652   6.750
10471POPC   C3B76449  27.813  10.629   7.050
10471POPC   C4B76450  27.838  10.648   7.350
10472POPC   NC376451  18.291   1.182   5.550
10472POPC   PO476452  18.270   1.204   5.850
10472POPC   GL176453  18.249   1.205   6.150
10472POPC   GL276454  18.383   1.156   6.150
10472POPC   C1A76455  18.297   1.241   6.450
10472POPC   D2A76456  18.307   1.214   6.750
10472POPC   C3A76457  18.284   1.190   7.050
10472POPC   C4A76458  18.250   1.240   7.350
10472POPC   C1B76459  18.505   1.058   6.450
10472POPC   C2B76460  18.502   1.106   6.750
10472POPC   C3B76461  18.499   1.109   7.050
10472POPC   C4B76462  18.443   1.107   7.350
10473POPC   NC376463  31.446  18.277   5.550
10473POPC   PO476464  31.494  18.281   5.850
10473POPC   GL176465  31.505  18.300   6.150
10473POPC   GL276466  31.592  18.195   6.150
10473POPC   C1A76467  31.492  18.312   6.450
10473POPC   D2A76468  31.471  18.310   6.750
10473POPC   C3A76469  31.436  18.288   7.050
10473POPC   C4A76470  31.482  18.263   7.350
10473POPC   C1B76471  31.586  18.099   6.450
10473POPC   C2B76472  31.664  18.053   6.750
10473POPC   C3B76473  31.629  18.126   7.050
10473POPC   C4B76474  31.620  18.089   7.350
10474POPC   NC376475   2.745  25.994   5.550
10474POPC   PO476476   2.725  26.014   5.850
10474POPC   GL176477   2.719  26.012   6.150
10474POPC   GL276478   2.894  25.999   6.150
10474POPC   C1A76479   2.717  26.086   6.450
10474POPC   D2A76480   2.774  26.016   6.750
10474POPC   C3A76481   2.758  26.066   7.050
10474POPC   C4A76482   2.757  26.086   7.350
10474POPC   C1B76483   2.922  25.893   6.450
10474POPC   C2B76484   2.973  25.912   6.750
10474POPC   C3B76485   2.963  25.847   7.050
10474POPC   C4B76486   2.933  25.872   7.350
10475POPC   NC376487  37.725  40.817   5.550
10475POPC   PO476488  37.695  40.763   5.850
10475POPC   GL176489  37.636  40.818   6.150
10475POPC   GL276490  37.784  40.845   6.150
10475POPC   C1A76491  37.678  40.737   6.450
10475POPC   D2A76492  37.704  40.778   6.750
10475POPC   C3A76493  37.723  40.747   7.050
10475POPC   C4A76494  37.659  40.744   7.350
10475POPC   C1B76495  37.853  40.930   6.450
10475POPC   C2B76496  37.865  40.907   6.750
10475POPC   C3B76497  37.910  40.936   7.050
10475POPC   C4B76498  37.909  40.890   7.350
10476POPC   NC376499  16.759  16.775   5.550
10476POPC   PO476500  16.696  16.729   5.850
10476POPC   GL176501  16.740  16.754   6.150
10476POPC   GL276502  16.760  16.866   6.150
10476POPC   C1A76503  16.682  16.728   6.450
10476POPC   D2A76504  16.730  16.683   6.750
10476POPC   C3A76505  16.772  16.714   7.050
10476POPC   C4A76506  16.697  16.685   7.350
10476POPC   C1B76507  16.714  16.988   6.450
10476POPC   C2B76508  16.698  17.029   6.750
10476POPC   C3B76509  16.739  16.958   7.050
10476POPC   C4B76510  16.786  16.935   7.350
10477POPC   NC376511  25.286  16.741   5.550
10477POPC   PO476512  25.302  16.730   5.850
10477POPC   GL176513  25.218  16.778   6.150
10477POPC   GL276514  25.264  16.605   6.150
10477POPC   C1A76515  25.303  16.716   6.450
10477POPC   D2A76516  25.264  16.694   6.750
10477POPC   C3A76517  25.261  16.762   7.050
10477POPC   C4A76518  25.289  16.684   7.350
10477POPC   C1B76519  25.353  16.505   6.450
10477POPC   C2B76520  25.382  16.452   6.750
10477POPC   C3B76521  25.290  16.521   7.050
10477POPC   C4B76522  25.310  16.456   7.350
10478POPC   NC376523  16.686   3.578   5.550
10478POPC   PO476524  16.706   3.559   5.850
10478POPC   GL176525  16.740   3.572   6.150
10478POPC   GL276526  16.879   3.608   6.150
10478POPC   C1A76527  16.691   3.570   6.450
10478POPC   D2A76528  16.738   3.535   6.750
10478POPC   C3A76529  16.700   3.496   7.050
10478POPC   C4A76530  16.746   3.579   7.350
10478POPC   C1B76531  17.006   3.654   6.450
10478POPC   C2B76532  16.992   3.635   6.750
10478POPC   C3B76533  16.965   3.586   7.050
10478POPC   C4B76534  16.968   3.628   7.350
10479POPC   NC376535  23.742  30.647   5.550
10479POPC   PO476536  23.728  30.697   5.850
10479POPC   GL176537  23.749  30.698   6.150
10479POPC   GL276538  23.645  30.711   6.150
10479POPC   C1A76539  23.743  30.740   6.450
10479POPC   D2A76540  23.670  30.652   6.750
10479POPC   C3A76541  23.752  30.700   7.050
10479POPC   C4A76542  23.700  30.697   7.350
10479POPC   C1B76543  23.495  30.792   6.450
10479POPC   C2B76544  23.527  30.733   6.750
10479POPC   C3B76545  23.497  30.740   7.050
10479POPC   C4B76546  23.447  30.775   7.350
10480POPC   NC376547   5.091  34.574   5.550
10480POPC   PO476548   5.080  34.531   5.850
10480POPC   GL176549   5.094  34.553   6.150
10480POPC   GL276550   5.176  34.451   6.150
10480POPC   C1A76551   5.082  34.617   6.450
10480POPC   D2A76552   5.106  34.579   6.750
10480POPC   C3A76553   5.111  34.555   7.050
10480POPC   C4A76554   5.140  34.593   7.350
10480POPC   C1B76555   5.250  34.420   6.450
10480POPC   C2B76556   5.279  34.443   6.750
10480POPC   C3B76557   5.264  34.445   7.050
10480POPC   C4B76558   5.276  34.445   7.350
10481POPC   NC376559  36.915  43.890   5.550
10481POPC   PO476560  36.946  43.895   5.850
10481POPC   GL176561  36.901  43.914   6.150
10481POPC   GL276562  36.862  43.772   6.150
10481POPC   C1A76563  36.886  43.928   6.450
10481POPC   D2A76564  36.886  43.898   6.750
10481POPC   C3A76565  36.880  43.924   7.050
10481POPC   C4A76566  36.948  43.844   7.350
10481POPC   C1B76567  36.748  43.746   6.450
10481POPC   C2B76568  36.694  43.736   6.750
10481POPC   C3B76569  36.774  43.717   7.050
10481POPC   C4B76570  36.749  43.660   7.350
10482POPC   NC376571  43.894   2.771   5.550
10482POPC   PO476572  43.837   2.792   5.850
10482POPC   GL176573  43.904   2.738   6.150
10482POPC   GL276574  43.998   2.664   6.150
10482POPC   C1A76575  43.858   2.730   6.450
10482POPC   D2A76576  43.872   2.767   6.750
10482POPC   C3A76577  43.859   2.748   7.050
10482POPC   C4A76578  43.932   2.788   7.350
10482POPC   C1B76579  44.098   2.649   6.450
10482POPC   C2B76580  44.065   2.641   6.750
10482POPC   C3B76581  44.093   2.593   7.050
10482POPC   C4B76582  44.046   2.635   7.350
10483POPC   NC376583  39.194  13.578   5.550
10483POPC   PO476584  39.229  13.634   5.850
10483POPC   GL176585  39.212  13.644   6.150
10483POPC   GL276586  39.294  13.768   6.150
10483POPC   C1A76587  39.269  13.603   6.450
10483POPC   D2A76588  39.255  13.663   6.750
10483POPC   C3A76589  39.253  13.655   7.050
10483POPC   C4A76590  39.182  13.605   7.350
10483POPC   C1B76591  39.310  13.853   6.450
10483POPC   C2B76592  39.305  13.920   6.750
10483POPC   C3B76593  39.268  13.906   7.050
10483POPC   C4B76594  39.218  13.860   7.350
10484POPC   NC376595   2.739  22.134   5.550
10484POPC   PO476596   2.724  22.196   5.850
10484POPC   GL176597   2.732  22.139   6.150
10484POPC   GL276598   2.811  22.066   6.150
10484POPC   C1A76599   2.796  22.122   6.450
10484POPC   D2A76600   2.725  22.150   6.750
10484POPC   C3A76601   2.729  22.152   7.050
10484POPC   C4A76602   2.745  22.198   7.350
10484POPC   C1B76603   2.885  22.002   6.450
10484POPC   C2B76604   2.956  21.985   6.750
10484POPC   C3B76605   2.913  21.973   7.050
10484POPC   C4B76606   2.968  21.978   7.350
10485POPC   NC376607  41.588  19.014   5.550
10485POPC   PO476608  41.516  19.039   5.850
10485POPC   GL176609  41.577  19.091   6.150
10485POPC   GL276610  41.632  19.148   6.150
10485POPC   C1A76611  41.596  19.105   6.450
10485POPC   D2A76612  41.608  19.089   6.750
10485POPC   C3A76613  41.538  19.060   7.050
10485POPC   C4A76614  41.537  19.047   7.350
10485POPC   C1B76615  41.750  19.213   6.450
10485POPC   C2B76616  41.726  19.201   6.750
10485POPC   C3B76617  41.734  19.223   7.050
10485POPC   C4B76618  41.705  19.249   7.350
10486POPC   NC376619  27.570  41.576   5.550
10486POPC   PO476620  27.554  41.597   5.850
10486POPC   GL176621  27.615  41.563   6.150
10486POPC   GL276622  27.441  41.566   6.150
10486POPC   C1A76623  27.594  41.523   6.450
10486POPC   D2A76624  27.642  41.547   6.750
10486POPC   C3A76625  27.638  41.587   7.050
10486POPC   C4A76626  27.572  41.536   7.350
10486POPC   C1B76627  27.370  41.490   6.450
10486POPC   C2B76628  27.322  41.511   6.750
10486POPC   C3B76629  27.304  41.502   7.050
10486POPC   C4B76630  27.387  41.545   7.350
10487POPC   NC376631  24.448  13.673   5.550
10487POPC   PO476632  24.444  13.661   5.850
10487POPC   GL176633  24.466  13.658   6.150
10487POPC   GL276634  24.560  13.607   6.150
10487POPC   C1A76635  24.491  13.629   6.450
10487POPC   D2A76636  24.452  13.579   6.750
10487POPC   C3A76637  24.499  13.644   7.050
10487POPC   C4A76638  24.522  13.668   7.350
10487POPC   C1B76639  24.707  13.513   6.450
10487POPC   C2B76640  24.668  13.534   6.750
10487POPC   C3B76641  24.669  13.546   7.050
10487POPC   C4B76642  24.707  13.554   7.350
10488POPC   NC376643  38.423  32.218   5.550
10488POPC   PO476644  38.481  32.264   5.850
10488POPC   GL176645  38.503  32.258   6.150
10488POPC   GL276646  38.403  32.089   6.150
10488POPC   C1A76647  38.501  32.236   6.450
10488POPC   D2A76648  38.428  32.208   6.750
10488POPC   C3A76649  38.435  32.235   7.050
10488POPC   C4A76650  38.492  32.230   7.350
10488POPC   C1B76651  38.311  31.991   6.450
10488POPC   C2B76652  38.337  32.051   6.750
10488POPC   C3B76653  38.382  32.052   7.050
10488POPC   C4B76654  38.302  31.987   7.350
10489POPC   NC376655  22.920  44.665   5.550
10489POPC   PO476656  22.983  44.624   5.850
10489POPC   GL176657  22.986  44.686   6.150
10489POPC   GL276658  22.878  44.769   6.150
10489POPC   C1A76659  22.903  44.643   6.450
10489POPC   D2A76660  22.914  44.646   6.750
10489POPC   C3A76661  22.900  44.696   7.050
10489POPC   C4A76662  22.954  44.710   7.350
10489POPC   C1B76663  22.839  44.848   6.450
10489POPC   C2B76664  22.761  44.887   6.750
10489POPC   C3B76665  22.831  44.918   7.050
10489POPC   C4B76666  22.814  44.904   7.350
10490POPC   NC376667  38.446  20.658   5.550
10490POPC   PO476668  38.497  20.565   5.850
10490POPC   GL176669  38.446  20.592   6.150
10490POPC   GL276670  38.476  20.692   6.150
10490POPC   C1A76671  38.461  20.656   6.450
10490POPC   D2A76672  38.452  20.588   6.750
10490POPC   C3A76673  38.498  20.568   7.050
10490POPC   C4A76674  38.422  20.611   7.350
10490POPC   C1B76675  38.406  20.868   6.450
10490POPC   C2B76676  38.353  20.884   6.750
10490POPC   C3B76677  38.378  20.851   7.050
10490POPC   C4B76678  38.402  20.863   7.350
10491POPC   NC376679  41.580  38.448   5.550
10491POPC   PO476680  41.551  38.445   5.850
10491POPC   GL176681  41.605  38.467   6.150
10491POPC   GL276682  41.583  38.548   6.150
10491POPC   C1A76683  41.579  38.492   6.450
10491POPC   D2A76684  41.515  38.446   6.750
10491POPC   C3A76685  41.605  38.472   7.050
10491POPC   C4A76686  41.588  38.405   7.350
10491POPC   C1B76687  41.600  38.678   6.450
10491POPC   C2B76688  41.540  38.720   6.750
10491POPC   C3B76689  41.533  38.699   7.050
10491POPC   C4B76690  41.566  38.674   7.350
10492POPC   NC376691  33.042   8.182   5.550
10492POPC   PO476692  32.980   8.162   5.850
10492POPC   GL176693  33.037   8.183   6.150
10492POPC   GL276694  33.038   8.051   6.150
10492POPC   C1A76695  33.074   8.236   6.450
10492POPC   D2A76696  33.030   8.178   6.750
10492POPC   C3A76697  33.042   8.182   7.050
10492POPC   C4A76698  33.053   8.222   7.350
10492POPC   C1B76699  32.964   7.910   6.450
10492POPC   C2B76700  32.976   7.943   6.750
10492POPC   C3B76701  32.981   7.915   7.050
10492POPC   C4B76702  32.997   7.996   7.350
10493POPC   NC376703  25.251  19.036   5.550
10493POPC   PO476704  25.281  19.078   5.850
10493POPC   GL176705  25.222  19.104   6.150
10493POPC   GL276706  25.178  19.091   6.150
10493POPC   C1A76707  25.245  19.071   6.450
10493POPC   D2A76708  25.295  19.056   6.750
10493POPC   C3A76709  25.225  19.035   7.050
10493POPC   C4A76710  25.260  19.052   7.350
10493POPC   C1B76711  25.081  19.229   6.450
10493POPC   C2B76712  25.098  19.171   6.750
10493POPC   C3B76713  25.065  19.194   7.050
10493POPC   C4B76714  25.079  19.217   7.350
10494POPC   NC376715   8.214  14.423   5.550
10494POPC   PO476716   8.233  14.420   5.850
10494POPC   GL176717   8.242  14.368   6.150
10494POPC   GL276718   8.311  14.384   6.150
10494POPC   C1A76719   8.243  14.395   6.450
10494POPC   D2A76720   8.186  14.405   6.750
10494POPC   C3A76721   8.217  14.435   7.050
10494POPC   C4A76722   8.148  14.381   7.350
10494POPC   C1B76723   8.458  14.391   6.450
10494POPC   C2B76724   8.450  14.430   6.750
10494POPC   C3B76725   8.416  14.344   7.050
10494POPC   C4B76726   8.463  14.371   7.350
10495POPC   NC376727  24.536  25.298   5.550
10495POPC   PO476728  24.527  25.255   5.850
10495POPC   GL176729  24.523  25.278   6.150
10495POPC   GL276730  24.620  25.312   6.150
10495POPC   C1A76731  24.486  25.301   6.450
10495POPC   D2A76732  24.476  25.282   6.750
10495POPC   C3A76733  24.460  25.266   7.050
10495POPC   C4A76734  24.511  25.296   7.350
10495POPC   C1B76735  24.786  25.314   6.450
10495POPC   C2B76736  24.748  25.250   6.750
10495POPC   C3B76737  24.740  25.313   7.050
10495POPC   C4B76738  24.771  25.242   7.350
10496POPC   NC376739   5.897  40.793   5.550
10496POPC   PO476740   5.860  40.806   5.850
10496POPC   GL176741   5.845  40.741   6.150
10496POPC   GL276742   5.779  40.723   6.150
10496POPC   C1A76743   5.831  40.741   6.450
10496POPC   D2A76744   5.883  40.793   6.750
10496POPC   C3A76745   5.821  40.780   7.050
10496POPC   C4A76746   5.822  40.767   7.350
10496POPC   C1B76747   5.675  40.613   6.450
10496POPC   C2B76748   5.665  40.582   6.750
10496POPC   C3B76749   5.696  40.570   7.050
10496POPC   C4B76750   5.704  40.615   7.350
10497POPC   NC376751  16.699   0.442   5.550
10497POPC   PO476752  16.708   0.431   5.850
10497POPC   GL176753  16.737   0.460   6.150
10497POPC   GL276754  16.658   0.519   6.150
10497POPC   C1A76755  16.721   0.469   6.450
10497POPC   D2A76756  16.730   0.392   6.750
10497POPC   C3A76757  16.733   0.468   7.050
10497POPC   C4A76758  16.736   0.434   7.350
10497POPC   C1B76759  16.494   0.505   6.450
10497POPC   C2B76760  16.479   0.497   6.750
10497POPC   C3B76761  16.492   0.543   7.050
10497POPC   C4B76762  16.466   0.482   7.350
10498POPC   NC376763  18.270  35.391   5.550
10498POPC   PO476764  18.264  35.354   5.850
10498POPC   GL176765  18.243  35.349   6.150
10498POPC   GL276766  18.447  35.356   6.150
10498POPC   C1A76767  18.315  35.303   6.450
10498POPC   D2A76768  18.272  35.374   6.750
10498POPC   C3A76769  18.246  35.318   7.050
10498POPC   C4A76770  18.291  35.382   7.350
10498POPC   C1B76771  18.519  35.441   6.450
10498POPC   C2B76772  18.486  35.441   6.750
10498POPC   C3B76773  18.493  35.438   7.050
10498POPC   C4B76774  18.562  35.391   7.350
10499POPC   NC376775  43.899  41.602   5.550
10499POPC   PO476776  43.924  41.577   5.850
10499POPC   GL176777  43.853  41.530   6.150
10499POPC   GL276778  43.817  41.625   6.150
10499POPC   C1A76779  43.858  41.587   6.450
10499POPC   D2A76780  43.924  41.578   6.750
10499POPC   C3A76781  43.842  41.599   7.050
10499POPC   C4A76782  43.910  41.587   7.350
10499POPC   C1B76783  43.698  41.730   6.450
10499POPC   C2B76784  43.707  41.697   6.750
10499POPC   C3B76785  43.647  41.710   7.050
10499POPC   C4B76786  43.709  41.679   7.350
10500POPC   NC376787  24.504  39.962   5.550
10500POPC   PO476788  24.458  39.959   5.850
10500POPC   GL176789  24.535  39.973   6.150
10500POPC   GL276790  24.510  39.921   6.150
10500POPC   C1A76791  24.453  40.043   6.450
10500POPC   D2A76792  24.508  39.969   6.750
10500POPC   C3A76793  24.464  40.003   7.050
10500POPC   C4A76794  24.456  40.029   7.350
10500POPC   C1B76795  24.477  39.757   6.450
10500POPC   C2B76796  24.471  39.741   6.750
10500POPC   C3B76797  24.461  39.791   7.050
10500POPC   C4B76798  24.443  39.753   7.350
10501POPC   NC376799  39.185  32.279   5.550
10501POPC   PO476800  39.261  32.262   5.850
10501POPC   GL176801  39.222  32.217   6.150
10501POPC   GL276802  39.161  32.293   6.150
10501POPC   C1A76803  39.198  32.274   6.450
10501POPC   D2A76804  39.271  32.243   6.750
10501POPC   C3A76805  39.229  32.199   7.050
10501POPC   C4A76806  39.187  32.229   7.350
10501POPC   C1B76807  39.021  32.429   6.450
10501POPC   C2B76808  39.089  32.394   6.750
10501POPC   C3B76809  39.031  32.436   7.050
10501POPC   C4B76810  39.044  32.400   7.350
10502POPC   NC376811  22.179  10.497   5.550
10502POPC   PO476812  22.177  10.571   5.850
10502POPC   GL176813  22.155  10.493   6.150
10502POPC   GL276814  22.288  10.590   6.150
10502POPC   C1A76815  22.140  10.565   6.450
10502POPC   D2A76816  22.125  10.488   6.750
10502POPC   C3A76817  22.187  10.548   7.050
10502POPC   C4A76818  22.164  10.511   7.350
10502POPC   C1B76819  22.351  10.683   6.450
10502POPC   C2B76820  22.396  10.625   6.750
10502POPC   C3B76821  22.403  10.638   7.050
10502POPC   C4B76822  22.395  10.615   7.350
10503POPC   NC376823  24.524  41.520   5.550
10503POPC   PO476824  24.485  41.564   5.850
10503POPC   GL176825  24.466  41.520   6.150
10503POPC   GL276826  24.336  41.654   6.150
10503POPC   C1A76827  24.480  41.515   6.450
10503POPC   D2A76828  24.487  41.520   6.750
10503POPC   C3A76829  24.512  41.591   7.050
10503POPC   C4A76830  24.519  41.562   7.350
10503POPC   C1B76831  24.285  41.666   6.450
10503POPC   C2B76832  24.317  41.693   6.750
10503POPC   C3B76833  24.246  41.707   7.050
10503POPC   C4B76834  24.285  41.655   7.350
10504POPC   NC376835  11.264  29.892   5.550
10504POPC   PO476836  11.350  29.900   5.850
10504POPC   GL176837  11.337  29.922   6.150
10504POPC   GL276838  11.379  30.078   6.150
10504POPC   C1A76839  11.268  29.965   6.450
10504POPC   D2A76840  11.250  29.901   6.750
10504POPC   C3A76841  11.250  29.881   7.050
10504POPC   C4A76842  11.283  29.963   7.350
10504POPC   C1B76843  11.366  30.179   6.450
10504POPC   C2B76844  11.403  30.148   6.750
10504POPC   C3B76845  11.399  30.148   7.050
10504POPC   C4B76846  11.352  30.205   7.350
10505POPC   NC376847  38.455  18.292   5.550
10505POPC   PO476848  38.476  18.313   5.850
10505POPC   GL176849  38.499  18.274   6.150
10505POPC   GL276850  38.399  18.375   6.150
10505POPC   C1A76851  38.411  18.249   6.450
10505POPC   D2A76852  38.501  18.318   6.750
10505POPC   C3A76853  38.474  18.266   7.050
10505POPC   C4A76854  38.502  18.280   7.350
10505POPC   C1B76855  38.301  18.442   6.450
10505POPC   C2B76856  38.270  18.410   6.750
10505POPC   C3B76857  38.245  18.441   7.050
10505POPC   C4B76858  38.244  18.442   7.350
10506POPC   NC376859  28.394  29.138   5.550
10506POPC   PO476860  28.342  29.160   5.850
10506POPC   GL176861  28.351  29.112   6.150
10506POPC   GL276862  28.514  29.144   6.150
10506POPC   C1A76863  28.346  29.159   6.450
10506POPC   D2A76864  28.406  29.189   6.750
10506POPC   C3A76865  28.366  29.147   7.050
10506POPC   C4A76866  28.415  29.166   7.350
10506POPC   C1B76867  28.574  29.275   6.450
10506POPC   C2B76868  28.552  29.220   6.750
10506POPC   C3B76869  28.598  29.216   7.050
10506POPC   C4B76870  28.591  29.189   7.350
10507POPC   NC376871  25.311  32.238   5.550
10507POPC   PO476872  25.266  32.224   5.850
10507POPC   GL176873  25.300  32.215   6.150
10507POPC   GL276874  25.314  32.161   6.150
10507POPC   C1A76875  25.256  32.235   6.450
10507POPC   D2A76876  25.272  32.208   6.750
10507POPC   C3A76877  25.262  32.267   7.050
10507POPC   C4A76878  25.258  32.251   7.350
10507POPC   C1B76879  25.485  32.108   6.450
10507POPC   C2B76880  25.417  32.102   6.750
10507POPC   C3B76881  25.461  32.111   7.050
10507POPC   C4B76882  25.420  32.064   7.350
10508POPC   NC376883  10.573   7.438   5.550
10508POPC   PO476884  10.544   7.446   5.850
10508POPC   GL176885  10.534   7.384   6.150
10508POPC   GL276886  10.461   7.535   6.150
10508POPC   C1A76887  10.570   7.386   6.450
10508POPC   D2A76888  10.549   7.451   6.750
10508POPC   C3A76889  10.485   7.382   7.050
10508POPC   C4A76890  10.476   7.403   7.350
10508POPC   C1B76891  10.454   7.673   6.450
10508POPC   C2B76892  10.462   7.674   6.750
10508POPC   C3B76893  10.490   7.652   7.050
10508POPC   C4B76894  10.493   7.616   7.350
10509POPC   NC376895   8.960   5.822   5.550
10509POPC   PO476896   8.978   5.898   5.850
10509POPC   GL176897   8.991   5.891   6.150
10509POPC   GL276898   9.091   5.938   6.150
10509POPC   C1A76899   8.996   5.867   6.450
10509POPC   D2A76900   8.965   5.856   6.750
10509POPC   C3A76901   8.954   5.890   7.050
10509POPC   C4A76902   8.930   5.828   7.350
10509POPC   C1B76903   9.182   6.039   6.450
10509POPC   C2B76904   9.116   6.022   6.750
10509POPC   C3B76905   9.113   6.008   7.050
10509POPC   C4B76906   9.205   6.021   7.350
10510POPC   NC376907   1.203  30.670   5.550
10510POPC   PO476908   1.216  30.707   5.850
10510POPC   GL176909   1.221  30.682   6.150
10510POPC   GL276910   1.099  30.751   6.150
10510POPC   C1A76911   1.164  30.656   6.450
10510POPC   D2A76912   1.214  30.662   6.750
10510POPC   C3A76913   1.257  30.671   7.050
10510POPC   C4A76914   1.200  30.665   7.350
10510POPC   C1B76915   1.040  30.899   6.450
10510POPC   C2B76916   1.096  30.923   6.750
10510POPC   C3B76917   1.012  30.928   7.050
10510POPC   C4B76918   1.070  30.900   7.350
10511POPC   NC376919  41.595  36.906   5.550
10511POPC   PO476920  41.589  36.941   5.850
10511POPC   GL176921  41.605  36.861   6.150
10511POPC   GL276922  41.713  36.911   6.150
10511POPC   C1A76923  41.548  36.875   6.450
10511POPC   D2A76924  41.593  36.930   6.750
10511POPC   C3A76925  41.565  36.884   7.050
10511POPC   C4A76926  41.520  36.865   7.350
10511POPC   C1B76927  41.768  36.845   6.450
10511POPC   C2B76928  41.823  36.895   6.750
10511POPC   C3B76929  41.777  36.899   7.050
10511POPC   C4B76930  41.832  36.886   7.350
10512POPC   NC376931  31.432  41.545   5.550
10512POPC   PO476932  31.457  41.586   5.850
10512POPC   GL176933  31.429  41.600   6.150
10512POPC   GL276934  31.346  41.520   6.150
10512POPC   C1A76935  31.443  41.597   6.450
10512POPC   D2A76936  31.468  41.538   6.750
10512POPC   C3A76937  31.458  41.549   7.050
10512POPC   C4A76938  31.426  41.534   7.350
10512POPC   C1B76939  31.214  41.460   6.450
10512POPC   C2B76940  31.237  41.416   6.750
10512POPC   C3B76941  31.222  41.407   7.050
10512POPC   C4B76942  31.223  41.417   7.350
10513POPC   NC376943  14.357   6.682   5.550
10513POPC   PO476944  14.439   6.605   5.850
10513POPC   GL176945  14.447   6.642   6.150
10513POPC   GL276946  14.373   6.756   6.150
10513POPC   C1A76947  14.370   6.665   6.450
10513POPC   D2A76948  14.375   6.694   6.750
10513POPC   C3A76949  14.391   6.664   7.050
10513POPC   C4A76950  14.425   6.649   7.350
10513POPC   C1B76951  14.312   6.820   6.450
10513POPC   C2B76952  14.231   6.893   6.750
10513POPC   C3B76953  14.320   6.814   7.050
10513POPC   C4B76954  14.239   6.872   7.350
10514POPC   NC376955   3.534  12.088   5.550
10514POPC   PO476956   3.493  12.067   5.850
10514POPC   GL176957   3.523  12.052   6.150
10514POPC   GL276958   3.627  11.934   6.150
10514POPC   C1A76959   3.504  12.117   6.450
10514POPC   D2A76960   3.565  12.051   6.750
10514POPC   C3A76961   3.544  12.063   7.050
10514POPC   C4A76962   3.507  12.121   7.350
10514POPC   C1B76963   3.631  11.883   6.450
10514POPC   C2B76964   3.654  11.859   6.750
10514POPC   C3B76965   3.684  11.842   7.050
10514POPC   C4B76966   3.610  11.849   7.350
10515POPC   NC376967  16.752  39.980   5.550
10515POPC   PO476968  16.710  40.047   5.850
10515POPC   GL176969  16.738  39.982   6.150
10515POPC   GL276970  16.866  40.076   6.150
10515POPC   C1A76971  16.706  39.969   6.450
10515POPC   D2A76972  16.687  39.987   6.750
10515POPC   C3A76973  16.750  40.011   7.050
10515POPC   C4A76974  16.727  40.036   7.350
10515POPC   C1B76975  16.898  40.164   6.450
10515POPC   C2B76976  16.900  40.116   6.750
10515POPC   C3B76977  16.986  40.160   7.050
10515POPC   C4B76978  16.915  40.158   7.350
10516POPC   NC376979  43.903  44.636   5.550
10516POPC   PO476980  43.883  44.680   5.850
10516POPC   GL176981  43.896  44.640   6.150
10516POPC   GL276982  43.876  44.767   6.150
10516POPC   C1A76983  43.925  44.668   6.450
10516POPC   D2A76984  43.889  44.699   6.750
10516POPC   C3A76985  43.864  44.643   7.050
10516POPC   C4A76986  43.906  44.703   7.350
10516POPC   C1B76987  43.905  44.918   6.450
10516POPC   C2B76988  43.904  44.947   6.750
10516POPC   C3B76989  43.910  44.910   7.050
10516POPC   C4B76990  43.919  44.906   7.350
10517POPC   NC376991  36.168   3.572   5.550
10517POPC   PO476992  36.131   3.527   5.850
10517POPC   GL176993  36.155   3.556   6.150
10517POPC   GL276994  36.017   3.687   6.150
10517POPC   C1A76995  36.130   3.546   6.450
10517POPC   D2A76996  36.111   3.550   6.750
10517POPC   C3A76997  36.170   3.511   7.050
10517POPC   C4A76998  36.171   3.574   7.350
10517POPC   C1B76999  35.925   3.753   6.450
10517POPC   C2B77000  36.009   3.728   6.750
10517POPC   C3B77001  35.954   3.757   7.050
10517POPC   C4B77002  35.996   3.694   7.350
10518POPC   NC377003  33.754   2.808   5.550
10518POPC   PO477004  33.793   2.764   5.850
10518POPC   GL177005  33.772   2.766   6.150
10518POPC   GL277006  33.791   2.683   6.150
10518POPC   C1A77007  33.846   2.776   6.450
10518POPC   D2A77008  33.805   2.728   6.750
10518POPC   C3A77009  33.788   2.738   7.050
10518POPC   C4A77010  33.796   2.797   7.350
10518POPC   C1B77011  33.742   2.496   6.450
10518POPC   C2B77012  33.750   2.467   6.750
10518POPC   C3B77013  33.819   2.516   7.050
10518POPC   C4B77014  33.747   2.523   7.350
10519POPC   NC377015   0.408  26.054   5.550
10519POPC   PO477016   0.432  26.090   5.850
10519POPC   GL177017   0.433  26.078   6.150
10519POPC   GL277018   0.368  26.007   6.150
10519POPC   C1A77019   0.446  26.010   6.450
10519POPC   D2A77020   0.393  26.023   6.750
10519POPC   C3A77021   0.412  26.002   7.050
10519POPC   C4A77022   0.464  26.034   7.350
10519POPC   C1B77023   0.177  25.948   6.450
10519POPC   C2B77024   0.202  25.930   6.750
10519POPC   C3B77025   0.162  25.971   7.050
10519POPC   C4B77026   0.222  25.938   7.350
10520POPC   NC377027  32.989   1.180   5.550
10520POPC   PO477028  33.041   1.246   5.850
10520POPC   GL177029  33.045   1.194   6.150
10520POPC   GL277030  33.171   1.149   6.150
10520POPC   C1A77031  33.011   1.170   6.450
10520POPC   D2A77032  32.998   1.180   6.750
10520POPC   C3A77033  33.028   1.198   7.050
10520POPC   C4A77034  33.010   1.227   7.350
10520POPC   C1B77035  33.210   1.101   6.450
10520POPC   C2B77036  33.285   1.068   6.750
10520POPC   C3B77037  33.191   1.079   7.050
10520POPC   C4B77038  33.275   1.098   7.350
10521POPC   NC377039   5.907  40.048   5.550
10521POPC   PO477040   5.859  40.052   5.850
10521POPC   GL177041   5.869  40.019   6.150
10521POPC   GL277042   5.760  39.979   6.150
10521POPC   C1A77043   5.881  40.043   6.450
10521POPC   D2A77044   5.919  39.978   6.750
10521POPC   C3A77045   5.831  40.037   7.050
10521POPC   C4A77046   5.840  40.016   7.350
10521POPC   C1B77047   5.578  39.986   6.450
10521POPC   C2B77048   5.652  39.995   6.750
10521POPC   C3B77049   5.623  39.996   7.050
10521POPC   C4B77050   5.660  39.949   7.350
10522POPC   NC377051  30.675   6.635   5.550
10522POPC   PO477052  30.725   6.633   5.850
10522POPC   GL177053  30.650   6.672   6.150
10522POPC   GL277054  30.791   6.614   6.150
10522POPC   C1A77055  30.667   6.683   6.450
10522POPC   D2A77056  30.715   6.645   6.750
10522POPC   C3A77057  30.684   6.658   7.050
10522POPC   C4A77058  30.714   6.646   7.350
10522POPC   C1B77059  30.921   6.542   6.450
10522POPC   C2B77060  30.921   6.548   6.750
10522POPC   C3B77061  30.942   6.503   7.050
10522POPC   C4B77062  30.897   6.537   7.350
10523POPC   NC377063   1.167  37.694   5.550
10523POPC   PO477064   1.203  37.717   5.850
10523POPC   GL177065   1.199  37.707   6.150
10523POPC   GL277066   1.192  37.792   6.150
10523POPC   C1A77067   1.213  37.667   6.450
10523POPC   D2A77068   1.172  37.708   6.750
10523POPC   C3A77069   1.255  37.663   7.050
10523POPC   C4A77070   1.203  37.657   7.350
10523POPC   C1B77071   1.260  37.956   6.450
10523POPC   C2B77072   1.293  37.895   6.750
10523POPC   C3B77073   1.271  37.894   7.050
10523POPC   C4B77074   1.259  37.962   7.350
10524POPC   NC377075  42.297   5.084   5.550
10524POPC   PO477076  42.369   5.135   5.850
10524POPC   GL177077  42.371   5.103   6.150
10524POPC   GL277078  42.193   5.125   6.150
10524POPC   C1A77079  42.336   5.046   6.450
10524POPC   D2A77080  42.372   5.051   6.750
10524POPC   C3A77081  42.382   5.114   7.050
10524POPC   C4A77082  42.337   5.117   7.350
10524POPC   C1B77083  42.075   5.092   6.450
10524POPC   C2B77084  42.049   5.188   6.750
10524POPC   C3B77085  42.133   5.155   7.050
10524POPC   C4B77086  42.120   5.094   7.350
10525POPC   NC377087  16.735  31.432   5.550
10525POPC   PO477088  16.711  31.450   5.850
10525POPC   GL177089  16.752  31.488   6.150
10525POPC   GL277090  16.684  31.609   6.150
10525POPC   C1A77091  16.683  31.432   6.450
10525POPC   D2A77092  16.712  31.490   6.750
10525POPC   C3A77093  16.757  31.481   7.050
10525POPC   C4A77094  16.775  31.450   7.350
10525POPC   C1B77095  16.732  31.676   6.450
10525POPC   C2B77096  16.702  31.715   6.750
10525POPC   C3B77097  16.662  31.747   7.050
10525POPC   C4B77098  16.696  31.713   7.350
10526POPC   NC377099  40.740  38.418   5.550
10526POPC   PO477100  40.772  38.466   5.850
10526POPC   GL177101  40.817  38.418   6.150
10526POPC   GL277102  40.666  38.541   6.150
10526POPC   C1A77103  40.763  38.462   6.450
10526POPC   D2A77104  40.795  38.484   6.750
10526POPC   C3A77105  40.753  38.421   7.050
10526POPC   C4A77106  40.776  38.455   7.350
10526POPC   C1B77107  40.610  38.660   6.450
10526POPC   C2B77108  40.686  38.632   6.750
10526POPC   C3B77109  40.597  38.638   7.050
10526POPC   C4B77110  40.633  38.617   7.350
10527POPC   NC377111  19.841  32.991   5.550
10527POPC   PO477112  19.878  32.994   5.850
10527POPC   GL177113  19.875  33.058   6.150
10527POPC   GL277114  19.823  33.171   6.150
10527POPC   C1A77115  19.808  33.026   6.450
10527POPC   D2A77116  19.800  33.031   6.750
10527POPC   C3A77117  19.854  32.986   7.050
10527POPC   C4A77118  19.876  33.058   7.350
10527POPC   C1B77119  19.806  33.288   6.450
10527POPC   C2B77120  19.795  33.302   6.750
10527POPC   C3B77121  19.815  33.302   7.050
10527POPC   C4B77122  19.740  33.244   7.350
10528POPC   NC377123  29.155  42.301   5.550
10528POPC   PO477124  29.116  42.328   5.850
10528POPC   GL177125  29.095  42.310   6.150
10528POPC   GL277126  29.079  42.388   6.150
10528POPC   C1A77127  29.096  42.305   6.450
10528POPC   D2A77128  29.103  42.297   6.750
10528POPC   C3A77129  29.153  42.357   7.050
10528POPC   C4A77130  29.169  42.360   7.350
10528POPC   C1B77131  29.002  42.564   6.450
10528POPC   C2B77132  29.005  42.528   6.750
10528POPC   C3B77133  28.975  42.524   7.050
10528POPC   C4B77134  29.044  42.510   7.350
10529POPC   NC377135   7.454  44.683   5.550
10529POPC   PO477136   7.384  44.692   5.850
10529POPC   GL177137   7.389  44.688   6.150
10529POPC   GL277138   7.409  44.555   6.150
10529POPC   C1A77139   7.413  44.662   6.450
10529POPC   D2A77140   7.389  44.664   6.750
10529POPC   C3A77141   7.459  44.626   7.050
10529POPC   C4A77142   7.376  44.640   7.350
10529POPC   C1B77143   7.371  44.459   6.450
10529POPC   C2B77144   7.440  44.414   6.750
10529POPC   C3B77145   7.404  44.446   7.050
10529POPC   C4B77146   7.406  44.459   7.350
10530POPC   NC377147  19.081  19.101   5.550
10530POPC   PO477148  19.051  19.031   5.850
10530POPC   GL177149  19.078  19.011   6.150
10530POPC   GL277150  18.960  19.078   6.150
10530POPC   C1A77151  19.095  19.052   6.450
10530POPC   D2A77152  19.063  19.051   6.750
10530POPC   C3A77153  19.033  19.024   7.050
10530POPC   C4A77154  19.039  19.011   7.350
10530POPC   C1B77155  18.830  19.085   6.450
10530POPC   C2B77156  18.832  19.168   6.750
10530POPC   C3B77157  18.805  19.154   7.050
10530POPC   C4B77158  18.800  19.103   7.350
10531POPC   NC377159  32.280  19.093   5.550
10531POPC   PO477160  32.232  19.056   5.850
10531POPC   GL177161  32.296  19.070   6.150
10531POPC   GL277162  32.340  19.057   6.150
10531POPC   C1A77163  32.204  19.038   6.450
10531POPC   D2A77164  32.235  19.038   6.750
10531POPC   C3A77165  32.260  19.080   7.050
10531POPC   C4A77166  32.220  19.021   7.350
10531POPC   C1B77167  32.485  18.987   6.450
10531POPC   C2B77168  32.438  18.970   6.750
10531POPC   C3B77169  32.460  18.994   7.050
10531POPC   C4B77170  32.469  18.977   7.350
10532POPC   NC377171  13.672  29.949   5.550
10532POPC   PO477172  13.629  29.950   5.850
10532POPC   GL177173  13.646  29.969   6.150
10532POPC   GL277174  13.739  29.919   6.150
10532POPC   C1A77175  13.578  29.895   6.450
10532POPC   D2A77176  13.579  29.915   6.750
10532POPC   C3A77177  13.597  29.953   7.050
10532POPC   C4A77178  13.609  29.949   7.350
10532POPC   C1B77179  13.855  29.838   6.450
10532POPC   C2B77180  13.901  29.868   6.750
10532POPC   C3B77181  13.914  29.891   7.050
10532POPC   C4B77182  13.828  29.907   7.350
10533POPC   NC377183  23.749  29.872   5.550
10533POPC   PO477184  23.725  29.882   5.850
10533POPC   GL177185  23.693  29.970   6.150
10533POPC   GL277186  23.593  29.858   6.150
10533POPC   C1A77187  23.754  29.970   6.450
10533POPC   D2A77188  23.682  29.932   6.750
10533POPC   C3A77189  23.723  29.918   7.050
10533POPC   C4A77190  23.668  29.911   7.350
10533POPC   C1B77191  23.515  29.798   6.450
10533POPC   C2B77192  23.548  29.748   6.750
10533POPC   C3B77193  23.492  29.744   7.050
10533POPC   C4B77194  23.499  29.759   7.350
10534POPC   NC377195  39.201  39.190   5.550
10534POPC   PO477196  39.257  39.182   5.850
10534POPC   GL177197  39.238  39.184   6.150
10534POPC   GL277198  39.325  39.288   6.150
10534POPC   C1A77199  39.202  39.277   6.450
10534POPC   D2A77200  39.196  39.214   6.750
10534POPC   C3A77201  39.236  39.199   7.050
10534POPC   C4A77202  39.237  39.212   7.350
10534POPC   C1B77203  39.462  39.344   6.450
10534POPC   C2B77204  39.498  39.360   6.750
10534POPC   C3B77205  39.488  39.309   7.050
10534POPC   C4B77206  39.436  39.333   7.350
10535POPC   NC377207  30.656  39.221   5.550
10535POPC   PO477208  30.668  39.213   5.850
10535POPC   GL177209  30.677  39.241   6.150
10535POPC   GL277210  30.779  39.349   6.150
10535POPC   C1A77211  30.716  39.200   6.450
10535POPC   D2A77212  30.647  39.210   6.750
10535POPC   C3A77213  30.686  39.221   7.050
10535POPC   C4A77214  30.665  39.258   7.350
10535POPC   C1B77215  30.774  39.494   6.450
10535POPC   C2B77216  30.808  39.464   6.750
10535POPC   C3B77217  30.794  39.440   7.050
10535POPC   C4B77218  30.825  39.409   7.350
10536POPC   NC377219  18.300  16.741   5.550
10536POPC   PO477220  18.259  16.691   5.850
10536POPC   GL177221  18.306  16.767   6.150
10536POPC   GL277222  18.197  16.839   6.150
10536POPC   C1A77223  18.327  16.752   6.450
10536POPC   D2A77224  18.255  16.737   6.750
10536POPC   C3A77225  18.275  16.689   7.050
10536POPC   C4A77226  18.301  16.757   7.350
10536POPC   C1B77227  18.149  16.907   6.450
10536POPC   C2B77228  18.129  16.931   6.750
10536POPC   C3B77229  18.136  16.919   7.050
10536POPC   C4B77230  18.102  16.941   7.350
10537POPC   NC377231  12.836  22.130   5.550
10537POPC   PO477232  12.803  22.171   5.850
10537POPC   GL177233  12.826  22.201   6.150
10537POPC   GL277234  12.918  22.078   6.150
10537POPC   C1A77235  12.805  22.199   6.450
10537POPC   D2A77236  12.890  22.212   6.750
10537POPC   C3A77237  12.869  22.185   7.050
10537POPC   C4A77238  12.845  22.117   7.350
10537POPC   C1B77239  13.012  22.021   6.450
10537POPC   C2B77240  13.079  21.990   6.750
10537POPC   C3B77241  13.068  22.014   7.050
10537POPC   C4B77242  13.006  21.957   7.350
10538POPC   NC377243  25.309  27.584   5.550
10538POPC   PO477244  25.239  27.597   5.850
10538POPC   GL177245  25.278  27.639   6.150
10538POPC   GL277246  25.400  27.605   6.150
10538POPC   C1A77247  25.273  27.633   6.450
10538POPC   D2A77248  25.229  27.613   6.750
10538POPC   C3A77249  25.278  27.600   7.050
10538POPC   C4A77250  25.254  27.615   7.350
10538POPC   C1B77251  25.539  27.569   6.450
10538POPC   C2B77252  25.559  27.523   6.750
10538POPC   C3B77253  25.543  27.524   7.050
10538POPC   C4B77254  25.511  27.552   7.350
10539POPC   NC377255   9.710   3.493   5.550
10539POPC   PO477256   9.766   3.509   5.850
10539POPC   GL177257   9.747   3.556   6.150
10539POPC   GL277258   9.710   3.426   6.150
10539POPC   C1A77259   9.746   3.588   6.450
10539POPC   D2A77260   9.797   3.552   6.750
10539POPC   C3A77261   9.714   3.578   7.050
10539POPC   C4A77262   9.715   3.542   7.350
10539POPC   C1B77263   9.697   3.339   6.450
10539POPC   C2B77264   9.711   3.321   6.750
10539POPC   C3B77265   9.772   3.293   7.050
10539POPC   C4B77266   9.777   3.285   7.350
10540POPC   NC377267  32.294  17.474   5.550
10540POPC   PO477268  32.228  17.513   5.850
10540POPC   GL177269  32.288  17.519   6.150
10540POPC   GL277270  32.119  17.470   6.150
10540POPC   C1A77271  32.273  17.556   6.450
10540POPC   D2A77272  32.206  17.461   6.750
10540POPC   C3A77273  32.214  17.465   7.050
10540POPC   C4A77274  32.206  17.507   7.350
10540POPC   C1B77275  31.963  17.488   6.450
10540POPC   C2B77276  32.002  17.485   6.750
10540POPC   C3B77277  32.041  17.536   7.050
10540POPC   C4B77278  31.987  17.497   7.350
10541POPC   NC377279  40.018  10.541   5.550
10541POPC   PO477280  40.016  10.569   5.850
10541POPC   GL177281  40.015  10.530   6.150
10541POPC   GL277282  40.104  10.628   6.150
10541POPC   C1A77283  40.030  10.506   6.450
10541POPC   D2A77284  39.974  10.480   6.750
10541POPC   C3A77285  40.042  10.525   7.050
10541POPC   C4A77286  40.048  10.563   7.350
10541POPC   C1B77287  40.191  10.602   6.450
10541POPC   C2B77288  40.258  10.666   6.750
10541POPC   C3B77289  40.243  10.616   7.050
10541POPC   C4B77290  40.232  10.626   7.350
10542POPC   NC377291  40.745   0.415   5.550
10542POPC   PO477292  40.799   0.434   5.850
10542POPC   GL177293  40.809   0.396   6.150
10542POPC   GL277294  40.675   0.566   6.150
10542POPC   C1A77295  40.739   0.394   6.450
10542POPC   D2A77296  40.770   0.470   6.750
10542POPC   C3A77297  40.822   0.426   7.050
10542POPC   C4A77298  40.737   0.428   7.350
10542POPC   C1B77299  40.592   0.599   6.450
10542POPC   C2B77300  40.628   0.576   6.750
10542POPC   C3B77301  40.578   0.575   7.050
10542POPC   C4B77302  40.554   0.584   7.350
10543POPC   NC377303  41.541   2.008   5.550
10543POPC   PO477304  41.553   1.953   5.850
10543POPC   GL177305  41.553   1.989   6.150
10543POPC   GL277306  41.559   2.104   6.150
10543POPC   C1A77307  41.563   2.007   6.450
10543POPC   D2A77308  41.585   2.030   6.750
10543POPC   C3A77309  41.540   1.974   7.050
10543POPC   C4A77310  41.562   1.978   7.350
10543POPC   C1B77311  41.508   2.230   6.450
10543POPC   C2B77312  41.543   2.201   6.750
10543POPC   C3B77313  41.545   2.270   7.050
10543POPC   C4B77314  41.555   2.260   7.350
10544POPC   NC377315  36.078   8.210   5.550
10544POPC   PO477316  36.158   8.235   5.850
10544POPC   GL177317  36.078   8.174   6.150
10544POPC   GL277318  36.246   8.156   6.150
10544POPC   C1A77319  36.120   8.181   6.450
10544POPC   D2A77320  36.122   8.239   6.750
10544POPC   C3A77321  36.089   8.219   7.050
10544POPC   C4A77322  36.089   8.161   7.350
10544POPC   C1B77323  36.347   8.002   6.450
10544POPC   C2B77324  36.357   8.056   6.750
10544POPC   C3B77325  36.294   8.039   7.050
10544POPC   C4B77326  36.357   8.008   7.350
10545POPC   NC377327  34.612  30.691   5.550
10545POPC   PO477328  34.586  30.667   5.850
10545POPC   GL177329  34.606  30.738   6.150
10545POPC   GL277330  34.453  30.646   6.150
10545POPC   C1A77331  34.604  30.744   6.450
10545POPC   D2A77332  34.527  30.660   6.750
10545POPC   C3A77333  34.586  30.739   7.050
10545POPC   C4A77334  34.534  30.655   7.350
10545POPC   C1B77335  34.343  30.650   6.450
10545POPC   C2B77336  34.369  30.626   6.750
10545POPC   C3B77337  34.324  30.665   7.050
10545POPC   C4B77338  34.366  30.686   7.350
10546POPC   NC377339  44.679  30.672   5.550
10546POPC   PO477340  44.657  30.706   5.850
10546POPC   GL177341  44.617  30.725   6.150
10546POPC   GL277342  44.701  30.803   6.150
10546POPC   C1A77343  44.705  30.719   6.450
10546POPC   D2A77344  44.688  30.743   6.750
10546POPC   C3A77345  44.621  30.733   7.050
10546POPC   C4A77346  44.664  30.691   7.350
10546POPC   C1B77347  44.764  30.919   6.450
10546POPC   C2B77348  44.740  30.963   6.750
10546POPC   C3B77349  44.760  30.949   7.050
10546POPC   C4B77350  44.710  30.974   7.350
10547POPC   NC377351  29.961  42.328   5.550
10547POPC   PO477352  29.937  42.308   5.850
10547POPC   GL177353  29.962  42.341   6.150
10547POPC   GL277354  29.761  42.277   6.150
10547POPC   C1A77355  29.969  42.292   6.450
10547POPC   D2A77356  29.888  42.384   6.750
10547POPC   C3A77357  29.969  42.353   7.050
10547POPC   C4A77358  29.969  42.337   7.350
10547POPC   C1B77359  29.626  42.337   6.450
10547POPC   C2B77360  29.691  42.274   6.750
10547POPC   C3B77361  29.637  42.310   7.050
10547POPC   C4B77362  29.720  42.272   7.350
10548POPC   NC377363  40.000  29.158   5.550
10548POPC   PO477364  39.963  29.175   5.850
10548POPC   GL177365  40.005  29.187   6.150
10548POPC   GL277366  40.094  29.305   6.150
10548POPC   C1A77367  40.013  29.153   6.450
10548POPC   D2A77368  39.977  29.143   6.750
10548POPC   C3A77369  40.028  29.191   7.050
10548POPC   C4A77370  40.026  29.179   7.350
10548POPC   C1B77371  40.120  29.422   6.450
10548POPC   C2B77372  40.053  29.412   6.750
10548POPC   C3B77373  40.103  29.358   7.050
10548POPC   C4B77374  40.102  29.413   7.350
10549POPC   NC377375  20.578  42.382   5.550
10549POPC   PO477376  20.652  42.373   5.850
10549POPC   GL177377  20.604  42.378   6.150
10549POPC   GL277378  20.764  42.313   6.150
10549POPC   C1A77379  20.640  42.327   6.450
10549POPC   D2A77380  20.644  42.344   6.750
10549POPC   C3A77381  20.621  42.329   7.050
10549POPC   C4A77382  20.585  42.297   7.350
10549POPC   C1B77383  20.901  42.350   6.450
10549POPC   C2B77384  20.855  42.280   6.750
10549POPC   C3B77385  20.839  42.335   7.050
10549POPC   C4B77386  20.878  42.363   7.350
10550POPC   NC377387  42.342  21.386   5.550
10550POPC   PO477388  42.360  21.427   5.850
10550POPC   GL177389  42.306  21.380   6.150
10550POPC   GL277390  42.197  21.294   6.150
10550POPC   C1A77391  42.331  21.367   6.450
10550POPC   D2A77392  42.341  21.389   6.750
10550POPC   C3A77393  42.355  21.415   7.050
10550POPC   C4A77394  42.293  21.385   7.350
10550POPC   C1B77395  42.081  21.235   6.450
10550POPC   C2B77396  42.089  21.299   6.750
10550POPC   C3B77397  42.083  21.270   7.050
10550POPC   C4B77398  42.128  21.288   7.350
10551POPC   NC377399  30.679   5.096   5.550
10551POPC   PO477400  30.743   5.119   5.850
10551POPC   GL177401  30.668   5.135   6.150
10551POPC   GL277402  30.808   5.115   6.150
10551POPC   C1A77403  30.714   5.136   6.450
10551POPC   D2A77404  30.673   5.112   6.750
10551POPC   C3A77405  30.676   5.121   7.050
10551POPC   C4A77406  30.684   5.123   7.350
10551POPC   C1B77407  30.874   5.159   6.450
10551POPC   C2B77408  30.932   5.204   6.750
10551POPC   C3B77409  30.955   5.191   7.050
10551POPC   C4B77410  30.894   5.186   7.350
10552POPC   NC377411  20.567  25.243   5.550
10552POPC   PO477412  20.627  25.233   5.850
10552POPC   GL177413  20.657  25.288   6.150
10552POPC   GL277414  20.584  25.171   6.150
10552POPC   C1A77415  20.595  25.259   6.450
10552POPC   D2A77416  20.612  25.267   6.750
10552POPC   C3A77417  20.578  25.224   7.050
10552POPC   C4A77418  20.652  25.306   7.350
10552POPC   C1B77419  20.615  25.023   6.450
10552POPC   C2B77420  20.617  24.987   6.750
10552POPC   C3B77421  20.637  25.017   7.050
10552POPC   C4B77422  20.601  24.984   7.350
10553POPC   NC377423  38.501   7.437   5.550
10553POPC   PO477424  38.471   7.432   5.850
10553POPC   GL177425  38.438   7.379   6.150
10553POPC   GL277426  38.453   7.556   6.150
10553POPC   C1A77427  38.456   7.391   6.450
10553POPC   D2A77428  38.429   7.428   6.750
10553POPC   C3A77429  38.438   7.425   7.050
10553POPC   C4A77430  38.420   7.460   7.350
10553POPC   C1B77431  38.438   7.654   6.450
10553POPC   C2B77432  38.377   7.709   6.750
10553POPC   C3B77433  38.449   7.628   7.050
10553POPC   C4B77434  38.425   7.680   7.350
10554POPC   NC377435  42.366  20.640   5.550
10554POPC   PO477436  42.359  20.581   5.850
10554POPC   GL177437  42.341  20.576   6.150
10554POPC   GL277438  42.386  20.770   6.150
10554POPC   C1A77439  42.325  20.611   6.450
10554POPC   D2A77440  42.322  20.633   6.750
10554POPC   C3A77441  42.293  20.641   7.050
10554POPC   C4A77442  42.359  20.652   7.350
10554POPC   C1B77443  42.480  20.880   6.450
10554POPC   C2B77444  42.449  20.838   6.750
10554POPC   C3B77445  42.475  20.858   7.050
10554POPC   C4B77446  42.441  20.846   7.350
10555POPC   NC377447  26.081  29.890   5.550
10555POPC   PO477448  26.036  29.875   5.850
10555POPC   GL177449  26.065  29.921   6.150
10555POPC   GL277450  25.925  29.855   6.150
10555POPC   C1A77451  26.069  29.912   6.450
10555POPC   D2A77452  26.089  29.874   6.750
10555POPC   C3A77453  26.056  29.876   7.050
10555POPC   C4A77454  26.026  29.880   7.350
10555POPC   C1B77455  25.814  29.768   6.450
10555POPC   C2B77456  25.849  29.716   6.750
10555POPC   C3B77457  25.835  29.762   7.050
10555POPC   C4B77458  25.847  29.725   7.350
10556POPC   NC377459   9.777  43.064   5.550
10556POPC   PO477460   9.776  43.086   5.850
10556POPC   GL177461   9.784  43.081   6.150
10556POPC   GL277462   9.832  42.987   6.150
10556POPC   C1A77463   9.768  43.067   6.450
10556POPC   D2A77464   9.736  43.126   6.750
10556POPC   C3A77465   9.704  43.127   7.050
10556POPC   C4A77466   9.716  43.065   7.350
10556POPC   C1B77467   9.947  42.977   6.450
10556POPC   C2B77468   9.923  42.977   6.750
10556POPC   C3B77469   9.903  42.972   7.050
10556POPC   C4B77470   9.894  42.957   7.350
10557POPC   NC377471  26.792  15.998   5.550
10557POPC   PO477472  26.807  15.978   5.850
10557POPC   GL177473  26.794  15.923   6.150
10557POPC   GL277474  26.913  15.840   6.150
10557POPC   C1A77475  26.823  15.917   6.450
10557POPC   D2A77476  26.777  15.959   6.750
10557POPC   C3A77477  26.867  16.003   7.050
10557POPC   C4A77478  26.844  15.941   7.350
10557POPC   C1B77479  26.953  15.748   6.450
10557POPC   C2B77480  27.003  15.779   6.750
10557POPC   C3B77481  27.030  15.783   7.050
10557POPC   C4B77482  26.949  15.770   7.350
10558POPC   NC377483  25.299   5.065   5.550
10558POPC   PO477484  25.282   5.122   5.850
10558POPC   GL177485  25.282   5.049   6.150
10558POPC   GL277486  25.317   5.013   6.150
10558POPC   C1A77487  25.224   5.106   6.450
10558POPC   D2A77488  25.240   5.049   6.750
10558POPC   C3A77489  25.264   5.081   7.050
10558POPC   C4A77490  25.227   5.138   7.350
10558POPC   C1B77491  25.310   4.827   6.450
10558POPC   C2B77492  25.325   4.814   6.750
10558POPC   C3B77493  25.307   4.841   7.050
10558POPC   C4B77494  25.293   4.874   7.350
10559POPC   NC377495  18.258  12.106   5.550
10559POPC   PO477496  18.296  12.105   5.850
10559POPC   GL177497  18.313  12.054   6.150
10559POPC   GL277498  18.313  12.233   6.150
10559POPC   C1A77499  18.319  12.044   6.450
10559POPC   D2A77500  18.241  12.104   6.750
10559POPC   C3A77501  18.250  12.036   7.050
10559POPC   C4A77502  18.279  12.111   7.350
10559POPC   C1B77503  18.392  12.356   6.450
10559POPC   C2B77504  18.362  12.339   6.750
10559POPC   C3B77505  18.323  12.345   7.050
10559POPC   C4B77506  18.369  12.272   7.350
10560POPC   NC377507  39.200   1.239   5.550
10560POPC   PO477508  39.221   1.251   5.850
10560POPC   GL177509  39.190   1.236   6.150
10560POPC   GL277510  39.103   1.135   6.150
10560POPC   C1A77511  39.211   1.206   6.450
10560POPC   D2A77512  39.203   1.248   6.750
10560POPC   C3A77513  39.251   1.218   7.050
10560POPC   C4A77514  39.215   1.194   7.350
10560POPC   C1B77515  39.033   1.134   6.450
10560POPC   C2B77516  39.032   1.138   6.750
10560POPC   C3B77517  39.012   1.105   7.050
10560POPC   C4B77518  39.029   1.113   7.350
10561POPC   NC377519  34.534  44.650   5.550
10561POPC   PO477520  34.597  44.621   5.850
10561POPC   GL177521  34.612  44.703   6.150
10561POPC   GL277522  34.549  44.575   6.150
10561POPC   C1A77523  34.557  44.671   6.450
10561POPC   D2A77524  34.545  44.700   6.750
10561POPC   C3A77525  34.559  44.659   7.050
10561POPC   C4A77526  34.621  44.665   7.350
10561POPC   C1B77527  34.489  44.409   6.450
10561POPC   C2B77528  34.536  44.409   6.750
10561POPC   C3B77529  34.546  44.403   7.050
10561POPC   C4B77530  34.498  44.404   7.350
10562POPC   NC377531  18.249   0.436   5.550
10562POPC   PO477532  18.233   0.488   5.850
10562POPC   GL177533  18.258   0.389   6.150
10562POPC   GL277534  18.269   0.305   6.150
10562POPC   C1A77535  18.266   0.479   6.450
10562POPC   D2A77536  18.243   0.455   6.750
10562POPC   C3A77537  18.307   0.443   7.050
10562POPC   C4A77538  18.263   0.479   7.350
10562POPC   C1B77539  18.250   0.165   6.450
10562POPC   C2B77540  18.245   0.173   6.750
10562POPC   C3B77541  18.160   0.167   7.050
10562POPC   C4B77542  18.236   0.202   7.350
10563POPC   NC377543   0.471  38.500   5.550
10563POPC   PO477544   0.485  38.486   5.850
10563POPC   GL177545   0.487  38.493   6.150
10563POPC   GL277546   0.371  38.404   6.150
10563POPC   C1A77547   0.450  38.477   6.450
10563POPC   D2A77548   0.427  38.442   6.750
10563POPC   C3A77549   0.400  38.445   7.050
10563POPC   C4A77550   0.474  38.478   7.350
10563POPC   C1B77551   0.196  38.253   6.450
10563POPC   C2B77552   0.213  38.319   6.750
10563POPC   C3B77553   0.216  38.286   7.050
10563POPC   C4B77554   0.215  38.332   7.350
10564POPC   NC377555  17.546  15.970   5.550
10564POPC   PO477556  17.546  15.980   5.850
10564POPC   GL177557  17.474  15.964   6.150
10564POPC   GL277558  17.585  15.870   6.150
10564POPC   C1A77559  17.529  15.963   6.450
10564POPC   D2A77560  17.514  15.926   6.750
10564POPC   C3A77561  17.546  15.917   7.050
10564POPC   C4A77562  17.468  15.935   7.350
10564POPC   C1B77563  17.696  15.804   6.450
10564POPC   C2B77564  17.721  15.823   6.750
10564POPC   C3B77565  17.695  15.802   7.050
10564POPC   C4B77566  17.687  15.896   7.350
10565POPC   NC377567   0.403   0.392   5.550
10565POPC   PO477568   0.470   0.455   5.850
10565POPC   GL177569   0.452   0.460   6.150
10565POPC   GL277570   0.509   0.453   6.150
10565POPC   C1A77571   0.462   0.391   6.450
10565POPC   D2A77572   0.393   0.446   6.750
10565POPC   C3A77573   0.390   0.424   7.050
10565POPC   C4A77574   0.482   0.389   7.350
10565POPC   C1B77575   0.669   0.579   6.450
10565POPC   C2B77576   0.628   0.580   6.750
10565POPC   C3B77577   0.691   0.546   7.050
10565POPC   C4B77578   0.642   0.494   7.350
10566POPC   NC377579   6.622  28.340   5.550
10566POPC   PO477580   6.617  28.383   5.850
10566POPC   GL177581   6.601  28.342   6.150
10566POPC   GL277582   6.568  28.258   6.150
10566POPC   C1A77583   6.633  28.392   6.450
10566POPC   D2A77584   6.609  28.380   6.750
10566POPC   C3A77585   6.597  28.360   7.050
10566POPC   C4A77586   6.610  28.345   7.350
10566POPC   C1B77587   6.444  28.186   6.450
10566POPC   C2B77588   6.429  28.195   6.750
10566POPC   C3B77589   6.464  28.235   7.050
10566POPC   C4B77590   6.478  28.190   7.350
10567POPC   NC377591  39.207  29.916   5.550
10567POPC   PO477592  39.211  29.903   5.850
10567POPC   GL177593  39.269  29.945   6.150
10567POPC   GL277594  39.304  29.973   6.150
10567POPC   C1A77595  39.261  29.910   6.450
10567POPC   D2A77596  39.205  29.946   6.750
10567POPC   C3A77597  39.219  29.872   7.050
10567POPC   C4A77598  39.243  29.903   7.350
10567POPC   C1B77599  39.390  30.107   6.450
10567POPC   C2B77600  39.460  30.086   6.750
10567POPC   C3B77601  39.445  30.081   7.050
10567POPC   C4B77602  39.384  30.050   7.350
10568POPC   NC377603  36.881   8.952   5.550
10568POPC   PO477604  36.899   8.988   5.850
10568POPC   GL177605  36.916   8.957   6.150
10568POPC   GL277606  36.973   8.959   6.150
10568POPC   C1A77607  36.945   8.965   6.450
10568POPC   D2A77608  36.890   9.015   6.750
10568POPC   C3A77609  36.862   8.994   7.050
10568POPC   C4A77610  36.876   8.984   7.350
10568POPC   C1B77611  37.082   8.901   6.450
10568POPC   C2B77612  37.157   8.829   6.750
10568POPC   C3B77613  37.165   8.856   7.050
10568POPC   C4B77614  37.131   8.888   7.350
10569POPC   NC377615  29.960  36.906   5.550
10569POPC   PO477616  29.956  36.943   5.850
10569POPC   GL177617  29.893  36.930   6.150
10569POPC   GL277618  29.894  36.750   6.150
10569POPC   C1A77619  29.940  36.919   6.450
10569POPC   D2A77620  29.950  36.865   6.750
10569POPC   C3A77621  29.883  36.914   7.050
10569POPC   C4A77622  29.918  36.925   7.350
10569POPC   C1B77623  29.818  36.654   6.450
10569POPC   C2B77624  29.823  36.709   6.750
10569POPC   C3B77625  29.806  36.665   7.050
10569POPC   C4B77626  29.762  36.664   7.350
10570POPC   NC377627   7.374  31.463   5.550
10570POPC   PO477628   7.390  31.426   5.850
10570POPC   GL177629   7.404  31.445   6.150
10570POPC   GL277630   7.331  31.468   6.150
10570POPC   C1A77631   7.372  31.491   6.450
10570POPC   D2A77632   7.391  31.463   6.750
10570POPC   C3A77633   7.453  31.503   7.050
10570POPC   C4A77634   7.379  31.486   7.350
10570POPC   C1B77635   7.221  31.440   6.450
10570POPC   C2B77636   7.176  31.478   6.750
10570POPC   C3B77637   7.208  31.496   7.050
10570POPC   C4B77638   7.194  31.507   7.350
10571W        W77639  43.902  44.879   3.235
10572W        W77640  37.454  41.036  11.554
10573W        W77641   4.374  20.733  13.840
10574W        W77642   7.737  34.002  10.626
10575W        W77643  26.622  43.844   4.225
10576W        W77644  31.545   0.358  14.969
10577W        W77645  31.092  11.160  14.405
10578W        W77646   4.224  42.882  12.824
10579W        W77647  14.739  22.610   0.294
10580W        W77648  44.906  27.953   4.220
10581W        W77649  38.946   7.872   4.644
10582W        W77650  15.672   6.276  12.897
10583W        W77651  19.726  22.583   2.714
10584W        W77652  40.881  33.894  10.408
10585W        W77653  21.696   0.257   0.359
10586W        W77654  30.102  11.170   2.772
10587W        W77655  33.570  43.776   4.156
10588W        W77656  14.662  41.975   2.774
10589W        W77657   3.302  20.569  12.900
10590W        W77658  17.626  24.530   4.275
10591W        W77659  24.987  44.413   3.640
10592W        W77660  42.928  16.313   4.193
10593W        W77661  11.841  28.644  11.981
10594W        W77662  29.089  33.990  11.569
10595W        W77663  26.626   9.222  11.945
10596W        W77664  24.070   6.685  12.032
10597W        W77665   6.224  19.561   1.321
10598W        W77666  30.084  34.388   5.611
10599W        W77667   3.865  29.588   2.295
10600W        W77668   3.754  10.839   2.194
10601W        W77669  43.381  14.321   9.962
10602W        W77670   3.767  41.832   0.449
10603W        W77671  13.826  42.325   1.852
10604W        W77672  26.690   7.328  10.923
10605W        W77673  44.402  10.305  14.290
10606W        W77674  31.433   1.311   3.729
10607W        W77675  19.545  25.482   0.292
10608W        W77676  11.154  15.686   0.348
10609W        W77677  38.963  43.487   0.763
10610W        W77678  21.614  28.607   0.415
10611W        W77679   2.939  35.928  13.362
10612W        W77680  30.540  35.930   0.431
10613W        W77681  27.571  28.581  11.106
10614W        W77682   6.764  27.110  13.856
10615W        W77683  33.989   2.266   0.326
10616W        W77684   1.421  26.459  14.840
10617W        W77685  26.017   6.333  10.617
10618W        W77686  37.983  32.960   3.808
10619W        W77687  33.083  40.526  10.532
10620W        W77688  11.329  20.565  13.000
10621W        W77689  22.523   9.753  11.465
10622W        W77690  43.823  29.953  12.877
10623W        W77691  18.207  13.197  11.539
10624W        W77692  26.621  27.147   3.148
10625W        W77693   8.186  10.192  10.518
10626W        W77694   2.826   6.381  11.995
10627W        W77695  39.404  40.983  14.396
10628W        W77696   2.412  36.581   1.422
10629W        W77697  22.623  24.143  11.413
10630W        W77698  34.471  18.714   1.838
10631W        W77699  34.059  27.688  10.080
10632W        W77700  10.754  17.157  12.424
10633W        W77701  19.640   2.863   0.386
10634W        W77702   0.468   4.799   0.842
10635W        W77703  34.028  32.899   0.781
10636W        W77704  17.719   2.728  13.509
10637W        W77705  23.168  14.595  11.479
10638W        W77706  37.520  39.452  11.996
10639W        W77707  37.510  20.165  11.124
10640W        W77708   1.272   5.932   4.827
10641W        W77709   9.874  38.460   3.149
10642W        W77710  12.205   8.836   4.355
10643W        W77711  32.052  35.914   2.899
10644W        W77712  25.576   0.767  12.444
10645W        W77713  14.673   4.327   4.626
10646W        W77714  34.010  16.719  11.411
10647W        W77715  40.405   6.362   0.912
10648W        W77716  20.738  20.752  13.316
10649W        W77717  25.118  25.135  13.380
10650W        W77718  13.209  21.610   1.361
10651W        W77719  37.893   9.666   2.293
10652W        W77720  28.548   0.864  14.971
10653W        W77721  23.494   3.768  13.868
10654W        W77722  40.896  14.698  13.823
10655W        W77723  20.748  22.562  13.901
10656W        W77724  35.573  44.880   0.787
10657W        W77725   1.953  10.282   2.891
10658W        W77726  42.894   1.356  11.420
10659W        W77727  12.244  20.667  11.037
10660W        W77728  34.904   6.734   1.223
10661W        W77729  25.509  42.884  12.903
10662W        W77730  34.877  12.127  11.008
10663W        W77731  33.385  33.536  14.810
10664W        W77732   2.341  40.900   1.377
10665W        W77733  39.852  26.963  12.949
10666W        W77734  38.375  34.913  11.876
10667W        W77735  37.904  42.371  12.047
10668W        W77736   7.816   5.864  13.446
10669W        W77737  34.520   0.438  10.459
10670W        W77738  12.642  39.939   4.778
10671W        W77739   0.352   9.679  14.509
10672W        W77740  43.867   6.802   4.218
10673W        W77741  35.958  23.194   4.203
10674W        W77742  27.458  11.719  10.480
10675W        W77743  30.587   6.199   0.818
10676W        W77744  21.619   9.177  11.876
10677W        W77745  33.621   2.332  11.474
10678W        W77746  30.084  12.257   1.285
10679W        W77747   1.929  12.821   3.825
10680W        W77748  18.254  32.466  12.843
10681W        W77749   0.257  15.705   0.348
10682W        W77750  14.625  42.349  11.988
10683W        W77751  36.482   0.944   4.770
10684W        W77752  12.155  41.334   2.879
10685W        W77753  40.302  32.096  12.556
10686W        W77754  23.204   0.754   0.253
10687W        W77755  20.028  30.535  11.966
10688W        W77756  22.528  44.793  10.577
10689W        W77757  16.801  44.875  11.856
10690W        W77758   7.842  16.245  11.475
10691W        W77759  22.697  20.226   4.676
10692W        W77760  35.598  10.242  11.987
10693W        W77761  39.409   0.989   2.662
10694W        W77762  21.601   9.340  10.602
10695W        W77763  20.181  12.772   5.122
10696W        W77764  38.021  42.798  13.537
10697W        W77765  25.567  26.610  14.275
10698W        W77766  23.987   6.398  12.083
10699W        W77767  14.674  35.871   1.412
10700W        W77768  12.663  23.653  10.573
10701W        W77769  28.067  12.287   0.376
10702W        W77770   0.775  37.353   4.773
10703W        W77771   2.275  25.628   2.229
10704W        W77772  13.298  37.038  12.404
10705W        W77773   1.870  18.746   2.218
10706W        W77774   2.447  36.405  10.496
10707W        W77775  31.410  36.513   2.673
10708W        W77776  43.383   4.358   3.214
10709W        W77777   3.844  38.906  11.891
10710W        W77778   1.279   9.715  14.353
10711W        W77779   0.773  36.520   1.319
10712W        W77780  25.541  16.702   2.369
10713W        W77781  21.038  10.154  13.864
10714W        W77782  28.627   8.695  10.441
10715W        W77783  40.968  22.078   0.929
10716W        W77784  42.319  31.024   3.315
10717W        W77785   3.447  16.146   0.318
10718W        W77786  12.821  43.897   3.368
10719W        W77787  26.966  19.608   1.759
10720W        W77788  38.958  24.070  11.111
10721W        W77789  21.080   4.749   1.796
10722W        W77790  27.005   5.295  10.567
10723W        W77791  23.570  42.403  12.459
10724W        W77792  11.341   6.898   1.805
10725W        W77793  18.607  31.153   4.327
10726W        W77794  20.554   6.801   4.798
10727W        W77795  41.854  31.055  11.396
10728W        W77796  28.556  16.216   2.292
10729W        W77797  35.883  39.877   4.609
10730W        W77798  22.573  29.439   3.353
10731W        W77799  14.320  42.788   1.378
10732W        W77800  35.088  15.681   1.235
10733W        W77801  17.126  41.920  13.468
10734W        W77802  44.419   3.857   3.857
10735W        W77803  22.727   2.733  10.486
10736W        W77804  23.006  42.965  11.028
10737W        W77805  43.309  26.143   0.256
10738W        W77806  20.587  25.655  11.449
10739W        W77807  20.762  35.936   4.624
10740W        W77808  28.441  14.671   1.429
10741W        W77809  10.690   0.312   3.705
10742W        W77810  29.056   5.439   1.716
10743W        W77811   2.725  43.395   3.663
10744W        W77812  31.419  23.667  11.005
10745W        W77813  13.695  25.092  13.853
10746W        W77814   5.748  32.026  11.045
10747W        W77815  13.107  22.150   3.838
10748W        W77816  27.668  18.207   1.431
10749W        W77817   0.440  31.978   2.805
10750W        W77818  18.604  28.131  11.075
10751W        W77819   4.366  44.949  10.977
10752W        W77820  11.824  43.333   1.311
10753W        W77821  25.964   1.250  12.482
10754W        W77822  35.357   6.427   1.789
10755W        W77823  40.020  32.945  14.856
10756W        W77824  19.233  20.221   4.139
10757W        W77825   3.361  33.960  10.438
10758W        W77826  37.848  14.247  13.999
10759W        W77827  39.323   1.402  11.019
10760W        W77828  27.582  25.509   2.292
10761W        W77829  12.814  36.065   1.317
10762W        W77830  24.689  23.602  11.859
10763W        W77831   7.376   0.401  11.098
10764W        W77832  43.289  38.023   4.315
10765W        W77833  33.626  24.145   0.314
10766W        W77834  31.077  15.253  13.057
10767W        W77835  12.315  23.164   0.778
10768W        W77836  29.532  44.318   0.759
10769W        W77837  42.324  40.444  11.491
10770W        W77838  29.935   0.947  13.356
10771W        W77839  42.425  26.529   0.405
10772W        W77840  18.111  30.525  10.009
10773W        W77841  38.831  24.673  13.920
10774W        W77842  20.529  36.541  11.606
10775W        W77843   1.815   2.408  12.838
10776W        W77844  11.196  12.811  11.963
10777W        W77845  11.848  18.145  13.061
10778W        W77846  24.583  42.875   3.789
10779W        W77847  41.500  41.482  14.819
10780W        W77848  10.155   4.362   4.714
10781W        W77849  31.085  20.129  11.595
10782W        W77850  37.994   5.301   0.424
10783W        W77851  11.147  41.447   0.760
10784W        W77852  22.706  14.776  13.021
10785W        W77853  33.467   7.362  13.493
10786W        W77854  33.449  30.957  10.478
10787W        W77855  14.312  11.681   2.754
10788W        W77856  39.937  12.745   0.866
10789W        W77857  10.703  23.229  14.344
10790W        W77858  28.159  36.859  14.428
10791W        W77859  21.557   0.803   3.269
10792W        W77860  31.548  37.518   2.749
10793W        W77861  14.315  26.117   1.866
10794W        W77862  38.867   1.857   1.217
10795W        W77863  42.028  12.307  11.985
10796W        W77864  21.218  43.959  11.952
10797W        W77865  15.747  44.292  14.290
10798W        W77866   7.201  36.978   0.906
10799W        W77867  44.437  40.919   0.418
10800W        W77868  17.582  42.954  12.931
10801W        W77869  38.454  14.197  12.924
10802W        W77870  31.429  18.646   3.253
10803W        W77871  40.312  38.418   3.355
10804W        W77872  15.272  34.941   4.267
10805W        W77873  29.565  17.207  11.084
10806W        W77874  31.122   0.804   2.259
10807W        W77875   4.220  44.298  11.606
10808W        W77876  27.502  17.148  13.980
10809W        W77877   2.865   0.371  12.384
10810W        W77878  43.988  27.138  11.550
10811W        W77879  17.646  17.624   4.122
10812W        W77880  15.207   6.889  14.846
10813W        W77881   6.246  37.383  12.049
10814W        W77882  30.629  10.731   1.706
10815W        W77883   1.966  25.512  10.929
10816W        W77884  33.075  32.581  14.391
10817W        W77885  30.572   3.818  14.843
10818W        W77886  20.064  11.790  12.561
10819W        W77887  21.523   8.662  12.366
10820W        W77888  28.623  37.915   0.820
10821W        W77889  16.741   6.187   3.171
10822W        W77890  12.303   5.286  13.999
10823W        W77891  32.529   9.736   0.919
10824W        W77892  19.587  13.281  11.920
10825W        W77893  17.209  19.136   4.738
10826W        W77894  40.974  28.536  12.914
10827W        W77895   9.301  34.989   0.836
10828W        W77896  12.787  22.139   1.210
10829W        W77897  42.005  13.639   0.784
10830W        W77898   0.270   7.335   1.415
10831W        W77899  10.343  43.879   2.206
10832W        W77900  20.732  23.113   3.252
10833W        W77901   4.840  13.719  14.945
10834W        W77902  33.477  29.997   0.873
10835W        W77903  18.222  35.965  12.993
10836W        W77904  39.882  36.523   0.782
10837W        W77905  44.263  28.680  11.578
10838W        W77906  11.359  17.106   3.211
10839W        W77907  30.060  24.057   3.163
10840W        W77908  11.360  40.997   3.835
10841W        W77909  17.072  24.031  13.407
10842W        W77910  10.705  44.966   0.448
10843W        W77911  22.245  22.517   2.673
10844W        W77912   9.381  31.952  14.373
10845W        W77913   5.377  30.929   3.724
10846W        W77914  44.301  44.931  13.538
10847W        W77915  10.664  38.458  14.006
10848W        W77916  19.182  37.394   3.282
10849W        W77917  16.791   0.860   0.955
10850W        W77918   5.369  14.156   1.800
10851W        W77919   7.234  18.774   0.463
10852W        W77920  25.043   6.867   3.163
10853W        W77921  32.064  26.183   0.758
10854W        W77922   1.387  17.069   1.720
10855W        W77923  24.999  42.019  13.946
10856W        W77924  34.481   0.950  13.806
10857W        W77925  12.176  36.444   3.652
10858W        W77926  39.995  43.003   5.082
10859W        W77927   8.214  17.566  13.326
10860W        W77928  34.958  38.987  11.449
10861W        W77929  44.266  39.457  14.417
10862W        W77930   5.731   6.375  14.977
10863W        W77931  41.305  36.357  12.869
10864W        W77932  35.050  15.716   1.768
10865W        W77933   7.364  19.600   3.277
10866W        W77934  23.096  41.839  13.882
10867W        W77935  13.170  37.380   3.723
10868W        W77936  24.577   0.755  13.942
10869W        W77937   6.807   9.185  13.964
10870W        W77938  32.394  37.564   1.786
10871W        W77939  32.082   6.879  10.456
10872W        W77940  29.057   9.884   2.326
10873W        W77941  12.630  42.465   3.676
10874W        W77942  39.502  31.990   0.792
10875W        W77943   4.938   0.752   3.808
10876W        W77944  18.758  35.918   0.283
10877W        W77945   0.931  21.046  14.299
10878W        W77946  36.496  18.677   2.722
10879W        W77947  39.399   4.299   2.900
10880W        W77948  18.240  40.955  11.942
10881W        W77949   2.282  32.586  14.294
10882W        W77950  34.928  38.350   3.364
10883W        W77951  24.676  33.903  12.966
10884W        W77952   3.269   6.212  10.573
10885W        W77953  29.511  35.907   1.762
10886W        W77954  42.797  15.246   2.693
10887W        W77955  43.798   2.952  12.504
10888W        W77956  36.513  33.966  13.426
10889W        W77957  19.065  33.505   2.734
10890W        W77958  30.100  41.034   2.382
10891W        W77959  23.646  28.996  13.834
10892W        W77960  10.345  32.950  10.951
10893W        W77961  21.043  42.400   2.786
10894W        W77962  22.102  14.814   2.819
10895W        W77963  30.085   2.793   1.909
10896W        W77964  38.507   8.280  13.002
10897W        W77965  25.691  26.650   3.673
10898W        W77966  40.328   3.863  12.398
10899W        W77967   3.267   2.864   1.808
10900W        W77968  13.148  19.662   1.741
10901W        W77969  39.894   6.889  13.009
10902W        W77970  16.290  42.508   2.251
10903W        W77971  37.924  21.084   4.633
10904W        W77972  35.000  12.617   4.694
10905W        W77973  17.230  26.639  10.587
10906W        W77974  16.105   9.289  10.517
10907W        W77975   5.782  10.865  11.094
10908W        W77976   5.227  40.919  13.450
10909W        W77977  25.575  39.867   1.771
10910W        W77978  36.552  39.510  13.386
10911W        W77979  28.008  33.383  13.970
10912W        W77980   8.252  22.648  11.089
10913W        W77981  28.457  37.567   2.268
10914W        W77982  36.844  19.240  13.400
10915W        W77983  19.182  19.600   3.281
10916W        W77984  11.811  38.825  13.407
10917W        W77985  17.786  16.798  11.991
10918W        W77986  33.612  15.155   1.379
10919W        W77987  16.152  29.030   2.249
10920W        W77988  43.882  11.627  14.933
10921W        W77989  31.550  30.509   1.275
10922W        W77990  28.488  30.976   4.707
10923W        W77991  36.904  35.074   0.310
10924W        W77992  39.041  42.329   4.667
10925W        W77993  29.509  37.451   5.144
10926W        W77994  26.959  14.183  10.933
10927W        W77995   5.368  40.323  11.441
10928W        W77996  38.515   1.481   4.259
10929W        W77997  10.771  11.211  11.388
10930W        W77998  35.908  31.945   3.823
10931W        W77999  42.886  30.994  11.553
10932W        W78000  11.656  31.473  14.829
10933W        W78001  20.213  38.483   0.787
10934W        W78002   6.902  35.103  11.029
10935W        W78003  24.666  25.978  11.605
10936W        W78004   3.387   1.381  11.992
10937W        W78005  42.360   8.861  13.839
10938W        W78006  23.646  22.714   3.384
10939W        W78007  12.645  37.412   5.297
10940W        W78008  31.455  21.124  14.374
10941W        W78009  44.813  43.938   3.366
10942W        W78010  42.356  28.468   1.734
10943W        W78011   1.912  44.386  13.052
10944W        W78012  15.287   1.892   0.298
10945W        W78013  14.135  42.839   0.959
10946W        W78014  34.594   5.689  14.491
10947W        W78015  19.060   1.476  14.901
10948W        W78016  22.228   7.364  12.859
10949W        W78017  35.928  31.642   2.817
10950W        W78018  15.097  11.134   1.267
10951W        W78019   6.686   9.197  12.911
10952W        W78020  21.751   1.896   4.126
10953W        W78021   0.406   8.213   4.216
10954W        W78022  35.406   6.755   4.747
10955W        W78023  32.614  16.218  13.800
10956W        W78024  19.215  10.191   0.749
10957W        W78025  44.442  22.113   2.191
10958W        W78026  26.527  15.209  14.816
10959W        W78027  19.747  16.278  13.794
10960W        W78028   0.409  39.344  13.407
10961W        W78029  38.068  37.085  14.896
10962W        W78030  21.707  20.254   2.707
10963W        W78031  32.072   5.281  12.877
10964W        W78032  41.838   9.739  10.952
10965W        W78033  34.581   9.850   2.819
10966W        W78034  28.449  36.577   4.195
10967W        W78035  43.294  38.997  12.831
10968W        W78036  41.987  30.490  11.048
10969W        W78037  31.045  43.314   4.831
10970W        W78038   4.284   8.896  14.015
10971W        W78039  29.038  15.267  13.336
10972W        W78040  17.081  36.483  12.537
10973W        W78041  27.549   0.396  10.505
10974W        W78042  41.034  26.691   0.292
10975W        W78043   9.882  32.924   2.383
10976W        W78044  32.448  17.711   4.652
10977W        W78045  21.051  16.636  10.407
10978W        W78046   1.958  15.149  14.845
10979W        W78047  42.931  18.760   3.842
10980W        W78048  13.707  34.527   2.683
10981W        W78049  44.449   3.749   2.807
10982W        W78050   9.775  29.021   0.806
10983W        W78051  17.066  29.080   4.173
10984W        W78052   1.244  19.718  14.961
10985W        W78053  10.776  11.252  11.901
10986W        W78054   1.363  11.867  13.520
10987W        W78055  30.135   1.923   3.258
10988W        W78056  44.908  44.860  12.995
10989W        W78057   7.238  18.082   1.387
10990W        W78058  35.598  13.264  11.880
10991W        W78059  38.837  33.548  10.151
10992W        W78060  18.581  44.450  13.523
10993W        W78061  42.802  29.036   0.278
10994W        W78062  17.102  26.598  14.925
10995W        W78063  25.157   7.298   2.378
10996W        W78064  36.462  10.867   0.409
10997W        W78065  15.735  19.735   1.422
10998W        W78066  42.460  16.747   4.133
10999W        W78067  30.468  20.590  10.924
11000W        W78068  25.507  44.784  12.518
11001W        W78069  29.936   6.293   3.634
11002W        W78070  23.547  39.868  12.854
11003W        W78071  16.658  39.020   0.419
11004W        W78072  14.322  34.495  11.109
11005W        W78073   3.274  38.374  11.072
11006W        W78074   2.427  40.503  13.372
11007W        W78075  29.992   8.187   2.361
11008W        W78076  33.999  29.558  14.383
11009W        W78077  30.929  25.591   4.144
11010W        W78078  16.720   8.214  12.877
11011W        W78079   2.927  33.407   0.438
11012W        W78080   1.845  27.680   0.302
11013W        W78081  25.467  44.319  14.344
11014W        W78082  42.898  21.108   2.222
11015W        W78083  36.987  14.340  11.547
11016W        W78084  11.735  44.882   1.253
11017W        W78085   4.924  29.019  13.348
11018W        W78086  44.397  41.466   1.914
11019W        W78087   1.393   6.858   4.123
11020W        W78088  18.747  31.941   0.284
11021W        W78089   8.774  32.924  13.840
11022W        W78090   1.483  41.506  11.083
11023W        W78091   6.262   4.698   3.687
11024W        W78092  30.144  44.490  11.856
11025W        W78093  14.165   0.327  13.422
11026W        W78094  41.412  25.591   4.732
11027W        W78095  28.561  39.369  10.891
11028W        W78096  41.990  14.121  10.474
11029W        W78097   8.852  30.127  10.544
11030W        W78098  28.522  35.089   1.825
11031W        W78099  18.670  25.970  11.501
11032W        W78100  36.528   3.348   0.254
11033W        W78101  17.110   4.913  10.995
11034W        W78102  31.031   5.251   4.657
11035W        W78103  37.481  23.994   4.658
11036W        W78104  12.266   7.177  10.599
11037W        W78105  42.961   4.868   3.768
11038W        W78106   2.439  36.860   0.374
11039W        W78107  41.996  22.728   0.741
11040W        W78108  14.817  13.325  13.939
11041W        W78109  43.779  31.612   1.879
11042W        W78110  20.274  30.072  10.035
11043W        W78111   2.323  32.521  13.400
11044W        W78112  44.905  28.568  11.949
11045W        W78113  37.837  28.652   3.762
11046W        W78114  40.526  26.024   0.823
11047W        W78115   4.773   2.812   0.464
11048W        W78116  10.214   2.908   5.225
11049W        W78117   4.330  16.138   0.448
11050W        W78118  25.674   2.353   1.922
11051W        W78119   4.382  21.062  11.916
11052W        W78120  33.897  36.538  10.503
11053W        W78121  30.581   0.926  11.901
11054W        W78122  44.324  35.589  12.892
11055W        W78123  16.798  40.415   2.691
11056W        W78124   0.947  38.922   3.303
11057W        W78125  26.079  25.095   2.338
11058W        W78126  10.737  38.907  14.891
11059W        W78127  39.401   2.886  12.399
11060W        W78128  28.656  37.392  11.122
11061W        W78129  37.055  42.921   2.873
11062W        W78130   2.362  28.472   1.302
11063W        W78131   0.811  29.019   0.300
11064W        W78132  15.677  39.822   2.185
11065W        W78133  22.106   6.688  13.908
11066W        W78134  26.012  16.678  14.786
11067W        W78135  10.217  28.978  11.573
11068W        W78136  38.556  18.202   1.719
11069W        W78137  10.789  17.580  12.580
11070W        W78138  22.551  38.492  11.477
11071W        W78139  26.662  28.626  13.981
11072W        W78140   1.425  35.483  10.903
11073W        W78141  34.421  39.505   3.169
11074W        W78142  44.415  14.670   4.164
11075W        W78143  42.495  32.457  10.548
11076W        W78144   7.304  27.166   3.799
11077W        W78145   7.777  22.104  14.388
11078W        W78146  17.070   0.751   4.654
11079W        W78147   9.247   0.822  11.897
11080W        W78148  11.815  10.239   3.196
11081W        W78149  13.662  28.143  14.452
11082W        W78150  14.205  27.956   1.698
11083W        W78151   4.298  22.553  14.317
11084W        W78152   6.875   9.738   2.835
11085W        W78153  42.422  12.799   0.823
11086W        W78154  23.037  18.285   0.313
11087W        W78155  11.236  28.142  12.506
11088W        W78156  30.560  40.440  12.488
11089W        W78157   0.804  17.206  13.016
11090W        W78158   5.922  29.473   2.339
11091W        W78159  17.160  12.349   0.265
11092W        W78160  40.962   4.769  12.354
11093W        W78161  10.159  42.852   5.086
11094W        W78162   2.275  44.968   3.248
11095W        W78163  37.956  15.767   2.666
11096W        W78164   9.322  26.131  13.010
11097W        W78165  14.634  30.127  12.450
11098W        W78166   0.830  42.456  13.462
11099W        W78167  20.748   1.332  14.810
11100W        W78168  20.116   3.421   4.620
11101W        W78169  13.678  29.483  12.838
11102W        W78170  36.359  11.820  14.987
11103W        W78171   0.428  10.346  14.939
11104W        W78172   4.712   9.667   0.443
11105W        W78173   1.253   1.898   4.340
11106W        W78174  33.118  19.546   2.679
11107W        W78175  31.007   3.935   2.715
11108W        W78176  30.025   1.472   2.887
11109W        W78177   3.270  33.444   3.828
11110W        W78178   3.841   1.414   2.716
11111W        W78179  38.053  33.070  13.993
11112W        W78180  13.794   6.717   1.743
11113W        W78181  40.368  37.839   0.463
11114W        W78182  43.784  10.147  14.411
11115W        W78183  36.411   8.373   1.825
11116W        W78184  13.777  18.624  11.599
11117W        W78185   8.864   2.799  13.824
11118W        W78186   1.406   2.905   3.774
11119W        W78187   6.395  39.444  13.897
11120W        W78188  34.993  14.338  11.944
11121W        W78189   0.853  24.032  14.913
11122W        W78190  16.101  26.025  12.498
11123W        W78191  43.917  42.406  10.445
11124W        W78192  29.921  34.893   3.319
11125W        W78193  41.830  13.155   1.385
11126W        W78194  27.949  10.723   4.272
11127W        W78195  40.506  18.061   1.747
11128W        W78196  15.780   8.339  14.871
11129W        W78197  39.819  42.975  12.568
11130W        W78198  24.980  23.688  13.871
11131W        W78199   8.788  42.432  11.127
11132W        W78200  19.613  32.129   3.793
11133W        W78201  42.402  10.780  13.310
11134W        W78202  37.038  28.072   2.298
11135W        W78203  44.993   4.724  10.075
11136W        W78204  38.899  40.385   2.208
11137W        W78205  18.691  24.152  13.021
11138W        W78206   6.864   1.770   3.328
11139W        W78207  36.881  21.744   2.772
11140W        W78208   5.904   9.376  11.874
11141W        W78209  21.557  35.008   0.392
11142W        W78210  37.860  38.912   1.343
11143W        W78211  36.492  14.718   3.822
11144W        W78212  31.992  30.915   3.780
11145W        W78213   2.798  35.358   1.374
11146W        W78214   7.816  19.743  13.001
11147W        W78215   6.680  27.988  12.350
11148W        W78216  43.972  16.195   4.150
11149W        W78217  44.358  26.165   3.348
11150W        W78218  16.587  31.947   3.721
11151W        W78219  20.058  14.712   0.317
11152W        W78220  23.225  24.484  12.470
11153W        W78221  15.109  37.022   1.244
11154W        W78222  30.658  42.393   4.623
11155W        W78223  35.423   6.706   1.411
11156W        W78224  33.989  37.439   4.645
11157W        W78225  10.731  34.954   1.798
11158W        W78226  18.710   2.733   2.205
11159W        W78227  24.647  37.417  12.080
11160W        W78228  11.304  20.761   2.768
11161W        W78229  33.033  10.310  13.439
11162W        W78230   2.320  18.188   1.873
11163W        W78231   4.859  36.019  14.464
11164W        W78232   3.330  16.758   4.338
11165W        W78233  30.930  37.386  13.984
11166W        W78234  29.039  35.979   3.647
11167W        W78235  42.339   8.369   2.282
11168W        W78236   1.417  33.623   1.787
11169W        W78237  33.598  20.721  10.934
11170W        W78238  37.519  17.762  14.004
11171W        W78239  26.012  34.029  13.044
11172W        W78240  43.005  42.385   2.801
11173W        W78241  36.536  23.196  12.529
11174W        W78242  41.890  19.623   5.148
11175W        W78243  41.829  23.149   4.697
11176W        W78244  13.235   4.310  13.395
11177W        W78245  42.849   4.787   2.879
11178W        W78246  10.693  17.608   2.844
11179W        W78247   6.261   9.842   1.839
11180W        W78248  40.516  17.115  13.488
11181W        W78249  14.604  14.281   3.745
11182W        W78250  39.887   8.177  14.450
11183W        W78251   2.236   3.355  12.039
11184W        W78252  23.071   2.364   4.202
11185W        W78253   0.417  23.657   0.415
11186W        W78254   4.730  36.088   0.761
11187W        W78255  31.955  16.316   0.940
11188W        W78256   8.225   5.740   3.320
11189W        W78257  10.274  15.189   2.784
11190W        W78258   3.742   6.256   0.291
11191W        W78259   2.259  12.280  14.475
11192W        W78260   5.793  37.044   1.383
11193W        W78261   2.333  28.123   4.713
11194W        W78262   6.412  20.709  10.154
11195W        W78263  29.560  44.348   4.654
11196W        W78264   4.295   8.684   2.836
11197W        W78265  32.938  14.188   1.431
11198W        W78266  29.601  16.097   2.714
11199W        W78267  32.611   9.296  11.497
11200W        W78268  21.134  37.959   9.978
11201W        W78269  35.509  39.833  12.947
11202W        W78270  22.703  26.497  11.969
11203W        W78271  19.282  41.362   4.144
11204W        W78272  23.692  14.738   1.302
11205W        W78273  21.120  14.732  14.995
11206W        W78274   3.933  29.143  13.513
11207W        W78275  43.853  42.303  13.942
11208W        W78276  33.120  23.197  14.321
11209W        W78277  28.956  31.089   2.234
11210W        W78278  32.608  31.587   0.932
11211W        W78279   9.244  24.677  11.091
11212W        W78280   4.325   9.213   0.421
11213W        W78281  12.796  14.200   1.310
11214W        W78282  38.888  16.601   3.146
11215W        W78283  34.869  27.649   4.713
11216W        W78284  20.228  15.634   2.330
11217W        W78285  43.907  36.948   1.788
11218W        W78286   9.238   3.422  13.334
11219W        W78287  15.744  15.217  14.878
11220W        W78288  23.231  16.149   1.288
11221W        W78289  27.008  22.045   4.194
11222W        W78290   9.205  16.091  14.417
11223W        W78291  42.918  26.620  14.450
11224W        W78292  12.322  19.088   0.398
11225W        W78293  16.663  31.571   4.776
11226W        W78294  11.312  25.645   3.803
11227W        W78295   3.346  35.919  11.905
11228W        W78296  12.291  43.003   4.647
11229W        W78297  29.557  10.641  13.367
11230W        W78298  11.307  32.487   1.433
11231W        W78299  13.678  23.038   0.312
11232W        W78300  18.548   5.719  10.081
11233W        W78301   4.869  21.092   3.790
11234W        W78302  15.181  18.247  13.357
11235W        W78303  40.543  16.616   4.250
11236W        W78304  20.711   3.305   0.275
11237W        W78305  35.967  44.505   2.287
11238W        W78306  10.715   0.745   2.678
11239W        W78307  11.333   9.864   3.308
11240W        W78308  36.561  37.019  12.399
11241W        W78309  21.238  33.453   4.292
11242W        W78310  27.480  17.165  13.060
11243W        W78311  14.658   7.771   2.330
11244W        W78312  30.992  21.144   4.332
11245W        W78313   6.351   0.358   4.613
11246W        W78314   7.894  28.941  13.317
11247W        W78315  26.686  10.318  12.365
11248W        W78316   5.231  37.474  12.415
11249W        W78317  34.505   0.980   2.231
11250W        W78318   9.312  30.603   4.755
11251W        W78319   7.322  14.282   0.804
11252W        W78320  30.611  21.726   3.330
11253W        W78321  21.685  26.134   3.647
11254W        W78322  12.223  11.635   0.885
11255W        W78323   6.719  15.751  11.524
11256W        W78324  15.605   2.818  12.031
11257W        W78325   2.792  33.505  14.323
11258W        W78326  40.321  30.996  14.506
11259W        W78327  35.929  20.767  14.969
11260W        W78328  13.347   0.279   1.906
11261W        W78329  27.982  29.478  11.499
11262W        W78330  42.849   2.330   4.642
11263W        W78331   2.742  27.650   2.413
11264W        W78332  19.090  11.772   3.238
11265W        W78333  31.628  17.232   1.734
11266W        W78334  37.394  11.362  12.953
11267W        W78335  30.619  28.638   4.705
11268W        W78336  17.764  22.246   2.783
11269W        W78337  24.661  14.326   1.828
11270W        W78338  26.496   0.454  12.528
11271W        W78339  40.915   8.747  12.825
11272W        W78340   2.813  36.918   1.374
11273W        W78341  11.635   8.364  11.060
11274W        W78342  14.832  19.684   3.151
11275W        W78343   2.459  34.542   0.963
11276W        W78344   0.835   4.317   0.310
11277W        W78345  22.145   2.403  12.979
11278W        W78346  32.539  11.627  13.436
11279W        W78347  36.025  12.301   3.854
11280W        W78348  15.604   5.881  11.381
11281W        W78349  42.369   9.224  11.038
11282W        W78350  41.838  11.787  12.029
11283W        W78351   6.278  27.107  11.949
11284W        W78352  24.119  34.006   3.253
11285W        W78353   4.888  39.517   1.777
11286W        W78354  39.828  15.692   0.864
11287W        W78355  19.617  34.079   1.710
11288W        W78356  43.997  13.606   2.370
11289W        W78357  35.865  12.313  10.522
11290W        W78358  43.328  25.513   0.886
11291W        W78359  30.419  16.185   4.656
11292W        W78360  31.611  17.564   0.959
11293W        W78361  36.386  13.113  12.426
11294W        W78362  29.429  31.939  13.972
11295W        W78363  12.309  17.254   1.334
11296W        W78364   4.860  40.876  13.953
11297W        W78365  10.233  23.027   9.960
11298W        W78366  32.988  19.726   4.198
11299W        W78367  12.655  35.440   0.864
11300W        W78368  43.420   4.436  12.080
11301W        W78369   0.816  23.490  11.533
11302W        W78370   8.280  11.849   4.267
11303W        W78371  40.548  39.332  10.473
11304W        W78372  12.184  36.481   2.873
11305W        W78373  25.513  37.036  13.947
11306W        W78374  17.303  32.997  10.620
11307W        W78375  11.243  34.105  12.067
11308W        W78376  15.665   6.771  11.492
11309W        W78377  33.886  36.986  13.967
11310W        W78378  27.526  29.073  13.991
11311W        W78379  25.569   4.430  12.355
11312W        W78380  27.464  43.486   4.207
11313W        W78381  22.598  29.064  10.411
11314W        W78382   4.757   4.909  12.430
11315W        W78383  32.888   8.692  10.561
11316W        W78384   6.679  15.578   3.338
11317W        W78385  22.075   2.268  14.822
11318W        W78386  16.251  44.261  12.940
11319W        W78387   8.298  25.981  14.401
11320W        W78388  13.770  36.006   4.118
11321W        W78389   6.762   2.761  10.409
11322W        W78390  34.481  37.418  13.944
11323W        W78391   8.229  34.934   2.348
11324W        W78392  30.038  15.579   2.392
11325W        W78393   8.363   8.317  13.862
11326W        W78394  35.902  27.534  11.451
11327W        W78395  18.567   9.185  11.981
11328W        W78396  28.042  43.300   3.639
11329W        W78397  37.421  28.571   1.243
11330W        W78398   2.268   2.396   5.262
11331W        W78399   9.186  38.392   3.839
11332W        W78400  40.389   6.331   1.737
11333W        W78401  19.701  30.609   3.689
11334W        W78402   5.206  10.211   4.150
11335W        W78403  44.969  44.259   3.785
11336W        W78404  36.500  36.445  14.403
11337W        W78405  27.640  30.980  13.359
11338W        W78406  18.681  28.105  11.404
11339W        W78407  14.795  10.660  13.338
11340W        W78408  43.810   3.918   3.775
11341W        W78409  37.525  20.104  14.495
11342W        W78410  40.319  18.759  10.086
11343W        W78411   9.277  41.809  10.637
11344W        W78412   3.407  37.380   0.354
11345W        W78413  14.781  40.484  11.058
11346W        W78414  35.041   6.363   2.812
11347W        W78415  28.034  35.909   1.700
11348W        W78416  28.942   4.297   0.277
11349W        W78417  39.439  32.404   2.730
11350W        W78418  38.445   9.331   2.399
11351W        W78419  17.063  43.985  14.312
11352W        W78420  41.311  16.692  13.016
11353W        W78421  16.596  27.940   0.876
11354W        W78422  44.405  30.495   2.706
11355W        W78423   6.784   9.777  13.352
11356W        W78424   6.729   5.892  12.456
11357W        W78425  30.575   8.861  13.361
11358W        W78426  34.879  16.775  11.978
11359W        W78427   2.900   9.650  12.554
11360W        W78428  39.499  44.812   0.922
11361W        W78429   4.353  20.548  13.028
11362W        W78430  32.900  22.083  11.462
11363W        W78431  26.192  18.608  10.591
11364W        W78432   4.408  37.465   0.953
11365W        W78433  35.062  10.158   3.697
11366W        W78434  37.470   1.463  10.971
11367W        W78435   9.751  36.023  13.908
11368W        W78436  11.708  37.883  10.609
11369W        W78437  38.888  34.030  13.852
11370W        W78438   1.792  44.811  13.472
11371W        W78439  11.195  26.658   3.743
11372W        W78440   3.270  40.543  12.846
11373W        W78441  35.916   7.344   3.848
11374W        W78442   3.291  42.427  12.030
11375W        W78443  25.013  40.917  13.536
11376W        W78444  16.268   7.673  10.445
11377W        W78445  17.077  36.061  10.493
11378W        W78446  15.172  43.876   1.410
11379W        W78447  12.224  16.223  12.984
11380W        W78448  23.080  37.878  12.070
11381W        W78449   6.313  28.639  11.602
11382W        W78450   0.883  18.706  11.990
11383W        W78451   7.693  20.639   4.676
11384W        W78452  30.592  20.544   3.641
11385W        W78453  29.506  18.713  11.861
11386W        W78454   8.189  34.552   2.237
11387W        W78455  25.483  37.576  11.522
11388W        W78456  12.297  39.449   1.798
11389W        W78457  24.581  27.958   3.804
11390W        W78458  12.296   7.318  12.008
11391W        W78459  41.380  15.144   0.826
11392W        W78460  17.708   4.869   1.907
11393W        W78461  10.274   2.729  12.451
11394W        W78462   8.315  39.012   2.792
11395W        W78463  38.904  13.791  14.950
11396W        W78464  17.208  23.044  10.477
11397W        W78465  36.924   3.817  10.644
11398W        W78466   7.697   9.660   4.694
11399W        W78467   6.684  25.485  14.785
11400W        W78468  41.323  32.554  13.529
11401W        W78469   7.221  25.058   4.633
11402W        W78470  27.584  36.901   0.269
11403W        W78471  42.444  37.517  10.096
11404W        W78472  25.115  14.830   4.238
11405W        W78473  40.329  35.106  14.788
11406W        W78474  20.596   8.301   4.258
11407W        W78475  25.203  32.928  13.328
11408W        W78476  34.413   2.270   2.270
11409W        W78477   8.367  40.349  12.093
11410W        W78478  12.729   7.385   3.771
11411W        W78479  38.856  11.821  13.497
11412W        W78480   0.330  12.655   0.728
11413W        W78481  31.937  21.566   4.174
11414W        W78482  20.704  23.165  10.981
11415W        W78483   9.810  23.117  11.496
11416W        W78484  31.618  24.086   3.683
11417W        W78485   6.873   5.270   1.778
11418W        W78486   1.361  18.721   2.330
11419W        W78487  18.722   0.391  11.861
11420W        W78488  17.108  37.041  10.902
11421W        W78489  10.697  40.482  14.481
11422W        W78490   7.209  23.538  13.809
11423W        W78491   2.298   5.870  13.853
11424W        W78492  25.533   5.898  11.556
11425W        W78493  32.073  16.676   2.821
11426W        W78494  12.136   3.943   3.335
11427W        W78495  41.864   1.943  13.393
11428W        W78496  39.949  14.659  14.770
11429W        W78497  28.115   3.316   1.713
11430W        W78498  39.335  10.871  12.498
11431W        W78499  26.466  18.716   0.294
11432W        W78500  19.657  39.989  13.465
11433W        W78501  17.082  32.403   4.806
11434W        W78502  27.045  33.543   3.867
11435W        W78503  36.566  38.849   3.326
11436W        W78504   5.825  31.503   0.271
11437W        W78505  32.898  17.067   3.747
11438W        W78506  28.960   1.878  10.446
11439W        W78507  44.419  27.169  12.538
11440W        W78508  12.693  10.269   9.977
11441W        W78509  39.945  29.089  13.929
11442W        W78510  36.882  11.155   3.271
11443W        W78511  44.893  37.082  11.487
11444W        W78512  27.497  39.427  14.892
11445W        W78513  24.039   3.817  10.924
11446W        W78514  31.150  31.415  12.938
11447W        W78515  28.615  39.009   2.197
11448W        W78516  30.489  34.018   2.277
11449W        W78517  19.104  15.668  13.022
11450W        W78518   6.250   8.828  13.816
11451W        W78519   0.921  40.328   4.203
11452W        W78520  38.448  14.663  10.503
11453W        W78521  37.921  30.068  14.031
11454W        W78522   8.305  23.159   2.338
11455W        W78523   6.252  22.107   0.251
11456W        W78524  27.110  24.087   0.483
11457W        W78525  17.140  37.519  12.876
11458W        W78526  22.190  26.954   4.222
11459W        W78527  25.477   6.304  14.030
11460W        W78528  44.996   5.281  11.534
11461W        W78529   3.247  31.417   4.173
11462W        W78530  38.439  20.098   2.832
11463W        W78531  37.084  24.625   1.251
11464W        W78532  32.100   8.843  14.419
11465W        W78533  30.146  37.507  12.004
11466W        W78534  13.768   9.766  13.982
11467W        W78535  32.394   0.981   2.709
11468W        W78536  17.625  28.017   3.382
11469W        W78537  10.352  33.602  14.781
11470W        W78538   1.758  41.396   0.939
11471W        W78539   1.779  10.706  13.323
11472W        W78540  18.054  36.002  14.924
11473W        W78541  17.233  24.133   0.392
11474W        W78542  38.473  28.580  10.493
11475W        W78543  12.272  26.650   2.360
11476W        W78544  22.096  14.114  10.512
11477W        W78545  39.416  33.008  12.561
11478W        W78546  20.602   6.721  11.549
11479W        W78547  31.469   2.789   4.121
11480W        W78548  35.372  29.484  14.860
11481W        W78549  16.112  27.493   3.259
11482W        W78550  38.534  28.606   0.792
11483W        W78551  42.974  26.131  10.466
11484W        W78552  34.921   1.477  12.510
11485W        W78553  17.564  33.991   0.344
11486W        W78554  11.761  16.177  11.440
11487W        W78555  14.668  32.018   3.202
11488W        W78556  20.738  34.477  11.514
11489W        W78557   7.863  31.924  14.854
11490W        W78558  28.592  10.209   4.223
11491W        W78559  40.052   3.340  13.896
11492W        W78560  10.852  33.093  14.948
11493W        W78561  29.964  42.892   2.351
11494W        W78562  32.039   3.825   4.618
11495W        W78563   8.391  22.077  13.920
11496W        W78564  39.974  35.516  11.414
11497W        W78565  41.322   5.801  11.592
11498W        W78566  11.771  18.083   1.450
11499W        W78567  20.768   4.859   2.297
11500W        W78568  12.822  15.592  14.900
11501W        W78569  12.154   8.718  10.931
11502W        W78570  33.423   3.896   1.276
11503W        W78571  26.077  26.494   1.450
11504W        W78572  21.201   0.777   5.262
11505W        W78573  44.920   9.356  11.080
11506W        W78574  10.797  39.471  14.888
11507W        W78575  37.984  10.870  14.363
11508W        W78576  11.705  41.001  11.470
11509W        W78577  37.867   4.824  12.435
11510W        W78578   8.366  43.853   0.966
11511W        W78579   5.746  34.034   3.155
11512W        W78580  19.599  42.876  13.376
11513W        W78581  16.312  44.879   2.673
11514W        W78582  15.322  22.658   1.315
11515W        W78583   8.244  14.120  12.343
11516W        W78584  43.420   8.743   3.233
11517W        W78585  16.659  29.088   1.740
11518W        W78586  38.035  27.100  11.898
11519W        W78587  27.550  44.343  10.939
11520W        W78588  12.155  22.244   0.851
11521W        W78589  34.549  22.665   3.776
11522W        W78590   0.427  17.623   1.809
11523W        W78591   1.775  28.133  13.034
11524W        W78592  10.252  44.803   1.781
11525W        W78593  14.251   7.178  12.531
11526W        W78594  22.523  14.242  13.980
11527W        W78595  30.038  19.160   2.394
11528W        W78596  21.234  18.702  13.881
11529W        W78597   8.183  38.838   1.255
11530W        W78598   4.828   5.833   1.323
11531W        W78599   7.718  19.167  14.476
11532W        W78600  32.539  11.755   4.154
11533W        W78601  30.476  26.192  12.873
11534W        W78602  30.626  42.416  13.360
11535W        W78603  36.435  10.813  12.379
11536W        W78604  15.197  11.815   3.322
11537W        W78605  42.794   9.810   3.633
11538W        W78606  17.688  19.558  14.961
11539W        W78607   8.347  24.575   0.847
11540W        W78608  10.169  18.157   2.235
11541W        W78609  41.813  21.572   1.281
11542W        W78610  19.286   3.949  12.915
11543W        W78611  29.084  10.681  11.885
11544W        W78612  19.217  22.528   2.380
11545W        W78613  24.684  17.153   2.209
11546W        W78614   2.910  43.903   2.774
11547W        W78615  22.604   9.740  12.463
11548W        W78616  43.964  31.508   3.215
11549W        W78617  43.451  24.172   0.360
11550W        W78618  15.312  13.208   3.317
11551W        W78619  25.145  31.408   0.923
11552W        W78620  11.293  14.339  11.855
11553W        W78621  23.171  17.732  12.063
11554W        W78622  29.962  18.683  12.488
11555W        W78623  38.911  32.446   2.839
11556W        W78624  19.695   9.802  12.475
11557W        W78625  37.414  17.701  11.025
11558W        W78626  39.517   1.337  14.288
11559W        W78627  25.023  30.924  11.537
11560W        W78628  32.120   4.903  12.542
11561W        W78629  34.534  12.136  13.321
11562W        W78630   4.290  33.089  11.031
11563W        W78631  36.424  39.483  13.015
11564W        W78632  34.390  37.362   4.285
11565W        W78633  39.451  22.734  12.381
11566W        W78634  28.011  17.114   3.754
11567W        W78635   0.443  15.122   2.178
11568W        W78636  33.877  44.911  12.426
11569W        W78637  12.186   1.477  14.336
11570W        W78638  27.565  30.609  13.410
11571W        W78639  28.552  32.485   2.265
11572W        W78640  14.099   1.412  13.516
11573W        W78641  22.649  10.752  11.076
11574W        W78642   4.210  28.538  11.426
11575W        W78643  15.678  18.650  10.536
11576W        W78644  32.510  43.813  12.536
11577W        W78645  25.480  42.781  13.987
11578W        W78646  26.585  26.169  14.775
11579W        W78647  41.504   9.312   3.259
11580W        W78648  34.502  39.970   1.221
11581W        W78649  43.014  11.269   0.955
11582W        W78650  36.353   3.735   3.233
11583W        W78651  24.481  20.707   4.820
11584W        W78652  21.200   2.868   4.152
11585W        W78653  10.217  30.630   0.941
11586W        W78654   1.413  23.546   3.151
11587W        W78655  43.837  28.126  10.513
11588W        W78656   7.814  24.181   0.939
11589W        W78657   4.906  15.151  11.383
11590W        W78658  23.140   0.336   2.792
11591W        W78659  33.932  17.165  11.502
11592W        W78660  22.062  38.076  10.454
11593W        W78661  12.707  26.113  11.554
11594W        W78662  42.460  19.182   2.341
11595W        W78663  24.643  16.240   3.661
11596W        W78664  21.078  44.904  14.803
11597W        W78665  41.311  37.478   0.312
11598W        W78666  20.180   8.275  13.910
11599W        W78667  38.894  38.458   1.839
11600W        W78668  34.894  18.229  12.421
11601W        W78669  22.077  31.948  12.357
11602W        W78670   8.276  42.954   0.300
11603W        W78671   5.320  14.804  11.963
11604W        W78672  32.584   7.384  11.540
11605W        W78673  20.684  26.149  13.932
11606W        W78674   4.945  34.578   1.715
11607W        W78675  20.152   2.268   1.873
11608W        W78676   2.824  20.157   1.858
11609W        W78677  23.096  12.811   1.271
11610W        W78678  27.489  15.746   1.395
11611W        W78679  21.050  44.366   0.895
11612W        W78680  10.303   4.266   2.696
11613W        W78681  15.177  37.995  13.828
11614W        W78682   9.335  37.538  13.311
11615W        W78683   4.417  12.222   3.279
11616W        W78684  34.076  28.037   4.804
11617W        W78685  15.605  38.019   1.307
11618W        W78686   2.227  34.080   1.844
11619W        W78687  12.797   2.825  11.431
11620W        W78688  27.640  13.323   4.754
11621W        W78689  42.878  32.396  12.059
11622W        W78690  11.254  28.587  10.928
11623W        W78691  41.492   1.478   1.837
11624W        W78692  44.848  35.474   3.327
11625W        W78693  18.057  15.604   4.634
11626W        W78694  37.467  26.185   2.784
11627W        W78695  22.107  37.953   0.387
11628W        W78696  42.998  32.496   0.306
11629W        W78697  12.340  44.407   1.911
11630W        W78698  15.172   6.709   3.177
11631W        W78699   1.897  21.513  11.934
11632W        W78700  17.708   7.691  14.344
11633W        W78701   0.782  33.972  13.486
11634W        W78702   6.388  18.671   5.118
11635W        W78703  30.135  20.096   0.956
11636W        W78704  32.611  13.183   3.209
11637W        W78705  27.685   7.395   1.746
11638W        W78706  44.008   4.905  13.336
11639W        W78707  24.049  30.592   4.680
11640W        W78708   0.811  23.039   0.482
11641W        W78709  38.960  43.419   3.656
11642W        W78710  33.883   3.953  10.990
11643W        W78711   5.238   8.393  12.517
11644W        W78712  38.948   7.839   2.283
11645W        W78713  18.685  18.161  14.375
11646W        W78714  40.384   8.344  10.427
11647W        W78715  27.968  35.421   1.406
11648W        W78716  24.049  43.888  13.381
11649W        W78717  19.218  43.771  14.014
11650W        W78718  35.096  36.088   0.783
11651W        W78719   4.297   6.754   0.877
11652W        W78720  41.414  21.156   3.230
11653W        W78721  24.989  36.912   3.203
11654W        W78722  44.488   9.883  10.487
11655W        W78723  34.486  17.564  13.512
11656W        W78724  29.664  13.243   4.716
11657W        W78725  26.125  43.928   0.849
11658W        W78726  13.270  10.278  11.474
11659W        W78727  28.491   3.233   2.798
11660W        W78728  29.427  24.655   4.677
11661W        W78729  23.998  41.444  13.985
11662W        W78730   9.289  43.870   0.867
11663W        W78731  15.126  42.296  13.373
11664W        W78732  33.104  40.910  14.776
11665W        W78733  36.979  24.691  14.896
11666W        W78734  34.516  11.132  10.928
11667W        W78735  28.097  19.076   0.467
11668W        W78736   4.917  27.619  14.952
11669W        W78737  35.929  34.575   3.737
11670W        W78738  19.668  10.669  11.023
11671W        W78739  39.021   2.249  13.031
11672W        W78740  41.903  26.202   4.620
11673W        W78741  11.200  42.982   0.857
11674W        W78742  35.949   7.383   4.236
11675W        W78743  21.139   1.291   3.765
11676W        W78744  26.551  40.874  11.963
11677W        W78745  37.351  18.289  13.817
11678W        W78746  10.380  13.821   3.317
11679W        W78747  38.936   8.729   9.954
11680W        W78748  36.016   7.328   0.964
11681W        W78749  17.562  41.485  10.416
11682W        W78750  38.935  19.157   3.797
11683W        W78751  24.056  13.675  11.609
11684W        W78752  34.874  42.461  10.551
11685W        W78753  17.790  26.163  13.960
11686W        W78754  22.040  22.652  13.438
11687W        W78755   6.840  18.253  12.537
11688W        W78756   2.311  30.498   5.106
11689W        W78757   5.756  39.946  11.387
11690W        W78758  38.850  24.648  13.044
11691W        W78759  40.455   5.225   4.312
11692W        W78760  17.737  33.455   1.424
11693W        W78761  28.108  17.175   0.276
11694W        W78762  34.387  20.754  14.394
11695W        W78763   9.866  22.613  11.450
11696W        W78764  35.485  33.091  12.388
11697W        W78765  37.534  43.004   0.309
11698W        W78766  15.262   2.845  14.910
11699W        W78767  19.663  36.910   4.835
11700W        W78768  21.038  32.986  12.478
11701W        W78769  36.069  37.997   3.732
11702W        W78770  35.564  30.102   4.628
11703W        W78771  43.906  11.844   4.645
11704W        W78772  21.703  10.325   3.262
11705W        W78773  14.762  12.321  14.783
11706W        W78774  10.167   9.200  10.905
11707W        W78775  25.993   2.944  14.779
11708W        W78776  31.447  26.013   2.334
11709W        W78777  17.161  14.610  14.029
11710W        W78778  20.646  26.020   4.125
11711W        W78779  44.436   7.399  10.079
11712W        W78780  28.469   7.740   3.378
11713W        W78781   1.240  19.235  13.994
11714W        W78782  42.844   9.806   3.189
11715W        W78783  14.638  10.706  11.609
11716W        W78784  11.174   5.818   3.640
11717W        W78785  24.662   7.407  12.526
11718W        W78786  10.640  43.332   4.259
11719W        W78787  27.552  38.395  10.407
11720W        W78788  21.030  20.225  11.998
11721W        W78789  30.133  23.554  14.993
11722W        W78790  20.158  24.576  14.965
11723W        W78791   5.704  42.465   1.290
11724W        W78792  35.009   3.754   2.877
11725W        W78793  37.363   3.292   4.634
11726W        W78794   4.261  21.030  12.977
11727W        W78795  10.701   6.307  14.868
11728W        W78796  38.050  21.128   4.253
11729W        W78797  43.900  27.508   0.476
11730W        W78798   4.328  18.201   1.700
11731W        W78799   9.808  24.130   3.267
11732W        W78800  18.676  18.560   0.773
11733W        W78801  10.819  24.157   0.881
11734W        W78802  24.655  35.093   0.381
11735W        W78803  29.060  26.590  13.508
11736W        W78804  22.197  25.088   3.284
11737W        W78805  24.573  44.784  12.365
11738W        W78806   7.812  17.092  14.370
11739W        W78807  19.778  30.468   4.604
11740W        W78808  16.142  36.929   2.710
11741W        W78809   8.227  36.073   1.293
11742W        W78810  40.528  14.239  14.505
11743W        W78811  25.482  28.166  12.550
11744W        W78812   9.755   9.747   0.896
11745W        W78813   1.868  25.631   3.361
11746W        W78814   9.702  39.933  10.564
11747W        W78815  41.007  13.701   1.704
11748W        W78816  13.717   3.776  13.517
11749W        W78817  30.975  35.972   3.685
11750W        W78818   2.326  31.442  11.411
11751W        W78819   3.772   4.825  13.816
11752W        W78820  41.900  34.368  12.526
11753W        W78821  16.194   9.361  11.032
11754W        W78822  33.089   0.753   3.150
11755W        W78823  21.075   9.755   0.397
11756W        W78824  10.726   0.274   0.369
11757W        W78825  19.166   1.806   4.745
11758W        W78826  18.119  24.087  14.825
11759W        W78827  11.744   7.407   0.322
11760W        W78828  38.341  38.959  13.489
11761W        W78829   1.897  20.649  13.390
11762W        W78830  29.513  27.001  13.803
11763W        W78831   6.816   6.856  13.859
11764W        W78832  41.536  22.571  13.014
11765W        W78833   2.260  35.886   1.415
11766W        W78834   2.863  41.441   0.838
11767W        W78835  28.456  17.632   0.855
11768W        W78836  21.099   2.785   4.675
11769W        W78837  14.598  38.399   1.709
11770W        W78838  32.600  24.648  11.400
11771W        W78839  13.290  19.708  11.098
11772W        W78840  26.562  36.934  12.067
11773W        W78841  32.065  17.733  11.904
11774W        W78842  29.574  18.149  12.915
11775W        W78843  25.576  42.972   3.686
11776W        W78844  22.730  15.642   1.363
11777W        W78845  21.583  20.118  13.017
11778W        W78846  33.879  37.856  12.995
11779W        W78847  23.491  31.936  10.154
11780W        W78848   4.386  33.574   4.126
11781W        W78849  10.866  18.055   1.342
11782W        W78850  27.162   2.262  12.379
11783W        W78851   8.294  43.789  14.374
11784W        W78852   6.279  34.413   1.316
11785W        W78853  25.658  11.702   3.782
11786W        W78854  19.161   4.746  12.060
11787W        W78855  19.234  11.803  14.809
11788W        W78856   4.358   7.326   0.938
11789W        W78857  36.354  32.023   2.369
11790W        W78858  13.651  39.925   2.361
11791W        W78859   9.659  36.488   3.680
11792W        W78860  33.113  31.097  10.579
11793W        W78861  30.589  27.664   4.771
11794W        W78862  25.037  29.460   2.846
11795W        W78863  20.136   1.466  10.509
11796W        W78864  13.143  25.485  10.443
11797W        W78865  39.338  15.672  12.856
11798W        W78866  35.888  11.647  12.543
11799W        W78867  19.152  30.565   2.693
11800W        W78868  40.312   8.184  11.375
11801W        W78869  32.055  37.833   0.299
11802W        W78870  32.485   1.408  10.404
11803W        W78871  20.759  15.208   1.810
11804W        W78872  12.808   9.263   0.363
11805W        W78873  43.402  24.708   3.666
11806W        W78874   4.364  17.743   3.863
11807W        W78875  22.739  24.207   1.266
11808W        W78876  31.006  41.860  14.494
11809W        W78877  24.484  24.192  12.975
11810W        W78878   6.395  25.041   5.256
11811W        W78879  40.816  24.542   4.333
11812W        W78880  40.350  31.907   4.775
11813W        W78881  19.232  16.707   1.418
11814W        W78882   2.761  27.077  14.302
11815W        W78883  22.505  27.639  13.800
11816W        W78884  25.979  14.695   4.773
11817W        W78885  19.712   5.934  14.947
11818W        W78886  26.578  28.147  10.950
11819W        W78887  11.697  12.638   0.833
11820W        W78888   8.308  15.643  13.532
11821W        W78889   3.256  10.155   4.677
11822W        W78890  11.691  33.485  13.403
11823W        W78891   9.195   7.259  11.895
11824W        W78892   0.255  19.679  14.840
11825W        W78893  31.465  31.122   1.407
11826W        W78894  25.489  26.954   0.774
11827W        W78895  35.386   6.894   0.394
11828W        W78896  34.110  19.743  12.090
11829W        W78897  22.586  44.484  14.831
11830W        W78898  33.900   2.839  11.015
11831W        W78899   0.758  40.926   4.674
11832W        W78900  35.580  44.444  13.802
11833W        W78901  40.943  13.745   4.660
11834W        W78902  13.273  36.022   3.774
11835W        W78903  27.969  33.946  14.303
11836W        W78904  25.610  44.426   4.148
11837W        W78905  41.885  41.970   3.667
11838W        W78906  43.936  22.207  11.503
11839W        W78907  40.054  24.175  12.562
11840W        W78908  30.507  11.806  13.866
11841W        W78909  41.863  37.874  12.884
11842W        W78910  14.186  35.374   2.263
11843W        W78911  36.348  34.369  10.940
11844W        W78912   8.318   1.359  13.535
11845W        W78913  19.633   7.409   3.155
11846W        W78914  23.695  31.618  11.011
11847W        W78915  37.934  42.403  12.961
11848W        W78916   8.737   8.162   1.717
11849W        W78917  41.927  32.111   0.459
11850W        W78918  10.751  34.088  14.353
11851W        W78919   3.854  38.050   0.477
11852W        W78920  23.996   2.788   2.268
11853W        W78921  34.415  12.248  12.041
11854W        W78922   2.252  21.742   4.258
11855W        W78923  25.052  12.810  13.983
11856W        W78924   7.784  34.962  13.006
11857W        W78925   2.379  42.861  10.009
11858W        W78926  25.642  37.530  13.933
11859W        W78927  20.547  42.446  12.506
11860W        W78928  28.021  26.592   2.867
11861W        W78929  33.883  36.425  13.418
11862W        W78930   0.807  40.912  14.976
11863W        W78931  10.299  43.971  12.351
11864W        W78932  23.693  31.587  14.416
11865W        W78933  22.135   5.820   3.689
11866W        W78934   6.323  20.704  13.970
11867W        W78935  17.638  36.461  10.427
11868W        W78936  24.088  33.131  11.964
11869W        W78937  22.578  23.215  11.591
11870W        W78938   2.754   8.811   4.127
11871W        W78939   5.744  22.044  13.943
11872W        W78940  16.249  14.263  13.852
11873W        W78941  41.944  21.672   4.168
11874W        W78942  34.885  37.390  13.373
11875W        W78943  25.114  14.195  13.813
11876W        W78944  17.799  32.550  14.792
11877W        W78945  14.106  16.162  11.597
11878W        W78946  19.608  37.936   0.790
11879W        W78947  35.490   8.320   2.892
11880W        W78948  25.528   4.298  11.068
11881W        W78949  14.735  31.922   9.994
11882W        W78950  17.094  29.480  13.847
11883W        W78951  22.046  23.677   1.240
11884W        W78952  23.143  38.995   0.733
11885W        W78953  22.176  33.949  11.992
11886W        W78954  31.422  34.500  13.927
11887W        W78955   3.265  24.214  10.429
11888W        W78956  43.857  24.094   4.315
11889W        W78957  35.922  18.220  13.886
11890W        W78958  11.280   0.342   1.300
11891W        W78959  44.320  29.618   4.338
11892W        W78960  12.724   8.189   2.786
11893W        W78961  12.784   1.775  12.572
11894W        W78962  28.645  38.454   1.256
11895W        W78963  16.078  40.396   1.414
11896W        W78964   7.774  32.911  12.481
11897W        W78965  22.522  39.854   0.397
11898W        W78966  16.215  33.883  11.004
11899W        W78967  36.437  26.682   3.800
11900W        W78968  31.474  27.551   1.405
11901W        W78969   5.421  15.711  11.498
11902W        W78970  27.641  16.074  10.624
11903W        W78971   7.765   3.319  10.899
11904W        W78972   7.826  14.336   2.239
11905W        W78973  36.476  17.082   4.645
11906W        W78974  16.789  37.400   3.148
11907W        W78975   9.824  10.757  12.950
11908W        W78976  16.672  17.790   0.366
11909W        W78977  12.625  19.699  10.540
11910W        W78978  25.645   0.387   0.476
11911W        W78979   4.740  36.890  11.921
11912W        W78980  18.652  16.790   0.360
11913W        W78981  26.961  10.653   4.664
11914W        W78982  13.350  25.973   1.932
11915W        W78983  39.495  13.728  11.489
11916W        W78984   1.950  31.583   4.120
11917W        W78985  16.232   6.773   0.460
11918W        W78986  13.344  44.959   2.244
11919W        W78987   9.176  29.153   3.255
11920W        W78988  41.451   4.367   4.226
11921W        W78989  29.051  32.974  12.537
11922W        W78990  22.078  20.133  11.960
11923W        W78991   8.303  29.959  14.343
11924W        W78992  29.152  12.151   3.784
11925W        W78993  37.497  24.623   0.357
11926W        W78994  33.425  13.276   1.843
11927W        W78995  43.378  22.650   1.441
11928W        W78996  42.957  27.980  10.580
11929W        W78997  39.954  31.976   1.784
11930W        W78998  43.304   5.358   0.389
11931W        W78999  21.668  11.206   3.282
11932W        W79000   0.351  14.198  14.320
11933W        W79001  24.541  43.801   0.966
11934W        W79002  15.710  42.876  11.888
11935W        W79003  13.786   5.881  14.807
11936W        W79004  15.175  14.706  14.845
11937W        W79005  10.377  11.796  13.922
11938W        W79006  42.988   8.840  13.407
11939W        W79007   6.678  21.515   2.850
11940W        W79008   2.310  21.068   4.823
11941W        W79009  10.282  11.799  11.441
11942W        W79010   0.966  20.268   4.191
11943W        W79011  22.501  40.022   3.780
11944W        W79012  21.118  41.987   4.680
11945W        W79013  36.465  25.057  14.780
11946W        W79014  38.911  12.253  14.800
11947W        W79015   9.672  21.573  12.481
11948W        W79016  38.051  22.735   4.650
11949W        W79017  16.318  28.529  11.444
11950W        W79018   5.207  38.470  11.595
11951W        W79019  14.744  43.430  12.444
11952W        W79020  30.061   4.241   2.357
11953W        W79021  23.236  37.861   2.275
11954W        W79022  20.263  19.238   1.256
11955W        W79023   5.717   0.357   4.349
11956W        W79024  35.020  12.624  10.967
11957W        W79025  42.487  11.217  14.456
11958W        W79026  14.284  35.859   0.863
11959W        W79027  41.869   8.733  14.974
11960W        W79028   9.168  19.170   4.147
11961W        W79029  44.957   1.239  11.032
11962W        W79030  20.188  44.909   0.738
11963W        W79031  21.628   7.262  14.296
11964W        W79032  30.935  41.485   0.375
11965W        W79033   5.881  19.186  14.775
11966W        W79034   1.779  12.735   0.920
11967W        W79035  15.732  20.123  13.446
11968W        W79036  30.451   1.366  12.393
11969W        W79037   1.403  40.355   1.399
11970W        W79038  18.254  16.741   0.856
11971W        W79039  38.944  38.948  13.332
11972W        W79040   3.445  40.922   3.368
11973W        W79041  31.115  44.936   4.753
11974W        W79042   2.867  26.200  10.603
11975W        W79043  32.514  28.492   1.422
11976W        W79044   0.807  14.779  14.360
11977W        W79045  22.580  27.016   4.121
11978W        W79046  14.826  43.378   3.377
11979W        W79047  19.154  10.289   0.444
11980W        W79048   1.925   6.757   4.661
11981W        W79049  31.568  12.672   2.378
11982W        W79050  11.788  12.809   3.204
11983W        W79051  18.115  21.702   3.869
11984W        W79052   2.449  19.116   0.313
11985W        W79053  34.423  10.287  10.474
11986W        W79054  42.886   1.914  10.079
11987W        W79055   0.835  19.255   1.302
11988W        W79056   9.379  21.669  10.589
11989W        W79057   4.893  35.419  14.868
11990W        W79058  30.560  34.566  12.910
11991W        W79059  30.045  33.553   1.717
11992W        W79060  40.806  31.020   2.863
11993W        W79061   7.820  21.614  13.937
11994W        W79062  23.166  33.060   2.739
11995W        W79063   9.859  28.451  14.366
11996W        W79064  36.885   0.798   2.321
11997W        W79065   9.183   6.839   4.335
11998W        W79066  31.641  15.679   3.197
11999W        W79067   1.395  28.575   1.771
12000W        W79068  38.052  10.838  14.912
12001W        W79069  28.175  43.976   1.910
12002W        W79070   2.286  35.855  10.644
12003W        W79071  11.672  39.053  10.041
12004W        W79072  44.262  23.494   4.176
12005W        W79073   4.381   0.974   0.430
12006W        W79074  29.546   8.721   0.312
12007W        W79075  38.852  24.697   2.684
12008W        W79076   2.899  37.488  14.928
12009W        W79077  40.887  23.045  11.045
12010W        W79078  35.500  34.891  13.446
12011W        W79079  14.613  30.617   1.237
12012W        W79080  29.594  37.553  12.848
12013W        W79081  22.018  40.465   1.859
12014W        W79082  10.863  12.742  14.783
12015W        W79083  34.047  16.705  14.394
12016W        W79084  15.239  38.401  10.998
12017W        W79085   8.222  31.608   0.886
12018W        W79086  43.293  35.389  10.996
12019W        W79087  42.451   7.233  14.879
12020W        W79088   0.375  32.007   9.445
12021W        W79089  29.174  36.844   4.661
12022W        W79090  37.420  39.317   3.237
12023W        W79091  39.990  14.094   1.382
12024W        W79092  29.150  13.640   1.741
12025W        W79093   4.867  29.077  10.623
12026W        W79094   2.406  41.484  10.896
12027W        W79095  23.723  37.856  10.477
12028W        W79096  35.461   9.312  13.399
12029W        W79097  17.121   5.866   3.726
12030W        W79098  11.811   3.454   1.284
12031W        W79099  38.872  15.154   3.817
12032W        W79100   8.262   0.810   1.450
12033W        W79101  40.812  13.176   0.481
12034W        W79102  40.351  41.306   4.122
12035W        W79103   9.835   4.898  12.922
12036W        W79104   4.376  31.924  11.524
12037W        W79105  20.617  23.169   1.421
12038W        W79106  29.139  22.590  14.300
12039W        W79107  44.797  30.515   2.707
12040W        W79108   2.316  13.192  11.554
12041W        W79109  38.975  42.374   2.185
12042W        W79110  19.039  20.737   1.250
12043W        W79111  21.605  14.294  14.500
12044W        W79112  40.889  36.359  14.789
12045W        W79113  23.575  41.947  13.005
12046W        W79114  39.819  15.642   2.707
12047W        W79115  31.005   8.237   4.337
12048W        W79116   0.790  44.938   2.295
12049W        W79117  16.656  18.616  12.525
12050W        W79118  30.975  16.079   4.215
12051W        W79119  15.757  12.238   1.371
12052W        W79120   0.885  23.121   3.207
12053W        W79121   8.859  21.081   3.725
12054W        W79122   1.952  22.111   1.444
12055W        W79123  32.118  14.204   1.398
12056W        W79124  41.023  40.035   1.327
12057W        W79125   2.819   5.785  14.920
12058W        W79126  36.427  10.314   5.180
12059W        W79127  13.643  37.543   1.340
12060W        W79128  26.540  24.581  11.882
12061W        W79129   7.737  14.737   2.679
12062W        W79130  39.832  41.449   1.882
12063W        W79131  17.185   2.341  10.422
12064W        W79132  32.954  13.254  10.895
12065W        W79133  27.656  34.024   4.165
12066W        W79134   4.311  38.851   4.181
12067W        W79135  17.148  43.909   4.727
12068W        W79136   1.744  43.414  13.534
12069W        W79137  42.499  34.372   1.431
12070W        W79138  37.084  14.275   3.185
12071W        W79139  12.359  30.431  11.546
12072W        W79140  25.601  16.111  13.945
12073W        W79141  36.370  42.397   4.649
12074W        W79142  43.943  34.383  13.486
12075W        W79143   3.718  31.545  10.490
12076W        W79144  14.127  19.619  13.491
12077W        W79145  11.198  33.574  11.909
12078W        W79146   3.747  40.438   3.787
12079W        W79147  41.995  10.763   2.208
12080W        W79148  35.363   9.781   0.751
12081W        W79149   6.423  37.374  13.412
12082W        W79150  16.623  19.220   2.178
12083W        W79151  21.524  28.169   2.360
12084W        W79152  43.991  18.601  13.837
12085W        W79153   2.824   6.341   2.334
12086W        W79154   6.847   8.885  11.079
12087W        W79155  22.558  11.816   2.367
12088W        W79156  29.931   1.833  12.516
12089W        W79157   8.896  12.668  12.911
12090W        W79158  11.751  43.888   4.757
12091W        W79159  14.652  42.900  12.558
12092W        W79160   6.225  24.688   1.343
12093W        W79161  18.294   8.705   4.248
12094W        W79162  14.242  30.486  12.008
12095W        W79163   7.373  13.345   1.429
12096W        W79164  13.342  23.595   1.348
12097W        W79165  18.786   0.337  10.403
12098W        W79166  40.309  33.106   0.962
12099W        W79167  35.408  23.517   2.272
12100W        W79168  27.635  26.642  14.871
12101W        W79169  33.606  40.369  10.484
12102W        W79170  24.673  41.391   4.262
12103W        W79171  40.891  30.110   2.180
12104W        W79172  44.772  27.946   0.311
12105W        W79173  35.438  21.110   1.291
12106W        W79174  31.600  43.958   2.400
12107W        W79175  10.869  17.710   4.342
12108W        W79176  41.930  21.163  10.527
12109W        W79177  25.472  37.553  12.055
12110W        W79178  37.975  22.595   4.293
12111W        W79179  41.016  41.386   3.738
12112W        W79180  23.094   4.784  11.591
12113W        W79181  32.593  12.809  11.488
12114W        W79182   6.742  14.261  13.057
12115W        W79183   3.221  27.464  13.850
12116W        W79184  41.345  18.081  11.903
12117W        W79185   3.752   7.375   4.613
12118W        W79186  21.620  17.603   1.325
12119W        W79187  27.445  10.169   2.757
12120W        W79188  17.736  15.588  13.529
12121W        W79189  15.287  43.347  10.931
12122W        W79190  35.919  40.433   2.674
12123W        W79191  16.698  11.127  14.361
12124W        W79192   8.740  28.082   0.964
12125W        W79193   3.945  41.855  13.377
12126W        W79194  13.725  33.455  13.059
12127W        W79195   6.305  31.455  14.885
12128W        W79196  28.019  12.623   0.952
12129W        W79197  38.819  32.899  13.536
12130W        W79198  33.930  10.779  13.993
12131W        W79199  24.052   5.774   1.841
12132W        W79200   8.679  27.502  12.928
12133W        W79201   9.254  24.064   1.744
12134W        W79202   7.712   6.683  13.412
12135W        W79203   2.311  41.034  14.793
12136W        W79204  32.974  17.152  10.954
12137W        W79205   9.189  37.532   1.837
12138W        W79206  30.915  29.948  13.998
12139W        W79207  37.515  32.470  12.436
12140W        W79208  14.687  42.875  14.390
12141W        W79209  38.339  27.591   0.859
12142W        W79210   7.894  31.136  12.922
12143W        W79211  11.653  15.756   2.854
12144W        W79212  17.574  43.445  11.041
12145W        W79213  28.063  36.502  10.897
12146W        W79214   5.709  21.577   1.764
12147W        W79215  15.089  33.604  10.495
12148W        W79216  10.650  24.656  13.336
12149W        W79217  10.343  28.150   1.434
12150W        W79218  26.646  14.185   0.868
12151W        W79219  31.554   8.206  12.432
12152W        W79220  36.397  18.074   2.270
12153W        W79221  22.616  17.263  14.400
12154W        W79222  27.662   5.295   2.778
12155W        W79223  40.825  29.153   2.804
12156W        W79224  27.483  20.586   0.754
12157W        W79225  39.919   3.789  13.881
12158W        W79226  13.120  10.325  11.013
12159W        W79227  34.089  25.022   4.225
12160W        W79228  10.198  35.379  13.016
12161W        W79229  25.182  17.070   4.194
12162W        W79230  23.666  11.859  11.945
12163W        W79231   3.760  16.737   0.805
12164W        W79232   7.701  38.325   2.417
12165W        W79233  12.157   9.724  12.009
12166W        W79234  23.232  15.210  13.048
12167W        W79235   5.808  39.830  11.901
12168W        W79236   3.333  25.074  13.885
12169W        W79237  17.627  23.707  11.066
12170W        W79238  32.582  35.060   0.368
12171W        W79239  33.085  28.173  13.917
12172W        W79240  18.201   7.305   0.736
12173W        W79241   4.743  41.515  11.491
12174W        W79242  44.825  21.680   0.300
12175W        W79243  18.128  37.834   1.880
12176W        W79244  41.482  31.553  10.588
12177W        W79245  44.952  41.887   2.301
12178W        W79246  25.526  11.773   1.334
12179W        W79247   2.826  18.679   1.770
12180W        W79248  12.702   1.255   1.901
12181W        W79249  23.723  43.914  12.434
12182W        W79250  15.176  12.327   2.394
12183W        W79251   1.762  26.037  13.354
12184W        W79252  18.164  21.701   1.356
12185W        W79253   2.317  11.223  11.868
12186W        W79254  41.299  25.548   0.415
12187W        W79255  23.198  22.718  14.365
12188W        W79256   4.862  37.557  14.857
12189W        W79257  40.836  13.345   3.248
12190W        W79258  37.490  31.610   1.285
12191W        W79259  42.894   1.885   3.244
12192W        W79260  14.628   1.955  12.537
12193W        W79261  22.673   7.827   0.941
12194W        W79262  19.714  41.411  13.467
12195W        W79263  21.588  17.629   2.724
12196W        W79264  15.666   0.419   0.887
12197W        W79265  28.678  21.708  13.979
12198W        W79266  33.058  31.926   3.713
12199W        W79267  44.300   7.182   5.278
12200W        W79268   0.786  38.490  12.907
12201W        W79269  22.747  40.358   3.286
12202W        W79270  21.611  21.653   4.755
12203W        W79271  37.849   9.185  14.369
12204W        W79272  35.551  43.318  12.348
12205W        W79273   6.335  23.511  13.347
12206W        W79274  31.576   0.952   0.433
12207W        W79275  20.170   7.290  14.333
12208W        W79276  36.009  13.843  13.871
12209W        W79277   6.229  14.236   1.753
12210W        W79278  43.859  22.530   3.197
12211W        W79279  25.586  19.740   4.831
12212W        W79280  41.835  37.355   3.387
12213W        W79281   4.343  42.806   0.888
12214W        W79282  24.143  34.077   1.366
12215W        W79283  12.792  39.035   2.261
12216W        W79284  27.514  15.178  14.023
12217W        W79285  36.501  31.086   2.703
12218W        W79286  16.251  20.749  11.437
12219W        W79287  43.393  20.162  14.023
12220W        W79288   8.283  35.096  11.964
12221W        W79289  10.831   1.366   4.688
12222W        W79290  23.620  38.401   0.332
12223W        W79291  26.579   0.833  10.930
12224W        W79292  16.294  10.841   4.629
12225W        W79293  24.214  32.467   4.299
12226W        W79294  38.886  12.798   3.851
12227W        W79295  14.209  38.342  14.403
12228W        W79296  16.159  32.601   0.369
12229W        W79297  12.644  38.367  13.321
12230W        W79298  13.238  22.699  13.945
12231W        W79299  18.149  42.915  10.463
12232W        W79300  44.818  23.566   4.325
12233W        W79301  30.444  25.096  11.946
12234W        W79302   0.301   2.871  13.997
12235W        W79303  24.001  26.136  11.004
12236W        W79304  26.692  15.171  10.931
12237W        W79305  39.416  44.422   3.377
12238W        W79306  16.761  13.179   3.810
12239W        W79307   7.751   1.851   2.232
12240W        W79308   2.308  32.393   2.215
12241W        W79309  38.929  13.629   4.160
12242W        W79310  36.948  41.938  11.497
12243W        W79311  43.355  16.582   4.769
12244W        W79312  23.176  12.736  13.003
12245W        W79313   2.272  38.416  12.018
12246W        W79314   2.290  19.543   0.338
12247W        W79315  42.416  29.954  12.421
12248W        W79316  29.996  36.858  14.978
12249W        W79317   8.171   7.387   2.300
12250W        W79318  38.828  22.117   0.479
12251W        W79319  29.038  20.769  10.462
12252W        W79320  18.659  37.429  12.973
12253W        W79321  30.108  19.764  13.400
12254W        W79322   2.393   5.255   1.850
12255W        W79323  27.092  10.177  13.012
12256W        W79324   9.826  11.370  10.924
12257W        W79325  42.491  30.476   1.787
12258W        W79326  11.144  34.111  11.100
12259W        W79327  16.710  25.531  13.448
12260W        W79328  20.031  34.985  12.980
12261W        W79329  33.936  12.773  14.789
12262W        W79330  25.184   6.901  11.099
12263W        W79331  21.754  24.108   3.853
12264W        W79332  28.508   7.718   3.654
12265W        W79333  34.121  44.297  11.892
12266W        W79334  16.110   9.674   3.825
12267W        W79335  31.988  11.669  14.363
12268W        W79336  27.683  43.022  13.548
12269W        W79337  12.773  10.368   1.866
12270W        W79338   4.739  40.923   0.778
12271W        W79339  42.799  13.728   0.448
12272W        W79340  25.138  24.096   1.391
12273W        W79341   1.357  43.853   3.162
12274W        W79342  12.287   2.908   0.781
12275W        W79343  42.954  19.163   0.454
12276W        W79344   4.875  31.921   1.345
12277W        W79345  36.981   6.881   2.828
12278W        W79346   5.384   4.759  10.145
12279W        W79347   2.770  42.952   1.451
12280W        W79348  39.918   0.768   0.437
12281W        W79349  38.547  32.583   1.241
12282W        W79350  15.760   8.239  14.475
12283W        W79351  11.662   3.261   2.729
12284W        W79352  43.919  24.496  13.047
12285W        W79353   4.701   3.337  11.556
12286W        W79354  43.771   7.184   4.710
12287W        W79355  22.054  36.433   2.211
12288W        W79356  35.962  40.876  10.486
12289W        W79357   2.254   6.710  14.324
12290W        W79358  44.960  25.160   0.906
12291W        W79359  13.115  32.066   0.392
12292W        W79360  16.210  22.582  10.494
12293W        W79361  12.225  29.571  14.900
12294W        W79362  43.444  38.822  12.418
12295W        W79363   4.911   8.254  12.959
12296W        W79364  37.494  22.648  11.005
12297W        W79365   0.346   0.249  12.530
12298W        W79366   2.245  28.102   5.214
12299W        W79367  44.885  23.703   0.463
12300W        W79368   1.882  21.047  13.882
12301W        W79369  34.109  29.111   1.246
12302W        W79370  28.492  10.730   3.646
12303W        W79371  30.973  35.357   5.123
12304W        W79372  18.760  24.192   1.911
12305W        W79373   5.786  15.282   4.617
12306W        W79374  13.326  34.603  14.917
12307W        W79375   2.889  16.774   3.776
12308W        W79376  31.005  18.648   4.114
12309W        W79377  14.094  14.097  10.610
12310W        W79378  10.349   3.320  11.396
12311W        W79379  42.368  33.571  14.421
12312W        W79380  38.468  22.097  13.353
12313W        W79381  21.593  37.508  10.571
12314W        W79382   2.269  19.595   2.298
12315W        W79383  25.033  24.577  13.878
12316W        W79384  42.918  11.229   2.354
12317W        W79385  27.052  26.041  11.968
12318W        W79386  17.226  43.014   5.255
12319W        W79387  23.192  29.944  11.030
12320W        W79388  15.151  14.805   2.674
12321W        W79389  40.987   7.675   0.882
12322W        W79390  37.411  12.140  14.954
12323W        W79391  36.092   9.779  12.931
12324W        W79392  15.616  31.513   1.388
12325W        W79393  43.832  11.141   0.778
12326W        W79394  43.906  22.675   0.266
12327W        W79395   9.796  21.642   2.766
12328W        W79396   8.389  10.835  10.463
12329W        W79397  16.232  13.178   3.161
12330W        W79398  10.313  22.740   2.259
12331W        W79399  40.543  24.229   2.302
12332W        W79400  24.176  33.990   3.829
12333W        W79401  17.140  24.119  13.856
12334W        W79402   1.277  43.962  12.345
12335W        W79403  23.545  41.352  13.435
12336W        W79404  28.672   1.365   2.312
12337W        W79405  28.497   9.727   4.654
12338W        W79406  44.348  23.216   3.821
12339W        W79407  27.647  36.025   4.230
12340W        W79408   7.321  27.974  14.503
12341W        W79409  36.077  40.958   1.411
12342W        W79410  19.668  22.995  12.432
12343W        W79411  28.982  32.473   9.967
12344W        W79412   1.732   3.763  13.852
12345W        W79413  37.424  29.452  11.581
12346W        W79414   3.887  36.561   4.740
12347W        W79415  25.057  23.683  12.390
12348W        W79416  33.055   8.208  10.504
12349W        W79417  16.151   9.786   0.321
12350W        W79418  21.110  38.504  11.101
12351W        W79419  41.333  37.426   3.859
12352W        W79420   6.893   8.723  14.430
12353W        W79421   3.863   7.723  11.418
12354W        W79422  34.409  43.374  10.923
12355W        W79423  30.577  42.516  14.488
12356W        W79424   8.169  25.053  12.035
12357W        W79425  42.970  36.451   2.392
12358W        W79426  44.907  43.008  14.308
12359W        W79427  12.830  21.735   2.194
12360W        W79428  10.274  34.010   1.368
12361W        W79429  32.589  40.391   3.291
12362W        W79430  40.006   3.900  11.894
12363W        W79431  31.483  41.884   0.450
12364W        W79432   6.821  30.097   0.826
12365W        W79433  42.908  13.641  13.980
12366W        W79434  40.405  13.339   3.294
12367W        W79435  24.637   6.312  14.026
12368W        W79436   3.364  27.543  14.961
12369W        W79437  41.847  21.695  13.418
12370W        W79438  13.702  16.158   4.598
12371W        W79439   0.406  18.253  13.527
12372W        W79440  10.380  40.936   5.206
12373W        W79441  38.432  29.475   4.201
12374W        W79442  16.606  22.999   2.348
12375W        W79443  44.925  28.445   2.351
12376W        W79444   2.297  34.522  13.495
12377W        W79445  25.970  22.089   1.772
12378W        W79446   6.421   4.705   4.149
12379W        W79447   7.889  44.309   4.240
12380W        W79448  14.780  11.159   0.288
12381W        W79449  15.248  27.151  13.021
12382W        W79450  38.448  37.478   3.633
12383W        W79451   6.273  41.469   0.832
12384W        W79452   2.945   7.269  14.920
12385W        W79453  33.520  14.728   3.649
12386W        W79454   7.790   6.764   1.254
12387W        W79455  41.022  18.598   1.702
12388W        W79456  20.179  27.065   2.766
12389W        W79457  12.701  41.911   1.744
12390W        W79458  33.065  17.680  10.984
12391W        W79459  15.086  18.073   3.799
12392W        W79460  33.001  23.222   2.382
12393W        W79461   6.358  42.030   3.243
12394W        W79462  39.477  15.241   1.267
12395W        W79463   0.837  15.191   0.783
12396W        W79464  10.147  36.435  13.430
12397W        W79465  44.934  20.630   0.267
12398W        W79466  20.736  27.949  13.362
12399W        W79467  37.568  13.664  13.365
12400W        W79468  41.488  17.565   3.706
12401W        W79469  24.724  44.272  12.345
12402W        W79470  31.015  21.613  11.909
12403W        W79471  13.328   3.397   3.641
12404W        W79472  38.490  38.948  13.795
12405W        W79473  20.572  21.262   1.414
12406W        W79474  33.918  33.441   0.265
12407W        W79475   2.417  10.870   3.654
12408W        W79476  36.358  38.854  14.000
12409W        W79477  26.096   1.371  11.044
12410W        W79478  17.719   8.732   4.160
12411W        W79479  38.506  21.197   0.768
12412W        W79480  30.093  14.608  13.491
12413W        W79481   3.876  29.596  12.457
12414W        W79482  37.517  32.041  12.015
12415W        W79483  32.403   9.847   1.416
12416W        W79484  20.147  16.127   0.861
12417W        W79485  18.710  24.204   3.327
12418W        W79486   3.878   4.308   2.269
12419W        W79487  44.469   6.391  13.803
12420W        W79488   4.332  42.458   4.332
12421W        W79489  42.325  10.788   4.147
12422W        W79490  14.216   5.927   4.662
12423W        W79491  25.543  11.636  10.492
12424W        W79492  40.446  13.108   2.681
12425W        W79493   9.737  15.671  10.509
12426W        W79494  18.155  40.871   3.190
12427W        W79495  17.222  37.080   4.788
12428W        W79496  34.959   3.917  10.429
12429W        W79497   6.756  20.128   3.315
12430W        W79498  12.166   6.697   4.244
12431W        W79499  36.864  18.731   3.720
12432W        W79500  26.994  27.176   3.266
12433W        W79501  38.037  17.271   1.807
12434W        W79502   5.390  23.025  14.846
12435W        W79503  32.459   0.963  11.884
12436W        W79504   4.767  22.223  12.827
12437W        W79505  17.746   6.364  10.987
12438W        W79506  27.069  43.979   4.345
12439W        W79507   3.734   4.806   0.307
12440W        W79508  33.522  38.993  13.313
12441W        W79509  14.713   8.252   2.281
12442W        W79510  19.641  34.538  12.035
12443W        W79511  43.442  21.213  12.965
12444W        W79512  28.537  13.692   0.842
12445W        W79513  36.481   7.885  12.359
12446W        W79514  38.988  19.208  13.869
12447W        W79515   1.413  35.520   1.722
12448W        W79516  34.956  18.087  13.995
12449W        W79517  15.649  14.707   4.828
12450W        W79518  43.814  40.527  11.516
12451W        W79519  30.079  21.215  10.572
12452W        W79520  34.394  15.176  10.579
12453W        W79521  42.459   7.751  11.921
12454W        W79522   1.908  28.071   4.645
12455W        W79523  15.181   2.436   0.731
12456W        W79524  31.609  41.376  11.078
12457W        W79525   5.827  19.670   4.210
12458W        W79526  18.675   3.900   4.284
12459W        W79527   2.348  30.575  14.453
12460W        W79528  19.192  21.720   0.764
12461W        W79529  15.685  14.683   1.906
12462W        W79530  39.544  33.888  10.979
12463W        W79531  17.756  22.720   2.692
12464W        W79532  21.089  25.578  11.596
12465W        W79533  44.274  26.476   2.734
12466W        W79534  37.346   8.317  14.357
12467W        W79535  15.632   2.394   4.255
12468W        W79536  33.538  12.825  11.046
12469W        W79537   5.418  18.618  13.403
12470W        W79538  18.598  39.876  12.508
12471W        W79539  37.088  12.340  11.556
12472W        W79540  27.672  17.220  14.397
12473W        W79541  27.504   6.398  13.387
12474W        W79542  28.076   1.349  13.542
12475W        W79543   2.394  10.216  10.105
12476W        W79544   4.409   9.818   1.716
12477W        W79545  26.576  21.028  11.546
12478W        W79546  18.291  35.072  11.927
12479W        W79547  27.991   3.735  14.398
12480W        W79548  16.746   7.409  14.429
12481W        W79549  28.564  13.739  13.876
12482W        W79550  44.809  20.733  13.063
12483W        W79551   6.273  22.555   3.262
12484W        W79552  28.516   5.873   4.608
12485W        W79553   4.441   2.376   2.830
12486W        W79554  43.916   5.771  14.833
12487W        W79555  10.273  32.615   3.375
12488W        W79556   8.207  14.233  12.094
12489W        W79557  36.056  14.620   1.905
12490W        W79558  38.831  37.523   0.284
12491W        W79559  14.779  26.599  11.465
12492W        W79560  22.536   9.311  12.949
12493W        W79561  15.193   3.258   4.180
12494W        W79562  14.679   4.837  12.402
12495W        W79563  19.059  16.148   2.400
12496W        W79564  43.901  12.241   2.409
12497W        W79565  23.529  10.824  13.380
12498W        W79566  21.121  22.666   4.326
12499W        W79567   2.242  29.545   1.404
12500W        W79568   4.823  18.233  13.889
12501W        W79569  19.206   5.871  13.024
12502W        W79570  13.828   6.748   2.822
12503W        W79571  38.411  31.063   2.800
12504W        W79572  18.190   6.759  12.995
12505W        W79573   4.361  39.965   0.353
12506W        W79574   5.706  44.007   0.790
12507W        W79575   9.813  18.717   4.787
12508W        W79576  28.007  31.628   0.275
12509W        W79577  28.062  41.380  11.885
12510W        W79578   0.759   6.205   0.422
12511W        W79579   1.973  37.459   1.888
12512W        W79580  43.497  19.096  13.483
12513W        W79581  43.952  19.625  11.026
12514W        W79582  30.535  31.943  14.786
12515W        W79583  27.678  13.771  10.578
12516W        W79584   0.277  20.555  14.031
12517W        W79585  26.692   1.954  10.442
12518W        W79586  16.098  41.327  14.467
12519W        W79587  16.095  18.684   2.675
12520W        W79588  42.894   8.787  10.532
12521W        W79589  25.565  41.310  11.433
12522W        W79590  30.586  38.366   4.612
12523W        W79591  42.923  40.463   3.754
12524W        W79592  42.853  19.236   4.192
12525W        W79593  32.585  31.967   3.340
12526W        W79594   3.781  34.915  13.419
12527W        W79595   9.175  17.670   1.336
12528W        W79596  19.251   3.758   0.821
12529W        W79597  42.869   8.203  12.961
12530W        W79598  39.984  16.101  12.544
12531W        W79599  22.692  16.162  11.068
12532W        W79600  27.667  15.192  14.788
12533W        W79601  28.571  41.436   1.752
12534W        W79602   3.386  40.443   1.320
12535W        W79603  25.044   7.358   0.894
12536W        W79604  14.124  15.709   3.329
12537W        W79605  33.386  40.314   9.972
12538W        W79606  44.759  26.478   0.424
12539W        W79607   2.386  22.648   1.809
12540W        W79608  35.552  13.756   4.604
12541W        W79609  14.269  35.973  13.460
12542W        W79610  15.594  22.717   4.631
12543W        W79611  19.209  35.480   3.655
12544W        W79612  35.503  11.168  12.565
12545W        W79613   4.832   8.242  14.012
12546W        W79614  31.486  18.601  13.959
12547W        W79615  27.130  12.174  12.454
12548W        W79616  12.150   8.394   0.328
12549W        W79617   9.799  16.200  13.904
12550W        W79618  12.633  12.721   0.369
12551W        W79619  10.228  24.125   2.722
12552W        W79620  12.842  25.485  12.416
12553W        W79621   1.383   1.461  13.793
12554W        W79622  29.158   4.403  14.392
12555W        W79623   4.930  24.617   0.281
12556W        W79624  16.791   2.722   1.931
12557W        W79625  13.659   2.888   4.828
12558W        W79626  16.205  24.181  13.841
12559W        W79627  30.936  42.794  10.619
12560W        W79628  43.436  10.649   3.763
12561W        W79629   5.926   3.288  11.434
12562W        W79630  18.562  10.783   1.434
12563W        W79631  42.294  19.173   2.720
12564W        W79632  39.910  40.965  11.576
12565W        W79633  15.696  23.139  12.048
12566W        W79634   1.794  34.957  14.466
12567W        W79635  17.082   6.254  10.966
12568W        W79636   8.816   9.236   0.892
12569W        W79637  16.763  12.153   3.787
12570W        W79638  42.419  19.233  11.955
12571W        W79639  42.473  42.405   0.960
12572W        W79640  40.902  28.018  12.459
12573W        W79641  32.936  31.626   0.854
12574W        W79642   3.893  28.454   4.634
12575W        W79643  35.395  27.082   1.749
12576W        W79644  35.416   7.688  12.064
12577W        W79645  13.613   9.755  10.483
12578W        W79646  44.990  19.213  10.468
12579W        W79647   1.284  24.535  12.979
12580W        W79648  29.635   3.234  12.975
12581W        W79649  26.520  40.507   1.312
12582W        W79650  40.847  12.231   1.822
12583W        W79651  35.958  44.387   4.664
12584W        W79652  27.109  19.163  12.380
12585W        W79653  31.622  38.340  12.404
12586W        W79654  31.905  14.626  13.994
12587W        W79655  11.765  10.378   2.291
12588W        W79656  35.519   5.423   4.716
12589W        W79657  38.919   3.808   3.724
12590W        W79658  32.484  18.684  11.565
12591W        W79659  26.647   1.332  12.406
12592W        W79660   6.864  41.800  10.438
12593W        W79661  18.615  38.547  10.562
12594W        W79662  28.151   7.850   5.112
12595W        W79663  17.593   7.859   0.337
12596W        W79664  21.228   2.910   0.419
12597W        W79665  41.318  44.473  12.449
12598W        W79666  44.442   4.918  10.900
12599W        W79667   3.284  26.547   4.193
12600W        W79668  34.573  42.509  12.409
12601W        W79669  23.074  11.140   2.876
12602W        W79670   4.273   0.264  11.111
12603W        W79671  10.234  28.003   4.630
12604W        W79672   8.755  37.054   0.435
12605W        W79673  31.965  31.119   1.857
12606W        W79674   1.784   7.688   0.262
12607W        W79675  21.085   6.284   1.311
12608W        W79676  18.741  19.674  10.411
12609W        W79677  13.702  24.518  14.892
12610W        W79678  38.375  37.865   1.926
12611W        W79679  39.451   9.889   3.765
12612W        W79680  28.679  20.135   2.185
12613W        W79681   4.386   5.796  12.084
12614W        W79682  36.519  12.144  14.356
12615W        W79683  22.157  40.820   4.200
12616W        W79684   1.773  18.617  10.621
12617W        W79685  30.961  15.323   3.768
12618W        W79686   7.320  44.915  13.466
12619W        W79687  35.092   5.261   0.755
12620W        W79688  24.149  12.212  11.038
12621W        W79689   9.658  37.011  11.533
12622W        W79690  21.559  25.666   2.820
12623W        W79691  34.940  31.033   0.841
12624W        W79692  26.187  12.270   3.856
12625W        W79693   0.429  30.974   3.733
12626W        W79694  37.542   5.338  13.513
12627W        W79695  17.151  28.625   3.758
12628W        W79696  26.070  31.927  13.859
12629W        W79697  19.265  43.431  12.493
12630W        W79698   8.170  26.053   4.160
12631W        W79699  25.594  16.235  12.893
12632W        W79700   9.173  15.278  14.872
12633W        W79701  27.998   4.251   1.729
12634W        W79702  36.444  42.012   4.763
12635W        W79703   3.273  19.687   0.435
12636W        W79704   8.341  29.013   1.793
12637W        W79705  13.123  24.050   3.754
12638W        W79706   7.780  42.906  10.923
12639W        W79707  23.647  31.926   0.319
12640W        W79708   5.863  36.012   0.343
12641W        W79709  43.825   7.761  11.483
12642W        W79710  19.039  38.537   4.210
12643W        W79711  14.608   3.716  12.022
12644W        W79712  25.168  43.277   1.374
12645W        W79713  37.917   8.682   3.825
12646W        W79714  35.021  28.555  14.795
12647W        W79715  13.613  18.724   0.303
12648W        W79716   3.366  16.612   3.383
12649W        W79717  23.053  44.330  13.962
12650W        W79718  30.417  18.107   3.337
12651W        W79719  34.429  37.361  14.888
12652W        W79720  17.252   6.315   2.266
12653W        W79721  12.781  27.128   2.301
12654W        W79722  16.229  35.922   1.869
12655W        W79723  39.508  18.777  14.451
12656W        W79724  15.706  13.644  12.041
12657W        W79725   2.422  15.630   0.944
12658W        W79726  44.286  39.998   4.782
12659W        W79727  21.541   2.883  13.426
12660W        W79728   7.739  19.274  13.379
12661W        W79729   1.413   9.740  10.453
12662W        W79730  16.592   1.323  14.310
12663W        W79731  25.163  28.067   4.273
12664W        W79732   6.761  36.387   0.462
12665W        W79733  17.259  35.389  11.478
12666W        W79734   8.654  37.842  12.374
12667W        W79735  35.072   4.343  11.958
12668W        W79736  30.413  22.716   4.767
12669W        W79737  16.190  41.957  11.503
12670W        W79738   2.964  15.706   3.691
12671W        W79739   4.875  27.102  12.063
12672W        W79740  30.496  11.238   3.353
12673W        W79741  32.423   9.261   0.941
12674W        W79742  25.035  29.946  11.034
12675W        W79743  26.061  21.175   1.696
12676W        W79744  12.847  19.687  14.422
12677W        W79745   6.417  36.452  13.485
12678W        W79746  29.549  23.603   2.280
12679W        W79747  17.146  12.797  13.545
12680W        W79748   6.315  40.544  13.867
12681W        W79749  16.130  19.648   0.884
12682W        W79750  28.114   3.911  14.016
12683W        W79751  14.287  21.258  11.549
12684W        W79752   5.744   5.315  11.052
12685W        W79753  39.926  15.669  10.904
12686W        W79754   6.692  39.060   1.885
12687W        W79755  21.735  21.722   2.361
12688W        W79756  32.414   0.967  11.024
12689W        W79757  40.027  22.019   0.420
12690W        W79758   3.954  43.335   0.380
12691W        W79759  35.054  20.193   1.816
12692W        W79760  39.051  42.026   4.639
12693W        W79761   7.700  25.072   0.381
12694W        W79762   0.344  42.332   4.768
12695W        W79763  12.231  24.202  12.893
12696W        W79764  42.813   3.739  12.362
12697W        W79765  22.135  30.482   3.860
12698W        W79766  12.139   3.364   4.285
12699W        W79767   9.674  24.123   3.712
12700W        W79768   5.360  34.081   3.842
12701W        W79769  16.220   1.366  10.459
12702W        W79770  39.462  39.952  13.034
12703W        W79771   0.951  18.269  14.902
12704W        W79772  44.941  17.065  14.933
12705W        W79773   1.973   1.868  13.973
12706W        W79774  29.544  29.606  14.302
12707W        W79775   1.829  27.628  11.917
12708W        W79776  41.450  36.067  11.907
12709W        W79777  43.932  44.853   0.860
12710W        W79778  38.436  23.691  13.886
12711W        W79779   2.459  27.561   3.173
12712W        W79780  12.285  28.038  14.993
12713W        W79781  13.650  42.469  14.839
12714W        W79782  35.421   2.860  11.381
12715W        W79783  31.995   9.836  10.549
12716W        W79784  40.949  15.606  11.447
12717W        W79785   3.870  21.040   1.300
12718W        W79786   9.716   3.418   1.890
12719W        W79787  25.513  30.637   1.775
12720W        W79788  22.654  25.169  12.388
12721W        W79789   1.871  12.335  10.970
12722W        W79790  21.079  19.253   0.814
12723W        W79791  18.051   7.701   2.878
12724W        W79792  40.828  39.508   0.405
12725W        W79793  30.119   0.368  14.975
12726W        W79794   2.801  33.075  11.881
12727W        W79795  37.558  22.594   1.278
12728W        W79796  31.146  14.637   2.863
12729W        W79797   1.808  22.235   3.289
12730W        W79798  21.592  28.546  12.462
12731W        W79799  44.861  21.681  12.943
12732W        W79800  22.093  32.537   4.316
12733W        W79801   1.875  18.594   4.611
12734W        W79802  38.001  11.330   3.658
12735W        W79803  14.114  43.892   1.916
12736W        W79804  35.103   9.889  14.499
12737W        W79805  21.539  22.555  13.817
12738W        W79806  14.332  42.800   2.278
12739W        W79807  13.164  14.109  13.485
12740W        W79808  30.436  25.087   4.142
12741W        W79809  30.136  20.222  13.032
12742W        W79810   0.903  16.630   0.743
12743W        W79811  29.174  15.774   2.753
12744W        W79812   5.425  30.116   4.259
12745W        W79813  44.827  28.441  14.929
12746W        W79814  33.381  12.173  12.909
12747W        W79815   4.350   0.910   1.271
12748W        W79816   1.949  42.811   1.916
12749W        W79817  35.075  40.880   2.872
12750W        W79818  12.197  44.282   5.141
12751W        W79819  40.387  29.443  10.439
12752W        W79820  19.070   7.331  12.920
12753W        W79821  33.621  24.572  11.435
12754W        W79822  16.258  33.041   3.669
12755W        W79823  44.851  24.633  11.862
12756W        W79824   7.905  30.925   1.314
12757W        W79825  24.502  21.243  11.068
12758W        W79826  41.943  44.412   3.374
12759W        W79827   0.344  42.935  11.944
12760W        W79828  33.915   5.774  12.885
12761W        W79829  10.681  15.621   3.162
12762W        W79830   9.859  38.988  13.352
12763W        W79831  14.609  32.538  14.827
12764W        W79832   7.179  19.533   0.782
12765W        W79833   9.676  33.473  12.349
12766W        W79834  11.141  36.053  11.383
12767W        W79835  22.158  42.950   0.837
12768W        W79836  22.608  18.077  11.932
12769W        W79837  28.079  23.173   0.279
12770W        W79838  36.074  32.461  14.865
12771W        W79839  18.695  26.073   4.283
12772W        W79840  16.243  22.712   4.681
12773W        W79841   9.656  35.573   2.669
12774W        W79842  29.174   4.429   1.793
12775W        W79843  29.592   0.952   3.682
12776W        W79844   2.892  19.083   3.308
12777W        W79845  32.609  20.753   2.719
12778W        W79846  28.478   3.260   1.279
12779W        W79847   7.306  32.550  12.377
12780W        W79848   8.720   9.230  13.363
12781W        W79849  26.538   9.349  12.967
12782W        W79850  20.602  15.105   3.187
12783W        W79851   9.296  37.841  10.533
12784W        W79852   4.429  44.466  14.411
12785W        W79853  19.184   0.368   3.332
12786W        W79854  24.012  21.160   4.220
12787W        W79855  34.511  18.092   1.880
12788W        W79856  36.418   3.270  13.463
12789W        W79857   9.154  22.176  10.921
12790W        W79858  22.043  31.547  10.918
12791W        W79859  29.458  11.808   4.346
12792W        W79860   2.356   0.314  14.761
12793W        W79861  39.945  11.302   1.412
12794W        W79862  21.599  24.028   4.355
12795W        W79863  36.590  16.791   2.192
12796W        W79864  44.842  38.412  13.993
12797W        W79865  27.176  38.346  11.858
12798W        W79866  40.898   0.427  14.853
12799W        W79867  23.680   4.356  10.905
12800W        W79868  39.551  13.333  12.348
12801W        W79869  28.994  32.606  11.436
12802W        W79870  26.016  27.607  13.995
12803W        W79871  18.064  27.001   2.218
12804W        W79872  24.654  25.567   2.791
12805W        W79873  25.507  17.692  12.398
12806W        W79874  40.369  32.974  14.386
12807W        W79875  31.403  32.469  14.006
12808W        W79876  24.480  36.928   3.192
12809W        W79877  35.385  11.652  11.524
12810W        W79878  15.699  11.206   2.871
12811W        W79879  18.080  43.347   0.946
12812W        W79880  15.807   7.386  11.958
12813W        W79881  35.574   8.753   1.857
12814W        W79882  37.986  37.888  11.928
12815W        W79883  30.994  11.264  12.087
12816W        W79884  22.690  28.442  13.323
12817W        W79885  11.703  18.631  13.370
12818W        W79886   6.760  15.230  14.447
12819W        W79887  43.446  41.939   2.254
12820W        W79888   2.806  38.899   3.269
12821W        W79889  13.624   5.270   2.828
12822W        W79890   1.240  37.580  12.015
12823W        W79891  34.945  20.124   3.291
12824W        W79892  34.455  19.570  12.908
12825W        W79893  18.773   1.756   2.709
12826W        W79894  21.019  14.123  13.012
12827W        W79895  26.567  28.129   0.965
12828W        W79896  35.523  22.016  10.635
12829W        W79897  24.593  40.480  10.425
12830W        W79898  10.185   5.708   1.926
12831W        W79899  26.665  40.412   4.686
12832W        W79900   8.814   6.807  11.871
12833W        W79901  36.846  26.505   0.392
12834W        W79902  20.055  17.737   3.287
12835W        W79903  35.419  33.061   1.791
12836W        W79904  13.789  21.180   2.327
12837W        W79905  40.544  29.000   4.676
12838W        W79906   9.725  29.613  10.594
12839W        W79907  25.159  11.322  13.493
12840W        W79908  27.550  39.906  13.912
12841W        W79909  26.594  29.449   3.746
12842W        W79910  10.196  14.606   3.788
12843W        W79911  13.212  41.978  13.435
12844W        W79912  11.256   1.916  14.490
12845W        W79913  33.013  34.488   0.459
12846W        W79914   9.388  13.150  13.378
12847W        W79915  42.317  28.952   1.711
12848W        W79916   2.279   0.445   1.756
12849W        W79917   7.907  43.855  13.796
12850W        W79918  22.740  23.728  14.501
12851W        W79919  36.981   8.335   2.857
12852W        W79920  19.197   4.281  12.887
12853W        W79921  24.648   2.256   0.743
12854W        W79922   4.751  14.208   3.743
12855W        W79923  27.953  29.580  12.072
12856W        W79924   9.665  11.837  13.956
12857W        W79925  19.286  24.063   4.180
12858W        W79926  17.742  24.566   4.774
12859W        W79927  20.624   6.916   1.366
12860W        W79928  29.542   4.795   1.250
12861W        W79929  35.451  11.748   1.754
12862W        W79930   5.228  32.946  14.958
12863W        W79931  28.154  15.757  12.919
12864W        W79932   8.187  23.702  10.426
12865W        W79933   5.858   2.434  12.533
12866W        W79934  31.940  26.130   0.338
12867W        W79935  42.936  22.168  11.911
12868W        W79936   3.455  42.827  10.947
12869W        W79937  34.107  40.448  14.759
12870W        W79938  28.114   7.766   0.732
12871W        W79939   5.292  37.416   0.274
12872W        W79940  40.478  18.573  12.833
12873W        W79941  41.861  10.292  12.398
12874W        W79942  12.313  29.454  12.368
12875W        W79943  15.681  31.639  11.436
12876W        W79944   9.266  25.993  13.938
12877W        W79945  43.314  16.584   0.806
12878W        W79946   9.678  30.917   3.277
12879W        W79947  26.092  44.451   1.701
12880W        W79948  30.447  15.130  12.063
12881W        W79949  18.787  34.389   1.216
12882W        W79950  22.057  18.158   3.326
12883W        W79951  17.221   0.798   5.283
12884W        W79952   3.388  11.166   0.872
12885W        W79953   8.372   2.837   3.823
12886W        W79954  30.587   2.406  10.890
12887W        W79955  44.842  35.077   4.740
12888W        W79956  31.139  11.719  10.107
12889W        W79957  38.987  26.015   0.310
12890W        W79958  34.091  24.559  14.027
12891W        W79959  18.101  16.791  11.030
12892W        W79960  43.343  33.474  10.080
12893W        W79961  24.678  33.462   2.676
12894W        W79962  18.134  18.783  12.522
12895W        W79963   7.788   0.250   4.810
12896W        W79964  10.262  17.097  10.044
12897W        W79965  13.224   0.919   3.749
12898W        W79966  33.498  27.111   4.234
12899W        W79967  20.577  13.822  13.397
12900W        W79968   4.856  20.190  12.554
12901W        W79969  29.042  13.693  11.000
12902W        W79970  36.986  29.146  13.991
12903W        W79971  21.223  25.968   4.739
12904W        W79972  11.142  22.590   0.902
12905W        W79973   5.213  34.868   1.820
12906W        W79974   3.224   1.871  10.644
12907W        W79975  19.718  38.366  14.451
12908W        W79976   3.451  19.637  10.951
12909W        W79977  36.424  18.277   3.700
12910W        W79978  26.120   4.906  14.442
12911W        W79979  16.689  38.508  12.022
12912W        W79980  34.413  44.956   3.767
12913W        W79981  41.310  17.744   3.221
12914W        W79982  12.129  21.595   4.715
12915W        W79983  30.914  11.654  13.967
12916W        W79984  36.951  34.551  10.547
12917W        W79985  28.944  25.132  13.400
12918W        W79986  22.653  26.460  10.007
12919W        W79987   3.825  36.012  11.385
12920W        W79988   5.719  13.712  12.899
12921W        W79989  10.309  16.697  14.963
12922W        W79990   3.402  12.721   2.300
12923W        W79991  25.571  18.051   1.339
12924W        W79992  29.435  19.065   4.758
12925W        W79993  30.127   5.212  10.471
12926W        W79994  19.045  43.993  11.583
12927W        W79995   8.315  40.887   2.370
12928W        W79996  24.588  41.837   1.833
12929W        W79997  13.303   9.757   1.336
12930W        W79998  13.745   5.876   4.613
12931W        W79999  31.556   4.775   1.406
12932W        W80000  38.455  11.245   3.756
12933W        W80001  14.732  43.384   1.934
12934W        W80002   0.433  16.295  10.413
12935W        W80003  38.893  36.891  14.007
12936W        W80004  35.600   0.923  14.501
12937W        W80005  16.682  20.578   2.415
12938W        W80006  21.236  14.719   0.307
12939W        W80007  42.890  18.273  10.579
12940W        W80008  39.372  43.374  11.115
12941W        W80009  28.673   9.847  14.888
12942W        W80010  40.864  36.554  10.434
12943W        W80011  16.220  32.540   0.803
12944W        W80012  35.379   3.840   4.251
12945W        W80013  44.843  29.030   4.257
12946W        W80014  25.499   4.757   2.188
12947W        W80015  23.133  27.022   1.742
12948W        W80016  16.616  41.504  11.038
12949W        W80017  43.908  31.538  13.497
12950W        W80018  25.169  28.656   0.252
12951W        W80019  19.100  39.812  14.969
12952W        W80020  44.401  21.554   3.322
12953W        W80021  44.351   4.413   4.154
12954W        W80022  17.270   7.188   4.812
12955W        W80023  32.073  42.362   2.292
12956W        W80024   8.373  29.558  13.387
12957W        W80025  25.590  12.710   1.287
12958W        W80026  40.824   9.367  13.411
12959W        W80027  16.312  24.027  14.762
12960W        W80028  43.289  43.875  14.858
12961W        W80029   6.729   8.761  14.870
12962W        W80030   2.450  25.980  10.629
12963W        W80031  39.335  41.440   2.725
12964W        W80032   5.855  32.926  13.489
12965W        W80033   6.259  16.217   5.088
12966W        W80034  31.617  20.595   3.761
12967W        W80035  42.992  11.692  13.986
12968W        W80036  44.780  19.769   1.274
12969W        W80037  28.600  26.665   2.823
12970W        W80038  15.580   7.814   4.115
12971W        W80039  10.806  28.458  14.385
12972W        W80040   7.751   8.732   1.897
12973W        W80041   3.783  35.539  11.036
12974W        W80042   7.276  44.929   0.462
12975W        W80043   0.462   7.222   4.799
12976W        W80044  32.481  13.740  10.500
12977W        W80045  39.903  35.525   3.332
12978W        W80046  26.144  41.412  13.033
12979W        W80047  33.912  26.992   0.476
12980W        W80048  40.969   5.362  10.424
12981W        W80049  19.752  26.569  10.441
12982W        W80050   6.911  39.009   4.252
12983W        W80051  21.523  23.513   4.606
12984W        W80052  23.988  28.085  10.140
12985W        W80053  10.312   8.750   3.726
12986W        W80054  41.363  14.606   1.834
12987W        W80055  28.599  30.045   2.339
12988W        W80056  42.469  27.493  11.433
12989W        W80057  19.738  37.479  11.028
12990W        W80058   2.930  41.793   3.709
12991W        W80059  32.971  19.131  14.771
12992W        W80060  42.463  29.553   2.851
12993W        W80061  34.591  22.026   0.249
12994W        W80062   6.246  14.116  12.846
12995W        W80063  41.298  34.999  14.399
12996W        W80064  18.640   0.409  13.511
12997W        W80065  13.780  14.149   2.846
12998W        W80066  37.376  31.550  12.073
12999W        W80067  20.632  30.998  10.645
13000W        W80068  22.688  21.548   1.835
13001W        W80069  34.906  36.938  14.395
13002W        W80070  29.072   7.788  14.032
13003W        W80071  10.359  38.538  12.580
13004W        W80072  25.174   6.264  11.864
13005W        W80073  42.881  37.062   1.822
13006W        W80074  22.652  44.309  13.866
13007W        W80075   7.256   7.761  12.476
13008W        W80076  10.696  29.065  11.904
13009W        W80077  39.887   1.305  10.638
13010W        W80078  38.863   6.253   0.816
13011W        W80079  41.002  41.962  14.310
13012W        W80080   0.451  26.175   1.388
13013W        W80081  15.268  15.155   2.312
13014W        W80082  37.037  32.409  11.083
13015W        W80083  22.148  11.304   4.617
13016W        W80084  42.018  20.061   2.191
13017W        W80085  30.605  35.880   2.752
13018W        W80086   7.178  15.112  12.032
13019W        W80087  15.118  20.097  11.524
13020W        W80088  26.473  24.516  12.465
13021W        W80089  18.082  18.568  10.618
13022W        W80090  24.998  24.495   2.275
13023W        W80091  43.899  17.212  11.109
13024W        W80092   9.189  38.532  13.421
13025W        W80093  39.349  23.076  13.346
13026W        W80094  22.229  20.612   0.371
13027W        W80095  43.346   8.223   1.329
13028W        W80096  37.386  33.080  12.080
13029W        W80097  19.135  26.474   4.684
13030W        W80098  42.902  40.005  11.417
13031W        W80099  13.148  40.343  12.427
13032W        W80100  21.551  30.910   0.248
13033W        W80101  26.613  26.070   2.807
13034W        W80102  15.215   7.244   4.697
13035W        W80103   7.823  27.509  12.363
13036W        W80104  40.889  37.888  10.939
13037W        W80105  23.016  39.487  13.397
13038W        W80106  39.535  37.536   1.820
13039W        W80107  39.873   4.888   0.923
13040W        W80108  11.154   1.946   0.352
13041W        W80109   3.856  16.749  12.553
13042W        W80110   4.703  29.955  10.929
13043W        W80111   9.816  17.621  11.453
13044W        W80112  28.613  31.515   1.282
13045W        W80113   2.447  43.514  13.442
13046W        W80114  44.875  22.670  12.938
13047W        W80115  15.307  42.322  10.925
13048W        W80116  23.122  44.860  13.947
13049W        W80117  19.068  44.816   1.402
13050W        W80118  42.476  17.065   0.946
13051W        W80119  21.200  24.087   3.740
13052W        W80120  43.931  30.970  11.506
13053W        W80121  27.544   7.888   2.281
13054W        W80122  11.333  21.216  10.998
13055W        W80123  38.556  34.481  12.015
13056W        W80124  32.898  31.987  13.413
13057W        W80125  24.151  31.493   2.305
13058W        W80126  44.812  37.549  12.543
13059W        W80127  27.620  26.128   3.678
13060W        W80128  14.690  32.536  14.333
13061W        W80129  42.804  43.817  13.918
13062W        W80130  39.057  16.308   4.616
13063W        W80131  14.591   0.838   0.949
13064W        W80132  18.706  10.261  11.104
13065W        W80133  37.525  24.154  11.494
13066W        W80134  39.897  18.747   1.231
13067W        W80135  15.138  23.175   1.855
13068W        W80136   8.222  21.127  11.399
13069W        W80137  30.004  11.289   0.789
13070W        W80138  39.852  20.755   4.327
13071W        W80139   2.729  38.547   1.873
13072W        W80140   8.226  27.586  10.547
13073W        W80141  33.507   0.431   4.658
13074W        W80142  32.440  17.603   2.280
13075W        W80143  29.169   4.420   4.250
13076W        W80144  34.915  22.197   1.340
13077W        W80145   6.847  16.271   5.704
13078W        W80146  25.708  26.590  12.049
13079W        W80147  26.486  19.147   0.319
13080W        W80148  11.274   9.670  12.052
13081W        W80149   8.225  21.684  13.866
13082W        W80150   9.234  25.188   5.184
13083W        W80151   7.402  31.042  10.895
13084W        W80152  15.175  13.781   1.700
13085W        W80153  39.556  10.206  14.392
13086W        W80154  29.655  44.330  13.529
13087W        W80155  14.589  19.261  13.853
13088W        W80156   6.342  14.700   4.258
13089W        W80157  18.060   5.913  13.829
13090W        W80158  29.118  32.478   0.932
13091W        W80159   6.715  44.275   2.898
13092W        W80160   4.274   9.390  12.444
13093W        W80161   4.379  11.226   4.752
13094W        W80162  12.857  22.020   2.738
13095W        W80163   7.840  14.129   4.238
13096W        W80164   9.342  15.769   1.412
13097W        W80165  10.696  23.549  13.971
13098W        W80166  18.149  14.178   5.272
13099W        W80167  32.965  41.460  12.571
13100W        W80168  44.977   8.790   1.790
13101W        W80169  40.894   7.808  13.527
13102W        W80170  24.485   3.386  12.011
13103W        W80171  42.014  28.467   4.255
13104W        W80172   1.345  34.868  13.994
13105W        W80173  17.083  21.210  11.597
13106W        W80174  37.409  19.148   0.775
13107W        W80175  35.547  33.474   2.776
13108W        W80176  10.218   9.685   1.881
13109W        W80177  31.087  38.825   2.715
13110W        W80178   8.255  43.771  14.934
13111W        W80179  20.084   0.269  14.401
13112W        W80180  39.335  34.055   0.901
13113W        W80181  12.767   3.409   4.218
13114W        W80182  12.748  44.888  10.937
13115W        W80183  17.074  30.975   0.794
13116W        W80184   9.155  20.208   3.384
13117W        W80185  25.131   6.329  10.573
13118W        W80186  33.490  11.332  11.995
13119W        W80187  21.169  12.659  11.605
13120W        W80188  11.866   9.204  13.914
13121W        W80189  35.998  16.120  12.341
13122W        W80190  41.354  26.589   0.303
13123W        W80191  42.499  16.781  13.447
13124W        W80192  30.475  32.950  14.968
13125W        W80193  29.955   4.257   1.314
13126W        W80194  25.153  15.678   0.844
13127W        W80195  30.495   8.308  14.498
13128W        W80196  36.366  23.728  13.340
13129W        W80197  31.511  17.794  11.442
13130W        W80198  11.221  44.822   1.754
13131W        W80199  30.036  34.999  10.122
13132W        W80200  39.406  17.746   2.349
13133W        W80201  16.209   3.294   0.731
13134W        W80202  10.259  31.027   1.419
13135W        W80203   7.251  14.593   4.260
13136W        W80204   8.819  17.694  13.867
13137W        W80205  20.130  32.109   3.816
13138W        W80206  41.993  19.204   4.777
13139W        W80207  26.540  35.887  10.980
13140W        W80208  43.502  35.933  11.398
13141W        W80209   7.308  44.498  12.952
13142W        W80210  27.603  11.362  14.366
13143W        W80211   7.753  25.142   1.308
13144W        W80212  40.381  22.654   2.275
13145W        W80213  28.019  25.998   4.230
13146W        W80214  40.490  44.776   3.313
13147W        W80215   6.748   6.348   4.148
13148W        W80216  12.147   3.441   3.810
13149W        W80217   0.335  17.282   2.672
13150W        W80218  44.349   1.731  14.784
13151W        W80219  25.168  17.232  13.420
13152W        W80220  22.198   9.244  13.038
13153W        W80221  37.523   4.868   1.865
13154W        W80222  37.487   6.363   4.235
13155W        W80223  16.629  10.322  12.895
13156W        W80224  41.412   2.910  10.897
13157W        W80225  29.426  35.496   2.884
13158W        W80226  33.049  36.480   4.134
13159W        W80227   7.818   7.905  11.999
13160W        W80228  19.599   6.774   3.756
13161W        W80229   3.730  44.781  12.362
13162W        W80230  38.427   3.418  13.807
13163W        W80231  28.130  26.695  12.483
13164W        W80232  36.083  28.442   4.643
13165W        W80233  38.545  15.756  11.414
13166W        W80234  42.982   9.302  11.028
13167W        W80235  34.097  20.146   0.328
13168W        W80236  39.510  20.628  10.499
13169W        W80237  15.811   5.793  12.499
13170W        W80238   4.327   8.336  11.553
13171W        W80239  24.596  17.618  13.037
13172W        W80240  19.214   7.365   1.353
13173W        W80241  24.006  43.419  11.612
13174W        W80242  32.540  28.676  13.841
13175W        W80243  30.443  26.002  14.862
13176W        W80244  38.962   0.808   2.252
13177W        W80245  10.663  37.970   0.380
13178W        W80246  24.689   5.196  12.908
13179W        W80247  22.661  32.596  14.342
13180W        W80248  44.814  42.408  14.448
13181W        W80249  42.976  21.686   2.758
13182W        W80250  19.155   5.255  11.452
13183W        W80251  11.345  24.489   4.252
13184W        W80252  21.536  21.527   3.234
13185W        W80253  24.711  18.199   2.315
13186W        W80254   8.765  28.128  13.795
13187W        W80255  17.288  40.985   3.642
13188W        W80256  28.668  35.560  14.337
13189W        W80257  32.629  23.689  11.112
13190W        W80258  44.788  10.650  12.994
13191W        W80259  19.092   6.372   2.304
13192W        W80260  17.694   3.319  11.408
13193W        W80261  32.003   9.301   1.736
13194W        W80262   0.404  43.410  14.445
13195W        W80263  37.433   7.275  10.546
13196W        W80264   8.814  32.020   2.847
13197W        W80265  12.656  12.783   4.310
13198W        W80266   8.734  23.729   0.409
13199W        W80267  25.544  23.654  12.081
13200W        W80268  18.169  34.586  12.908
13201W        W80269  29.032  18.780  12.013
13202W        W80270  39.039  26.524   1.210
13203W        W80271  10.161   2.774  13.818
13204W        W80272   1.348  34.450   3.197
13205W        W80273  12.187  43.839  10.939
13206W        W80274  28.982  21.167   3.316
13207W        W80275   6.347  13.730  11.587
13208W        W80276   8.184  15.194   1.722
13209W        W80277   9.682   0.930   9.499
13210W        W80278  16.111  38.853   3.172
13211W        W80279   0.460   3.947   4.680
13212W        W80280  44.003  25.042   2.279
13213W        W80281  24.717   9.322  11.887
13214W        W80282   4.793  33.391   2.848
13215W        W80283  12.137  14.767   4.292
13216W        W80284   1.377   9.223   1.704
13217W        W80285  21.745   7.287   4.719
13218W        W80286   1.773  10.867  11.373
13219W        W80287  14.751   5.711   1.930
13220W        W80288  26.478  44.894  14.881
13221W        W80289  44.866  41.918  14.932
13222W        W80290  12.236  25.509   1.431
13223W        W80291  33.126  36.935  13.506
13224W        W80292  29.484  38.903   1.724
13225W        W80293  33.436   1.336  11.860
13226W        W80294  23.155  38.436  12.549
13227W        W80295   5.377  19.767   1.900
13228W        W80296  25.666  12.279  11.373
13229W        W80297   5.395  35.859  14.312
13230W        W80298   1.912  30.492   1.873
13231W        W80299  41.821  20.669  10.616
13232W        W80300  27.118   8.782  14.975
13233W        W80301  19.175  36.842  14.773
13234W        W80302  19.599   3.912   3.229
13235W        W80303  43.349  18.274   4.765
13236W        W80304  19.611  20.190   4.806
13237W        W80305   2.884  13.662  10.601
13238W        W80306   2.292  33.121   1.310
13239W        W80307  30.623  39.864  10.612
13240W        W80308  23.002   2.459   1.822
13241W        W80309  12.807  15.596   1.836
13242W        W80310  15.307  17.792  12.358
13243W        W80311  10.848  16.262   3.829
13244W        W80312  32.530  15.297   2.730
13245W        W80313  39.994  44.308   2.192
13246W        W80314   8.819   3.297   0.842
13247W        W80315  30.988   2.764   1.823
13248W        W80316   7.695  24.503   4.607
13249W        W80317  41.384  39.894  13.918
13250W        W80318  24.195  10.329   5.143
13251W        W80319  44.328  27.088  13.035
13252W        W80320  20.574  29.155  12.352
13253W        W80321  18.735  26.524   0.341
13254W        W80322  40.034  15.752  11.871
13255W        W80323  43.822  31.980   1.924
13256W        W80324  33.020   3.910   3.745
13257W        W80325  11.230  10.775  11.938
13258W        W80326  30.977  17.569  11.388
13259W        W80327  36.549  34.420   4.231
13260W        W80328  39.507  32.036   2.356
13261W        W80329  38.067   8.388   3.822
13262W        W80330  31.523  37.466  10.498
13263W        W80331  28.089  33.983  11.974
13264W        W80332   6.278   3.361   0.446
13265W        W80333   3.769  29.091   2.734
13266W        W80334  20.250  32.938   1.711
13267W        W80335  37.076  13.832  12.003
13268W        W80336   1.854  27.523  14.924
13269W        W80337  28.103  11.666   5.194
13270W        W80338  35.436  18.278   0.962
13271W        W80339   4.718  34.912   3.732
13272W        W80340  17.722  17.749  14.795
13273W        W80341  42.986   9.884  13.052
13274W        W80342  37.896  26.129   2.357
13275W        W80343   4.294  23.177  14.488
13276W        W80344  18.196   1.736   4.609
13277W        W80345  37.505  16.296   3.666
13278W        W80346  24.224  17.073  14.320
13279W        W80347  31.574  12.629  10.591
13280W        W80348   9.651  19.597  13.052
13281W        W80349  15.738   0.917   4.790
13282W        W80350  40.829   3.943   1.789
13283W        W80351  43.271  32.092  12.940
13284W        W80352  30.155   1.934   1.934
13285W        W80353  30.485   5.382   2.792
13286W        W80354  12.225   9.814   0.728
13287W        W80355  27.005   8.266   2.802
13288W        W80356  16.738  40.901   0.305
13289W        W80357  35.374   2.299  11.074
13290W        W80358  11.780  43.783   0.280
13291W        W80359  24.614   6.856   4.745
13292W        W80360  24.699  12.694   2.320
13293W        W80361   2.383   2.797   2.699
13294W        W80362  31.574  27.177  12.404
13295W        W80363  22.099  18.176   4.118
13296W        W80364  17.293  29.155  11.475
13297W        W80365  25.123  31.136   3.386
13298W        W80366   5.259  34.462   4.768
13299W        W80367   0.806  38.883   1.346
13300W        W80368  17.673  29.583   0.759
13301W        W80369   6.252  37.526  10.540
13302W        W80370   8.707   3.948   3.181
13303W        W80371  18.085  33.897  13.519
13304W        W80372  41.357   9.660   2.289
13305W        W80373  23.136   9.335   0.430
13306W        W80374  30.935  22.538  10.470
13307W        W80375   9.363  27.979  11.390
13308W        W80376  12.696  29.010   1.782
13309W        W80377  16.276   5.302   4.326
13310W        W80378  39.838  23.072   3.258
13311W        W80379   7.302  25.177   2.353
13312W        W80380   0.490  39.316   2.305
13313W        W80381  19.158   2.453  14.297
13314W        W80382  17.291  36.394   1.745
13315W        W80383   1.378  10.301  11.866
13316W        W80384  21.243  41.902   4.345
13317W        W80385   6.866  33.966   0.267
13318W        W80386   8.278  33.052  12.561
13319W        W80387  12.648   7.904   1.247
13320W        W80388   7.213   6.701  11.379
13321W        W80389   6.868  17.127  13.857
13322W        W80390   8.259  23.653  14.926
13323W        W80391  16.770  17.144  11.073
13324W        W80392   9.713   1.789   0.266
13325W        W80393  31.038  38.332   4.837
13326W        W80394  32.073   2.829  13.856
13327W        W80395  20.121  35.594  10.587
13328W        W80396  40.325  18.768   2.861
13329W        W80397  27.451  35.109   2.697
13330W        W80398  15.242   2.351   0.393
13331W        W80399  33.411  36.003  11.400
13332W        W80400   4.915  15.623  14.855
13333W        W80401   4.778  24.589   3.210
13334W        W80402   4.262  44.896   3.732
13335W        W80403  39.391   6.378  14.427
13336W        W80404  31.098   4.855   3.178
13337W        W80405   7.733  16.628  13.894
13338W        W80406  14.318  11.279  11.021
13339W        W80407  20.086   0.337   2.307
13340W        W80408  30.950  14.835  13.903
13341W        W80409   3.355  33.099   3.767
13342W        W80410  35.873  22.995  14.447
13343W        W80411   6.696  44.007  14.456
13344W        W80412  32.035  10.645  12.077
13345W        W80413   7.392  17.208   2.405
13346W        W80414  24.517  28.110  10.510
13347W        W80415  13.643   2.330   3.844
13348W        W80416   7.265  36.512  11.080
13349W        W80417  25.620   6.879  12.972
13350W        W80418   8.662  14.155  11.377
13351W        W80419  25.014  27.056   3.695
13352W        W80420  39.939  31.454  12.450
13353W        W80421  16.128  10.705  11.455
13354W        W80422  34.880  18.219  14.358
13355W        W80423  28.114   3.946   3.217
13356W        W80424  15.607  24.504  14.371
13357W        W80425  30.577  16.625   9.928
13358W        W80426   8.779  31.451  14.876
13359W        W80427  28.455   6.678  10.428
13360W        W80428  13.784  18.058   4.626
13361W        W80429   2.909  41.941  13.031
13362W        W80430  28.628  17.799   2.788
13363W        W80431  21.553  23.217  11.430
13364W        W80432  13.650  20.187   3.363
13365W        W80433  40.814   7.868   2.671
13366W        W80434  10.810  25.678   2.339
13367W        W80435  22.746  13.114   0.885
13368W        W80436  14.624  13.240  14.941
13369W        W80437  32.977  20.703  12.342
13370W        W80438   9.282  35.377   0.355
13371W        W80439   8.870  20.231   0.731
13372W        W80440  30.950   7.179   3.732
13373W        W80441  24.591  18.752   1.770
13374W        W80442  39.940  30.567  14.983
13375W        W80443   8.348   1.449   4.282
13376W        W80444  14.307  31.547   0.794
13377W        W80445   8.266  35.956  11.597
13378W        W80446   5.245  33.529   9.947
13379W        W80447  26.459  20.211   0.302
13380W        W80448  15.263   2.411   3.268
13381W        W80449  14.192  11.134  11.549
13382W        W80450  27.650  19.109   1.257
13383W        W80451   1.418  26.656  11.121
13384W        W80452   5.862  35.370  14.805
13385W        W80453  31.101   3.754  12.571
13386W        W80454  29.582  16.266   3.199
13387W        W80455  20.618   3.826   1.813
13388W        W80456   8.897  35.573  14.457
13389W        W80457  27.534  30.005   1.813
13390W        W80458   2.853  36.970   2.857
13391W        W80459   8.354  23.537   2.369
13392W        W80460  28.938   0.854  11.066
13393W        W80461  42.028  32.542   0.889
13394W        W80462   6.261  15.688  11.907
13395W        W80463   4.926  10.252  12.404
13396W        W80464  28.547  13.630  12.876
13397W        W80465   4.727  25.194  13.425
13398W        W80466  17.061   5.921  10.123
13399W        W80467  13.744  29.522  14.425
13400W        W80468  13.714  28.008   2.345
13401W        W80469  10.238   7.728  11.006
13402W        W80470  33.403   8.883   4.347
13403W        W80471   3.343  22.619  14.385
13404W        W80472  31.993  35.490   4.785
13405W        W80473  33.012   3.404   5.102
13406W        W80474  20.172  18.248  12.048
13407W        W80475  39.337  34.603  11.455
13408W        W80476  17.646   5.373  11.106
13409W        W80477  40.510  37.877   3.298
13410W        W80478  34.558   6.334   2.363
13411W        W80479  19.568   2.272  12.388
13412W        W80480  31.569  10.634  12.893
13413W        W80481   8.228  20.069  11.958
13414W        W80482  18.188   1.301  10.538
13415W        W80483  40.449  19.172  11.381
13416W        W80484   2.459  34.979  10.992
13417W        W80485  16.257  32.572   2.839
13418W        W80486   3.820   7.730   3.346
13419W        W80487   3.866  35.472   9.513
13420W        W80488  40.532  14.125   1.859
13421W        W80489   5.364   8.262   4.143
13422W        W80490  18.244  44.311   3.831
13423W        W80491  29.663  31.518  10.587
13424W        W80492  35.873  16.239  14.839
13425W        W80493  17.719  18.676   0.284
13426W        W80494  23.080  18.626   2.797
13427W        W80495  32.128  43.829   1.729
13428W        W80496   0.881  15.329   3.171
13429W        W80497   7.344  30.621  11.980
13430W        W80498  40.303  35.104  14.359
13431W        W80499  19.096  35.519  14.856
13432W        W80500  16.635  36.021  11.391
13433W        W80501   2.307  11.141   3.333
13434W        W80502   0.265  10.653   1.752
13435W        W80503  39.397  36.444  13.335
13436W        W80504  27.139  21.757  13.919
13437W        W80505  22.551  20.097  14.372
13438W        W80506  33.962  44.954   1.835
13439W        W80507  23.677  39.054   0.963
13440W        W80508  43.367  39.415  11.076
13441W        W80509  13.325  15.582   0.422
13442W        W80510   0.343  30.629   3.378
13443W        W80511  13.647  41.877   1.709
13444W        W80512  10.299  25.517  10.502
13445W        W80513  36.998   5.720  13.473
13446W        W80514  10.684  27.582   1.327
13447W        W80515  36.079   4.270   1.397
13448W        W80516  19.609  24.212  14.514
13449W        W80517  23.141  38.517   0.761
13450W        W80518  15.251   8.838   0.291
13451W        W80519   6.381  44.839   1.872
13452W        W80520  41.895  14.623   2.755
13453W        W80521  18.734  13.214   4.240
13454W        W80522   8.695  14.123   3.790
13455W        W80523  11.814  19.556  12.055
13456W        W80524   6.308  14.336  14.867
13457W        W80525  37.023  20.684  13.377
13458W        W80526  43.376  15.121   3.723
13459W        W80527  33.913  22.139  12.532
13460W        W80528  17.134  42.459   3.671
13461W        W80529  24.008  28.475   3.276
13462W        W80530  12.687  26.602  13.454
13463W        W80531  14.814  16.155   4.310
13464W        W80532  43.991  25.964   1.350
13465W        W80533   4.372   5.737   1.243
13466W        W80534  12.713  43.772  10.937
13467W        W80535  37.940  19.695   0.338
13468W        W80536  42.415  39.533  14.814
13469W        W80537  11.852  41.491  14.508
13470W        W80538  25.610  34.509   9.963
13471W        W80539  11.166  40.876  13.346
13472W        W80540   5.785   6.319   3.323
13473W        W80541   1.352   3.401   0.451
13474W        W80542  18.050   0.744   1.781
13475W        W80543  27.681   9.826   0.823
13476W        W80544  35.419  43.865   3.276
13477W        W80545  18.053  38.920   1.405
13478W        W80546  16.711  40.507  14.450
13479W        W80547  36.068   5.297  14.898
13480W        W80548  23.224   4.396  12.379
13481W        W80549  24.548  39.460  13.809
13482W        W80550  10.751  31.611   3.733
13483W        W80551  22.610   0.986   3.214
13484W        W80552   0.408  23.727   1.338
13485W        W80553  31.084  18.183   4.337
13486W        W80554  41.815  22.732  11.550
13487W        W80555  27.614  40.054   0.407
13488W        W80556  44.830  39.908   4.801
13489W        W80557  14.328  30.071  11.533
13490W        W80558  32.582  25.981  12.394
13491W        W80559   2.336  14.741   2.754
13492W        W80560  29.941  38.452   0.843
13493W        W80561  32.021  39.340  13.935
13494W        W80562  37.437  19.187   4.699
13495W        W80563  40.837  12.241   2.202
13496W        W80564  16.712  37.529   2.897
13497W        W80565  12.718  20.586  11.022
13498W        W80566  10.302  11.260  11.374
13499W        W80567  18.082  14.627  11.568
13500W        W80568  42.446  34.865  14.775
13501W        W80569  43.882  17.748   4.727
13502W        W80570  23.692   6.259  14.827
13503W        W80571  32.062   5.874   1.220
13504W        W80572  31.431   6.378  10.472
13505W        W80573  37.879  11.313   4.141
13506W        W80574  41.012  25.999   0.406
13507W        W80575  28.170  30.078  13.999
13508W        W80576  21.727  37.042   9.981
13509W        W80577  33.886  36.367  14.772
13510W        W80578  24.539  24.496   2.747
13511W        W80579   9.168  25.613  13.952
13512W        W80580  24.098  42.997   2.719
13513W        W80581  42.831   9.839   1.883
13514W        W80582  21.213   9.266   3.289
13515W        W80583  21.254   2.778  10.608
13516W        W80584  23.191  23.730   3.782
13517W        W80585   0.916   0.391  11.906
13518W        W80586  19.731  15.280   3.276
13519W        W80587  11.287   2.747  11.515
13520W        W80588   6.844   7.883  12.023
13521W        W80589  35.869  25.714  14.470
13522W        W80590   0.457  21.721  11.048
13523W        W80591  11.302   2.887  12.896
13524W        W80592  17.715  14.726   4.185
13525W        W80593  16.077  28.486   0.249
13526W        W80594  32.400  10.324  10.406
13527W        W80595  41.382  30.948   4.648
13528W        W80596   2.813   5.722   1.319
13529W        W80597   3.950   7.266   9.964
13530W        W80598  44.366  20.061  13.865
13531W        W80599  24.614   2.810  11.470
13532W        W80600   9.772  26.672  13.020
13533W        W80601   7.380  37.891  12.433
13534W        W80602  41.420  17.222  12.963
13535W        W80603  14.766  18.645   2.866
13536W        W80604  23.052   5.387   4.180
13537W        W80605  15.763  14.832  10.997
13538W        W80606  16.308  33.023   4.708
13539W        W80607  33.548   0.813   5.144
13540W        W80608  22.727  43.866  11.519
13541W        W80609  11.657  35.088   2.189
13542W        W80610   9.850  22.006   4.142
13543W        W80611  35.032   6.390   3.638
13544W        W80612  36.970  29.034  14.305
13545W        W80613  29.478   0.487  13.026
13546W        W80614  42.392  37.000   2.674
13547W        W80615  34.465  22.529   2.811
13548W        W80616   2.953  28.641   1.450
13549W        W80617   0.452  35.969   4.722
13550W        W80618  24.647   6.687  11.402
13551W        W80619  11.226   9.807  13.024
13552W        W80620  15.755  24.600  12.963
13553W        W80621  30.479  42.384   3.809
13554W        W80622  16.315  36.583  11.033
13555W        W80623  38.031  37.903   1.420
13556W        W80624   0.482  13.766  14.828
13557W        W80625   0.761   2.233  12.966
13558W        W80626  34.868   9.222   0.849
13559W        W80627  25.003  21.196   3.868
13560W        W80628   0.288   1.832  10.913
13561W        W80629  18.194  16.208   3.180
13562W        W80630   7.694  30.643  11.376
13563W        W80631  35.078   7.711   3.199
13564W        W80632  44.859   9.313  11.536
13565W        W80633  37.359   7.390  11.504
13566W        W80634  12.614  40.495  14.815
13567W        W80635  43.883  39.486   4.156
13568W        W80636   7.872   1.289  11.494
13569W        W80637  10.819  18.656   0.306
13570W        W80638  35.971   7.698  11.530
13571W        W80639  41.822  30.142   0.465
13572W        W80640  17.212  15.597  12.385
13573W        W80641  40.952  25.662   4.130
13574W        W80642  34.962  32.478  11.600
13575W        W80643  29.487  23.637  14.792
13576W        W80644  42.490  24.061   2.898
13577W        W80645   8.696  18.100  14.793
13578W        W80646   7.267  20.733  11.870
13579W        W80647  27.964  27.109   3.149
13580W        W80648   8.707  15.705  10.000
13581W        W80649   9.355   2.723  12.927
13582W        W80650  43.014  17.654   0.918
13583W        W80651  16.670  41.888  12.427
13584W        W80652  34.579   0.786   3.797
13585W        W80653   9.681   0.444  14.021
13586W        W80654  41.519  35.559  14.908
13587W        W80655   1.820  24.229  12.013
13588W        W80656  39.889  36.514   3.332
13589W        W80657  17.093  10.771  12.050
13590W        W80658  28.993  32.062  14.438
13591W        W80659  34.877  11.750  11.103
13592W        W80660  30.963  17.569  11.022
13593W        W80661  42.889  38.554  13.330
13594W        W80662   5.241  10.191  10.047
13595W        W80663  25.139  36.972  13.926
13596W        W80664  14.612  29.450  11.384
13597W        W80665  18.628  14.248   2.279
13598W        W80666   3.754  36.943   1.230
13599W        W80667  31.112  20.120  12.023
13600W        W80668  13.180  12.143   0.476
13601W        W80669  11.692   4.715   0.380
13602W        W80670  17.259  30.976  14.375
13603W        W80671  14.707  30.476  13.369
13604W        W80672  25.595   0.304   0.829
13605W        W80673  31.930  42.003  13.846
13606W        W80674  40.899  21.171  11.056
13607W        W80675  36.464  27.612  12.390
13608W        W80676  13.661  36.930   4.711
13609W        W80677   1.426  18.274  12.472
13610W        W80678  12.128  37.978   0.355
13611W        W80679  42.300   9.269  14.432
13612W        W80680  20.082   0.968   5.133
13613W        W80681   8.403   3.874   3.813
13614W        W80682  41.364  26.158  12.554
13615W        W80683  27.076   2.951  13.018
13616W        W80684  28.035   7.338   3.164
13617W        W80685  11.712  22.248  13.916
13618W        W80686  13.651  30.433   2.692
13619W        W80687  11.759   2.933   0.246
13620W        W80688  15.625   1.332   1.211
13621W        W80689  15.616   0.419  11.873
13622W        W80690  43.842  17.194   3.334
13623W        W80691  29.534  41.393   3.693
13624W        W80692  32.937   0.400  13.900
13625W        W80693  16.687  21.676   5.676
13626W        W80694  13.636  17.574  10.492
13627W        W80695  29.645  42.858  10.994
13628W        W80696  15.171   6.346   0.887
13629W        W80697  20.726  20.583   2.691
13630W        W80698  10.382  14.219   0.894
13631W        W80699  23.537  35.898   2.705
13632W        W80700  21.604   3.759   3.759
13633W        W80701  26.981  28.123  11.910
13634W        W80702  33.427  12.699   1.790
13635W        W80703   7.702  30.931  14.329
13636W        W80704   4.311  35.405  12.958
13637W        W80705  22.052   5.419  11.566
13638W        W80706  18.178  26.002  14.838
13639W        W80707   3.242  11.238  12.351
13640W        W80708   5.896  24.617  13.426
13641W        W80709  31.002   3.736  13.863
13642W        W80710  16.800  10.224   5.093
13643W        W80711  31.638  36.439  12.431
13644W        W80712  43.796  42.011   4.302
13645W        W80713   5.912  43.876   0.326
13646W        W80714  21.530   5.222  10.964
13647W        W80715  24.191  31.529   1.837
13648W        W80716  41.812  15.781  10.462
13649W        W80717  36.987  42.023  12.066
13650W        W80718  41.517   7.291  13.995
13651W        W80719  31.060  42.803  13.500
13652W        W80720  30.572  10.767   0.459
13653W        W80721  31.521   7.702   1.290
13654W        W80722  32.548  31.059  10.407
13655W        W80723  36.385   0.491   0.791
13656W        W80724  38.935  28.932  11.114
13657W        W80725  12.794  24.071   2.308
13658W        W80726  19.277  29.139  11.857
13659W        W80727  18.652  24.178   1.417
13660W        W80728  12.198  31.565   2.297
13661W        W80729  30.080  25.648   0.285
13662W        W80730  29.587   2.939  13.045
13663W        W80731   7.810  21.159   2.371
13664W        W80732  23.229   8.396  14.402
13665W        W80733  24.644  37.870  10.955
13666W        W80734   1.820  23.121  10.941
13667W        W80735  16.750  23.699  14.823
13668W        W80736   3.829  21.204   2.191
13669W        W80737  39.809  10.376  10.905
13670W        W80738  29.572   4.893  11.995
13671W        W80739   4.807   3.402  13.037
13672W        W80740  14.269   6.314  12.516
13673W        W80741  26.600  24.179   2.757
13674W        W80742  15.233  14.185  13.474
13675W        W80743  34.478  42.030  12.933
13676W        W80744   6.324   7.842  14.943
13677W        W80745  39.812  17.193  11.553
13678W        W80746  16.134   1.931   0.766
13679W        W80747   5.763   9.226   1.831
13680W        W80748   9.818   2.239   3.778
13681W        W80749   0.809   0.786  11.547
13682W        W80750  12.693  23.495  12.467
13683W        W80751  22.073   3.278   0.467
13684W        W80752  25.046  36.438   2.771
13685W        W80753   3.847  39.485  11.575
13686W        W80754  33.585  36.894   1.288
13687W        W80755  24.030  21.698  13.491
13688W        W80756  43.360   1.344   3.296
13689W        W80757  12.621  13.300   4.637
13690W        W80758  31.573   9.197  10.912
13691W        W80759  26.699  38.824   3.695
13692W        W80760  12.778  38.915  12.367
13693W        W80761  38.862  15.673   2.285
13694W        W80762  39.375   0.806  14.372
13695W        W80763  29.042  11.863   3.241
13696W        W80764  10.689  14.748  14.487
13697W        W80765  19.113  20.612  11.457
13698W        W80766   5.926   1.866  13.372
13699W        W80767  17.597  22.619   0.360
13700W        W80768  19.139  44.952  11.978
13701W        W80769  12.294  24.556  12.515
13702W        W80770  26.612  15.726  13.048
13703W        W80771  25.676  15.309   0.268
13704W        W80772  30.013  44.284  12.979
13705W        W80773   7.197  16.741   0.477
13706W        W80774  29.046   5.734   1.317
13707W        W80775  23.524  38.562  10.419
13708W        W80776  42.991  37.440   1.767
13709W        W80777  11.679  25.159  11.947
13710W        W80778   8.763   0.753   3.202
13711W        W80779  13.841  21.201   3.636
13712W        W80780  25.147  11.341  14.311
13713W        W80781   9.648  40.330  11.032
13714W        W80782  24.014  23.559   0.325
13715W        W80783  19.670   5.896   4.677
13716W        W80784  35.491   4.899  14.834
13717W        W80785  34.890  44.370   4.202
13718W        W80786  36.440   7.283  14.378
13719W        W80787  19.110  37.878   4.632
13720W        W80788   7.799   3.458  10.432
13721W        W80789  32.896   5.849   1.867
13722W        W80790   7.894  24.191  13.527
13723W        W80791   8.246   2.905   3.317
13724W        W80792  12.798  32.451  11.417
13725W        W80793  15.693  34.874  14.870
13726W        W80794   9.358  35.485   1.860
13727W        W80795  13.175  15.733  12.989
13728W        W80796  27.121  27.560   1.782
13729W        W80797  27.650   8.874   4.790
13730W        W80798  33.478   9.211  13.975
13731W        W80799  28.097   6.252  10.634
13732W        W80800  17.643  26.583   4.248
13733W        W80801   7.318  24.075  11.015
13734W        W80802  37.929  14.594  13.328
13735W        W80803   5.841   3.830   0.328
13736W        W80804  41.833  35.057   0.436
13737W        W80805  31.611   4.920  14.933
13738W        W80806  44.863  36.085  11.451
13739W        W80807  16.223   0.769  11.474
13740W        W80808  26.003   9.322  12.496
13741W        W80809  31.041  33.908   2.239
13742W        W80810  21.581  24.627  11.493
13743W        W80811  39.978  23.222  13.016
13744W        W80812  14.239   0.800  14.311
13745W        W80813  36.841  31.131   1.359
13746W        W80814  19.716  19.144  14.452
13747W        W80815  19.774  10.373   2.349
13748W        W80816  31.037   8.269   0.261
13749W        W80817  41.418  38.874  12.827
13750W        W80818  20.167  35.359  12.048
13751W        W80819  19.217   4.436   1.790
13752W        W80820   7.820   1.377  10.406
13753W        W80821  14.173  29.542   1.346
13754W        W80822  44.869  40.313   1.798
13755W        W80823  20.673   6.400   0.350
13756W        W80824  25.089  20.716   0.828
13757W        W80825  29.469  22.184   3.724
13758W        W80826   9.249   7.805   4.634
13759W        W80827  26.633  23.107   3.740
13760W        W80828  18.092  27.588  14.302
13761W        W80829  10.838  29.134   4.600
13762W        W80830  27.513   3.311   4.325
13763W        W80831  38.436  18.742  14.927
13764W        W80832  13.339  40.338  13.540
13765W        W80833  13.331   3.879  12.377
13766W        W80834  17.625  33.929   2.817
13767W        W80835  28.143  40.539   3.326
13768W        W80836   3.341  15.816   1.250
13769W        W80837  15.690   0.868  10.534
13770W        W80838   1.242   2.744   0.288
13771W        W80839  33.016   5.285   4.682
13772W        W80840  41.413  22.709   0.815
13773W        W80841  28.158  30.486   0.833
13774W        W80842   2.755  11.726   0.893
13775W        W80843  14.111  39.464  11.975
13776W        W80844  22.057  16.693  11.881
13777W        W80845  30.599  18.609  12.380
13778W        W80846   0.782  24.679   2.902
13779W        W80847  44.337  23.025   0.825
13780W        W80848  18.273  14.208   4.280
13781W        W80849  37.362  31.510  11.425
13782W        W80850  26.592  17.292   0.882
13783W        W80851  14.676  41.940   1.729
13784W        W80852  43.922  18.256  12.526
13785W        W80853  20.646  37.917   5.223
13786W        W80854  13.323  10.283  10.553
13787W        W80855  11.689   0.817  14.781
13788W        W80856  38.989  26.126   4.798
13789W        W80857  18.588   6.286   4.696
13790W        W80858  18.275  40.842  11.607
13791W        W80859  37.508  24.118   3.810
13792W        W80860  39.855   4.413   2.766
13793W        W80861  33.005  32.950  14.276
13794W        W80862  24.578  39.930  14.390
13795W        W80863  21.515  37.007   3.672
13796W        W80864  32.018  19.644   0.468
13797W        W80865  13.771  14.747  13.320
13798W        W80866  34.440  39.980   3.713
13799W        W80867  44.878  34.917   2.860
13800W        W80868  37.525   2.947  13.904
13801W        W80869  42.295  12.289   2.374
13802W        W80870  12.658  13.317   3.809
13803W        W80871  10.808  19.686   3.812
13804W        W80872   8.845  44.336  11.562
13805W        W80873  24.535  37.007   2.183
13806W        W80874  22.699  20.539   2.831
13807W        W80875   1.337  13.821   2.279
13808W        W80876  18.194   0.895  11.939
13809W        W80877  24.490  43.381   2.775
13810W        W80878  36.527   3.262   4.760
13811W        W80879  18.761  26.180  14.858
13812W        W80880  32.595  16.672   4.657
13813W        W80881   5.213  27.564  13.875
13814W        W80882  23.562  16.217  14.477
13815W        W80883   0.837   3.828   2.253
13816W        W80884  11.277  21.557  12.423
13817W        W80885   3.873  15.279   0.826
13818W        W80886  33.519  14.210  11.378
13819W        W80887  10.721  13.697   2.295
13820W        W80888  19.589  31.007   3.166
13821W        W80889  23.111  24.223  12.383
13822W        W80890  23.216  12.236  14.858
13823W        W80891  10.687   5.262  12.986
13824W        W80892  26.065  42.482   1.311
13825W        W80893  19.623  32.038  11.868
13826W        W80894   7.911   9.858  10.593
13827W        W80895  26.581  39.940  11.590
13828W        W80896  34.370  39.489  14.980
13829W        W80897  17.065  32.904  11.911
13830W        W80898  13.330  30.617  14.507
13831W        W80899  38.022  34.572   4.239
13832W        W80900   5.812   6.849   4.258
13833W        W80901   6.316  13.833  12.440
13834W        W80902  10.207   2.955  13.460
13835W        W80903  37.952  24.018  13.950
13836W        W80904   5.345  14.217   0.373
13837W        W80905  25.543  24.526   0.404
13838W        W80906  23.723  30.452  14.959
13839W        W80907  11.257  24.977  13.029
13840W        W80908  19.169  15.305   1.310
13841W        W80909  44.838  10.322   3.274
13842W        W80910  34.873   3.348  12.564
13843W        W80911  11.763  40.379   5.098
13844W        W80912   7.891  16.605  14.994
13845W        W80913  41.871  16.594  11.066
13846W        W80914  38.992  14.214   2.727
13847W        W80915  33.475  31.606  14.286
13848W        W80916  14.686  15.124  14.400
13849W        W80917  41.476  11.251  10.903
13850W        W80918  37.963  42.924   0.786
13851W        W80919  21.726  25.093   0.324
13852W        W80920  35.466   4.870  12.831
13853W        W80921  19.212  13.109  13.480
13854W        W80922  34.050   1.737   1.848
13855W        W80923  14.789  36.409  12.997
13856W        W80924   9.688  29.151  12.038
13857W        W80925  31.431  24.629  10.977
13858W        W80926  39.351   3.256  10.892
13859W        W80927  31.578  18.223  10.598
13860W        W80928   6.360  17.666  14.788
13861W        W80929   0.793  31.122  13.533
13862W        W80930  24.505  31.486  10.563
13863W        W80931  17.254  35.469  13.536
13864W        W80932   3.316  44.874   2.203
13865W        W80933  21.688  42.398   0.392
13866W        W80934  19.708  13.180   3.220
13867W        W80935  28.447  34.968   4.766
13868W        W80936  24.555   8.303   1.839
13869W        W80937  18.587  33.416   2.368
13870W        W80938   9.870   1.755   0.868
13871W        W80939  36.400  18.052  14.902
13872W        W80940  28.123   0.940  13.800
13873W        W80941  26.114  21.161  13.442
13874W        W80942   8.778  35.880   2.378
13875W        W80943  32.598  10.364   2.408
13876W        W80944   9.747   2.446  12.084
13877W        W80945  21.560   2.772  13.051
13878W        W80946  43.884  41.037   1.895
13879W        W80947  18.645  33.598  10.603
13880W        W80948   0.824  23.689   3.759
13881W        W80949  31.605  34.449   3.241
13882W        W80950  38.043  13.741  11.414
13883W        W80951   0.797   7.207  14.432
13884W        W80952  12.784  15.676  12.532
13885W        W80953   8.380  36.496   2.748
13886W        W80954  19.055   4.937   3.272
13887W        W80955   4.850  27.978  12.087
13888W        W80956   8.735  22.710   1.928
13889W        W80957  40.037  21.175   0.740
13890W        W80958  17.204   2.338  12.489
13891W        W80959  22.115  16.688  13.455
13892W        W80960  20.736  19.614  14.363
13893W        W80961  40.855  37.481  11.036
13894W        W80962   0.273  20.604   2.758
13895W        W80963  26.183   1.311  13.945
13896W        W80964  38.987  34.425  10.568
13897W        W80965   5.352  36.405   3.743
13898W        W80966  16.759  21.611  14.773
13899W        W80967   0.411   7.890   0.920
13900W        W80968  37.068  27.049  14.864
13901W        W80969   9.157  15.314  13.461
13902W        W80970  38.492  22.671   3.841
13903W        W80971  31.497   3.715   4.759
13904W        W80972   0.954  40.044   4.629
13905W        W80973  15.765  36.447  14.796
13906W        W80974  21.230   2.339  13.391
13907W        W80975   9.731  36.853  14.807
13908W        W80976  34.605  39.431  12.422
13909W        W80977   0.260  27.615   2.855
13910W        W80978  40.310  15.674   3.762
13911W        W80979  39.879  28.445   4.723
13912W        W80980  14.096  19.726   3.729
13913W        W80981  39.544  40.884  13.033
13914W        W80982  43.369  39.384  11.384
13915W        W80983  25.053  38.493  13.974
13916W        W80984   4.329   7.205  13.910
13917W        W80985   2.400  43.882  11.986
13918W        W80986  40.934  27.095   4.686
13919W        W80987  37.962  38.400   2.735
13920W        W80988  13.175  20.271   2.797
13921W        W80989  13.308  25.619  12.844
13922W        W80990   2.947  35.949   3.818
13923W        W80991  15.210  33.480   3.307
13924W        W80992  44.331  17.258   3.151
13925W        W80993  17.217  35.068  11.385
13926W        W80994  12.119  39.526   0.289
13927W        W80995  44.355  24.978   4.330
13928W        W80996  40.953  40.472   2.329
13929W        W80997  10.645  11.768  11.457
13930W        W80998   7.251  17.207  12.016
13931W        W80999  22.697  27.074   3.308
13932W        W81000   7.277  13.133   5.246
13933W        W81001  29.094  25.110   1.268
13934W        W81002  28.959   2.294  12.868
13935W        W81003  22.513  18.226   4.130
13936W        W81004  14.829  16.299   0.874
13937W        W81005  10.228   9.233  11.916
13938W        W81006  42.445   4.262   1.214
13939W        W81007  43.469   9.827   2.231
13940W        W81008  29.141  44.337  11.944
13941W        W81009  35.860  36.984  11.440
13942W        W81010  42.311  14.247  10.952
13943W        W81011  36.847  33.533  12.007
13944W        W81012  29.666  26.611   4.722
13945W        W81013  40.985  40.497  12.362
13946W        W81014  28.138  11.648   0.796
13947W        W81015  18.771  36.536   4.177
13948W        W81016   1.861   8.240  13.001
13949W        W81017  17.776  44.459  14.444
13950W        W81018  21.747  42.847  14.326
13951W        W81019   3.887  15.216  10.468
13952W        W81020  28.443   4.312   1.276
13953W        W81021   9.888  36.572  11.121
13954W        W81022  26.207   5.300   3.754
13955W        W81023   7.379  15.226  10.921
13956W        W81024   6.376   5.899  11.978
13957W        W81025  34.073  11.144  14.878
13958W        W81026  16.311  31.926   2.854
13959W        W81027  37.952  44.335  13.514
13960W        W81028  44.347  20.535   0.765
13961W        W81029   5.271  41.851   2.255
13962W        W81030  16.205   3.796  11.075
13963W        W81031  10.760   2.248  14.997
13964W        W81032  13.248  29.517  11.528
13965W        W81033  32.102   4.803  13.044
13966W        W81034  15.602  27.690  10.519
13967W        W81035  40.878  21.119   0.849
13968W        W81036  32.119  33.611   0.317
13969W        W81037  20.612  33.520  11.604
13970W        W81038  31.898  16.192  11.598
13971W        W81039  20.672   1.784  13.356
13972W        W81040  27.576  37.005   2.706
13973W        W81041  33.470   6.879   0.398
13974W        W81042  39.895   7.905  14.496
13975W        W81043  30.091  28.125  10.562
13976W        W81044  38.031  30.907  13.510
13977W        W81045  31.989  18.626  14.300
13978W        W81046  36.917   0.467   0.397
13979W        W81047   4.804  20.164  11.859
13980W        W81048  12.653  41.299   4.155
13981W        W81049  25.182  42.515   0.287
13982W        W81050  35.404  39.953   3.356
13983W        W81051  18.079  11.225   0.853
13984W        W81052  13.217  14.774   0.854
13985W        W81053  14.817  28.445  11.865
13986W        W81054  41.323   3.924  14.405
13987W        W81055   6.865  26.662   4.631
13988W        W81056  33.975  20.073   4.783
13989W        W81057  36.924  34.947   0.910
13990W        W81058  28.941  11.324   0.284
13991W        W81059  37.018   1.433  11.081
13992W        W81060   0.794  41.849   1.254
13993W        W81061   3.236   9.780  13.819
13994W        W81062   1.863  40.019   2.797
13995W        W81063  27.680  11.271   2.296
13996W        W81064  42.309  33.900   0.434
13997W        W81065  24.035  16.666   1.258
13998W        W81066  11.318   0.827   3.781
13999W        W81067  34.014  40.499   3.224
14000W        W81068  42.879   1.424   2.189
14001W        W81069  40.415  33.401   0.261
14002W        W81070  15.783  30.542  11.076
14003W        W81071  29.480   7.196  13.859
14004W        W81072  12.341  22.525  12.016
14005W        W81073  12.267  21.244  10.466
14006W        W81074  37.004  38.553  10.957
14007W        W81075   4.931  12.230   0.958
14008W        W81076  42.477  34.558   2.299
14009W        W81077  14.750  34.536   2.293
14010W        W81078   8.228  19.220  12.954
14011W        W81079  36.865  28.075   2.681
14012W        W81080  17.087   6.862   3.714
14013W        W81081   6.247  22.549  13.946
14014W        W81082   4.339  44.759   3.161
14015W        W81083   5.231   6.217  14.981
14016W        W81084  26.458  19.770  12.366
14017W        W81085  36.957  35.546  14.406
14018W        W81086  18.728  31.899  10.085
14019W        W81087  27.691   4.924  14.842
14020W        W81088  13.682  27.047  14.475
14021W        W81089  36.458  42.489  14.397
14022W        W81090  41.974  10.702   3.205
14023W        W81091  41.850   7.190   5.151
14024W        W81092  43.308  35.527  13.039
14025W        W81093  38.528   2.457  12.452
14026W        W81094  28.991  19.585   2.704
14027W        W81095  20.213  20.029   1.724
14028W        W81096  31.413  19.598  12.990
14029W        W81097  27.525   3.771   2.848
14030W        W81098  37.429   4.422  12.519
14031W        W81099  21.601   1.806  12.028
14032W        W81100   6.402  18.766  10.541
14033W        W81101  32.603  21.077   3.834
14034W        W81102  16.257  24.226  10.446
14035W        W81103  29.487  16.303   0.385
14036W        W81104  18.772   2.243   2.778
14037W        W81105  18.142   0.334   1.222
14038W        W81106  22.166   5.758   1.859
14039W        W81107  20.663  15.585   2.206
14040W        W81108  32.959  15.814  14.366
14041W        W81109  11.292  37.349   2.232
14042W        W81110  34.867  19.738   5.192
14043W        W81111  27.170  43.934  11.065
14044W        W81112  32.039  17.077   1.857
14045W        W81113  36.384  21.137   0.355
14046W        W81114   5.257  13.213   0.438
14047W        W81115  28.111   9.168   4.742
14048W        W81116   9.168  12.155  12.905
14049W        W81117  38.329   0.840   2.812
14050W        W81118  43.853  27.560   3.151
14051W        W81119   0.858  12.746  14.988
14052W        W81120  11.237  21.725   0.431
14053W        W81121  43.947  19.198  13.369
14054W        W81122   3.793   2.443  11.861
14055W        W81123  13.841   7.213  13.063
14056W        W81124  30.158  38.031   4.253
14057W        W81125  14.097   2.751  12.933
14058W        W81126  19.759  31.561   1.933
14059W        W81127   1.822   6.808   4.323
14060W        W81128   1.237   5.422  14.795
14061W        W81129  10.756   3.842  11.565
14062W        W81130   8.670  13.192  10.949
14063W        W81131  43.916  36.091   0.813
14064W        W81132  30.121   9.751  13.463
14065W        W81133  19.587  29.582   2.809
14066W        W81134  19.268  16.737  12.426
14067W        W81135  41.839  32.893  11.437
14068W        W81136  37.471   5.373  14.303
14069W        W81137  32.529  23.625   1.742
14070W        W81138  33.084  20.587   0.819
14071W        W81139  14.657  17.631  12.392
14072W        W81140  11.786  22.009   2.833
14073W        W81141  33.579  29.487  14.455
14074W        W81142   6.751  11.810  11.562
14075W        W81143   2.808   6.891  12.012
14076W        W81144  37.874  29.983  12.386
14077W        W81145   6.782   6.805  13.408
14078W        W81146  44.364  39.500   4.194
14079W        W81147  20.203  31.088   1.751
14080W        W81148   2.257  33.522  12.919
14081W        W81149  40.031  26.597   2.178
14082W        W81150  16.663  13.117   0.866
14083W        W81151  34.875  36.542  12.935
14084W        W81152  29.645  40.547   2.308
14085W        W81153  10.293  12.679  13.331
14086W        W81154  43.404  41.830  14.286
14087W        W81155   2.455  39.844  13.896
14088W        W81156   9.739  29.990  13.449
14089W        W81157   8.758  41.457   3.372
14090W        W81158  27.507   0.316   1.446
14091W        W81159  29.134  42.821  14.383
14092W        W81160   3.732  28.151  11.477
14093W        W81161  29.655   2.786  13.814
14094W        W81162  43.931  34.869   3.348
14095W        W81163  31.617  16.769  10.590
14096W        W81164   0.304   4.852  14.434
14097W        W81165  41.345  38.511   4.327
14098W        W81166   9.869  41.448   2.314
14099W        W81167  40.451  31.965   1.720
14100W        W81168   7.822  44.881  11.512
14101W        W81169   7.326  13.151  13.015
14102W        W81170   7.340  14.635   0.905
14103W        W81171  33.888  35.916  10.436
14104W        W81172  10.287  17.789  14.353
14105W        W81173  12.846   9.272   3.254
14106W        W81174   1.288  36.018   4.805
14107W        W81175  25.058  30.585   3.744
14108W        W81176  21.020  35.085   4.677
14109W        W81177  32.032  34.559   1.436
14110W        W81178  29.662  18.136   4.317
14111W        W81179  23.003  25.672  11.959
14112W        W81180  13.261   7.766  10.603
14113W        W81181   0.800  37.568   3.801
14114W        W81182   3.841   5.715  12.472
14115W        W81183   1.340   6.902   2.418
14116W        W81184  41.870   0.813  14.825
14117W        W81185  16.116   8.186   0.776
14118W        W81186  34.538  36.514  13.022
14119W        W81187  17.175  38.979   1.235
14120W        W81188  26.577   0.831   3.353
14121W        W81189  12.848  38.461   2.780
14122W        W81190  35.545  13.602   3.832
14123W        W81191  28.980  39.380  10.525
14124W        W81192  12.305  34.383  11.457
14125W        W81193  43.343  23.685  11.549
14126W        W81194  17.621  11.692  13.401
14127W        W81195  10.837  36.492  11.411
14128W        W81196  17.157  34.466  13.526
14129W        W81197  30.038  11.185  11.906
14130W        W81198  12.351  12.270   2.329
14131W        W81199  36.436  42.515  12.900
14132W        W81200  29.645  27.968  13.828
14133W        W81201  11.253  33.594   3.270
14134W        W81202  27.943  19.124  12.508
14135W        W81203  15.266  39.334  12.430
14136W        W81204  27.118  29.106   0.944
14137W        W81205   6.384   2.773  12.517
14138W        W81206  15.777  37.381  10.475
14139W        W81207  19.751  14.207  13.026
14140W        W81208   1.756  13.198  12.340
14141W        W81209   7.351  27.961   4.700
14142W        W81210   4.411  28.043   3.272
14143W        W81211  16.693  37.569   1.219
14144W        W81212   3.778  23.619   4.811
14145W        W81213   2.878  41.462   4.648
14146W        W81214  38.054  39.452   2.788
14147W        W81215  20.557  13.273   1.381
14148W        W81216  26.178   7.841   0.434
14149W        W81217  26.035  14.115   3.775
14150W        W81218  39.823  16.655   4.144
14151W        W81219  37.907   3.335   5.199
14152W        W81220  29.431  44.376   9.979
14153W        W81221  31.535  19.601  14.823
14154W        W81222   0.911  39.023   3.744
14155W        W81223  14.134  43.768   2.255
14156W        W81224  42.023  15.117  12.877
14157W        W81225   7.867  27.130   3.695
14158W        W81226  11.369  24.136   3.339
14159W        W81227  14.790  35.009  11.521
14160W        W81228  17.292  19.156  12.486
14161W        W81229  44.411   0.893  12.867
14162W        W81230   8.850   9.176   3.843
14163W        W81231  25.058   6.788   2.379
14164W        W81232  15.631   1.860   2.209
14165W        W81233  16.600  29.519  12.063
14166W        W81234  38.070   8.725   3.245
14167W        W81235  35.987  11.200   4.770
14168W        W81236  18.563  41.350  11.926
14169W        W81237  14.768  13.601  14.876
14170W        W81238   7.217  28.482   0.831
14171W        W81239   0.288  31.411   4.349
14172W        W81240  10.216  42.472   4.324
14173W        W81241  31.591   8.293  13.492
14174W        W81242  24.183  30.618  12.902
14175W        W81243   7.671  23.725   0.309
14176W        W81244  39.920  34.077   4.768
14177W        W81245  35.582  18.183   2.193
14178W        W81246  31.646  42.339   2.277
14179W        W81247  43.457  17.145   4.197
14180W        W81248  21.164  33.108   3.787
14181W        W81249   1.446  39.464   4.133
14182W        W81250  41.882  42.327  12.918
14183W        W81251  44.331  38.334   1.228
14184W        W81252  25.645  18.071  10.946
14185W        W81253   7.792  40.009  11.439
14186W        W81254  29.014  19.192  13.857
14187W        W81255  11.316  30.497   1.717
14188W        W81256  27.687  18.137  11.391
14189W        W81257   5.912  24.021   4.774
14190W        W81258  27.555  41.405  14.402
14191W        W81259  32.036   4.781  10.997
14192W        W81260  26.968  17.283   3.809
14193W        W81261  11.819  23.176  10.498
14194W        W81262  28.956  13.823   2.819
14195W        W81263  23.540  11.179  13.796
14196W        W81264  17.741   8.837  13.952
14197W        W81265  13.332   6.376   1.886
14198W        W81266  30.430  34.400  13.831
14199W        W81267  31.965  36.929  10.434
14200W        W81268  35.483  14.702   3.814
14201W        W81269  11.691  28.034  11.565
14202W        W81270  11.228  36.859   2.853
14203W        W81271  12.147  30.595  11.981
14204W        W81272  19.775  34.915  11.909
14205W        W81273   0.789  22.238   2.871
14206W        W81274  23.507  40.436  14.486
14207W        W81275  39.823  22.122  11.919
14208W        W81276  17.159  43.872   2.260
14209W        W81277  30.526   0.951  14.346
14210W        W81278  20.039   9.287   2.210
14211W        W81279  25.193  33.126  10.409
14212W        W81280  18.724   7.262   4.294
14213W        W81281  27.505  30.099   3.181
14214W        W81282   5.825  10.789  13.310
14215W        W81283  23.562   4.760   1.774
14216W        W81284  28.452  42.931   0.446
14217W        W81285   6.233   3.242   3.767
14218W        W81286  33.395  25.135  14.437
14219W        W81287  17.795  32.968  12.857
14220W        W81288  36.090  15.823   1.382
14221W        W81289  22.702  40.326   5.596
14222W        W81290  21.130  17.217  12.496
14223W        W81291  34.940  13.731  13.892
14224W        W81292  23.186  34.094   4.230
14225W        W81293  39.371  11.335  13.502
14226W        W81294  24.684  30.509  10.444
14227W        W81295  13.318  31.992  11.559
14228W        W81296  26.114  38.443   0.298
14229W        W81297   8.372  37.565  12.449
14230W        W81298   5.919  31.427  13.804
14231W        W81299  19.152  28.094  14.319
14232W        W81300   7.345  22.691  14.505
14233W        W81301  31.909  35.590  11.098
14234W        W81302   5.818   4.251  13.505
14235W        W81303  10.703  44.428   4.666
14236W        W81304  44.785  39.025  11.389
14237W        W81305  10.726  12.204  14.455
14238W        W81306  20.731  26.965  12.485
14239W        W81307  13.628  35.857   1.805
14240W        W81308   3.870  17.164  10.966
14241W        W81309   6.724  37.087  13.002
14242W        W81310  19.280  27.667  10.597
14243W        W81311  38.420  21.560  11.529
14244W        W81312  25.558  21.042   3.657
14245W        W81313   3.368   5.265   1.741
14246W        W81314   6.278  40.514   4.284
14247W        W81315  11.163  40.868  14.340
14248W        W81316   5.348  20.541   4.687
14249W        W81317  30.141   0.947  10.514
14250W        W81318  27.068  27.469  10.587
14251W        W81319  28.035  42.448  14.934
14252W        W81320  23.204  32.111   3.311
14253W        W81321  27.043  42.350  11.045
14254W        W81322  34.509  14.266   3.630
14255W        W81323  25.165  19.602  11.126
14256W        W81324   1.369  42.866   1.830
14257W        W81325  29.531  44.000  11.048
14258W        W81326  25.697  24.583  14.860
14259W        W81327  21.553  40.313  10.970
14260W        W81328   5.879   0.494   1.403
14261W        W81329   4.345  32.078  14.448
14262W        W81330  32.604  20.639  14.923
14263W        W81331  18.596   6.335   2.222
14264W        W81332   8.790  29.588   2.803
14265W        W81333  27.672  43.445   3.755
14266W        W81334  37.912  26.578   1.263
14267W        W81335  34.583  27.109  11.891
14268W        W81336  34.389  23.608   3.653
14269W        W81337  22.218  34.396  11.954
14270W        W81338   7.352  22.504   2.788
14271W        W81339   1.821  13.312   1.696
14272W        W81340  39.552  15.603  14.925
14273W        W81341   7.852  17.096  12.532
14274W        W81342  18.650   4.787   0.780
14275W        W81343   0.458   1.396  14.940
14276W        W81344  37.999  44.941  14.936
14277W        W81345   3.420  19.690  10.437
14278W        W81346  44.981  12.671  12.949
14279W        W81347  23.112   8.667  13.330
14280W        W81348  37.529  12.684  10.430
14281W        W81349   4.921  41.400   2.804
14282W        W81350   2.322  27.611   3.701
14283W        W81351  17.732  27.590   4.311
14284W        W81352  25.539  32.026  10.971
14285W        W81353  40.549  23.537  12.088
14286W        W81354  25.612  44.268   2.359
14287W        W81355  38.430   3.287   2.307
14288W        W81356  12.145  26.688   0.937
14289W        W81357   0.767   7.896   0.809
14290W        W81358  40.439  33.460   2.226
14291W        W81359  20.616  22.561  10.967
14292W        W81360   3.229   7.350   1.715
14293W        W81361  41.904  33.052  10.581
14294W        W81362   3.930  11.225  13.805
14295W        W81363  36.874   1.834   1.417
14296W        W81364  26.462  19.568   4.789
14297W        W81365  32.437  24.199  11.522
14298W        W81366  13.221  33.458  10.484
14299W        W81367  11.691  17.201  11.956
14300W        W81368  39.419  28.929   1.894
14301W        W81369  19.719   0.917  13.462
14302W        W81370  40.533  42.840   2.182
14303W        W81371  23.193  20.646   3.296
14304W        W81372  30.970  23.521   2.748
14305W        W81373  15.237  18.238   4.838
14306W        W81374  39.906  38.380   4.609
14307W        W81375   3.886  14.185  14.501
14308W        W81376  36.932  26.518   0.902
14309W        W81377   3.750  13.658   2.746
14310W        W81378   4.825  27.676  12.937
14311W        W81379  44.408   6.751   3.667
14312W        W81380  28.519   1.969   0.889
14313W        W81381  25.045  26.186   3.656
14314W        W81382  30.047  16.173   0.389
14315W        W81383   2.325  39.816  11.881
14316W        W81384  17.220  26.994   1.924
14317W        W81385   7.814  41.425   0.472
14318W        W81386  31.136  31.927   3.370
14319W        W81387  13.820  30.546   0.391
14320W        W81388   9.236  17.106  14.937
14321W        W81389   6.884   9.753   2.251
14322W        W81390  11.323  36.440  11.393
14323W        W81391  35.418  30.520  11.096
14324W        W81392  20.562  17.181   2.264
14325W        W81393  21.548  18.549  14.808
14326W        W81394  39.346  10.356   1.841
14327W        W81395   8.819  12.143   2.768
14328W        W81396  32.396   9.238   3.191
14329W        W81397  17.286   0.473  10.630
14330W        W81398  15.223  18.773  10.953
14331W        W81399  29.517  30.050   2.802
14332W        W81400  30.512  27.613  14.974
14333W        W81401  28.953  43.373   3.801
14334W        W81402   8.303  44.445   2.408
14335W        W81403   8.898  42.950   0.459
14336W        W81404   8.882   9.345  12.015
14337W        W81405   2.898  44.399   4.296
14338W        W81406  21.753   1.461  11.556
14339W        W81407  26.491  24.629   2.325
14340W        W81408  36.021   6.204   0.244
14341W        W81409  28.136  15.168   1.885
14342W        W81410  31.982   7.764   5.098
14343W        W81411  25.625  15.320  10.930
14344W        W81412  18.603   8.720  14.889
14345W        W81413   0.773  39.951  11.602
14346W        W81414   7.842  36.855   4.178
14347W        W81415   6.383  15.700   5.281
14348W        W81416  43.009   7.212  11.922
14349W        W81417  24.640  23.601  11.502
14350W        W81418  32.990   3.824  12.450
14351W        W81419  32.976  21.657  11.075
14352W        W81420  28.087  37.391   0.389
14353W        W81421  19.725  37.046  14.007
14354W        W81422  19.134  22.054   4.193
14355W        W81423  38.486  30.975  14.902
14356W        W81424   4.330  27.948  11.412
14357W        W81425  11.660  17.745   3.240
14358W        W81426  27.529  19.735   2.397
14359W        W81427  25.148  31.592  13.495
14360W        W81428  31.971  44.374  12.417
14361W        W81429   5.288   3.291  12.576
14362W        W81430   5.304  22.158   4.340
14363W        W81431  18.777  18.703  13.520
14364W        W81432  10.178  12.646  13.829
14365W        W81433  17.636  21.699   2.375
14366W        W81434  22.225  23.130  14.814
14367W        W81435   1.429  16.800  11.471
14368W        W81436   9.155   1.369   0.359
14369W        W81437  20.136  23.205   3.348
14370W        W81438  42.339  31.900  14.289
14371W        W81439  23.589  23.172  12.578
14372W        W81440   5.255  25.656  12.880
14373W        W81441  37.002   4.934   1.303
14374W        W81442  36.582  21.079  13.362
14375W        W81443  25.040  11.162   0.355
14376W        W81444  38.523  27.994  13.397
14377W        W81445   3.348   8.759   2.736
14378W        W81446  33.927  15.651   2.402
14379W        W81447  11.773  29.549   3.242
14380W        W81448  11.373  10.657   2.687
14381W        W81449  34.529  42.451   4.693
14382W        W81450  42.787  23.690  11.908
14383W        W81451   7.210   8.896  14.413
14384W        W81452  28.978  40.429  13.984
14385W        W81453  19.045   1.325   3.724
14386W        W81454  35.069  17.186   0.469
14387W        W81455  38.899  43.941   2.402
14388W        W81456   3.216   5.439  14.496
14389W        W81457  43.382  27.183  10.593
14390W        W81458  18.287   1.761  14.451
14391W        W81459  31.992   4.885  10.451
14392W        W81460  16.169  37.563  13.309
14393W        W81461  32.536  11.217   0.256
14394W        W81462  36.997  44.790  10.905
14395W        W81463  29.605   1.436  12.844
14396W        W81464  12.239  41.349   2.339
14397W        W81465   6.217  15.703  12.475
14398W        W81466   9.210  36.585   2.697
14399W        W81467  42.903  22.241   1.417
14400W        W81468  30.102  12.753  10.972
14401W        W81469   2.234  30.117  13.834
14402W        W81470  34.487  42.927   0.899
14403W        W81471   0.447  32.009  13.903
14404W        W81472  24.038  36.545   4.279
14405W        W81473  37.582  21.168   3.219
14406W        W81474  20.694  33.617  13.865
14407W        W81475  26.656  26.648  14.819
14408W        W81476   2.727  10.724   4.235
14409W        W81477  15.761  16.745  14.901
14410W        W81478  27.447  26.061  11.577
14411W        W81479  25.545  14.281   2.696
14412W        W81480  34.018   5.825  11.097
14413W        W81481   1.828  41.011   3.254
14414W        W81482  17.611  27.656  13.012
14415W        W81483  37.343  25.147  11.471
14416W        W81484  31.118  11.203   1.255
14417W        W81485  35.538  28.649   2.736
14418W        W81486  20.120  38.487  14.003
14419W        W81487   9.855  44.388   2.744
14420W        W81488  41.886   3.335   5.209
14421W        W81489  40.400  31.477   0.886
14422W        W81490   1.793   8.306   3.704
14423W        W81491   6.826  17.109  10.440
14424W        W81492  21.109  33.418   3.215
14425W        W81493  11.691  30.607  11.102
14426W        W81494  31.616  33.502   0.347
14427W        W81495  26.487  43.465   0.465
14428W        W81496  10.332  24.104   2.196
14429W        W81497  13.329  26.529  14.788
14430W        W81498   3.247  44.371   2.686
14431W        W81499  15.741  37.550   3.197
14432W        W81500  25.654   4.875  10.533
14433W        W81501  28.484  31.529  10.501
14434W        W81502  41.836   6.321   2.378
14435W        W81503  36.067  13.761  12.907
14436W        W81504  13.206  13.836   3.290
14437W        W81505   9.353  40.376   4.113
14438W        W81506  15.189  16.772   3.169
14439W        W81507   0.793  34.984   1.240
14440W        W81508  13.314  36.033   0.389
14441W        W81509  17.561  10.750   1.337
14442W        W81510   0.329   3.815  11.514
14443W        W81511   6.854   0.471  14.913
14444W        W81512  31.041  34.519   5.090
14445W        W81513  32.590  21.648  10.621
14446W        W81514  24.047  39.968   3.685
14447W        W81515   6.829  30.618  11.980
14448W        W81516  42.879  11.795  13.390
14449W        W81517  14.725  26.688  13.378
14450W        W81518  44.765  40.540   4.309
14451W        W81519  18.579  19.243   1.265
14452W        W81520  18.192  13.766   2.729
14453W        W81521  16.619   0.783  12.889
14454W        W81522  27.580  19.590  11.511
14455W        W81523   4.842  42.452  12.078
14456W        W81524  10.820  29.059  11.078
14457W        W81525   5.781  20.530   1.905
14458W        W81526   1.340  37.009  10.580
14459W        W81527   9.304  25.641   2.231
14460W        W81528  31.063  35.985  14.835
14461W        W81529   5.240   0.838   0.830
14462W        W81530  20.549  28.531  14.943
14463W        W81531  10.668   6.795  10.415
14464W        W81532   6.825   5.807  13.864
14465W        W81533  11.676  42.491   3.743
14466W        W81534  22.521  15.584  10.444
14467W        W81535  16.694  21.535  12.921
14468W        W81536  17.180  44.877  10.525
14469W        W81537  38.401  35.028   1.736
14470W        W81538  14.670  26.996   3.227
14471W        W81539  19.576  26.658  12.898
14472W        W81540  24.221  30.588   3.850
14473W        W81541  27.962  25.663  12.427
14474W        W81542  29.073  15.821   0.895
14475W        W81543  33.096   5.912   0.789
14476W        W81544  35.359  39.833  13.983
14477W        W81545   4.750  17.738   2.275
14478W        W81546  36.476  14.283   3.262
14479W        W81547   2.270  34.896  12.449
14480W        W81548  21.196  40.825   3.708
14481W        W81549  27.117  10.354   0.405
14482W        W81550  42.427  19.173   4.292
14483W        W81551   7.889   7.779  11.059
14484W        W81552   7.789  27.139   2.779
14485W        W81553  21.703  23.719   2.334
14486W        W81554   3.230  28.025  14.869
14487W        W81555   7.736  16.616  11.552
14488W        W81556  32.008  38.436   3.206
14489W        W81557   0.744   1.320  10.410
14490W        W81558  13.782  29.969  11.446
14491W        W81559   7.795  15.823  12.464
14492W        W81560  27.538  38.353  14.994
14493W        W81561  34.454  10.736   1.902
14494W        W81562  19.225  32.038  10.937
14495W        W81563  25.194   9.704   2.320
14496W        W81564  32.553  41.530   3.279
14497W        W81565   4.410  24.600  12.339
14498W        W81566  32.442  37.478   4.339
14499W        W81567  19.643  27.186   4.264
14500W        W81568  12.346  27.008   3.858
14501W        W81569  21.237   6.911   4.694
14502W        W81570  31.963  37.351  11.977
14503W        W81571   0.880  15.126   4.828
14504W        W81572  31.420  14.638   1.289
14505W        W81573   5.226   6.886   2.673
14506W        W81574  34.009  21.219   2.754
14507W        W81575  27.472  33.994  13.064
14508W        W81576  42.000  15.624  11.479
14509W        W81577   7.701  37.384   2.662
14510W        W81578  10.745  15.178  11.401
14511W        W81579   6.800  31.504  14.497
14512W        W81580  15.619  10.298   2.903
14513W        W81581  39.481  38.366  13.056
14514W        W81582  25.604  43.467  12.569
14515W        W81583   5.898  11.695   1.852
14516W        W81584  10.877   1.346   3.722
14517W        W81585  41.859  18.748  11.946
14518W        W81586  29.020  27.660  12.980
14519W        W81587  40.040  40.808   0.438
14520W        W81588   6.870  31.147  12.374
14521W        W81589  41.307  28.093   0.785
14522W        W81590  19.146   9.348  13.958
14523W        W81591  23.729  16.606  14.423
14524W        W81592  28.667  29.093  11.101
14525W        W81593  11.768   1.455  11.872
14526W        W81594  32.462  25.539  12.930
14527W        W81595   9.270  24.604  11.970
14528W        W81596  11.292   8.252   1.865
14529W        W81597   4.225   9.229   4.294
14530W        W81598  23.998  41.836   3.839
14531W        W81599  43.986  31.428  12.347
14532W        W81600  30.492  37.446  14.427
14533W        W81601  30.911  42.481   0.788
14534W        W81602  18.636   3.789  11.022
14535W        W81603  43.508  16.306  13.460
14536W        W81604  28.123  27.672  12.041
14537W        W81605   1.777  38.485   2.295
14538W        W81606  36.992   6.263   1.773
14539W        W81607  43.350  43.499  14.857
14540W        W81608  14.737  27.566  13.440
14541W        W81609  32.941  18.550  11.951
14542W        W81610   1.768  13.819  13.334
14543W        W81611  38.554  17.707  12.863
14544W        W81612  40.020   5.269  11.018
14545W        W81613  18.224  30.974  14.953
14546W        W81614  22.589   8.747  13.982
14547W        W81615  34.073   2.274   2.409
14548W        W81616  17.731  26.623   3.318
14549W        W81617  17.768  41.955   0.797
14550W        W81618  27.688   8.798   1.331
14551W        W81619  18.625  40.462   1.412
14552W        W81620  30.104  14.771  11.054
14553W        W81621   4.737   4.760   1.760
14554W        W81622  26.143  32.071  14.415
14555W        W81623   0.959   6.231   0.809
14556W        W81624   3.909  24.695   3.666
14557W        W81625   2.236   4.916   1.698
14558W        W81626  11.220  17.676  13.428
14559W        W81627  35.939   5.410  11.474
14560W        W81628  44.301  11.794   1.443
14561W        W81629  24.150  42.427   3.324
14562W        W81630  12.680  18.639   0.410
14563W        W81631  40.440  29.542   5.114
14564W        W81632  18.253   3.323  13.956
14565W        W81633  40.961  11.751  11.500
14566W        W81634  18.264  19.118  10.906
14567W        W81635   8.824  39.817  10.575
14568W        W81636  28.601  10.151  10.594
14569W        W81637  44.366  39.533   3.153
14570W        W81638  14.823   5.914   2.272
14571W        W81639   0.793  35.922   0.394
14572W        W81640  22.216   9.264   2.787
14573W        W81641  23.670  15.686  12.090
14574W        W81642  38.434  10.147   4.175
14575W        W81643  21.722  37.845  11.522
14576W        W81644  10.369  12.620   1.876
14577W        W81645   8.783  24.597  13.906
14578W        W81646  43.458  28.471   0.959
14579W        W81647  30.025   8.183   0.245
14580W        W81648  19.064  15.182  11.887
14581W        W81649  30.509  22.745   2.826
14582W        W81650  33.577  43.469  14.903
14583W        W81651  35.401  20.673   0.964
14584W        W81652  30.963   0.362   1.806
14585W        W81653  27.170  14.733   4.748
14586W        W81654   4.929  19.535   1.360
14587W        W81655  15.769  22.579  13.961
14588W        W81656  37.049  34.892  14.435
14589W        W81657  24.222   7.410  14.514
14590W        W81658  31.594  35.004  12.407
14591W        W81659   5.720  31.464  10.957
14592W        W81660  40.847   8.234   0.860
14593W        W81661  31.607  36.974  14.815
14594W        W81662  31.986  27.980  11.043
14595W        W81663  21.649  15.184  11.373
14596W        W81664  13.731   3.280   2.355
14597W        W81665  18.203  17.689   0.806
14598W        W81666  43.493  37.937  14.857
14599W        W81667  30.947  32.988  14.935
14600W        W81668  33.128  36.447   3.678
14601W        W81669  38.380  21.261   2.344
14602W        W81670  24.986  14.715  12.919
14603W        W81671  26.563  11.698  14.852
14604W        W81672   5.741   0.865  14.795
14605W        W81673   1.859  30.635  13.028
14606W        W81674  33.483   9.256  11.460
14607W        W81675   8.706  10.320  10.440
14608W        W81676  20.537  11.667  13.497
14609W        W81677  42.982  23.703   2.374
14610W        W81678  20.660  41.864   4.205
14611W        W81679  44.950  39.422  11.586
14612W        W81680   3.408  36.863   4.135
14613W        W81681   8.735  12.723   4.192
14614W        W81682  13.762  10.836   0.919
14615W        W81683  10.693  25.644   2.842
14616W        W81684  41.386  11.661   5.245
14617W        W81685  14.831  18.705  13.802
14618W        W81686  27.692  16.741   2.229
14619W        W81687  15.594  41.455  13.894
14620W        W81688  23.011  41.325   1.425
14621W        W81689  39.463  28.129  13.935
14622W        W81690  20.071  35.049   5.088
14623W        W81691  25.574  34.964   0.804
14624W        W81692  15.680  40.441  13.409
14625W        W81693  22.728  15.103   3.385
14626W        W81694  27.040   1.797  12.393
14627W        W81695  41.869  23.075  12.543
14628W        W81696  17.768   2.357   1.877
14629W        W81697  10.169  17.664   0.247
14630W        W81698   1.314  43.307   2.868
14631W        W81699  34.522   8.232  12.510
14632W        W81700  30.046  44.358   2.900
14633W        W81701  18.128  26.575   3.864
14634W        W81702  11.255  29.485  12.519
14635W        W81703   4.387  12.233   4.339
14636W        W81704  44.929   9.265   4.253
14637W        W81705  17.278  24.030  11.573
14638W        W81706  34.467  17.681   4.815
14639W        W81707  23.659  20.131  10.988
14640W        W81708  17.169  24.180  11.041
14641W        W81709  26.494  35.388   3.161
14642W        W81710  41.497  23.179  12.404
14643W        W81711  34.949  35.510  10.537
14644W        W81712  30.590  10.179   4.244
14645W        W81713  41.487   0.462  10.905
14646W        W81714  44.327  37.455   1.240
14647W        W81715  23.142  22.508   1.909
14648W        W81716  41.002  16.679  14.887
14649W        W81717  43.901  35.979   2.389
14650W        W81718   4.870  43.812  10.925
14651W        W81719  19.749  14.640   3.277
14652W        W81720  44.398   5.913   0.958
14653W        W81721  24.551   1.859   0.248
14654W        W81722  13.172   9.151  13.341
14655W        W81723  23.509   1.467  13.919
14656W        W81724  27.044  10.281  13.310
14657W        W81725  43.850   9.326   3.167
14658W        W81726  32.986  36.880  11.897
14659W        W81727  31.120  14.266   3.150
14660W        W81728   1.787  32.582  13.341
14661W        W81729  23.999  21.736  11.477
14662W        W81730  29.529  27.040   4.345
14663W        W81731  34.010  34.532  12.083
14664W        W81732  43.451   6.766   0.457
14665W        W81733  15.180  15.698   2.849
14666W        W81734  39.050  36.059   1.874
14667W        W81735   0.473  13.797   3.646
14668W        W81736   8.667  19.265   3.867
14669W        W81737  16.643  35.020   3.300
14670W        W81738  34.926  11.246  14.498
14671W        W81739  20.694   0.942   4.657
14672W        W81740  33.606  34.457   0.328
14673W        W81741  25.186   4.377   1.348
14674W        W81742  18.071   2.332   2.777
14675W        W81743   5.277  22.077   0.958
14676W        W81744  14.303  22.566  14.852
14677W        W81745  10.762  40.953   4.718
14678W        W81746  17.785   5.342  13.934
14679W        W81747   1.335  13.716   3.652
14680W        W81748  37.934   8.820   5.246
14681W        W81749   8.389   9.276  11.399
14682W        W81750  20.666  40.805  11.555
14683W        W81751   6.407  30.949  11.097
14684W        W81752  19.746  14.791  12.411
14685W        W81753  15.771  31.639   3.754
14686W        W81754  20.130   7.282  13.367
14687W        W81755   8.685  26.061   4.739
14688W        W81756  22.146  12.281   2.844
14689W        W81757  41.344   2.356   1.735
14690W        W81758   4.381  14.328  13.417
14691W        W81759  23.571   6.269  11.860
14692W        W81760  14.611  24.626  11.126
14693W        W81761  31.485  25.693  14.502
14694W        W81762   6.812  20.206   0.388
14695W        W81763  41.441  30.155  11.506
14696W        W81764  41.825  42.896   0.453
14697W        W81765  33.922  35.062  14.324
14698W        W81766  42.837  35.022  12.576
14699W        W81767   9.841  39.017  11.422
14700W        W81768  15.215  34.050  12.361
14701W        W81769  13.715  43.947  10.502
14702W        W81770   4.778  20.618   1.265
14703W        W81771   2.803  30.077  10.590
14704W        W81772  20.186   3.756  13.538
14705W        W81773  11.357  39.380  12.512
14706W        W81774   8.403  20.139  12.839
14707W        W81775  16.604  30.092  11.124
14708W        W81776   4.387  10.146  14.999
14709W        W81777   6.362  28.604   3.378
14710W        W81778  15.648  38.433  12.872
14711W        W81779  32.590  41.453  13.939
14712W        W81780  34.474  17.276  12.944
14713W        W81781  25.180  26.568   2.737
14714W        W81782   4.330  17.218   3.733
14715W        W81783   8.821  16.180   4.140
14716W        W81784  43.993  10.227   2.276
14717W        W81785  39.060  36.931   0.259
14718W        W81786  32.621  25.562   2.724
14719W        W81787  43.278  39.023   1.892
14720W        W81788  39.542  40.895   2.822
14721W        W81789   2.863  17.159   1.406
14722W        W81790  15.304  22.734  12.522
14723W        W81791  43.310  16.785  11.411
14724W        W81792  19.196  15.303   2.756
14725W        W81793  17.088  27.622   1.234
14726W        W81794  42.464  19.613  11.878
14727W        W81795  43.991  13.677   4.800
14728W        W81796  22.163   9.208   4.639
14729W        W81797   2.429  42.854  10.446
14730W        W81798  11.838  16.665   0.289
14731W        W81799  15.148  26.606   2.735
14732W        W81800  42.424  35.878  11.435
14733W        W81801   2.823   5.347   3.215
14734W        W81802  17.103  30.502  12.964
14735W        W81803  27.449  21.672  11.012
14736W        W81804  38.347  35.394  10.428
14737W        W81805   5.785   1.304   2.742
14738W        W81806  40.312  39.458   2.844
14739W        W81807  20.608  18.629  12.484
14740W        W81808  42.964  44.331  13.506
14741W        W81809  21.135  41.514   0.411
14742W        W81810   5.716  27.108  14.918
14743W        W81811   2.449  17.165  10.530
14744W        W81812  23.618  16.746  13.910
14745W        W81813  23.223  21.645  12.938
14746W        W81814  39.912   4.327  11.090
14747W        W81815  32.560  21.628  14.817
14748W        W81816   0.793   7.807  12.469
14749W        W81817   5.246  42.874   0.343
14750W        W81818  15.745  39.413  14.367
14751W        W81819  38.018  23.040   2.670
14752W        W81820  22.028  36.370  13.391
14753W        W81821  21.568  25.146  13.036
14754W        W81822  13.158  28.015  11.006
14755W        W81823   6.332  15.108   2.792
14756W        W81824  14.737  17.649   4.285
14757W        W81825  19.544   9.724  10.599
14758W        W81826   4.881  33.430   4.304
14759W        W81827  33.600  16.144   2.877
14760W        W81828   4.736  33.880   0.265
14761W        W81829  44.782  30.918   0.312
14762W        W81830  24.084  41.386   1.295
14763W        W81831  34.898   3.248   1.357
14764W        W81832  36.466  30.511   9.964
14765W        W81833  30.125  35.422  13.840
14766W        W81834   5.267  29.058   4.784
14767W        W81835   3.438  40.878   2.197
14768W        W81836   8.353  20.067   1.747
14769W        W81837  43.279  21.086   1.262
14770W        W81838  33.989  29.550   1.772
14771W        W81839  25.699  27.044   1.778
14772W        W81840  26.047   2.432   1.336
14773W        W81841  33.059  30.586   2.846
14774W        W81842  15.748  39.063   2.291
14775W        W81843  37.454  18.650   1.705
14776W        W81844  18.743  13.198   3.742
14777W        W81845  32.121  33.128  12.450
14778W        W81846  27.455  21.629  11.515
14779W        W81847  10.764  16.574   3.255
14780W        W81848  13.303  28.125   1.254
14781W        W81849  27.646  21.733  13.852
14782W        W81850   6.879  17.188   4.810
14783W        W81851  11.839  13.201  12.863
14784W        W81852  14.672  22.582  13.062
14785W        W81853  44.809   7.701   2.399
14786W        W81854  26.564  26.984  11.422
14787W        W81855   6.761  33.428   3.177
14788W        W81856   5.691  43.485  12.952
14789W        W81857   7.313  21.656   2.265
14790W        W81858  29.440  31.107  12.016
14791W        W81859  11.634  19.174   0.357
14792W        W81860   3.767  44.885  11.037
14793W        W81861  32.141   4.763  11.545
14794W        W81862   0.354   0.940   2.703
14795W        W81863  34.112  17.108   4.230
14796W        W81864  15.682  16.772   0.965
14797W        W81865  17.726   3.338   0.430
14798W        W81866  33.536  37.050   1.903
14799W        W81867   1.396   7.199  11.507
14800W        W81868  41.031  32.470  13.802
14801W        W81869  18.630  10.263   4.666
14802W        W81870  38.867  38.832   3.871
14803W        W81871  12.816   3.375   2.387
14804W        W81872  14.693  32.916   3.343
14805W        W81873  16.807  43.335  12.972
14806W        W81874  43.423   7.177  11.597
14807W        W81875  41.383   1.922   4.831
14808W        W81876  11.215   3.726   4.167
14809W        W81877  15.672  33.130  13.529
14810W        W81878  25.660  34.869  12.913
14811W        W81879  31.108   4.279   1.747
14812W        W81880  20.204  20.541  12.383
14813W        W81881  11.839   5.349   3.662
14814W        W81882  10.344   4.875  11.033
14815W        W81883   6.818  33.607  13.880
14816W        W81884   7.318  17.252  12.857
14817W        W81885  28.594  12.700   4.651
14818W        W81886  23.228   4.893   0.267
14819W        W81887  19.593  43.959  13.851
14820W        W81888  21.144  13.606  10.945
14821W        W81889  10.667  28.522  11.482
14822W        W81890   2.952  23.040  12.406
14823W        W81891  30.987  30.470  10.971
14824W        W81892   0.423  38.403  12.847
14825W        W81893  19.760  42.526  14.797
14826W        W81894  23.107   9.690   3.191
14827W        W81895  38.355  22.132   1.826
14828W        W81896   9.298   2.371  12.894
14829W        W81897   1.398  20.679  14.364
14830W        W81898  10.316  27.551  12.486
14831W        W81899  10.302  41.526  12.453
14832W        W81900  11.782  13.616  11.968
14833W        W81901   3.868   9.695   3.313
14834W        W81902   7.672  43.275   0.297
14835W        W81903  19.714  19.206   2.323
14836W        W81904  35.993  30.435   1.431
14837W        W81905   9.244  39.893  11.896
14838W        W81906  28.651  19.110   1.701
14839W        W81907   7.177  13.622  11.890
14840W        W81908  30.536   5.927   0.927
14841W        W81909  24.639  44.834   4.635
14842W        W81910   5.866  25.501  14.933
14843W        W81911  31.125   9.389  13.880
14844W        W81912  23.117   9.733  13.542
14845W        W81913  29.484  42.782  11.861
14846W        W81914  16.570   5.734  10.554
14847W        W81915  35.885  11.235   3.659
14848W        W81916  13.638  27.178   4.299
14849W        W81917  30.962  31.063   4.135
14850W        W81918  33.915   6.872  11.581
14851W        W81919  29.610  23.641   3.339
14852W        W81920  44.842  25.615  12.944
14853W        W81921  36.908  39.390  12.536
14854W        W81922  23.569  34.558  13.530
14855W        W81923  33.036  16.744   0.759
14856W        W81924   5.868   7.287  10.522
14857W        W81925  20.097   3.329   0.477
14858W        W81926  17.668  22.192   3.799
14859W        W81927  24.102   6.849  14.902
14860W        W81928  37.949  21.174  10.905
14861W        W81929  16.262  42.426  12.009
14862W        W81930   3.312  13.243   4.310
14863W        W81931   4.320  32.971   1.338
14864W        W81932  32.041  40.887  11.032
14865W        W81933  39.828   0.385   1.352
14866W        W81934  23.663  22.574   1.222
14867W        W81935  13.682  27.016  10.466
14868W        W81936  12.123  33.602  13.056
14869W        W81937   3.824  44.265   4.314
14870W        W81938  19.758   0.409   2.854
14871W        W81939   3.332  43.810   0.434
14872W        W81940  28.181  20.683   4.651
14873W        W81941  23.733  30.447   3.651
14874W        W81942  18.218  16.684  10.532
14875W        W81943  22.594  33.042   0.871
14876W        W81944  12.731  15.290   1.710
14877W        W81945  16.318   5.706   2.350
14878W        W81946  15.084  28.579  10.430
14879W        W81947   3.445  36.446   2.880
14880W        W81948   8.312  44.393  12.411
14881W        W81949  17.717  42.947   3.222
14882W        W81950  38.840  14.132  14.424
14883W        W81951  29.149   1.276  14.442
14884W        W81952  18.791  44.963  12.876
14885W        W81953  37.921  11.834  14.351
14886W        W81954  16.728  21.048   4.285
14887W        W81955  10.810  43.444  14.955
14888W        W81956  17.118  20.642   2.834
14889W        W81957  16.665  36.945  13.497
14890W        W81958  11.665  27.994   5.092
14891W        W81959  26.063  36.893   4.194
14892W        W81960  30.639  18.222   0.756
14893W        W81961  40.873  38.819   0.405
14894W        W81962  11.364  13.668   3.646
14895W        W81963  10.314   2.397  11.892
14896W        W81964  29.134  41.990   2.229
14897W        W81965  29.030  27.570  13.338
14898W        W81966  16.586  15.602   0.315
14899W        W81967  26.703  28.527  14.355
14900W        W81968  35.980  18.669   4.623
14901W        W81969  16.762  38.029  14.510
14902W        W81970  17.694  11.165  13.035
14903W        W81971  31.084  37.521   1.935
14904W        W81972  42.409  44.430  14.921
14905W        W81973  32.032  42.354  10.504
14906W        W81974  25.217  37.076  12.016
14907W        W81975  44.002  37.455   0.774
14908W        W81976  12.641  25.648   2.754
14909W        W81977  25.002   5.862   2.833
14910W        W81978  32.115  37.955  11.944
14911W        W81979   7.754  33.559   0.847
14912W        W81980   8.400  13.819  12.455
14913W        W81981   6.917  11.242   4.161
14914W        W81982  38.954  11.191   0.782
14915W        W81983  18.727  34.561   3.637
14916W        W81984   7.240   8.374   2.321
14917W        W81985  34.486  33.389   2.685
14918W        W81986  33.087   6.188  12.406
14919W        W81987  15.090  10.642   3.700
14920W        W81988   5.264  23.189   3.198
14921W        W81989   6.280  37.555  12.499
14922W        W81990  33.096  44.954   2.376
14923W        W81991  26.051  34.421  14.974
14924W        W81992  38.884   7.753  13.041
14925W        W81993   4.378  15.198  11.478
14926W        W81994  26.081   1.280  11.957
14927W        W81995  28.130  40.936   0.787
14928W        W81996  32.546   6.269  13.347
14929W        W81997  12.249  21.233  13.361
14930W        W81998  41.923  23.629   1.927
14931W        W81999  21.030  34.382   3.656
14932W        W82000   4.871   5.828  10.119
14933W        W82001  31.129  39.990   2.694
14934W        W82002   8.251  43.860   1.912
14935W        W82003  31.442  30.922  13.035
14936W        W82004  38.051  17.615  14.862
14937W        W82005   7.779  36.591  11.454
14938W        W82006  15.327   6.235  11.550
14939W        W82007  28.593  25.616   2.874
14940W        W82008   6.683  17.295   2.863
14941W        W82009  26.068   5.240  11.376
14942W        W82010  11.149  20.068  13.467
14943W        W82011  43.834  38.866   1.338
14944W        W82012  32.538   0.295  10.924
14945W        W82013  18.190  17.646   0.455
14946W        W82014  44.839  13.301   4.157
14947W        W82015  41.421  16.568   3.190
14948W        W82016  21.097  31.490  14.799
14949W        W82017  20.683  15.275  10.640
14950W        W82018   1.241   3.804   3.158
14951W        W82019  27.022   8.799   0.459
14952W        W82020  39.834  43.417  10.454
14953W        W82021  33.579  21.556   2.401
14954W        W82022  30.979  42.297   2.743
14955W        W82023  38.931  21.629   1.325
14956W        W82024  36.882  44.846  10.502
14957W        W82025  17.596  33.386   2.854
14958W        W82026  42.871   6.381  14.767
14959W        W82027  35.533   3.443   1.382
14960W        W82028  31.586   3.923  10.992
14961W        W82029  23.626  32.499  11.060
14962W        W82030   2.882  43.790   4.180
14963W        W82031   6.230  29.482   5.095
14964W        W82032  10.154   2.797   4.778
14965W        W82033  12.812  22.639  13.850
14966W        W82034  17.221  32.895   3.743
14967W        W82035  18.617   7.763   4.623
14968W        W82036  10.791   9.711   0.884
14969W        W82037  32.061  18.748   4.166
14970W        W82038  29.638  26.661  10.101
14971W        W82039  12.116   7.309   3.870
14972W        W82040  39.406  21.248   4.648
14973W        W82041   5.272   6.780   3.196
14974W        W82042  44.951  23.685  11.042
14975W        W82043   3.803  26.639   1.912
14976W        W82044  15.252   2.431   4.702
14977W        W82045   3.449  24.570  14.933
14978W        W82046  17.622  32.620  11.477
14979W        W82047  19.631  20.549  10.562
14980W        W82048   0.332  25.167   1.807
14981W        W82049  16.698  33.016   3.320
14982W        W82050  42.429  22.722  13.440
14983W        W82051  38.897  19.695   5.133
14984W        W82052  31.634  13.652   3.860
14985W        W82053  38.877  37.924  13.477
14986W        W82054  34.870  35.949   2.775
14987W        W82055  15.230  32.480   3.826
14988W        W82056  40.367  28.081  10.976
14989W        W82057  42.405  32.425  11.995
14990W        W82058  41.853   3.906   1.782
14991W        W82059  36.538  13.651  12.865
14992W        W82060  39.472  36.086  14.953
14993W        W82061  32.607  28.644   0.470
14994W        W82062   6.350  32.112  10.443
14995W        W82063  17.147  18.726   4.300
14996W        W82064  40.820  39.512  12.887
14997W        W82065   9.855  12.733   2.384
14998W        W82066  17.070  42.377  10.587
14999W        W82067  10.822  27.637   0.323
15000W        W82068  31.587   1.241  11.560
15001W        W82069  44.411   5.812  10.595
15002W        W82070  32.498  37.409   1.434
15003W        W82071   1.827  27.546   0.873
15004W        W82072  33.056  26.206   0.910
15005W        W82073  38.017  21.048  10.124
15006W        W82074  36.046  41.388  11.544
15007W        W82075  11.203  21.646  13.062
15008W        W82076  16.092   4.407  12.896
15009W        W82077  22.738  28.578  10.962
15010W        W82078  37.972  20.263   1.786
15011W        W82079  28.983   2.423   1.395
15012W        W82080  40.957  32.437   4.278
15013W        W82081  22.695  24.184   1.905
15014W        W82082  36.873  16.280  14.300
15015W        W82083  20.203  22.221  14.317
15016W        W82084  36.042  24.521   3.803
15017W        W82085  27.495  34.515  12.447
15018W        W82086  41.849  22.534  13.548
15019W        W82087   1.246  35.558   9.455
15020W        W82088  23.555  43.918   3.775
15021W        W82089   0.281  40.797  13.460
15022W        W82090  29.611   2.769   0.366
15023W        W82091  43.341  15.221   4.693
15024W        W82092  14.631  27.551   4.664
15025W        W82093  27.182   4.789   3.383
15026W        W82094  39.968  24.672   0.475
15027W        W82095  33.557  25.062   0.394
15028W        W82096  42.363  33.424   0.384
15029W        W82097  44.320   3.823  11.018
15030W        W82098  37.035  31.016   2.832
15031W        W82099  13.240   8.276   1.330
15032W        W82100  17.765  26.156   3.243
15033W        W82101  24.145  31.452  14.303
15034W        W82102   2.736  12.137  10.551
15035W        W82103  27.112   2.465   4.221
15036W        W82104  39.473  18.237  11.989
15037W        W82105  25.185   1.937  11.877
15038W        W82106  22.722   6.916   0.261
15039W        W82107  43.366  17.211   3.329
15040W        W82108  43.866   2.369   0.965
15041W        W82109  30.462   5.193  13.321
15042W        W82110  20.182   9.811   2.755
15043W        W82111  15.190  13.328   1.220
15044W        W82112   8.267   7.278  13.795
15045W        W82113   7.675  27.562  14.803
15046W        W82114  18.564  26.664   1.838
15047W        W82115  41.418  31.113  11.006
15048W        W82116   4.821  31.122   4.155
15049W        W82117  36.853   7.271   3.307
15050W        W82118  43.794  22.577  11.588
15051W        W82119  28.112  29.165   0.413
15052W        W82120   2.720  38.452  13.980
15053W        W82121  39.473  40.508   1.765
15054W        W82122  19.555  15.585   3.188
15055W        W82123   5.267   4.250  13.862
15056W        W82124  25.009  36.098   4.337
15057W        W82125  29.089  26.175  11.973
15058W        W82126  40.348  20.066  14.413
15059W        W82127  41.407  13.321  11.862
15060W        W82128  17.655  44.954   3.354
15061W        W82129  28.537  20.046  11.008
15062W        W82130  20.685  43.409  14.907
15063W        W82131  33.126  10.801  13.005
15064W        W82132  10.647  21.555  11.399
15065W        W82133  34.382  25.679   2.286
15066W        W82134  22.646  37.922   0.327
15067W        W82135  16.665  35.586  14.764
15068W        W82136  10.819   3.882   1.735
15069W        W82137  42.898  20.599   1.333
15070W        W82138  26.989   1.780   2.814
15071W        W82139  34.945  23.183   0.738
15072W        W82140   1.448  43.940  10.996
15073W        W82141  34.935  21.255  14.476
15074W        W82142   3.845  36.585   1.345
15075W        W82143  33.098  37.014   2.243
15076W        W82144  41.818   2.836   4.350
15077W        W82145  26.961  12.229   4.729
15078W        W82146  14.823  18.075  10.602
15079W        W82147  17.151  16.140  11.462
15080W        W82148  13.311  37.461   4.236
15081W        W82149  30.949  18.644  11.574
15082W        W82150  25.205  26.525  12.533
15083W        W82151  39.995   1.815   0.760
15084W        W82152  30.432  11.363  12.354
15085W        W82153  36.955  32.623  11.939
15086W        W82154  37.370  41.538  12.399
15087W        W82155  22.691   9.321   0.307
15088W        W82156  42.003  35.992   4.734
15089W        W82157  18.780  38.348  13.055
15090W        W82158   0.951  28.636  10.504
15091W        W82159  22.033  38.905  11.467
15092W        W82160  25.512  17.775  12.853
15093W        W82161  32.446  15.683   4.800
15094W        W82162  25.174  43.363   1.859
15095W        W82163   9.217  43.780  11.909
15096W        W82164  32.114   5.864   2.230
15097W        W82165   7.756   4.711   4.183
15098W        W82166  11.735   6.276   0.317
15099W        W82167  24.134   3.221   1.882
15100W        W82168  15.152   7.280   9.656
15101W        W82169  27.967  32.015  12.039
15102W        W82170   6.231  34.918   3.795
15103W        W82171  32.099  17.801  14.387
15104W        W82172   6.330  40.980   4.697
15105W        W82173  40.006  10.221   3.784
15106W        W82174  23.490  10.848  13.957
15107W        W82175  37.005  23.169   1.298
15108W        W82176  12.852   8.844  14.993
15109W        W82177  22.712  24.990   4.722
15110W        W82178   1.402  21.227  12.047
15111W        W82179  22.501  41.350  13.816
15112W        W82180  44.800   2.868  14.993
15113W        W82181   4.834  14.255   4.152
15114W        W82182  28.569  13.599   5.672
15115W        W82183  22.998  40.933  10.546
15116W        W82184  18.594   5.395   4.766
15117W        W82185   7.833   1.821  14.347
15118W        W82186   2.829  33.100   0.952
15119W        W82187   3.258  30.501   3.301
15120W        W82188  41.308  41.522  11.947
15121W        W82189  10.280  12.345  14.781
15122W        W82190  43.430   4.919  12.363
15123W        W82191   8.885   5.372   0.438
15124W        W82192  29.615  37.891   4.779
15125W        W82193   1.423   7.277   0.753
15126W        W82194   5.212   2.742   0.405
15127W        W82195  17.079   0.398   3.671
15128W        W82196  35.442  39.520  13.452
15129W        W82197  29.158  20.677   3.643
15130W        W82198   6.900  31.022   0.797
15131W        W82199  14.619  21.116   1.281
15132W        W82200  35.521  38.473   0.434
15133W        W82201  21.181  25.071   4.785
15134W        W82202   5.894  17.179  10.500
15135W        W82203  10.704  33.416  12.914
15136W        W82204  38.392  37.049   0.316
15137W        W82205  16.743   5.907  14.317
15138W        W82206   6.909  26.999   3.162
15139W        W82207  11.174  36.411  14.310
15140W        W82208  14.797   0.903  11.399
15141W        W82209  23.235   8.730   0.855
15142W        W82210  32.630   1.400  11.096
15143W        W82211  34.983  26.019  11.929
15144W        W82212  11.698  31.080  10.407
15145W        W82213  29.555   3.824  13.534
15146W        W82214  38.446  13.637  12.453
15147W        W82215  43.871  35.014  10.938
15148W        W82216  14.275  39.845  14.910
15149W        W82217  37.862  12.643  13.405
15150W        W82218   4.892  39.029  11.076
15151W        W82219  16.576  28.566   9.962
15152W        W82220   0.465   9.869  12.423
15153W        W82221  26.149   9.235  13.355
15154W        W82222  17.158   0.842  13.026
15155W        W82223  34.905  38.047   1.267
15156W        W82224   8.778   0.315  14.951
15157W        W82225  30.095  25.167  10.146
15158W        W82226  19.621  43.414  12.998
15159W        W82227   6.365   1.812  10.553
15160W        W82228  11.725  14.329   5.222
15161W        W82229  28.586  33.064  14.322
15162W        W82230  34.882   9.734  14.927
15163W        W82231  25.999  21.204   1.249
15164W        W82232  17.127  38.041   4.759
15165W        W82233  28.442  14.779   3.276
15166W        W82234   6.875  40.431  13.346
15167W        W82235   8.721  13.750  12.073
15168W        W82236   8.327  38.839   4.143
15169W        W82237  21.575  37.062  14.435
15170W        W82238  23.022   9.654   2.707
15171W        W82239  37.968  25.023  13.830
15172W        W82240   5.268  31.928  14.759
15173W        W82241  21.632  36.529  10.619
15174W        W82242  17.235  38.960   3.233
15175W        W82243  42.405  43.471  11.400
15176W        W82244  21.224   0.347  12.042
15177W        W82245  25.648  15.329  13.032
15178W        W82246  42.854  19.770  11.419
15179W        W82247  20.183  44.372   0.296
15180W        W82248  17.619  43.429   0.899
15181W        W82249  16.176  10.344   4.140
15182W        W82250  29.938  20.541  10.930
15183W        W82251  10.792  37.881  11.967
15184W        W82252   0.980  23.127   4.307
15185W        W82253  44.796  32.008   4.739
15186W        W82254  37.842   1.949  13.423
15187W        W82255  23.063  23.996   4.760
15188W        W82256  10.692  25.988   3.669
15189W        W82257   4.294  19.734  11.985
15190W        W82258   5.851  32.089  10.635
15191W        W82259  19.275  44.415  12.389
15192W        W82260  21.201  14.099   2.892
15193W        W82261  35.499  40.444  13.997
15194W        W82262  16.621   4.436  10.909
15195W        W82263  39.929  18.253  13.808
15196W        W82264   1.778  17.160   2.416
15197W        W82265  21.124  41.939  12.910
15198W        W82266  42.815  24.675   3.387
15199W        W82267  10.825  14.149  12.078
15200W        W82268  43.272  26.165   3.807
15201W        W82269   7.722   4.422   0.316
15202W        W82270  22.088  36.897   0.296
15203W        W82271  26.513  27.010   1.396
15204W        W82272  24.681  29.577   1.700
15205W        W82273  25.536  12.166  14.031
15206W        W82274  29.450   6.788   3.209
15207W        W82275   8.201  23.168   2.847
15208W        W82276  14.327  28.026   0.444
15209W        W82277  17.685  19.687  11.882
15210W        W82278  11.237  28.486   0.429
15211W        W82279  32.602  36.012  14.436
15212W        W82280  41.362  10.698   1.887
15213W        W82281   9.339   3.918   2.311
15214W        W82282  43.453  34.988  11.922
15215W        W82283  25.091   1.759   4.759
15216W        W82284  33.094   9.792   2.762
15217W        W82285  14.746   0.321  13.384
15218W        W82286  38.398  15.111  14.312
15219W        W82287  27.964  18.603  13.428
15220W        W82288  37.854  41.462  13.409
15221W        W82289   8.880   4.844   1.275
15222W        W82290  27.627  41.434   2.810
15223W        W82291  13.132  18.265   0.927
15224W        W82292  18.777  20.528   3.637
15225W        W82293  37.001  40.331   0.374
15226W        W82294   6.913  19.603   5.105
15227W        W82295   7.261   1.343   0.778
15228W        W82296   2.789  15.755   3.383
15229W        W82297   1.310  38.982  14.945
15230W        W82298  24.653  28.480   1.296
15231W        W82299  32.138  27.505   1.933
15232W        W82300  37.525  28.014   1.235
15233W        W82301  44.281   5.297  11.511
15234W        W82302  26.958  17.749  13.813
15235W        W82303  42.947  39.808  12.474
15236W        W82304  17.296  13.807  12.988
15237W        W82305  20.185  23.088  12.894
15238W        W82306  17.255  21.050   3.250
15239W        W82307  16.072  43.457  11.917
15240W        W82308  24.608  14.120   1.225
15241W        W82309   0.264  37.340  12.339
15242W        W82310  38.072  31.469   1.732
15243W        W82311  20.735  31.105   4.619
15244W        W82312   7.282  21.745  12.049
15245W        W82313   6.372  39.852  10.626
15246W        W82314  19.121  33.497   1.838
15247W        W82315   7.273  27.483  11.963
15248W        W82316  26.125   8.856  12.519
15249W        W82317  27.070  40.433   2.407
15250W        W82318  16.165   3.777   0.880
15251W        W82319  29.958  18.141  12.079
15252W        W82320  33.982  19.168  14.866
15253W        W82321  26.084  12.728   3.244
15254W        W82322  32.119  14.115  12.400
15255W        W82323  30.628   0.750   2.894
15256W        W82324  28.673  28.593  14.329
15257W        W82325  23.695  24.046   3.711
15258W        W82326  28.130  39.454  13.001
15259W        W82327  15.786  23.612  14.327
15260W        W82328  36.871   0.352  11.542
15261W        W82329  37.557  26.568  12.955
15262W        W82330   5.235  13.627  13.347
15263W        W82331  26.123   3.833  13.988
15264W        W82332  19.736  23.121   4.838
15265W        W82333  40.869  29.471  10.615
15266W        W82334  18.176   7.826   4.784
15267W        W82335  13.625  16.230   1.234
15268W        W82336  44.846  23.229  13.472
15269W        W82337  37.342  32.100   4.239
15270W        W82338  30.055   9.727   4.299
15271W        W82339  39.353  11.795   4.804
15272W        W82340   8.837  10.166  14.897
15273W        W82341  28.597  24.523   1.307
15274W        W82342  10.643  21.127   1.906
15275W        W82343  34.043   0.981   3.667
15276W        W82344  26.970  21.151   0.401
15277W        W82345  35.423  29.140  14.321
15278W        W82346  16.166  33.949  11.912
15279W        W82347  30.427  37.919  10.602
15280W        W82348  24.715   3.720  13.906
15281W        W82349  32.617  36.008   2.899
15282W        W82350  27.097  22.733  11.613
15283W        W82351  30.518   2.394   2.873
15284W        W82352  22.056   9.372   1.314
15285W        W82353  16.099  19.686   2.225
15286W        W82354  39.426  15.316   1.822
15287W        W82355  20.660  32.551   4.693
15288W        W82356  43.310  44.952  12.342
15289W        W82357  18.108  14.123   2.283
15290W        W82358  26.474  24.072  11.032
15291W        W82359  28.530  32.535   5.186
15292W        W82360  29.935   7.889  14.971
15293W        W82361  18.077  38.463   3.211
15294W        W82362  36.376  28.171   3.179
15295W        W82363  35.004  27.653  11.897
15296W        W82364  18.130  11.306  12.401
15297W        W82365   2.235  43.880  10.407
15298W        W82366  11.234  15.253   3.317
15299W        W82367  44.877  34.408   3.772
15300W        W82368  23.664  11.771  14.002
15301W        W82369  22.009  20.089  10.620
15302W        W82370  37.872  24.680   3.376
15303W        W82371   8.352  35.447   2.897
15304W        W82372  14.740  39.999   4.334
15305W        W82373  26.041   6.280  11.044
15306W        W82374  43.813  22.206  11.925
15307W        W82375  40.522  16.154  13.338
15308W        W82376  20.208  32.921   0.960
15309W        W82377  34.028  17.300   4.698
15310W        W82378  21.647  31.440  14.845
15311W        W82379  19.623  15.197  10.642
15312W        W82380  25.689  41.532   4.818
15313W        W82381  18.111  44.475  13.380
15314W        W82382  33.542  11.271   0.359
15315W        W82383  39.368  37.831  13.932
15316W        W82384   2.235   8.717  12.930
15317W        W82385   0.927  14.644  11.889
15318W        W82386  41.040  33.010   4.684
15319W        W82387  14.186  39.867  13.448
15320W        W82388  17.279   8.279   0.242
15321W        W82389  42.475  38.480   3.330
15322W        W82390  34.019  25.011  14.336
15323W        W82391  16.077  36.556   3.844
15324W        W82392  44.476   9.225   0.787
15325W        W82393   2.385  21.562   4.834
15326W        W82394  44.830  14.624  12.410
15327W        W82395  18.641  31.503  14.910
15328W        W82396  15.818   0.397  12.928
15329W        W82397  18.737   2.827  13.932
15330W        W82398  26.952  40.539  14.875
15331W        W82399  36.845  22.014   4.121
15332W        W82400  21.063  17.119  13.410
15333W        W82401   9.838   9.334  10.544
15334W        W82402  13.205   7.681   0.324
15335W        W82403  27.672  41.984  11.017
15336W        W82404  42.332  31.154   2.190
15337W        W82405   2.243  16.607  12.569
15338W        W82406  27.970  11.764  13.824
15339W        W82407  23.076  35.557  12.951
15340W        W82408  18.733   7.844   1.302
15341W        W82409  12.734  36.851  11.437
15342W        W82410  21.229  22.525  14.280
15343W        W82411   7.183  33.923   4.339
15344W        W82412  43.873  31.900  13.398
15345W        W82413   3.922  43.776  11.513
15346W        W82414  10.809  35.463  14.425
15347W        W82415  10.363  19.047  14.424
15348W        W82416  23.692   8.162  14.508
15349W        W82417  28.151   9.780   4.603
15350W        W82418  42.404  43.463  13.885
15351W        W82419  43.409  15.210   2.836
15352W        W82420  41.312  43.348  11.073
15353W        W82421  12.196  41.933  11.485
15354W        W82422  17.768  25.710  12.830
15355W        W82423  39.967  30.094  14.348
15356W        W82424  37.877  26.463  12.519
15357W        W82425  43.333  44.325  11.078
15358W        W82426  18.238  36.410  11.542
15359W        W82427  18.286  13.672  11.602
15360W        W82428  15.270  22.598  10.958
15361W        W82429  24.006  15.268  11.397
15362W        W82430  24.625  16.686   1.864
15363W        W82431  44.994  16.741  12.539
15364W        W82432  31.037  41.965   4.683
15365W        W82433  41.418   1.433  12.370
15366W        W82434  21.132  44.814  10.909
15367W        W82435  21.531  33.437   1.342
15368W        W82436   3.801   2.847  12.843
15369W        W82437   6.424  25.009  10.454
15370W        W82438  40.894  11.212  10.429
15371W        W82439   0.266   2.959   1.807
15372W        W82440   1.878  28.678   2.756
15373W        W82441   3.426  18.777   5.084
15374W        W82442  29.976  15.168   4.312
15375W        W82443   6.371  34.112   1.301
15376W        W82444  27.537  15.120   0.910
15377W        W82445  42.444  23.119   3.642
15378W        W82446  26.556  42.433   2.332
15379W        W82447   0.489   1.388   4.804
15380W        W82448  35.104   6.799   0.811
15381W        W82449  13.196  28.037   5.092
15382W        W82450  30.163  12.630  11.951
15383W        W82451  19.604  36.042   2.268
15384W        W82452  23.553  32.575   4.336
15385W        W82453  19.227  41.461   2.796
15386W        W82454  38.524  26.660  11.889
15387W        W82455   4.327   4.923  12.967
15388W        W82456  43.422  39.493  14.483
15389W        W82457  35.076  24.495   0.951
15390W        W82458  19.547  15.114  11.012
15391W        W82459   4.894  33.099   3.860
15392W        W82460  39.922  30.523   4.244
15393W        W82461  26.525  14.617  13.941
15394W        W82462  10.751  32.051   0.797
15395W        W82463  21.152  37.923  11.417
15396W        W82464  29.433  22.637   1.707
15397W        W82465  13.279  44.371  13.310
15398W        W82466  27.052  16.568   1.388
15399W        W82467  23.648  31.592  13.012
15400W        W82468  27.057  10.666  12.572
15401W        W82469  33.913  10.362   1.268
15402W        W82470  20.216  27.146   1.809
15403W        W82471   0.408  27.195   1.829
15404W        W82472  21.681  42.951  10.464
15405W        W82473   0.440   1.910  11.571
15406W        W82474  16.264  22.532  11.421
15407W        W82475   6.808   0.335   4.642
15408W        W82476  37.346   0.885   1.244
15409W        W82477   2.441  24.144  12.864
15410W        W82478  29.452   5.246  12.931
15411W        W82479  32.933  33.913  12.092
15412W        W82480  26.467  30.610   2.832
15413W        W82481  40.983   1.392  11.996
15414W        W82482   9.227   0.260  12.426
15415W        W82483  29.606  23.504  10.472
15416W        W82484  15.279  10.197   0.379
15417W        W82485  11.819  30.420   4.326
15418W        W82486  17.263  37.924  10.459
15419W        W82487  31.430  26.162  12.539
15420W        W82488  27.621  12.655   4.734
15421W        W82489  18.740  19.746   1.890
15422W        W82490  27.688   3.448  11.078
15423W        W82491  26.100  11.828  11.904
15424W        W82492  43.330  22.557   4.632
15425W        W82493   7.372  16.161  10.508
15426W        W82494   8.706  25.095  13.347
15427W        W82495  20.036   2.254   0.266
15428W        W82496   8.824   9.883   4.327
15429W        W82497  44.458  25.695  10.609
15430W        W82498  10.176  21.728   5.142
15431W        W82499  15.780  43.437   3.268
15432W        W82500  20.089  35.994   2.337
15433W        W82501   0.330  41.443  12.485
15434W        W82502  28.955  25.550   9.993
15435W        W82503  34.612  19.566   1.451
15436W        W82504  34.985   7.675   1.347
15437W        W82505  10.272  25.601  14.822
15438W        W82506  22.124  22.250   2.737
15439W        W82507  42.854   2.337  11.580
15440W        W82508  24.030   3.933   2.870
15441W        W82509  36.995  28.150  11.387
15442W        W82510   7.787   4.760  13.407
15443W        W82511  10.367  28.010   3.360
15444W        W82512   5.713  39.916   4.834
15445W        W82513   4.823   6.864   2.360
15446W        W82514  16.177  13.624  14.861
15447W        W82515   1.240  22.583   0.461
15448W        W82516  37.572   2.273  13.803
15449W        W82517  32.399  15.624  13.938
15450W        W82518  44.993  29.459   0.465
15451W        W82519  32.980   7.778  12.976
15452W        W82520   6.886  26.200  13.055
15453W        W82521   3.308  37.883   5.218
15454W        W82522  40.496  13.715  11.884
15455W        W82523  43.274  23.004   4.255
15456W        W82524  13.257  18.644  14.791
15457W        W82525  42.890   9.391   1.392
15458W        W82526  32.904  44.442  13.428
15459W        W82527  15.276  38.979   1.730
15460W        W82528  28.631  14.757   1.889
15461W        W82529   5.835  14.797   3.836
15462W        W82530  19.234  41.365   2.195
15463W        W82531  39.379  30.021   4.225
15464W        W82532  23.613  37.529   4.715
15465W        W82533  10.193  39.989  14.007
15466W        W82534  22.575  17.573   0.437
15467W        W82535  14.267  31.050   0.252
15468W        W82536  27.568   0.885  10.951
15469W        W82537  41.534  11.127  12.980
15470W        W82538  34.098   5.824   2.725
15471W        W82539   7.301   6.222   2.783
15472W        W82540   3.233  28.448   3.213
15473W        W82541  12.623  27.126  13.489
15474W        W82542   0.911  31.904  14.349
15475W        W82543  29.160  23.043   4.677
15476W        W82544   6.409  25.501  14.348
15477W        W82545  28.002  21.183  12.876
15478W        W82546  36.996  42.982   2.357
15479W        W82547  29.610   4.375   2.302
15480W        W82548   2.791   4.363  14.953
15481W        W82549  28.963  20.620   0.786
15482W        W82550  30.531  32.634  14.918
15483W        W82551  38.832  11.644   3.149
15484W        W82552  30.452  31.630  10.932
15485W        W82553  31.621  36.031  11.005
15486W        W82554  37.841  16.721  13.036
15487W        W82555  36.539  15.212   0.836
15488W        W82556  21.636  15.166  10.975
15489W        W82557  34.480  16.171  11.961
15490W        W82558   7.377  12.246  10.540
15491W        W82559  38.335  12.242  10.539
15492W        W82560   3.220  11.325   2.806
15493W        W82561  35.533  44.764  11.937
15494W        W82562  15.767  20.656   0.907
15495W        W82563  23.073  34.071  13.370
15496W        W82564  42.362  44.304  11.883
15497W        W82565   6.203   4.394  11.585
15498W        W82566   2.406  25.985  13.825
15499W        W82567  31.108  16.235   0.903
15500W        W82568  19.227   4.423   3.790
15501W        W82569  15.754  25.630  14.876
15502W        W82570  31.917  32.575   4.343
15503W        W82571  30.532  20.138   3.648
15504W        W82572   0.313   6.211   2.288
15505W        W82573   9.369   0.470   0.406
15506W        W82574  32.484  26.540   0.430
15507W        W82575   0.776  18.589  14.866
15508W        W82576  14.301   9.248  14.993
15509W        W82577   0.966  26.958   4.707
15510W        W82578   7.276  27.050   3.319
15511W        W82579  39.048   0.399  13.973
15512W        W82580  34.026  17.170   0.424
15513W        W82581  34.589  14.813  13.490
15514W        W82582  22.247  22.646  14.328
15515W        W82583  33.967  26.514  14.910
15516W        W82584  38.059  26.181  11.404
15517W        W82585  14.165  13.202   0.942
15518W        W82586   9.372  25.183  10.030
15519W        W82587  30.145  43.962  10.986
15520W        W82588  39.943  37.376   4.787
15521W        W82589  32.464  27.587   2.870
15522W        W82590   7.346   3.294   0.817
15523W        W82591  34.451  44.410  13.532
15524W        W82592  14.823  34.978  12.909
15525W        W82593  23.187  28.154  12.021
15526W        W82594  28.085  15.697   0.286
15527W        W82595  26.120  13.276   4.712
15528W        W82596  14.819   8.376   4.143
15529W        W82597  27.171  22.099  12.026
15530W        W82598   8.298   4.928   4.130
15531W        W82599  24.497  35.566   0.371
15532W        W82600  16.698  14.104   4.688
15533W        W82601  41.428  13.235   2.206
15534W        W82602   2.912  26.969   2.224
15535W        W82603  44.326  20.116  11.002
15536W        W82604  39.816   8.262   0.477
15537W        W82605   0.943  11.239  13.875
15538W        W82606   6.208   3.332   4.166
15539W        W82607  37.878  20.043   1.271
15540W        W82608  31.900   5.272  14.815
15541W        W82609  35.106   4.324   1.756
15542W        W82610  34.602   8.693  11.375
15543W        W82611  11.683  38.849   0.796
15544W        W82612  17.128  10.280  11.935
15545W        W82613  22.724  38.930  11.981
15546W        W82614  36.865  41.498  13.360
15547W        W82615  41.817  22.608   2.776
15548W        W82616   5.899  43.857   4.822
15549W        W82617  19.208   6.892   4.766
15550W        W82618   5.709   5.281   4.244
15551W        W82619  39.048  17.764   1.841
15552W        W82620   3.357   6.341   5.228
15553W        W82621  35.007   9.361   4.603
15554W        W82622  13.632  41.027  13.952
15555W        W82623  43.361  16.147   4.642
15556W        W82624  42.282  15.646  11.610
15557W        W82625  21.242  11.229   1.335
15558W        W82626  32.043  28.609   1.267
15559W        W82627  38.893  22.096   2.311
15560W        W82628   6.812  40.908   2.414
15561W        W82629  37.349   1.940   2.777
15562W        W82630  43.824  21.570  11.579
15563W        W82631  28.442   2.763   3.358
15564W        W82632   6.883  30.621   2.244
15565W        W82633  29.589  17.214   0.296
15566W        W82634  29.489  33.936   1.404
15567W        W82635  17.702   5.773  11.995
15568W        W82636  21.644  23.674  10.474
15569W        W82637  27.026  24.568   4.643
15570W        W82638   5.317  35.897   0.252
15571W        W82639  40.497  34.028   2.213
15572W        W82640  11.364   1.379  13.048
15573W        W82641  15.801  19.055  10.586
15574W        W82642  41.536   4.700  11.071
15575W        W82643  32.554  19.776   2.723
15576W        W82644  16.782  21.106   2.273
15577W        W82645  37.060  31.935  11.014
15578W        W82646  21.134  41.858   3.711
15579W        W82647   1.439   9.306   0.292
15580W        W82648   9.389   1.250   2.830
15581W        W82649  44.954  17.754  12.060
15582W        W82650  21.146   2.455  12.848
15583W        W82651  36.033  10.331   3.299
15584W        W82652   8.687  25.621   2.804
15585W        W82653  20.202  21.026  11.570
15586W        W82654  25.519  10.339  10.505
15587W        W82655  44.968   5.407  12.556
15588W        W82656   5.386  19.082   1.211
15589W        W82657  27.135  29.485  11.548
15590W        W82658   1.871  39.377   3.301
15591W        W82659  44.766   1.738  12.012
15592W        W82660  13.131   6.797   4.691
15593W        W82661   9.169  32.612   2.889
15594W        W82662  33.108  36.036  12.093
15595W        W82663  36.078  22.229   1.849
15596W        W82664   4.769   4.937   5.099
15597W        W82665  31.644  39.935   3.183
15598W        W82666  35.600  25.649  10.461
15599W        W82667   8.821  38.050  11.898
15600W        W82668   5.246   3.741   0.359
15601W        W82669  10.216  24.710   3.375
15602W        W82670  44.402  37.881  11.556
15603W        W82671  35.567  18.144   4.807
15604W        W82672  25.493  39.827   0.862
15605W        W82673  42.435  23.122   0.379
15606W        W82674  28.534  19.131  12.473
15607W        W82675  36.033  22.996  12.441
15608W        W82676  44.006  14.829   4.352
15609W        W82677  37.366   1.937  12.355
15610W        W82678  11.129  17.217   4.230
15611W        W82679  42.385  29.927   3.180
15612W        W82680  38.836   5.268   3.360
15613W        W82681  30.983   7.668   4.116
15614W        W82682  38.541  31.083  13.922
15615W        W82683  39.846   3.879   2.670
15616W        W82684  13.114  22.618   4.160
15617W        W82685  23.149  20.727   2.290
15618W        W82686  20.248  28.620   0.827
15619W        W82687  25.995  26.085   4.622
15620W        W82688  12.688  22.106  11.018
15621W        W82689  27.084  32.395  13.527
15622W        W82690  38.561  37.957   1.309
15623W        W82691  34.390  10.851   0.864
15624W        W82692   2.465   8.174   0.729
15625W        W82693   0.897  19.773   5.317
15626W        W82694   4.833   5.240   1.721
15627W        W82695  29.166  21.530   4.691
15628W        W82696  14.134   9.766  11.936
15629W        W82697  35.030  43.908  12.544
15630W        W82698  43.769  21.723   4.337
15631W        W82699   0.865  31.982  11.952
15632W        W82700  41.537  18.765  13.479
15633W        W82701  16.293  34.099   3.723
15634W        W82702  21.705  30.450  10.923
15635W        W82703  43.472  20.260   4.184
15636W        W82704  31.442   7.859   3.329
15637W        W82705  23.603  11.322   0.939
15638W        W82706  39.350  31.628  12.055
15639W        W82707  43.977  38.350  13.492
15640W        W82708  30.419  13.293  15.000
15641W        W82709  42.335  43.832   0.887
15642W        W82710  42.421   1.754  14.302
15643W        W82711  19.281  10.682   2.866
15644W        W82712  39.009  24.676   0.764
15645W        W82713  15.600  17.174   0.387
15646W        W82714  32.453  22.049  14.298
15647W        W82715  39.515  28.070   0.805
15648W        W82716  22.653  39.885  12.396
15649W        W82717  13.268  34.878   1.295
15650W        W82718  27.082  30.569  11.581
15651W        W82719   8.239   1.879   0.875
15652W        W82720  21.169   4.806   5.151
15653W        W82721  41.348  16.616  11.054
15654W        W82722  11.639   4.275   1.877
15655W        W82723  12.354  33.442   0.368
15656W        W82724   4.243  34.119   0.905
15657W        W82725  21.661  33.624  10.898
15658W        W82726  17.094   7.691  12.531
15659W        W82727  41.842   5.436   1.364
15660W        W82728  31.611   4.876   1.728
15661W        W82729  22.162   1.892   0.381
15662W        W82730  26.174  22.730  12.886
15663W        W82731  20.763  16.757  12.530
15664W        W82732   6.882   3.733   0.834
15665W        W82733  21.756  41.518   0.272
15666W        W82734   4.312  16.748  14.966
15667W        W82735  43.977  27.595  14.009
15668W        W82736  25.685  38.854   2.789
15669W        W82737  26.536  13.235  13.415
15670W        W82738   9.209  42.832   0.890
15671W        W82739  12.175  16.678  11.550
15672W        W82740  28.609  22.191   1.359
15673W        W82741  24.167  10.664  11.897
15674W        W82742  21.557  41.470  14.379
15675W        W82743  18.207  31.027   1.923
15676W        W82744  13.339  30.125  13.982
15677W        W82745   7.876  16.192   3.357
15678W        W82746   3.287  16.605  13.386
15679W        W82747  11.687  30.523   3.154
15680W        W82748  28.985  14.116   2.671
15681W        W82749  36.369  39.990   0.304
15682W        W82750  34.529  27.051   4.113
15683W        W82751  37.380  34.112   2.843
15684W        W82752  20.522   2.431  13.932
15685W        W82753  24.156  10.231   0.847
15686W        W82754  35.085  33.475   2.760
15687W        W82755  21.650  24.485  12.049
15688W        W82756  29.086  33.005   3.346
15689W        W82757   9.150  44.355  11.118
15690W        W82758   4.937  24.557  14.861
15691W        W82759   4.909  26.113  11.446
15692W        W82760  42.908  18.143  13.318
15693W        W82761  33.492   0.260  12.432
15694W        W82762  28.066  20.611   3.694
15695W        W82763  40.503  30.473   1.302
15696W        W82764  14.805  15.268   1.390
15697W        W82765  15.801  26.625   4.710
15698W        W82766   5.924  37.581  14.863
15699W        W82767   2.472   0.883   1.282
15700W        W82768  16.190  42.490  13.419
15701W        W82769  41.349  15.615  13.804
15702W        W82770   4.211  40.911  14.777
15703W        W82771  27.508  34.867   3.153
15704W        W82772  30.458  23.501   3.292
15705W        W82773  21.640  19.085   0.772
15706W        W82774   2.270  35.035   2.830
15707W        W82775  40.009  19.701  12.053
15708W        W82776  31.005  33.935   0.471
15709W        W82777  18.703  12.169   0.452
15710W        W82778  20.047   2.461  14.434
15711W        W82779  33.435   0.296   0.952
15712W        W82780  11.668  31.990   4.260
15713W        W82781   9.889   7.408  14.849
15714W        W82782  25.554  16.226  11.028
15715W        W82783  21.749  27.652  12.344
15716W        W82784  18.051  20.734  14.291
15717W        W82785  38.566  27.670   2.823
15718W        W82786   1.748  18.061  11.538
15719W        W82787  17.203  39.961   2.750
15720W        W82788   1.361   8.791  13.806
15721W        W82789  43.909  26.964   0.770
15722W        W82790  39.863  28.570  10.478
15723W        W82791  42.857  21.526  14.785
15724W        W82792  39.867  28.485   3.202
15725W        W82793  23.696  25.642   4.307
15726W        W82794  12.237   6.698   2.779
15727W        W82795  11.352   2.759  13.427
15728W        W82796  29.042   5.251  12.064
15729W        W82797  39.401  14.128   4.669
15730W        W82798   0.950   0.844  13.944
15731W        W82799  28.974  28.590   3.766
15732W        W82800  41.304  32.116  14.410
15733W        W82801  15.666  38.541  10.549
15734W        W82802   4.711   5.387   4.299
15735W        W82803  12.161   9.671   0.426
15736W        W82804   0.271  20.102   0.832
15737W        W82805   2.878   3.944   4.337
15738W        W82806  28.018  16.136  14.368
15739W        W82807  32.037  21.088   2.745
15740W        W82808  13.661   6.231  11.582
15741W        W82809  29.948  34.099  14.767
15742W        W82810  39.019   0.770   3.643
15743W        W82811  38.947  14.325   9.971
15744W        W82812  42.854  16.566   0.277
15745W        W82813  11.836  34.880  12.034
15746W        W82814  31.504  14.194   4.211
15747W        W82815  41.980  24.046   4.638
15748W        W82816  38.922  40.420  13.397
15749W        W82817  36.479  12.825   9.965
15750W        W82818  20.757  41.026   3.171
15751W        W82819  28.630   3.876  13.828
15752W        W82820  18.631  37.043  11.512
15753W        W82821  20.747   1.335   0.263
15754W        W82822   8.810  24.605  10.942
15755W        W82823   1.862  34.024   3.265
15756W        W82824   0.902  42.867   1.291
15757W        W82825  16.224  40.341  10.155
15758W        W82826  39.918  25.618  12.384
15759W        W82827  12.352  27.660   4.779
15760W        W82828  30.006  23.068   1.931
15761W        W82829  30.907   1.306   2.687
15762W        W82830  33.035   3.944   1.724
15763W        W82831   3.876   8.719  10.099
15764W        W82832  37.985  36.974   4.773
15765W        W82833  32.954   6.694   0.428
15766W        W82834   9.158  27.070   1.250
15767W        W82835  15.323  15.622  13.870
15768W        W82836  12.754  24.040   0.264
15769W        W82837  32.982   9.646  14.516
15770W        W82838   3.291  34.889   5.110
15771W        W82839  30.990   7.332  12.053
15772W        W82840  28.067  12.208   9.930
15773W        W82841  19.241  35.410   0.783
15774W        W82842   1.331  27.545   3.226
15775W        W82843   0.823   8.324   1.450
15776W        W82844  21.082   5.753  10.069
15777W        W82845  40.440  19.113  14.944
15778W        W82846  43.814  30.617   2.390
15779W        W82847  18.613  29.090  12.895
15780W        W82848   8.346  21.735  12.520
15781W        W82849  17.284  40.406  13.854
15782W        W82850  12.126   4.229   1.835
15783W        W82851  32.138  35.513   0.944
15784W        W82852  17.084  36.366   0.776
15785W        W82853   0.888  36.052   5.293
15786W        W82854  23.129  32.441  11.923
15787W        W82855  35.976   7.224   1.391
15788W        W82856  11.336  22.658   3.154
15789W        W82857  34.032   2.765  11.914
15790W        W82858  22.659  42.418   0.429
15791W        W82859  35.084  37.935  14.297
15792W        W82860  22.037  11.666   2.777
15793W        W82861  10.355  24.114   4.344
15794W        W82862  31.906  33.422   1.451
15795W        W82863  43.278  41.499   1.261
15796W        W82864   7.299  12.838   0.728
15797W        W82865  28.515   5.910  13.801
15798W        W82866  15.195   7.740  12.026
15799W        W82867   2.272  42.302  13.418
15800W        W82868  39.931   6.790   4.154
15801W        W82869   9.750  12.822  10.443
15802W        W82870  39.876  40.390  10.903
15803W        W82871   7.856   7.338   9.926
15804W        W82872  16.630  36.391   4.287
15805W        W82873  25.178  18.771   4.753
15806W        W82874  25.159  23.042   0.411
15807W        W82875  31.567  27.570   3.728
15808W        W82876  38.524  12.856   1.428
15809W        W82877   2.399  31.093  14.880
15810W        W82878   3.830  37.894  14.405
15811W        W82879  21.678  20.713   1.336
15812W        W82880  32.425   1.416  11.432
15813W        W82881   3.415  36.367   0.340
15814W        W82882  14.615  37.475   2.403
15815W        W82883  30.930   4.395   2.233
15816W        W82884   3.452  23.065   3.298
15817W        W82885  16.073  38.943  11.608
15818W        W82886   5.382  41.451  13.446
15819W        W82887  40.437  22.160   1.361
15820W        W82888  16.211  35.536  12.527
15821W        W82889   0.389  42.891  12.572
15822W        W82890  26.531  28.576  10.431
15823W        W82891  20.111  43.997  12.524
15824W        W82892  10.247  30.001   2.378
15825W        W82893  42.864  10.365   2.883
15826W        W82894  36.888  41.953  12.923
15827W        W82895  35.486  30.556  12.360
15828W        W82896  21.191  18.090   2.861
15829W        W82897   0.378  34.605   2.230
15830W        W82898  43.978   8.227  14.850
15831W        W82899  10.773  24.630  12.971
15832W        W82900  33.430  11.705   4.276
15833W        W82901  12.199  15.132   1.711
15834W        W82902  36.869  14.311  13.361
15835W        W82903  11.201   0.831   1.444
15836W        W82904  29.175  17.132  10.990
15837W        W82905  28.681  32.970  13.011
15838W        W82906  11.808  31.103   4.226
15839W        W82907  32.121  10.750  14.028
15840W        W82908   1.332   5.875  13.453
15841W        W82909  13.638  11.191  13.900
15842W        W82910  40.549   9.647  14.401
15843W        W82911  20.031  22.585  14.309
15844W        W82912  15.314   8.246   3.184
15845W        W82913  22.533  17.282  11.539
15846W        W82914   3.303  31.989   5.091
15847W        W82915  29.155  38.891   3.269
15848W        W82916  43.334  41.497  10.891
15849W        W82917  36.862  15.598  14.375
15850W        W82918  20.051  32.535  12.346
15851W        W82919  41.520  16.164   1.789
15852W        W82920  15.147   5.424  12.054
15853W        W82921  37.849  29.918   1.212
15854W        W82922   5.307  40.438   3.241
15855W        W82923   6.854  30.101   4.698
15856W        W82924   3.824  40.990  10.463
15857W        W82925   2.275  34.606  11.984
15858W        W82926  23.115  23.679  13.065
15859W        W82927   0.410  18.662   0.448
15860W        W82928   5.897  25.492   2.739
15861W        W82929  24.671  11.846   3.846
15862W        W82930  15.227  33.433   4.335
15863W        W82931  22.602  40.334  10.039
15864W        W82932  12.243  18.648   2.295
15865W        W82933  15.286  19.075   1.929
15866W        W82934   2.230  26.518   3.170
15867W        W82935   8.312   2.901   2.695
15868W        W82936  35.919  32.541   1.720
15869W        W82937   0.268   7.823  13.033
15870W        W82938   2.799   8.251   2.902
15871W        W82939  29.077  41.003   2.406
15872W        W82940  18.645  16.588   2.404
15873W        W82941  11.290  33.120  13.341
15874W        W82942  12.617   2.326  11.997
15875W        W82943  33.415  19.269  12.934
15876W        W82944  36.886  44.867  11.950
15877W        W82945  14.694  31.080   2.794
15878W        W82946   9.709   4.937   4.716
15879W        W82947  15.810  11.630   1.369
15880W        W82948  22.541  26.686   0.954
15881W        W82949   0.342  18.141   4.733
15882W        W82950   2.455  39.991   4.264
15883W        W82951  32.525   4.796   2.251
15884W        W82952  45.000  30.112   4.147
15885W        W82953  42.319  42.468  13.827
15886W        W82954   3.415  41.502   1.775
15887W        W82955  13.211  32.954   3.658
15888W        W82956   4.710  25.973  10.943
15889W        W82957  41.497   7.711  11.539
15890W        W82958   4.366  35.368  10.573
15891W        W82959  12.666  27.595   3.255
15892W        W82960  32.568  40.534  10.614
15893W        W82961  15.692  33.111  12.841
15894W        W82962  12.202  27.530  13.008
15895W        W82963  17.630  24.528  14.491
15896W        W82964  30.086  43.979   1.785
15897W        W82965   3.720   0.325  13.456
15898W        W82966  30.140  35.947  13.449
15899W        W82967  14.788   4.849   1.813
15900W        W82968  44.329  31.564   4.740
15901W        W82969   7.267  37.400   2.698
15902W        W82970  22.706  16.207   3.780
15903W        W82971  15.083  28.508   0.872
15904W        W82972  12.784  22.228  14.932
15905W        W82973   2.830  21.125  14.018
15906W        W82974  19.053  32.039   0.259
15907W        W82975   8.697  44.320   4.183
15908W        W82976   6.291   2.763  11.556
15909W        W82977  22.252  17.284  12.407
15910W        W82978  24.194  19.678   0.467
15911W        W82979  19.586  39.864   2.178
15912W        W82980  30.584  22.035   4.310
15913W        W82981  13.256  28.588   1.421
15914W        W82982  12.123  29.483   2.258
15915W        W82983  41.507   7.684   3.814
15916W        W82984   5.410  20.144  11.999
15917W        W82985   7.370  28.535  12.916
15918W        W82986  43.977  14.095  14.819
15919W        W82987   8.261  22.057  10.447
15920W        W82988  37.887  20.264   2.877
15921W        W82989  37.927   4.767  10.967
15922W        W82990  31.970   9.865  13.952
15923W        W82991  18.552  20.046  11.073
15924W        W82992  17.213  18.060   3.161
15925W        W82993  18.584   6.762  13.497
15926W        W82994  20.261  14.226  11.560
15927W        W82995  31.042   3.329   4.301
15928W        W82996   0.958  16.271   3.287
15929W        W82997  11.353  37.400  13.502
15930W        W82998  39.808  39.454  13.844
15931W        W82999  41.013  19.050   4.257
15932W        W83000  22.128  20.742   1.698
15933W        W83001  13.344  26.986   2.689
15934W        W83002  15.254  35.595   2.417
15935W        W83003   7.413   6.744  12.344
15936W        W83004   2.399  11.771  11.997
15937W        W83005   0.446  43.767  11.047
15938W        W83006  42.874  42.505   4.663
15939W        W83007  33.610  22.098  11.425
15940W        W83008  28.577  31.497   5.141
15941W        W83009   5.391  19.626   3.270
15942W        W83010   2.883  18.055   0.445
15943W        W83011  30.461  31.033  10.432
15944W        W83012  24.517  40.873  11.962
15945W        W83013  30.025  24.645   5.176
15946W        W83014  27.488   9.720   0.341
15947W        W83015  42.421   3.298   4.628
15948W        W83016  40.449  38.375   1.343
15949W        W83017  25.603  10.175  14.327
15950W        W83018  39.849  15.693   1.229
15951W        W83019  25.102  40.386  13.422
15952W        W83020  20.243   6.346  11.599
15953W        W83021  37.975   1.295  11.574
15954W        W83022  17.192   8.288  12.570
15955W        W83023  44.883   0.315  12.071
15956W        W83024  20.062  15.788  10.913
15957W        W83025  25.111  36.993  10.548
15958W        W83026  42.330   9.295   2.342
15959W        W83027  41.873  40.043  11.955
15960W        W83028  18.226  34.103  10.936
15961W        W83029   2.454  18.682  10.601
15962W        W83030  43.980  34.433   3.381
15963W        W83031   1.961  24.094   4.181
15964W        W83032  33.479  35.943   5.294
15965W        W83033   6.872  20.572   9.970
15966W        W83034  44.349  41.788   4.240
15967W        W83035  26.090  27.585   0.905
15968W        W83036  14.108  16.128   3.145
15969W        W83037  15.217  33.094   4.136
15970W        W83038  12.333  13.146  13.055
15971W        W83039  26.458  13.729  12.849
15972W        W83040   9.851  38.997   2.325
15973W        W83041  41.446   5.408  13.940
15974W        W83042  32.007  19.167   4.814
15975W        W83043  41.532  37.006  12.971
15976W        W83044   8.231   3.869   4.673
15977W        W83045  25.575  17.575   4.133
15978W        W83046  33.491   8.874  13.930
15979W        W83047   4.312  42.453   0.273
15980W        W83048  36.035   1.853   0.836
15981W        W83049  24.201  32.614  14.974
15982W        W83050   0.912  24.724  14.994
15983W        W83051   1.452  38.350  12.831
15984W        W83052  18.725  33.536   5.279
15985W        W83053  31.575  32.441  11.043
15986W        W83054  36.033  32.527   0.923
15987W        W83055   8.727  14.146   1.411
15988W        W83056  38.018  39.000   4.712
15989W        W83057  40.961   8.245  14.911
15990W        W83058   1.411  16.568   1.869
15991W        W83059  42.829  22.729   5.258
15992W        W83060  25.623  33.999   4.159
15993W        W83061  26.997   2.882  13.448
15994W        W83062  25.980  31.508   2.735
15995W        W83063  25.054  15.611  13.002
15996W        W83064  19.207   0.978   4.677
15997W        W83065  23.645  24.027  12.898
15998W        W83066   9.739  31.003  10.964
15999W        W83067   2.263  23.565   3.784
16000W        W83068   6.718  36.481   0.750
16001W        W83069  10.375  33.106  12.477
16002W        W83070  10.238  13.804  12.512
16003W        W83071  16.694  21.744   1.775
16004W        W83072   4.811   6.860   1.345
16005W        W83073  40.824  40.819   4.808
16006W        W83074  34.585  44.394  11.577
16007W        W83075   3.836  15.760   3.369
16008W        W83076  17.793  25.645   0.743
16009W        W83077   1.918  43.290  12.439
16010W        W83078  31.526   0.775   2.757
16011W        W83079  20.108  16.808  13.842
16012W        W83080  36.535  41.516   2.847
16013W        W83081  44.916  24.723  13.390
16014W        W83082  39.876  26.546  10.989
16015W        W83083  12.266  32.566   3.640
16016W        W83084  29.171   6.419  13.472
16017W        W83085  42.022   1.976  14.909
16018W        W83086   4.420  16.163  10.620
16019W        W83087  30.126  29.027  10.535
16020W        W83088  13.208   7.364   5.105
16021W        W83089  15.217  32.888  13.499
16022W        W83090  26.636  37.853  14.922
16023W        W83091  37.028  22.043   2.197
16024W        W83092  17.657   9.275   1.774
16025W        W83093   6.270  22.594   5.166
16026W        W83094  26.174  26.533   2.231
16027W        W83095  26.693  25.537   2.837
16028W        W83096  12.147  35.956   0.250
16029W        W83097  31.479   9.157   4.338
16030W        W83098  23.101   0.285  12.517
16031W        W83099  41.346  18.646   0.409
16032W        W83100  23.163  44.405  14.762
16033W        W83101  23.178  31.562  11.557
16034W        W83102  36.081  27.507   2.712
16035W        W83103  29.106  19.065   4.162
16036W        W83104  36.091  40.419   1.378
16037W        W83105   4.219  20.695  14.955
16038W        W83106  12.729  38.545  13.802
16039W        W83107  10.153  39.065   0.764
16040W        W83108  27.472  25.564  12.405
16041W        W83109  21.611  20.044  14.832
16042W        W83110  38.914  18.115  13.064
16043W        W83111   2.747  42.384   4.184
16044W        W83112  16.265  22.587   0.391
16045W        W83113  36.912  13.173   3.769
16046W        W83114   3.951  28.992   1.435
16047W        W83115  29.121  30.539  11.905
16048W        W83116   3.310  13.776   0.943
16049W        W83117  26.077   4.362   4.706
16050W        W83118  27.140   6.207  10.476
16051W        W83119  36.938   6.746  14.831
16052W        W83120  10.232  33.911   0.878
16053W        W83121  24.143  18.637  14.866
16054W        W83122   5.217  14.214   2.273
16055W        W83123  10.341  32.030  11.046
16056W        W83124   4.924   8.166  14.765
16057W        W83125  39.401  36.564  14.827
16058W        W83126  41.406  36.412  11.500
16059W        W83127  12.853  32.538   3.688
16060W        W83128  22.727  31.027  11.507
16061W        W83129  39.525  19.683   0.886
16062W        W83130   5.340  31.976  11.500
16063W        W83131  21.561  36.014  11.467
16064W        W83132  44.759  32.962   3.166
16065W        W83133  27.078  18.696  12.922
16066W        W83134  40.315  14.308   2.723
16067W        W83135  31.590  43.333  14.330
16068W        W83136  44.404  37.517   2.846
16069W        W83137  17.664  28.522   3.203
16070W        W83138  15.658  40.309   4.711
16071W        W83139   6.719  41.900   2.302
16072W        W83140  20.629  17.226  14.978
16073W        W83141  33.523  37.476   3.177
16074W        W83142  12.116  26.168  13.825
16075W        W83143  43.876  40.019  10.904
16076W        W83144  14.678  31.999  14.493
16077W        W83145   7.834  34.107   1.421
16078W        W83146  32.999  20.222   1.375
16079W        W83147  31.905   7.861  14.990
16080W        W83148  13.745  11.168  11.525
16081W        W83149  15.632  11.180  12.951
16082W        W83150  16.600  18.669   1.396
16083W        W83151   5.259  18.621  14.275
16084W        W83152   1.861   4.256  12.468
16085W        W83153  44.476   9.276   4.129
16086W        W83154  33.383  24.197  11.905
16087W        W83155  27.179   8.684  13.936
16088W        W83156   7.869  19.276   2.187
16089W        W83157  33.902  11.205   0.769
16090W        W83158  17.065  44.326   4.293
16091W        W83159  28.559   4.313  14.891
16092W        W83160  42.776  44.893  12.044
16093W        W83161  19.670  38.984   2.418
16094W        W83162  37.424  31.004   1.758
16095W        W83163  40.005  27.530   0.869
16096W        W83164  21.241   9.385  10.535
16097W        W83165  22.204  26.052  13.441
16098W        W83166  22.526   9.357  11.591
16099W        W83167  31.935  37.840   3.217
16100W        W83168  29.574   3.265   3.866
16101W        W83169   4.387  29.479  14.340
16102W        W83170  22.621  25.482   2.717
16103W        W83171  43.507  20.232  12.386
16104W        W83172  10.776  37.420   2.219
16105W        W83173  22.157  23.985   1.886
16106W        W83174  14.791   5.226  13.412
16107W        W83175   8.253  39.439   2.897
16108W        W83176  26.562  14.730   2.371
16109W        W83177   9.689  41.481   3.768
16110W        W83178  21.044   2.842   5.218
16111W        W83179  32.435  31.462   3.373
16112W        W83180  32.405  13.171   2.214
16113W        W83181   3.925  40.363   3.209
16114W        W83182   5.727  25.988  12.901
16115W        W83183  42.399  36.571   3.840
16116W        W83184  34.380   7.232  10.976
16117W        W83185  14.299  27.090   3.229
16118W        W83186   9.731  36.425  12.480
16119W        W83187  43.996  31.438   2.237
16120W        W83188  26.099   7.887   4.666
16121W        W83189  41.316  26.544   4.681
16122W        W83190   5.209  44.418  13.414
16123W        W83191  23.540  38.394  13.029
16124W        W83192   1.259   4.799   4.344
16125W        W83193  21.749  31.010  14.818
16126W        W83194  42.513  27.084   4.781
16127W        W83195   8.876  16.218   2.775
16128W        W83196  43.999  37.890   0.310
16129W        W83197  42.955  20.753  11.431
16130W        W83198  33.015  20.255   3.169
16131W        W83199  34.092  26.677   9.980
16132W        W83200  28.611  33.568   2.323
16133W        W83201  37.038  24.687  14.505
16134W        W83202  26.075  10.167  10.415
16135W        W83203  23.220  43.462   1.893
16136W        W83204  44.335  38.907   1.754
16137W        W83205   1.383  34.949   2.368
16138W        W83206  23.087  36.848  14.314
16139W        W83207  20.716  24.192   2.857
16140W        W83208  17.069  40.368  15.000
16141W        W83209  28.962   2.757   4.181
16142W        W83210  26.148   4.271   2.702
16143W        W83211  32.900  27.959  12.501
16144W        W83212   1.370  11.657  11.996
16145W        W83213  41.849  35.433  11.859
16146W        W83214  21.545   0.786  13.826
16147W        W83215   0.848  24.136   2.325
16148W        W83216   4.841  29.491  12.884
16149W        W83217  14.218  22.039  10.504
16150W        W83218   8.303  25.016   3.309
16151W        W83219  29.498   5.411   2.223
16152W        W83220  29.975  13.816   4.835
16153W        W83221  22.599  42.779   1.831
16154W        W83222  21.022  15.605   3.271
16155W        W83223  33.470  29.580   4.619
16156W        W83224  30.017  24.722  13.507
16157W        W83225  42.463  16.135   1.901
16158W        W83226  22.646  37.075  10.459
16159W        W83227  23.170  11.222  14.004
16160W        W83228  21.589  10.196   2.187
16161W        W83229   7.808  20.131  12.565
16162W        W83230   6.345  43.885  11.883
16163W        W83231  30.553  44.425   4.805
16164W        W83232  44.818  15.273  14.944
16165W        W83233   7.199  15.154   0.480
16166W        W83234  30.974  15.219   2.793
16167W        W83235  14.720   1.398  14.508
16168W        W83236  29.473  13.323   9.966
16169W        W83237   6.243  14.613  14.012
16170W        W83238  28.155  22.143   4.659
16171W        W83239  18.716   2.824  11.041
16172W        W83240   3.247  29.106   4.647
16173W        W83241   6.711  32.139  10.628
16174W        W83242  37.831   3.952  13.537
16175W        W83243   7.311  27.613   1.356
16176W        W83244  20.161  33.003   1.361
16177W        W83245   6.767  34.985  12.934
16178W        W83246  36.390  31.597   1.418
16179W        W83247   7.865  32.966  14.290
16180W        W83248   3.735   8.270  14.993
16181W        W83249   2.431  11.725  14.952
16182W        W83250   6.417   9.281  13.026
16183W        W83251  21.020  11.636  14.797
16184W        W83252   0.455  24.157   3.157
16185W        W83253   8.768  37.373   4.180
16186W        W83254  24.657   0.747  11.550
16187W        W83255  36.991  44.384  14.440
16188W        W83256  39.910  37.484   3.220
16189W        W83257  24.109  18.204   2.897
16190W        W83258  41.925  44.787  12.877
16191W        W83259  25.469  20.728   4.758
16192W        W83260  24.534  19.245  13.483
16193W        W83261   8.399  11.794  11.564
16194W        W83262  12.737  22.111  13.000
16195W        W83263  38.522   5.346  12.885
16196W        W83264  11.157  34.467   3.663
16197W        W83265   4.806  33.039  10.973
16198W        W83266  35.992  38.440   1.696
16199W        W83267  39.555   7.826   1.291
16200W        W83268  21.145  18.073   1.834
16201W        W83269   5.243  10.197  13.906
16202W        W83270  17.634  37.446   2.290
16203W        W83271  40.853  17.086   3.217
16204W        W83272  41.989  26.572  11.001
16205W        W83273  27.186  14.672   2.221
16206W        W83274  32.989   8.754  14.874
16207W        W83275  16.808  23.525  14.001
16208W        W83276  29.087   2.340   4.800
16209W        W83277  14.268  12.346  14.908
16210W        W83278  17.614  35.491   4.779
16211W        W83279  42.381  33.440  13.382
16212W        W83280  16.093  18.176  11.591
16213W        W83281  25.193  20.541  11.093
16214W        W83282  29.561  39.955   1.785
16215W        W83283  13.802   2.936   1.439
16216W        W83284   1.919   7.755   3.760
16217W        W83285   3.453  41.880   3.349
16218W        W83286  42.995  15.588   0.818
16219W        W83287  37.414  28.980  12.968
16220W        W83288  38.903   6.336   2.288
16221W        W83289  18.615  17.631   0.250
16222W        W83290   2.761  26.484   4.722
16223W        W83291   1.969  12.710  14.820
16224W        W83292  35.584  20.216   3.651
16225W        W83293  36.474   8.777   2.261
16226W        W83294  21.098   7.725   2.328
16227W        W83295   9.369  41.918  11.894
16228W        W83296  17.778  16.799  10.640
16229W        W83297  26.636  26.149   4.161
16230W        W83298  30.625  33.910   1.406
16231W        W83299  33.877   0.845  13.404
16232W        W83300  38.408   8.308  14.454
16233W        W83301  19.553  10.189   1.784
16234W        W83302  43.399  20.236   0.377
16235W        W83303  21.067  36.390  10.914
16236W        W83304  38.983  22.552  14.015
16237W        W83305  24.541  36.943   1.820
16238W        W83306  29.074  18.093   4.655
16239W        W83307  10.284  36.385   5.170
16240W        W83308  31.619  35.424  14.360
16241W        W83309  35.905  44.355   0.728
16242W        W83310  29.553  39.412  14.424
16243W        W83311  27.005   1.475  11.952
16244W        W83312  41.787  11.141  12.853
16245W        W83313   5.756  16.692   0.857
16246W        W83314  39.351  40.519   2.787
16247W        W83315  23.058  10.365  13.886
16248W        W83316  23.167  43.940   4.767
16249W        W83317  36.885   3.870   4.680
16250W        W83318  31.416  42.524   0.800
16251W        W83319  22.681  39.401   0.270
16252W        W83320  21.147   7.384   3.641
16253W        W83321  32.967  38.510  12.501
16254W        W83322  27.615  13.311   1.744
16255W        W83323  19.189  23.734  11.379
16256W        W83324   0.767  34.962  11.037
16257W        W83325   5.283  15.760   2.369
16258W        W83326  24.526  24.616  13.996
16259W        W83327  34.480  38.881  10.493
16260W        W83328  41.303   2.732  12.401
16261W        W83329  14.671   1.374   0.962
16262W        W83330  13.252  15.761   3.149
16263W        W83331   7.857  22.746  10.118
16264W        W83332  40.362  24.668   2.679
16265W        W83333  43.775  22.019   1.898
16266W        W83334  16.154  37.950  12.954
16267W        W83335  43.889  21.677  14.353
16268W        W83336  42.470  34.483  13.385
16269W        W83337   0.398  35.563  11.089
16270W        W83338  27.547  13.320  11.971
16271W        W83339  18.106  23.027   3.860
16272W        W83340   7.329  14.262  14.342
16273W        W83341  10.679  33.421  11.556
16274W        W83342  44.375  22.012   3.710
16275W        W83343  36.564  24.130  10.899
16276W        W83344   9.688  30.477   0.405
16277W        W83345  13.336  38.957   3.178
16278W        W83346  18.677   1.868  12.931
16279W        W83347  10.816  40.427  14.833
16280W        W83348  19.078  21.613  14.021
16281W        W83349  20.048  11.682   9.931
16282W        W83350  25.997  21.062  14.484
16283W        W83351   8.383   8.238  13.006
16284W        W83352  28.007  11.786   2.342
16285W        W83353  44.006  37.427   1.351
16286W        W83354  14.623  21.537   4.734
16287W        W83355  12.260  23.492  12.448
16288W        W83356  35.394  10.856  11.404
16289W        W83357   7.715  20.745  13.949
16290W        W83358  34.609  14.705   3.869
16291W        W83359  24.711  26.638  13.440
16292W        W83360  31.012  13.795  13.055
16293W        W83361   7.811  44.426  12.856
16294W        W83362  16.608  12.696  12.019
16295W        W83363   2.441  34.878   0.831
16296W        W83364  43.809  14.709  11.561
16297W        W83365  31.119  41.423  10.484
16298W        W83366  19.571  18.698   1.277
16299W        W83367   6.234  32.427  14.857
16300W        W83368  28.120   2.835   3.247
16301W        W83369  16.604  23.081   1.400
16302W        W83370  18.593  10.234   5.115
16303W        W83371   8.750   3.339   2.831
16304W        W83372  44.397  21.166   1.408
16305W        W83373  34.101   7.904   4.652
16306W        W83374   5.744  18.783   2.187
16307W        W83375  19.270   7.765  11.954
16308W        W83376  43.975   4.445   1.790
16309W        W83377  15.612   2.334   1.892
16310W        W83378  17.738  35.511   3.261
16311W        W83379  16.096  26.158   3.639
16312W        W83380  23.552  15.160  13.803
16313W        W83381  27.995   5.283  11.385
16314W        W83382  23.675  36.468  13.871
16315W        W83383  19.220  11.648  11.106
16316W        W83384  21.670   5.355   4.180
16317W        W83385  18.290  31.518  12.372
16318W        W83386  24.027  21.560   2.179
16319W        W83387  29.548  26.996   2.715
16320W        W83388  13.297   9.337   0.729
16321W        W83389  26.692  27.686   1.401
16322W        W83390   8.661  40.305   3.184
16323W        W83391  40.831   4.282   1.439
16324W        W83392   6.358  24.173   1.263
16325W        W83393  10.364  17.663  11.945
16326W        W83394   9.814  21.070  10.423
16327W        W83395   9.348   6.310  11.908
16328W        W83396  17.130  22.685   2.827
16329W        W83397  21.561  26.040  13.383
16330W        W83398  26.193  37.975   0.922
16331W        W83399  29.971  27.029  13.324
16332W        W83400  24.612  44.344   2.728
16333W        W83401  15.218  10.344   2.280
16334W        W83402  26.022  14.638  11.528
16335W        W83403  36.959  40.436   2.719
16336W        W83404  12.240  25.087  12.917
16337W        W83405  42.976  18.730   1.873
16338W        W83406   7.829  22.131   0.358
16339W        W83407  36.458  40.960  13.956
16340W        W83408  22.219  23.996  11.420
16341W        W83409   6.753  43.358   0.297
16342W        W83410  34.537  33.449   0.479
16343W        W83411   5.420  39.357   2.340
16344W        W83412  42.017  19.767  11.563
16345W        W83413  20.114  32.403  13.334
16346W        W83414  27.685  37.434  14.926
16347W        W83415   3.247  26.514  14.781
16348W        W83416  43.285  36.495   4.697
16349W        W83417  11.647  32.528  10.133
16350W        W83418  16.274  39.319   4.796
16351W        W83419  19.077   1.476   2.259
16352W        W83420  39.445  26.564  12.345
16353W        W83421  39.970  18.634   3.312
16354W        W83422  44.360  29.004  10.903
16355W        W83423  11.796  26.035  10.484
16356W        W83424  19.599  25.496   2.889
16357W        W83425  18.149  11.251  13.830
16358W        W83426  29.590   9.751  10.509
16359W        W83427  41.398  34.433   0.928
16360W        W83428  13.190  24.028  14.944
16361W        W83429  16.276  21.735   2.307
16362W        W83430  11.718  38.001  14.840
16363W        W83431  31.142   5.898  12.368
16364W        W83432  17.740   3.770   0.297
16365W        W83433  25.622  44.342  13.541
16366W        W83434  26.499  19.094   1.357
16367W        W83435   0.408   6.872   3.289
16368W        W83436   3.403  25.085  12.365
16369W        W83437  15.706  35.424   4.192
16370W        W83438  31.036   8.359  10.981
16371W        W83439  37.478  41.856  13.927
16372W        W83440  23.142  36.968  13.370
16373W        W83441  35.476  26.084   0.964
16374W        W83442  19.220  38.031  12.921
16375W        W83443  18.150   3.396   1.378
16376W        W83444  12.695   1.860  10.590
16377W        W83445  44.757  14.282  13.804
16378W        W83446  18.151  11.218  12.972
16379W        W83447  15.083  20.212  12.028
16380W        W83448  35.991  31.108  11.882
16381W        W83449  37.858  32.028  13.528
16382W        W83450  27.067  30.435   2.732
16383W        W83451  27.056  22.172  14.312
16384W        W83452  20.689  38.547  10.499
16385W        W83453  32.028   7.293   3.689
16386W        W83454  19.721  39.363  12.993
16387W        W83455  19.606   0.950   3.314
16388W        W83456  10.276   4.382   3.776
16389W        W83457  13.688  10.650  13.335
16390W        W83458  11.147  37.960   1.342
16391W        W83459   5.388  26.078   1.802
16392W        W83460   9.774  15.648   4.152
16393W        W83461  18.550  11.663  12.979
16394W        W83462  22.242  34.540  11.599
16395W        W83463  43.766  39.544  11.924
16396W        W83464   4.393  38.861   1.401
16397W        W83465  12.278  13.631   1.250
16398W        W83466  18.747   0.424  13.831
16399W        W83467  30.043  23.663   2.801
16400W        W83468   4.287  28.660   2.312
16401W        W83469  36.484  23.159   4.171
16402W        W83470  12.772  21.542  13.990
16403W        W83471  38.898   7.218   0.425
16404W        W83472  20.637  34.589  12.080
16405W        W83473   8.301  11.199  10.891
16406W        W83474   4.863  21.586   0.355
16407W        W83475  10.265  11.301  10.015
16408W        W83476  30.084  39.511   4.166
16409W        W83477   0.419  44.439  11.495
16410W        W83478  20.213   5.210  11.066
16411W        W83479  38.511  42.970  12.054
16412W        W83480  37.407  37.901  14.278
16413W        W83481  27.518  31.461  12.562
16414W        W83482  18.596  38.048  14.999
16415W        W83483  15.102  39.883   1.404
16416W        W83484   9.210  40.805   2.186
16417W        W83485  38.531  11.270  12.881
16418W        W83486  37.534   1.307   0.431
16419W        W83487  16.656  14.235  10.421
16420W        W83488  21.745   4.895  12.444
16421W        W83489  19.147  34.098   0.886
16422W        W83490  32.608  41.489   1.807
16423W        W83491  37.916  16.652  13.415
16424W        W83492  10.693  30.504   3.651
16425W        W83493  27.536  31.528   0.746
16426W        W83494  12.820  12.254   0.440
16427W        W83495  28.492  27.008   3.752
16428W        W83496   2.954  24.088   3.184
16429W        W83497  20.221  42.869  13.510
16430W        W83498  38.877  32.510   2.370
16431W        W83499  15.197   1.298  12.368
16432W        W83500  27.026  16.309   1.389
16433W        W83501  27.177  12.127  11.079
16434W        W83502  12.335   1.318  13.374
16435W        W83503  27.119  20.572  12.520
16436W        W83504  34.405  37.519  12.925
16437W        W83505  16.590  37.544   4.232
16438W        W83506  14.704  15.237   4.193
16439W        W83507  39.544  25.179  10.975
16440W        W83508   3.284   6.379   1.783
16441W        W83509  12.752  13.752  14.970
16442W        W83510  16.613  24.544   0.791
16443W        W83511  15.713  35.023   3.380
16444W        W83512   2.803   0.339  14.303
16445W        W83513  26.028  23.051   0.352
16446W        W83514  24.217  41.820   1.237
16447W        W83515  31.447   4.226   0.467
16448W        W83516  40.818  20.589  14.391
16449W        W83517  41.945   6.923  12.975
16450W        W83518  22.695  29.057  14.828
16451W        W83519  16.603   9.216   3.723
16452W        W83520  19.066  11.166   0.329
16453W        W83521  14.810  18.130  13.044
16454W        W83522  17.292  44.266  13.002
16455W        W83523  15.325  44.388   3.716
16456W        W83524   5.818  39.538  10.888
16457W        W83525  16.251  43.852   3.191
16458W        W83526  21.179  35.966   3.317
16459W        W83527  18.161  23.179  14.772
16460W        W83528  32.415  11.243   2.374
16461W        W83529  44.475  43.981  13.004
16462W        W83530   1.860   7.710  11.502
16463W        W83531   4.297  30.421  13.422
16464W        W83532   3.262   2.856  12.539
16465W        W83533  22.728  17.729  12.342
16466W        W83534  37.869  25.536  14.280
16467W        W83535   5.236  37.485  10.066
16468W        W83536  10.670   9.315  11.964
16469W        W83537  44.265  40.036   0.300
16470W        W83538  33.559  28.550   2.236
16471W        W83539  18.768  12.316   2.811
16472W        W83540  36.008   4.898  12.843
16473W        W83541   1.740  40.507   1.385
16474W        W83542  14.181  32.454   2.245
16475W        W83543   0.900  10.695   2.183
16476W        W83544  18.193  42.301  13.314
16477W        W83545  42.870  14.339   1.767
16478W        W83546   8.202  43.020  13.514
16479W        W83547  33.416   0.838   3.212
16480W        W83548  32.466  32.081   2.303
16481W        W83549  41.814  22.669   1.387
16482W        W83550   2.405  39.465   4.689
16483W        W83551   8.821  44.445  11.001
16484W        W83552  36.012  24.614  12.829
16485W        W83553  21.577  19.601   2.752
16486W        W83554  18.640  18.066  13.034
16487W        W83555  14.705  40.904  14.483
16488W        W83556  25.704  23.192  11.513
16489W        W83557  27.510   6.777  13.378
16490W        W83558  26.040  33.624   2.294
16491W        W83559   6.840  22.525  13.814
16492W        W83560  11.133  18.111  14.389
16493W        W83561  14.132   2.400   5.224
16494W        W83562   7.194  12.184  14.902
16495W        W83563  18.661  34.541  11.581
16496W        W83564  20.209  39.360  12.962
16497W        W83565  15.324  38.346  13.915
16498W        W83566  14.271  16.303   2.298
16499W        W83567  40.464  39.901  10.583
16500W        W83568   6.687  15.815  11.855
16501W        W83569  34.593  24.061   0.431
16502W        W83570   5.925  36.500  11.892
16503W        W83571  25.644  35.106  14.497
16504W        W83572  15.754  40.004   1.784
16505W        W83573   8.883  14.814   0.381
16506W        W83574  37.981   7.703   4.694
16507W        W83575   7.319  11.281   1.345
16508W        W83576  32.573  18.098   5.318
16509W        W83577  20.222  39.475  11.014
16510W        W83578   5.209  19.205   2.238
16511W        W83579   9.740  19.179  13.366
16512W        W83580  42.812   6.768  13.376
16513W        W83581  12.833   7.831   0.926
16514W        W83582  29.107   3.799  13.006
16515W        W83583  14.340  28.163  13.318
16516W        W83584  24.649  31.555  12.031
16517W        W83585  38.424  12.310  12.451
16518W        W83586  21.135   8.323  11.478
16519W        W83587  24.654  32.996  13.319
16520W        W83588  42.835  13.120   3.866
16521W        W83589  39.814  31.401   3.707
16522W        W83590  15.630  21.143  14.927
16523W        W83591  42.780  29.459  12.958
16524W        W83592  14.138  34.493   3.664
16525W        W83593  41.801  14.330   5.148
16526W        W83594   1.965  37.997  12.475
16527W        W83595  28.123   4.813   2.696
16528W        W83596  35.410  25.543  14.785
16529W        W83597  42.347  12.271  13.386
16530W        W83598  35.087  37.407  12.432
16531W        W83599  24.498  44.326  10.440
16532W        W83600  25.523  40.986  14.835
16533W        W83601  24.111  37.072   4.674
16534W        W83602   0.261  18.785  11.949
16535W        W83603  11.259   6.280  13.476
16536W        W83604  19.765  15.232   4.296
16537W        W83605   4.719  41.350   0.308
16538W        W83606  28.563  34.515   2.396
16539W        W83607   1.455  32.048  12.389
16540W        W83608  15.148  19.211   4.689
16541W        W83609  16.810  33.434  10.531
16542W        W83610  41.822  37.882   3.247
16543W        W83611  35.419  32.959   0.395
16544W        W83612  36.009  11.134  14.856
16545W        W83613  35.053  16.258   4.250
16546W        W83614   3.761   5.354   1.731
16547W        W83615  13.687  18.136  12.549
16548W        W83616  12.816  10.311   4.638
16549W        W83617   6.428  12.133  12.972
16550W        W83618  26.970  34.498   5.145
16551W        W83619   5.305   2.348   2.283
16552W        W83620  42.384  13.601   3.146
16553W        W83621  39.944  10.340   1.315
16554W        W83622  20.092   5.728   4.289
16555W        W83623  38.549  21.741  13.327
16556W        W83624  15.594  27.041   4.261
16557W        W83625  17.136  29.594  14.933
16558W        W83626  30.446  25.075  14.899
16559W        W83627  40.325  27.176  13.470
16560W        W83628  12.334  26.060  11.448
16561W        W83629   1.775  44.430   0.312
16562W        W83630  12.218  22.661  12.879
16563W        W83631  43.488  32.572  10.485
16564W        W83632  28.592  27.944   3.806
16565W        W83633  17.572  35.382   2.328
16566W        W83634   5.720  12.629   4.743
16567W        W83635  30.161  41.489   3.159
16568W        W83636  17.601  15.776  10.979
16569W        W83637   1.799  33.532   3.256
16570W        W83638   3.284  29.054  14.382
16571W        W83639  16.258  10.315   3.268
16572W        W83640  33.584  14.777   0.263
16573W        W83641  25.576  28.643   0.421
16574W        W83642  44.448   0.882  12.552
16575W        W83643   2.430  16.721  11.374
16576W        W83644   4.427  21.747  13.428
16577W        W83645   7.810  38.499   3.649
16578W        W83646  32.588   4.937   1.838
16579W        W83647   3.948  11.729   1.721
16580W        W83648  14.206  28.452   3.660
16581W        W83649   7.307  18.069  12.040
16582W        W83650   2.385  25.207   3.715
16583W        W83651  21.077   2.785   0.826
16584W        W83652  44.925  22.171   3.769
16585W        W83653  12.811  35.539   2.835
16586W        W83654  31.031  20.685  12.391
16587W        W83655  23.126  19.147  14.904
16588W        W83656  12.652  19.572   0.393
16589W        W83657   0.464  44.930   1.911
16590W        W83658  26.552   1.374   4.120
16591W        W83659  34.989  12.666  10.020
16592W        W83660  35.493  35.863  10.407
16593W        W83661   4.714  22.230   4.161
16594W        W83662  37.865  25.169  14.906
16595W        W83663  20.253  13.267   3.328
16596W        W83664  31.508  31.631   4.261
16597W        W83665  14.331  10.187  13.540
16598W        W83666  27.466   4.220  12.414
16599W        W83667  15.300  14.634   0.463
16600W        W83668  34.486  11.753  11.408
16601W        W83669  37.017  11.635   2.259
16602W        W83670  43.305  19.197   2.873
16603W        W83671  13.162  17.719  14.811
16604W        W83672  33.423  39.830   3.347
16605W        W83673  43.479   7.308   4.350
16606W        W83674   8.718   1.933  13.438
16607W        W83675   2.792  10.877   2.844
16608W        W83676  32.565   3.232   0.910
16609W        W83677  38.008   8.830  13.319
16610W        W83678  41.971  41.845   3.187
16611W        W83679  25.689   0.777  12.871
16612W        W83680   6.784   2.421   0.758
16613W        W83681  30.576  26.500  12.416
16614W        W83682   0.919  35.090  13.994
16615W        W83683  23.654  37.497  12.455
16616W        W83684   5.763  34.570   1.245
16617W        W83685  21.020  26.585  12.481
16618W        W83686  28.665   1.298  11.430
16619W        W83687  32.889  44.860   4.744
16620W        W83688  24.671  30.155  10.917
16621W        W83689  20.579  21.633   4.777
16622W        W83690  35.463  23.110  14.289
16623W        W83691   8.370  25.032   1.773
16624W        W83692   1.758  44.838   2.196
16625W        W83693   4.938  31.992  11.437
16626W        W83694  13.129   2.809  14.009
16627W        W83695  20.571   5.693  12.531
16628W        W83696  28.672   9.180   0.878
16629W        W83697   6.695   7.186   0.380
16630W        W83698  27.678  30.928  11.405
16631W        W83699  19.738  41.354  10.614
16632W        W83700  30.469  41.441  10.545
16633W        W83701  38.485  34.406   1.397
16634W        W83702  43.881  36.038   4.170
16635W        W83703  37.010  41.528  14.388
16636W        W83704  12.726   1.285   1.375
16637W        W83705   3.282  38.069  12.834
16638W        W83706  32.924  44.378  10.517
16639W        W83707  22.588  41.876  12.065
16640W        W83708  13.664  40.437  11.016
16641W        W83709   1.354  39.314   3.321
16642W        W83710  44.976   8.728  12.041
16643W        W83711  20.760  19.759   0.906
16644W        W83712  21.130  40.813   3.289
16645W        W83713  24.197  16.762  13.850
16646W        W83714   7.717  34.533  11.109
16647W        W83715  14.306  25.149   3.325
16648W        W83716  44.987  11.166   1.268
16649W        W83717   3.721  24.995  10.922
16650W        W83718  34.083  31.412  11.374
16651W        W83719  27.102  16.695   0.743
16652W        W83720  10.238   6.211  11.449
16653W        W83721   7.253  11.289  14.031
16654W        W83722  42.944  14.150  14.020
16655W        W83723   4.241  12.148   2.764
16656W        W83724  44.973   4.890   3.331
16657W        W83725  37.382   0.929   3.823
16658W        W83726  44.331  15.786   1.262
16659W        W83727   7.710   2.377   2.308
16660W        W83728  29.001  39.386   4.748
16661W        W83729   6.724  30.161  12.391
16662W        W83730   5.793  19.226  11.386
16663W        W83731  35.572  36.078   3.794
16664W        W83732   5.232  14.791  14.274
16665W        W83733   8.678  24.047  12.824
16666W        W83734   0.973  29.664  10.510
16667W        W83735   0.398  43.492  12.089
16668W        W83736   1.392  11.835  10.956
16669W        W83737  31.954  43.447  10.627
16670W        W83738  34.934  15.640  13.497
16671W        W83739  32.556  22.064   4.769
16672W        W83740  34.867  28.013   1.218
16673W        W83741  33.475  23.588   0.473
16674W        W83742  20.693  17.070  13.845
16675W        W83743   2.377  33.542   1.434
16676W        W83744   8.303  21.567   3.785
16677W        W83745  41.928  11.778   3.792
16678W        W83746  23.096  35.510  14.761
16679W        W83747  31.078  44.385  12.880
16680W        W83748  11.697  13.286  12.064
16681W        W83749  16.647  40.376  12.875
16682W        W83750  23.534  36.021   4.611
16683W        W83751  17.731  35.057  12.987
16684W        W83752   9.661  21.174   0.794
16685W        W83753   0.777  21.567   0.825
16686W        W83754  24.596  22.708   0.830
16687W        W83755  35.006  35.996   1.739
16688W        W83756   9.373  12.613   2.669
16689W        W83757  33.613   4.224  13.368
16690W        W83758  33.619  11.370   4.139
16691W        W83759  41.518  44.425  11.501
16692W        W83760  13.248   6.395   3.358
16693W        W83761  30.561  35.420   3.743
16694W        W83762  29.591   3.250   1.432
16695W        W83763   1.880  11.283  11.081
16696W        W83764   3.856   6.350   0.864
16697W        W83765  25.120  19.777  14.931
16698W        W83766  16.779  41.459   0.958
16699W        W83767  37.966  23.679  12.975
16700W        W83768  40.399  13.117  11.494
16701W        W83769  12.615  35.491  13.349
16702W        W83770  25.157  10.676   4.297
16703W        W83771  19.536  24.672  14.841
16704W        W83772  27.138  39.444   1.257
16705W        W83773  38.042  18.116   4.341
16706W        W83774   1.263  31.480   4.142
16707W        W83775   5.812  16.192   4.125
16708W        W83776  38.903  29.652   1.226
16709W        W83777   5.727  35.540   4.304
16710W        W83778  24.513  33.497  10.033
16711W        W83779  17.152  30.475   4.708
16712W        W83780  35.866  30.970  11.458
16713W        W83781  26.096  30.097  14.286
16714W        W83782  44.390  23.591   2.796
16715W        W83783  33.411  41.993  10.946
16716W        W83784  44.936  22.217   2.728
16717W        W83785  37.946  29.132  13.397
16718W        W83786   3.455  22.080   4.127
16719W        W83787  18.106  19.712   2.269
16720W        W83788  24.534  41.330   1.869
16721W        W83789  44.312   9.238   4.727
16722W        W83790  24.076  38.894   2.294
16723W        W83791  39.023  28.543  11.548
16724W        W83792  34.576  16.216   1.856
16725W        W83793  24.676   4.739  14.813
16726W        W83794  30.024  15.686   1.881
16727W        W83795  25.475  27.545  13.541
16728W        W83796  44.832  17.717   3.336
16729W        W83797  23.081  15.668  10.541
16730W        W83798   6.238  21.610  12.569
16731W        W83799  31.638  44.817   0.349
16732W        W83800  20.623  12.261   0.889
16733W        W83801  40.421  26.983  10.601
16734W        W83802   1.841   5.747   1.874
16735W        W83803  10.690  43.456  11.389
16736W        W83804   4.228  11.167  12.992
16737W        W83805   1.803   9.307  12.957
16738W        W83806  16.189  15.759   0.885
16739W        W83807  19.238  42.378  14.433
16740W        W83808  36.389  40.320  13.053
16741W        W83809  13.218  35.921  11.381
16742W        W83810  25.071  11.672  13.932
16743W        W83811  15.087  24.002  12.466
16744W        W83812  42.939  16.709  10.538
16745W        W83813   5.262  15.739  13.807
16746W        W83814   5.750  12.220  12.068
16747W        W83815  21.684   3.914   0.465
16748W        W83816   1.966   2.320   1.727
16749W        W83817  16.706  14.827   3.769
16750W        W83818   1.766  38.932   3.368
16751W        W83819  32.549  43.324  12.346
16752W        W83820  25.057  17.602   4.331
16753W        W83821  39.367  38.009  12.553
16754W        W83822  28.472  25.159   4.191
16755W        W83823  34.928   8.784  13.906
16756W        W83824  13.223   1.819  11.437
16757W        W83825  41.858  34.014   3.266
16758W        W83826  22.175  27.098  13.428
16759W        W83827  25.132  29.536   4.734
16760W        W83828  26.683  17.157   1.281
16761W        W83829  19.221  24.991  12.967
16762W        W83830  39.455  20.715  12.502
16763W        W83831   9.845  27.504   0.780
16764W        W83832   1.799  22.731   2.194
16765W        W83833   8.327  26.471  13.516
16766W        W83834   7.832  18.255   0.765
16767W        W83835   5.695  32.888  14.807
16768W        W83836  44.872  12.646  14.511
16769W        W83837  31.070  33.007  10.950
16770W        W83838  28.011   7.709   1.363
16771W        W83839  40.360   1.927  14.771
16772W        W83840   2.907  42.327  12.895
16773W        W83841  15.260   1.957  12.554
16774W        W83842  12.628   8.790  11.905
16775W        W83843  35.582  40.914   3.725
16776W        W83844  41.820  12.692  12.451
16777W        W83845  37.988  38.417  14.765
16778W        W83846   1.924  32.007   3.782
16779W        W83847  14.143  23.108  12.412
16780W        W83848  27.536  27.596  14.775
16781W        W83849  16.602  37.852  10.406
16782W        W83850  35.401  34.447   2.829
16783W        W83851  20.587  23.670   4.815
16784W        W83852  13.241  26.034  13.495
16785W        W83853   2.344  39.900  14.447
16786W        W83854  14.776  41.487  10.530
16787W        W83855  28.999  32.592  10.544
16788W        W83856  16.310  42.780  11.454
16789W        W83857  20.595  34.574  14.288
16790W        W83858   3.763  11.143  12.419
16791W        W83859  43.460  31.962  13.396
16792W        W83860  40.825   4.926   3.269
16793W        W83861  35.507   6.233   4.173
16794W        W83862   4.875   6.394   2.297
16795W        W83863   0.273   3.330   1.217
16796W        W83864  12.743   4.334   3.153
16797W        W83865  11.177  41.336   0.423
16798W        W83866   6.763   9.873   4.636
16799W        W83867  33.975  23.545  13.354
16800W        W83868   6.678  37.059   2.827
16801W        W83869   7.731   0.267  13.920
16802W        W83870  44.309  40.496   4.678
16803W        W83871  42.370  20.591  13.961
16804W        W83872   7.815   8.752   4.128
16805W        W83873  12.117  19.644   3.275
16806W        W83874  39.504  19.107   0.413
16807W        W83875  42.812  15.749   3.712
16808W        W83876  42.442  39.031  14.294
16809W        W83877  40.800  20.651   0.846
16810W        W83878  20.156   4.225   2.189
16811W        W83879  32.436  23.186  10.473
16812W        W83880  39.061   9.659   1.320
16813W        W83881  19.274  17.561   2.232
16814W        W83882  25.694   5.748  12.088
16815W        W83883   4.772  10.808  13.489
16816W        W83884  15.616  39.417  12.977
16817W        W83885  42.442  21.123   1.370
16818W        W83886  26.116   8.249  12.491
16819W        W83887   6.724   9.824  14.770
16820W        W83888  19.104  19.226  12.946
16821W        W83889  21.587   5.741  12.949
16822W        W83890  20.597  16.130   2.796
16823W        W83891  17.676   2.877   1.858
16824W        W83892   0.886  40.015  13.346
16825W        W83893  15.182  44.863  12.925
16826W        W83894  27.643  22.094   4.185
16827W        W83895  44.948   5.423  11.962
16828W        W83896  43.859  32.551  14.876
16829W        W83897  21.650   4.289  14.789
16830W        W83898  20.086  11.294   3.683
16831W        W83899   3.218  14.715  10.462
16832W        W83900  35.082  26.028  14.463
16833W        W83901  40.921   4.402   1.820
16834W        W83902  26.094  43.983  13.325
16835W        W83903  29.966  15.747  13.920
16836W        W83904  36.452  17.089   0.905
16837W        W83905  32.481  39.059   0.810
16838W        W83906  16.270   4.698  10.985
16839W        W83907  29.529   6.866   0.925
16840W        W83908  43.866  43.772  12.420
16841W        W83909  41.841  31.473  12.952
16842W        W83910   1.448  40.832   3.646
16843W        W83911  30.517  12.811   2.230
16844W        W83912  33.584   6.419   4.658
16845W        W83913  39.447  40.346   4.135
16846W        W83914  41.908  40.015  11.121
16847W        W83915   1.750  29.597   0.385
16848W        W83916  19.099  42.444  13.385
16849W        W83917  33.466  11.699  12.837
16850W        W83918   0.744  26.545  10.606
16851W        W83919  28.976   8.341  13.492
16852W        W83920  31.021  41.466   4.729
16853W        W83921  15.659  44.819   4.352
16854W        W83922  34.085  42.514   3.796
16855W        W83923  21.757  15.650  10.940
16856W        W83924  24.713   2.315  10.984
16857W        W83925  36.921  24.974  13.472
16858W        W83926   7.382  36.536   3.173
16859W        W83927  13.276  40.408   2.398
16860W        W83928  24.721  14.780  13.802
16861W        W83929  36.982  19.599   0.358
16862W        W83930   9.690  32.438   1.302
16863W        W83931  39.056  39.032   0.268
16864W        W83932  13.754   9.283  11.386
16865W        W83933   5.238  10.856  13.442
16866W        W83934  24.128  29.516   3.149
16867W        W83935  32.631  15.295   9.985
16868W        W83936  34.991  27.579  13.906
16869W        W83937  27.999   6.348   1.217
16870W        W83938  31.564  16.771  12.890
16871W        W83939  21.029   7.784  14.887
16872W        W83940  43.939   9.831  14.830
16873W        W83941   3.295  34.891  11.088
16874W        W83942   7.668   8.252   3.777
16875W        W83943  37.894  25.663   4.269
16876W        W83944   6.425  15.682  11.433
16877W        W83945  22.613  38.019  11.573
16878W        W83946  38.463  34.918  14.925
16879W        W83947   1.958  19.624  12.384
16880W        W83948   9.323  36.537  11.460
16881W        W83949  22.530  26.145   0.787
16882W        W83950  24.631   2.805   4.654
16883W        W83951  16.755  21.634  13.423
16884W        W83952   2.799   4.883   2.265
16885W        W83953   9.792   8.694   4.646
16886W        W83954  39.489  21.519   4.302
16887W        W83955  34.980  38.886   5.190
16888W        W83956  42.961  18.079  13.894
16889W        W83957  24.576  11.237  12.018
16890W        W83958  36.366  26.492   4.228
16891W        W83959  33.411  11.647  12.440
16892W        W83960  16.093  18.660  12.891
16893W        W83961  40.919  21.580   2.777
16894W        W83962   5.848   4.427  14.775
16895W        W83963  28.130  20.745   2.279
16896W        W83964  28.987  36.845  13.952
16897W        W83965  17.621  35.942   4.185
16898W        W83966   2.916  40.303  13.867
16899W        W83967  39.882   0.297  12.931
16900W        W83968  43.804   8.688   4.666
16901W        W83969  28.440  42.820  12.843
16902W        W83970  31.559  14.605  11.993
16903W        W83971  22.544   2.883  13.439
16904W        W83972  39.886  40.511  11.904
16905W        W83973  23.709  27.656  10.594
16906W        W83974  14.750  35.434   0.252
16907W        W83975  37.540  11.697   1.270
16908W        W83976  17.780  15.706   4.797
16909W        W83977  34.583  23.494  14.327
16910W        W83978  39.407   0.460   1.284
16911W        W83979   7.869  34.394  11.999
16912W        W83980  33.893  31.474   1.298
16913W        W83981   3.841  34.887   4.140
16914W        W83982  17.108  41.990   0.889
16915W        W83983   6.288  18.269   2.327
16916W        W83984   3.763   4.891  13.507
16917W        W83985  31.091   3.348  10.113
16918W        W83986  17.616   5.422  12.957
16919W        W83987  37.071  23.003   0.918
16920W        W83988  41.978  10.269   1.286
16921W        W83989   6.852   0.748   0.820
16922W        W83990  37.895  28.610  14.326
16923W        W83991   9.179   0.875   9.982
16924W        W83992  25.666  21.059   2.838
16925W        W83993  37.841  37.414   1.899
16926W        W83994  21.555  40.445  11.877
16927W        W83995   1.763  32.625   0.314
16928W        W83996  29.567  11.302  11.550
16929W        W83997   6.224  29.923  14.891
16930W        W83998  22.199  33.883  13.822
16931W        W83999   2.761  15.166  13.032
16932W        W84000   4.302  22.029   2.668
16933W        W84001  27.551  31.141   3.633
16934W        W84002  44.313   4.913  10.029
16935W        W84003   0.966  17.735   0.929
16936W        W84004   1.312   8.301   4.689
16937W        W84005  23.016  19.142  11.891
16938W        W84006   4.815  34.963  11.429
16939W        W84007  44.797  21.201   3.846
16940W        W84008  35.899   2.831   1.776
16941W        W84009  15.584  42.492   3.196
16942W        W84010   9.329  34.458   4.337
16943W        W84011   9.306  15.608   3.817
16944W        W84012  35.957  21.566   3.696
16945W        W84013  42.365   3.909   3.312
16946W        W84014  19.173  38.531  13.548
16947W        W84015  41.016  10.706   3.740
16948W        W84016   8.895  22.566   3.863
16949W        W84017  44.824  24.191   4.295
16950W        W84018  36.982  11.677  12.944
16951W        W84019  43.871  17.611   1.916
16952W        W84020   2.886  14.117  14.320
16953W        W84021   8.279  39.887  11.448
16954W        W84022  22.702  37.943  10.949
16955W        W84023  37.879  33.025  10.903
16956W        W84024   4.793  35.943  12.958
16957W        W84025  10.856  23.639   4.329
16958W        W84026  17.249  30.552   2.268
16959W        W84027  38.400  39.990  14.875
16960W        W84028  21.117  19.603   3.327
16961W        W84029  22.704  25.645  10.409
16962W        W84030  44.896  39.516  12.434
16963W        W84031  20.260  19.570   4.258
16964W        W84032  13.614  39.892  13.894
16965W        W84033  33.420  38.986  14.292
16966W        W84034  16.211   9.175  13.465
16967W        W84035   4.255  40.798  11.523
16968W        W84036  23.128  39.376   0.261
16969W        W84037   8.668  14.623  11.393
16970W        W84038  33.935  30.461   0.443
16971W        W84039  22.707  27.464  13.366
16972W        W84040  11.320  42.900  12.574
16973W        W84041  32.478  23.603  12.993
16974W        W84042   9.854  23.562  14.998
16975W        W84043  36.405   7.321   3.692
16976W        W84044  24.723   8.820   1.213
16977W        W84045  16.648   0.895  14.972
16978W        W84046  37.540  23.498  14.937
16979W        W84047  31.955  37.935   5.133
16980W        W84048  13.256  10.857   0.835
16981W        W84049  42.519   4.899  12.569
16982W        W84050  32.587  20.606  14.405
16983W        W84051  10.737   1.973   0.939
16984W        W84052   4.862  21.611  11.432
16985W        W84053  27.183  15.816   0.831
16986W        W84054   3.875  39.473   3.765
16987W        W84055  38.938  33.026   2.878
16988W        W84056  23.986  30.547  14.931
16989W        W84057  37.079   9.780   3.276
16990W        W84058   6.782  14.147  11.953
16991W        W84059  32.515  28.463  10.913
16992W        W84060   7.799  21.124  11.896
16993W        W84061  37.495   0.364  13.805
16994W        W84062  34.503  24.500  14.846
16995W        W84063  21.085   1.854  14.770
16996W        W84064   8.200  29.522  13.960
16997W        W84065  37.984   5.336   3.726
16998W        W84066  39.046  28.626  13.869
16999W        W84067  33.542  30.642  14.458
17000W        W84068   4.781  40.393  13.429
17001W        W84069  35.412  22.702  12.991
17002W        W84070  14.726   2.858  10.506
17003W        W84071  14.799  11.639  11.466
17004W        W84072  29.025  10.213   1.317
17005W        W84073  27.085  25.142   3.777
17006W        W84074  35.555  25.632   3.327
17007W        W84075  31.455  38.566   1.833
17008W        W84076   8.283  42.993   2.777
17009W        W84077  26.501  23.498  11.438
17010W        W84078   0.462  26.505   3.660
17011W        W84079   3.429   9.332   4.262
17012W        W84080  27.465   2.740  11.403
17013W        W84081   9.236  41.794   4.832
17014W        W84082  23.513  29.639  13.804
17015W        W84083  31.622  40.814  12.390
17016W        W84084  23.002  40.873   0.357
17017W        W84085   8.266  28.669   3.328
17018W        W84086  30.561  25.967   2.875
17019W        W84087  34.885   6.365   0.877
17020W        W84088  26.549  12.816   3.681
17021W        W84089  30.014  15.274  11.044
17022W        W84090  14.186  39.915  10.466
17023W        W84091   0.370  20.763  14.875
17024W        W84092   4.279  18.219  10.914
17025W        W84093  41.870  11.643  12.475
17026W        W84094  27.513  23.492   1.280
17027W        W84095  40.483  42.016   4.823
17028W        W84096   9.773  20.244  12.012
17029W        W84097  16.789  26.984  13.945
17030W        W84098  12.358  44.414   1.269
17031W        W84099  33.086   8.737   2.772
17032W        W84100  16.151  40.349  13.860
17033W        W84101   5.427  26.680  13.992
17034W        W84102  23.059   2.323   2.366
17035W        W84103  17.294  36.085  12.044
17036W        W84104  34.023   3.267  14.900
17037W        W84105   4.838   1.307  12.943
17038W        W84106  21.732  13.611   1.905
17039W        W84107   4.343  20.157   0.853
17040W        W84108  16.191  16.161   0.768
17041W        W84109  40.811  36.067   3.349
17042W        W84110  28.456  27.148  13.854
17043W        W84111  34.032   9.222   2.192
17044W        W84112  19.638  41.326   1.809
17045W        W84113  39.885  12.142   3.364
17046W        W84114   1.841  11.143   0.789
17047W        W84115  28.127  42.835  13.934
17048W        W84116   7.874   8.197  12.957
17049W        W84117  25.625  35.385   1.251
17050W        W84118  21.155   6.868  10.435
17051W        W84119  42.972   0.447  12.536
17052W        W84120  37.958  26.606   2.874
17053W        W84121  31.504  12.209   2.258
17054W        W84122  24.005  40.835  11.436
17055W        W84123  32.476   6.701  13.040
17056W        W84124  41.933  44.281   1.323
17057W        W84125  32.567  41.954  11.071
17058W        W84126  29.992  43.386  11.065
17059W        W84127  30.518  28.620  12.060
17060W        W84128   3.855   2.810   2.400
17061W        W84129  23.052  12.185   2.691
17062W        W84130  40.874  13.290  13.502
17063W        W84131  32.976  10.316  14.514
17064W        W84132  15.269  16.663   4.152
17065W        W84133  41.429  30.148  12.366
17066W        W84134  22.628   4.362  10.538
17067W        W84135  35.072  20.176   2.285
17068W        W84136  22.619   7.900  11.517
17069W        W84137   3.809  33.001   0.942
17070W        W84138  10.280  13.770  10.485
17071W        W84139   7.251   7.677   3.844
17072W        W84140  32.628  10.740  14.400
17073W        W84141  44.782   7.887  13.397
17074W        W84142  26.963  35.540   2.242
17075W        W84143  23.569  41.912  14.995
17076W        W84144  33.118  21.754  13.828
17077W        W84145  16.768   2.285  10.536
17078W        W84146  34.957   1.798   2.804
17079W        W84147  26.683   4.232   5.220
17080W        W84148   0.294  32.011  12.969
17081W        W84149  35.431  35.066   1.738
17082W        W84150  32.462  22.036   1.800
17083W        W84151  19.208  33.076   1.870
17084W        W84152  41.414   4.252   2.282
17085W        W84153  17.201   3.729   4.214
17086W        W84154   5.798   6.220  14.278
17087W        W84155  21.086  35.602  11.107
17088W        W84156   5.382  37.019   1.343
17089W        W84157   0.404  30.625   0.730
17090W        W84158  41.321   4.841  12.498
17091W        W84159   0.835  24.092   4.314
17092W        W84160  33.020  11.785   3.325
17093W        W84161  34.973  34.942   5.083
17094W        W84162   6.778  42.857  11.585
17095W        W84163   5.202  26.694  13.029
17096W        W84164  30.463  30.656  11.951
17097W        W84165  28.055  43.764  11.511
17098W        W84166  29.050  28.451   3.151
17099W        W84167  30.565  39.507   0.780
17100W        W84168  11.686  30.929  12.545
17101W        W84169  19.604  24.629   4.703
17102W        W84170  19.265  21.748  11.397
17103W        W84171  29.989  30.625  11.119
17104W        W84172   0.879  19.624   3.329
17105W        W84173  41.362  11.636   1.319
17106W        W84174   6.418  20.562   0.911
17107W        W84175   9.757  34.068  13.953
17108W        W84176   4.339  17.577   4.761
17109W        W84177  35.983  35.030   3.763
17110W        W84178  20.685  23.510  10.541
17111W        W84179  38.019  17.270   1.256
17112W        W84180  24.656  20.561  13.446
17113W        W84181  28.451   9.182   1.287
17114W        W84182  12.276  43.316   2.253
17115W        W84183  22.243  20.211  10.996
17116W        W84184  15.232  29.439  12.891
17117W        W84185  23.622  43.972  12.860
17118W        W84186  23.516  40.452   0.769
17119W        W84187   9.210  16.662   1.278
17120W        W84188  36.955  15.153  14.823
17121W        W84189  31.641  20.716  13.828
17122W        W84190  44.858  31.470  13.476
17123W        W84191  31.614   7.273  12.496
17124W        W84192  34.005  39.840  13.976
17125W        W84193  24.526  37.438   3.712
17126W        W84194   3.346  26.617   2.717
17127W        W84195   0.788  40.329   4.700
17128W        W84196  41.913  39.502   2.284
17129W        W84197  15.736   9.363   0.926
17130W        W84198  15.310  22.010   2.179
17131W        W84199  37.499  22.629   5.142
17132W        W84200  25.577   3.247  12.073
17133W        W84201   5.834  43.430   3.382
17134W        W84202  27.668   0.983   4.666
17135W        W84203  12.132   8.397  14.430
17136W        W84204  21.604  15.611   2.188
17137W        W84205  43.325  36.873  13.045
17138W        W84206  28.470  42.841   1.751
17139W        W84207  26.172  28.464  11.876
17140W        W84208  24.556   4.892   2.261
17141W        W84209  22.241  35.046   4.247
17142W        W84210  43.410  27.573   4.349
17143W        W84211  23.702  30.926  13.934
17144W        W84212   8.192   7.261   3.750
17145W        W84213  32.560  16.656   1.256
17146W        W84214   8.358  26.971   0.786
17147W        W84215   7.383   0.264  13.518
17148W        W84216  30.155   1.294   2.202
17149W        W84217  11.268  32.130  13.544
17150W        W84218  33.897  34.543  14.397
17151W        W84219   6.318  39.863  14.005
17152W        W84220  33.879  25.025  14.897
17153W        W84221  44.999  11.761   4.606
17154W        W84222  24.006  27.561   1.778
17155W        W84223  14.287  15.199  14.983
17156W        W84224  33.125  24.704   9.533
17157W        W84225  28.442  34.019  11.033
17158W        W84226   1.408   6.729  12.496
17159W        W84227  33.895  21.089   9.960
17160W        W84228  34.483  20.236   1.728
17161W        W84229  18.203  38.326   4.201
17162W        W84230  13.177   0.777   2.391
17163W        W84231   0.761   1.461  13.484
17164W        W84232  27.975  44.758  14.997
17165W        W84233   1.244  10.326   1.706
17166W        W84234   3.729  12.116   2.829
17167W        W84235   0.313  19.631  11.027
17168W        W84236  23.007  21.190  14.466
17169W        W84237  14.306  42.334  10.495
17170W        W84238   9.888  30.489  12.523
17171W        W84239  44.979  42.873   0.426
17172W        W84240  44.261   4.913   3.746
17173W        W84241  21.064  39.964  13.815
17174W        W84242  32.913   2.263  13.365
17175W        W84243   2.946  32.487  13.904
17176W        W84244   2.906  21.087   0.376
17177W        W84245  22.665  28.085  10.405
17178W        W84246  27.110   8.184   0.952
17179W        W84247  37.024  28.932   2.868
17180W        W84248   5.259  44.333   3.642
17181W        W84249  38.992  33.550  13.910
17182W        W84250  13.704  23.522  11.932
17183W        W84251  21.544  31.931  10.017
17184W        W84252  36.925   1.837  13.931
17185W        W84253  32.618  14.117   0.255
17186W        W84254  27.037  42.426   3.358
17187W        W84255  19.560  23.088   1.750
17188W        W84256  39.922  21.543   0.856
17189W        W84257  23.991  38.505  14.818
17190W        W84258  35.560  16.603  12.957
17191W        W84259  10.763  30.032   2.853
17192W        W84260  14.729  44.888  10.498
17193W        W84261  40.356   0.311   9.934
17194W        W84262  31.585  37.062   4.650
17195W        W84263  12.261  34.071  11.978
17196W        W84264  21.646  28.681  10.460
17197W        W84265   3.858  25.481   1.429
17198W        W84266  40.427  20.598  14.904
17199W        W84267  24.104  43.438   3.305
17200W        W84268  24.050  41.954  14.357
17201W        W84269  38.538  30.602  13.444
17202W        W84270   7.766  38.959   0.450
17203W        W84271  15.813  17.259   4.792
17204W        W84272  24.681  13.241  13.312
17205W        W84273   9.372   3.342  12.870
17206W        W84274  26.552  43.425  10.571
17207W        W84275   7.865   0.482   0.413
17208W        W84276  22.252  27.451  12.901
17209W        W84277  44.302   2.246   0.332
17210W        W84278  34.095  13.732  12.057
17211W        W84279  33.091   8.840   5.172
17212W        W84280  21.659  41.358  12.956
17213W        W84281  22.506  29.966   1.387
17214W        W84282   4.773  23.203  14.786
17215W        W84283   9.735  41.532  11.398
17216W        W84284  32.590   9.262  12.906
17217W        W84285   7.670  30.580  14.777
17218W        W84286  17.580  27.169   3.777
17219W        W84287  22.649  20.137   2.743
17220W        W84288   1.810  32.536  14.346
17221W        W84289  35.988  35.508   0.747
17222W        W84290  33.454   9.767   4.693
17223W        W84291  14.131  29.024   2.260
17224W        W84292  22.147  24.047   0.907
17225W        W84293   4.276  14.123  12.345
17226W        W84294  16.149  20.558  12.575
17227W        W84295  32.585  40.408   4.139
17228W        W84296   4.821  38.877  12.484
17229W        W84297  44.485   5.434   3.763
17230W        W84298  21.678  34.943   4.316
17231W        W84299  12.173   8.882  10.423
17232W        W84300  43.369  33.983   0.385
17233W        W84301  31.030  15.724  11.498
17234W        W84302  32.916  16.193  14.378
17235W        W84303  27.089   1.888   1.315
17236W        W84304  34.061  36.367   0.791
17237W        W84305  40.813   3.419   1.741
17238W        W84306  25.075  31.491  13.840
17239W        W84307   6.745  14.212  10.547
17240W        W84308  14.721   3.792  14.840
17241W        W84309  28.170  18.214   4.249
17242W        W84310  20.078  29.602   1.238
17243W        W84311  35.044  37.579   4.257
17244W        W84312  24.974   7.879  14.294
17245W        W84313  43.915  24.660   2.788
17246W        W84314  36.873   8.668   1.303
17247W        W84315  16.219  11.650   3.353
17248W        W84316  35.371  34.945   4.774
17249W        W84317  36.508  17.175   9.945
17250W        W84318  29.153  23.615  12.086
17251W        W84319  27.636   0.265  13.453
17252W        W84320  44.503  24.671  13.541
17253W        W84321  41.824  37.888  11.456
17254W        W84322  39.496  36.054  14.302
17255W        W84323  13.311  13.297   3.741
17256W        W84324  20.701  10.651   3.744
17257W        W84325  15.769  19.681  14.977
17258W        W84326  22.557  39.810   1.807
17259W        W84327  19.656  44.942  11.054
17260W        W84328   4.739   0.448   0.462
17261W        W84329  32.406  34.903   1.403
17262W        W84330  39.493  27.158  14.457
17263W        W84331  27.538  35.041  11.997
17264W        W84332  19.533  22.738   0.480
17265W        W84333  31.417  11.225  13.056
17266W        W84334  17.755  15.746  14.784
17267W        W84335   2.775   2.246   2.250
17268W        W84336   2.242  13.604   1.900
17269W        W84337  27.940  33.049  14.801
17270W        W84338  10.760  37.345  12.897
17271W        W84339   1.317  42.362   0.728
17272W        W84340   7.356   9.651  13.019
17273W        W84341   6.308   8.809   1.218
17274W        W84342  10.350  31.005  10.494
17275W        W84343  32.411   2.829   0.819
17276W        W84344  28.043  30.974   2.282
17277W        W84345  38.045   7.416  14.484
17278W        W84346   7.294  19.276  13.332
17279W        W84347  41.400  30.129  10.429
17280W        W84348  41.410  43.334   1.431
17281W        W84349  40.999  24.483  10.971
17282W        W84350  21.217  21.109  13.317
17283W        W84351  11.160  15.207  13.521
17284W        W84352  11.338   1.837  11.079
17285W        W84353  23.989  41.312  14.514
17286W        W84354  38.560  38.352   4.342
17287W        W84355  22.086  44.460  13.923
17288W        W84356   7.171  26.518   0.923
17289W        W84357  23.634  20.052   3.842
17290W        W84358  38.864  27.622   1.224
17291W        W84359  13.325  24.664  11.396
17292W        W84360   5.332   1.796   5.234
17293W        W84361  41.820  33.610   2.676
17294W        W84362   2.961  16.192   3.347
17295W        W84363  24.097  26.058  14.779
17296W        W84364  39.880  12.683   2.881
17297W        W84365  12.205   7.750  13.405
17298W        W84366  18.063  38.506  12.877
17299W        W84367  19.757   3.370   1.306
17300W        W84368  27.175   0.286   1.743
17301W        W84369  24.539  19.702  12.082
17302W        W84370  21.617   6.366  13.956
17303W        W84371  38.869   0.357   4.714
17304W        W84372  30.977   4.405   3.154
17305W        W84373   9.150  41.862  11.013
17306W        W84374  15.260  21.538   1.299
17307W        W84375  10.238  34.985  14.823
17308W        W84376  40.911  30.519   4.225
17309W        W84377   1.739  29.624   2.231
17310W        W84378  38.330  28.179  12.481
17311W        W84379  18.292  28.087   3.342
17312W        W84380  23.624  20.566  12.893
17313W        W84381  41.514  29.449  12.430
17314W        W84382  13.762   3.886   3.697
17315W        W84383  23.993  18.198   0.294
17316W        W84384  10.242  23.565  10.432
17317W        W84385  19.758  41.469  12.038
17318W        W84386  35.437  17.166  14.841
17319W        W84387  14.289  36.589  12.923
17320W        W84388   6.882  11.163  13.845
17321W        W84389  18.156  36.384   4.799
17322W        W84390  32.910  35.920  10.460
17323W        W84391  31.133   5.829  14.379
17324W        W84392   0.757  14.592   2.318
17325W        W84393  34.979  26.140  11.561
17326W        W84394   4.368  13.610  13.853
17327W        W84395  12.303  34.372   4.343
17328W        W84396  32.143  28.141  14.904
17329W        W84397   8.202  27.576  13.844
17330W        W84398  37.025  31.927   4.122
17331W        W84399  33.455   3.286  10.631
17332W        W84400   2.840   2.294   4.771
17333W        W84401   3.896   8.796  14.341
17334W        W84402  25.165  24.202   2.224
17335W        W84403  14.150  14.217  11.098
17336W        W84404  39.928   0.814   3.264
17337W        W84405  23.035  44.841  11.071
17338W        W84406  30.412  39.811  12.030
17339W        W84407  23.653   1.328   0.880
17340W        W84408  40.337  36.476  10.570
17341W        W84409  10.743  20.553  14.317
17342W        W84410  36.499  12.293  14.007
17343W        W84411  35.506  25.503   4.221
17344W        W84412  21.168  10.218  13.362
17345W        W84413  39.342  27.150   3.746
17346W        W84414   8.813  21.077   4.778
17347W        W84415  41.351  28.102  11.014
17348W        W84416  35.109  18.144   4.674
17349W        W84417  30.158  25.604   0.936
17350W        W84418  39.399  12.811  14.474
17351W        W84419  14.815  41.974  13.955
17352W        W84420  32.564  36.064   0.804
17353W        W84421  29.652  41.996   2.284
17354W        W84422  44.001  15.259  12.937
17355W        W84423  13.276  43.372   4.617
17356W        W84424  43.365  30.001  10.595
17357W        W84425  13.701  32.558   3.271
17358W        W84426  23.078   4.447  14.431
17359W        W84427  18.288  30.933  13.922
17360W        W84428  34.093   2.353  10.596
17361W        W84429   2.349  18.644   3.353
17362W        W84430   8.670  40.526  14.770
17363W        W84431  12.678  38.358  14.917
17364W        W84432  10.251  24.489   1.868
17365W        W84433   7.714  27.525   1.343
17366W        W84434   5.739   8.238  14.326
17367W        W84435  25.513   8.861  14.288
17368W        W84436   3.444  34.914   1.923
17369W        W84437   3.755  24.665  10.410
17370W        W84438   5.369   4.236   0.246
17371W        W84439  34.999  31.561   1.320
17372W        W84440   4.820  14.226   2.223
17373W        W84441  12.343   1.773  14.837
17374W        W84442  28.161  16.648  14.807
17375W        W84443  24.109  34.438   9.945
17376W        W84444  38.399  41.462  11.988
17377W        W84445  16.623  10.716  11.601
17378W        W84446  39.898  40.952  14.841
17379W        W84447  25.682  41.025   3.164
17380W        W84448  14.202  27.599   4.694
17381W        W84449  13.171   1.940  13.870
17382W        W84450  26.040  11.351  11.944
17383W        W84451  12.209  44.468  10.106
17384W        W84452   0.285   1.777  14.349
17385W        W84453  24.020  19.135  14.810
17386W        W84454  16.186  23.543  14.800
17387W        W84455  26.467  29.012  14.464
17388W        W84456  18.073  19.118   4.129
17389W        W84457  17.800   4.369   4.728
17390W        W84458  28.678   6.224  10.595
17391W        W84459  18.624   9.832  11.115
17392W        W84460  44.261  20.190   0.898
17393W        W84461  36.484   3.278  11.542
17394W        W84462  38.337  25.052  11.495
17395W        W84463  33.503   6.790  10.566
17396W        W84464  22.142  27.541  13.348
17397W        W84465  34.380  23.024  12.055
17398W        W84466  20.609  20.041   2.303
17399W        W84467   0.365  41.487   3.246
17400W        W84468  11.645   8.741   0.912
17401W        W84469  13.345  44.829  13.429
17402W        W84470   3.410  16.217  12.356
17403W        W84471  39.453   5.726   1.722
17404W        W84472  33.509   3.232   1.743
17405W        W84473  43.846   5.298  14.763
17406W        W84474   4.407  20.272   4.775
17407W        W84475  16.653   6.806  10.944
17408W        W84476  40.496  42.442  14.388
17409W        W84477   4.754  18.647  13.334
17410W        W84478  10.773   9.285  13.320
17411W        W84479   3.710  40.825  13.825
17412W        W84480  31.604  34.503  13.371
17413W        W84481  38.017   0.965  12.042
17414W        W84482   8.359  24.539  12.969
17415W        W84483  28.035  29.160  11.427
17416W        W84484   2.275  35.428  14.408
17417W        W84485  11.804  36.995   3.221
17418W        W84486  38.360  25.621   3.792
17419W        W84487   4.255  41.445   2.773
17420W        W84488  26.175  43.933  12.080
17421W        W84489  21.688  34.889  11.094
17422W        W84490  25.049  17.556   0.368
17423W        W84491  23.688   5.772  11.955
17424W        W84492  15.231  16.159  12.356
17425W        W84493   9.386   6.842   0.812
17426W        W84494  17.589  26.142  13.031
17427W        W84495  33.586  27.129  14.910
17428W        W84496  17.723  27.990  12.910
17429W        W84497  20.536  37.953  12.384
17430W        W84498  41.024   4.231  12.400
17431W        W84499  40.011   7.827  11.044
17432W        W84500  26.619   4.403  14.878
17433W        W84501  18.706  42.321  12.071
17434W        W84502  23.195  12.622   2.250
17435W        W84503  39.862  11.739  12.084
17436W        W84504  37.413  18.719  10.560
17437W        W84505  22.665  25.628  11.899
17438W        W84506  15.663   4.747   1.764
17439W        W84507  34.113   6.410  14.940
17440W        W84508  35.579  27.040   2.750
17441W        W84509  23.664  33.498   3.241
17442W        W84510   2.839   0.984  13.391
17443W        W84511  39.372  18.124   0.791
17444W        W84512   7.387  37.891   1.320
17445W        W84513  26.200  15.303   1.825
17446W        W84514  31.121  32.562   0.897
17447W        W84515   3.290   7.269   2.715
17448W        W84516   0.915  29.559  12.969
17449W        W84517  26.572  31.141  14.419
17450W        W84518  19.688  43.501   3.824
17451W        W84519  25.127  11.837   0.908
17452W        W84520  15.134  12.661   4.681
17453W        W84521  11.135  42.452  10.987
17454W        W84522   8.243  35.395   1.318
17455W        W84523  17.575  37.896  10.560
17456W        W84524  29.125  23.549  12.348
17457W        W84525  43.352  33.548  13.345
17458W        W84526  30.084   7.833   1.778
17459W        W84527   0.914  25.539  10.961
17460W        W84528  34.919   5.428  10.512
17461W        W84529  40.801  14.335  11.523
17462W        W84530  21.753  29.496  10.632
17463W        W84531  24.200   8.781  11.911
17464W        W84532   6.816   2.333   1.915
17465W        W84533  32.498  37.846   0.469
17466W        W84534  35.461  33.946   2.372
17467W        W84535  26.503  11.643   5.117
17468W        W84536  20.571  40.357   1.694
17469W        W84537  40.944  14.648   4.266
17470W        W84538   0.440  25.049  12.891
17471W        W84539  26.128  36.894  10.972
17472W        W84540   8.681   9.282  12.960
17473W        W84541  13.306  12.235   4.742
17474W        W84542  39.974   7.291  10.561
17475W        W84543  26.703  16.672  14.934
17476W        W84544  28.126  33.482  12.372
17477W        W84545  18.585  30.155  10.574
17478W        W84546   1.882  27.175   4.610
17479W        W84547  43.999  42.851   3.774
17480W        W84548  10.703  41.352   0.342
17481W        W84549  37.532  25.639   3.723
17482W        W84550  38.327  27.474  11.566
17483W        W84551  38.854   0.428   2.368
17484W        W84552  10.815  28.947   3.171
17485W        W84553  12.245  34.977   1.796
17486W        W84554   4.747  42.925  13.873
17487W        W84555  36.898  13.229   1.706
17488W        W84556   3.379  39.427   4.699
17489W        W84557  20.590   9.219  12.355
17490W        W84558   9.362  36.985  13.802
17491W        W84559  41.432  32.576   1.919
17492W        W84560  37.932  17.198  13.391
17493W        W84561  29.014  19.265   0.961
17494W        W84562  14.208  24.074   1.267
17495W        W84563   3.268  25.962  11.404
17496W        W84564   7.205  19.199   3.335
17497W        W84565  30.499   1.245  14.350
17498W        W84566  29.142   1.260  13.326
17499W        W84567  29.465  34.097   2.808
17500W        W84568  17.269  13.145  13.912
17501W        W84569  20.690  32.402  10.544
17502W        W84570  29.572  22.530   2.790
17503W        W84571  28.679   6.768   3.761
17504W        W84572  27.156  25.626  12.396
17505W        W84573  37.858  31.971   2.830
17506W        W84574   5.330  33.978  10.500
17507W        W84575  29.471   5.814   0.952
17508W        W84576  20.607  30.592   4.288
17509W        W84577  28.136  27.134   1.737
17510W        W84578  20.038  28.047   1.274
17511W        W84579  40.488  32.540   3.306
17512W        W84580   1.965  30.647   4.283
17513W        W84581  43.885   5.707   0.862
17514W        W84582   1.338  40.025  10.505
17515W        W84583  37.465  42.380   1.323
17516W        W84584  42.964   4.306   0.324
17517W        W84585   6.274  31.957   0.801
17518W        W84586  43.894   1.781   4.203
17519W        W84587  16.712  14.775  10.578
17520W        W84588  29.453  32.451   2.875
17521W        W84589  23.562  34.033   4.178
17522W        W84590   6.356  17.095  13.043
17523W        W84591  16.729  42.994   0.810
17524W        W84592   1.413  25.514  14.287
17525W        W84593  37.368   3.780   3.742
17526W        W84594   9.813  26.592   0.875
17527W        W84595  41.404  23.189  10.403
17528W        W84596  26.047  14.719   0.303
17529W        W84597  15.650  36.399  11.879
17530W        W84598   0.803  44.444   4.179
17531W        W84599  12.243  28.670  11.009
17532W        W84600  20.219  43.275   2.856
17533W        W84601  19.704   8.687   0.343
17534W        W84602  18.240  43.353   1.247
17535W        W84603  41.393  16.196   0.890
17536W        W84604  28.045  21.173  11.934
17537W        W84605  29.980  13.694   2.853
17538W        W84606  35.576   3.279  13.480
17539W        W84607  13.143  38.024   4.828
17540W        W84608  11.249  33.009  10.611
17541W        W84609  33.059  34.511  14.765
17542W        W84610  41.335  40.989  14.285
17543W        W84611  20.116  44.483  11.919
17544W        W84612  37.958  42.503   0.257
17545W        W84613  36.525  21.521  14.368
17546W        W84614  27.940   2.880  12.539
17547W        W84615   5.332  40.950  14.498
17548W        W84616  43.433  38.996   0.813
17549W        W84617  13.150  35.927   3.326
17550W        W84618  27.059  11.164  12.377
17551W        W84619  15.712   8.249   9.970
17552W        W84620  23.497  39.552   9.919
17553W        W84621  42.980  37.506   3.181
17554W        W84622  12.175  28.446  12.979
17555W        W84623  34.910  35.359  10.982
17556W        W84624  17.252  37.405   2.675
17557W        W84625  44.432   8.887  10.567
17558W        W84626   0.947  41.335  12.400
17559W        W84627   5.403  16.179   0.920
17560W        W84628  40.454  21.123   0.771
17561W        W84629  10.172  21.719   2.741
17562W        W84630  28.939  13.814   4.177
17563W        W84631  34.868  39.367  12.920
17564W        W84632  29.647   1.876  13.031
17565W        W84633   8.336  26.537   3.187
17566W        W84634  35.442  27.940  11.889
17567W        W84635  17.691  12.855   2.836
17568W        W84636  43.441  33.622   4.288
17569W        W84637  31.540  33.513   3.746
17570W        W84638   7.211  10.281  10.498
17571W        W84639  27.499  43.858   3.308
17572W        W84640  23.132   4.930  11.978
17573W        W84641   4.769  28.672   2.797
17574W        W84642  35.377  24.031   2.827
17575W        W84643   8.371  29.023  11.942
17576W        W84644  37.453  20.200   4.602
17577W        W84645   5.309  43.769  12.398
17578W        W84646  42.945  38.834   2.178
17579W        W84647  29.476   1.261   1.237
17580W        W84648  35.501  36.974   4.830
17581W        W84649  31.435   1.760  13.364
17582W        W84650   8.395  36.951  14.947
17583W        W84651   6.727  44.850   2.289
17584W        W84652  30.630  33.474  12.961
17585W        W84653  30.156  23.037   0.900
17586W        W84654  34.567  22.117   2.318
17587W        W84655  15.754  12.856   4.297
17588W        W84656  28.508  28.941  11.581
17589W        W84657  32.603  41.881   1.306
17590W        W84658  13.186  26.006   3.726
17591W        W84659  27.591  16.667  11.589
17592W        W84660  14.290  26.540  10.097
17593W        W84661   6.283  26.008  11.405
17594W        W84662   4.739   3.892   3.833
17595W        W84663  23.153   1.753  11.974
17596W        W84664  15.157  15.219  13.834
17597W        W84665  32.492  12.281  12.046
17598W        W84666  17.770  36.418   4.708
17599W        W84667  41.985  43.893   2.401
17600W        W84668  30.548  38.076   1.278
17601W        W84669  27.112   3.375  13.864
17602W        W84670   8.877   7.352  10.060
17603W        W84671  13.819   5.801   2.306
17604W        W84672   5.232  20.528  10.987
17605W        W84673   1.310  37.011  14.942
17606W        W84674  22.715  42.797   4.296
17607W        W84675  39.339  29.655  12.855
17608W        W84676  31.612  15.164   2.199
17609W        W84677  20.579  41.361  12.342
17610W        W84678   9.273  38.349  14.395
17611W        W84679  44.009   5.927  12.467
17612W        W84680  34.877  13.106   0.471
17613W        W84681   6.773   9.177  11.487
17614W        W84682   6.775   5.294  12.492
17615W        W84683  28.581  28.604   4.254
17616W        W84684  34.434  33.927   0.367
17617W        W84685  42.338  27.174  14.011
17618W        W84686   7.382   4.862  13.806
17619W        W84687  20.042   5.274  10.629
17620W        W84688  19.250  28.037   0.752
17621W        W84689  32.456   5.394  13.538
17622W        W84690  44.813  12.715  11.022
17623W        W84691  26.167  44.368  13.025
17624W        W84692   5.354  12.617   1.273
17625W        W84693  38.392  23.575   2.881
17626W        W84694  30.034  15.622   3.177
17627W        W84695  20.754  16.692  14.903
17628W        W84696  17.170  43.343   3.283
17629W        W84697  28.467   5.396  13.914
17630W        W84698  21.753  35.573  13.007
17631W        W84699  33.529  43.302   4.598
17632W        W84700  25.603  32.437  11.102
17633W        W84701  12.640  13.258   5.119
17634W        W84702  32.050  22.212   3.760
17635W        W84703   4.273  14.147  14.357
17636W        W84704  26.141  22.175   2.182
17637W        W84705   2.884  29.030   3.151
17638W        W84706   1.931  21.260  11.100
17639W        W84707  44.502  35.571   3.162
17640W        W84708   5.352  26.650   1.822
17641W        W84709   2.418   5.922   2.291
17642W        W84710  38.989  15.712   1.765
17643W        W84711   9.712   8.391   1.335
17644W        W84712  19.088   6.406  11.090
17645W        W84713  21.522   4.797  10.896
17646W        W84714  17.667  17.683   1.859
17647W        W84715   1.270  16.578   1.424
17648W        W84716  37.499   6.406  13.973
17649W        W84717   4.330   4.875  13.920
17650W        W84718  20.676  13.317  14.931
17651W        W84719  10.684   3.760   0.828
17652W        W84720  29.537   5.335  14.809
17653W        W84721  37.033   9.782   3.780
17654W        W84722  11.127   5.240  10.977
17655W        W84723  44.427   7.815   3.291
17656W        W84724  28.568  22.581  12.883
17657W        W84725  13.140  18.565   2.695
17658W        W84726   8.280  20.584   1.808
17659W        W84727   7.191  26.966   4.113
17660W        W84728  27.145   0.976  13.928
17661W        W84729  23.140  27.679   3.158
17662W        W84730  21.072  36.530  11.566
17663W        W84731  15.235  44.781  11.951
17664W        W84732  11.693   1.271   1.846
17665W        W84733   2.955  14.600   2.222
17666W        W84734  42.342  28.957  11.874
17667W        W84735   3.366  19.567  13.437
17668W        W84736  41.891  30.495  13.384
17669W        W84737  28.164  23.233  13.451
17670W        W84738  20.244  41.822  14.286
17671W        W84739  17.579  32.537  13.801
17672W        W84740  10.863  23.611  12.046
17673W        W84741  31.432  43.415   1.289
17674W        W84742   7.296  13.267  12.055
17675W        W84743  21.228  25.056  13.843
17676W        W84744  34.958   2.815   3.757
17677W        W84745   3.790  16.645  12.915
17678W        W84746  31.634  28.501  13.906
17679W        W84747  17.281  43.516  14.486
17680W        W84748  38.386  36.364  10.892
17681W        W84749  17.618  13.744  10.607
17682W        W84750   1.888  13.726   2.184
17683W        W84751   2.759  37.900   2.248
17684W        W84752  20.762   7.843   0.839
17685W        W84753  30.098  16.094  10.942
17686W        W84754  22.025  17.751  12.935
17687W        W84755   3.877  38.020  14.975
17688W        W84756  13.227   0.780   0.420
17689W        W84757  23.525  32.430   0.744
17690W        W84758  32.894  16.261  10.638
17691W        W84759  20.033  23.602  10.435
17692W        W84760  23.699  13.705  11.590
17693W        W84761  34.883  39.529   3.318
17694W        W84762  43.012   1.444  13.338
17695W        W84763  31.564  21.089   0.412
17696W        W84764  20.079  33.926   1.821
17697W        W84765  31.406  44.871  12.906
17698W        W84766   7.873   0.442  12.939
17699W        W84767  33.983   8.699  11.942
17700W        W84768  37.044  21.210  14.399
17701W        W84769  44.372  38.930   3.218
17702W        W84770   7.805   8.690   0.787
17703W        W84771  13.310  38.868   4.130
17704W        W84772  32.446  14.684   1.397
17705W        W84773  28.569   8.739   2.374
17706W        W84774  18.073  36.501   4.195
17707W        W84775  18.239   0.341  14.849
17708W        W84776  43.912  35.562  13.339
17709W        W84777  31.080   4.830  10.082
17710W        W84778  36.487  21.037  12.467
17711W        W84779  21.018   8.298   0.477
17712W        W84780  33.582  11.779  11.015
17713W        W84781  25.087  22.730  11.070
17714W        W84782   6.826  11.784  10.427
17715W        W84783  29.951  32.485  14.311
17716W        W84784  12.253  31.010  14.280
17717W        W84785  44.363  11.351   3.829
17718W        W84786  26.044   0.268  14.422
17719W        W84787   2.410  24.134  14.838
17720W        W84788  36.891  21.594  10.592
17721W        W84789  22.716   4.887  10.942
17722W        W84790  14.176  40.974  14.985
17723W        W84791  32.012   6.894   1.820
17724W        W84792  39.428   4.843  13.497
17725W        W84793  42.022  28.629   1.892
17726W        W84794  42.923   4.739  13.358
17727W        W84795  32.516  33.616   1.345
17728W        W84796  32.526  30.418   0.879
17729W        W84797  12.149  11.173   0.469
17730W        W84798  14.670  30.128  10.615
17731W        W84799  23.211  37.028  12.407
17732W        W84800   3.869  35.030   0.288
17733W        W84801  12.725   1.414  13.420
17734W        W84802  10.353  14.278   2.404
17735W        W84803  36.390  41.450  10.426
17736W        W84804   4.704  12.853  10.013
17737W        W84805  34.571  17.754   1.259
17738W        W84806  13.837  27.585  12.997
17739W        W84807  18.789  41.459   0.877
17740W        W84808  36.893   9.673   2.724
17741W        W84809  12.212   8.755   2.346
17742W        W84810  20.536  23.145   0.480
17743W        W84811  39.982  30.554  11.915
17744W        W84812  31.109   8.866  12.467
17745W        W84813  33.906  18.274   3.837
17746W        W84814  21.662   6.397  12.037
17747W        W84815  13.813   9.203  13.538
17748W        W84816  25.622  42.858  14.457
17749W        W84817  31.045  39.925   4.257
17750W        W84818   2.783  34.043   3.782
17751W        W84819  20.757  13.203   2.764
17752W        W84820  11.280  38.986  14.875
17753W        W84821  43.423   5.224  14.943
17754W        W84822  26.604  36.536   3.766
17755W        W84823  41.474   3.374  12.965
17756W        W84824   6.375  37.518   3.783
17757W        W84825   5.798  27.082   1.325
17758W        W84826  28.023  38.892   2.685
17759W        W84827  18.113  34.016   1.899
17760W        W84828  24.582  35.898  14.804
17761W        W84829   8.746  43.854   3.297
17762W        W84830   0.921   0.775   4.656
17763W        W84831  28.113  13.680  13.958
17764W        W84832  34.089  14.270  10.598
17765W        W84833  43.785  41.446  12.942
17766W        W84834   8.380  34.996  14.982
17767W        W84835  30.912  37.518  10.601
17768W        W84836  21.193  20.169  14.865
17769W        W84837  26.027  27.094   4.626
17770W        W84838  36.875  42.788   4.787
17771W        W84839  33.903  11.200   3.333
17772W        W84840  12.250   7.333   1.808
17773W        W84841  20.094  37.388   0.840
17774W        W84842  13.790  15.641   0.325
17775W        W84843  34.405  20.117   2.332
17776W        W84844  36.426   7.199  13.959
17777W        W84845  26.156  31.495  13.818
17778W        W84846  34.028  13.252  12.472
17779W        W84847  28.572  39.841  11.508
17780W        W84848  33.060   2.782  12.361
17781W        W84849  11.680  18.281   0.945
17782W        W84850  27.035  41.952  10.915
17783W        W84851  12.282   9.150   3.766
17784W        W84852  36.369  41.462   0.938
17785W        W84853   9.831  33.930  11.545
17786W        W84854  11.841  15.091   3.239
17787W        W84855  36.066  18.590   0.341
17788W        W84856  14.100  15.295  10.907
17789W        W84857  15.115  38.447   0.428
17790W        W84858  13.735  21.163   0.461
17791W        W84859  30.929  28.939  11.608
17792W        W84860   7.816  43.801  14.296
17793W        W84861   2.377   4.410  11.037
17794W        W84862  26.965  44.430  10.084
17795W        W84863  29.633   3.374  11.516
17796W        W84864   5.847  40.402  12.339
17797W        W84865   2.841  11.771  13.407
17798W        W84866  30.431  41.984   2.858
17799W        W84867  10.225  41.851  11.123
17800W        W84868  19.235   4.433   4.693
17801W        W84869  28.187   7.407  13.348
17802W        W84870  42.894  20.547  13.905
17803W        W84871  42.977   3.345   2.666
17804W        W84872  20.605  26.536  14.444
17805W        W84873  11.220  24.619   3.312
17806W        W84874  27.466  37.513  14.019
17807W        W84875  21.672  31.519   3.657
17808W        W84876  17.717   2.407  10.643
17809W        W84877   5.864  14.281  10.956
17810W        W84878  20.165  27.569  14.785
17811W        W84879  40.304  35.362   2.779
17812W        W84880   0.281  33.590   4.352
17813W        W84881   9.821  33.449   0.855
17814W        W84882  31.094  30.474  14.465
17815W        W84883  11.139   6.223   3.192
17816W        W84884  24.529  27.568  13.866
17817W        W84885  34.940  33.422   3.294
17818W        W84886  34.000   0.909  13.901
17819W        W84887  14.150  38.450   3.365
17820W        W84888  12.291  35.109  10.497
17821W        W84889  39.487   5.751   4.291
17822W        W84890  14.742   5.850  12.364
17823W        W84891  43.293  37.421   3.745
17824W        W84892  32.553  23.044   5.262
17825W        W84893  11.832  21.570  10.972
17826W        W84894  38.068  38.071   3.751
17827W        W84895   9.781  37.375   4.246
17828W        W84896  36.588  18.670  10.985
17829W        W84897   1.383   8.840   4.783
17830W        W84898   2.398  27.074  13.044
17831W        W84899  29.552  39.827   0.912
17832W        W84900  13.258  40.027  14.983
17833W        W84901  10.763  42.848  10.630
17834W        W84902  38.914  33.125  11.509
17835W        W84903  41.886  34.081  14.513
17836W        W84904   4.345  19.616   0.306
17837W        W84905  14.824  39.050   2.889
17838W        W84906  21.051   1.735   4.227
17839W        W84907  24.003  35.068  12.402
17840W        W84908   4.899   1.268   4.618
17841W        W84909  23.550   2.466  12.548
17842W        W84910   0.387  16.193  12.829
17843W        W84911  15.619   9.347   5.211
17844W        W84912  33.087  28.076  10.433
17845W        W84913  10.345  32.944   1.847
17846W        W84914  44.374  18.188   3.707
17847W        W84915  25.548  12.665  12.404
17848W        W84916   2.315  38.909   3.250
17849W        W84917  35.417  39.025  13.888
17850W        W84918  32.464   2.291   0.824
17851W        W84919  41.969  12.758   2.684
17852W        W84920  44.910   8.276  11.930
17853W        W84921  20.750  28.158  12.945
17854W        W84922  43.910  36.892  13.352
17855W        W84923  24.576  44.949   3.381
17856W        W84924  40.486   0.887   4.813
17857W        W84925  12.165   5.904  13.505
17858W        W84926  14.652  44.387   0.804
17859W        W84927  42.007  20.584  11.953
17860W        W84928   0.487  22.673   3.648
17861W        W84929  43.278  14.598   0.808
17862W        W84930  20.182  29.589  14.440
17863W        W84931   5.317   3.384  11.072
17864W        W84932  34.943  27.137   4.747
17865W        W84933  17.191   1.369   3.670
17866W        W84934   6.284  24.009   5.266
17867W        W84935  21.527  28.532  10.976
17868W        W84936  16.079  34.008   0.744
17869W        W84937  36.499  19.670  11.011
17870W        W84938   7.369  41.520   0.893
17871W        W84939  13.250  10.656  11.882
17872W        W84940  38.014  30.545  14.959
17873W        W84941  37.382  29.449  10.638
17874W        W84942  33.541  35.874  13.471
17875W        W84943  43.426  30.039   3.302
17876W        W84944  43.318  18.741  11.912
17877W        W84945  19.764   6.390  13.961
17878W        W84946   1.797  14.632   4.194
17879W        W84947  38.946  19.558  11.865
17880W        W84948  38.931  33.575   3.725
17881W        W84949   4.232  16.689   0.397
17882W        W84950  23.081   8.381   2.273
17883W        W84951   5.215  18.092   2.203
17884W        W84952  36.066  13.134  11.116
17885W        W84953  43.476  35.584   0.416
17886W        W84954  11.647  36.986  13.534
17887W        W84955  37.033  23.116  14.024
17888W        W84956  37.078  24.978  14.456
17889W        W84957  40.962  26.677  14.302
17890W        W84958  37.360  44.892  12.065
17891W        W84959   5.343  43.484  12.569
17892W        W84960  43.313   3.324  14.364
17893W        W84961  37.425   1.731   1.231
17894W        W84962  35.415  38.379   3.198
17895W        W84963  38.030  38.034  13.542
17896W        W84964  22.092  44.805   1.227
17897W        W84965  36.588  41.319  14.302
17898W        W84966  31.991  27.639  10.542
17899W        W84967   6.360  34.114   0.265
17900W        W84968  15.744  34.891   0.447
17901W        W84969   4.287   2.829  10.622
17902W        W84970  13.299  22.249  13.332
17903W        W84971  11.838  18.222   2.391
17904W        W84972  42.018  38.994  13.365
17905W        W84973  22.705  41.034  13.961
17906W        W84974  31.984  15.084  10.132
17907W        W84975  26.198  26.052   2.199
17908W        W84976  14.192  25.484   3.792
17909W        W84977  40.868  10.347   5.116
17910W        W84978  25.066  31.586   2.353
17911W        W84979  25.588   2.303  11.917
17912W        W84980  21.706   1.397  12.368
17913W        W84981  16.621  23.006  13.818
17914W        W84982  43.392  44.488  14.502
17915W        W84983  16.805  38.981  12.429
17916W        W84984   6.761  24.706   1.308
17917W        W84985  37.473  26.006   2.218
17918W        W84986   6.689   7.780  13.805
17919W        W84987   4.719  32.059  13.009
17920W        W84988  17.710  39.864  13.913
17921W        W84989  44.811  30.956  10.420
17922W        W84990  34.451  23.620   4.792
17923W        W84991  33.552  25.682   1.347
17924W        W84992   5.692   9.198  13.982
17925W        W84993  19.654   1.425  11.547
17926W        W84994  30.018   2.885   0.415
17927W        W84995  14.288  42.413  12.871
17928W        W84996  16.664  43.377   4.662
17929W        W84997  15.138  26.691   1.755
17930W        W84998  13.330  32.410   0.858
17931W        W84999   3.937  33.379  12.980
17932W        W85000  41.402   0.819  14.004
17933W        W85001  44.410   1.829   0.961
17934W        W85002   0.786  28.468   0.788
17935W        W85003  13.627  14.253   1.369
17936W        W85004   3.755  38.486  12.897
17937W        W85005  42.976  28.177   1.861
17938W        W85006  16.239  20.569  14.362
17939W        W85007  32.924  41.842  14.336
17940W        W85008  18.293   5.776   0.308
17941W        W85009  24.546  32.444   1.764
17942W        W85010  24.082  11.682  12.957
17943W        W85011  23.719   9.342  12.949
17944W        W85012  30.113  34.931  14.976
17945W        W85013  15.230   8.265  11.890
17946W        W85014  20.565  25.994  14.339
17947W        W85015   5.212  15.303   1.372
17948W        W85016  10.215  15.775   5.251
17949W        W85017  34.597  36.858   0.321
17950W        W85018  38.460  23.509   3.240
17951W        W85019  23.225  26.481   2.400
17952W        W85020  27.101   7.794  10.502
17953W        W85021  40.851  26.112  13.432
17954W        W85022  25.488  18.062  10.615
17955W        W85023  31.528  20.541  10.967
17956W        W85024  23.512   9.327  11.101
17957W        W85025  44.793   4.274  12.893
17958W        W85026  30.107  35.871  11.864
17959W        W85027   0.441  43.932  13.026
17960W        W85028   0.833  33.622   2.875
17961W        W85029  33.936   8.877   2.721
17962W        W85030  42.002  42.491   3.786
17963W        W85031  16.788  21.730  12.414
17964W        W85032  25.141   1.374   3.857
17965W        W85033  37.863   0.866  11.420
17966W        W85034   3.877   2.367   2.343
17967W        W85035  14.236  42.000  11.424
17968W        W85036  18.092  35.472   3.667
17969W        W85037  30.562   0.361  12.537
17970W        W85038  40.931   7.172  13.804
17971W        W85039   6.370  28.516  14.846
17972W        W85040  42.910   5.411   2.405
17973W        W85041  12.643  43.004  14.959
17974W        W85042  18.780  15.817   5.286
17975W        W85043  35.411   4.745   2.182
17976W        W85044  21.610  27.953  10.030
17977W        W85045   4.838  13.649  11.436
17978W        W85046  30.065  17.607  13.354
17979W        W85047  27.577  36.949  11.399
17980W        W85048  36.950  41.302   4.750
17981W        W85049   0.427  38.359  10.410
17982W        W85050   1.796   1.817  11.908
17983W        W85051  39.971   5.432  12.909
17984W        W85052  23.162  21.258   1.828
17985W        W85053  39.416  25.053   4.217
17986W        W85054  20.730  27.991   3.176
17987W        W85055   1.767  14.121   2.394
17988W        W85056  26.600  19.165   3.678
17989W        W85057  18.139  31.468  13.841
17990W        W85058  16.588  38.373  14.018
17991W        W85059  12.826  12.725   2.715
17992W        W85060  25.082  10.275   0.823
17993W        W85061  38.454  23.182  10.623
17994W        W85062  19.542  27.480  13.014
17995W        W85063   6.869  23.071  14.031
17996W        W85064  10.152  25.046   3.231
17997W        W85065   6.775  25.168  13.319
17998W        W85066   6.877  15.743   1.923
17999W        W85067   3.338  22.504  10.622
18000W        W85068  11.353  14.205  11.466
18001W        W85069  26.144   4.290  12.968
18002W        W85070  25.596  34.512  13.513
18003W        W85071   2.319   3.243   1.308
18004W        W85072  17.748  29.142  11.416
18005W        W85073  43.272   5.861   0.434
18006W        W85074  20.739  19.107   2.901
18007W        W85075  11.791   0.392   0.942
18008W        W85076   0.837  28.947  13.540
18009W        W85077   0.431  29.587   1.210
18010W        W85078  11.792  39.866  12.475
18011W        W85079  25.148  11.156   4.665
18012W        W85080   2.744  37.380   0.750
18013W        W85081  34.074   3.299  11.458
18014W        W85082  35.919  43.433  13.903
18015W        W85083  26.137  40.323  14.387
18016W        W85084  26.024  34.444   0.901
18017W        W85085  27.088  21.628   1.419
18018W        W85086  36.528   2.835  14.974
18019W        W85087  30.035  41.293   3.806
18020W        W85088  30.907  31.606  14.886
18021W        W85089  10.814  28.168  10.930
18022W        W85090   0.913  26.575   4.640
18023W        W85091  15.603  31.966   3.305
18024W        W85092  23.096  12.174   4.689
18025W        W85093  39.962   2.362  14.846
18026W        W85094  32.394  16.759   3.804
18027W        W85095  39.364   8.354   2.385
18028W        W85096  26.118   1.842   4.641
18029W        W85097  22.114  15.729   0.466
18030W        W85098  17.211  31.093  10.531
18031W        W85099   6.848  44.991   0.854
18032W        W85100  35.398  43.958   1.835
18033W        W85101  16.621  32.591   0.810
18034W        W85102  12.814  12.768  11.460
18035W        W85103   1.819  23.701   4.739
18036W        W85104  43.999   8.349   0.765
18037W        W85105   0.427  29.030  14.970
18038W        W85106  27.480  23.102   1.801
18039W        W85107  25.643  23.537  14.856
18040W        W85108  29.609  11.824   5.194
18041W        W85109  15.730  15.589   3.185
18042W        W85110  41.511   6.921  13.835
18043W        W85111  10.747   8.851   2.225
18044W        W85112  41.824  44.339  14.329
18045W        W85113  36.013  16.607   1.866
18046W        W85114  17.267  15.824   1.424
18047W        W85115  36.403  20.714  11.114
18048W        W85116   4.813  28.575   3.731
18049W        W85117   2.281  36.565  13.816
18050W        W85118   9.866  17.139   4.720
18051W        W85119  25.206  26.144  12.900
18052W        W85120  16.667  42.495  13.435
18053W        W85121  36.569  10.837   2.680
18054W        W85122  20.116  22.090  14.839
18055W        W85123  31.125   2.254   3.791
18056W        W85124  36.060  21.641   4.157
18057W        W85125   7.382  27.660  10.950
18058W        W85126   9.278   3.927  10.965
18059W        W85127  30.578  17.621   1.796
18060W        W85128  33.413  40.891   2.250
18061W        W85129  25.153  37.525  13.328
18062W        W85130  12.225  12.661  13.510
18063W        W85131  27.021  40.814  11.504
18064W        W85132  18.123  30.965   5.179
18065W        W85133  31.586  15.624  12.001
18066W        W85134  31.950  21.580  11.918
18067W        W85135  15.109  19.191   3.259
18068W        W85136  24.212  22.016   2.359
18069W        W85137  31.990  16.105  14.309
18070W        W85138  14.100  12.854  14.797
18071W        W85139   7.378  33.002  12.560
18072W        W85140   9.289  30.652  11.927
18073W        W85141   0.286  39.886  12.081
18074W        W85142  41.408  23.727  10.593
18075W        W85143   7.171  40.944  10.487
18076W        W85144   9.218  41.374   0.302
18077W        W85145  26.688  33.954   3.851
18078W        W85146   9.152  32.100   0.351
18079W        W85147  42.361  15.629  10.593
18080W        W85148  16.763  16.685   4.231
18081W        W85149   0.934  18.244   0.434
18082W        W85150  38.511  22.179  12.485
18083W        W85151  21.179  35.074  13.837
18084W        W85152  31.927  18.658  12.348
18085W        W85153   5.327  22.058   2.350
18086W        W85154  21.088  29.501   0.892
18087W        W85155   4.718  28.939   2.878
18088W        W85156  38.341  35.969  14.811
18089W        W85157   5.407   0.468   0.742
18090W        W85158  25.657   6.373   2.765
18091W        W85159  19.215  16.578   0.756
18092W        W85160   5.212  30.919   4.203
18093W        W85161  15.621  27.474   4.804
18094W        W85162  19.725  22.573   1.297
18095W        W85163   5.723   9.260   1.293
18096W        W85164  11.782  11.327  13.541
18097W        W85165  42.317  29.659  11.917
18098W        W85166  26.633  14.672   1.298
18099W        W85167  11.315  23.204   2.232
18100W        W85168  40.313  11.866  11.896
18101W        W85169   4.328   1.950  12.551
18102W        W85170  12.834  14.121  11.932
18103W        W85171  30.103  28.152   4.238
18104W        W85172  44.310  40.418   3.780
18105W        W85173  36.946  43.400  14.892
18106W        W85174  29.136  27.653  13.959
18107W        W85175  18.118  10.383  10.993
18108W        W85176  10.280  43.471  13.044
18109W        W85177   4.792  10.684  12.567
18110W        W85178  33.619  10.664  10.076
18111W        W85179  11.369  23.675  13.982
18112W        W85180   4.292  35.903  11.526
18113W        W85181  27.596  33.600  13.999
18114W        W85182   3.810  14.795   3.292
18115W        W85183  11.348  15.248   2.706
18116W        W85184  43.408   7.200   1.435
18117W        W85185  22.648  33.092  10.044
18118W        W85186  11.761  38.551  12.461
18119W        W85187  38.528  30.149   0.291
18120W        W85188  36.849  44.273   1.384
18121W        W85189  34.073  24.577   2.306
18122W        W85190  18.201  19.148  14.306
18123W        W85191  40.866  40.463   3.211
18124W        W85192  43.994  42.875   1.356
18125W        W85193   8.766  42.917  11.572
18126W        W85194  43.516  33.008  10.933
18127W        W85195  34.401  19.266  13.793
18128W        W85196  19.052  11.319  11.067
18129W        W85197   8.265  38.525  10.891
18130W        W85198  28.638  15.175  14.968
18131W        W85199  37.432   8.405   3.708
18132W        W85200  26.585  30.132  10.580
18133W        W85201   7.223   5.211  12.043
18134W        W85202  11.733  13.841  12.559
18135W        W85203  38.019  31.940   1.232
18136W        W85204  15.663  31.988  14.793
18137W        W85205  13.697   1.417  10.934
18138W        W85206  12.734   1.453   0.293
18139W        W85207  42.357  39.036   0.350
18140W        W85208  20.550  43.339   3.713
18141W        W85209  21.122  21.642   3.375
18142W        W85210  21.160  36.577   2.744
18143W        W85211  16.595   7.222   1.798
18144W        W85212  43.001  21.201  10.158
18145W        W85213  11.705  28.965  12.859
18146W        W85214   5.920  38.519  14.435
18147W        W85215   4.314   0.357   0.789
18148W        W85216  14.718   4.432  10.948
18149W        W85217   7.795  40.539  13.988
18150W        W85218  43.499  42.361   2.839
18151W        W85219  30.045  20.050  10.932
18152W        W85220  16.773  25.542   1.710
18153W        W85221  27.601   9.781   3.864
18154W        W85222  14.651  31.466   0.350
18155W        W85223  42.787   5.743  11.446
18156W        W85224   9.697  40.841   3.711
18157W        W85225  40.979  27.068  10.489
18158W        W85226   8.817  41.823   1.392
18159W        W85227   2.941  12.191  13.047
18160W        W85228  10.234  36.489   1.786
18161W        W85229  21.039  19.073   4.271
18162W        W85230  36.930   6.728   4.623
18163W        W85231  37.492  32.920   3.157
18164W        W85232  12.669  11.768  12.547
18165W        W85233   6.716  31.956   2.288
18166W        W85234  35.974  32.924   4.600
18167W        W85235   4.720  39.825   1.341
18168W        W85236  32.481  25.647  13.547
18169W        W85237  14.651  25.499   1.793
18170W        W85238  41.457  19.126   4.196
18171W        W85239  40.856  37.062   2.781
18172W        W85240  22.213  42.340  13.828
18173W        W85241  24.133  44.476  10.982
18174W        W85242  20.614  43.290  14.512
18175W        W85243  40.954  26.146   2.867
18176W        W85244  33.474  39.542   2.356
18177W        W85245  17.689  30.061  10.979
18178W        W85246  40.853   3.336  12.945
18179W        W85247  36.545  22.997  14.019
18180W        W85248  13.608  38.429  13.799
18181W        W85249  28.680  14.286  13.884
18182W        W85250  38.872  13.211   1.837
18183W        W85251  39.959  27.159  12.399
18184W        W85252  15.621  33.579   4.630
18185W        W85253  43.770  43.945  11.998
18186W        W85254  38.566  15.175   3.858
18187W        W85255  24.581  31.526   3.336
18188W        W85256  14.096  10.848  13.971
18189W        W85257  14.671  14.237  12.557
18190W        W85258  37.928  38.969   0.963
18191W        W85259   7.291  22.249   1.735
18192W        W85260  37.483   6.252  12.395
18193W        W85261  10.331  25.639   4.152
18194W        W85262  44.823   5.894  12.897
18195W        W85263   6.325   8.732  14.875
18196W        W85264  27.504   2.941   2.901
18197W        W85265  15.671  28.507  11.435
18198W        W85266   2.363  13.757   1.442
18199W        W85267  40.891   8.335   2.274
18200W        W85268  17.720   7.748   3.837
18201W        W85269  10.773  44.383   3.200
18202W        W85270  27.056  40.321  14.351
18203W        W85271  21.066  24.034   0.418
18204W        W85272  11.151  39.867   4.825
18205W        W85273  33.027  35.912   0.368
18206W        W85274   7.241   9.849   4.223
18207W        W85275  29.541  43.502   1.804
18208W        W85276  34.031   2.280  13.429
18209W        W85277  32.944  22.605   0.252
18210W        W85278  16.593  35.518  13.417
18211W        W85279  19.204  24.210   0.789
18212W        W85280  18.128  44.840  12.871
18213W        W85281  10.878  41.029   4.238
18214W        W85282   7.882  15.703  10.488
18215W        W85283  39.999  38.914  11.003
18216W        W85284   7.772  18.200  14.785
18217W        W85285  18.615   0.779   4.654
18218W        W85286  17.691   8.264   0.922
18219W        W85287  21.584   4.871   2.870
18220W        W85288  18.058  27.023  10.495
18221W        W85289   8.346  22.708  10.411
18222W        W85290  27.993  29.446   4.204
18223W        W85291  12.264  34.032   3.825
18224W        W85292  13.208   9.828  11.122
18225W        W85293  28.088  23.639  11.433
18226W        W85294  13.838  30.539   1.309
18227W        W85295   9.184  34.929  14.888
18228W        W85296  17.073   7.895  14.362
18229W        W85297  38.554  16.136   4.223
18230W        W85298  44.363   0.754   3.223
18231W        W85299  30.115  17.128   2.242
18232W        W85300   1.463   7.382  12.922
18233W        W85301  13.673  42.969  10.606
18234W        W85302   6.826  18.598  13.346
18235W        W85303  32.554  19.564  10.029
18236W        W85304  42.796  12.142   4.216
18237W        W85305  18.181  19.737  13.428
18238W        W85306  28.518   5.721  12.093
18239W        W85307  33.071  37.956   2.871
18240W        W85308  40.901  16.576   3.767
18241W        W85309  20.209  33.381   1.864
18242W        W85310  19.554  30.621   1.217
18243W        W85311  37.477  32.919  11.514
18244W        W85312   3.868  38.567   0.442
18245W        W85313   6.245  20.227   1.857
18246W        W85314  13.767   4.729   4.220
18247W        W85315  21.101   9.343   0.867
18248W        W85316   0.340  39.946   4.205
18249W        W85317  40.888  22.515   1.867
18250W        W85318   9.648  24.579  14.358
18251W        W85319  31.519  42.830  14.763
18252W        W85320  26.580  39.842  10.617
18253W        W85321  27.547  28.670  11.431
18254W        W85322  35.440  38.455  12.900
18255W        W85323  33.439  17.097   2.417
18256W        W85324  17.226   3.766   0.413
18257W        W85325  18.770  14.328   5.198
18258W        W85326  20.551  13.265  12.002
18259W        W85327  18.635  19.154   0.757
18260W        W85328  36.536  13.621  14.823
18261W        W85329   6.918  14.168   1.754
18262W        W85330   3.913  11.154   4.692
18263W        W85331   1.367  35.421  12.870
18264W        W85332  24.673  18.128  14.361
18265W        W85333   2.241  36.939  10.888
18266W        W85334   0.247  39.938  12.896
18267W        W85335  21.544  37.000   2.390
18268W        W85336   2.790  17.680   3.731
18269W        W85337  26.083  36.571   0.924
18270W        W85338  27.097  40.309   3.866
18271W        W85339  21.573  23.104  10.423
18272W        W85340  13.121  29.039   1.219
18273W        W85341  42.401  19.256  13.415
18274W        W85342   6.421  26.662   2.845
18275W        W85343   5.884  39.970   2.903
18276W        W85344  20.659  12.241  10.572
18277W        W85345  37.877   3.874   0.923
18278W        W85346  16.791   6.185   4.745
18279W        W85347  44.293  34.410  11.990
18280W        W85348  33.979  20.612   4.310
18281W        W85349   4.708  25.649  11.091
18282W        W85350  14.637  30.053   1.929
18283W        W85351  22.067   4.727   2.876
18284W        W85352  23.066  19.657  14.335
18285W        W85353  39.950  10.832   0.961
18286W        W85354  35.512  19.190   4.805
18287W        W85355  12.672   5.349   2.854
18288W        W85356  20.259   9.369   3.733
18289W        W85357  34.967   1.405  13.938
18290W        W85358   4.323  10.190   3.216
18291W        W85359  25.541  14.302  12.416
18292W        W85360  39.859  20.146  10.518
18293W        W85361  20.579  32.070  10.906
18294W        W85362  26.184  41.925  12.034
18295W        W85363   4.423  19.699   1.400
18296W        W85364   2.755  40.990  13.914
18297W        W85365  37.491  19.536   1.823
18298W        W85366  30.575  38.336   2.385
18299W        W85367  44.877  12.261  13.984
18300W        W85368   2.304  42.838   0.845
18301W        W85369  43.001  13.232  13.340
18302W        W85370  26.532  25.996  12.370
18303W        W85371  16.236  39.020  10.598
18304W        W85372   5.291  28.052  12.484
18305W        W85373  37.348  24.024  11.044
18306W        W85374  29.441   0.980   9.962
18307W        W85375  14.619  39.543   0.928
18308W        W85376  18.706  41.924   4.165
18309W        W85377  15.156  10.243   3.687
18310W        W85378  16.102   2.438   4.213
18311W        W85379  25.190   0.436   4.710
18312W        W85380  19.084  25.491   0.740
18313W        W85381  16.621  19.229  13.368
18314W        W85382   9.356  14.604   3.274
18315W        W85383  37.380  18.565   2.763
18316W        W85384  41.427  23.655  12.421
18317W        W85385  40.531  23.574   0.419
18318W        W85386  32.474  21.614  12.878
18319W        W85387  16.148  20.108   1.745
18320W        W85388  34.484   4.744  14.455
18321W        W85389  34.999  18.081   2.746
18322W        W85390  41.508  35.486   2.879
18323W        W85391  21.146   9.700   2.825
18324W        W85392  27.168  24.171  11.905
18325W        W85393  22.043  27.134   3.208
18326W        W85394   8.401  27.588  10.924
18327W        W85395  23.612  13.786  10.483
18328W        W85396  12.336  44.355   3.250
18329W        W85397  38.965  10.657   3.192
18330W        W85398  37.510  40.827   2.183
18331W        W85399  18.079  23.515   4.139
18332W        W85400  31.044  19.188   4.270
18333W        W85401  43.782   7.217  14.908
18334W        W85402  13.834  13.817   2.376
18335W        W85403  30.431  43.399   3.725
18336W        W85404   4.732  17.089  12.877
18337W        W85405  13.646  40.999  12.907
18338W        W85406  43.437  17.151   1.872
18339W        W85407  39.990  35.597  13.398
18340W        W85408   3.865  25.609  14.396
18341W        W85409   1.890  25.601  12.343
18342W        W85410  30.586  43.764   2.404
18343W        W85411   8.807  41.425  11.553
18344W        W85412  19.600  35.007   4.783
18345W        W85413  13.244  42.843   0.333
18346W        W85414  32.490  24.540   0.792
18347W        W85415   1.810  28.169   2.223
18348W        W85416  20.108  22.685  11.000
18349W        W85417  41.019  37.573   9.976
18350W        W85418  17.680  18.273   2.685
18351W        W85419  36.080  35.945  12.428
18352W        W85420   3.763  39.355  14.375
18353W        W85421  24.050  16.252  10.537
18354W        W85422  43.513  12.616  13.379
18355W        W85423  28.531  44.920   4.654
18356W        W85424  42.815  36.899   4.676
18357W        W85425  10.231  13.803   3.735
18358W        W85426   6.806  38.926   4.836
18359W        W85427  36.368  36.504  12.823
18360W        W85428  22.243  30.927  14.386
18361W        W85429  41.937  33.526   0.469
18362W        W85430  17.182  38.881  13.381
18363W        W85431  24.051  31.972   3.660
18364W        W85432   3.266  21.249  13.458
18365W        W85433  30.098  42.325   0.266
18366W        W85434  19.654   4.368  13.874
18367W        W85435  23.211   2.847   4.713
18368W        W85436  31.573  41.419  11.940
18369W        W85437  17.164  33.404  14.793
18370W        W85438  19.241  30.091  12.527
18371W        W85439  27.578  23.104  13.533
18372W        W85440  35.460  20.135   3.290
18373W        W85441  25.164  42.015  13.402
18374W        W85442  39.926  36.908  13.321
18375W        W85443  15.671   6.882   4.745
18376W        W85444  28.459  30.473  10.625
18377W        W85445  31.903   1.956  14.413
18378W        W85446  28.571   9.868  13.955
18379W        W85447  15.287  19.220   0.479
18380W        W85448  42.495  40.023  12.894
18381W        W85449   0.281  12.322  12.506
18382W        W85450  44.795   1.449   2.769
18383W        W85451  11.626  31.461   2.819
18384W        W85452  19.673  32.539   2.284
18385W        W85453  15.304  20.545   4.124
18386W        W85454  41.846  30.103  13.515
18387W        W85455  42.857  19.733  13.040
18388W        W85456   3.391  44.455  14.514
18389W        W85457  41.471  22.610  14.918
18390W        W85458  17.629  38.970   4.837
18391W        W85459  20.600  30.549  12.002
18392W        W85460  24.136  31.634  11.007
18393W        W85461  38.963   0.759  10.993
18394W        W85462  26.156   6.226  14.463
18395W        W85463  12.738   9.203  13.020
18396W        W85464  18.118  32.480   2.216
18397W        W85465  23.073   1.959  13.477
18398W        W85466  43.824  16.570   3.835
18399W        W85467  29.953   2.866   0.800
18400W        W85468  28.523   0.756  12.492
18401W        W85469  35.464  44.813   2.875
18402W        W85470  37.484   1.376   4.159
18403W        W85471  10.781  33.001   0.930
18404W        W85472  41.983   5.740  10.508
18405W        W85473  40.321  20.723  14.382
18406W        W85474   4.733  33.059   4.255
18407W        W85475  44.404  23.155  11.900
18408W        W85476  35.567  42.450  13.490
18409W        W85477  37.957  14.592  14.029
18410W        W85478  21.051  29.597  12.579
18411W        W85479  17.749   9.316  11.908
18412W        W85480   9.159  18.102  10.638
18413W        W85481  12.754  22.041  12.092
18414W        W85482   2.227   6.191   9.945
18415W        W85483  27.531  29.063   1.320
18416W        W85484   9.304  15.140   4.753
18417W        W85485   0.761  15.795  13.433
18418W        W85486  39.551  42.946  10.927
18419W        W85487  27.945  24.121   0.874
18420W        W85488   1.470  23.667   0.359
18421W        W85489  26.100  19.265  13.539
18422W        W85490  32.137  40.457   5.227
18423W        W85491  33.502  38.958  13.884
18424W        W85492  26.576  38.494   1.929
18425W        W85493  42.807  24.169  11.974
18426W        W85494  33.990  43.318   4.289
18427W        W85495   7.269  21.699   4.283
18428W        W85496   9.688  17.771   4.833
18429W        W85497  25.588   1.417   4.817
18430W        W85498  32.002  15.692  10.579
18431W        W85499  26.031  33.941  13.945
18432W        W85500   8.163  40.825   4.717
18433W        W85501   8.170  41.810  11.513
18434W        W85502   0.332  41.396   1.250
18435W        W85503  28.583  18.628  14.432
18436W        W85504  38.369  32.128   0.409
18437W        W85505  18.567  30.015   4.236
18438W        W85506  28.183   9.223  10.120
18439W        W85507  39.906  17.169  12.019
18440W        W85508  42.320  35.510  13.002
18441W        W85509  27.028  13.314   2.340
18442W        W85510  42.451  32.102   4.307
18443W        W85511   5.689  35.475  14.469
18444W        W85512  44.451  24.566   1.885
18445W        W85513  32.003  30.439  11.590
18446W        W85514   6.858   3.357   4.632
18447W        W85515  11.850  20.668   4.676
18448W        W85516  43.858  38.971  12.884
18449W        W85517  19.159   4.889   2.797
18450W        W85518  14.708  22.209  13.007
18451W        W85519  10.775  43.953  11.520
18452W        W85520  40.369  13.807   1.807
18453W        W85521  39.049  39.436  11.599
18454W        W85522   6.375   2.918   1.408
18455W        W85523  22.057  13.709   3.386
18456W        W85524  17.581  32.518   1.221
18457W        W85525   3.226   9.154   4.659
18458W        W85526   4.892  30.929   2.698
18459W        W85527  33.012   3.915   2.760
18460W        W85528  40.975  35.919   2.740
18461W        W85529  33.056  13.636   4.778
18462W        W85530  14.825  24.072   2.181
18463W        W85531   9.789   3.276  13.361
18464W        W85532  21.103   6.218  13.421
18465W        W85533  36.954  12.809   2.337
18466W        W85534  39.849  28.176   2.278
18467W        W85535  32.412   5.830  13.906
18468W        W85536  21.531  36.911   9.471
18469W        W85537  44.304  21.751  13.424
18470W        W85538  29.966  17.244   2.708
18471W        W85539  16.726  16.284   2.903
18472W        W85540  40.445   5.864  10.906
18473W        W85541  34.044  33.539   2.767
18474W        W85542  34.421   3.310   0.868
18475W        W85543  29.038   8.843   1.370
18476W        W85544  34.476  34.533  12.947
18477W        W85545  23.597  27.558  11.860
18478W        W85546   3.435  18.162  14.476
18479W        W85547  30.930  23.705   1.925
18480W        W85548   0.421  16.642   3.215
18481W        W85549  10.289   9.865   1.376
18482W        W85550  28.640  19.749  12.514
18483W        W85551   7.835  12.161  14.876
18484W        W85552  10.784  27.996  11.933
18485W        W85553  43.921  18.657  13.535
18486W        W85554  10.219   9.815   3.382
18487W        W85555   8.237   0.806  13.471
18488W        W85556  16.131  23.638   4.693
18489W        W85557  15.687   0.359   0.444
18490W        W85558  36.484  31.498   2.277
18491W        W85559  32.019  36.976  10.905
18492W        W85560  12.646  39.028   5.250
18493W        W85561  11.843  24.498  14.433
18494W        W85562   5.256  14.245   4.831
18495W        W85563  15.328  27.512   0.390
18496W        W85564   2.905  14.323  12.389
18497W        W85565  17.248  22.084  12.007
18498W        W85566  39.532   1.394  14.837
18499W        W85567  19.705   4.712   3.650
18500W        W85568  17.770   4.851  11.577
18501W        W85569  22.214  32.018  11.604
18502W        W85570  34.444  36.570  12.466
18503W        W85571  20.247  33.409   4.683
18504W        W85572   3.404  18.203  10.580
18505W        W85573  32.076  24.089  11.941
18506W        W85574  32.030  15.720  12.875
18507W        W85575  31.551  43.870  13.387
18508W        W85576  14.645   6.337   4.115
18509W        W85577  29.460  14.791  14.895
18510W        W85578  40.842  18.084   1.302
18511W        W85579   9.710  31.623  12.833
18512W        W85580  17.631  14.286   1.866
18513W        W85581  19.173  16.292   3.377
18514W        W85582  13.181  26.006  14.009
18515W        W85583  41.375  31.150   2.220
18516W        W85584   5.341  40.453  11.974
18517W        W85585  41.859   8.884  10.489
18518W        W85586  18.703   6.404   3.365
18519W        W85587   4.730  20.028  10.576
18520W        W85588   4.422  27.041  12.859
18521W        W85589   7.372  26.671  10.574
18522W        W85590  31.424  15.211   0.865
18523W        W85591  22.517  35.926   0.779
18524W        W85592  28.464  29.100   2.696
18525W        W85593  36.410  38.563   1.740
18526W        W85594  23.544   8.869   1.387
18527W        W85595  22.028   9.712  14.955
18528W        W85596  44.830  43.441  14.874
18529W        W85597  20.531  35.984   3.373
18530W        W85598  32.037  29.037   1.713
18531W        W85599  13.754  44.409   2.397
18532W        W85600  40.378  16.675   0.390
18533W        W85601  34.109  25.659  14.947
18534W        W85602  35.485  32.538   0.359
18535W        W85603  30.006  32.549   3.682
18536W        W85604  18.594  17.650   4.195
18537W        W85605  35.530   3.260   3.163
18538W        W85606  37.413  21.696   1.695
18539W        W85607  20.246  11.686   4.638
18540W        W85608  42.944  15.197  13.836
18541W        W85609  35.978  19.638   3.638
18542W        W85610  34.908  13.719   4.734
18543W        W85611   2.963  19.576  11.020
18544W        W85612  38.413  12.282  12.086
18545W        W85613   2.755   1.315   0.371
18546W        W85614  11.334   1.938   1.882
18547W        W85615  29.948  25.098  12.397
18548W        W85616   4.314  34.054   4.619
18549W        W85617  34.983  27.670   3.370
18550W        W85618  18.643   4.299  10.966
18551W        W85619  44.470  43.907   4.598
18552W        W85620  38.341   4.902  11.571
18553W        W85621   1.755   3.303  11.485
18554W        W85622  40.540  39.339   3.214
18555W        W85623  29.572   7.840  11.404
18556W        W85624   3.296  22.634   2.201
18557W        W85625  25.195  30.432  11.501
18558W        W85626  43.389   0.834   1.882
18559W        W85627  41.920  17.085   1.739
18560W        W85628  34.520   2.242  12.339
18561W        W85629  40.899  24.690   2.216
18562W        W85630  40.998  12.186   4.693
18563W        W85631   6.811  30.138   3.320
18564W        W85632  12.232   7.672   0.423
18565W        W85633   1.265  35.515  14.304
18566W        W85634  16.266   0.862   3.246
18567W        W85635   1.854  11.786   1.851
18568W        W85636  37.969  41.297   1.882
18569W        W85637  28.069  34.580  14.283
18570W        W85638  42.419   2.727   2.752
18571W        W85639  40.308   4.735   3.340
18572W        W85640  42.812   0.483   0.933
18573W        W85641  15.233  23.638   2.190
18574W        W85642   8.295  18.258  14.379
18575W        W85643   5.308  39.986  11.065
18576W        W85644  35.531   6.361   3.660
18577W        W85645  23.569  23.994   1.332
18578W        W85646  40.811  19.222  14.785
18579W        W85647  17.185  18.656   9.955
18580W        W85648  27.031  40.885   1.850
18581W        W85649  43.332   2.868  11.114
18582W        W85650  15.802  31.078   0.743
18583W        W85651   5.840  12.815   2.370
18584W        W85652  36.382  13.316  14.437
18585W        W85653  26.017  17.284   0.878
18586W        W85654  26.487  38.480   3.220
18587W        W85655  38.842   5.789   4.649
18588W        W85656  14.782  35.951   3.350
18589W        W85657  43.793  34.997  12.933
18590W        W85658   3.422  34.043  14.939
18591W        W85659  33.050   3.279   4.810
18592W        W85660  33.525  28.949   1.844
18593W        W85661   1.849   5.358  14.363
18594W        W85662  12.255   1.846  14.357
18595W        W85663  14.737  40.334   4.597
18596W        W85664  36.875  12.166  13.899
18597W        W85665   2.784  32.461   2.329
18598W        W85666  20.688  32.478   2.699
18599W        W85667  29.423  38.819   0.906
18600W        W85668  17.070   6.256  13.909
18601W        W85669   9.823   5.203  13.307
18602W        W85670  26.642  39.965   2.398
18603W        W85671  30.447  41.426   4.336
18604W        W85672  38.923  14.678   0.790
18605W        W85673  41.814  35.917   2.740
18606W        W85674  30.979  20.137  12.977
18607W        W85675   3.935  42.821  12.503
18608W        W85676  44.400  39.908  14.481
18609W        W85677  14.272  30.474   0.939
18610W        W85678  38.959  34.973   2.887
18611W        W85679  24.689  26.968   4.281
18612W        W85680  19.163   6.688   1.909
18613W        W85681  18.759  17.103   4.320
18614W        W85682   5.258  17.192  10.044
18615W        W85683  21.220  31.910   4.322
18616W        W85684  35.968  29.145  14.928
18617W        W85685  25.004  42.882  12.470
18618W        W85686   1.813  35.887   2.859
18619W        W85687   1.842  41.020  14.866
18620W        W85688  28.633   3.326   2.236
18621W        W85689   9.814  19.536  13.838
18622W        W85690  11.267  35.572   3.228
18623W        W85691  20.712  29.646  12.029
18624W        W85692  17.260  33.037  14.421
18625W        W85693  29.926  15.230   0.912
18626W        W85694  32.906  34.935  10.641
18627W        W85695  29.555   4.850   4.738
18628W        W85696  38.551  36.068   1.272
18629W        W85697   5.863   8.749  12.825
18630W        W85698  32.015  19.236  12.567
18631W        W85699  20.146   9.800  14.902
18632W        W85700  22.022  36.437  14.913
18633W        W85701   9.695   1.917  14.768
18634W        W85702   5.924   7.786  14.394
18635W        W85703  29.133  11.267   1.413
18636W        W85704   1.253   4.319   4.158
18637W        W85705  18.195  44.878   3.240
18638W        W85706  36.481   1.407  11.610
18639W        W85707   0.973  27.956  14.829
18640W        W85708  41.319   0.353  14.422
18641W        W85709  43.842   9.773   2.714
18642W        W85710  33.486   2.239   1.225
18643W        W85711  39.474  16.301   0.380
18644W        W85712  42.342  40.534  14.512
18645W        W85713  23.652  23.003   2.274
18646W        W85714  31.088  12.236  12.543
18647W        W85715  22.022   2.461   3.659
18648W        W85716   3.351  14.220   3.171
18649W        W85717   2.243  36.446  14.834
18650W        W85718  24.716  20.178  10.510
18651W        W85719  25.657  12.362   1.797
18652W        W85720  31.446  10.207   2.325
18653W        W85721  14.215  24.508  11.032
18654W        W85722  29.046  42.424   3.639
18655W        W85723  41.353   3.859   0.892
18656W        W85724  12.813   2.807  14.796
18657W        W85725  44.809  22.192   4.629
18658W        W85726  26.614  24.054   5.291
18659W        W85727  21.130  14.133   4.227
18660W        W85728  33.889  22.672   2.272
18661W        W85729   3.305   3.258   3.241
18662W        W85730  26.195   0.309   2.732
18663W        W85731  24.678  19.124  14.366
18664W        W85732  33.535  13.633  14.380
18665W        W85733  25.582  42.979  11.892
18666W        W85734  26.590   9.694  14.503
18667W        W85735  33.561  14.734   1.729
18668W        W85736  42.483  30.025  13.021
18669W        W85737  18.706  34.982  13.402
18670W        W85738  14.116  43.333  14.023
18671W        W85739  10.373  28.938   2.323
18672W        W85740  31.445  27.183  11.928
18673W        W85741  12.307  12.242   0.439
18674W        W85742  21.115  37.410  10.041
18675W        W85743  19.132  16.176   1.218
18676W        W85744   1.433  19.274   2.307
18677W        W85745  19.150  37.535  11.493
18678W        W85746   1.261  36.389   4.245
18679W        W85747  38.341  26.101  12.845
18680W        W85748   5.259  27.982  14.024
18681W        W85749  30.483  14.198  14.316
18682W        W85750  34.397  16.086   3.260
18683W        W85751  11.130  31.904  14.820
18684W        W85752   9.183  35.089  13.347
18685W        W85753  27.569  31.103   4.165
18686W        W85754   4.203  22.529   2.682
18687W        W85755  40.398  18.135  11.494
18688W        W85756  28.960  22.249   2.746
18689W        W85757  41.799  44.278   0.315
18690W        W85758  19.677   6.268  11.954
18691W        W85759  34.066  29.028   3.691
18692W        W85760  37.423   3.737   1.865
18693W        W85761  14.786  16.214  12.851
18694W        W85762  15.110  33.131   0.835
18695W        W85763  11.254  41.018  14.963
18696W        W85764  17.171  14.635   0.756
18697W        W85765  44.808   7.373  12.497
18698W        W85766  41.827   3.418   2.795
18699W        W85767  39.477  19.226   4.794
18700W        W85768  37.381  18.664  11.511
18701W        W85769   3.739  41.844   0.783
18702W        W85770  11.192  12.142   3.715
18703W        W85771  16.311  15.181   4.760
18704W        W85772  16.747  18.780  12.878
18705W        W85773   7.331   8.690  11.499
18706W        W85774  43.345   4.445  10.937
18707W        W85775  42.424  21.626   3.814
18708W        W85776  29.503   0.817  11.506
18709W        W85777  36.058   5.848  10.909
18710W        W85778  17.588   6.262  13.025
18711W        W85779  16.798  16.100   1.912
18712W        W85780  40.922   3.720  10.930
18713W        W85781  36.885  42.343  14.979
18714W        W85782  21.601  29.464  14.000
18715W        W85783  19.560  19.241  12.877
18716W        W85784  38.913  35.107  14.491
18717W        W85785  31.582  28.469   9.657
18718W        W85786   7.335  22.083   1.250
18719W        W85787   5.739  21.724   4.173
18720W        W85788   5.325  32.553  14.019
18721W        W85789  40.997  14.171   1.805
18722W        W85790  28.174  10.177  11.606
18723W        W85791   6.697  39.344  13.015
18724W        W85792  28.073  42.992  11.399
18725W        W85793  28.636   2.759   4.633
18726W        W85794  22.662  27.685   1.842
18727W        W85795  36.931  15.088   3.189
18728W        W85796  13.778  17.578   2.888
18729W        W85797  36.444   9.684  14.318
18730W        W85798  17.778  13.292  12.075
18731W        W85799  44.875   8.797  14.856
18732W        W85800  23.077  11.662  13.406
18733W        W85801  32.408  40.881   0.382
18734W        W85802  42.358   2.276  12.566
18735W        W85803  15.610  37.915   2.847
18736W        W85804  29.053  35.016   1.309
18737W        W85805  41.826  29.104  12.850
18738W        W85806  43.956  42.864   1.764
18739W        W85807  12.359  10.724  14.947
18740W        W85808  40.343  11.788   4.266
18741W        W85809   4.294  27.136  10.481
18742W        W85810  29.005   0.489   0.482
18743W        W85811  39.440  30.091   1.228
18744W        W85812  44.853  31.086  14.829
18745W        W85813  15.110  12.320  13.366
18746W        W85814  13.676  13.176  10.501
18747W        W85815  34.422   1.904   3.763
18748W        W85816  23.151   5.873   3.261
18749W        W85817  15.251  44.010  12.934
18750W        W85818  31.040  32.044   9.964
18751W        W85819  21.129  10.784  13.874
18752W        W85820  25.475  19.638   4.323
18753W        W85821  42.359  14.780  12.967
18754W        W85822  12.740  34.411  13.348
18755W        W85823  30.644   1.786   1.249
18756W        W85824  34.022  31.461   1.783
18757W        W85825   5.803  16.718  11.508
18758W        W85826  36.487  29.119  11.973
18759W        W85827  35.103  28.014  11.050
18760W        W85828  23.027  22.062  12.990
18761W        W85829  17.564  40.423  10.906
18762W        W85830   1.899   0.395  13.875
18763W        W85831   6.677   7.746   1.786
18764W        W85832  14.155  41.488   1.423
18765W        W85833  32.010  15.218   5.319
18766W        W85834  17.243  26.540   5.127
18767W        W85835   4.261  18.223   4.686
18768W        W85836  28.966  22.644   0.385
18769W        W85837  38.017  28.167  10.533
18770W        W85838  28.446  24.004   4.679
18771W        W85839  16.126  11.630  13.409
18772W        W85840  44.895  14.771   3.846
18773W        W85841  35.054   0.357  12.869
18774W        W85842   7.831  43.986   0.318
18775W        W85843   2.729  28.641  10.964
18776W        W85844  36.067  22.695   1.374
18777W        W85845  18.597  31.491   1.848
18778W        W85846  20.154  13.768   2.874
18779W        W85847  34.972  33.568   3.664
18780W        W85848  41.444  35.503  11.051
18781W        W85849  44.325  20.244   4.229
18782W        W85850  13.125   3.376  14.009
18783W        W85851  41.491  40.952   0.256
18784W        W85852   6.707  10.649   1.255
18785W        W85853  18.667  33.450   3.740
18786W        W85854  38.513  44.387  14.888
18787W        W85855  29.533  26.136  10.561
18788W        W85856   4.724  13.105   2.377
18789W        W85857  11.757  36.537   4.333
18790W        W85858  23.613  43.948  13.935
18791W        W85859   1.301  14.617   4.280
18792W        W85860   9.697  34.933  14.511
18793W        W85861  38.537   7.769  11.411
18794W        W85862  38.435  14.788   1.282
18795W        W85863   3.384  31.467   3.843
18796W        W85864  18.735  19.095  10.428
18797W        W85865  36.861  28.011   1.837
18798W        W85866   8.184   3.844  14.834
18799W        W85867  40.000   6.391  11.068
18800W        W85868  26.515  18.706   1.269
18801W        W85869   5.435  34.112  14.341
18802W        W85870  39.425   2.416  11.925
18803W        W85871  10.737   8.187  12.912
18804W        W85872   2.912  26.165  14.328
18805W        W85873   5.764  13.275  11.045
18806W        W85874  27.635  43.327  12.073
18807W        W85875  18.149  35.895   0.356
18808W        W85876  28.591  31.452  10.080
18809W        W85877  20.049   9.848  13.522
18810W        W85878  11.282  31.932  14.372
18811W        W85879  28.080  37.059   4.632
18812W        W85880   2.351  12.224   1.433
18813W        W85881  10.144  29.600   0.855
18814W        W85882   0.984  44.815   1.275
18815W        W85883  17.730   1.836  12.381
18816W        W85884  11.226  37.382  11.127
18817W        W85885  35.973  44.900   4.311
18818W        W85886  23.652  15.173  14.852
18819W        W85887  21.114  42.007   1.725
18820W        W85888  11.298  42.308  12.955
18821W        W85889  18.152  22.185  13.919
18822W        W85890  23.121  28.935  10.536
18823W        W85891   3.335  29.504   1.330
18824W        W85892  15.711  31.408   4.122
18825W        W85893  34.991  23.701  13.950
18826W        W85894  10.717   8.697   0.262
18827W        W85895  14.194  14.251   4.786
18828W        W85896  19.673   3.257  12.573
18829W        W85897  18.148  21.078   2.674
18830W        W85898   6.761   7.880   3.739
18831W        W85899  27.123  27.550  10.977
18832W        W85900  27.191  11.839   3.775
18833W        W85901  34.466  39.518   1.845
18834W        W85902   1.895  33.399   2.270
18835W        W85903  14.835  19.091   4.691
18836W        W85904  38.503  36.851  12.976
18837W        W85905  19.683   6.883   2.277
18838W        W85906  42.424   1.287  14.850
18839W        W85907  19.552  29.167   3.357
18840W        W85908  20.254   5.286  11.595
18841W        W85909   7.711  26.547   0.470
18842W        W85910  22.147  17.231   3.211
18843W        W85911   1.926   1.391   2.844
18844W        W85912  31.015  11.241   0.830
18845W        W85913   5.743  25.136   2.859
18846W        W85914  42.397  12.248   0.805
18847W        W85915  18.286  10.736   3.208
18848W        W85916  17.227  30.552  14.322
18849W        W85917  26.658  16.302   3.645
18850W        W85918  11.680  33.483  10.997
18851W        W85919  14.725  28.671   3.264
18852W        W85920  11.745  13.636   4.605
18853W        W85921  36.460  27.648   0.416
18854W        W85922  24.153  42.020   5.293
18855W        W85923  39.451  32.547   2.356
18856W        W85924  10.204  15.661  12.354
18857W        W85925  40.417  23.723  14.806
18858W        W85926   5.737   1.938   3.191
18859W        W85927  32.014  10.340   2.382
18860W        W85928  17.586  28.969  11.861
18861W        W85929   2.461  30.992  14.449
18862W        W85930  41.442  13.335  10.947
18863W        W85931   2.436  18.236   2.227
18864W        W85932  22.055  24.573   4.804
18865W        W85933  12.177   8.280   1.719
18866W        W85934   3.834  29.065   4.838
18867W        W85935  40.054  34.944  12.978
18868W        W85936  38.975  25.600   4.182
18869W        W85937  15.653  18.057   4.343
18870W        W85938   5.278  28.008  11.387
18871W        W85939   2.837  22.722  11.454
18872W        W85940  26.586  10.285   0.762
18873W        W85941  29.474  43.819  11.538
18874W        W85942  16.769  20.524  14.894
18875W        W85943  37.439  38.848  11.394
18876W        W85944  42.928  32.453   4.674
18877W        W85945  42.033  12.766   0.294
18878W        W85946   5.325   7.715   2.269
18879W        W85947  14.782  34.117   3.792
18880W        W85948  11.806  32.975  13.310
18881W        W85949  38.062   3.833   3.733
18882W        W85950  40.854   9.740  13.857
18883W        W85951  22.608   3.417  12.952
18884W        W85952  43.405  31.104   1.254
18885W        W85953  19.671  44.444   3.192
18886W        W85954   7.787   9.295  11.524
18887W        W85955  34.380  35.600  11.589
18888W        W85956   2.378  30.430  12.944
18889W        W85957  11.337  17.193   3.741
18890W        W85958  40.014   0.256   4.698
18891W        W85959  11.735  10.303   5.158
18892W        W85960  13.154  14.280   3.634
18893W        W85961  41.921  36.498   0.739
18894W        W85962  40.870  38.872   3.732
18895W        W85963  23.988  28.997  13.980
18896W        W85964   6.337   6.323  13.404
18897W        W85965  41.926  39.863   4.639
18898W        W85966  44.385  13.300  13.427
18899W        W85967  39.472  30.498   4.789
18900W        W85968   6.293  11.783  12.982
18901W        W85969   0.365  32.129  13.447
18902W        W85970   8.230   1.339   4.646
18903W        W85971   7.252  15.142   4.764
18904W        W85972  22.683  41.925   3.831
18905W        W85973  24.592  29.667  14.292
18906W        W85974  42.798  37.485   5.106
18907W        W85975   0.312  43.950  12.490
18908W        W85976  17.288  34.112  14.828
18909W        W85977  43.359   7.350  12.932
18910W        W85978  37.999   3.369  13.921
18911W        W85979  11.218  17.576   0.251
18912W        W85980  43.844   6.701  14.323
18913W        W85981  38.436  19.761  14.296
18914W        W85982   6.748  35.039  11.470
18915W        W85983  22.682  19.653   3.720
18916W        W85984  35.923  25.598  13.808
18917W        W85985  22.697   0.322   1.276
18918W        W85986   8.390  36.509  10.568
18919W        W85987  23.699  31.634   0.869
18920W        W85988   5.437   9.769   2.399
18921W        W85989  16.692   7.353  11.035
18922W        W85990  18.647  32.007  12.835
18923W        W85991  42.349  37.571  13.341
18924W        W85992  33.588  22.046   2.393
18925W        W85993  35.929  38.914   4.198
18926W        W85994  24.018  11.361  10.480
18927W        W85995  22.626  33.062   2.901
18928W        W85996  20.192  37.475   1.236
18929W        W85997  15.792  27.662   3.706
18930W        W85998  24.648  36.503   0.874
18931W        W85999  34.544  32.123   4.270
18932W        W86000  40.471   8.900   4.133
18933W        W86001  17.659  40.885  11.988
18934W        W86002  18.749  42.320  11.375
18935W        W86003   4.878   5.331   4.678
18936W        W86004  11.188  14.125   3.720
18937W        W86005  33.588   5.822  14.907
18938W        W86006  10.363   9.283   3.847
18939W        W86007  43.475  13.199   0.751
18940W        W86008  35.401  42.841   4.636
18941W        W86009  33.979  15.232  10.639
18942W        W86010  27.955   3.240   0.742
18943W        W86011   7.704   2.360  11.862
18944W        W86012  29.962  39.970  13.927
18945W        W86013  43.917  22.565  14.934
18946W        W86014  28.517  36.552  14.333
18947W        W86015   4.911  37.440  10.613
18948W        W86016  28.953  25.564   3.820
18949W        W86017  44.370  36.475  12.510
18950W        W86018  40.417  25.631  10.605
18951W        W86019  12.648  18.693  13.909
18952W        W86020  11.770   7.239   0.871
18953W        W86021   1.290  18.594   1.809
18954W        W86022  38.988   4.736  13.899
18955W        W86023  38.354  19.636  13.385
18956W        W86024  24.500  30.065   0.748
18957W        W86025  38.835   1.873  13.014
18958W        W86026  42.516   0.395   0.944
18959W        W86027  12.124  17.260  13.367
18960W        W86028  23.989   9.362  12.895
18961W        W86029  43.999  38.518  14.798
18962W        W86030  30.163   8.326   0.876
18963W        W86031  29.565  13.630  13.894
18964W        W86032  16.145  44.355  12.356
18965W        W86033  18.236   4.313  14.367
18966W        W86034  34.051   1.265  13.018
18967W        W86035  34.870   1.463  11.502
18968W        W86036  10.731  13.308  14.777
18969W        W86037  16.300  44.857  14.343
18970W        W86038  19.574  44.847  13.364
18971W        W86039  15.270  16.778   0.268
18972W        W86040  42.433  18.582   2.321
18973W        W86041  19.589  40.811   0.904
18974W        W86042  27.013  37.519   1.709
18975W        W86043  17.623  17.787  12.453
18976W        W86044  18.090  35.543   4.668
18977W        W86045  16.595  10.326   2.230
18978W        W86046  22.734   1.842   1.897
18979W        W86047  40.347  38.831  13.461
18980W        W86048  35.896  43.317   4.816
18981W        W86049  21.125  43.895  14.275
18982W        W86050   6.681   5.698  13.470
18983W        W86051  10.286  23.733   3.253
18984W        W86052  24.119   5.873   0.384
18985W        W86053  17.219  19.710   0.961
18986W        W86054  25.018  37.424  10.956
18987W        W86055  27.962  14.711   2.772
18988W        W86056  44.883   7.816   4.653
18989W        W86057   1.391   1.752  11.607
18990W        W86058  14.823  19.728  11.872
18991W        W86059  13.745  36.935   3.689
18992W        W86060  13.741  39.993  11.558
18993W        W86061  21.703  12.642   1.264
18994W        W86062  42.901   5.881  13.309
18995W        W86063   8.290   4.339   3.216
18996W        W86064  33.972  39.960   0.805
18997W        W86065   9.324  18.098   4.712
18998W        W86066  44.400  25.659  11.484
18999W        W86067   9.328   7.312   3.844
19000W        W86068  31.432  22.090  11.914
19001W        W86069   6.268  18.679  12.569
19002W        W86070  22.107  25.527   0.955
19003W        W86071  17.735  22.630  11.514
19004W        W86072  38.906  21.017  12.923
19005W        W86073   3.750   0.337   4.639
19006W        W86074  26.571  27.980  13.046
19007W        W86075  18.649  30.960   2.719
19008W        W86076  39.928  39.364   1.759
19009W        W86077  33.574  20.746  13.377
19010W        W86078  34.103  20.035  12.016
19011W        W86079  34.074  17.586   2.253
19012W        W86080  11.837  22.225   3.751
19013W        W86081  37.442  13.141  14.396
19014W        W86082  39.400  42.989  13.980
19015W        W86083  11.826  11.638   1.842
19016W        W86084  31.471  20.060   4.240
19017W        W86085   5.281  14.683  12.445
19018W        W86086  34.867  36.983   1.734
19019W        W86087  22.595   6.764   2.802
19020W        W86088  15.730  18.757   1.857
19021W        W86089  29.438  16.625  14.321
19022W        W86090  34.584  38.348  12.565
19023W        W86091   0.926  18.267  13.791
19024W        W86092  44.798  42.316   4.821
19025W        W86093  34.090   1.294   2.258
19026W        W86094  43.420  27.659  14.325
19027W        W86095   9.336  41.355   3.635
19028W        W86096  11.662   2.233   2.371
19029W        W86097  34.081  39.019  10.574
19030W        W86098  19.051  16.808  10.467
19031W        W86099  12.188  20.246   2.688
19032W        W86100  30.135  37.842  13.944
19033W        W86101  29.084  42.464  12.013
19034W        W86102   6.813   2.319   3.207
19035W        W86103  30.534  18.652   2.863
19036W        W86104  29.003  18.575   4.282
19037W        W86105  38.510  44.758   0.470
19038W        W86106   4.303  39.836  14.340
19039W        W86107  21.156  31.049  14.352
19040W        W86108  34.471  17.783   3.321
19041W        W86109  42.928  18.068   0.327
19042W        W86110  10.655  41.883   2.290
19043W        W86111  43.007  14.604   0.291
19044W        W86112  13.142  34.058   4.703
19045W        W86113  23.102  18.574   4.250
19046W        W86114  17.193  25.634  12.826
19047W        W86115  28.599  43.011   4.202
19048W        W86116  43.339   8.856  12.011
19049W        W86117  28.669   5.238   1.798
19050W        W86118   9.824  23.241  14.456
19051W        W86119  10.731   1.456  13.464
19052W        W86120  27.006  25.659   0.394
19053W        W86121  42.870  40.330   3.274
19054W        W86122   3.456  43.476   1.762
19055W        W86123  21.254  31.010  12.835
19056W        W86124   3.380  31.968   1.396
19057W        W86125  36.966  41.373  10.417
19058W        W86126   5.242  22.161  13.036
19059W        W86127   2.759  29.064   4.166
19060W        W86128   1.772  42.349  13.966
19061W        W86129  34.038  24.134   2.399
19062W        W86130  15.795  38.546   2.792
19063W        W86131  41.786  38.369  13.356
19064W        W86132   4.877  28.964   3.725
19065W        W86133   9.662  41.324   2.826
19066W        W86134  24.082  22.028  11.917
19067W        W86135  18.556  43.461   4.764
19068W        W86136  17.723   7.178  13.987
19069W        W86137  14.152  23.204   4.693
19070W        W86138  19.559  26.541  14.852
19071W        W86139  39.313  43.406   1.854
19072W        W86140  25.575  40.303   4.351
19073W        W86141  34.086  33.883   0.875
19074W        W86142  32.546  22.214  14.821
19075W        W86143  13.744  31.956  13.458
19076W        W86144  24.486   1.755  14.450
19077W        W86145   6.190  37.430  14.304
19078W        W86146  30.930  19.569  14.333
19079W        W86147  24.126  34.376   4.668
19080W        W86148  35.002  34.072   0.868
19081W        W86149   0.384  44.996  11.866
19082W        W86150  19.163  38.419  11.078
19083W        W86151  44.318  31.501  11.961
19084W        W86152   9.657  34.494  11.062
19085W        W86153  14.122   2.959  14.334
19086W        W86154  22.062  20.578  13.496
19087W        W86155  31.433   4.866   9.982
19088W        W86156  44.877  27.998  14.897
19089W        W86157  33.097   4.905   3.715
19090W        W86158  33.928   2.720   3.174
19091W        W86159  34.957  44.385   1.791
19092W        W86160  19.660  41.364   0.425
19093W        W86161   4.832  25.645  14.423
19094W        W86162  23.018  26.099   3.215
19095W        W86163  22.188  41.824  11.009
19096W        W86164  13.787   9.779   4.309
19097W        W86165  33.524  23.670  10.120
19098W        W86166  18.711  39.983  14.976
19099W        W86167  35.457  16.167   0.766
19100W        W86168   3.236  35.370   3.693
19101W        W86169  17.675  26.681  13.347
19102W        W86170  32.077  32.934  12.009
19103W        W86171  20.650  35.932  11.081
19104W        W86172  44.902   8.301   0.763
19105W        W86173  15.726  31.054  11.400
19106W        W86174  18.580   4.315  14.318
19107W        W86175  32.996  19.693   1.767
19108W        W86176  17.268  42.471   4.284
19109W        W86177   0.318   0.446  13.898
19110W        W86178  16.807  43.273   4.252
19111W        W86179  37.375   0.758   0.274
19112W        W86180  34.028  22.127  13.481
19113W        W86181  44.288  39.485   2.316
19114W        W86182   0.937  12.849   0.947
19115W        W86183  22.521   5.846   1.880
19116W        W86184  18.215  36.506   2.179
19117W        W86185  37.368  29.975  10.463
19118W        W86186  42.308  14.302   2.412
19119W        W86187  13.344   9.267  14.978
19120W        W86188  21.714  35.097   1.288
19121W        W86189  39.899  32.574   2.262
19122W        W86190  32.571  11.154   2.887
19123W        W86191   1.327  21.027   2.700
19124W        W86192   1.476  35.042  11.888
19125W        W86193  27.578  16.152  13.310
19126W        W86194  13.170  22.129  11.108
19127W        W86195  17.557  21.549  12.524
19128W        W86196  29.664  26.635  10.965
19129W        W86197  35.482  19.666  11.121
19130W        W86198   7.790  11.720   0.267
19131W        W86199  28.154  10.776   2.287
19132W        W86200  38.568  42.873   0.293
19133W        W86201  29.568  15.648   3.307
19134W        W86202  23.155  30.080   3.371
19135W        W86203   1.441  44.372  12.958
19136W        W86204  39.884  43.466   3.812
19137W        W86205  15.280  15.655   3.869
19138W        W86206  37.084   0.888   3.228
19139W        W86207  25.471  14.743   2.862
19140W        W86208  37.964  25.045   2.294
19141W        W86209  18.751  39.344   3.781
19142W        W86210   8.205  33.386  12.503
19143W        W86211  17.593  20.245  12.556
19144W        W86212  28.041  14.263   4.293
19145W        W86213  18.582   4.898   1.810
19146W        W86214  25.473  14.172   0.468
19147W        W86215  24.221  20.541   4.297
19148W        W86216  15.210  21.134  12.453
19149W        W86217   8.714   0.338  11.010
19150W        W86218  29.617   6.805  12.981
19151W        W86219  36.899  43.897  12.493
19152W        W86220  18.790  25.692   0.251
19153W        W86221  28.129  31.096  10.533
19154W        W86222  43.916  43.465  12.457
19155W        W86223  39.344  38.477   3.674
19156W        W86224  30.550  27.446  11.905
19157W        W86225   7.360  11.741   2.396
19158W        W86226  32.922   0.772  12.368
19159W        W86227  30.151   7.786   4.666
19160W        W86228   9.265   0.446  12.004
19161W        W86229  36.933   6.745   0.849
19162W        W86230   1.293  30.583  12.555
19163W        W86231  33.443   1.460  12.884
19164W        W86232  44.978  10.274   0.337
19165W        W86233  16.765  12.316   0.804
19166W        W86234   1.868  39.027  14.788
19167W        W86235  42.028  43.334   2.795
19168W        W86236  19.665  32.890  12.539
19169W        W86237   1.972  22.063  12.459
19170W        W86238   2.892   2.293   4.127
19171W        W86239   3.398   8.318   4.807
19172W        W86240  36.095  29.084   0.317
19173W        W86241  12.335  10.167  12.865
19174W        W86242  30.078  23.529  14.032
19175W        W86243  12.790  30.949  11.955
19176W        W86244  39.866  28.181  13.463
19177W        W86245   7.363   4.223  13.967
19178W        W86246  12.263  24.683  11.407
19179W        W86247   6.884  17.657  14.786
19180W        W86248  17.189   2.729   1.757
19181W        W86249   2.949  36.934   0.789
19182W        W86250  12.254   4.788  10.529
19183W        W86251   7.373  20.054  11.861
19184W        W86252  39.890  25.995  13.895
19185W        W86253  20.081  25.657  12.075
19186W        W86254  39.014  21.564   1.867
19187W        W86255  10.826  10.634  11.942
19188W        W86256   0.366  42.787  10.536
19189W        W86257  42.386  32.032   0.865
19190W        W86258  34.577  38.868   1.371
19191W        W86259  10.809  41.398   2.376
19192W        W86260   5.752  17.611   0.276
19193W        W86261  18.734  33.891   4.163
19194W        W86262  14.263  31.102   3.758
19195W        W86263  17.099   4.343  13.048
19196W        W86264   3.807   2.297   1.733
19197W        W86265   1.785  44.400  10.911
19198W        W86266  18.246  22.072  12.906
19199W        W86267  21.712  12.764   3.856
19200W        W86268  34.966  37.945   4.628
19201W        W86269  32.405  38.510  10.974
19202W        W86270  32.590  37.383   2.829
19203W        W86271   7.731   4.364   2.822
19204W        W86272  38.438  26.493   0.791
19205W        W86273   0.451   6.255  14.967
19206W        W86274  17.778  38.533  12.443
19207W        W86275  34.395   0.361   1.320
19208W        W86276  30.072  28.948   0.904
19209W        W86277  38.394   0.303  10.554
19210W        W86278  37.926   6.835  12.955
19211W        W86279  38.409  21.113  12.551
19212W        W86280  21.156  25.194  12.526
19213W        W86281  28.960   4.937  14.909
19214W        W86282  38.539  20.572   2.367
19215W        W86283   5.198   0.775   2.214
19216W        W86284  34.912   4.764   1.868
19217W        W86285  44.473  26.508  11.555
19218W        W86286  42.834   2.270  11.016
19219W        W86287  42.830  12.831  14.325
19220W        W86288  44.427  27.537   3.719
19221W        W86289  35.531  41.405  13.901
19222W        W86290  23.215  19.054   0.279
19223W        W86291   4.910  26.552   3.831
19224W        W86292  13.796  42.494  13.476
19225W        W86293  23.629   4.699  11.456
19226W        W86294  29.651   7.229  10.462
19227W        W86295  29.425  38.436  11.452
19228W        W86296   9.377  32.594  11.050
19229W        W86297  32.068   9.360   4.341
19230W        W86298  26.033  10.783  13.792
19231W        W86299  41.868  37.025  10.562
19232W        W86300  40.941  21.212  10.458
19233W        W86301   3.891  34.934  12.917
19234W        W86302   0.460  33.034   0.871
19235W        W86303  37.973  44.376   2.281
19236W        W86304   5.203  37.929   3.181
19237W        W86305  39.886  31.932   1.408
19238W        W86306  25.007  32.895   3.155
19239W        W86307  28.158   5.335  14.403
19240W        W86308  19.533  22.564  11.004
19241W        W86309  41.499  19.712  13.832
19242W        W86310  18.703  30.146  11.413
19243W        W86311  37.911  19.660   5.282
19244W        W86312  30.604  36.429  13.454
19245W        W86313  14.594  21.681  12.544
19246W        W86314  28.954  35.095   0.396
19247W        W86315  31.952  12.256  10.510
19248W        W86316   4.835  15.608   0.250
19249W        W86317  38.887  42.901   2.372
19250W        W86318  10.296  35.946   1.230
19251W        W86319  18.287  17.608  13.886
19252W        W86320  19.039  32.922   4.185
19253W        W86321  37.404  17.666   0.449
19254W        W86322  26.488  41.831   2.334
19255W        W86323  37.086  19.111   2.243
19256W        W86324  40.002   2.395   2.868
19257W        W86325  33.406  17.229  10.525
19258W        W86326  27.486  34.877   1.761
19259W        W86327  23.619  27.992  12.401
19260W        W86328   0.395  28.044   0.808
19261W        W86329  25.070  39.879  10.412
19262W        W86330  18.108  35.067  12.824
19263W        W86331  25.067   7.410  12.431
19264W        W86332  20.087  35.560   0.314
19265W        W86333   2.769  36.086   0.900
19266W        W86334  17.686   5.224   0.951
19267W        W86335  20.203   2.965   4.261
19268W        W86336  23.562  36.516   3.332
19269W        W86337  37.071   4.229  11.925
19270W        W86338   9.791   1.272   1.259
19271W        W86339  24.039   0.948  12.954
19272W        W86340  36.424  27.468   0.898
19273W        W86341   2.795  14.651   3.800
19274W        W86342   8.764  40.371  12.410
19275W        W86343   3.821  39.424  13.494
19276W        W86344  35.035  44.864  10.468
19277W        W86345   9.675  14.252  11.097
19278W        W86346  29.173  21.722  10.522
19279W        W86347   3.284  17.568   2.187
19280W        W86348  10.698  41.860  13.002
19281W        W86349  14.651  27.943  13.338
19282W        W86350  39.523  38.050   3.632
19283W        W86351   0.309  38.930  10.449
19284W        W86352   8.839  33.621   1.235
19285W        W86353   8.699  41.947   2.284
19286W        W86354  31.606  26.160   1.431
19287W        W86355  42.780  21.037   1.415
19288W        W86356  31.928   9.340   2.290
19289W        W86357  36.465  44.839   3.199
19290W        W86358  22.646   0.871  11.554
19291W        W86359   6.243   8.160  13.894
19292W        W86360  31.545  28.627  10.975
19293W        W86361  15.651  21.113  14.503
19294W        W86362  11.237  18.728  14.300
19295W        W86363  37.353   2.755   4.138
19296W        W86364  24.483  26.678   4.120
19297W        W86365   7.901  37.581  10.565
19298W        W86366   8.271  36.028   4.691
19299W        W86367  10.766  21.064   1.226
19300W        W86368  40.046  36.880   0.462
19301W        W86369   0.288  21.716  11.992
19302W        W86370   7.727  36.065  13.436
19303W        W86371  36.880  17.155  10.578
19304W        W86372  33.070  35.374   2.411
19305W        W86373  17.739  10.158  11.457
19306W        W86374  34.472  33.476  13.328
19307W        W86375  26.656  42.498   2.730
19308W        W86376  42.439   1.365  11.445
19309W        W86377  21.129  21.178   1.702
19310W        W86378  26.952  33.535  14.515
19311W        W86379  18.689  33.440   1.276
19312W        W86380  37.072   7.786   4.323
19313W        W86381  35.472   0.778   4.699
19314W        W86382  27.533  11.642  14.424
19315W        W86383   8.285  39.866  12.550
19316W        W86384  32.016  12.819   0.425
19317W        W86385  35.552  39.477   3.378
19318W        W86386   0.837   6.275  15.000
19319W        W86387  43.787  26.618   4.822
19320W        W86388   2.357  32.566   4.286
19321W        W86389  10.852  16.245  13.466
19322W        W86390  30.022   9.209  13.396
19323W        W86391  36.512  34.416  10.628
19324W        W86392  35.956  30.517   2.743
19325W        W86393  40.476  39.927   2.202
19326W        W86394  12.283  20.093   0.761
19327W        W86395  43.426  11.338  11.484
19328W        W86396  15.200  25.124  14.865
19329W        W86397  25.657   0.815   1.231
19330W        W86398  21.588   6.722  14.423
19331W        W86399   6.281  41.486   5.223
19332W        W86400  14.825  19.174   0.832
19333W        W86401  10.868  11.685  10.502
19334W        W86402  33.010  14.314   2.786
19335W        W86403   7.685   7.307   2.181
19336W        W86404   4.854  14.278  14.431
19337W        W86405  21.062  28.179   5.227
19338W        W86406  20.742  32.891  12.418
19339W        W86407  20.571  27.524  12.957
19340W        W86408  28.624  18.087  12.420
19341W        W86409  17.209  27.532  13.817
19342W        W86410  25.018  17.293   2.710
19343W        W86411  30.630   7.887   3.176
19344W        W86412  40.337  12.625  12.986
19345W        W86413  32.103  39.817   4.616
19346W        W86414  21.683  30.980  12.944
19347W        W86415  36.584  14.124  11.611
19348W        W86416  12.850  23.683   0.873
19349W        W86417  11.749  40.503   1.755
19350W        W86418   2.872  21.738   3.219
19351W        W86419  34.903  36.568  12.503
19352W        W86420  34.039   9.343  14.976
19353W        W86421   0.768  23.566   4.801
19354W        W86422   9.677  37.566   0.332
19355W        W86423   5.715  25.522   3.378
19356W        W86424  36.051  36.965  12.525
19357W        W86425  28.470   9.888   2.689
19358W        W86426  42.405  11.322  14.794
19359W        W86427  33.011  27.456  14.405
19360W        W86428  44.333  41.315   0.886
19361W        W86429  23.020  20.064   4.819
19362W        W86430  34.033  12.142   3.745
19363W        W86431  29.490  29.488   1.216
19364W        W86432  19.670  32.126  12.514
19365W        W86433  21.064  22.130   2.353
19366W        W86434   3.730  16.298   0.399
19367W        W86435   6.223  31.910   5.149
19368W        W86436  31.424  18.278  13.891
19369W        W86437  37.056   7.256  12.436
19370W        W86438  21.158  25.031  10.567
19371W        W86439  10.242  25.711   3.327
19372W        W86440  36.407  29.058  14.369
19373W        W86441  42.977  38.343  11.449
19374W        W86442   0.465   8.822   0.941
19375W        W86443  39.531   0.950  13.025
19376W        W86444   2.243  40.840   1.767
19377W        W86445  14.712   5.868   2.738
19378W        W86446  19.575  16.124  10.913
19379W        W86447  36.047  44.413  14.316
19380W        W86448   1.971  43.864   1.344
19381W        W86449  31.510  23.542   5.103
19382W        W86450  26.058   8.169   3.304
19383W        W86451  31.418  29.150   3.236
19384W        W86452  33.418  32.590   4.306
19385W        W86453  25.208  17.684  11.873
19386W        W86454  20.668  19.064  11.490
19387W        W86455  29.003  30.600   3.805
19388W        W86456  21.132  36.521  14.956
19389W        W86457   5.879  33.395  12.473
19390W        W86458  36.424  12.337  11.935
19391W        W86459   0.462  44.390   3.833
19392W        W86460  18.248   4.387  13.868
19393W        W86461  28.962   9.645   1.320
19394W        W86462  31.137  21.024   1.710
19395W        W86463   0.761  41.412  11.917
19396W        W86464  24.186  32.930   4.615
19397W        W86465   3.454  24.177   0.741
19398W        W86466  16.788  16.629   1.395
19399W        W86467  35.550  39.956  10.581
19400W        W86468  24.988  39.859   1.258
19401W        W86469   6.361   1.407   1.842
19402W        W86470  40.022   4.752  12.557
19403W        W86471  21.625  24.217   2.300
19404W        W86472  38.419  37.984  10.916
19405W        W86473   4.376  28.945  14.861
19406W        W86474  23.539  27.057  13.902
19407W        W86475  38.992  28.068  12.969
19408W        W86476  16.281  10.751   2.209
19409W        W86477  10.678  39.374   1.932
19410W        W86478  30.037  11.705  13.973
19411W        W86479  12.842  33.927  11.948
19412W        W86480  40.868  39.905   1.706
19413W        W86481  41.321  38.472   3.295
19414W        W86482   2.291   6.393   1.741
19415W        W86483  37.461  21.603   3.687
19416W        W86484   8.403  32.944   4.171
19417W        W86485   6.800  17.300   1.836
19418W        W86486   8.349  32.552  10.505
19419W        W86487  19.777  18.219   4.310
19420W        W86488  13.289  30.595   0.850
19421W        W86489  20.675  25.142  14.975
19422W        W86490  33.572  26.121  12.369
19423W        W86491  31.592   0.942   4.648
19424W        W86492  35.965   8.336  12.898
19425W        W86493  38.934  43.386  14.878
19426W        W86494  30.504  10.254   2.207
19427W        W86495  22.530  21.102   1.768
19428W        W86496   3.756  26.565  11.564
19429W        W86497  12.238  40.804   2.872
19430W        W86498  37.971   7.361  13.962
19431W        W86499   5.297  12.670   4.336
19432W        W86500  18.093  25.581   0.282
19433W        W86501  12.840  25.685   2.358
19434W        W86502   7.793  30.088  10.618
19435W        W86503  14.125  15.636   4.197
19436W        W86504   2.321  32.585   2.682
19437W        W86505  15.289  39.022  14.881
19438W        W86506  17.095  26.506   2.296
19439W        W86507   8.294  18.234  14.862
19440W        W86508  40.014   6.792   0.290
19441W        W86509  20.218  32.396   3.204
19442W        W86510  15.815  28.486  12.039
19443W        W86511  27.612  39.319  14.405
19444W        W86512  35.534  13.604   1.812
19445W        W86513  27.631   6.238   1.360
19446W        W86514  31.987  20.102  14.330
19447W        W86515  28.172  41.377  10.915
19448W        W86516  13.716  34.466   0.326
19449W        W86517  35.434  10.832  13.818
19450W        W86518  29.972  16.604   5.240
19451W        W86519  25.591   7.905   2.745
19452W        W86520  11.842  43.509   2.862
19453W        W86521  28.581  15.606  13.454
19454W        W86522  33.597   0.747   1.224
19455W        W86523   9.290  14.797   2.822
19456W        W86524  18.106  33.502  14.340
19457W        W86525   2.779  34.414   9.933
19458W        W86526  20.681   0.337  13.881
19459W        W86527   4.942  39.474  12.953
19460W        W86528  12.136   6.738  11.386
19461W        W86529  37.478  36.979  14.789
19462W        W86530   4.786   4.929  10.628
19463W        W86531   1.296   0.303  14.282
19464W        W86532  33.104  37.849  13.997
19465W        W86533  33.083  41.890  13.464
19466W        W86534   1.379  37.455   0.483
19467W        W86535  16.308  38.360   0.752
19468W        W86536   6.304   4.322   0.782
19469W        W86537   9.785  20.565   4.778
19470W        W86538  41.931  39.813   1.297
19471W        W86539  34.116  43.272  12.556
19472W        W86540  32.037  16.317   1.849
19473W        W86541  11.254  34.029   4.794
19474W        W86542  12.204   9.187  11.461
19475W        W86543  30.412  15.693   4.350
19476W        W86544   0.952   9.232  10.946
19477W        W86545  22.642  13.308  10.632
19478W        W86546  21.733   0.839  14.929
19479W        W86547  12.633  30.630  13.444
19480W        W86548  37.502  41.845   0.364
19481W        W86549  10.249  34.556   0.448
19482W        W86550  35.878  41.934   4.157
19483W        W86551   1.393  20.078  12.359
19484W        W86552   8.360   7.805  13.993
19485W        W86553  32.922  38.961   4.164
19486W        W86554  22.585   0.265  10.961
19487W        W86555  34.990   3.367  10.052
19488W        W86556  41.881   9.854   0.371
19489W        W86557  30.975   9.301  12.975
19490W        W86558  28.446  22.727   3.678
19491W        W86559   7.257  10.378  11.529
19492W        W86560   3.926  27.946  10.120
19493W        W86561  31.637   3.439  10.536
19494W        W86562  17.764  35.438  10.443
19495W        W86563  43.402  15.151  11.046
19496W        W86564   2.724  14.685   2.677
19497W        W86565  25.112  42.895   4.708
19498W        W86566   5.752   3.936  14.854
19499W        W86567  18.150  32.086   0.934
19500W        W86568  31.617  33.623   0.858
19501W        W86569   8.866  36.473   0.729
19502W        W86570  23.166  37.916   4.202
19503W        W86571   0.851  23.055   0.941
19504W        W86572   7.173  40.015   1.736
19505W        W86573  29.082  36.477   4.806
19506W        W86574  40.321  36.590  14.958
19507W        W86575  41.329  11.353   4.645
19508W        W86576  35.413  34.614   1.367
19509W        W86577  24.627  19.741   4.265
19510W        W86578   2.929  25.131   1.249
19511W        W86579  44.838  17.677  14.418
19512W        W86580  30.093  41.929   3.842
19513W        W86581  12.234  18.127  14.003
19514W        W86582   0.904  20.583   3.377
19515W        W86583  39.361  11.740  10.577
19516W        W86584   6.306  15.119  10.430
19517W        W86585  14.692  21.713   1.781
19518W        W86586   4.860   9.706   1.315
19519W        W86587  35.591  18.744   0.465
19520W        W86588  12.774  28.063   3.177
19521W        W86589   6.194  15.607  13.871
19522W        W86590  34.873  18.248   1.293
19523W        W86591  38.046  28.569   3.372
19524W        W86592   2.901   3.390  13.793
19525W        W86593  29.094  42.019  11.921
19526W        W86594  34.929   6.425   0.368
19527W        W86595  40.855  32.470  12.084
19528W        W86596  23.623   9.689  13.058
19529W        W86597  41.398   8.847   4.714
19530W        W86598   6.287  10.364  10.533
19531W        W86599  30.975  44.365  14.415
19532W        W86600  38.916   0.912  11.903
19533W        W86601   9.720  20.234   1.279
19534W        W86602   2.721   1.308  14.952
19535W        W86603  20.726  37.018   4.300
19536W        W86604   4.716  12.278  13.530
19537W        W86605  33.002  16.748  11.402
19538W        W86606  16.139   0.335  12.950
19539W        W86607   5.403  28.641   2.843
19540W        W86608  19.126  27.180   1.770
19541W        W86609  13.349  39.334   3.854
19542W        W86610  43.955  37.562   2.381
19543W        W86611  27.977  28.156   0.393
19544W        W86612  42.351  11.659  14.357
19545W        W86613  29.599  42.868  10.450
19546W        W86614  33.090  44.841  13.414
19547W        W86615  38.063  14.334  12.956
19548W        W86616   1.284  41.954  14.494
19549W        W86617  36.996  33.488   2.810
19550W        W86618  20.525  13.116  12.871
19551W        W86619  31.920  19.579   1.445
19552W        W86620   9.203  28.596  13.933
19553W        W86621   9.165  11.653  13.864
19554W        W86622  38.440   7.392  11.593
19555W        W86623  43.954  18.181  11.018
19556W        W86624  43.889  28.114  13.489
19557W        W86625  20.691  14.153  14.955
19558W        W86626  32.118   4.731   0.967
19559W        W86627   2.913  24.120  14.328
19560W        W86628  42.424  35.045   3.184
19561W        W86629  19.208   7.393  14.303
19562W        W86630   1.911  24.214   3.304
19563W        W86631  22.207   7.330  13.857
19564W        W86632  12.640  42.298   0.761
19565W        W86633  43.001   9.724   0.299
19566W        W86634  32.888  43.272  12.383
19567W        W86635  41.810  14.273   3.853
19568W        W86636  33.903   9.745   1.450
19569W        W86637  38.340   7.359   4.739
19570W        W86638  29.660  37.010   2.751
19571W        W86639  22.026  24.576   1.742
19572W        W86640  37.530   7.258   2.398
19573W        W86641  42.941  31.079   3.301
19574W        W86642  35.073  11.214  13.431
19575W        W86643  19.084  13.801   2.393
19576W        W86644  33.125  42.965  11.862
19577W        W86645  37.842   2.265   2.699
19578W        W86646  22.703  25.513   0.837
19579W        W86647   0.986  27.624  10.946
19580W        W86648  25.165  23.573   2.726
19581W        W86649  20.236   1.348  11.390
19582W        W86650  35.096  41.456   4.228
19583W        W86651  15.704   0.440  10.982
19584W        W86652  29.033  32.551   5.255
19585W        W86653  27.644  31.030  14.322
19586W        W86654  34.515  30.581  14.968
19587W        W86655  33.951  13.164   1.441
19588W        W86656  21.515  32.570   4.637
19589W        W86657  22.021  27.181  11.887
19590W        W86658  33.456   4.938   3.736
19591W        W86659  19.277   6.189  11.518
19592W        W86660  30.425   5.759  11.950
19593W        W86661  21.535  10.819  12.959
19594W        W86662  28.659  43.380  12.988
19595W        W86663  34.439   7.890   0.267
19596W        W86664   3.927  37.888   3.746
19597W        W86665  40.921  21.094   1.317
19598W        W86666  44.365  35.941  11.060
19599W        W86667  44.323   0.969  13.490
19600W        W86668   8.787  22.710  11.967
19601W        W86669  13.319  30.981   1.887
19602W        W86670  15.183  39.393  13.890
19603W        W86671  39.432   2.341   1.379
19604W        W86672  33.404  18.694   4.700
19605W        W86673  20.671  23.007   4.735
19606W        W86674  12.332   4.369  14.920
19607W        W86675  17.566  30.488  14.917
19608W        W86676  19.733   7.861  11.414
19609W        W86677  40.369  44.376  13.390
19610W        W86678  44.478  21.524  12.364
19611W        W86679   5.864  30.445  12.932
19612W        W86680   3.451  26.686   0.257
19613W        W86681  26.139   2.338   3.368
19614W        W86682   0.988   4.231   1.825
19615W        W86683  40.976  33.446   1.401
19616W        W86684  41.420  41.458   1.261
19617W        W86685  22.537  30.084  11.603
19618W        W86686   6.382   5.703   1.362
19619W        W86687  30.438  39.864   0.431
19620W        W86688   7.246  10.211   1.219
19621W        W86689  13.275  21.128  14.834
19622W        W86690  16.073  18.571  10.888
19623W        W86691  28.041  42.498  13.367
19624W        W86692  14.229  30.920   1.749
19625W        W86693  24.591  37.930  12.019
19626W        W86694  44.789   1.757  11.463
19627W        W86695   2.238  25.209  11.951
19628W        W86696   9.861  32.614   3.314
19629W        W86697   1.863  37.422   5.273
19630W        W86698  44.964  26.621   0.738
19631W        W86699   1.799   8.886  14.284
19632W        W86700  13.225  34.436   3.296
19633W        W86701   7.701  38.929  13.898
19634W        W86702  39.919  11.323   1.778
19635W        W86703  10.152  42.938   1.929
19636W        W86704  33.015  17.734  13.364
19637W        W86705   4.206   6.757  14.413
19638W        W86706  32.091  12.643   1.908
19639W        W86707  20.034   6.184  14.920
19640W        W86708   7.271  41.930   2.213
19641W        W86709  11.180  19.702  14.819
19642W        W86710   0.396  12.783  14.394
19643W        W86711  28.678  40.942  12.906
19644W        W86712   6.392  32.924   4.771
19645W        W86713  13.146  42.389  14.358
19646W        W86714   6.238  13.281  13.876
19647W        W86715   3.818  22.083   0.791
19648W        W86716  27.157  11.237  14.769
19649W        W86717   3.455  17.264   2.352
19650W        W86718  40.547  14.132  14.906
19651W        W86719  41.427   3.722  12.019
19652W        W86720  17.766  24.680  14.803
19653W        W86721  22.042  43.896   4.780
19654W        W86722   3.925  36.370  12.084
19655W        W86723  21.185  34.389   0.860
19656W        W86724  20.673  16.166  14.453
19657W        W86725   4.405  24.662  13.801
19658W        W86726  15.621  33.125  14.936
19659W        W86727  37.558  12.206  13.041
19660W        W86728   4.251  34.383  12.072
19661W        W86729  36.523  10.787  11.884
19662W        W86730  15.289  28.966  12.502
19663W        W86731  18.553   0.251  11.074
19664W        W86732   2.737  28.955  12.060
19665W        W86733  33.410  43.903  14.857
19666W        W86734   3.239  16.638  11.035
19667W        W86735  44.790  22.027   0.397
19668W        W86736  24.083   5.323  12.391
19669W        W86737   1.252  36.575  14.933
19670W        W86738   0.458  30.950   1.303
19671W        W86739  36.968  36.098   2.691
19672W        W86740  43.816  33.617   0.352
19673W        W86741  23.683  29.459  12.856
19674W        W86742  40.874  43.402   2.844
19675W        W86743  36.437  38.867   4.801
19676W        W86744  22.531  33.409  11.950
19677W        W86745  44.856  33.526   0.807
19678W        W86746  19.255  32.973   4.737
19679W        W86747  33.120  10.825   1.326
19680W        W86748   0.484  38.504   4.159
19681W        W86749   1.876  38.067  14.992
19682W        W86750  37.520   8.723  14.764
19683W        W86751  28.180  33.484   2.419
19684W        W86752  22.189  38.344  11.383
19685W        W86753  41.487  27.606  10.928
19686W        W86754  38.416   9.256   1.806
19687W        W86755  23.636  24.077   3.230
19688W        W86756  43.475   3.428   3.868
19689W        W86757  30.999  27.141  13.946
19690W        W86758   3.247  28.103  11.079
19691W        W86759  14.155  28.023   3.372
19692W        W86760  41.527  40.948   0.880
19693W        W86761  13.630  32.016   4.266
19694W        W86762  25.030  20.064  14.913
19695W        W86763  29.972   2.859  14.454
19696W        W86764  14.285  35.373  14.292
19697W        W86765  25.518  21.180  13.330
19698W        W86766   9.240  25.513   0.751
19699W        W86767   5.266  38.896  11.027
19700W        W86768  15.784  13.655   3.769
19701W        W86769  12.773   7.761   0.355
19702W        W86770  39.458  27.989   1.332
19703W        W86771   9.803   4.283   4.184
19704W        W86772   2.300  42.901   0.431
19705W        W86773   6.764  17.174   1.244
19706W        W86774  25.665  17.153  13.980
19707W        W86775  28.453  43.972  12.924
19708W        W86776  28.630  32.094  14.996
19709W        W86777  34.009  25.132  13.007
19710W        W86778  43.918  13.288  14.914
19711W        W86779  40.048  33.924  11.588
19712W        W86780  28.591  32.891  11.421
19713W        W86781  44.925  33.443  14.872
19714W        W86782   3.717  32.914  11.414
19715W        W86783  18.262  35.514   2.893
19716W        W86784   9.856  29.121  10.491
19717W        W86785   3.412  40.341   5.147
19718W        W86786  13.243  24.227  11.998
19719W        W86787  29.473  28.069   2.799
19720W        W86788  15.231   2.814  11.543
19721W        W86789  23.048  32.571  13.805
19722W        W86790   6.756  10.696   0.412
19723W        W86791  12.305  13.139   4.700
19724W        W86792  14.659  32.578   2.383
19725W        W86793   7.793  21.677  11.405
19726W        W86794  13.674   9.706  14.423
19727W        W86795  43.777  37.932   3.641
19728W        W86796  25.619   7.750   0.961
19729W        W86797  20.068  15.794  12.866
19730W        W86798   1.288  42.351   1.443
19731W        W86799  32.423  20.653  10.449
19732W        W86800  28.959   6.187  11.022
19733W        W86801  29.125  20.197   2.674
19734W        W86802  26.992  23.645   0.947
19735W        W86803  11.704  31.639  14.389
19736W        W86804  42.337  19.167  12.420
19737W        W86805  33.117  13.617  11.380
19738W        W86806  27.534  26.687   3.655
19739W        W86807   4.208  44.295   4.753
19740W        W86808  23.653  14.105  12.359
19741W        W86809  16.730  44.378   3.829
19742W        W86810  11.686  20.684   1.283
19743W        W86811  42.895  22.606  10.505
19744W        W86812  42.416  24.627  14.872
19745W        W86813  15.682   8.175   1.325
19746W        W86814  40.475  29.965   2.847
19747W        W86815  18.112  31.522   4.628
19748W        W86816  42.032   9.353  13.341
19749W        W86817  10.214  37.398  10.940
19750W        W86818  20.183   1.889  10.034
19751W        W86819  11.335   4.886   1.405
19752W        W86820  15.769   9.721   3.380
19753W        W86821  35.511  40.517  12.834
19754W        W86822  15.101  11.804   3.785
19755W        W86823   3.333  39.823   3.811
19756W        W86824  10.867   9.259   2.715
19757W        W86825   9.327  43.784  10.642
19758W        W86826  13.314   2.844   4.670
19759W        W86827  24.502  41.389   2.713
19760W        W86828  30.437  44.486  10.934
19761W        W86829   6.418  36.560   3.339
19762W        W86830  14.144   4.379  11.102
19763W        W86831  19.742  27.650  14.010
19764W        W86832   1.327   0.479   2.831
19765W        W86833  39.502  12.631  10.915
19766W        W86834  19.269  42.348   3.358
19767W        W86835  34.468   5.732   2.675
19768W        W86836   2.829   5.395   2.265
19769W        W86837  18.678   7.763   2.284
19770W        W86838  31.076  16.150  11.464
19771W        W86839  11.737  39.372  12.571
19772W        W86840  26.578   9.243  10.442
19773W        W86841  21.219  43.945  11.554
19774W        W86842   7.408  13.307  13.862
19775W        W86843  39.441  25.159  10.561
19776W        W86844  33.418  29.644  10.634
19777W        W86845   0.372   8.290   2.347
19778W        W86846   4.748   1.326   0.876
19779W        W86847  39.051  34.412   1.370
19780W        W86848  42.979  39.002   4.266
19781W        W86849  33.574  33.924  10.451
19782W        W86850  34.562  38.853   2.837
19783W        W86851  40.956  20.188   3.247
19784W        W86852  20.650  18.061   2.364
19785W        W86853  17.713  42.361  13.064
19786W        W86854  25.472  37.910   3.830
19787W        W86855  44.330  29.993  11.443
19788W        W86856   6.299  24.196   3.366
19789W        W86857  14.264  27.188  14.326
19790W        W86858  39.426  19.704   3.372
19791W        W86859  23.218  34.905   4.771
19792W        W86860   3.229  22.118  14.003
19793W        W86861  10.293  30.156   2.757
19794W        W86862  42.847  24.205  12.529
19795W        W86863  30.505  26.651  14.470
19796W        W86864  42.487  36.440  12.484
19797W        W86865   1.934  10.246  14.436
19798W        W86866  23.229  16.666   1.351
19799W        W86867  19.149   7.711   4.632
19800W        W86868   6.842  32.445  13.376
19801W        W86869   2.787  15.131   0.325
19802W        W86870  42.373  13.260   4.178
19803W        W86871  17.691  29.064  14.827
19804W        W86872  10.378  42.428  11.456
19805W        W86873   8.205  33.982  10.933
19806W        W86874  29.951  32.888   2.778
19807W        W86875   1.389  23.114   1.355
19808W        W86876  12.763  22.704  14.373
19809W        W86877  43.906  34.069  12.991
19810W        W86878  36.880  24.188  13.362
19811W        W86879  44.273   3.349  14.973
19812W        W86880  19.609  37.388   1.716
19813W        W86881  19.598  41.462   2.822
19814W        W86882  26.683   3.787  14.308
19815W        W86883  33.972  15.295  13.505
19816W        W86884   4.313   7.326  12.500
19817W        W86885  11.243  35.408   2.703
19818W        W86886   4.240  12.268  14.784
19819W        W86887   5.692  13.296   1.845
19820W        W86888   9.168  10.750  14.383
19821W        W86889  35.037  30.922  11.438
19822W        W86890  18.647  44.282  10.509
19823W        W86891  20.749  36.403   2.321
19824W        W86892  28.528  16.138   1.262
19825W        W86893  20.099  23.005  10.413
19826W        W86894   8.874  13.806   0.334
19827W        W86895  35.441  13.185  11.610
19828W        W86896   3.778  32.583  10.937
19829W        W86897   0.351  43.316   0.924
19830W        W86898  25.994   4.240  14.806
19831W        W86899  24.633  22.113   1.842
19832W        W86900  25.497  20.581   3.372
19833W        W86901  10.805  37.360   2.687
19834W        W86902  19.141   4.292   0.963
19835W        W86903  30.540  25.123  13.538
19836W        W86904   1.374  19.232  11.575
19837W        W86905   1.305  37.003   3.265
19838W        W86906  37.064  26.467   1.821
19839W        W86907  25.965  32.937   3.364
19840W        W86908  36.452  38.569   2.813
19841W        W86909  20.612  34.464   4.277
19842W        W86910   9.341  18.568   2.737
19843W        W86911  22.736  16.125   2.846
19844W        W86912  42.803   0.813   1.817
19845W        W86913  10.828  41.798   1.841
19846W        W86914  20.661  27.099  13.504
19847W        W86915  31.134  22.681  10.905
19848W        W86916  14.753  21.148  14.500
19849W        W86917  13.237  15.664   0.966
19850W        W86918  34.577   1.734   4.621
19851W        W86919  28.176   8.341  11.957
19852W        W86920  44.820   9.257   0.878
19853W        W86921  26.597  16.693   3.342
19854W        W86922  12.646  44.439  11.591
19855W        W86923  10.823   8.676   2.664
19856W        W86924   7.852  12.666   1.875
19857W        W86925  26.507   3.442  13.966
19858W        W86926  25.568  34.094   0.916
19859W        W86927   3.407  44.960  14.394
19860W        W86928   1.308  36.040   9.968
19861W        W86929  17.169  40.026  12.375
19862W        W86930  15.164  38.510  12.058
19863W        W86931  13.711  15.807  10.029
19864W        W86932  16.804  24.191  14.349
19865W        W86933  12.834   4.388  14.960
19866W        W86934  41.445  28.485   3.322
19867W        W86935  14.200   8.682   2.179
19868W        W86936  34.467   6.273  13.351
19869W        W86937  39.480   3.331   4.655
19870W        W86938  28.602  19.774   1.368
19871W        W86939  20.710  42.778  12.908
19872W        W86940  15.260  33.896   1.710
19873W        W86941  44.411  30.504  10.496
19874W        W86942  22.658   0.318   2.820
19875W        W86943   0.814  11.154   0.826
19876W        W86944  29.068  16.794   3.232
19877W        W86945   8.281  38.920   3.295
19878W        W86946  28.117   1.863   0.756
19879W        W86947  40.521   2.773  14.399
19880W        W86948  39.010  16.267  10.136
19881W        W86949  23.008  14.294  14.886
19882W        W86950  34.118  20.118  13.037
19883W        W86951  12.703  44.321  14.475
19884W        W86952  13.609  16.250   3.167
19885W        W86953  17.230   7.408   1.765
19886W        W86954  30.116   6.234   1.258
19887W        W86955  14.254  11.757   2.267
19888W        W86956  22.087  43.273  11.452
19889W        W86957  11.782  35.998  10.893
19890W        W86958   0.828   9.305  13.832
19891W        W86959  38.046  11.271  11.968
19892W        W86960  19.780  29.653   2.367
19893W        W86961  21.512  10.850  11.501
19894W        W86962  10.255   6.898  10.958
19895W        W86963  29.003  39.853  10.432
19896W        W86964  25.538  42.390  11.486
19897W        W86965  22.657  30.611  13.828
19898W        W86966  39.557   4.831  11.042
19899W        W86967  12.651   2.846  12.858
19900W        W86968   7.190   8.770   2.344
19901W        W86969  43.334  19.544   2.332
19902W        W86970   6.900  15.743  13.039
19903W        W86971   7.383   5.917  14.991
19904W        W86972  18.239  39.375   2.366
19905W        W86973   9.351  10.819  12.073
19906W        W86974  24.689   4.266  11.078
19907W        W86975  42.502   7.394  12.081
19908W        W86976   1.920  38.336   3.831
19909W        W86977   0.816  20.711   2.853
19910W        W86978  34.900  18.616  13.444
19911W        W86979  39.314   6.807  11.466
19912W        W86980   6.262  13.709  13.947
19913W        W86981  16.715  41.994   2.241
19914W        W86982  13.709  19.719   3.639
19915W        W86983  27.027  34.923  14.359
19916W        W86984  41.436   4.865   0.422
19917W        W86985  14.771   8.671   1.886
19918W        W86986  25.549  28.183  13.344
19919W        W86987  14.693  14.237  11.516
19920W        W86988  11.707   1.338  10.972
19921W        W86989   7.675  41.919   0.477
19922W        W86990   4.796  23.059   4.187
19923W        W86991   4.762  21.536   2.215
19924W        W86992  31.094   6.413  14.982
19925W        W86993   8.726  13.295  10.497
19926W        W86994  22.710  16.252   4.271
19927W        W86995  28.458  44.891   1.748
19928W        W86996  11.637  16.761  14.918
19929W        W86997  10.384  37.468  11.947
19930W        W86998  32.079  42.506  14.919
19931W        W86999  36.949  42.466  10.602
19932W        W87000   1.932  14.644   2.321
19933W        W87001  40.368   7.884  10.506
19934W        W87002  29.174  14.117  14.805
19935W        W87003  14.283  36.417  13.307
19936W        W87004   9.229  26.694  12.446
19937W        W87005  20.733  36.399   0.369
19938W        W87006  33.501  31.563  12.341
19939W        W87007  24.199  34.598   2.210
19940W        W87008  21.518   2.848   2.842
19941W        W87009  19.560   3.363   1.776
19942W        W87010   5.380  28.118  11.060
19943W        W87011  13.299  13.173   4.313
19944W        W87012   8.743  14.618  10.572
19945W        W87013  21.715  30.650   4.120
19946W        W87014  10.795  12.698   2.248
19947W        W87015   5.687   6.711   2.341
19948W        W87016  43.442   1.388  10.621
19949W        W87017  27.633   5.732  12.469
19950W        W87018  23.019   7.836   3.234
19951W        W87019  11.139  28.537   3.817
19952W        W87020  24.535  29.563  10.944
19953W        W87021  28.506  42.834  11.089
19954W        W87022  38.882  39.469  12.396
19955W        W87023  26.197  20.034  13.973
19956W        W87024  41.849   5.292  13.999
19957W        W87025   9.727  42.025   2.753
19958W        W87026  22.107  35.092  11.511
19959W        W87027  20.563  40.388   3.697
19960W        W87028  10.719  17.777  13.352
19961W        W87029   9.650   9.755  11.428
19962W        W87030  31.505  40.374   2.357
19963W        W87031  13.736  33.512   3.372
19964W        W87032  41.907  13.113  10.606
19965W        W87033  14.313  36.964  13.059
19966W        W87034  39.409  16.729  12.989
19967W        W87035  21.614  32.511  11.492
19968W        W87036  38.821  13.141  12.932
19969W        W87037   9.353  28.014   2.367
19970W        W87038  33.970   9.223  13.454
19971W        W87039  37.401  43.407   0.938
19972W        W87040  28.566  36.953  13.525
19973W        W87041   9.282  38.856   4.694
19974W        W87042  17.073  39.941   0.869
19975W        W87043  43.899  20.210   0.424
19976W        W87044  33.405  31.425   1.742
19977W        W87045  30.935  31.644  14.432
19978W        W87046   4.940  40.003   4.246
19979W        W87047   0.386  40.510   0.419
19980W        W87048  31.042  23.030  14.313
19981W        W87049  35.360  44.917   4.122
19982W        W87050  15.668  14.249  10.954
19983W        W87051   7.686  21.047   5.281
19984W        W87052   2.785  10.169   4.822
19985W        W87053  26.058  17.659   4.180
19986W        W87054  42.865   7.417   2.383
19987W        W87055  37.954  35.434   1.372
19988W        W87056  15.097  29.936   2.745
19989W        W87057  19.075  42.395  12.063
19990W        W87058   9.364  13.290   4.741
19991W        W87059  38.447  22.560   1.801
19992W        W87060  38.363  17.146  13.798
19993W        W87061   1.929   9.803   0.840
19994W        W87062  24.014  20.541   2.296
19995W        W87063  41.454  15.745   0.929
19996W        W87064  32.407  32.090  10.459
19997W        W87065  12.780   6.420  12.455
19998W        W87066   3.730  44.353   2.308
19999W        W87067   1.323  24.071   2.675
20000W        W87068  30.918  30.652   1.725
20001W        W87069   1.375  10.295   2.376
20002W        W87070  32.110  30.567  11.078
20003W        W87071   4.891  10.311   3.324
20004W        W87072  23.714  10.245  11.383
20005W        W87073  32.429  12.840  14.017
20006W        W87074  44.271  37.433   1.813
20007W        W87075  43.450  32.584  12.403
20008W        W87076  35.565   1.938   2.730
20009W        W87077   1.334  20.189  14.352
20010W        W87078  24.572  19.253   0.878
20011W        W87079  20.196   6.900   0.727
20012W        W87080  29.424  17.138   3.825
20013W        W87081  27.594  24.049   4.312
20014W        W87082   3.899  39.038  12.845
20015W        W87083   9.671  31.466  10.907
20016W        W87084   2.733  12.119   0.741
20017W        W87085  39.047  28.143  14.030
20018W        W87086  34.121  22.007  10.492
20019W        W87087   0.283   6.402  11.375
20020W        W87088  42.398  30.506  14.926
20021W        W87089   1.335  38.913   0.303
20022W        W87090  26.179  42.337  12.353
20023W        W87091  27.087  44.800   2.302
20024W        W87092   2.723  24.659   2.838
20025W        W87093   2.729  34.446   4.800
20026W        W87094  23.159  32.088   1.730
20027W        W87095  36.066  35.410  12.466
20028W        W87096  34.450  33.531   4.197
20029W        W87097   8.197  12.757  10.479
20030W        W87098   8.404  12.295   4.203
20031W        W87099  38.490  28.152   4.688
20032W        W87100  13.654  44.945  12.419
20033W        W87101  30.039  27.173  14.326
20034W        W87102   9.257  19.191  13.882
20035W        W87103   2.816  29.630  14.949
20036W        W87104  25.129  14.673   3.741
20037W        W87105  28.077   3.796  10.634
20038W        W87106  26.181  35.576   0.864
20039W        W87107   7.744  36.898  13.500
20040W        W87108  23.005  13.724   4.157
20041W        W87109  32.478  42.902   3.762
20042W        W87110  38.916  28.136   4.762
20043W        W87111  19.204  35.874  10.548
20044W        W87112   4.284   9.813  13.794
20045W        W87113   9.737  36.516  12.056
20046W        W87114  30.558  27.500   2.344
20047W        W87115  17.672   8.249   1.310
20048W        W87116  20.662  21.539  11.955
20049W        W87117  23.157   6.232  14.354
20050W        W87118  31.535  16.197   4.160
20051W        W87119  21.200  14.131  14.402
20052W        W87120  35.997   2.464   1.839
20053W        W87121  35.591  30.126  10.449
20054W        W87122  31.956  18.122  11.425
20055W        W87123  26.007   1.280   0.827
20056W        W87124  42.408  36.426  12.915
20057W        W87125  18.258  37.905  14.301
20058W        W87126  22.729  11.339  11.883
20059W        W87127  19.207   6.328   3.318
20060W        W87128  26.060   4.384  12.396
20061W        W87129  18.147  34.068  12.941
20062W        W87130  12.803   0.873   4.767
20063W        W87131  28.935   1.940  14.001
20064W        W87132   9.173  13.251   4.157
20065W        W87133  35.868   3.709  11.861
20066W        W87134  41.939  36.392  13.819
20067W        W87135  22.236   7.409   4.169
20068W        W87136   9.689  15.134   4.683
20069W        W87137  11.816   7.223  10.024
20070W        W87138   9.388   0.923  12.956
20071W        W87139  12.766   2.456   9.952
20072W        W87140  34.873  14.310  10.544
20073W        W87141  26.110  19.195  14.450
20074W        W87142  24.016  21.217   2.781
20075W        W87143  28.608   1.422   1.357
20076W        W87144  23.515   8.742   4.151
20077W        W87145  23.642  33.385   4.759
20078W        W87146   5.215  32.942   2.392
20079W        W87147  28.479  15.235  13.841
20080W        W87148   1.403  29.542  14.828
20081W        W87149  33.444  43.015   0.433
20082W        W87150   8.278  37.924  11.110
20083W        W87151  35.919  15.659   4.828
20084W        W87152  19.083  38.064  11.117
20085W        W87153  42.787   3.729   1.431
20086W        W87154   9.820  31.044  14.851
20087W        W87155  21.187   7.412   3.366
20088W        W87156   4.236  23.170   4.696
20089W        W87157  33.600   2.387   1.879
20090W        W87158  26.656   7.765  11.391
20091W        W87159  19.046   0.427   2.304
20092W        W87160  36.476  22.746  10.899
20093W        W87161  33.067  43.413   3.304
20094W        W87162  25.092  40.018   0.315
20095W        W87163   0.869   1.755   4.327
20096W        W87164  27.607  34.880  14.397
20097W        W87165   0.275  17.638   2.415
20098W        W87166  32.583  19.692   3.234
20099W        W87167  37.989  13.693  14.996
20100W        W87168  28.445  43.367   2.758
20101W        W87169   5.392  34.076  13.399
20102W        W87170   9.368  17.132  12.938
20103W        W87171  30.593   6.724   2.333
20104W        W87172  40.336  42.320   0.797
20105W        W87173   9.334  40.528  14.486
20106W        W87174   2.786  39.540   1.442
20107W        W87175  11.312  21.721  14.449
20108W        W87176   7.668  11.246   0.477
20109W        W87177  32.090  35.496   3.233
20110W        W87178   9.763   0.410  12.569
20111W        W87179  27.666   8.710   0.808
20112W        W87180  39.978   5.233  12.565
20113W        W87181  12.645  42.285  13.899
20114W        W87182  34.119  27.549  11.008
20115W        W87183  32.142  18.280   1.843
20116W        W87184   2.781   3.326  12.875
20117W        W87185  11.246  40.850   4.646
20118W        W87186  44.292   5.793  11.095
20119W        W87187  24.012  40.051  12.558
20120W        W87188  25.079  23.241  14.280
20121W        W87189  27.175  31.935   1.928
20122W        W87190  42.360   4.394  14.991
20123W        W87191  27.447  27.577   3.751
20124W        W87192   4.881  24.194  14.937
20125W        W87193  17.686   9.734   3.178
20126W        W87194  42.007  24.675   2.902
20127W        W87195  30.911   3.282   2.199
20128W        W87196  21.183  43.821   4.254
20129W        W87197  15.696  17.567  11.500
20130W        W87198  30.013  26.583  13.439
20131W        W87199  36.863  43.375  12.064
20132W        W87200  32.943  42.820   4.201
20133W        W87201  35.087   0.885   1.825
20134W        W87202  32.560  30.621  12.968
20135W        W87203  31.422   5.878   2.716
20136W        W87204  43.499  19.625   4.296
20137W        W87205  32.449  37.982  13.443
20138W        W87206  27.967  32.597   3.710
20139W        W87207  22.107  26.987  14.357
20140W        W87208  40.336  43.956   4.348
20141W        W87209  32.997  17.246  14.280
20142W        W87210  42.943  43.904   2.354
20143W        W87211  32.391   6.790  13.535
20144W        W87212  20.106   3.262  13.941
20145W        W87213  11.739  22.571  10.409
20146W        W87214  38.376  35.932  13.446
20147W        W87215  28.120   3.887   2.721
20148W        W87216  31.540  21.227   2.871
20149W        W87217  29.968   3.769  14.287
20150W        W87218  29.138   4.359  12.059
20151W        W87219  42.428  37.545   3.214
20152W        W87220  28.627  38.844  11.565
20153W        W87221  26.661  18.771   3.707
20154W        W87222  15.745  35.086   1.235
20155W        W87223   5.316  38.836  12.944
20156W        W87224  37.936  23.577  14.357
20157W        W87225   9.332   2.791   2.711
20158W        W87226  17.203  34.977  10.972
20159W        W87227  24.017  25.607   1.806
20160W        W87228   9.757  44.884   1.385
20161W        W87229  21.727  15.303   3.364
20162W        W87230   5.276  32.069  12.469
20163W        W87231  20.667  30.151   3.221
20164W        W87232  37.914  34.998   0.350
20165W        W87233  24.174  28.603   1.845
20166W        W87234  29.134  42.798   3.246
20167W        W87235  42.898  17.096   0.317
20168W        W87236  19.542  32.002   2.796
20169W        W87237  29.579   2.792   4.803
20170W        W87238   3.428  36.565   5.176
20171W        W87239  30.942  27.465   4.666
20172W        W87240  41.441   8.242  12.460
20173W        W87241  10.294   2.887   0.426
20174W        W87242  16.719   6.416   0.783
20175W        W87243  30.072   8.894  13.930
20176W        W87244  28.591  42.463   4.670
20177W        W87245  13.152   1.471  14.413
20178W        W87246  42.810  44.853   0.949
20179W        W87247  20.113  28.625  13.440
20180W        W87248  29.078   1.285   1.820
20181W        W87249  36.419   0.884   1.256
20182W        W87250  41.940  28.499  11.004
20183W        W87251  10.346  16.597  12.077
20184W        W87252   5.377  30.500   2.808
20185W        W87253  20.592   3.883  12.035
20186W        W87254   3.335   5.917   2.831
20187W        W87255  38.909   8.332   2.402
20188W        W87256   9.366  42.338   4.308
20189W        W87257  24.171  29.459  11.868
20190W        W87258  33.527   3.827  12.417
20191W        W87259  23.013  21.753  12.025
20192W        W87260  19.646   3.313   5.111
20193W        W87261  14.334   2.838   2.877
20194W        W87262   0.431   3.460  10.616
20195W        W87263   8.881  25.541   4.728
20196W        W87264   0.874   7.354  12.501
20197W        W87265   2.471  28.635   2.412
20198W        W87266  20.263  35.509  13.993
20199W        W87267  17.111  38.031   0.729
20200W        W87268  16.774  22.174   0.341
20201W        W87269  13.725   1.949  10.552
20202W        W87270  42.890  27.993   0.874
20203W        W87271  40.909  24.627   0.893
20204W        W87272  15.314  42.336   1.700
20205W        W87273  41.440  26.513   1.776
20206W        W87274  39.367  23.087  13.803
20207W        W87275  27.639  42.350   1.902
20208W        W87276  27.024   9.770  13.942
20209W        W87277  26.620  43.416   4.304
20210W        W87278   5.912   6.702   0.371
20211W        W87279  27.497   8.352  12.860
20212W        W87280   4.441  44.324  12.077
20213W        W87281  31.536  14.825   3.248
20214W        W87282  35.916  23.175  13.913
20215W        W87283  29.441  12.348  13.057
20216W        W87284  33.066  19.594   2.256
20217W        W87285  18.696  44.287   0.800
20218W        W87286  22.739  14.328   3.724
20219W        W87287  44.438  21.523   1.780
20220W        W87288  24.594  15.327   2.220
20221W        W87289  17.765  31.012  11.070
20222W        W87290  14.748  40.048   0.462
20223W        W87291  15.092  32.943   3.779
20224W        W87292   9.174  39.891   1.876
20225W        W87293  38.901   9.794  14.500
20226W        W87294  15.609  33.934   4.217
20227W        W87295  29.633   4.368  13.405
20228W        W87296  14.647  11.294   4.159
20229W        W87297   4.926   6.877  14.337
20230W        W87298  43.977  15.737   1.848
20231W        W87299   4.426  31.969   2.419
20232W        W87300  43.463   4.783   1.258
20233W        W87301  37.859  22.518   0.358
20234W        W87302  37.035  20.601   2.778
20235W        W87303   9.771  41.024   4.326
20236W        W87304  29.013  36.074  11.961
20237W        W87305  42.303  34.013  12.426
20238W        W87306   1.336  25.570  11.915
20239W        W87307  11.306  13.228  12.392
20240W        W87308   3.860  17.121  10.093
20241W        W87309  15.705  11.276   0.310
20242W        W87310  22.247  12.343   1.889
20243W        W87311  29.625  26.517  11.417
20244W        W87312   2.734  17.612  12.053
20245W        W87313   4.816  20.707  11.404
20246W        W87314  33.894  20.233  14.766
20247W        W87315  37.576  12.321  13.494
20248W        W87316  38.413  36.084  12.564
20249W        W87317   7.367  35.852   4.757
20250W        W87318  15.179   1.879  12.839
20251W        W87319   9.264  13.175  11.064
20252W        W87320  40.022  16.667  11.994
20253W        W87321  19.191  11.337  14.987
20254W        W87322  15.083  27.462  11.007
20255W        W87323   9.733  11.807  13.435
20256W        W87324   1.746  18.778  14.279
20257W        W87325  42.499  18.242   2.814
20258W        W87326  25.088  30.136  13.951
20259W        W87327  32.927  21.064   9.994
20260W        W87328  11.784  23.174   2.356
20261W        W87329  29.632  28.571   0.433
20262W        W87330  36.964  10.324  10.943
20263W        W87331  13.760  19.774   4.141
20264W        W87332  34.989  33.563  11.498
20265W        W87333  12.756   0.796   0.966
20266W        W87334  14.137  43.314  13.539
20267W        W87335  21.152  40.808   0.803
20268W        W87336   4.808  43.414  13.829
20269W        W87337   3.311  22.656  13.374
20270W        W87338  13.791  33.464  11.515
20271W        W87339  12.715  21.608   4.735
20272W        W87340  15.671  37.476  12.974
20273W        W87341  38.986  18.699  11.927
20274W        W87342  25.577  36.593  13.478
20275W        W87343  11.287  42.373   0.391
20276W        W87344  35.875  17.224  12.997
20277W        W87345  28.477  26.093  14.953
20278W        W87346   0.867  10.711  14.945
20279W        W87347  14.309  16.672   2.684
20280W        W87348  32.114  31.571  11.914
20281W        W87349  27.043  24.167   0.736
20282W        W87350  33.997  12.312  13.947
20283W        W87351   1.836  36.991   2.193
20284W        W87352   9.657   0.449  14.869
20285W        W87353  24.501  21.140  11.979
20286W        W87354  36.389  34.915   3.780
20287W        W87355  43.998  19.105   1.360
20288W        W87356  38.933  18.730   3.647
20289W        W87357   1.352  17.637  11.873
20290W        W87358  22.105  43.399  13.413
20291W        W87359  28.047  42.912   1.928
20292W        W87360  15.764   2.887  13.040
20293W        W87361  10.151  25.188   4.740
20294W        W87362  15.268  13.144   2.727
20295W        W87363  38.036  26.139  10.545
20296W        W87364   5.270   5.771  12.912
20297W        W87365  30.553  20.698  14.309
20298W        W87366   2.803  19.185  12.858
20299W        W87367  17.687  42.493   3.846
20300W        W87368  36.007  40.892  14.790
20301W        W87369   2.935  43.422  12.994
20302W        W87370   1.361   7.791  12.981
20303W        W87371  44.832  18.590   2.863
20304W        W87372   2.333  28.636  12.455
20305W        W87373  20.578  28.953  10.924
20306W        W87374  12.121  29.477   0.802
20307W        W87375  41.534  21.736  13.858
20308W        W87376  19.154  42.298  11.421
20309W        W87377  25.557  17.130  14.401
20310W        W87378  18.623  11.221   3.745
20311W        W87379  16.609  34.001  13.535
20312W        W87380  12.841  30.648   2.205
20313W        W87381  28.576  13.728  11.467
20314W        W87382  38.416  10.349   3.217
20315W        W87383  42.285   8.833  10.497
20316W        W87384  13.187  19.144  13.417
20317W        W87385  35.002   0.966   2.876
20318W        W87386   2.931  27.580   4.789
20319W        W87387   1.898   0.429   4.274
20320W        W87388  19.219   3.304   2.269
20321W        W87389  43.866   8.781  14.910
20322W        W87390  33.537  13.670  13.036
20323W        W87391  24.482   4.733   4.122
20324W        W87392  12.184   7.229  11.480
20325W        W87393   4.311  43.365   0.772
20326W        W87394  35.891  41.885  13.473
20327W        W87395  24.065  43.493  13.032
20328W        W87396  34.971  19.062   4.133
20329W        W87397  31.949  25.104   0.729
20330W        W87398   3.230  21.123   2.779
20331W        W87399  43.880  13.212  12.458
20332W        W87400  36.068  38.372  10.521
20333W        W87401  21.022   6.271   2.690
20334W        W87402   0.759   2.783   0.259
20335W        W87403   9.677  32.461  13.431
20336W        W87404  41.877  22.201  12.381
20337W        W87405  41.926  27.950  11.011
20338W        W87406   9.375  18.648   3.650
20339W        W87407  31.495  27.491   2.267
20340W        W87408  15.206  36.382   0.823
20341W        W87409  22.741  31.634   0.397
20342W        W87410  19.575  20.558  14.788
20343W        W87411  43.831  20.134  13.823
20344W        W87412   4.358  30.522   3.639
20345W        W87413  28.963  42.333  11.547
20346W        W87414  36.977  41.037   3.827
20347W        W87415  27.580  13.278   1.409
20348W        W87416  23.003  15.789  12.516
20349W        W87417   3.913   4.859  11.057
20350W        W87418  16.588  10.680   1.754
20351W        W87419  25.000  19.552   2.311
20352W        W87420  44.339  18.581  14.497
20353W        W87421  40.328   8.291   1.818
20354W        W87422  42.007  37.507  12.040
20355W        W87423  12.280  11.362  14.835
20356W        W87424  16.225  42.524   3.744
20357W        W87425  33.396   8.194  11.551
20358W        W87426   8.205  37.007  11.394
20359W        W87427  20.196  19.702  12.569
20360W        W87428  37.475   7.317  11.875
20361W        W87429   9.802   6.917   1.245
20362W        W87430   0.843  22.675   5.320
20363W        W87431   7.191   3.878  10.536
20364W        W87432  37.510  42.976  10.016
20365W        W87433  22.611   3.233   0.967
20366W        W87434  41.007   2.941  10.923
20367W        W87435   0.884  42.340   0.478
20368W        W87436  28.950   7.329   4.182
20369W        W87437   7.215  27.981   1.743
20370W        W87438  18.583  38.018  13.321
20371W        W87439  31.558  12.713   2.875
20372W        W87440  37.938  40.006   4.695
20373W        W87441  34.070  42.508   3.191
20374W        W87442   1.958  14.776   3.377
20375W        W87443  43.991  34.964  14.351
20376W        W87444  16.781  29.522  13.384
20377W        W87445  39.467   1.763  10.500
20378W        W87446  38.921  30.070   4.683
20379W        W87447  19.593  24.122  12.859
20380W        W87448   4.416   5.724   1.798
20381W        W87449  38.883  26.102   2.233
20382W        W87450  21.017  36.008   2.358
20383W        W87451  15.133   4.823   1.339
20384W        W87452  21.059   5.365   5.132
20385W        W87453  18.295  29.145   2.330
20386W        W87454  25.523  35.578   3.226
20387W        W87455  23.081   8.203  12.934
20388W        W87456  20.201  29.024   0.419
20389W        W87457  25.640  11.362  11.409
20390W        W87458  35.482  27.687  11.431
20391W        W87459  43.367  12.805   2.828
20392W        W87460  25.490  24.064  10.504
20393W        W87461  42.358   3.847   1.839
20394W        W87462  33.052   2.426   0.302
20395W        W87463  20.234  22.720   2.383
20396W        W87464  13.257  27.087  13.971
20397W        W87465   8.260  23.015  11.910
20398W        W87466  36.879   3.404  11.564
20399W        W87467   0.261  28.117   3.824
20400W        W87468  35.392  12.834   2.188
20401W        W87469   8.888  19.643  11.947
20402W        W87470  18.058  33.448  12.061
20403W        W87471  16.182  26.973   0.345
20404W        W87472  42.507  10.714   2.309
20405W        W87473  12.642  14.786  11.566
20406W        W87474  30.160  40.413   4.739
20407W        W87475  25.605   5.320   2.835
20408W        W87476  43.934  38.568   2.667
20409W        W87477  15.092   6.842  13.509
20410W        W87478  28.081  25.208  10.516
20411W        W87479  32.594   2.270  14.989
20412W        W87480  32.896  26.540  14.906
20413W        W87481  34.444  20.680  13.507
20414W        W87482  33.999  17.081  14.344
20415W        W87483   3.712  35.462   3.372
20416W        W87484  19.724  35.512  10.405
20417W        W87485  21.710  30.553   2.795
20418W        W87486  28.936  24.487  12.348
20419W        W87487   1.336  36.528   1.817
20420W        W87488  21.530  42.460  14.790
20421W        W87489  44.828  29.933  11.994
20422W        W87490  40.308  17.208  12.473
20423W        W87491  11.853   2.379  12.524
20424W        W87492  26.026   6.790  12.993
20425W        W87493  20.726  43.012   0.322
20426W        W87494  26.567  31.082  13.999
20427W        W87495   2.953  34.413   0.924
20428W        W87496  36.053  40.473   4.652
20429W        W87497  37.399   7.223   3.149
20430W        W87498   2.373  19.708   4.168
20431W        W87499   2.406  26.081   3.162
20432W        W87500   6.337  32.486   1.710
20433W        W87501  22.714  23.007   4.270
20434W        W87502  37.015  28.062  12.850
20435W        W87503  21.134  27.987  13.910
20436W        W87504  35.419  24.009   3.209
20437W        W87505   1.427  21.076  10.576
20438W        W87506  28.471   6.191   2.191
20439W        W87507  32.526  22.705   2.856
20440W        W87508  30.453  13.328   1.266
20441W        W87509  44.945  13.320  10.636
20442W        W87510  36.926  20.255   3.712
20443W        W87511  36.476   7.848   2.856
20444W        W87512  40.923  19.699   2.307
20445W        W87513  32.014  27.691  12.834
20446W        W87514  18.059  25.490   0.965
20447W        W87515   9.250  35.509   4.734
20448W        W87516  18.686  15.235  13.490
20449W        W87517  21.734  42.966   3.787
20450W        W87518   8.706  12.680  12.063
20451W        W87519   9.836   3.340  10.443
20452W        W87520  33.396  43.800   3.243
20453W        W87521   6.211  21.628   1.838
20454W        W87522  21.129  11.176  11.893
20455W        W87523   2.824  34.108   0.247
20456W        W87524  29.575  15.709  10.612
20457W        W87525  29.638   8.777  11.961
20458W        W87526   9.826  30.946   2.299
20459W        W87527  11.632   5.726  13.796
20460W        W87528   1.406   6.386  13.307
20461W        W87529  10.239  11.351   3.729
20462W        W87530  33.045  26.176  11.005
20463W        W87531  12.162  11.770   2.800
20464W        W87532   6.379  44.308  13.855
20465W        W87533  21.593   4.813   4.657
20466W        W87534   1.461  36.563   3.243
20467W        W87535  42.954   1.890  12.893
20468W        W87536   9.286  29.459   1.897
20469W        W87537  13.155  29.453  13.465
20470W        W87538  10.204  43.817   0.790
20471W        W87539  33.520  17.253   1.813
20472W        W87540  25.112  32.593  11.489
20473W        W87541  26.115  40.465  12.357
20474W        W87542  23.552  38.063  12.359
20475W        W87543  17.627  16.733   0.250
20476W        W87544   7.224  32.599   0.462
20477W        W87545   4.892   9.644   3.325
20478W        W87546  28.019   0.442  13.479
20479W        W87547  22.538  30.147  12.963
20480W        W87548  21.232  29.974  14.951
20481W        W87549  16.626  28.520  14.946
20482W        W87550  25.501  21.064   0.264
20483W        W87551   3.216  36.513   4.159
20484W        W87552  23.105  35.029  10.916
20485W        W87553  41.844  31.481  13.489
20486W        W87554  18.065   6.279  14.886
20487W        W87555  24.032  29.147  11.890
20488W        W87556  22.672  29.600  14.013
20489W        W87557  37.524  12.325  11.471
20490W        W87558  18.266  15.671  12.579
20491W        W87559  22.575  31.456  14.994
20492W        W87560   1.323  43.364   0.453
20493W        W87561  16.142  32.135   0.281
20494W        W87562  16.588   2.931   0.433
20495W        W87563  36.347  13.232   3.840
20496W        W87564  33.961  42.515  12.440
20497W        W87565  25.980  15.747   3.157
20498W        W87566  17.074  38.911  14.421
20499W        W87567  18.578  11.655   1.441
20500W        W87568  41.946  44.405   5.132
20501W        W87569  41.808  12.278  11.019
20502W        W87570   0.901  34.412   3.305
20503W        W87571  19.269  20.632  14.017
20504W        W87572   4.807  12.612  10.563
20505W        W87573  29.997  36.912   0.419
20506W        W87574  26.510   0.965  13.960
20507W        W87575  29.047  40.041  13.408
20508W        W87576  10.319   7.312  11.856
20509W        W87577  22.689  17.265   1.287
20510W        W87578  25.065  42.341  11.494
20511W        W87579  15.659  28.557   2.725
20512W        W87580  18.624  40.404   4.711
20513W        W87581   8.374   7.286   3.174
20514W        W87582  26.645  23.653   4.742
20515W        W87583  44.347  17.303  13.038
20516W        W87584  19.168  38.376  12.850
20517W        W87585  27.668   3.433   0.255
20518W        W87586  19.770  22.196   0.769
20519W        W87587  23.022  31.627  10.513
20520W        W87588  33.555  36.414  12.345
20521W        W87589  27.660   9.265  11.904
20522W        W87590  34.470  10.341  13.908
20523W        W87591   6.195   9.272  10.530
20524W        W87592  18.695  23.691  14.847
20525W        W87593  13.279  40.823  12.900
20526W        W87594  37.930  31.555   0.449
20527W        W87595  18.776  28.556  11.857
20528W        W87596  26.961   6.795  12.073
20529W        W87597  30.547  30.601  10.013
20530W        W87598  31.128  41.014   2.680
20531W        W87599   3.376  17.654   3.274
20532W        W87600  28.590  23.083  10.426
20533W        W87601  20.173  33.025   4.684
20534W        W87602   7.335   8.832   2.790
20535W        W87603   3.281  44.492   0.842
20536W        W87604   7.668  35.931   1.322
20537W        W87605  33.464  26.098  13.793
20538W        W87606   0.374   0.306   3.338
20539W        W87607  29.549  20.193  11.925
20540W        W87608  41.405  33.916  12.372
20541W        W87609  26.698  32.956  14.839
20542W        W87610  41.515  23.047   3.241
20543W        W87611  12.127   2.875  13.019
20544W        W87612  12.303  32.397   3.228
20545W        W87613  10.226  35.486  14.872
20546W        W87614   7.839  34.981   2.811
20547W        W87615  31.973  27.644   0.765
20548W        W87616  20.092  28.933  14.852
20549W        W87617  10.865   9.233  10.446
20550W        W87618  32.116  25.087  12.832
20551W        W87619  32.105  29.596  14.358
20552W        W87620  38.895  25.544   2.899
20553W        W87621  21.246  24.489   4.700
20554W        W87622  35.071  12.333   1.927
20555W        W87623  20.173  31.534  13.044
20556W        W87624  20.542  33.124   2.345
20557W        W87625  36.974  30.542  14.940
20558W        W87626  31.503  13.287  14.834
20559W        W87627  18.773  43.417  13.979
20560W        W87628   2.304  35.411   4.780
20561W        W87629  37.078   4.923  11.589
20562W        W87630   9.197   9.322  11.933
20563W        W87631  29.933   9.868   0.426
20564W        W87632   3.421  35.948   1.379
20565W        W87633  37.992   0.338  11.974
20566W        W87634   6.223  42.808   3.867
20567W        W87635   2.388  33.623  11.555
20568W        W87636  19.053  31.600  12.994
20569W        W87637  18.673  24.229  10.958
20570W        W87638   3.734  29.557   3.334
20571W        W87639  24.641   5.873   3.175
20572W        W87640  21.524  26.597  11.593
20573W        W87641  18.198   4.716   0.911
20574W        W87642  14.271  11.723   0.242
20575W        W87643  26.686   2.335   1.246
20576W        W87644  24.113  25.587  13.308
20577W        W87645  17.787  17.197   3.240
20578W        W87646   2.328  31.087   3.815
20579W        W87647  15.174  11.179   2.826
20580W        W87648   9.885   0.830  12.520
20581W        W87649   3.297  41.845   4.750
20582W        W87650  16.596  15.803  11.901
20583W        W87651  14.744  22.132  14.894
20584W        W87652   3.748  14.154   3.733
20585W        W87653  38.568  31.092  11.861
20586W        W87654  39.884  16.670   1.746
20587W        W87655  30.159  37.923   2.784
20588W        W87656  39.982  19.611  10.419
20589W        W87657   9.245   7.252   2.707
20590W        W87658  23.513  38.414   3.321
20591W        W87659  32.933  23.630   4.296
20592W        W87660   3.819   1.802  11.500
20593W        W87661   6.856  36.888  12.458
20594W        W87662   9.295  34.043   1.853
20595W        W87663  17.609  39.442  14.873
20596W        W87664   0.304  39.443   2.762
20597W        W87665  32.486  12.854   2.850
20598W        W87666  14.188   7.688   1.382
20599W        W87667  40.451  28.493   3.177
20600W        W87668  24.666  35.435  12.953
20601W        W87669  33.527  37.918   1.336
20602W        W87670  37.878  30.507   0.406
20603W        W87671  24.598  18.686   4.806
20604W        W87672   5.763   9.797  13.332
20605W        W87673   7.872  23.667  12.456
20606W        W87674  11.844  31.040  11.406
20607W        W87675  28.119  36.352   3.348
20608W        W87676   0.443   6.198  13.413
20609W        W87677  32.514  12.295   2.181
20610W        W87678  44.425  11.712   4.262
20611W        W87679   1.372  41.407   4.790
20612W        W87680   0.937   1.244   2.860
20613W        W87681  15.677   2.805  14.294
20614W        W87682  25.113  31.456  10.546
20615W        W87683  21.696  10.276  14.294
20616W        W87684  15.232  34.415  12.918
20617W        W87685  31.066  12.707   4.637
20618W        W87686  14.790  41.415   3.672
20619W        W87687  35.980  37.038   1.719
20620W        W87688   2.844  42.378  11.026
20621W        W87689  39.051  43.952   3.803
20622W        W87690  15.712  19.646   2.267
20623W        W87691   7.280  24.670  14.810
20624W        W87692  39.845  36.455  13.976
20625W        W87693  27.604  40.460   0.942
20626W        W87694  10.164  38.871   1.292
20627W        W87695  13.265  41.358   2.300
20628W        W87696  31.927  38.057  10.413
20629W        W87697  34.886   8.316  12.436
20630W        W87698   2.239   0.762  11.571
20631W        W87699  22.567  34.378   3.294
20632W        W87700  33.597   7.706   3.702
20633W        W87701  35.371  41.874  10.431
20634W        W87702  11.228  39.554  14.419
20635W        W87703   1.773  23.037   1.796
20636W        W87704  15.309  25.015   2.672
20637W        W87705  18.708  35.956   4.205
20638W        W87706  26.627  11.141   1.347
20639W        W87707  13.182   9.865   1.879
20640W        W87708  39.317   7.735  11.092
20641W        W87709  16.730   1.897  14.426
20642W        W87710  43.020  35.949   2.214
20643W        W87711  39.481  23.082  14.309
20644W        W87712  12.688  23.694   4.229
20645W        W87713  13.106  31.424  14.001
20646W        W87714  35.969   4.213  12.572
20647W        W87715   2.767  38.996   1.732
20648W        W87716  38.880  28.110   5.278
20649W        W87717   7.906  11.227  14.967
20650W        W87718  35.061  43.337   2.404
20651W        W87719  26.988  21.145   4.661
20652W        W87720  30.119   6.748   3.843
20653W        W87721  40.853  27.181  10.942
20654W        W87722  37.361   7.775   3.361
20655W        W87723  21.630  19.113  12.353
20656W        W87724  29.445  18.255   2.226
20657W        W87725  19.626  33.105   0.868
20658W        W87726   1.237  11.340   2.333
20659W        W87727  16.759  21.613   2.311
20660W        W87728  42.846  43.811   1.772
20661W        W87729  42.781  26.646   1.779
20662W        W87730  35.546  27.608  10.995
20663W        W87731   2.832  30.928  14.822
20664W        W87732  30.046  18.129   0.896
20665W        W87733  44.007   9.309   1.333
20666W        W87734  14.189   6.206   2.846
20667W        W87735  43.774  24.205  13.957
20668W        W87736   2.336  13.662  11.965
20669W        W87737  20.268  21.737   4.782
20670W        W87738  31.628   9.203  10.470
20671W        W87739  32.047  14.594  13.422
20672W        W87740  39.890   3.713   3.183
20673W        W87741  11.200  39.496   2.882
20674W        W87742   7.829  32.970   0.876
20675W        W87743  38.491  19.128  13.415
20676W        W87744   7.708   4.211  14.336
20677W        W87745  29.615  15.299  14.990
20678W        W87746  33.551  44.828  12.972
20679W        W87747   3.929  11.195  11.568
20680W        W87748   5.916  34.375  12.920
20681W        W87749   3.215   8.793   0.481
20682W        W87750   0.275  29.169  12.355
20683W        W87751  24.057   5.715  12.977
20684W        W87752  42.509  34.498   3.842
20685W        W87753  28.567  41.491   4.708
20686W        W87754  44.909   0.854  14.032
20687W        W87755   3.228  31.035   2.781
20688W        W87756   1.441   9.789   0.426
20689W        W87757  14.633  13.196   3.320
20690W        W87758  42.961  32.401  12.498
20691W        W87759  26.097  30.528   4.704
20692W        W87760   3.719  17.575  13.888
20693W        W87761  24.611   9.272  10.450
20694W        W87762  13.732   4.742  14.980
20695W        W87763  32.102  11.726   5.206
20696W        W87764  27.158  44.821  13.049
20697W        W87765  18.706  11.775   3.822
20698W        W87766  20.189  20.218  14.833
20699W        W87767  25.993  25.991  11.103
20700W        W87768   8.844  35.534   0.815
20701W        W87769   8.367  40.987  10.422
20702W        W87770  19.641  40.864   1.448
20703W        W87771  44.492  43.439  14.513
20704W        W87772  16.225  27.689  14.434
20705W        W87773  35.916   0.392  13.526
20706W        W87774  33.388  43.946  10.915
20707W        W87775   4.253  21.048  10.909
20708W        W87776  21.183  23.573  10.549
20709W        W87777  31.464   3.765   4.305
20710W        W87778   9.201  22.549  11.937
20711W        W87779   2.785   1.265   4.705
20712W        W87780   2.234  14.701   1.269
20713W        W87781  35.858  41.836  12.885
20714W        W87782  32.464  26.563  12.559
20715W        W87783  20.628  19.183  14.977
20716W        W87784   4.304  38.472  13.340
20717W        W87785  37.008  20.556   0.421
20718W        W87786  22.553   2.280  13.892
20719W        W87787  44.804  41.861  11.942
20720W        W87788   7.323  33.980  13.450
20721W        W87789  16.140  34.583   5.241
20722W        W87790  18.113  12.134   3.779
20723W        W87791  20.161   2.402  11.045
20724W        W87792  20.050  29.020  11.601
20725W        W87793  16.251   2.756  14.489
20726W        W87794   7.222   8.301  14.894
20727W        W87795  29.522   6.755  10.522
20728W        W87796  24.052  27.463  10.544
20729W        W87797  21.254   0.370   0.865
20730W        W87798   8.729  33.518  13.966
20731W        W87799  34.529  23.202  14.787
20732W        W87800   0.833  41.999  12.415
20733W        W87801   5.796  40.381   2.396
20734W        W87802   7.708  27.518  10.587
20735W        W87803  22.062   5.259   2.329
20736W        W87804  27.096   7.313  14.481
20737W        W87805  37.011  25.502  11.038
20738W        W87806  29.120   4.893   2.866
20739W        W87807  44.394  25.102   3.207
20740W        W87808  38.532   2.772  13.545
20741W        W87809  23.605  29.449  14.894
20742W        W87810  30.544  37.570   0.244
20743W        W87811  43.889  37.568  10.994
20744W        W87812  33.497  16.717  10.916
20745W        W87813  24.606  36.578   1.855
20746W        W87814   9.274  17.086   3.354
20747W        W87815  12.183  30.086   0.760
20748W        W87816   6.209  22.996   1.217
20749W        W87817   0.310  18.287   2.744
20750W        W87818  34.995   5.738  10.440
20751W        W87819   4.844  33.606   2.191
20752W        W87820  16.143  38.042  14.803
20753W        W87821  35.500   1.955   4.677
20754W        W87822  33.621   4.230   1.243
20755W        W87823  33.979   2.385   3.786
20756W        W87824  13.760   5.366   0.476
20757W        W87825   5.234  19.169  13.893
20758W        W87826   4.706  14.603  10.517
20759W        W87827  14.186   1.352   4.129
20760W        W87828  12.809   1.296  10.948
20761W        W87829   0.352   3.860   3.326
20762W        W87830  29.056  17.074   0.260
20763W        W87831  36.369   7.227  11.487
20764W        W87832  22.191  39.971   3.291
20765W        W87833  26.981  24.148   1.334
20766W        W87834  19.589  27.647   3.349
20767W        W87835  15.149  21.143   0.847
20768W        W87836   1.464  38.047  13.056
20769W        W87837   6.695  28.932   1.265
20770W        W87838  36.854  36.877  12.471
20771W        W87839  37.995  14.813   4.342
20772W        W87840  23.548  20.200  14.363
20773W        W87841  26.191  38.437  13.437
20774W        W87842  35.959  13.703  11.983
20775W        W87843  27.993   0.443  12.368
20776W        W87844  34.381  44.906   3.273
20777W        W87845  10.195   3.727   4.801
20778W        W87846  17.249  43.435   1.760
20779W        W87847   7.815  28.030   2.233
20780W        W87848  25.532  25.057  10.941
20781W        W87849  14.662  13.154   2.826
20782W        W87850   4.222  13.604  14.293
20783W        W87851  18.547   3.287   3.162
20784W        W87852   5.434  39.354  11.437
20785W        W87853  42.902  16.287  14.287
20786W        W87854  36.874  36.433  13.545
20787W        W87855  29.608   2.226   2.784
20788W        W87856  23.985  16.245   3.169
20789W        W87857  33.975  42.784  13.036
20790W        W87858  21.188  20.032   1.340
20791W        W87859  18.288  37.404  10.909
20792W        W87860  21.654  25.671  13.462
20793W        W87861  14.641  25.548   1.371
20794W        W87862  40.318   7.812   2.240
20795W        W87863  37.983  40.881   1.289
20796W        W87864   4.916  28.524  13.890
20797W        W87865  44.943  27.045   1.288
20798W        W87866   5.721   8.706   0.783
20799W        W87867  26.493   8.735  12.450
20800W        W87868  39.398  42.960   3.257
20801W        W87869   9.253  11.283  13.866
20802W        W87870  32.520   5.756  13.035
20803W        W87871  11.829  31.408   0.481
20804W        W87872  16.216  33.962   0.471
20805W        W87873  13.840  19.539   0.967
20806W        W87874  42.441  25.044   3.809
20807W        W87875  42.285  42.393  10.589
20808W        W87876  37.937  19.228   3.815
20809W        W87877  12.161   7.710  12.508
20810W        W87878  38.416   3.724  13.506
20811W        W87879   8.263   2.721  14.960
20812W        W87880  36.478   8.357   3.368
20813W        W87881  20.081  24.066  10.979
20814W        W87882  44.291  42.998  14.288
20815W        W87883  33.487  19.776   2.402
20816W        W87884  41.353  44.955   2.794
20817W        W87885   3.360  20.721   4.247
20818W        W87886  26.042   7.194   2.304
20819W        W87887  38.921  17.594  14.911
20820W        W87888  30.134  43.928  10.564
20821W        W87889   3.785  35.600  11.957
20822W        W87890   6.685   4.244  12.459
20823W        W87891  26.684  41.406   4.124
20824W        W87892  31.618  22.189   0.818
20825W        W87893  41.799  41.024   1.375
20826W        W87894   1.452  38.074   1.318
20827W        W87895  19.245   2.240   1.242
20828W        W87896  14.640  38.820   2.186
20829W        W87897  16.239  44.974   3.239
20830W        W87898  41.920  40.330   2.336
20831W        W87899  38.943  32.591  13.382
20832W        W87900  22.709  39.829   4.348
20833W        W87901  26.528  29.531  10.452
20834W        W87902  27.051   7.175  12.001
20835W        W87903   0.900  14.811  10.443
20836W        W87904  13.603  14.684   4.173
20837W        W87905   2.243   4.840   4.824
20838W        W87906  43.506  40.940   4.637
20839W        W87907  12.281  21.664   2.809
20840W        W87908  29.626  14.648  13.849
20841W        W87909   6.398  25.160   3.825
20842W        W87910  22.595  40.922  12.503
20843W        W87911  35.079   5.895   4.303
20844W        W87912  38.823   4.819  11.518
20845W        W87913  21.258  42.898   3.352
20846W        W87914  15.584  18.210  13.875
20847W        W87915  25.093  11.696   4.644
20848W        W87916   6.240   4.718  11.415
20849W        W87917  30.034  19.629  10.469
20850W        W87918  16.795  19.198   0.481
20851W        W87919  24.019  33.490   2.820
20852W        W87920  33.925  22.703   0.879
20853W        W87921  26.598  41.976   4.134
20854W        W87922   9.353  35.986   4.278
20855W        W87923   0.866   2.926  12.058
20856W        W87924  33.108  31.135   2.188
20857W        W87925  37.913  19.651  13.034
20858W        W87926  36.425  20.634  13.530
20859W        W87927  35.064  18.088  11.865
20860W        W87928  28.498  18.121  14.461
20861W        W87929  36.488  11.204   0.871
20862W        W87930   6.695   4.282   2.377
20863W        W87931   6.799  33.451   3.829
20864W        W87932  13.780  31.002   0.278
20865W        W87933   6.307  11.310  13.031
20866W        W87934  34.043  10.638   2.291
20867W        W87935  24.608  12.261  12.503
20868W        W87936  12.707  41.298  12.866
20869W        W87937   4.233  17.588  14.820
20870W        W87938  43.273  35.885  14.449
20871W        W87939  26.975  36.842  13.402
20872W        W87940  21.517  10.705   0.307
20873W        W87941  17.751  27.009   2.846
20874W        W87942  17.792  10.664  11.987
20875W        W87943   5.415   7.240   4.728
20876W        W87944  42.776  25.481  14.767
20877W        W87945  20.562  19.215   3.786
20878W        W87946   4.292  27.176   4.151
20879W        W87947   1.339  10.152  13.547
20880W        W87948  28.016   8.196  14.333
20881W        W87949  37.409   8.775  12.340
20882W        W87950  16.168  37.571   1.230
20883W        W87951  22.194  41.431   1.403
20884W        W87952  10.197  36.875   1.396
20885W        W87953  14.638   1.386  11.962
20886W        W87954  11.162  13.350  11.046
20887W        W87955  13.313  44.391   4.161
20888W        W87956   2.953  31.947  14.479
20889W        W87957  24.149  21.662  14.862
20890W        W87958  15.629  10.169   1.925
20891W        W87959  38.850  27.053   4.338
20892W        W87960  36.858  37.340   4.300
20893W        W87961  15.095  27.511   1.750
20894W        W87962   3.845   6.897   2.283
20895W        W87963  44.350  20.725  14.295
20896W        W87964  22.646  37.856  10.534
20897W        W87965  21.126   9.679  14.913
20898W        W87966  42.494   5.333  14.476
20899W        W87967  18.557   7.302  10.913
20900W        W87968  11.724  17.098   9.949
20901W        W87969  29.087  35.953   0.274
20902W        W87970  20.735  22.035  10.552
20903W        W87971   8.164  23.729   4.619
20904W        W87972  12.784  17.598   4.650
20905W        W87973  41.826  41.474   5.110
20906W        W87974  27.944   3.792   2.190
20907W        W87975   2.330   5.241  11.927
20908W        W87976  21.241   6.769  12.861
20909W        W87977  23.177  22.521  13.898
20910W        W87978  25.568  14.106   1.213
20911W        W87979   1.378  22.584   4.808
20912W        W87980  12.224  40.052   1.381
20913W        W87981  37.488   6.420  14.991
20914W        W87982   5.870   2.841   1.881
20915W        W87983  40.893  15.689   0.736
20916W        W87984   9.715  34.099  11.016
20917W        W87985  27.087   1.399  11.423
20918W        W87986  12.210  38.375  13.932
20919W        W87987  11.295   2.844   5.174
20920W        W87988   0.306   7.223   1.769
20921W        W87989  43.362  26.998  14.355
20922W        W87990   0.461  23.023   0.349
20923W        W87991   3.942  21.137  12.083
20924W        W87992  11.715  30.148  12.453
20925W        W87993  29.954  39.347   1.824
20926W        W87994  28.591  42.484  12.012
20927W        W87995  25.671  10.663   2.818
20928W        W87996  24.034  33.037  10.456
20929W        W87997   2.320  12.140  13.507
20930W        W87998  19.044   3.822   3.692
20931W        W87999  12.296  34.571   0.734
20932W        W88000  38.414  15.614  13.026
20933W        W88001  37.954  19.615  10.928
20934W        W88002  41.399  18.227  11.094
20935W        W88003   2.857  33.037   3.235
20936W        W88004  17.751  22.249   5.124
20937W        W88005  37.558  31.940   4.684
20938W        W88006  18.703  44.401   2.698
20939W        W88007  26.114   7.390  14.018
20940W        W88008   1.425   3.940  11.016
20941W        W88009  38.918  37.947  12.514
20942W        W88010  31.953   9.155  12.088
20943W        W88011  32.979  14.615   3.721
20944W        W88012  34.057  40.947  14.492
20945W        W88013  21.739  26.174  14.992
20946W        W88014  20.643  31.581  13.347
20947W        W88015  21.629  14.675   3.666
20948W        W88016   3.399   3.856   0.442
20949W        W88017   0.401  33.560  11.571
20950W        W88018  26.472  12.774  12.869
20951W        W88019  19.728  36.097  12.427
20952W        W88020  26.111  28.128   4.781
20953W        W88021  41.909  24.158   1.782
20954W        W88022  33.130   9.716   0.242
20955W        W88023  41.859  30.623   5.261
20956W        W88024   4.243  40.929   3.676
20957W        W88025  37.430   8.398  11.433
20958W        W88026   6.906  12.708   4.306
20959W        W88027   5.411  44.964  14.876
20960W        W88028  40.886  18.275   3.692
20961W        W88029   5.773  17.238  13.434
20962W        W88030  23.632  37.858  14.300
20963W        W88031  43.427  22.630  13.956
20964W        W88032   2.736  24.524  10.999
20965W        W88033  19.554  26.158   4.780
20966W        W88034   5.368  32.064   0.328
20967W        W88035  12.120  18.547  14.393
20968W        W88036  33.036  19.231  10.615
20969W        W88037  37.520  27.163   0.340
20970W        W88038   1.345  24.587  13.881
20971W        W88039  32.899  42.001   2.380
20972W        W88040   3.931   5.809  12.940
20973W        W88041  26.979  19.624   5.124
20974W        W88042   0.782  35.017  13.440
20975W        W88043  31.922   6.349   1.251
20976W        W88044  44.832  13.129   1.786
20977W        W88045  40.451   9.841   2.212
20978W        W88046   7.911  17.620   0.245
20979W        W88047  16.669  27.193  12.426
20980W        W88048   0.463  20.603   1.235
20981W        W88049  19.222   4.761   3.748
20982W        W88050  22.562  29.002  14.023
20983W        W88051  18.222   9.884  10.423
20984W        W88052  24.671   5.238  13.856
20985W        W88053  17.190  32.885   1.418
20986W        W88054  29.958  12.120   0.300
20987W        W88055  14.604  15.228   2.329
20988W        W88056  31.141  31.461  10.979
20989W        W88057  40.479  21.568  10.606
20990W        W88058   8.816  31.464   1.378
20991W        W88059   2.896  29.574  11.903
20992W        W88060   3.387  21.560   2.408
20993W        W88061  19.080  19.778   2.354
20994W        W88062  36.534  39.971  11.579
20995W        W88063  40.432  24.202  13.319
20996W        W88064  44.351  30.419  13.913
20997W        W88065   4.908   5.873   2.681
20998W        W88066  39.482  39.935   0.784
20999W        W88067  26.663   9.691  10.503
21000W        W88068  35.373  44.299  14.764
21001W        W88069   4.918  29.015   3.224
21002W        W88070  26.630  40.379   2.722
21003W        W88071  44.299  29.476  12.970
21004W        W88072  16.219  35.521  14.900
21005W        W88073  27.048  14.095   4.249
21006W        W88074  27.576  15.278  13.490
21007W        W88075  12.314  26.200   3.704
21008W        W88076  43.848  24.076   1.718
21009W        W88077  20.213  18.702  11.587
21010W        W88078  16.192  37.080   0.444
21011W        W88079  17.759  44.914   0.288
21012W        W88080  33.498  41.416  11.399
21013W        W88081  12.138   3.346  11.415
21014W        W88082  37.902  28.500  10.629
21015W        W88083   8.858   8.702  11.611
21016W        W88084  29.610  20.573  13.989
21017W        W88085   1.819  14.228   4.619
21018W        W88086   7.762  21.513  10.430
21019W        W88087  22.996  42.317  12.082
21020W        W88088  17.628  15.324   0.760
21021W        W88089  16.581  11.139  14.996
21022W        W88090  19.596  13.607   4.705
21023W        W88091  39.847  19.166   3.737
21024W        W88092  18.676  25.583   4.118
21025W        W88093  10.189  35.878   2.302
21026W        W88094   6.239  29.660   4.664
21027W        W88095   6.917   4.240   0.876
21028W        W88096  27.004  21.127   3.374
21029W        W88097  22.605  22.230  11.944
21030W        W88098   6.190   7.730  11.104
21031W        W88099   9.726   5.697   4.623
21032W        W88100  37.434  22.042  10.983
21033W        W88101   0.757  37.855  12.915
21034W        W88102   0.447  25.542   0.883
21035W        W88103   3.901  22.110  13.947
21036W        W88104  22.536  32.568  11.957
21037W        W88105  36.362  35.976  12.379
21038W        W88106  39.857  23.671  14.440
21039W        W88107  34.374  28.435   3.670
21040W        W88108  29.489  26.089   0.802
21041W        W88109  40.322  27.954  10.626
21042W        W88110  11.184  30.914   2.763
21043W        W88111   3.843  14.623   4.760
21044W        W88112  36.576  31.022   3.240
21045W        W88113  10.845  18.240  12.039
21046W        W88114   7.891  16.769  13.443
21047W        W88115  44.758   8.887   2.854
21048W        W88116   6.805  44.459   4.747
21049W        W88117  30.134   5.297   1.375
21050W        W88118   5.204  26.504  13.443
21051W        W88119  18.293  23.724   4.770
21052W        W88120  44.476  11.709  14.898
21053W        W88121  41.936  28.670   3.325
21054W        W88122  41.508  19.231   0.340
21055W        W88123   8.273   9.678  10.973
21056W        W88124  28.621  32.601   0.925
21057W        W88125  40.879  43.974   1.746
21058W        W88126  10.286  28.932   1.345
21059W        W88127  22.625   7.404  12.545
21060W        W88128  21.170   9.744   2.195
21061W        W88129  34.511  25.482   3.160
21062W        W88130  10.232  19.690   1.883
21063W        W88131  22.730  13.726  12.958
21064W        W88132   6.786  16.184   3.178
21065W        W88133  35.501  37.432  10.994
21066W        W88134  14.753  33.895   1.399
21067W        W88135  16.638  10.343  12.365
21068W        W88136   7.335  12.745  13.802
21069W        W88137  39.377  10.637  11.570
21070W        W88138   7.884   9.780   2.338
21071W        W88139  19.220  37.531   2.770
21072W        W88140  17.611  26.550   4.620
21073W        W88141  36.398  11.142   3.232
21074W        W88142  31.132  33.922   3.177
21075W        W88143  27.463  11.774  13.544
21076W        W88144  40.349  35.040   4.197
21077W        W88145  18.283  29.930  12.095
21078W        W88146  25.055   7.209  10.954
21079W        W88147  25.676   3.405   2.262
21080W        W88148  41.345  20.216  11.033
21081W        W88149  32.435  22.065   2.699
21082W        W88150   3.419  40.325   2.280
21083W        W88151  44.849  25.631   0.769
21084W        W88152   5.869  33.388  11.084
21085W        W88153  41.380  41.508  12.975
21086W        W88154  32.633  44.884  14.890
21087W        W88155  18.225   5.325   0.927
21088W        W88156   1.882  33.016  11.540
21089W        W88157   5.278  39.322  12.930
21090W        W88158  34.871   1.796  11.084
21091W        W88159  44.456  21.623  14.817
21092W        W88160  31.545  33.509  14.780
21093W        W88161  33.575  26.967   2.820
21094W        W88162   5.825  26.543   0.409
21095W        W88163   4.822   4.263  13.944
21096W        W88164  28.643  31.642  13.517
21097W        W88165  44.361  28.077   2.886
21098W        W88166  24.550  41.011   1.219
21099W        W88167  10.320   2.890   2.372
21100W        W88168   2.734   3.434   0.272
21101W        W88169  40.974  39.846   4.331
21102W        W88170   3.782  44.961   4.171
21103W        W88171  43.950  33.938  12.387
21104W        W88172  31.516   6.293  12.087
21105W        W88173  16.767   0.285  12.492
21106W        W88174  39.943  35.493   0.905
21107W        W88175  34.918  41.342  11.446
21108W        W88176  15.178   0.943   3.295
21109W        W88177  42.923  43.348  14.835
21110W        W88178  39.915  38.913   3.160
21111W        W88179  16.093   9.330   4.328
21112W        W88180  34.114  44.304   9.939
21113W        W88181  34.534   2.407  13.408
21114W        W88182  35.395   2.407   3.774
21115W        W88183  20.099  26.513   2.279
21116W        W88184  32.889  33.887  11.536
21117W        W88185   5.820  26.110   0.798
21118W        W88186  34.371   1.417   4.827
21119W        W88187   0.478  14.203   2.878
21120W        W88188  32.495  19.170   0.888
21121W        W88189  17.118   4.372   2.796
21122W        W88190  25.531  21.649   1.259
21123W        W88191   6.291   3.837  12.468
21124W        W88192  29.665  27.542   3.651
21125W        W88193  13.611  32.493  12.485
21126W        W88194  13.133  21.243   3.367
21127W        W88195  31.027  22.711   1.295
21128W        W88196  25.571  39.348   3.217
21129W        W88197  19.731   2.346   0.420
21130W        W88198   3.829  29.445  10.933
21131W        W88199  39.342  43.328   3.774
21132W        W88200  41.977   6.706   2.847
21133W        W88201  37.997  41.920  11.562
21134W        W88202  24.009  37.958   3.849
21135W        W88203  23.603  41.850  11.921
21136W        W88204   4.759   4.925  13.847
21137W        W88205  30.419  20.723   3.386
21138W        W88206   6.918   5.766  12.071
21139W        W88207  31.118  19.237  11.532
21140W        W88208  42.856  11.219   1.792
21141W        W88209   7.255  21.252  10.425
21142W        W88210  32.885   5.839   3.207
21143W        W88211   6.303  23.591  10.578
21144W        W88212  14.821  10.677  12.570
21145W        W88213   5.323  30.533  13.041
21146W        W88214  32.035  27.447   2.745
21147W        W88215  41.899  33.450   1.304
21148W        W88216   2.266   6.922   1.778
21149W        W88217   4.731  44.326  13.055
21150W        W88218  28.016  14.810  14.297
21151W        W88219  17.131  36.023   0.789
21152W        W88220   7.236  41.368   3.358
21153W        W88221  26.984  43.388   1.373
21154W        W88222  15.298   4.363   1.424
21155W        W88223  24.158  14.241   4.264
21156W        W88224  36.548   1.306   3.716
21157W        W88225  24.206  33.394   4.172
21158W        W88226  15.103   4.329  14.977
21159W        W88227  22.147   5.330   2.691
21160W        W88228  44.819  30.626  13.882
21161W        W88229   2.327  30.162   1.710
21162W        W88230  38.987  35.867   4.785
21163W        W88231  31.967  12.305   0.749
21164W        W88232  20.222  10.641   1.884
21165W        W88233  16.631  28.058   4.159
21166W        W88234  39.369  11.759  11.011
21167W        W88235   0.799  34.471  10.915
21168W        W88236  35.455  36.453  12.950
21169W        W88237  23.030  21.102  13.955
21170W        W88238   3.390  33.495  14.410
21171W        W88239  33.082   8.393   0.897
21172W        W88240  23.727  33.946   2.800
21173W        W88241  12.789  32.462  13.325
21174W        W88242   1.318  26.124   2.244
21175W        W88243  28.512  38.833  12.901
21176W        W88244  18.123  29.432  10.944
21177W        W88245  13.284  18.177   1.403
21178W        W88246  14.588   0.397  14.006
21179W        W88247  20.205  21.623   2.369
21180W        W88248  32.125  10.248  13.920
21181W        W88249  41.000  42.296   4.287
21182W        W88250  13.173  14.723   4.733
21183W        W88251  18.715  32.469  13.920
21184W        W88252  25.057  35.563   2.353
21185W        W88253  16.659   5.355  12.560
21186W        W88254  40.549  43.493   2.686
21187W        W88255  12.196  14.599   3.681
21188W        W88256  34.102  41.957  14.014
21189W        W88257  10.696  24.483  11.068
21190W        W88258  40.329   3.936   2.673
21191W        W88259  28.479  13.300   5.317
21192W        W88260  34.879  19.231  13.859
21193W        W88261  28.024  44.958   1.442
21194W        W88262  19.764  37.405  12.456
21195W        W88263  19.774   8.804   4.628
21196W        W88264  29.993   0.388   0.959
21197W        W88265  20.598  38.029   0.791
21198W        W88266  21.695  35.431   3.201
21199W        W88267  40.046  41.525   0.281
21200W        W88268  18.579  31.017   1.367
21201W        W88269  31.627   0.460  10.615
21202W        W88270  42.321  32.893   1.933
21203W        W88271  10.757  36.023   0.789
21204W        W88272  33.542  43.352  11.100
21205W        W88273  24.722  15.115   1.234
21206W        W88274  17.069   4.336   3.632
21207W        W88275   5.406  22.683   0.249
21208W        W88276  21.711  17.767  14.828
21209W        W88277  43.386  43.402   4.271
21210W        W88278  10.269  19.257  10.053
21211W        W88279  24.576  18.723  13.435
21212W        W88280  24.665  39.827  14.024
21213W        W88281  36.370  42.463   2.665
21214W        W88282  12.625  10.290   2.856
21215W        W88283  24.610  11.200   2.411
21216W        W88284   7.336  41.498  14.848
21217W        W88285  30.497   7.213  11.019
21218W        W88286  26.515  36.476  11.521
21219W        W88287   3.260  20.198   2.887
21220W        W88288  38.037  26.202   2.800
21221W        W88289  32.054  23.987  11.583
21222W        W88290  18.135  22.114   0.302
21223W        W88291  26.685   2.272   2.398
21224W        W88292  10.240   5.744   1.450
21225W        W88293   0.343  13.158  13.858
21226W        W88294   0.421  38.550   3.697
21227W        W88295  27.452  14.247  12.052
21228W        W88296  32.609  35.899   4.231
21229W        W88297  21.590  23.626  13.918
21230W        W88298   3.408   5.771   1.879
21231W        W88299  31.411  35.070   3.846
21232W        W88300  33.954  44.259  13.420
21233W        W88301  38.874  27.549  14.783
21234W        W88302   3.902  30.953   4.672
21235W        W88303  25.210  44.847   3.231
21236W        W88304  20.114  23.047   1.792
21237W        W88305  34.979   2.924   2.698
21238W        W88306  31.601  33.032  10.120
21239W        W88307  23.179  24.479  11.098
21240W        W88308   2.424  32.936  10.906
21241W        W88309  15.787  32.104  14.429
21242W        W88310  30.606  11.178   2.354
21243W        W88311  37.007   4.333   0.930
21244W        W88312  27.668  19.265   0.952
21245W        W88313  33.506  16.280  14.782
21246W        W88314  26.177  29.437   4.655
21247W        W88315  36.879  41.396   1.279
21248W        W88316  30.440  44.905   2.233
21249W        W88317  20.137   7.778   3.200
21250W        W88318  41.988  35.913  14.377
21251W        W88319  10.138  30.589   2.343
21252W        W88320   2.368  37.467   5.206
21253W        W88321  37.508  12.250  11.946
21254W        W88322   0.866  18.270   3.247
21255W        W88323  17.061  16.174  10.471
21256W        W88324   6.413   7.352  10.917
21257W        W88325  33.081  43.903  14.453
21258W        W88326  39.521  32.026   5.095
21259W        W88327   6.811  21.582  13.892
21260W        W88328  33.443  26.133  11.440
21261W        W88329   6.790  11.296  10.566
21262W        W88330  14.100  10.202   3.773
21263W        W88331  24.006  18.750  11.067
21264W        W88332  19.055  30.570   4.798
21265W        W88333  28.129  30.963   2.803
21266W        W88334  44.359   9.734  13.862
21267W        W88335   0.428  32.454  10.044
21268W        W88336  42.381   6.785   0.327
21269W        W88337   2.817  35.938   2.366
21270W        W88338  29.962  13.270  13.018
21271W        W88339  36.346  41.923  13.014
21272W        W88340  27.587   1.356  11.126
21273W        W88341   4.389   8.749  11.093
21274W        W88342  13.117  24.032   1.869
21275W        W88343  14.150   6.920   2.197
21276W        W88344   5.726   1.949   2.315
21277W        W88345  22.182   5.896  10.422
21278W        W88346  33.562   6.390  10.070
21279W        W88347  36.919   1.950   2.215
21280W        W88348  31.958  44.476  13.985
21281W        W88349  27.648  44.815  12.573
21282W        W88350  33.974  26.665   0.892
21283W        W88351  12.324  19.568   1.246
21284W        W88352  13.323  34.588  13.901
21285W        W88353  41.830  40.346   3.687
21286W        W88354   7.370   1.764  14.449
21287W        W88355  32.553  16.164   0.270
21288W        W88356  40.005  22.073  14.818
21289W        W88357   8.298  11.332  13.004
21290W        W88358   9.678  12.291   3.764
21291W        W88359  43.867  14.689   1.900
21292W        W88360  20.163  42.810   1.310
21293W        W88361  30.989  21.146  14.401
21294W        W88362  31.526  11.803   2.354
21295W        W88363   7.387  16.076  11.558
21296W        W88364  12.223  10.186  11.913
21297W        W88365  13.136  40.499  10.435
21298W        W88366  16.783  39.413   2.723
21299W        W88367   0.306  33.918   2.709
21300W        W88368   8.287  33.047   0.877
21301W        W88369  35.897  37.011  10.415
21302W        W88370  31.636  35.368   2.363
21303W        W88371   2.344   7.216  12.018
21304W        W88372  20.255   1.829  12.990
21305W        W88373  18.113   0.271   3.800
21306W        W88374   6.893   0.358   4.200
21307W        W88375  15.180  40.467   3.815
21308W        W88376  10.346   7.393  11.404
21309W        W88377  11.833  25.570   2.411
21310W        W88378  35.078  35.426   4.769
21311W        W88379   9.379  12.355  11.880
21312W        W88380   7.259   2.252  14.952
21313W        W88381  30.083   4.842   1.210
21314W        W88382   6.248  33.525  10.412
21315W        W88383  34.042  26.068  14.840
21316W        W88384  38.341   7.733  12.096
21317W        W88385  27.551  43.307   1.785
21318W        W88386  23.172   3.788  11.573
21319W        W88387   9.364  13.173   0.370
21320W        W88388   1.286  20.259  10.996
21321W        W88389  39.371  34.027  12.488
21322W        W88390  34.385  31.089  13.344
21323W        W88391  14.194  16.127   2.833
21324W        W88392  37.516   6.278  14.345
21325W        W88393   3.313  17.293   2.841
21326W        W88394  35.409  36.526  14.926
21327W        W88395  13.669  33.092   4.745
21328W        W88396  26.519  14.202  11.476
21329W        W88397  19.733  21.067  14.320
21330W        W88398  25.991   6.736   0.279
21331W        W88399  16.176  33.530  12.046
21332W        W88400   6.297  13.126   0.385
21333W        W88401  16.635  16.073   3.177
21334W        W88402  10.380  41.469  11.970
21335W        W88403  23.694  14.299  10.637
21336W        W88404  29.539  27.462   2.873
21337W        W88405  23.500  19.767  12.848
21338W        W88406  30.995   1.863  10.915
21339W        W88407  28.617  40.968  14.919
21340W        W88408  36.435  18.713  12.982
21341W        W88409  22.182  38.369   2.725
21342W        W88410  27.625  16.079  13.907
21343W        W88411  39.870  36.949   4.828
21344W        W88412  30.453  11.306   2.671
21345W        W88413  18.200  39.543   4.226
21346W        W88414  14.251   4.219  12.030
21347W        W88415  25.537   0.840   3.835
21348W        W88416  15.256  42.858   1.751
21349W        W88417   9.165  36.521  11.085
21350W        W88418  14.252   0.978  14.977
21351W        W88419  10.312  11.625   0.315
21352W        W88420  16.265  33.131   4.278
21353W        W88421  29.603   5.900  13.838
21354W        W88422  35.523  10.830  12.836
21355W        W88423  30.957  14.317  12.826
21356W        W88424  14.209  22.044  14.516
21357W        W88425  27.109  44.965   4.733
21358W        W88426   9.649  32.497   0.471
21359W        W88427  41.855  10.789   0.468
21360W        W88428   4.410  41.948   4.667
21361W        W88429  11.133  31.558   0.836
21362W        W88430  15.309  10.231  10.130
21363W        W88431  34.563  11.172   4.270
21364W        W88432  44.773  19.737   2.692
21365W        W88433  15.322   3.806   1.238
21366W        W88434  26.088  26.115  12.574
21367W        W88435  24.229  26.075   1.928
21368W        W88436  29.160  38.562  14.001
21369W        W88437  42.424  15.194   3.730
21370W        W88438  35.068  42.954  12.419
21371W        W88439  41.527  31.921   4.211
21372W        W88440   7.762  26.542  14.773
21373W        W88441  40.335  18.655   1.211
21374W        W88442  44.973   3.754  14.798
21375W        W88443  37.501   2.847   1.279
21376W        W88444  18.125  28.953  12.893
21377W        W88445  31.589  21.604  12.437
21378W        W88446  30.576  34.580   0.857
21379W        W88447  16.600   1.908   3.836
21380W        W88448  34.459  16.094  14.020
21381W        W88449  10.713   2.250   1.286
21382W        W88450  10.804   7.371  11.565
21383W        W88451   2.399   9.354   1.818
21384W        W88452  27.086  34.446  14.864
21385W        W88453  22.563  24.162   4.665
21386W        W88454  30.077  37.989   3.175
21387W        W88455  25.193  43.993   4.655
21388W        W88456  38.556  39.991  13.504
21389W        W88457  22.612  31.921  14.990
21390W        W88458  17.142  44.352   4.780
21391W        W88459  36.529  13.734  13.895
21392W        W88460  21.117   6.762  12.086
21393W        W88461  10.822  17.718  14.856
21394W        W88462  17.650  19.209  11.128
21395W        W88463  20.561  31.472   0.248
21396W        W88464  17.269  20.076  14.962
21397W        W88465  10.645   8.748  12.468
21398W        W88466  18.063  26.692  10.571
21399W        W88467  27.488  18.137   4.177
21400W        W88468  38.826  18.207   0.772
21401W        W88469  25.544  28.631   1.697
21402W        W88470  40.810  17.299  13.391
21403W        W88471  27.176   0.428  11.057
21404W        W88472   7.745  21.183   0.876
21405W        W88473  26.204   1.816  14.307
21406W        W88474  40.879   5.770  12.852
21407W        W88475   6.281  42.316   1.753
21408W        W88476   6.849   7.190  12.574
21409W        W88477  41.478   2.384  10.641
21410W        W88478   8.171  16.171   4.321
21411W        W88479   5.331   5.721   0.390
21412W        W88480  29.520   5.717   2.725
21413W        W88481  40.389  32.063   1.315
21414W        W88482  33.899   0.329  12.561
21415W        W88483  34.512  10.779  10.487
21416W        W88484  38.978  22.162   1.232
21417W        W88485  25.014   8.227   1.736
21418W        W88486  37.356  32.983  14.425
21419W        W88487  41.394  41.043   3.286
21420W        W88488  37.078  44.790  14.389
21421W        W88489   2.381   9.743  10.464
21422W        W88490  22.551  23.089  10.063
21423W        W88491  10.736  32.892  13.817
21424W        W88492   3.837   7.306  12.516
21425W        W88493  25.553  10.287  11.071
21426W        W88494  11.631   9.889  10.609
21427W        W88495  15.281  34.476   0.442
21428W        W88496  23.732  27.534   3.834
21429W        W88497  32.894  11.818   2.754
21430W        W88498   4.734  14.294  11.001
21431W        W88499  19.586  26.480  10.954
21432W        W88500   2.303   2.957   0.956
21433W        W88501   4.829  37.048   0.289
21434W        W88502  28.593  17.120  11.005
21435W        W88503   0.459  23.535  12.825
21436W        W88504  12.251  35.387   2.218
21437W        W88505  11.788  42.342  11.577
21438W        W88506  13.118  28.543  12.387
21439W        W88507   3.405  18.130  10.973
21440W        W88508   2.316   5.369   0.471
21441W        W88509  16.188   3.359   0.358
21442W        W88510   0.929   4.887   0.926
21443W        W88511  29.026  18.728   3.354
21444W        W88512  27.515  44.891  13.481
21445W        W88513  26.008   9.234  14.446
21446W        W88514  40.818  43.793   1.419
21447W        W88515  21.254  28.634  11.588
21448W        W88516  19.264  17.130   1.782
21449W        W88517  22.684  29.954  14.006
21450W        W88518  25.676   1.935  13.424
21451W        W88519  27.046  29.124  11.444
21452W        W88520  37.379  27.083  11.592
21453W        W88521   8.176  41.997  12.488
21454W        W88522  30.079  37.517   2.211
21455W        W88523   0.903  40.415  14.967
21456W        W88524  41.844   2.344  10.450
21457W        W88525  18.760  14.277   3.214
21458W        W88526  29.112  39.380   1.867
21459W        W88527  18.087  15.717   0.350
21460W        W88528   6.334  17.604  12.449
21461W        W88529  38.422   1.864  13.440
21462W        W88530  25.073  34.540  11.553
21463W        W88531  31.956   0.875   3.358
21464W        W88532   2.289  24.633  13.329
21465W        W88533  25.520  38.899  10.910
21466W        W88534  41.433  21.081  14.502
21467W        W88535  39.525  24.600  13.462
21468W        W88536  41.030  30.605  12.087
21469W        W88537  13.304  14.823  12.457
21470W        W88538   9.378  35.925   2.334
21471W        W88539  17.601  40.815  12.510
21472W        W88540  20.051  43.989  14.029
21473W        W88541  13.332  35.604   0.335
21474W        W88542   1.842  27.993  14.883
21475W        W88543  20.071  21.561   4.320
21476W        W88544   3.424   9.669  14.948
21477W        W88545  39.053   7.784   4.331
21478W        W88546  34.495  44.846  10.565
21479W        W88547  14.759  20.213   1.243
21480W        W88548   3.294  39.381  10.469
21481W        W88549   2.820   5.425  10.510
21482W        W88550  32.575  30.073   0.469
21483W        W88551  39.005  19.142   0.374
21484W        W88552  10.223  36.854  12.857
21485W        W88553  13.225  19.190  11.557
21486W        W88554   4.275  24.063  12.343
21487W        W88555  31.590  33.397   4.641
21488W        W88556  31.468  44.499  11.041
21489W        W88557   7.670  38.064   1.784
21490W        W88558  35.424  33.999  10.584
21491W        W88559  28.945  31.648   5.127
21492W        W88560  14.673  15.793   3.348
21493W        W88561   7.199  16.097   2.844
21494W        W88562  33.501  38.840  11.062
21495W        W88563  20.752   1.401   4.319
21496W        W88564  33.060  28.171   3.720
21497W        W88565  35.393  42.816  12.466
21498W        W88566  37.065   9.317   4.249
21499W        W88567  29.156  42.458   0.276
21500W        W88568  36.951  21.584   0.736
21501W        W88569  12.144  34.582  11.080
21502W        W88570   0.966  19.544   1.436
21503W        W88571  10.313  28.601   2.812
21504W        W88572  16.247  21.104   3.842
21505W        W88573  26.553  33.613   3.344
21506W        W88574  37.377  19.054   1.761
21507W        W88575  40.526   7.353  13.006
21508W        W88576  15.268  22.620  14.311
21509W        W88577  36.951  28.028  13.401
21510W        W88578   7.178  27.156   2.213
21511W        W88579   5.398   0.307  12.932
21512W        W88580  28.162   9.251   1.813
21513W        W88581  37.994  26.580  14.018
21514W        W88582  38.471  36.506   1.839
21515W        W88583  11.625  43.329  10.466
21516W        W88584  39.535  18.751  11.941
21517W        W88585  36.869  35.960  12.824
21518W        W88586  11.862   3.262   3.317
21519W        W88587  41.810  20.654  14.029
21520W        W88588  34.004   0.300   2.678
21521W        W88589   4.934  18.774   3.661
21522W        W88590  12.134  33.970   2.664
21523W        W88591  17.183   8.751  11.896
21524W        W88592  43.294   5.717  12.066
21525W        W88593  26.041  19.768  12.423
21526W        W88594  33.455  29.016  11.123
21527W        W88595  38.384  37.958   3.743
21528W        W88596  41.939  29.112   3.854
21529W        W88597  41.869   7.886  11.591
21530W        W88598  21.123  22.241   3.787
21531W        W88599  27.023   2.882   1.844
21532W        W88600  27.484  43.934  10.459
21533W        W88601  35.444  37.025  14.425
21534W        W88602  41.036  38.342   1.908
21535W        W88603  12.659  22.547  14.822
21536W        W88604  39.872  11.334   4.709
21537W        W88605  37.899  43.273   3.658
21538W        W88606   4.265  43.425  10.464
21539W        W88607  18.158   9.750  12.931
21540W        W88608   2.849   3.830  11.086
21541W        W88609  32.401  34.100   1.752
21542W        W88610   0.292  29.431  10.477
21543W        W88611  38.355  29.629   3.712
21544W        W88612   1.453  27.619  11.926
21545W        W88613  44.387  42.485   5.253
21546W        W88614  18.707  39.845  12.831
21547W        W88615  34.894  38.418  13.352
21548W        W88616   1.978  19.225   2.414
21549W        W88617  44.369  36.084   5.268
21550W        W88618   9.655   3.782  11.993
21551W        W88619   7.822   1.390  13.898
21552W        W88620  22.684  21.080  13.051
21553W        W88621  20.120  23.547   0.274
21554W        W88622  39.427  19.232  12.498
21555W        W88623  34.602  21.595  10.445
21556W        W88624  24.516  23.127  11.037
21557W        W88625  41.296  41.352  10.975
21558W        W88626  21.622  37.381  11.029
21559W        W88627   7.300  14.200  13.420
21560W        W88628  39.487   5.868  12.902
21561W        W88629  16.768   7.726   3.209
21562W        W88630  23.107  44.850   2.211
21563W        W88631   1.475  10.182   4.333
21564W        W88632  35.862  16.129   4.274
21565W        W88633   1.375  21.176   0.918
21566W        W88634  38.938  39.522   1.325
21567W        W88635  13.776  21.203  11.531
21568W        W88636  31.431   5.235   1.800
21569W        W88637  21.625  40.867   0.856
21570W        W88638  34.369  29.166   3.304
21571W        W88639   7.911  22.734  14.819
21572W        W88640  11.333  18.168  11.598
21573W        W88641  13.122  31.914  10.080
21574W        W88642   8.405  29.542  14.431
21575W        W88643  42.033  30.655  10.475
21576W        W88644  32.590  41.501  11.987
21577W        W88645  20.261  10.861  14.022
21578W        W88646  33.582  25.013  11.562
21579W        W88647   7.855  12.240   3.297
21580W        W88648  44.369  35.876   4.205
21581W        W88649  26.201  32.557  13.532
21582W        W88650  10.688  24.199   1.442
21583W        W88651  23.132  16.286   2.319
21584W        W88652  29.540  26.964  14.903
21585W        W88653   1.788  30.140   2.216
21586W        W88654  40.444  37.843   4.171
21587W        W88655  32.541  40.433   4.758
21588W        W88656  32.037  39.864  13.821
21589W        W88657  28.145  42.960   0.867
21590W        W88658   6.794  31.069  13.808
21591W        W88659  34.551  10.243   0.425
21592W        W88660   8.737   1.451   0.271
21593W        W88661   7.768  20.035   3.346
21594W        W88662  42.026  40.961   0.441
21595W        W88663  42.840   5.837  13.924
21596W        W88664  28.593  32.016   0.870
21597W        W88665  26.198  22.058  12.555
21598W        W88666  23.239  20.597  12.911
21599W        W88667  41.942  42.355   0.790
21600W        W88668  43.343   6.215   2.282
21601W        W88669  39.903  17.249   1.858
21602W        W88670  32.128  38.388   1.820
21603W        W88671  41.416  12.206  13.801
21604W        W88672  18.152  43.838  12.848
21605W        W88673   9.681  27.051  12.552
21606W        W88674  24.656  21.753  12.839
21607W        W88675  25.002  43.960  11.885
21608W        W88676  38.351   8.848   0.257
21609W        W88677   6.758  43.374  11.569
21610W        W88678   7.417  34.607  14.830
21611W        W88679  10.204  10.281   1.413
21612W        W88680  26.537  30.074  14.799
21613W        W88681  44.429  13.233   3.720
21614W        W88682   0.801  16.102   4.781
21615W        W88683   8.228  16.598   0.424
21616W        W88684  42.017  39.399  13.039
21617W        W88685  36.863  34.596   2.393
21618W        W88686  16.257  40.823  12.902
21619W        W88687   7.219  21.110  13.539
21620W        W88688  41.446  11.684  14.779
21621W        W88689  29.524  15.164  12.076
21622W        W88690  11.251  36.058   4.708
21623W        W88691  40.523  26.054  14.999
21624W        W88692  25.696  15.607  11.089
21625W        W88693  36.517  43.917   4.648
21626W        W88694  27.186  14.105   2.776
21627W        W88695  19.651   8.296   4.798
21628W        W88696   5.262  14.702   4.316
21629W        W88697  24.059  41.495   1.921
21630W        W88698  35.381  11.671  14.359
21631W        W88699  19.600   7.186   2.180
21632W        W88700  13.693  27.953   4.620
21633W        W88701   8.218  40.911  14.784
21634W        W88702  41.351  12.751   4.234
21635W        W88703  36.483   7.768   0.343
21636W        W88704  30.483  16.599   3.374
21637W        W88705   8.796   7.410  14.504
21638W        W88706  10.742  27.172   3.291
21639W        W88707  33.602  10.726   0.255
21640W        W88708   4.385  33.422  13.436
21641W        W88709  34.494  17.610   4.125
21642W        W88710  39.322   3.841   2.742
21643W        W88711   3.815  28.953  12.904
21644W        W88712  30.114  37.985   0.813
21645W        W88713  25.494   8.893   3.710
21646W        W88714  15.140  29.448  14.819
21647W        W88715   2.451  36.486  10.076
21648W        W88716  26.198   0.279  10.527
21649W        W88717  31.065  36.550  14.865
21650W        W88718  10.721  14.596  13.055
21651W        W88719  36.521  22.576   3.800
21652W        W88720  40.409   4.897  14.953
21653W        W88721  42.927  30.067   3.635
21654W        W88722  39.329  30.491  13.834
21655W        W88723  23.175   6.749  14.846
21656W        W88724   2.226  29.970  10.557
21657W        W88725  12.202   6.425   3.731
21658W        W88726  32.620  30.146  10.486
21659W        W88727   5.217   8.401  10.959
21660W        W88728  37.061  20.645   3.202
21661W        W88729  38.037  41.365  11.884
21662W        W88730  13.140  16.154  11.386
21663W        W88731  21.689  33.913   3.237
21664W        W88732  35.525  10.815  14.919
21665W        W88733  34.413  34.864  13.855
21666W        W88734   9.666  39.383   0.304
21667W        W88735  11.717   6.366  14.897
21668W        W88736  33.388   9.847   4.211
21669W        W88737   7.243  23.708   1.246
21670W        W88738  29.932  17.214  11.856
21671W        W88739  26.064  28.972  13.393
21672W        W88740  30.918  40.536   2.319
21673W        W88741  23.236  38.464  14.774
21674W        W88742  44.489  24.719   4.185
21675W        W88743  43.483  25.669   2.301
21676W        W88744  26.491  43.467  12.059
21677W        W88745  12.137  30.122  11.607
21678W        W88746  36.981   0.936  11.476
21679W        W88747  34.895  11.218   3.338
21680W        W88748  19.595   3.872  11.612
21681W        W88749  38.963  17.252   3.168
21682W        W88750  24.711  21.198   1.211
21683W        W88751  12.723  13.788  13.381
21684W        W88752  11.204   9.240   3.313
21685W        W88753  34.065   9.694  12.011
21686W        W88754  19.074   5.320  13.542
21687W        W88755  23.125  18.724  14.887
21688W        W88756  27.983  42.972   1.393
21689W        W88757  18.129  10.696   3.862
21690W        W88758  19.174  38.906  13.040
21691W        W88759  14.233  43.477   2.319
21692W        W88760  38.911  39.856  11.885
21693W        W88761  29.148   9.220  13.916
21694W        W88762  26.142  21.643  11.526
21695W        W88763  23.013  28.509   2.280
21696W        W88764  13.140   0.259  13.492
21697W        W88765  25.012  37.356   4.302
21698W        W88766  27.013  41.959  14.839
21699W        W88767  11.261   5.257   3.781
21700W        W88768  39.395  28.017   4.691
21701W        W88769  16.132  30.438  14.489
21702W        W88770  39.891  22.124   3.351
21703W        W88771   1.241  43.764  10.437
21704W        W88772   1.244  19.662  12.907
21705W        W88773  26.076  23.157  11.597
21706W        W88774   6.914   4.231   0.386
21707W        W88775  18.279  41.521  14.805
21708W        W88776  43.815  28.005   0.870
21709W        W88777  33.560  35.068   4.829
21710W        W88778  16.697  44.290  10.411
21711W        W88779  32.916  39.429  13.489
21712W        W88780  22.090   7.351   1.345
21713W        W88781  18.733   9.261   1.333
21714W        W88782  36.918  38.871  14.990
21715W        W88783  40.445  18.758   2.259
21716W        W88784   4.417  14.106   3.692
21717W        W88785  30.500  22.694  13.468
21718W        W88786  14.100  32.635  13.959
21719W        W88787  15.675   5.915   3.836
21720W        W88788  33.077  27.608  11.473
21721W        W88789  43.875  38.036   1.321
21722W        W88790  26.689  31.554  11.562
21723W        W88791  36.506  35.517   0.869
21724W        W88792   1.371  44.773   3.696
21725W        W88793  15.798  17.086  14.408
21726W        W88794  31.979  38.910   2.377
21727W        W88795  32.025  16.648  11.044
21728W        W88796  29.554   0.349   2.187
21729W        W88797  19.655   5.290  11.953
21730W        W88798  33.474  30.152  13.905
21731W        W88799  12.667  27.179   3.240
21732W        W88800  42.024   7.858   3.719
21733W        W88801  35.448  40.925  14.491
21734W        W88802   7.754   1.874  10.064
21735W        W88803   9.349  27.184  11.559
21736W        W88804  34.460  21.144  14.972
21737W        W88805  27.969  11.268  11.007
21738W        W88806  27.538  24.133  12.529
21739W        W88807  21.639  10.662   2.782
21740W        W88808  27.031  20.581   2.196
21741W        W88809  29.041   0.905   1.889
21742W        W88810  39.979  20.661   3.163
21743W        W88811   7.864  20.135   3.633
21744W        W88812  20.590  37.066   3.863
21745W        W88813  38.504  16.791  12.417
21746W        W88814  38.435  30.591  11.429
21747W        W88815  27.459  10.671  11.514
21748W        W88816  21.083   3.382  14.983
21749W        W88817  40.336   3.783  13.317
21750W        W88818   5.711  15.220  14.898
21751W        W88819  43.847  33.964  13.836
21752W        W88820  15.779  19.702   4.821
21753W        W88821  44.843  24.708   2.400
21754W        W88822  17.637   5.427   0.477
21755W        W88823  36.465  15.715  13.867
21756W        W88824  20.683  22.680   4.150
21757W        W88825   0.880  14.655   1.359
21758W        W88826  35.436  24.526   4.746
21759W        W88827   7.358  25.142   1.320
21760W        W88828  11.348  33.394  12.444
21761W        W88829  40.318  14.163  10.604
21762W        W88830  21.757  33.571  14.485
21763W        W88831  21.750   2.733   1.698
21764W        W88832  20.174  13.692  12.482
21765W        W88833   1.276  23.084  14.821
21766W        W88834  11.772   7.289  14.429
21767W        W88835  44.863  23.027   4.708
21768W        W88836  10.296  12.213  12.899
21769W        W88837  25.471  18.620   1.340
21770W        W88838  42.882  33.953  11.068
21771W        W88839  24.121  31.016  14.028
21772W        W88840   1.941   7.675  12.854
21773W        W88841  43.424  33.927  11.398
21774W        W88842  35.584  25.586  11.976
21775W        W88843   7.910  35.854  14.793
21776W        W88844  10.346  27.678  11.572
21777W        W88845  44.951  39.907   3.203
21778W        W88846  22.228   3.273   1.711
21779W        W88847  41.870  16.310  13.008
21780W        W88848   1.253   4.394  11.994
21781W        W88849  34.059  19.229   2.235
21782W        W88850   8.661  43.492   4.291
21783W        W88851  10.372   1.929   4.275
21784W        W88852   9.877  37.539  12.851
21785W        W88853  20.063   3.253   4.216
21786W        W88854  17.557  38.408   2.387
21787W        W88855   2.339   4.761  11.505
21788W        W88856   4.876   8.318  11.867
21789W        W88857  33.518  27.464   4.778
21790W        W88858   1.755  28.959  12.566
21791W        W88859  41.537  15.244  12.041
21792W        W88860   8.767   1.814  12.873
21793W        W88861  44.003   5.305   1.765
21794W        W88862  11.824  35.391  11.011
21795W        W88863   9.301  20.256  11.016
21796W        W88864   2.314  15.773  14.818
21797W        W88865   1.868   1.753   4.658
21798W        W88866  20.162  14.788   0.902
21799W        W88867  31.960  42.970   4.165
21800W        W88868  10.321  35.007  13.423
21801W        W88869  43.871   5.398  13.429
21802W        W88870  34.003  21.196  14.504
21803W        W88871  32.634  27.182   4.827
21804W        W88872  17.798  27.187  11.431
21805W        W88873  40.489   0.937  11.928
21806W        W88874  20.229  13.630   3.286
21807W        W88875  39.845  29.154  12.930
21808W        W88876  24.209  32.050  12.943
21809W        W88877  42.909   0.272  14.342
21810W        W88878  34.996   5.818   1.417
21811W        W88879  11.291   7.262  12.370
21812W        W88880  42.403   6.221   3.359
21813W        W88881  13.213   2.380  14.379
21814W        W88882  37.349  12.273   4.348
21815W        W88883  29.963  38.470   4.646
21816W        W88884  34.955  33.970   4.191
21817W        W88885  37.376  41.948  14.292
21818W        W88886   5.391  36.870   3.199
21819W        W88887  32.010   8.885   1.865
21820W        W88888  22.654  29.945  11.051
21821W        W88889  12.773  10.224  14.440
21822W        W88890  34.475  24.596  11.114
21823W        W88891  44.494  30.132   1.873
21824W        W88892  23.107  23.498   4.140
21825W        W88893   7.327  13.207   4.288
21826W        W88894   3.930   3.737  13.922
21827W        W88895   0.478  37.057  10.901
21828W        W88896   8.779  18.782  13.953
21829W        W88897  43.309  22.691   1.890
21830W        W88898  25.596  34.950  13.537
21831W        W88899  18.740  28.943   0.921
21832W        W88900  20.046  13.210  13.999
21833W        W88901  24.558  43.833  13.484
21834W        W88902  17.264   9.323  11.581
21835W        W88903  38.423   4.226  14.944
21836W        W88904  18.783  10.838  14.779
21837W        W88905   3.251  27.642  10.052
21838W        W88906   4.863  39.810   3.735
21839W        W88907  27.032  35.966   1.771
21840W        W88908   6.197  43.920  12.906
21841W        W88909  36.531  28.149  14.955
21842W        W88910  33.388  20.160  10.031
21843W        W88911  10.762  32.408   2.750
21844W        W88912  25.043   7.784   4.212
21845W        W88913  32.991  26.041   2.300
21846W        W88914  25.482   5.297  12.372
21847W        W88915  44.476  22.508  12.014
21848W        W88916  31.574  43.919   0.369
21849W        W88917  21.251  16.290   3.351
21850W        W88918  35.427  38.382  13.927
21851W        W88919  15.583  34.907  12.980
21852W        W88920  32.073  27.975  12.945
21853W        W88921  37.946  36.029  13.338
21854W        W88922  20.721  38.571   0.456
21855W        W88923  22.015  37.852   1.862
21856W        W88924  16.705   7.806  13.939
21857W        W88925  20.056  10.632  14.829
21858W        W88926  35.374  23.197  13.955
21859W        W88927  42.855  25.646  11.902
21860W        W88928  42.385   2.848  12.887
21861W        W88929  23.095  37.437   3.750
21862W        W88930   1.434  17.709  11.552
21863W        W88931  29.655  24.714  11.443
21864W        W88932  39.395  25.199  11.596
21865W        W88933   7.793   5.724  11.107
21866W        W88934  10.857  40.334  13.957
21867W        W88935  21.569   2.817  11.461
21868W        W88936  36.062  41.513   2.366
21869W        W88937  19.138  26.551  10.930
21870W        W88938  20.746  40.528   0.438
21871W        W88939  22.051  33.922  14.911
21872W        W88940   3.298  17.281   4.309
21873W        W88941  24.715  15.261   4.819
21874W        W88942   2.765  24.054   0.832
21875W        W88943  10.801  14.711  10.933
21876W        W88944   4.253   5.777  12.495
21877W        W88945  13.777  32.578  14.494
21878W        W88946  14.801   3.767  13.380
21879W        W88947  23.003  43.800  12.961
21880W        W88948  14.242  42.831   4.321
21881W        W88949  23.523   6.203   1.798
21882W        W88950  10.167  15.747  10.890
21883W        W88951   2.775   6.708  14.302
21884W        W88952  22.674  30.588   2.395
21885W        W88953  30.097  12.163   4.639
21886W        W88954   4.425   4.234  14.418
21887W        W88955  37.351   9.810   1.862
21888W        W88956   4.863  27.548   4.614
21889W        W88957  41.814  10.367  10.501
21890W        W88958  32.516  12.814  13.495
21891W        W88959  23.082   1.916  11.044
21892W        W88960  31.549  14.805   4.194
21893W        W88961  10.331  23.594  12.004
21894W        W88962  10.273  37.420   3.797
21895W        W88963   5.777   7.282   1.375
21896W        W88964  20.098   3.311   3.356
21897W        W88965  26.606  24.158  12.474
21898W        W88966  17.666   4.915   0.852
21899W        W88967  44.758  14.214   2.215
21900W        W88968  32.514   8.733  10.641
21901W        W88969  36.365  17.255   1.230
21902W        W88970   2.824  43.865  13.036
21903W        W88971  21.673  24.062  14.766
21904W        W88972  37.403  28.655  12.433
21905W        W88973  29.064   3.935  13.488
21906W        W88974   9.702   7.338  13.954
21907W        W88975  35.472  38.976   3.693
21908W        W88976  32.624  19.101   2.323
21909W        W88977  12.315  19.101   4.267
21910W        W88978  27.568  11.800   1.715
21911W        W88979  31.054   1.952  11.915
21912W        W88980  37.359   0.744  10.942
21913W        W88981   5.200  32.941  10.477
21914W        W88982  44.429   0.924   3.699
21915W        W88983  38.504  34.883   1.230
21916W        W88984  44.903  36.443  11.116
21917W        W88985  31.634  29.930  10.560
21918W        W88986   6.417   5.912  14.960
21919W        W88987  20.083  29.503   0.255
21920W        W88988  34.908  28.639  13.893
21921W        W88989   0.851  18.645   0.906
21922W        W88990  24.718  11.350  10.960
21923W        W88991  10.154  33.608  10.056
21924W        W88992  22.725  27.985   4.804
21925W        W88993  24.493  10.203   2.855
21926W        W88994   4.895  16.718   0.468
21927W        W88995  18.763  39.396   0.949
21928W        W88996  31.963   8.892   3.672
21929W        W88997  42.399  29.953  14.350
21930W        W88998  31.145  42.872   1.247
21931W        W88999  18.105   3.412  11.585
21932W        W89000  38.345  20.166  10.414
21933W        W89001  37.035  40.972  11.932
21934W        W89002   5.290  33.583   1.923
21935W        W89003  16.636  39.443   3.225
21936W        W89004  22.014   7.205   3.682
21937W        W89005  16.115  22.528   5.220
21938W        W89006  38.893   3.350  11.438
21939W        W89007   4.871  18.160   0.868
21940W        W89008  39.355   7.710   2.357
21941W        W89009  17.236  42.445  12.565
21942W        W89010   6.265  13.739   2.419
21943W        W89011  15.707  11.248  11.982
21944W        W89012  14.106  25.975  11.386
21945W        W89013   6.794  21.151   9.983
21946W        W89014  13.247  43.986  13.855
21947W        W89015   4.942  24.087   4.291
21948W        W89016   7.219   0.453  14.783
21949W        W89017   2.256  43.273  12.449
21950W        W89018  12.628   9.364  14.978
21951W        W89019   8.773   9.277  14.420
21952W        W89020  33.092  43.296  14.501
21953W        W89021  37.923  12.294  14.451
21954W        W89022  23.178   8.780  14.289
21955W        W89023  14.750  18.145  11.387
21956W        W89024  42.396   2.464  13.485
21957W        W89025  15.112  37.898  14.360
21958W        W89026  37.473  21.735  10.428
21959W        W89027  26.048  13.193  10.623
21960W        W89028  25.504  35.428   4.133
21961W        W89029   9.847  39.055  12.458
21962W        W89030   2.752  37.558   3.347
21963W        W89031  27.961  27.675  13.362
21964W        W89032   3.875   9.320  12.950
21965W        W89033  23.006  40.462   0.788
21966W        W89034  10.781  10.164  12.540
21967W        W89035  18.661   5.916  12.993
21968W        W89036  18.609  30.519   2.282
21969W        W89037  17.633  16.813   1.716
21970W        W89038   3.452  37.902  11.971
21971W        W89039  24.718  40.434  11.546
21972W        W89040  27.534  11.794  11.035
21973W        W89041  33.469   2.767   2.885
21974W        W89042  10.805  14.665  10.521
21975W        W89043  24.483  24.596   2.345
21976W        W89044  32.079  28.134   4.729
21977W        W89045  15.766  22.712  13.022
21978W        W89046  20.664  34.920   0.313
21979W        W89047  27.129  34.918  10.572
21980W        W89048  26.666  19.213   4.351
21981W        W89049  10.362  35.478   0.377
21982W        W89050   7.804  15.599   0.771
21983W        W89051  38.035  17.305  11.548
21984W        W89052   7.749   3.228  13.854
21985W        W89053  34.528  26.177  13.340
21986W        W89054  43.448  24.038   1.900
21987W        W89055  35.995   0.352  14.871
21988W        W89056  16.625  27.672   3.651
21989W        W89057   7.403   1.408  11.580
21990W        W89058  17.095   6.283  10.457
21991W        W89059  26.659   7.701   4.352
21992W        W89060   0.841  24.201   0.437
21993W        W89061  29.037  13.293   0.746
21994W        W89062  12.809  12.792   0.866
21995W        W89063  14.619  43.351   0.884
21996W        W89064  10.676   6.836   1.797
21997W        W89065  15.128  25.037  10.434
21998W        W89066  33.112  30.978   1.440
21999W        W89067  43.831  44.974   0.313
22000W        W89068  18.136  40.534   3.827
22001W        W89069  34.863  32.959   0.936
22002W        W89070  32.989  35.567  13.379
22003W        W89071  34.891  24.699   2.709
22004W        W89072  27.954   1.470   0.474
22005W        W89073  11.682  41.527   2.848
22006W        W89074  19.568  10.382   4.134
22007W        W89075  16.134  10.801   0.362
22008W        W89076  25.576  26.075   1.356
22009W        W89077  27.962  17.749   0.436
22010W        W89078  32.060  23.717  10.505
22011W        W89079  41.467  33.058  13.840
22012W        W89080  14.696  11.845  12.072
22013W        W89081  23.233   0.404   1.375
22014W        W89082  40.342  14.785   4.250
22015W        W89083  27.192   3.766  14.383
22016W        W89084  11.858  31.648  11.086
22017W        W89085  32.585  38.013  14.019
22018W        W89086   7.297   7.787  11.099
22019W        W89087  43.509  14.761  11.384
22020W        W89088   6.698  20.203   5.115
22021W        W89089  10.823  18.110   0.434
22022W        W89090  21.757  24.118  10.050
22023W        W89091  33.055  26.059  14.286
22024W        W89092   6.220  26.145  11.120
22025W        W89093  18.675  37.495   0.859
22026W        W89094   8.259  20.637  14.791
22027W        W89095  44.000  23.050   3.781
22028W        W89096  30.451  15.743   0.761
22029W        W89097  19.048  10.661  14.289
22030W        W89098  33.471  27.129  11.465
22031W        W89099   5.265  27.957   1.698
22032W        W89100  34.975  11.366  14.922
22033W        W89101   1.463  19.079  11.070
22034W        W89102   7.755  37.480   3.359
22035W        W89103  12.633  30.547  13.893
22036W        W89104  12.689  34.113  10.891
22037W        W89105  38.539  36.525  13.349
22038W        W89106  13.295   5.915  13.414
22039W        W89107  35.557  41.997   0.753
22040W        W89108  27.140  33.390   2.287
22041W        W89109  17.193  42.906   2.696
22042W        W89110  16.643  28.442  14.501
22043W        W89111  12.674  18.082  10.412
22044W        W89112   8.199  34.969   0.931
22045W        W89113   9.861  31.908   4.248
22046W        W89114  38.411  29.955   0.899
22047W        W89115  10.632  16.095   4.256
22048W        W89116  40.386  19.696  11.566
22049W        W89117  25.201  31.107   2.863
22050W        W89118  15.267  34.037  13.452
22051W        W89119  29.008  38.053  12.394
22052W        W89120  32.994   0.809  14.949
22053W        W89121  20.621   9.865  13.323
22054W        W89122  26.635  30.597  12.871
22055W        W89123  39.522   4.715  10.153
22056W        W89124   1.872  42.332   4.699
22057W        W89125  40.831  33.992   4.201
22058W        W89126  22.089  33.046  13.353
22059W        W89127  12.787  11.223   2.370
22060W        W89128  13.786  38.437   4.291
22061W        W89129  18.294   9.824   9.525
22062W        W89130  11.626  25.713   3.859
22063W        W89131  40.327  31.584   3.381
22064W        W89132  41.907  29.640  11.401
22065W        W89133  12.613  27.647  13.460
22066W        W89134   9.762  30.486  14.784
22067W        W89135  27.610  22.636   3.305
22068W        W89136  21.171  33.460  11.438
22069W        W89137   3.319  24.688  14.446
22070W        W89138  26.116  10.278   3.817
22071W        W89139  10.689  18.284  12.343
22072W        W89140   3.809  28.035  10.562
22073W        W89141  14.739  35.521  12.045
22074W        W89142   4.333  26.124   2.783
22075W        W89143  12.150   1.787   0.271
22076W        W89144  37.873  10.377  11.954
22077W        W89145   9.811   7.210   3.332
22078W        W89146  32.572   9.372   4.204
22079W        W89147  22.033  25.505   3.221
22080W        W89148  15.240  17.099   4.332
22081W        W89149  31.509  21.533  14.276
22082W        W89150   3.414  19.219  14.421
22083W        W89151  37.064   8.207  12.443
22084W        W89152  14.735  29.165  13.442
22085W        W89153   2.231  22.062   3.203
22086W        W89154   8.200  15.137  14.340
22087W        W89155  10.840  15.593  10.631
22088W        W89156   3.753   5.795   2.852
22089W        W89157  30.009  34.060   4.227
22090W        W89158  44.391  16.765  14.362
22091W        W89159  27.985  35.092   1.408
22092W        W89160   2.311   7.365   4.755
22093W        W89161  11.355   7.895  13.450
22094W        W89162  33.615   3.710  10.912
22095W        W89163  33.472  44.277   3.645
22096W        W89164  18.186  30.539   0.381
22097W        W89165  41.955  22.168   2.215
22098W        W89166   8.366  36.418   1.326
22099W        W89167  42.841  19.711   4.342
22100W        W89168  24.198  43.392   4.307
22101W        W89169  32.128  42.969   1.791
22102W        W89170  23.637  18.706  11.436
22103W        W89171   1.404  27.003  13.373
22104W        W89172  19.069   1.850  11.575
22105W        W89173   4.216   9.878   4.711
22106W        W89174  31.065  41.852   3.167
22107W        W89175  22.179  33.112   2.400
22108W        W89176  39.051  25.089   0.817
22109W        W89177   1.836  17.747  11.129
22110W        W89178   8.310  38.902   3.756
22111W        W89179  18.674  36.591   2.201
22112W        W89180  24.498  41.342   0.953
22113W        W89181  33.478  21.638  10.926
22114W        W89182  16.694  30.443   0.847
22115W        W89183  24.055  35.487   2.770
22116W        W89184  31.906  19.080  14.366
22117W        W89185  13.749  16.648   1.902
22118W        W89186  13.622  33.921   3.681
22119W        W89187  14.155   1.739   1.892
22120W        W89188  24.571  27.984   2.399
22121W        W89189  27.556  34.456  13.796
22122W        W89190   9.759  11.656  12.578
22123W        W89191   6.402  26.045  12.843
22124W        W89192   6.799  31.625  10.894
22125W        W89193  36.363  21.093  13.057
22126W        W89194  20.243   8.391   2.697
22127W        W89195  11.296  35.579  14.299
22128W        W89196  26.002  25.029   4.666
22129W        W89197  22.161  21.555  13.849
22130W        W89198  12.349  28.454   1.259
22131W        W89199  31.581  33.509  12.388
22132W        W89200  28.610  25.982  10.984
22133W        W89201  39.349  10.715   1.808
22134W        W89202  21.226  20.689   4.765
22135W        W89203  43.012  13.599   4.320
22136W        W89204  32.001  38.000  11.032
22137W        W89205  37.392  29.137   3.178
22138W        W89206  25.674  18.759   0.464
22139W        W89207  43.912  26.063   3.782
22140W        W89208  16.607   2.250   2.410
22141W        W89209  24.162  29.023  13.346
22142W        W89210  28.679  33.407  11.372
22143W        W89211   2.915  17.158   4.659
22144W        W89212   4.753  34.025  12.414
22145W        W89213  28.933  37.914  11.442
22146W        W89214   7.403  42.980  13.469
22147W        W89215   2.247  41.977  14.388
22148W        W89216  20.082  41.425   2.820
22149W        W89217  26.644  37.552   3.267
22150W        W89218  28.985  38.478   1.711
22151W        W89219   1.428  25.164  14.473
22152W        W89220  40.355  35.977  12.541
22153W        W89221  42.887  44.380   2.849
22154W        W89222  22.638  10.697   3.676
22155W        W89223   5.318  30.087  11.004
22156W        W89224   0.877   0.977   2.697
22157W        W89225  43.420   1.968  14.291
22158W        W89226   5.765  28.180   2.296
22159W        W89227   1.353  14.307   2.763
22160W        W89228  39.501  25.572  12.828
22161W        W89229  26.175  24.521  13.915
22162W        W89230  41.467  36.468   4.659
22163W        W89231  32.902  13.112  10.472
22164W        W89232  30.075  27.568   2.388
22165W        W89233  41.395  44.936   1.304
22166W        W89234   9.659   1.354   1.872
22167W        W89235  23.529  18.786  13.037
22168W        W89236  36.405   4.261  12.004
22169W        W89237  30.942  35.051   0.410
22170W        W89238  36.489   0.804  13.016
22171W        W89239   5.749  35.546   3.237
22172W        W89240  30.051  25.160   0.364
22173W        W89241  24.011   3.256   0.942
22174W        W89242  36.096  33.917   1.294
22175W        W89243  35.878  41.451   2.838
22176W        W89244  28.524  11.622  14.009
22177W        W89245  21.583  24.194  11.911
22178W        W89246   6.379   6.816   1.215
22179W        W89247  18.632   9.778   3.366
22180W        W89248  12.299  11.177   2.297
22181W        W89249  20.124   3.833   1.220
22182W        W89250  34.976  41.888   3.717
22183W        W89251  32.916  12.156  13.479
22184W        W89252   6.682  15.739  13.799
22185W        W89253   7.324  29.495  12.891
22186W        W89254  27.164  10.781  10.946
22187W        W89255  33.023   0.779  13.851
22188W        W89256  26.660   4.847   1.260
22189W        W89257  15.590   6.863  10.135
22190W        W89258  29.114  24.156  11.961
22191W        W89259  41.820  17.763   1.317
22192W        W89260  27.151   8.221  13.794
22193W        W89261   9.375  37.464  12.428
22194W        W89262  38.024  27.131  10.531
22195W        W89263  22.199  15.198  11.437
22196W        W89264  32.637  12.659   0.480
22197W        W89265  40.977  13.280   1.821
22198W        W89266  40.516  25.969   2.789
22199W        W89267   2.855   5.197  14.291
22200W        W89268  31.627  14.208  10.917
22201W        W89269  27.979  41.938   9.922
22202W        W89270  24.703  10.793   2.888
22203W        W89271  12.629  30.481   3.668
22204W        W89272  28.447   8.219   2.663
22205W        W89273  29.521  43.898   2.822
22206W        W89274  24.670  11.657   3.379
22207W        W89275  29.473  42.834  14.319
22208W        W89276  26.088  44.906   1.218
22209W        W89277  44.775   3.307  13.859
22210W        W89278   6.341  40.417  11.128
22211W        W89279  44.979  44.801   1.399
22212W        W89280  36.097  27.468  13.408
22213W        W89281  10.762  14.690   4.804
22214W        W89282  44.431  21.067  14.852
22215W        W89283  13.342   9.220   1.837
22216W        W89284   6.851  24.540  12.973
22217W        W89285  16.765  35.875  12.447
22218W        W89286  21.080   2.455  12.366
22219W        W89287  22.997   1.312   2.402
22220W        W89288  22.112  28.985  12.992
22221W        W89289   9.394  19.179  14.845
22222W        W89290  25.641   9.260  14.302
22223W        W89291  24.069  25.167  10.917
22224W        W89292   3.371  26.642  13.985
22225W        W89293   8.363  11.244   0.896
22226W        W89294  31.419   9.302   4.651
22227W        W89295   1.782  31.445   2.311
22228W        W89296  18.647   3.264   0.914
22229W        W89297   2.438  33.126  12.501
22230W        W89298  40.478  41.500  10.104
22231W        W89299  37.918  18.058  13.529
22232W        W89300  19.731  16.146   4.681
22233W        W89301   0.950  32.054  10.913
22234W        W89302  34.604  43.281   0.380
22235W        W89303  27.167   7.799   1.321
22236W        W89304   3.409  15.761  13.791
22237W        W89305  15.627  26.658   1.741
22238W        W89306  17.134  41.864  12.552
22239W        W89307   9.267  21.632   4.238
22240W        W89308   8.192  22.193  12.046
22241W        W89309  18.581  35.535  14.815
22242W        W89310   5.825  21.678  13.842
22243W        W89311   3.825  28.648  12.394
22244W        W89312  27.463  36.552  11.103
22245W        W89313  29.596   7.708   4.679
22246W        W89314  33.543  43.318   3.193
22247W        W89315  22.022  40.820  11.932
22248W        W89316   6.336  24.718   0.397
22249W        W89317  13.764  44.401  10.913
22250W        W89318  13.304  10.323   5.299
22251W        W89319  34.513  23.547  11.030
22252W        W89320  18.634  12.755  11.995
22253W        W89321  40.038   3.945  10.921
22254W        W89322   7.382  31.514   4.599
22255W        W89323  16.696  28.525   1.802
22256W        W89324  42.891  15.296   0.265
22257W        W89325  34.945   6.847  14.957
22258W        W89326  15.097  25.206  13.321
22259W        W89327  17.568  43.803   3.858
22260W        W89328  23.584  44.845  12.850
22261W        W89329  35.553  26.556   2.752
22262W        W89330  33.393   7.855  11.492
22263W        W89331   2.242  11.798   0.257
22264W        W89332  39.019  22.588  14.778
22265W        W89333  39.512  37.404  14.296
22266W        W89334   8.714   6.249   0.268
22267W        W89335  36.987  14.178   1.872
22268W        W89336  18.781  28.490  12.844
22269W        W89337  16.732  19.762  14.801
22270W        W89338  23.125  17.572  12.566
22271W        W89339  17.146  42.868   0.842
22272W        W89340  22.180  15.093  14.873
22273W        W89341  13.109  44.381   1.856
22274W        W89342  18.727  25.966  11.906
22275W        W89343  41.298   6.822   0.962
22276W        W89344  38.464  11.844   1.923
22277W        W89345  25.677  41.365   1.890
22278W        W89346  40.946   9.700  11.022
22279W        W89347  21.709  29.655  12.394
22280W        W89348  39.371  44.784  12.364
22281W        W89349  22.241  42.821  14.391
22282W        W89350  22.234  17.282  14.473
22283W        W89351  35.091  11.657   1.290
22284W        W89352   3.349  36.462   2.198
22285W        W89353  15.253  23.162   3.668
22286W        W89354  29.627  38.001  10.406
22287W        W89355  24.137  30.029   3.355
22288W        W89356  26.480  20.044   4.611
22289W        W89357  32.539   3.899   4.270
22290W        W89358  25.112  35.857  10.415
22291W        W89359  19.127  43.772   1.348
22292W        W89360  39.915  22.633   4.610
22293W        W89361  13.741   0.856  11.012
22294W        W89362  15.150  26.491   2.260
22295W        W89363  12.158  27.092  14.871
22296W        W89364   3.439  38.868  13.462
22297W        W89365   8.402  14.142  13.885
22298W        W89366  39.013   5.902   0.772
22299W        W89367  34.484  27.064   2.287
22300W        W89368  16.675  22.111   4.786
22301W        W89369  44.294  34.877   1.774
22302W        W89370  35.546  21.066   4.159
22303W        W89371  18.265  21.249   2.187
22304W        W89372   8.177  38.525   1.850
22305W        W89373  11.739  21.232   4.819
22306W        W89374  24.180  28.441  11.553
22307W        W89375  12.781  17.231   4.744
22308W        W89376  44.841  27.530  14.477
22309W        W89377   0.312  29.017  12.886
22310W        W89378  25.184  32.133   3.247
22311W        W89379  13.326   8.167  13.312
22312W        W89380  39.892  40.457  11.430
22313W        W89381  44.887  23.165  14.479
22314W        W89382   5.924  12.250  10.405
22315W        W89383  37.516  16.302   1.781
22316W        W89384   0.924  44.311   2.417
22317W        W89385  31.964  15.680   2.338
22318W        W89386  11.788  35.079   5.227
22319W        W89387  36.513  37.057   2.826
22320W        W89388  23.233  23.229  12.887
22321W        W89389  28.635   5.929  14.387
22322W        W89390  44.309  14.766   3.785
22323W        W89391  27.689  26.203  11.039
22324W        W89392  23.500  36.402  10.418
22325W        W89393  18.218  40.509   2.665
22326W        W89394  37.436  11.318  12.433
22327W        W89395  24.080  43.340  14.968
22328W        W89396  20.204  21.674  13.465
22329W        W89397  35.464  32.474   1.389
22330W        W89398  14.721   5.843  14.803
22331W        W89399  32.470  23.067  12.452
22332W        W89400  18.158  44.272  14.516
22333W        W89401  31.476   7.200   4.674
22334W        W89402   3.365  14.753   3.222
22335W        W89403  11.273  31.612  10.922
22336W        W89404  37.932  12.144  13.419
22337W        W89405  26.546  33.423   2.207
22338W        W89406  22.696  16.278  12.558
22339W        W89407  17.652  38.063  14.850
22340W        W89408  41.831  19.048  14.022
22341W        W89409  10.288  30.452  12.852
22342W        W89410   7.665  44.930  10.931
22343W        W89411  43.938  14.644  11.949
22344W        W89412  13.686  22.100  11.576
22345W        W89413   9.760  41.984   0.448
22346W        W89414  36.358   8.895  10.440
22347W        W89415   1.855  36.022   0.339
22348W        W89416  15.230  16.144   3.870
22349W        W89417  11.724  23.638   2.834
22350W        W89418   5.707  13.712   4.672
22351W        W89419  44.481  27.047   0.967
22352W        W89420   0.921   1.880   0.312
22353W        W89421  39.422   8.344  11.108
22354W        W89422  25.058  27.606  14.898
22355W        W89423  28.160  30.068   4.132
22356W        W89424  30.446  22.645   1.386
22357W        W89425   3.264  10.866   3.290
22358W        W89426  20.264  26.097  13.890
22359W        W89427  31.028  22.671   3.754
22360W        W89428  11.195   1.356   4.138
22361W        W89429   1.350  29.599  10.507
22362W        W89430  36.466  17.777   1.433
22363W        W89431  16.678   2.829   4.166
22364W        W89432   7.789  42.999   2.758
22365W        W89433  20.715  25.086   1.832
22366W        W89434  37.419  44.799   2.749
22367W        W89435   6.297   0.256  14.941
22368W        W89436  14.337  42.301  14.317
22369W        W89437   8.362   4.915   4.737
22370W        W89438  26.583  18.734  12.348
22371W        W89439  26.046  37.406   3.708
22372W        W89440   9.317  12.611   1.233
22373W        W89441  31.084  22.140  11.933
22374W        W89442  40.894  28.167   2.688
22375W        W89443   7.820  24.638  10.586
22376W        W89444  12.211   3.220  12.966
22377W        W89445  33.574  10.688  10.553
22378W        W89446   9.806   8.289  13.434
22379W        W89447  41.953   1.915  11.475
22380W        W89448  18.749  41.411   1.258
22381W        W89449  31.430  33.974  11.467
22382W        W89450  11.370  27.161  14.953
22383W        W89451  42.007  20.554  14.292
22384W        W89452  23.037  43.371  11.487
22385W        W89453  22.037  10.784   0.924
22386W        W89454   0.948  41.000   2.407
22387W        W89455  32.129   6.400  11.060
22388W        W89456  13.109   2.740   3.743
22389W        W89457   1.443  11.703   4.196
22390W        W89458  27.957   5.728   4.799
22391W        W89459   4.907   6.893   2.870
22392W        W89460  44.269   3.396  13.816
22393W        W89461  42.985  15.671  14.004
22394W        W89462  13.349   8.299   0.772
22395W        W89463  29.646  32.523   4.706
22396W        W89464  39.052  36.522  13.807
22397W        W89465  33.054  15.639   1.219
22398W        W89466  12.690  33.384  12.364
22399W        W89467  17.130   1.890   4.648
22400W        W89468   1.851  29.115   1.361
22401W        W89469  28.552   5.808   2.778
22402W        W89470  15.674  42.835  14.914
22403W        W89471   4.737   7.249  11.057
22404W        W89472  39.961   2.951   1.219
22405W        W89473  14.650  23.563   0.399
22406W        W89474  25.036  41.915  10.529
22407W        W89475  29.596  28.179   1.809
22408W        W89476  42.841  16.205   1.381
22409W        W89477  41.522   7.896   2.861
22410W        W89478  44.845  37.997   0.250
22411W        W89479  10.809   0.472  12.948
22412W        W89480  21.663  30.591  12.483
22413W        W89481   1.891   8.362   2.780
22414W        W89482  36.960  33.464   2.190
22415W        W89483   7.866  30.043   1.735
22416W        W89484  12.771  26.603  11.389
22417W        W89485  18.246  27.648   0.822
22418W        W89486  19.247  39.811  13.353
22419W        W89487  21.718   4.873  10.606
22420W        W89488  31.096  20.566  13.877
22421W        W89489   6.347   2.808  10.974
22422W        W89490  14.229  44.795   0.913
22423W        W89491   2.462  19.148   0.824
22424W        W89492  21.584  12.350   3.690
22425W        W89493  39.356   9.196   4.651
22426W        W89494   5.281  23.622   0.373
22427W        W89495  36.941  29.529  13.536
22428W        W89496  38.063   2.349   0.364
22429W        W89497   0.474  42.805  13.048
22430W        W89498   8.242  13.742   1.826
22431W        W89499  38.003   8.308  12.388
22432W        W89500  41.919  29.532  13.391
22433W        W89501  33.462  22.669   4.279
22434W        W89502   5.203  11.705  10.626
22435W        W89503  11.702  43.805   3.282
22436W        W89504  39.954  15.322  13.366
22437W        W89505  18.056  24.139  11.372
22438W        W89506  38.387  16.682   0.306
22439W        W89507  34.566  25.592  13.820
22440W        W89508   2.435  13.649  14.918
22441W        W89509   2.872  26.074  13.414
22442W        W89510  25.547  27.970   2.359
22443W        W89511  30.527  10.720  13.946
22444W        W89512  18.090  19.654   3.728
22445W        W89513   0.968  24.589   0.769
22446W        W89514   1.260  36.361   2.329
22447W        W89515   8.698  16.147   0.283
22448W        W89516  41.016  17.798   3.852
22449W        W89517  40.013  31.063  13.833
22450W        W89518  20.540  18.680  10.938
22451W        W89519  27.573  12.753   1.319
22452W        W89520  18.209  16.764  14.475
22453W        W89521  42.452   1.301   3.178
22454W        W89522  16.266  15.327  12.556
22455W        W89523  25.565  15.818   9.975
22456W        W89524   4.883  38.369   1.742
22457W        W89525  26.067  43.844  14.796
22458W        W89526  37.974  30.978  10.971
22459W        W89527   0.327  15.691  11.916
22460W        W89528  19.046   2.426  11.897
22461W        W89529  28.554  16.265  11.396
22462W        W89530   1.468  25.141  11.553
22463W        W89531  42.867  41.388   4.688
22464W        W89532  30.072  23.627  10.478
22465W        W89533  21.734  31.082  10.597
22466W        W89534  31.422  18.675   4.255
22467W        W89535  28.479  35.476  13.423
22468W        W89536  23.017  33.936  14.308
22469W        W89537  40.468   2.889   2.803
22470W        W89538   4.937  14.710  13.804
22471W        W89539  27.139  33.479   4.205
22472W        W89540  12.623  22.542  11.611
22473W        W89541  14.601  29.513  14.278
22474W        W89542  43.898  42.489   0.805
22475W        W89543  22.561  10.372   3.342
22476W        W89544  34.979   5.434   2.884
22477W        W89545   0.472  30.056   2.198
22478W        W89546  43.771   1.236   1.430
22479W        W89547   0.382   2.884  14.985
22480W        W89548  44.923  40.461   2.795
22481W        W89549  25.481  38.496  12.386
22482W        W89550   8.215   9.158  13.817
22483W        W89551  19.043  37.896   0.274
22484W        W89552  17.770  29.958  13.978
22485W        W89553  20.247  23.020  13.997
22486W        W89554  42.030  34.002  14.943
22487W        W89555  36.458  21.530  10.434
22488W        W89556   3.390  15.103  13.479
22489W        W89557   6.278  30.059  10.598
22490W        W89558  14.338  15.142   3.341
22491W        W89559  43.372  32.009  14.837
22492W        W89560   3.931  15.724  13.501
22493W        W89561  36.524  25.560   4.295
22494W        W89562  25.509  37.977  10.579
22495W        W89563  28.045   6.896   4.129
22496W        W89564  21.133  34.391   2.715
22497W        W89565  21.719  22.023   4.775
22498W        W89566  10.299   7.207   2.807
22499W        W89567  20.224  24.196  14.858
22500W        W89568  43.809  28.533  12.845
22501W        W89569   1.415  35.048  11.458
22502W        W89570  26.525  15.190   1.933
22503W        W89571  39.887  30.569  12.563
22504W        W89572  43.466   1.820  14.827
22505W        W89573   8.793  13.805  13.864
22506W        W89574  39.551  24.639  12.943
22507W        W89575  36.849  27.016  12.041
22508W        W89576  25.545  28.182   1.831
22509W        W89577   2.735  32.059  13.476
22510W        W89578  26.656  39.982  13.904
22511W        W89579  25.077   9.836   1.796
22512W        W89580   2.424  28.116  13.931
22513W        W89581   0.963  17.066  13.981
22514W        W89582  35.588  23.603  14.781
22515W        W89583   2.277   6.737   4.693
22516W        W89584   1.780   5.761   3.804
22517W        W89585  26.952  34.014  13.439
22518W        W89586  38.844  13.210  12.082
22519W        W89587  16.275  12.181  10.418
22520W        W89588  24.178  27.545  12.471
22521W        W89589   7.762   3.422   0.353
22522W        W89590  33.058  36.523  11.076
22523W        W89591  38.386  10.163  10.454
22524W        W89592  27.031  31.951  13.995
22525W        W89593  29.038  12.272   4.651
22526W        W89594   5.401   1.343   0.878
22527W        W89595   7.392  15.652  11.381
22528W        W89596   8.713  33.936  12.374
22529W        W89597  44.279   9.157  11.521
22530W        W89598  19.690  43.288   1.703
22531W        W89599  22.222  15.655  13.045
22532W        W89600  35.945  29.100   1.235
22533W        W89601  11.305  37.914  14.839
22534W        W89602  25.093  13.625   0.439
22535W        W89603   1.957  30.089   3.778
22536W        W89604   3.366  43.301  10.414
22537W        W89605  38.444   0.405   2.709
22538W        W89606  26.964  38.841  12.480
22539W        W89607  31.040  15.708   0.273
22540W        W89608  39.530  19.536  10.604
22541W        W89609   2.908  31.583   4.337
22542W        W89610  11.294  38.928   3.328
22543W        W89611  10.208  23.498   0.934
22544W        W89612  24.210  23.618   2.303
22545W        W89613  30.021  38.842   3.291
22546W        W89614  31.403  31.519  11.490
22547W        W89615   4.313  34.930   3.227
22548W        W89616  11.159  10.798   0.962
22549W        W89617  23.531  10.744  13.034
22550W        W89618  33.968  23.138  13.311
22551W        W89619  26.997  15.734   1.414
22552W        W89620  17.716   7.819   0.927
22553W        W89621  23.670  22.509   3.690
22554W        W89622   5.791  36.386  14.286
22555W        W89623   0.769  29.481  12.422
22556W        W89624  26.024   2.236   4.172
22557W        W89625  39.330  21.726   0.430
22558W        W89626  41.039   7.379  11.874
22559W        W89627  19.593  43.997  14.504
22560W        W89628   2.831  12.133   1.731
22561W        W89629  42.029  15.777  10.036
22562W        W89630  25.135   2.459   4.685
22563W        W89631  42.845   8.280  13.484
22564W        W89632  14.179   6.190  13.859
22565W        W89633  22.682  14.757  14.466
22566W        W89634   3.263  27.982   2.332
22567W        W89635  39.515   1.374   1.699
22568W        W89636  23.697  12.641   1.428
22569W        W89637   2.415  15.291   2.264
22570W        W89638  13.208  23.173  12.978
22571W        W89639  26.982  37.464   0.453
22572W        W89640  35.522  25.668  13.973
22573W        W89641  28.962   8.862   2.382
22574W        W89642  42.791  12.260   0.371
22575W        W89643  33.382   4.895   1.216
22576W        W89644  12.632   5.804   3.652
22577W        W89645  17.743  30.970   1.374
22578W        W89646  20.640  14.758   4.641
22579W        W89647   5.232  25.060   2.291
22580W        W89648  32.394   8.221  14.919
22581W        W89649  38.005   8.790  10.425
22582W        W89650  19.102  35.101  14.478
22583W        W89651   2.434  42.366   2.188
22584W        W89652  35.368  37.430  12.038
22585W        W89653   9.834  28.449  12.459
22586W        W89654  39.007   4.204  11.390
22587W        W89655   1.338  19.613  14.391
22588W        W89656   0.961   9.164  13.348
22589W        W89657  24.699  23.724   2.212
22590W        W89658  26.054   3.876  12.437
22591W        W89659  28.106  43.893   4.802
22592W        W89660  17.073   8.332  13.312
22593W        W89661  28.643  14.786   0.343
22594W        W89662  14.171  15.311   4.306
22595W        W89663  36.065  30.623  12.422
22596W        W89664  13.659  27.991   1.227
22597W        W89665   6.392  39.427  13.434
22598W        W89666  15.136   4.439   3.259
22599W        W89667  30.422   0.922  11.443
22600W        W89668  15.601   6.889  11.885
22601W        W89669   7.404  31.482   0.849
22602W        W89670  18.735  15.153   1.314
22603W        W89671   9.225  33.934   4.834
22604W        W89672  24.977  22.584  14.351
22605W        W89673  18.177   7.817  11.549
22606W        W89674  12.356  34.550  14.365
22607W        W89675   5.240   6.400  12.432
22608W        W89676  27.094  37.484  14.814
22609W        W89677  42.795  25.613   2.353
22610W        W89678  26.037  39.916  12.475
22611W        W89679  13.721  36.951   0.437
22612W        W89680  30.070   0.883   1.292
22613W        W89681  38.563  37.907   0.263
22614W        W89682  39.370  12.119   1.884
22615W        W89683  13.162  13.631   4.150
22616W        W89684   3.273  18.697   2.804
22617W        W89685  20.734  41.029  13.448
22618W        W89686  18.646  16.696   3.743
22619W        W89687   6.823   1.840   3.784
22620W        W89688  25.006  15.794   5.141
22621W        W89689  16.266  38.951   1.827
22622W        W89690  44.755  19.634   1.823
22623W        W89691  24.485   4.791  11.380
22624W        W89692  40.906  21.218   1.728
22625W        W89693   5.266  14.277  14.497
22626W        W89694  30.045  35.061   0.299
22627W        W89695  30.507  17.613   4.321
22628W        W89696  26.536  36.995  13.409
22629W        W89697  25.999  23.616   4.603
22630W        W89698  14.709  32.005  11.417
22631W        W89699  32.888  19.652  13.504
22632W        W89700  13.241  18.099   3.368
22633W        W89701  44.434  33.981  12.410
22634W        W89702  43.012  36.386   1.770
22635W        W89703   9.760  14.741   1.819
22636W        W89704  21.084  20.189  13.806
22637W        W89705   6.686  21.730   3.257
22638W        W89706  31.512  28.049  10.997
22639W        W89707  12.228  24.604   0.294
22640W        W89708  21.247   5.395  14.450
22641W        W89709  20.637  36.932  12.889
22642W        W89710  35.465   4.759  11.505
22643W        W89711  13.840  13.263   2.398
22644W        W89712  21.590  24.560   0.331
22645W        W89713  38.396   3.715   3.641
22646W        W89714  42.407  38.041   4.727
22647W        W89715  41.985  15.577   0.816
22648W        W89716  41.423  10.289   2.389
22649W        W89717   9.168  14.759   0.245
22650W        W89718  18.059   7.813  10.465
22651W        W89719  44.905  44.915   1.711
22652W        W89720  25.190  26.017  11.450
22653W        W89721  40.828  25.536  14.512
22654W        W89722  12.705  10.291   2.361
22655W        W89723   0.340  25.015   4.317
22656W        W89724  38.540  42.903  13.452
22657W        W89725  10.295   4.261  11.018
22658W        W89726  14.825  38.010  10.514
22659W        W89727  33.966   2.305  11.586
22660W        W89728  22.995  35.063   4.140
22661W        W89729  34.411   3.221  14.333
22662W        W89730  20.103  37.564  10.613
22663W        W89731  12.343  13.665  14.768
22664W        W89732  20.657  33.905  11.116
22665W        W89733  16.638  30.035   0.289
22666W        W89734  39.464   4.344   4.295
22667W        W89735  14.308  37.996   3.750
22668W        W89736  34.597  38.475   3.757
22669W        W89737  39.524   8.160  11.942
22670W        W89738  27.968  23.719  13.015
22671W        W89739  26.989   6.682   0.859
22672W        W89740  32.421   4.209  14.027
22673W        W89741  32.508  43.889   3.777
22674W        W89742   1.752  12.119   0.473
22675W        W89743  18.659  30.072  12.886
22676W        W89744   4.894   6.294   4.130
22677W        W89745  29.141   1.860   1.379
22678W        W89746  25.031  34.958  14.311
22679W        W89747  26.955  38.393  11.573
22680W        W89748  13.234  33.942   2.883
22681W        W89749   9.300  32.559  14.859
22682W        W89750  19.171  19.772  10.917
22683W        W89751   0.349  38.380   2.324
22684W        W89752  10.704  33.618   3.779
22685W        W89753  25.705   1.378  11.878
22686W        W89754  22.214  24.028  13.051
22687W        W89755  35.508  27.452   1.870
22688W        W89756  32.554  33.621  14.431
22689W        W89757  31.520  14.760  12.971
22690W        W89758   4.861  37.930   3.852
22691W        W89759  15.087  28.057  11.989
22692W        W89760  20.579  15.133  12.941
22693W        W89761  13.112   0.826  12.565
22694W        W89762  23.142  20.713   2.756
22695W        W89763  42.819  41.928   2.662
22696W        W89764  22.086  28.089  14.285
22697W        W89765  12.767   4.349   2.692
22698W        W89766  18.780   0.856  10.484
22699W        W89767  42.910  26.968   2.340
22700W        W89768   1.833   0.926   5.105
22701W        W89769  28.557  24.129   3.364
22702W        W89770  18.725  13.307   1.293
22703W        W89771  43.832  26.583  13.484
22704W        W89772  28.642  21.143   5.256
22705W        W89773  19.626  21.143   2.877
22706W        W89774   2.431  39.347  13.518
22707W        W89775   3.448  41.988  12.486
22708W        W89776  37.930  22.045  12.907
22709W        W89777   6.289  11.807   3.820
22710W        W89778  16.613  18.767  13.944
22711W        W89779  44.286   8.891   5.240
22712W        W89780   8.730   1.828   2.758
22713W        W89781   2.426  14.712   0.928
22714W        W89782  23.172  34.093   3.363
22715W        W89783  20.130  29.974   4.719
22716W        W89784  24.076  39.910   1.291
22717W        W89785   2.334  20.661  13.500
22718W        W89786   0.423  20.214  11.046
22719W        W89787  36.456  39.002  11.859
22720W        W89788  11.223   7.225  13.526
22721W        W89789  22.076  16.711   2.791
22722W        W89790  37.551  36.035  14.891
22723W        W89791  10.765  25.988  11.885
22724W        W89792  36.967  41.312   3.769
22725W        W89793  14.813   3.323  14.340
22726W        W89794  13.148  23.594  14.998
22727W        W89795   2.437  43.457  13.837
22728W        W89796  41.827  38.379   0.953
22729W        W89797   7.200  35.893   0.265
22730W        W89798   4.204  44.940  13.491
22731W        W89799  33.464  18.239   4.838
22732W        W89800   5.780   3.267   3.783
22733W        W89801  21.640  34.001   2.705
22734W        W89802   5.200   4.433   1.917
22735W        W89803  30.587   5.385   1.305
22736W        W89804  26.578  20.662  14.806
22737W        W89805  18.080  44.301   0.893
22738W        W89806  33.500   5.774  10.571
22739W        W89807  21.672  25.984  11.092
22740W        W89808  23.500  23.524  13.041
22741W        W89809  10.258  23.991   3.799
22742W        W89810  18.218  15.702  13.032
22743W        W89811  13.709   4.784  13.361
22744W        W89812  34.919  44.861   1.806
22745W        W89813  26.475   6.276   0.422
22746W        W89814  17.560   1.820   2.768
22747W        W89815  24.699  13.750  12.014
22748W        W89816   8.682  14.823  13.883
22749W        W89817  44.268  27.975   3.325
22750W        W89818  31.474  22.137  14.390
22751W        W89819  37.558  28.524  14.473
22752W        W89820  30.594  26.150  12.086
22753W        W89821  33.099   2.249  14.853
22754W        W89822  18.168  39.868   4.784
22755W        W89823  11.786  30.036  10.408
22756W        W89824  29.144  41.844   0.727
22757W        W89825  11.229  31.620   2.777
22758W        W89826  41.927   9.887   2.256
22759W        W89827  14.762   0.935   4.354
22760W        W89828   1.483  18.754   3.387
22761W        W89829  22.541   6.915   1.340
22762W        W89830  14.273  32.102  12.456
22763W        W89831  35.543  20.145  12.869
22764W        W89832  40.383   9.790   4.319
22765W        W89833  32.584  11.785   3.748
22766W        W89834  29.991  28.073  10.159
22767W        W89835  11.764  13.279  11.550
22768W        W89836  31.581  40.854   0.805
22769W        W89837  39.525  12.327   3.672
22770W        W89838  21.080  14.263  13.540
22771W        W89839  43.789  27.010   3.381
22772W        W89840  17.758  41.842   0.301
22773W        W89841  29.039   1.787  12.069
22774W        W89842  26.673  34.468   0.397
22775W        W89843   5.299  12.793  12.956
22776W        W89844  14.833  31.484  11.460
22777W        W89845  43.938  12.697  14.470
22778W        W89846  14.699  22.593  14.365
22779W        W89847   5.256  25.556   3.189
22780W        W89848  24.223  31.078   1.730
22781W        W89849  22.023   9.776   2.282
22782W        W89850   6.855  31.939  12.384
22783W        W89851  25.162  13.826  13.479
22784W        W89852  44.340  14.592  12.057
22785W        W89853   0.281  32.424   1.332
22786W        W89854  21.731  38.935   1.775
22787W        W89855  33.073   7.801  13.844
22788W        W89856  25.578  25.484   1.273
22789W        W89857   5.780   8.396   0.368
22790W        W89858  44.882  23.539  13.367
22791W        W89859  14.754   7.869   1.341
22792W        W89860  25.562  29.046  14.354
22793W        W89861  35.997  36.041  10.544
22794W        W89862  16.732  15.194  12.921
22795W        W89863  17.780   6.231  12.036
22796W        W89864  37.524  26.127   3.827
22797W        W89865  15.092  31.572  10.551
22798W        W89866  28.495   7.838  13.984
22799W        W89867  30.126   6.246   4.791
22800W        W89868  37.047   8.701   0.447
22801W        W89869  22.520  12.703   4.274
22802W        W89870  36.350  18.701   9.972
22803W        W89871  37.492  40.418  11.125
22804W        W89872   1.451  39.031  14.412
22805W        W89873  42.914  38.870  13.491
22806W        W89874  35.410  33.024   3.365
22807W        W89875  30.930  24.694   9.475
22808W        W89876  19.609  20.223  14.452
22809W        W89877  13.679   4.246  10.587
22810W        W89878   8.219  44.903   4.659
22811W        W89879  30.472  16.797   3.765
22812W        W89880  18.070   1.456  14.937
22813W        W89881  14.672  34.615  12.897
22814W        W89882  20.168  11.175  14.364
22815W        W89883  42.800  20.578  12.576
22816W        W89884  30.986  21.521   1.254
22817W        W89885  20.622  22.181  13.989
22818W        W89886  27.039  20.233  11.392
22819W        W89887  17.100  15.663   4.693
22820W        W89888  27.546  24.087  14.497
22821W        W89889  28.009   5.754  12.006
22822W        W89890  17.692  37.521   4.268
22823W        W89891  44.007  44.884  10.503
22824W        W89892  37.437  14.257  11.076
22825W        W89893  42.318  21.219   3.305
22826W        W89894  34.529   1.259   3.223
22827W        W89895  13.171   9.812  14.972
22828W        W89896  18.271  14.185  14.379
22829W        W89897  39.853  36.422  12.483
22830W        W89898   6.338  19.687   5.726
22831W        W89899  28.106  28.157   2.197
22832W        W89900  25.698  24.123   4.185
22833W        W89901  31.963  36.074  14.871
22834W        W89902   7.173  10.818  12.404
22835W        W89903  27.008  18.732   4.327
22836W        W89904  34.072  11.224   2.193
22837W        W89905  17.281  43.503  11.492
22838W        W89906  40.862  18.669  11.554
22839W        W89907  26.015  38.980   1.860
22840W        W89908   0.320  23.702   4.698
22841W        W89909  23.573   6.424   0.796
22842W        W89910  37.016   9.743   0.943
22843W        W89911  37.468  44.493   3.838
22844W        W89912  15.190   1.976  11.065
22845W        W89913  16.160   2.287  13.405
22846W        W89914   4.296  36.915  12.081
22847W        W89915  28.142   8.795  10.081
22848W        W89916  11.781  38.965   3.780
22849W        W89917  39.051  23.711   1.346
22850W        W89918   5.322   5.808   4.807
22851W        W89919  11.340  12.797  14.466
22852W        W89920  35.026  34.103  13.473
22853W        W89921  21.694   3.236   1.827
22854W        W89922  22.230  31.540  12.458
22855W        W89923  39.374  19.247   3.343
22856W        W89924   0.820  42.855   0.883
22857W        W89925  40.514  24.594  11.026
22858W        W89926  32.393  44.492   0.325
22859W        W89927  22.686  39.472  14.886
22860W        W89928  30.097  34.999  14.415
22861W        W89929   5.392  10.793  14.335
22862W        W89930   7.228  27.506  13.408
22863W        W89931  13.751  30.572   0.801
22864W        W89932  26.013  23.215  10.555
22865W        W89933  29.557  30.546  12.573
22866W        W89934  39.870  12.326   4.176
22867W        W89935  36.482  42.962  12.994
22868W        W89936  34.457  40.461  10.489
22869W        W89937  25.578  20.588  13.946
22870W        W89938  44.925  10.285   2.770
22871W        W89939  28.991  21.748   0.394
22872W        W89940   7.218  44.379  13.415
22873W        W89941  26.688  32.069  10.944
22874W        W89942  24.686  43.419   4.829
22875W        W89943   6.845  18.652   3.258
22876W        W89944   9.644  33.897  12.443
22877W        W89945  22.565  29.602   3.661
22878W        W89946  28.973  34.971  14.487
22879W        W89947   5.290   4.755  14.828
22880W        W89948  29.135   6.387   1.229
22881W        W89949  26.974   5.715   4.347
22882W        W89950   4.330  16.739   5.632
22883W        W89951  34.021   6.236  13.350
22884W        W89952  28.934  11.844  12.433
22885W        W89953   5.421   8.742   0.347
22886W        W89954  10.666  28.930   0.873
22887W        W89955  39.450  38.447  10.924
22888W        W89956  18.751  27.012   4.209
22889W        W89957  30.422  26.026   1.242
22890W        W89958  24.140  38.480   2.752
22891W        W89959  26.463  42.311   0.260
22892W        W89960  11.785  23.000   4.297
22893W        W89961   1.343  16.280  12.371
22894W        W89962  37.981  27.109  12.942
22895W        W89963  35.538  28.447   1.421
22896W        W89964  30.916  10.839   1.408
22897W        W89965  19.743  21.752   1.828
22898W        W89966  20.524   3.722  13.912
22899W        W89967  32.028  24.979   1.754
22900W        W89968  31.516  37.939   3.251
22901W        W89969  15.325   3.845   2.347
22902W        W89970  30.969   4.719  14.436
22903W        W89971  14.666  31.901   4.614
22904W        W89972   4.358   0.399  11.576
22905W        W89973  39.339  16.303   3.731
22906W        W89974   8.711  32.557   1.809
22907W        W89975  23.558  16.133  14.943
22908W        W89976  23.525   2.391   3.839
22909W        W89977  13.305  25.195  11.065
22910W        W89978  17.570  44.345   2.887
22911W        W89979  15.258  18.781   1.434
22912W        W89980   9.324  15.646  10.956
22913W        W89981   5.802  25.667  10.420
22914W        W89982   7.390  16.243   3.686
22915W        W89983  29.585  34.864   2.733
22916W        W89984  35.018  29.995   2.833
22917W        W89985  23.058  22.722  14.787
22918W        W89986  14.736   6.918  13.307
22919W        W89987  38.927  16.168   3.835
22920W        W89988  21.066  25.570   0.464
22921W        W89989  43.855   0.761  14.871
22922W        W89990  42.371  41.834  12.364
22923W        W89991   4.383  18.710   2.751
22924W        W89992   9.678  43.994  10.500
22925W        W89993   1.883  42.467   3.310
22926W        W89994  32.504  36.383   1.930
22927W        W89995  36.061   1.906   0.439
22928W        W89996  41.503  25.553  11.569
22929W        W89997  29.982   6.800   2.842
22930W        W89998  21.658  23.535   1.737
22931W        W89999  27.959  43.021   3.289
22932W        W90000   2.908  34.896  11.527
22933W        W90001  37.383  23.493   4.790
22934W        W90002  26.528  33.065  12.523
22935W        W90003  22.114  11.867   0.764
22936W        W90004  16.677   6.307  12.827
22937W        W90005  24.673  43.831  12.560
22938W        W90006   0.451  23.186   1.725
22939W        W90007  42.411  40.939   1.732
22940W        W90008  38.019  15.185  11.065
22941W        W90009  37.439  20.579   1.322
22942W        W90010  13.304   4.934   3.257
22943W        W90011  12.137  36.092   3.770
22944W        W90012  36.860  14.298  14.804
22945W        W90013  23.994  42.327   4.255
22946W        W90014  44.836  32.111   3.827
22947W        W90015   1.938   0.924  10.508
22948W        W90016  15.673  24.167  14.345
22949W        W90017  14.221  13.766   1.303
22950W        W90018  19.212  27.003  14.864
22951W        W90019  21.606   0.307  12.061
22952W        W90020  24.519  22.124  11.409
22953W        W90021  19.663   6.876  12.358
22954W        W90022  26.124  22.617   0.296
22955W        W90023   6.846  26.159  12.546
22956W        W90024  29.118   6.748  13.839
22957W        W90025  44.930  35.541   2.679
22958W        W90026   5.249  36.564   0.253
22959W        W90027  35.482  32.435   2.354
22960W        W90028  19.718  18.647  12.932
22961W        W90029  27.480  25.971  14.511
22962W        W90030  23.508  34.955  13.037
22963W        W90031   7.802  10.237  13.030
22964W        W90032  30.535   7.286  14.910
22965W        W90033  40.359  12.334  11.914
22966W        W90034  29.166  28.126   3.635
22967W        W90035   4.785  36.915  14.507
22968W        W90036   8.743  22.117  10.889
22969W        W90037   1.847  23.599  11.498
22970W        W90038  23.717  39.432   9.657
22971W        W90039  43.318  41.532  13.383
22972W        W90040  29.546  22.145   0.319
22973W        W90041  21.594  11.220  14.367
22974W        W90042  27.685  41.441  12.093
22975W        W90043  41.326   1.481   1.277
22976W        W90044  39.933  43.887   2.352
22977W        W90045  44.789  40.986  14.477
22978W        W90046   2.878  39.532   1.777
22979W        W90047  35.909  30.605   4.151
22980W        W90048  31.638  28.126   3.354
22981W        W90049  41.859  39.017  10.002
22982W        W90050  36.381  13.198   1.438
22983W        W90051  38.470  31.093   0.887
22984W        W90052  38.063  35.956  12.461
22985W        W90053  24.130  24.058  12.491
22986W        W90054   6.896   4.769  11.585
22987W        W90055  23.066   1.432   1.865
22988W        W90056  18.609  35.960   0.754
22989W        W90057   7.358  11.127  14.413
22990W        W90058  42.009  12.818   1.326
22991W        W90059   9.290   5.319  12.376
22992W        W90060   9.394  25.076  11.087
22993W        W90061  26.479  22.053   1.808
22994W        W90062  40.348   8.386   1.294
22995W        W90063  30.602   8.386   3.381
22996W        W90064   4.798   7.368   3.176
22997W        W90065  36.581  20.245   2.673
22998W        W90066  37.358  26.489  10.929
22999W        W90067  19.178   1.475  13.900
23000W        W90068   4.225  34.415  14.380
23001W        W90069  42.282  31.038  13.333
23002W        W90070  12.685  31.439  14.878
23003W        W90071  40.914   5.740  11.509
23004W        W90072  28.578   4.830  14.454
23005W        W90073  38.348  33.008   2.289
23006W        W90074  19.727  11.171   3.338
23007W        W90075  23.585  40.862   4.645
23008W        W90076  33.412  44.398  10.995
23009W        W90077  31.898  21.236   3.232
23010W        W90078  30.940  31.467  12.400
23011W        W90079   9.318   0.328   2.714
23012W        W90080  41.814  12.334   0.804
23013W        W90081  31.555  10.240  11.020
23014W        W90082  14.314  20.596  12.967
23015W        W90083  19.545  30.987   4.196
23016W        W90084  29.573  32.486   3.231
23017W        W90085  29.452  43.284  14.020
23018W        W90086  23.050  22.575  10.475
23019W        W90087   9.234  13.196   2.784
23020W        W90088  37.068  10.764   2.813
23021W        W90089   3.282  11.655   2.897
23022W        W90090  29.542  41.928   5.196
23023W        W90091   1.737  39.984  12.995
23024W        W90092  14.218  27.579  14.906
23025W        W90093  30.052  26.189   0.263
23026W        W90094  32.466   4.358  12.063
23027W        W90095  29.008  19.636   1.251
23028W        W90096  27.943  28.658   0.268
23029W        W90097   2.254   3.789   0.946
23030W        W90098  42.955  16.122   2.722
23031W        W90099  37.039  17.170  14.345
23032W        W90100  17.696  32.907   1.724
23033W        W90101  38.537  13.808   3.747
23034W        W90102  10.743  25.028  12.551
23035W        W90103  31.509  15.742   5.244
23036W        W90104  10.293  13.216   4.705
23037W        W90105  37.373  12.247  10.504
23038W        W90106   9.861   9.841  14.816
23039W        W90107  15.154  43.951  14.420
23040W        W90108   9.299  22.188   1.358
23041W        W90109  37.920   9.689  11.115
23042W        W90110   7.276  30.958  12.937
23043W        W90111  28.681  29.030   2.252
23044W        W90112   3.427  23.573  10.125
23045W        W90113   5.299  33.951  11.034
23046W        W90114  13.242  40.999  12.062
23047W        W90115   0.422  29.481   0.288
23048W        W90116  13.725  35.435  12.413
23049W        W90117  13.319  31.932  14.833
23050W        W90118  38.978  35.396  12.951
23051W        W90119  10.317  19.631   2.291
23052W        W90120  26.066  18.781   2.784
23053W        W90121  11.710   3.288  11.074
23054W        W90122  29.655  27.977   3.662
23055W        W90123   1.973  11.182  14.939
23056W        W90124  25.193  30.457   2.284
23057W        W90125   0.846  18.263   2.268
23058W        W90126  17.105  40.808  10.965
23059W        W90127  30.631  13.119   0.807
23060W        W90128  41.425  15.740  12.439
23061W        W90129  21.081  35.522   2.668
23062W        W90130  13.314  31.407   0.336
23063W        W90131   8.836  28.529   4.228
23064W        W90132  14.732   3.271   3.232
23065W        W90133  11.150   8.288  11.408
23066W        W90134  21.178  26.696  11.969
23067W        W90135   1.413   9.874   4.725
23068W        W90136  44.009  23.583  14.868
23069W        W90137   1.734  12.832   2.197
23070W        W90138  37.403  24.998  13.814
23071W        W90139  16.636  28.634   4.229
23072W        W90140   2.782   3.397   2.858
23073W        W90141  25.090  40.875   2.718
23074W        W90142  21.512   4.362   0.301
23075W        W90143  33.518   7.704  10.417
23076W        W90144  24.506  40.009   3.218
23077W        W90145  30.537  12.763  11.049
23078W        W90146  37.886  41.297   4.704
23079W        W90147   7.230  21.020   0.806
23080W        W90148  38.469  33.948  11.524
23081W        W90149  12.165   1.890   3.174
23082W        W90150   0.433   4.273  10.536
23083W        W90151  42.363   8.282   0.902
23084W        W90152   7.728  20.054  13.398
23085W        W90153  43.304   4.786   0.453
23086W        W90154  44.342  28.176   4.352
23087W        W90155  18.730  14.225  14.465
23088W        W90156   4.870  35.369   4.284
23089W        W90157  18.763  39.882  14.331
23090W        W90158  19.105  24.570  14.504
23091W        W90159  18.218  29.528   0.731
23092W        W90160  22.250  25.981  12.406
23093W        W90161  30.952  43.796   1.702
23094W        W90162  18.754  24.205  13.439
23095W        W90163   0.403  29.494   1.762
23096W        W90164  23.699   8.391  14.822
23097W        W90165   8.716   5.417  14.770
23098W        W90166  32.977  12.696   2.879
23099W        W90167  39.002  21.566  13.523
23100W        W90168  39.462  36.879  14.370
23101W        W90169  43.504  14.106  12.861
23102W        W90170   2.292  39.489   1.727
23103W        W90171  30.468  28.098   4.625
23104W        W90172   5.409  34.483   2.309
23105W        W90173  12.691  21.099   3.381
23106W        W90174  30.076  42.031  12.039
23107W        W90175  18.245  30.586  11.056
23108W        W90176  16.673  17.106  12.034
23109W        W90177  19.224  12.216   4.141
23110W        W90178  22.037   9.321   1.806
23111W        W90179  17.696  23.157   4.756
23112W        W90180   5.379  14.200  12.410
23113W        W90181  32.135   3.726   1.841
23114W        W90182  23.044  40.532  12.407
23115W        W90183  31.035   7.287   4.128
23116W        W90184  26.126  43.875   4.785
23117W        W90185  36.053   0.455   1.218
23118W        W90186  42.022  21.240   0.862
23119W        W90187  24.098  42.009  11.910
23120W        W90188  22.713  43.970  13.337
23121W        W90189   5.310   2.933   1.822
23122W        W90190   4.799  12.624  14.512
23123W        W90191  26.621   6.248   1.389
23124W        W90192  23.056  14.173   1.297
23125W        W90193  12.313  38.908  13.914
23126W        W90194  36.926  34.583   1.371
23127W        W90195  37.409  20.564  11.056
23128W        W90196  39.405  36.036  12.419
23129W        W90197  35.031  16.153  12.523
23130W        W90198  11.852  18.246  14.441
23131W        W90199  43.347   9.738   1.782
23132W        W90200  18.290   6.850  13.888
23133W        W90201  28.043  28.160  12.094
23134W        W90202   0.869  13.272  12.085
23135W        W90203  37.417   3.223  11.024
23136W        W90204  20.597  30.003  10.054
23137W        W90205  30.966  20.152  14.344
23138W        W90206  23.986  34.063  12.028
23139W        W90207  19.133  20.210   0.431
23140W        W90208  10.867   8.881   4.689
23141W        W90209  14.762  17.074  10.617
23142W        W90210  15.276   3.921   0.834
23143W        W90211  43.997  35.998   2.861
23144W        W90212   9.380  38.824   3.817
23145W        W90213  23.219  41.890   0.279
23146W        W90214  36.401  18.251   2.824
23147W        W90215   2.727  28.550   3.338
23148W        W90216  36.010  23.160  10.928
23149W        W90217  30.428  42.379   0.324
23150W        W90218  10.283  31.065   3.252
23151W        W90219  35.514  31.000   4.690
23152W        W90220  17.295  27.601  14.300
23153W        W90221   3.727  27.450   0.316
23154W        W90222  24.010  17.240   4.788
23155W        W90223  16.608  11.154  10.915
23156W        W90224  37.473  30.010  10.924
23157W        W90225  42.420  25.538   4.792
23158W        W90226  42.315  28.512   4.251
23159W        W90227  34.594   7.344   2.184
23160W        W90228  35.931  24.182   0.265
23161W        W90229   0.478  42.943  14.025
23162W        W90230  30.500  25.576   0.420
23163W        W90231  40.827  34.918  13.993
23164W        W90232  12.226   9.384   2.287
23165W        W90233  31.456   8.672   2.339
23166W        W90234  33.554  34.449   2.699
23167W        W90235  41.028   7.313   0.430
23168W        W90236  10.225  33.453   4.767
23169W        W90237   6.754  40.822  11.998
23170W        W90238  15.154  42.492  13.019
23171W        W90239   3.714  25.181   3.269
23172W        W90240  29.119  22.665   3.336
23173W        W90241   3.254  39.044  11.595
23174W        W90242  32.569  42.361  14.365
23175W        W90243  38.538  37.540   2.205
23176W        W90244  17.168  37.850   1.869
23177W        W90245  42.017  22.636  14.371
23178W        W90246   2.325   1.312  11.463
23179W        W90247  26.102  31.020  14.488
23180W        W90248  10.219  20.590  13.384
23181W        W90249   3.744  33.483  14.772
23182W        W90250  34.099  36.591   3.630
23183W        W90251  10.868  25.029   0.365
23184W        W90252  24.502  27.061  14.023
23185W        W90253   9.695  22.110   0.741
23186W        W90254  20.262  43.953   3.261
23187W        W90255  31.093  20.610   2.252
23188W        W90256  32.442   3.821  12.909
23189W        W90257  39.854  38.915   2.735
23190W        W90258  42.359   5.222  11.936
23191W        W90259  38.879  10.819   4.654
23192W        W90260  32.037  20.119   4.227
23193W        W90261  39.417  12.222  13.328
23194W        W90262  44.363  39.480   4.787
23195W        W90263  32.558  14.727  14.809
23196W        W90264  33.067   8.805   0.410
23197W        W90265  14.228  42.846  11.988
23198W        W90266  18.187   6.812  14.483
23199W        W90267  39.496  33.393   2.741
23200W        W90268   9.243   8.808   0.801
23201W        W90269  32.141  26.609  13.461
23202W        W90270  14.229  43.902   4.776
23203W        W90271  35.019  26.151   0.366
23204W        W90272  40.047  26.541  11.897
23205W        W90273  24.048  25.555  12.862
23206W        W90274  21.156  37.495   4.706
23207W        W90275   5.777  36.507   0.869
23208W        W90276  44.953  31.501  13.938
23209W        W90277  10.787  11.130   4.661
23210W        W90278   2.944  37.858  13.334
23211W        W90279  14.794  33.964  14.446
23212W        W90280  35.951   2.958   4.743
23213W        W90281  11.679  12.312  11.605
23214W        W90282  30.464  25.603  14.990
23215W        W90283  37.061  40.839  12.963
23216W        W90284  20.134  41.464   0.952
23217W        W90285  24.541  11.817  12.396
23218W        W90286  37.402  26.573   5.145
23219W        W90287   4.840  19.633   3.181
23220W        W90288  43.866  13.156  13.470
23221W        W90289  36.508  28.548  14.477
23222W        W90290   7.211  11.817   1.711
23223W        W90291  26.199  13.626  14.957
23224W        W90292   0.302  24.665  12.510
23225W        W90293  13.772  41.457  13.799
23226W        W90294  44.856  18.659   4.819
23227W        W90295   6.202  29.623   0.798
23228W        W90296  32.100  29.622  13.438
23229W        W90297   7.248  25.677  13.482
23230W        W90298  26.465   2.451   3.744
23231W        W90299  41.030   8.672   2.344
23232W        W90300  28.971  10.770  13.890
23233W        W90301  44.931  34.910  11.017
23234W        W90302  17.227  29.034  11.094
23235W        W90303  43.944  14.242  13.402
23236W        W90304  44.908  36.564  13.958
23237W        W90305  25.106  15.092  12.574
23238W        W90306  34.995  26.145  13.331
23239W        W90307  41.431  21.166   2.207
23240W        W90308   1.978  16.173   2.818
23241W        W90309   3.923   4.312  13.412
23242W        W90310   0.472  33.586   1.785
23243W        W90311  28.563  39.930  10.929
23244W        W90312  25.482   9.686   4.735
23245W        W90313  42.377  44.297   1.804
23246W        W90314  43.947   4.787  14.874
23247W        W90315  16.780  13.728  12.417
23248W        W90316   2.830  35.562   0.769
23249W        W90317  37.879  12.787   1.924
23250W        W90318  31.621  26.563   1.343
23251W        W90319  29.051  14.174   1.400
23252W        W90320  18.158  13.166   0.779
23253W        W90321  41.957  44.869  13.815
23254W        W90322  35.940   5.782   1.351
23255W        W90323  15.278  43.291   3.386
23256W        W90324  30.587  28.446   1.719
23257W        W90325   5.283  31.641   3.825
23258W        W90326   3.872  40.474  10.925
23259W        W90327  34.976  41.968  10.932
23260W        W90328  29.473  32.925  12.941
23261W        W90329  12.140  30.916   1.872
23262W        W90330  28.116   1.930   2.738
23263W        W90331  20.161  21.611   2.878
23264W        W90332  17.732  27.030  14.772
23265W        W90333  25.710  19.544   3.374
23266W        W90334  21.018  28.486   1.229
23267W        W90335   6.263  32.433   0.258
23268W        W90336   3.395   0.390  11.053
23269W        W90337  16.656  25.652   4.290
23270W        W90338  15.650  14.141  14.936
23271W        W90339   0.867  28.120  13.946
23272W        W90340   4.430  11.309  14.445
23273W        W90341  11.743   4.904  13.001
23274W        W90342  44.957   0.773  14.890
23275W        W90343   9.644  26.040   1.270
23276W        W90344  11.263  41.410   3.863
23277W        W90345   4.359   2.302  14.872
23278W        W90346  24.616  23.152   0.386
23279W        W90347  22.524  39.365  13.961
23280W        W90348  41.386  35.983   4.254
23281W        W90349   7.735  41.371   4.817
23282W        W90350  22.510  32.926  10.925
23283W        W90351   5.320  41.010  12.022
23284W        W90352  29.939  15.088  12.857
23285W        W90353   7.758   7.868   2.244
23286W        W90354  18.290   7.266  13.807
23287W        W90355   6.873  36.539   2.412
23288W        W90356   5.753  26.089   3.167
23289W        W90357  10.797  44.484  12.426
23290W        W90358  24.535  21.593   4.250
23291W        W90359   5.701   2.857  13.792
23292W        W90360  36.467   8.662  10.031
23293W        W90361  37.481  11.198   2.773
23294W        W90362  40.870  43.363   0.363
23295W        W90363  28.171  38.905   4.644
23296W        W90364  26.984  43.494  13.324
23297W        W90365  16.226  32.125  13.050
23298W        W90366  40.987  23.141   2.788
23299W        W90367  32.429  16.632  14.966
23300W        W90368  38.969   8.319  13.975
23301W        W90369  12.299  22.525   2.191
23302W        W90370  33.082  20.088  12.560
23303W        W90371  17.184  11.304  12.385
23304W        W90372  21.700  16.125  12.085
23305W        W90373  17.299   1.841   0.406
23306W        W90374  29.579   1.856  10.415
23307W        W90375  31.506  28.078   0.756
23308W        W90376  29.081  40.331   0.816
23309W        W90377  25.491  21.691   3.847
23310W        W90378  29.026  24.631  12.886
23311W        W90379  12.663  41.846  14.509
23312W        W90380  23.523   9.887   0.929
23313W        W90381  17.104   7.338  12.835
23314W        W90382   7.192  27.119  13.321
23315W        W90383  26.651  15.120  13.058
23316W        W90384   9.660   4.296  14.315
23317W        W90385  38.369  41.897  13.473
23318W        W90386  40.831  18.155  10.920
23319W        W90387  38.989  33.068  10.635
23320W        W90388  38.842  30.997  12.978
23321W        W90389  42.925   7.289   0.277
23322W        W90390   1.364  28.178   0.396
23323W        W90391  36.351  27.941   9.951
23324W        W90392  33.452  38.835   0.440
23325W        W90393   2.776   5.381  14.928
23326W        W90394   5.917  35.953  14.880
23327W        W90395  31.515  39.976  13.993
23328W        W90396  38.912  22.212  11.562
23329W        W90397  12.314   5.911   3.772
23330W        W90398  18.255  31.641   4.350
23331W        W90399  41.429   3.457   2.365
23332W        W90400  42.023  15.625   4.814
23333W        W90401  43.434  35.536  13.927
23334W        W90402  23.063  14.604  11.861
23335W        W90403  19.285  26.061   0.294
23336W        W90404  39.850  27.471   2.884
23337W        W90405   5.198  40.934   4.810
23338W        W90406  27.665  11.166   3.313
23339W        W90407   5.275  18.604  14.919
23340W        W90408  43.351  22.704  11.948
23341W        W90409  36.550  43.302  14.467
23342W        W90410  31.590  36.449   4.326
23343W        W90411  16.125  35.541  13.995
23344W        W90412  31.465  28.614   3.304
23345W        W90413   1.853   8.178   3.212
23346W        W90414  39.339  43.477   2.188
23347W        W90415  12.676  24.217  11.531
23348W        W90416  16.670  27.972   0.431
23349W        W90417   3.274   5.931  14.424
23350W        W90418   3.275  12.736  12.540
23351W        W90419  32.426   6.360   0.335
23352W        W90420  27.173   2.409  11.525
23353W        W90421  19.283  21.055  12.365
23354W        W90422   6.297  17.300   3.382
23355W        W90423  14.818   4.935   4.121
23356W        W90424  24.136  18.643   0.846
23357W        W90425  39.394  40.318  12.934
23358W        W90426  15.307  12.648  11.593
23359W        W90427  23.003  13.250  14.291
23360W        W90428   8.655  28.118  10.949
23361W        W90429  13.316  12.749   0.941
23362W        W90430  41.919  14.212  13.378
23363W        W90431   6.902  18.721  11.572
23364W        W90432  26.027   1.965   0.348
23365W        W90433  29.540  11.275   3.800
23366W        W90434  23.057  38.066  11.528
23367W        W90435  42.332  32.125   4.750
23368W        W90436  30.589  40.864  13.385
23369W        W90437  37.074   0.973  11.080
23370W        W90438  27.971  12.638   2.692
23371W        W90439  34.457  29.929   3.866
23372W        W90440   5.847   3.421   3.255
23373W        W90441   6.845  13.828   0.892
23374W        W90442  17.666   8.272  13.856
23375W        W90443  40.351  39.379  13.918
23376W        W90444  22.717  29.590   1.444
23377W        W90445  37.477   6.687  14.389
23378W        W90446  17.627  38.568   4.147
23379W        W90447  32.053  15.298  14.859
23380W        W90448   0.928  18.090  14.275
23381W        W90449   1.348  32.968   2.826
23382W        W90450   7.189  24.102   0.785
23383W        W90451  16.174  36.515  12.003
23384W        W90452  27.588  31.913  14.385
23385W        W90453  16.569   3.420   1.868
23386W        W90454  16.133  21.205  13.908
23387W        W90455  13.276   1.832   1.359
23388W        W90456  30.526  37.842   1.927
23389W        W90457  30.517  16.316   9.971
23390W        W90458  23.222  24.007   3.165
23391W        W90459  38.857  10.138  11.478
23392W        W90460  26.158   6.259   2.853
23393W        W90461  25.202  28.557   1.861
23394W        W90462  39.847  29.633   0.448
23395W        W90463  15.707  27.173   3.832
23396W        W90464   1.881  12.733   4.794
23397W        W90465   2.794   2.470   3.852
23398W        W90466  24.075   7.827   0.847
23399W        W90467  25.056  31.103  14.378
23400W        W90468  19.701   3.913  14.977
23401W        W90469  41.490  30.954   5.219
23402W        W90470  17.782  18.292   4.722
23403W        W90471   8.673  18.784  13.415
23404W        W90472  37.508  21.689   4.834
23405W        W90473  21.168  26.622   0.438
23406W        W90474  18.287   5.749  11.912
23407W        W90475   9.835  12.272   2.893
23408W        W90476  11.727  39.950   0.854
23409W        W90477   7.269  12.358  12.999
23410W        W90478  19.638  28.941  13.466
23411W        W90479  18.601  28.542  10.458
23412W        W90480  26.477  23.489  13.337
23413W        W90481  10.353  13.302   1.933
23414W        W90482  14.801  16.748   4.600
23415W        W90483   9.871  29.550  10.969
23416W        W90484  34.608  19.671  12.028
23417W        W90485  27.656  39.451   1.800
23418W        W90486  10.812  30.019  12.515
23419W        W90487  38.491  40.446  12.387
23420W        W90488   5.880  12.133  13.827
23421W        W90489   9.247  20.242   2.246
23422W        W90490  23.122  13.279  11.392
23423W        W90491   4.218   6.318   3.245
23424W        W90492  23.072  32.913   4.340
23425W        W90493   3.807  19.260   2.779
23426W        W90494   1.901  29.626  11.401
23427W        W90495  16.226  14.294   1.934
23428W        W90496  12.685  39.929   2.846
23429W        W90497  32.082  22.664   0.815
23430W        W90498  43.341  29.646   3.186
23431W        W90499  44.258  42.845  11.985
23432W        W90500  26.128  41.920  13.926
23433W        W90501  11.700   5.695  12.449
23434W        W90502  22.025  18.708   1.698
23435W        W90503   5.420  21.751   0.862
23436W        W90504  32.991  24.531   5.232
23437W        W90505  33.386  11.728  12.015
23438W        W90506   4.355   2.867  11.128
23439W        W90507  20.044   0.448   4.294
23440W        W90508  26.497  43.433   3.716
23441W        W90509   8.675  38.390  11.376
23442W        W90510  32.418   6.376  11.884
23443W        W90511  42.326  22.539  10.597
23444W        W90512  26.680   0.474   0.761
23445W        W90513  20.684   7.185  14.001
23446W        W90514  27.978   7.716  10.911
23447W        W90515  17.613  24.975   3.220
23448W        W90516  17.271  33.024  11.440
23449W        W90517  40.029  11.633  14.896
23450W        W90518  38.072  24.623  14.952
23451W        W90519  36.558  11.725  12.968
23452W        W90520  21.519  32.068  13.880
23453W        W90521  10.171  41.324  10.976
23454W        W90522  35.108   7.286  10.055
23455W        W90523  14.120  19.134   4.117
23456W        W90524  40.969  16.704   2.825
23457W        W90525  20.596  17.786   2.901
23458W        W90526   2.263  41.900   2.386
23459W        W90527  33.962  15.616   1.802
23460W        W90528  18.718  30.025  14.978
23461W        W90529  19.576  17.722  10.641
23462W        W90530  27.076  38.556  14.899
23463W        W90531   2.750  35.027  14.371
23464W        W90532  25.098   6.777  13.526
23465W        W90533   4.398   0.797  11.398
23466W        W90534  41.484  16.744   4.350
23467W        W90535  13.679  16.314  13.034
23468W        W90536   7.348  31.598  11.047
23469W        W90537   5.860  19.171  14.030
23470W        W90538  20.704  31.595  14.974
23471W        W90539  20.643  15.728   2.779
23472W        W90540   4.840  42.522  10.470
23473W        W90541  41.951  12.244   4.678
23474W        W90542  17.233   0.403  12.021
23475W        W90543   5.328  20.132  14.970
23476W        W90544  15.742  42.994  10.915
23477W        W90545  25.094   4.890  12.991
23478W        W90546   1.318  22.674  11.491
23479W        W90547  34.378  13.154  10.424
23480W        W90548  30.919  26.585   2.335
23481W        W90549  26.200  19.603   3.386
23482W        W90550  16.092  11.703  12.445
23483W        W90551  16.682  15.717  11.484
23484W        W90552  18.261  24.692  13.407
23485W        W90553  13.722  22.746   4.217
23486W        W90554  14.589   1.304  12.857
23487W        W90555   3.346  31.057   5.123
23488W        W90556   2.796  22.078   0.903
23489W        W90557  18.243  28.546  14.920
23490W        W90558  28.930  35.049   4.623
23491W        W90559  14.249   9.699   2.227
23492W        W90560  28.582  42.937  14.778
23493W        W90561  15.302  33.459   1.255
23494W        W90562  23.183  41.845  12.968
23495W        W90563  22.019  18.196  10.440
23496W        W90564  43.462  10.780  14.847
23497W        W90565   9.848  20.560  13.980
23498W        W90566  22.728  37.013   2.396
23499W        W90567  16.717  39.416  12.998
23500W        W90568  11.773  26.562  10.042
23501W        W90569   7.200  33.941  14.839
23502W        W90570  15.168   2.831   1.811
23503W        W90571   6.223  10.695  13.971
23504W        W90572  11.721  29.427   1.384
23505W        W90573  11.815   4.940   4.698
23506W        W90574   7.761  16.291   1.799
23507W        W90575  37.848  15.107   3.805
23508W        W90576  33.529  44.964   1.870
23509W        W90577   3.365  29.081  13.428
23510W        W90578   2.279  43.774   3.740
23511W        W90579  22.526   7.349   0.886
23512W        W90580   8.681  27.093  13.356
23513W        W90581   9.653  41.017   4.644
23514W        W90582  40.378  36.359  12.355
23515W        W90583  38.932  44.753  11.535
23516W        W90584  39.877  41.330  11.945
23517W        W90585  38.037  41.475   0.840
23518W        W90586  37.494  26.004  10.574
23519W        W90587   3.429  27.944  12.945
23520W        W90588  15.322  33.533   0.260
23521W        W90589  38.483  28.178  12.934
23522W        W90590  35.940  34.576  12.391
23523W        W90591   9.820  14.179  14.759
23524W        W90592  10.203  33.067   0.280
23525W        W90593  37.366  15.289   1.423
23526W        W90594   9.279  25.020   0.450
23527W        W90595  18.271   7.794   1.704
23528W        W90596  25.686   6.313   1.926
23529W        W90597  39.489  23.190  14.863
23530W        W90598  42.886  38.892  10.614
23531W        W90599  23.120  38.540   5.205
23532W        W90600  27.624  11.366  11.908
23533W        W90601  25.111  26.013   2.674
23534W        W90602  42.397  40.988   0.448
23535W        W90603  27.125  34.615   3.225
23536W        W90604   5.851  37.058   3.662
23537W        W90605  16.643  18.703  11.470
23538W        W90606  31.952  31.090  13.332
23539W        W90607  41.828  18.589   0.889
23540W        W90608  24.984  23.504   3.758
23541W        W90609  39.332  25.962  13.929
23542W        W90610  16.730   2.450   1.438
23543W        W90611  32.100  17.576   1.317
23544W        W90612  18.739   2.822  11.527
23545W        W90613  14.650  31.033  13.515
23546W        W90614  44.349  32.987   1.268
23547W        W90615   3.750  31.492  11.513
23548W        W90616  31.484  37.841   3.691
23549W        W90617  10.341  27.146   1.391
23550W        W90618  12.123  21.201   4.801
23551W        W90619  20.035  21.637  11.377
23552W        W90620  17.295  37.361  12.014
23553W        W90621   3.720   7.213   1.342
23554W        W90622  40.976  36.507  13.357
23555W        W90623  15.173   8.720  11.560
23556W        W90624  32.465  40.954   0.756
23557W        W90625  39.947  12.835  11.108
23558W        W90626  19.743  16.189  14.761
23559W        W90627  37.410  25.100   9.999
23560W        W90628  30.462  18.671   2.239
23561W        W90629  22.132  16.123  13.983
23562W        W90630  37.932  32.612  13.990
23563W        W90631  28.187  11.296   0.427
23564W        W90632  14.809   1.897  14.960
23565W        W90633  24.077   6.920  10.422
23566W        W90634  24.143  11.841  11.884
23567W        W90635   8.166  17.198   2.884
23568W        W90636  38.367  28.055   2.799
23569W        W90637  32.599  13.610  11.933
23570W        W90638   1.863  37.458  12.405
23571W        W90639  42.843  34.391   1.897
23572W        W90640  39.918  31.005   2.379
23573W        W90641  37.971  42.809   2.298
23574W        W90642  24.996  44.890  12.028
23575W        W90643  28.021  41.307  12.901
23576W        W90644  32.605   6.827  12.387
23577W        W90645  19.188  35.441  13.869
23578W        W90646  23.702   4.258   3.688
23579W        W90647  36.910  27.653   1.845
23580W        W90648   8.212   2.871   1.849
23581W        W90649  43.407  12.813   1.762
23582W        W90650  40.409  30.992   4.196
23583W        W90651  24.160  17.789   4.794
23584W        W90652   7.337  34.416   3.228
23585W        W90653  32.481  29.974  11.886
23586W        W90654  32.480  26.075   0.441
23587W        W90655  26.096  17.072   3.813
23588W        W90656   3.779   3.317   0.278
23589W        W90657  40.396   8.667  14.289
23590W        W90658  28.479   3.339   3.306
23591W        W90659  37.010  38.491  10.544
23592W        W90660  21.540  20.197   3.675
23593W        W90661  40.462  39.010   1.699
23594W        W90662  38.882   0.258   2.780
23595W        W90663  18.783   1.307   4.189
23596W        W90664  43.987  21.606   1.244
23597W        W90665  30.094  28.150   0.775
23598W        W90666  43.453  25.197   2.861
23599W        W90667  44.893  39.483   2.713
23600W        W90668  35.372  27.659  12.383
23601W        W90669  12.233   2.238   4.194
23602W        W90670  18.267  11.689   3.299
23603W        W90671  27.057  17.171  14.950
23604W        W90672  40.441  29.637   0.396
23605W        W90673   0.459   5.325   1.765
23606W        W90674  21.110  41.916  12.086
23607W        W90675  26.501  10.709   3.849
23608W        W90676  44.997   5.696   2.419
23609W        W90677  33.891  10.187   1.833
23610W        W90678  25.142  44.489   5.101
23611W        W90679  37.459  32.051   5.115
23612W        W90680  43.924  42.012   3.292
23613W        W90681  27.640   1.814  13.805
23614W        W90682  41.307  21.593   1.435
23615W        W90683  13.232  26.628   2.883
23616W        W90684   7.201   5.413  12.468
23617W        W90685  23.565  30.935   0.739
23618W        W90686  43.467  19.106  12.393
23619W        W90687  20.591   4.402   3.706
23620W        W90688   5.820  16.184   3.672
23621W        W90689  26.131  41.527   0.906
23622W        W90690   1.947  25.192  11.574
23623W        W90691  17.624  41.421   3.251
23624W        W90692   6.209  37.915   4.128
23625W        W90693  26.679  40.907   3.209
23626W        W90694  19.199  32.003  13.326
23627W        W90695  34.548  44.948   4.177
23628W        W90696  28.972   0.256  13.381
23629W        W90697  41.900  33.073   3.657
23630W        W90698  22.723   8.178  10.899
23631W        W90699  37.356  36.451   1.884
23632W        W90700  24.604  19.589  13.924
23633W        W90701  32.142  18.198  13.858
23634W        W90702  34.898  10.799   1.702
23635W        W90703  21.731   6.833   3.817
23636W        W90704   8.270  37.508  14.324
23637W        W90705  32.394  34.965   2.682
23638W        W90706  24.667  16.263  12.367
23639W        W90707  13.205   0.417  10.990
23640W        W90708  40.532  22.707   9.969
23641W        W90709   6.885  28.602   0.361
23642W        W90710   0.337   1.323   2.777
23643W        W90711   6.373  28.606   2.264
23644W        W90712  32.393  19.702   4.202
23645W        W90713  14.221  28.507  11.927
23646W        W90714  22.145   0.326  13.404
23647W        W90715  15.744  14.816  14.955
23648W        W90716  13.828  32.523  11.439
23649W        W90717   2.352  21.031  12.468
23650W        W90718  22.073  16.085   4.216
23651W        W90719  17.566  31.531   3.820
23652W        W90720  41.991  37.572   9.962
23653W        W90721  42.338  12.284  11.032
23654W        W90722  20.273  35.498   0.849
23655W        W90723  31.965   6.821   3.284
23656W        W90724  42.291  26.514  12.385
23657W        W90725  41.400  40.458   1.359
23658W        W90726  42.957   8.357   1.296
23659W        W90727  23.221   9.370  12.506
23660W        W90728  32.632  11.273  10.925
23661W        W90729  16.269  27.148  14.467
23662W        W90730  10.252  36.054  10.637
23663W        W90731  20.075  18.690  13.798
23664W        W90732  24.162  37.060  11.568
23665W        W90733  41.980  17.260   2.202
23666W        W90734  40.535  11.735   0.856
23667W        W90735   0.846  41.966   2.675
23668W        W90736  39.974  38.958   4.642
23669W        W90737  27.600  32.396  12.420
23670W        W90738  39.990  36.077   2.237
23671W        W90739  33.876  38.356   4.350
23672W        W90740  43.451  44.385  10.429
23673W        W90741  10.139  25.152   4.320
23674W        W90742  16.259  18.788  13.367
23675W        W90743  25.205   2.816  13.532
23676W        W90744  26.024  11.751   2.856
23677W        W90745  39.456  30.068  14.369
23678W        W90746  39.445  38.547  11.393
23679W        W90747   8.856  20.241   2.790
23680W        W90748  35.071  31.107  13.521
23681W        W90749  15.225  33.875   0.255
23682W        W90750  10.351   3.366  14.283
23683W        W90751  29.082  36.555   2.702
23684W        W90752  15.256  34.472  10.615
23685W        W90753   5.808  42.873   3.660
23686W        W90754  25.657   8.848   4.787
23687W        W90755   2.758   8.686  11.044
23688W        W90756  16.629  13.313   2.364
23689W        W90757  28.067  23.591   0.911
23690W        W90758  43.361  13.823   3.684
23691W        W90759   1.446  29.921  11.578
23692W        W90760  37.985  33.599  11.083
23693W        W90761  42.986   4.238  14.483
23694W        W90762  36.445  11.728  12.062
23695W        W90763  39.831  26.107  12.469
23696W        W90764  34.951  19.582   1.210
23697W        W90765  21.120  39.522   3.364
23698W        W90766  29.030  33.465  11.048
23699W        W90767  14.153  31.968  13.828
23700W        W90768  11.827  22.136  12.379
23701W        W90769  37.433  32.523  13.847
23702W        W90770   4.728  36.551  13.478
23703W        W90771   5.201  18.762  11.951
23704W        W90772  20.182  42.861   1.794
23705W        W90773  27.000  40.994   4.303
23706W        W90774  41.009  11.134  13.547
23707W        W90775  18.581  13.805  12.894
23708W        W90776  33.620  27.458  14.956
23709W        W90777  22.153  43.894   3.344
23710W        W90778   2.758  44.869   3.341
23711W        W90779  33.896  25.980   4.826
23712W        W90780  41.390   3.950   3.750
23713W        W90781  14.249  13.337   3.245
23714W        W90782  12.809  31.145  14.907
23715W        W90783  26.655  39.993   4.760
23716W        W90784  41.303  29.560   0.425
23717W        W90785  30.123  28.636  10.978
23718W        W90786  12.263  40.926  11.449
23719W        W90787   7.233  10.323  12.415
23720W        W90788   9.342  12.154   0.929
23721W        W90789  10.304   8.161   5.092
23722W        W90790  20.642  18.581  11.905
23723W        W90791  32.040   1.295  11.437
23724W        W90792  20.561  39.842  14.882
23725W        W90793  38.043  29.953   0.244
23726W        W90794  34.484  12.294  10.536
23727W        W90795   4.783  20.029   1.356
23728W        W90796  27.631  42.959  10.956
23729W        W90797  28.605   5.431  14.809
23730W        W90798  11.250  19.164   0.763
23731W        W90799  32.590  10.270  13.479
23732W        W90800   5.423   1.476  11.591
23733W        W90801   5.812  36.927  11.912
23734W        W90802  25.000  30.470  10.974
23735W        W90803  29.097  24.084   1.769
23736W        W90804  22.700  30.951   4.759
23737W        W90805  12.243  26.685  14.315
23738W        W90806  22.024  14.326  13.539
23739W        W90807   2.938  27.023  11.591
23740W        W90808   2.445  23.712   4.241
23741W        W90809  35.051   7.346   1.262
23742W        W90810  43.788  28.094  12.432
23743W        W90811  34.558  27.550  10.548
23744W        W90812   2.874   7.245   3.274
23745W        W90813  39.042  19.624   4.668
23746W        W90814  10.142  29.466   2.317
23747W        W90815  15.673   3.816  13.328
23748W        W90816  13.154  15.132   2.292
23749W        W90817  24.512  41.894   0.392
23750W        W90818  28.619  42.483   2.198
23751W        W90819  14.105  30.514  13.330
23752W        W90820  18.660   6.753  12.012
23753W        W90821   1.842  36.951  14.502
23754W        W90822  22.010  22.711  12.359
23755W        W90823  15.820   5.781  13.003
23756W        W90824   7.353  16.152  14.835
23757W        W90825  41.300  15.241  14.337
23758W        W90826  44.762   6.907  14.440
23759W        W90827   7.740  10.224   5.223
23760W        W90828  29.949  16.602   4.830
23761W        W90829  12.652  27.054  13.975
23762W        W90830  44.867  32.942  14.855
23763W        W90831  40.921   0.978  10.461
23764W        W90832  42.992  41.520  13.878
23765W        W90833  28.632  12.809   1.384
23766W        W90834  37.885  14.254   2.747
23767W        W90835  23.180  39.395  11.030
23768W        W90836  33.098   8.740   3.675
23769W        W90837   1.731  22.148   4.725
23770W        W90838  23.504  27.040  12.992
23771W        W90839  13.747  10.346  14.317
23772W        W90840  21.723  24.666   3.203
23773W        W90841   2.878   7.679   4.751
23774W        W90842   1.441  35.007  13.443
23775W        W90843  42.393  44.491   2.280
23776W        W90844   8.231  18.678   3.690
23777W        W90845  23.525  36.848   3.858
23778W        W90846  10.214  32.134   1.329
23779W        W90847  24.012  31.947   0.268
23780W        W90848  40.816  42.400  13.991
23781W        W90849  23.143  22.007  12.056
23782W        W90850   0.869  19.278   4.788
23783W        W90851   1.342  22.162  14.419
23784W        W90852  22.629  12.336  13.309
23785W        W90853  17.147  44.906  11.038
23786W        W90854  33.403  10.339   3.751
23787W        W90855   4.730  30.024  13.874
23788W        W90856   6.724  18.635  11.118
23789W        W90857  21.514  36.089  12.067
23790W        W90858  41.791  16.609  11.938
23791W        W90859  41.897  26.628  14.485
23792W        W90860  32.522  25.192  13.050
23793W        W90861  10.862  39.414   1.313
23794W        W90862  15.765  14.119   1.424
23795W        W90863   0.965  33.510  11.466
23796W        W90864  16.742  39.060   3.714
23797W        W90865   8.696  11.305  12.486
23798W        W90866  33.115  42.818  14.807
23799W        W90867  20.703  38.039  10.053
23800W        W90868  40.376  22.200   4.192
23801W        W90869   6.184  12.187   4.133
23802W        W90870  34.983  41.495  10.123
23803W        W90871  33.093   4.352   2.765
23804W        W90872  36.900  43.290  13.859
23805W        W90873  43.804  35.379  12.373
23806W        W90874   6.247  28.579   0.905
23807W        W90875  43.438   8.226  11.523
23808W        W90876  22.661  17.725  11.100
23809W        W90877  14.211  36.545   0.872
23810W        W90878   7.754  28.525   3.663
23811W        W90879  35.486  19.752  11.857
23812W        W90880  40.477   3.235   4.337
23813W        W90881  43.429  25.216  10.081
23814W        W90882  10.368  43.772  13.401
23815W        W90883   1.284  13.279   4.605
23816W        W90884  17.703   9.383   2.408
23817W        W90885   3.953  33.915  11.022
23818W        W90886  37.530  22.074  13.033
23819W        W90887   5.294   2.367   2.725
23820W        W90888  21.533  41.871  14.774
23821W        W90889  16.757  31.501  14.324
23822W        W90890  32.503  16.758   2.282
23823W        W90891  10.809  17.243  11.415
23824W        W90892  17.249   6.189  12.435
23825W        W90893  32.397  15.183   5.280
23826W        W90894  39.899  10.782  14.778
23827W        W90895  21.102  15.607  11.031
23828W        W90896  11.335  42.509   1.271
23829W        W90897  26.646  16.313   2.774
23830W        W90898  35.883  35.053  13.405
23831W        W90899   4.938  17.756   5.639
23832W        W90900  20.733   0.354  11.580
23833W        W90901   6.345  13.774   2.809
23834W        W90902  36.468   7.751   2.236
23835W        W90903  16.572  40.995  11.089
23836W        W90904  27.007   2.325  13.013
23837W        W90905  16.641   0.890  11.460
23838W        W90906  40.855  44.392   2.401
23839W        W90907  27.676  17.787   4.806
23840W        W90908   1.749  29.610  14.450
23841W        W90909  30.057  25.646  10.937
23842W        W90910  28.029  33.620   4.302
23843W        W90911  17.612  20.125   0.463
23844W        W90912   0.947  34.555   2.334
23845W        W90913   9.176  21.240  12.866
23846W        W90914  13.309  25.556   2.223
23847W        W90915   0.822   5.769  14.335
23848W        W90916   0.837  20.165  13.415
23849W        W90917  18.759   4.343   1.894
23850W        W90918  13.265   4.393  11.972
23851W        W90919  33.473  24.161  12.939
23852W        W90920   7.373   5.424   3.196
23853W        W90921  38.474   1.770   3.669
23854W        W90922  15.184  15.158  11.977
23855W        W90923  27.621   8.343   2.193
23856W        W90924  33.040  30.465   3.369
23857W        W90925  43.788  23.493   0.345
23858W        W90926  18.215  20.622  11.959
23859W        W90927  17.153  10.832   2.338
23860W        W90928   9.376  10.223   1.430
23861W        W90929  39.430   4.918   0.291
23862W        W90930  27.046  19.095   4.307
23863W        W90931  11.285  31.007  10.494
23864W        W90932  39.985  30.033  13.467
23865W        W90933  22.724   3.269   5.100
23866W        W90934  35.964  18.664   0.808
23867W        W90935   3.391  15.104   1.409
23868W        W90936  29.597  30.624   3.810
23869W        W90937   9.309  36.562  13.988
23870W        W90938  23.714  28.663  11.111
23871W        W90939   0.416   6.854  12.090
23872W        W90940  27.094  43.453  12.402
23873W        W90941  23.588  31.519   1.897
23874W        W90942  21.703  33.916   0.941
23875W        W90943  21.079  16.699   3.871
23876W        W90944  30.128  12.675   5.614
23877W        W90945  38.387   0.366   3.220
23878W        W90946   7.877  21.133  13.323
23879W        W90947  23.014  13.143  14.938
23880W        W90948  16.235  18.574   3.371
23881W        W90949  24.703  27.568  12.494
23882W        W90950  20.661  14.736  12.359
23883W        W90951  20.598   3.288  14.899
23884W        W90952   6.806  36.521  13.348
23885W        W90953  15.785  18.289  14.416
23886W        W90954  12.117  15.631   2.191
23887W        W90955  38.437   0.948   2.180
23888W        W90956  26.132  36.566   2.246
23889W        W90957  42.523  26.612   4.136
23890W        W90958  21.626  38.016   0.458
23891W        W90959  34.039  36.014   0.417
23892W        W90960  18.675  16.154  11.595
23893W        W90961  11.641  38.907  11.011
23894W        W90962  10.328  12.772  11.509
23895W        W90963  38.836  31.419   0.357
23896W        W90964  39.355  24.680  10.498
23897W        W90965   0.836   2.947  14.765
23898W        W90966  21.167  10.714   3.663
23899W        W90967   8.364  38.379   4.649
23900W        W90968  42.283   9.389   0.729
23901W        W90969   0.923  42.441  11.466
23902W        W90970  37.465  13.211   3.733
23903W        W90971   4.367   0.445   2.279
23904W        W90972  20.203  35.013   2.195
23905W        W90973  35.561   3.347  14.902
23906W        W90974  15.112   1.288   3.836
23907W        W90975  29.584  23.062   2.777
23908W        W90976   5.862   4.721   3.779
23909W        W90977  40.531  35.387   0.323
23910W        W90978  18.780   7.696  10.619
23911W        W90979  21.543   2.726   0.324
23912W        W90980  29.123  16.650  11.435
23913W        W90981  24.482  22.713   0.311
23914W        W90982  21.084  27.629   4.161
23915W        W90983  31.898  28.621   2.217
23916W        W90984  15.814  25.110  14.429
23917W        W90985   2.434  36.517   0.771
23918W        W90986  33.051  28.582   0.749
23919W        W90987  35.479  28.142  12.490
23920W        W90988  37.983   8.854   1.339
23921W        W90989  17.258   6.388   4.632
23922W        W90990   7.214  40.512   2.206
23923W        W90991   9.190   5.354   3.803
23924W        W90992   8.871  42.381   4.207
23925W        W90993  38.994  26.099  12.861
23926W        W90994   1.905  11.366  10.491
23927W        W90995  26.152  33.392   2.728
23928W        W90996  28.527  28.967   4.638
23929W        W90997  19.198  25.055   2.251
23930W        W90998  19.122  34.036   3.692
23931W        W90999  15.207   7.798   9.641
23932W        W91000  16.621  17.064  14.956
23933W        W91001  39.478  11.350  12.394
23934W        W91002   9.714  21.096   2.673
23935W        W91003  41.905  29.661   0.934
23936W        W91004  24.711  26.591   1.739
23937W        W91005   4.757  20.764  14.835
23938W        W91006  43.823  16.762  11.062
23939W        W91007   0.816  39.435  11.427
23940W        W91008  16.261  27.184   4.139
23941W        W91009  37.853   9.715  12.004
23942W        W91010  24.984  37.029   0.787
23943W        W91011  27.073   9.365   3.312
23944W        W91012  24.208   8.374  13.891
23945W        W91013  37.897   0.922   1.305
23946W        W91014   3.400  22.605   3.859
23947W        W91015  26.001  33.391  14.923
23948W        W91016  40.905  40.322   0.262
23949W        W91017  13.270  19.608   0.855
23950W        W91018  42.962   3.297  10.123
23951W        W91019  18.133  40.404   3.176
23952W        W91020  42.458   7.241   3.375
23953W        W91021  22.048  19.615  12.960
23954W        W91022  18.178  19.193  13.850
23955W        W91023  11.197  13.308   4.779
23956W        W91024  13.606  40.981   0.394
23957W        W91025  11.806  37.507   0.372
23958W        W91026  37.982  36.890  13.988
23959W        W91027   1.864   7.184   0.946
23960W        W91028  37.883  35.502  13.029
23961W        W91029  30.968   7.285  11.485
23962W        W91030  15.820  21.164   0.889
23963W        W91031  34.407  31.568   1.884
23964W        W91032  38.859  39.371  13.000
23965W        W91033   5.363  43.924   0.946
23966W        W91034  15.818  13.148  13.315
23967W        W91035  21.249   1.242  13.487
23968W        W91036   7.277   2.857  10.921
23969W        W91037  38.041  44.384  12.880
23970W        W91038  14.724   6.804  11.914
23971W        W91039  11.703  11.808  11.011
23972W        W91040  25.639   7.684  10.598
23973W        W91041   7.671  29.037   3.382
23974W        W91042  31.579   4.434  10.461
23975W        W91043  20.595  32.464   0.962
23976W        W91044  27.568  27.638   1.235
23977W        W91045  35.968   2.764  12.514
23978W        W91046   6.232  28.677  13.443
23979W        W91047  17.169  41.841   3.758
23980W        W91048  29.638  32.063  12.531
23981W        W91049  15.700  33.573   2.415
23982W        W91050  13.270  34.956  10.927
23983W        W91051  11.663  29.538  10.106
23984W        W91052   7.670  23.687  13.476
23985W        W91053   8.337  43.918  13.931
23986W        W91054  11.200  20.221   3.676
23987W        W91055  40.885  42.027   0.776
23988W        W91056  17.097  22.675   1.897
23989W        W91057  19.717  33.996   4.125
23990W        W91058  24.168  34.042   4.768
23991W        W91059  41.326   6.294   4.680
23992W        W91060   6.233  35.941  14.512
23993W        W91061   0.786  11.796   4.792
23994W        W91062  43.431  28.118   4.807
23995W        W91063  13.825  31.086  11.377
23996W        W91064  25.094  31.984   0.902
23997W        W91065  16.671   1.774   3.382
23998W        W91066  28.181  16.796   3.210
23999W        W91067   3.841  26.149   1.743
24000W        W91068  31.595   9.186   3.824
24001W        W91069  34.403  22.619   4.779
24002W        W91070  22.204  21.207   4.304
24003W        W91071  26.042   8.753   2.775
24004W        W91072  18.132  43.919  12.499
24005W        W91073  24.632  31.403  12.444
24006W        W91074  28.043  33.606   3.348
24007W        W91075   4.411  39.954   3.791
24008W        W91076  32.514  25.089   4.219
24009W        W91077   0.266  35.463  10.502
24010W        W91078  24.228  30.639   0.453
24011W        W91079  25.152  30.431   1.902
24012W        W91080  28.600  44.780   3.660
24013W        W91081  18.678  41.470  10.431
24014W        W91082   7.195   8.849   0.347
24015W        W91083   9.693  35.972  10.636
24016W        W91084   5.370  16.634  14.448
24017W        W91085  11.161  26.630   4.706
24018W        W91086  28.602  21.542  14.826
24019W        W91087   1.804  10.357  12.542
24020W        W91088  12.223  23.619   2.879
24021W        W91089  30.127  12.753   3.637
24022W        W91090   9.372  17.654  11.440
24023W        W91091  19.742  34.457   4.691
24024W        W91092   4.205  34.939  11.905
24025W        W91093  24.513   4.868  11.865
24026W        W91094  35.100  44.421  14.346
24027W        W91095   4.791  29.622  13.519
24028W        W91096  20.763  34.430   3.259
24029W        W91097  29.143   6.365   4.294
24030W        W91098  33.025  19.156   1.791
24031W        W91099  38.892   6.196   5.202
24032W        W91100  34.952   2.755   2.226
24033W        W91101  21.141  44.994   1.440
24034W        W91102  39.422  33.584  10.037
24035W        W91103   8.176  27.169  11.105
24036W        W91104  37.934  20.737   4.740
24037W        W91105  39.921  39.415   4.207
24038W        W91106  22.091  11.321  14.371
24039W        W91107  16.144  15.176  11.055
24040W        W91108  34.115  22.506  12.862
24041W        W91109  41.920  31.458  14.393
24042W        W91110  44.768  20.649   3.803
24043W        W91111  34.405  32.913  11.462
24044W        W91112  43.878  31.556  14.318
24045W        W91113  23.152  17.793  14.799
24046W        W91114   4.291  36.941  13.957
24047W        W91115   2.428   1.359  14.766
24048W        W91116  36.938   3.845   1.922
24049W        W91117   8.228  25.548  11.527
24050W        W91118  36.921  23.112  13.028
24051W        W91119  41.479   0.267  12.872
24052W        W91120   1.827  12.848  13.995
24053W        W91121  33.549  44.872   2.199
24054W        W91122  22.212   2.319  13.363
24055W        W91123  17.272  25.186   0.907
24056W        W91124  28.103  16.573  13.524
24057W        W91125  42.312  12.136   1.881
24058W        W91126  40.814   0.762  12.020
24059W        W91127   4.235  22.725   3.765
24060W        W91128   6.863  18.681   1.875
24061W        W91129  14.809  43.910  12.901
24062W        W91130  17.133   5.869   3.215
24063W        W91131  15.322   5.315   4.274
24064W        W91132  38.941  17.213  12.056
24065W        W91133   6.699  44.922   3.767
24066W        W91134  39.355  43.844   3.663
24067W        W91135  39.357  28.522   4.241
24068W        W91136   5.239  16.247   1.272
24069W        W91137  16.148  28.989  10.949
24070W        W91138  42.339  20.764  10.951
24071W        W91139  39.488   8.874  11.930
24072W        W91140  20.145  32.481   4.639
24073W        W91141   8.892  11.274  13.933
24074W        W91142  38.874  19.683   0.373
24075W        W91143  43.334  33.609  10.977
24076W        W91144  22.540   1.939   4.118
24077W        W91145  11.743  25.616   1.747
24078W        W91146   9.386  20.608  13.533
24079W        W91147  26.466  32.500   3.361
24080W        W91148  18.643  32.492  13.330
24081W        W91149  42.811  26.703   4.352
24082W        W91150  21.027  40.038   2.266
24083W        W91151  11.720  13.272   1.326
24084W        W91152  28.540  33.481  10.896
24085W        W91153   6.291  36.064   0.321
24086W        W91154  24.095  42.881  13.860
24087W        W91155   7.865  16.240   2.211
24088W        W91156  28.958   7.673  12.412
24089W        W91157  15.169  23.591  12.354
24090W        W91158  31.409  34.029   0.373
24091W        W91159  16.753  25.633   3.326
24092W        W91160  28.137   9.177   0.299
24093W        W91161  31.093  30.518   4.729
24094W        W91162  18.058  26.100  12.979
24095W        W91163  13.645  26.568   1.324
24096W        W91164   7.824   4.254  11.518
24097W        W91165  18.575   7.349   3.850
24098W        W91166  37.459  19.223  11.570
24099W        W91167   9.369  21.735  13.803
24100W        W91168   7.740  16.315  12.039
24101W        W91169  23.609  14.281  11.522
24102W        W91170  29.589  21.206   1.226
24103W        W91171  23.092  20.232   0.382
24104W        W91172  31.606  38.823  14.922
24105W        W91173  26.560  44.971   2.199
24106W        W91174  12.744  25.713   1.725
24107W        W91175  44.417   1.448  12.019
24108W        W91176   9.208  26.584   0.374
24109W        W91177  41.919  11.168  14.842
24110W        W91178  25.201  25.154   0.423
24111W        W91179  37.581  37.477  10.001
24112W        W91180   7.386  32.440   0.866
24113W        W91181   2.427  41.915   2.809
24114W        W91182  34.545  43.860   3.272
24115W        W91183  35.086   1.376  12.053
24116W        W91184  23.058   1.341  11.518
24117W        W91185  31.608  30.479  13.943
24118W        W91186  19.759  39.499   2.377
24119W        W91187  30.474  39.979   1.383
24120W        W91188  15.818  17.281  10.939
24121W        W91189  21.635  25.524  11.057
24122W        W91190  22.678  33.580  12.882
24123W        W91191  14.725  20.563  13.006
24124W        W91192  25.533  43.369  13.002
24125W        W91193   4.707  38.061  11.567
24126W        W91194  13.318  42.301   3.760
24127W        W91195  21.598  21.642  11.972
24128W        W91196  35.436  19.126  13.046
24129W        W91197  40.380  42.325  14.851
24130W        W91198  44.326  31.583  14.022
24131W        W91199  31.115  21.563   3.826
24132W        W91200  41.000  32.063  13.838
24133W        W91201  18.613  42.434   4.698
24134W        W91202   2.964  24.686   1.322
24135W        W91203  14.600  41.880   1.331
24136W        W91204  21.628  21.236   4.725
24137W        W91205  44.975   0.766  12.891
24138W        W91206  34.985  15.712  14.489
24139W        W91207  28.630  27.184  10.630
24140W        W91208  44.782  17.646   2.226
24141W        W91209   4.267  19.685   2.861
24142W        W91210  14.828  33.923  11.877
24143W        W91211  44.754   0.928   3.703
24144W        W91212   8.286  35.390  10.942
24145W        W91213  17.275   0.841   0.279
24146W        W91214  14.270  44.753  10.448
24147W        W91215  20.710  30.018  12.361
24148W        W91216   2.292   1.420   4.239
24149W        W91217  29.620  42.457  14.445
24150W        W91218  33.091  44.473  12.433
24151W        W91219  21.156  44.445  11.499
24152W        W91220  14.707  18.288   0.763
24153W        W91221  42.976  44.823  12.438
24154W        W91222   3.919  29.485  12.004
24155W        W91223  42.969   7.702  12.390
24156W        W91224  36.379  39.883  12.945
24157W        W91225  39.017  19.631  11.086
24158W        W91226  21.250   0.760   0.776
24159W        W91227   1.356   6.818   1.450
24160W        W91228  20.701  33.389  12.386
24161W        W91229  34.493  27.016  13.839
24162W        W91230  21.255   0.832  13.939
24163W        W91231  44.985  18.272   5.163
24164W        W91232  22.734  16.076  11.477
24165W        W91233  43.450  36.439   2.179
24166W        W91234  42.300  29.105  13.834
24167W        W91235   6.725  23.642   3.297
24168W        W91236  22.206  43.279   3.731
24169W        W91237  24.111  26.459   3.260
24170W        W91238  22.182  41.957   3.147
24171W        W91239  44.007  26.633   4.117
24172W        W91240  30.471  30.027   3.239
24173W        W91241   4.256  40.314   1.714
24174W        W91242  39.931   9.657  13.532
24175W        W91243  11.213  14.126   0.955
24176W        W91244   9.808   0.425   1.436
24177W        W91245   7.238   1.770  12.362
24178W        W91246   7.706   3.910   4.209
24179W        W91247  23.205  44.767   3.311
24180W        W91248  30.627  31.423  11.554
24181W        W91249  17.189  28.536  11.056
24182W        W91250  14.293  29.991   2.374
24183W        W91251   3.713  39.980  14.831
24184W        W91252  24.693  18.242   2.726
24185W        W91253  29.996  36.568  10.414
24186W        W91254  23.683  16.810  13.426
24187W        W91255  14.296  27.972   4.187
24188W        W91256  13.169  34.915  11.900
24189W        W91257  44.999   6.775  12.510
24190W        W91258  21.126  24.588  12.084
24191W        W91259  42.511  34.557  12.907
24192W        W91260  33.073  14.317   1.882
24193W        W91261   1.432  10.367  10.911
24194W        W91262  31.069   2.286   3.275
24195W        W91263   1.278  33.512   4.334
24196W        W91264   3.914  39.374   4.637
24197W        W91265  23.055  41.369   0.283
24198W        W91266  12.182   0.487  13.370
24199W        W91267  24.497  34.043   2.878
24200W        W91268  33.433  20.583  13.978
24201W        W91269  39.026  27.130  13.970
24202W        W91270   2.340   0.823  14.892
24203W        W91271  41.406  21.176   3.695
24204W        W91272  35.516  38.023   0.875
24205W        W91273  11.804  19.701  11.010
24206W        W91274  20.039  19.059   4.756
24207W        W91275  24.117   0.430  12.511
24208W        W91276  37.029   0.273   1.729
24209W        W91277   1.922  26.476  11.393
24210W        W91278  38.495  27.138   0.360
24211W        W91279  12.715  15.097   3.714
24212W        W91280  42.917  10.270  10.444
24213W        W91281  12.791  33.454   3.269
24214W        W91282  38.054  28.561  10.975
24215W        W91283  13.649  28.436   2.374
24216W        W91284  36.047  33.556   4.140
24217W        W91285   5.887  40.865   3.722
24218W        W91286   3.354   0.421  11.574
24219W        W91287  17.593  38.905   2.386
24220W        W91288   4.841  43.970  14.307
24221W        W91289  11.742   1.867  12.445
24222W        W91290  23.094  38.914  11.557
24223W        W91291   6.187  27.011   4.671
24224W        W91292  18.189  13.345  13.932
24225W        W91293  12.182   6.767   2.280
24226W        W91294   0.970  38.864  13.922
24227W        W91295  28.577  22.714   4.166
24228W        W91296  29.948  44.791   0.774
24229W        W91297  41.492   2.927   1.294
24230W        W91298  17.180  14.631   3.738
24231W        W91299   1.408  26.064   1.935
24232W        W91300  32.584  14.812  10.945
24233W        W91301  23.133  20.200  14.400
24234W        W91302  10.774  30.497  14.995
24235W        W91303  30.066  11.212  12.528
24236W        W91304   3.954  21.108   3.196
24237W        W91305  28.516  11.228   3.635
24238W        W91306  43.288  15.600   1.790
24239W        W91307  16.684   3.372  11.881
24240W        W91308  16.766  35.000   2.824
24241W        W91309  30.103  43.352  13.934
24242W        W91310  23.679  12.812   2.231
24243W        W91311  11.150  12.761  12.548
24244W        W91312  35.373  39.874   1.827
24245W        W91313  10.641  22.142  10.485
24246W        W91314   4.384   0.864   1.927
24247W        W91315  17.620  42.928   4.217
24248W        W91316  40.960  38.981   1.373
24249W        W91317  11.137   8.189   4.240
24250W        W91318  10.788  12.695  11.914
24251W        W91319   1.285  19.227   3.808
24252W        W91320  11.822  34.370   2.327
24253W        W91321  20.715  37.509  12.547
24254W        W91322   0.839  44.855  11.031
24255W        W91323  10.239  44.495   2.669
24256W        W91324  27.950  37.920   3.867
24257W        W91325  36.064   5.338  13.804
24258W        W91326  26.956  18.698   1.828
24259W        W91327  27.680   1.857   0.347
24260W        W91328   3.249  42.787  10.496
24261W        W91329  28.639  26.198   3.181
24262W        W91330  19.724  28.009  14.968
24263W        W91331  21.252  14.176   3.234
24264W        W91332  16.813  26.540  12.421
24265W        W91333  42.919  20.159  13.398
24266W        W91334  28.975  24.986  10.619
24267W        W91335  21.667  44.916  12.849
24268W        W91336  19.092  17.764  13.489
24269W        W91337  27.528  29.981  13.028
24270W        W91338  16.155  29.148   1.833
24271W        W91339  11.736  12.181  10.469
24272W        W91340  27.953  34.487   5.625
24273W        W91341  28.989  41.041  11.013
24274W        W91342  18.546  42.451   3.228
24275W        W91343  34.596  40.005   1.884
24276W        W91344  32.487  10.340   4.696
24277W        W91345   0.435   3.857   0.434
24278W        W91346  32.967  39.004  13.456
24279W        W91347   6.801  16.196   3.664
24280W        W91348  38.962  12.725   1.419
24281W        W91349   4.268  38.571  11.945
24282W        W91350  26.588  13.262  13.999
24283W        W91351  31.914  23.131   1.739
24284W        W91352  19.275  44.501   1.424
24285W        W91353  43.341  24.681  11.898
24286W        W91354  43.477  33.073  14.355
24287W        W91355   0.277  22.054  13.973
24288W        W91356  30.622  20.072   0.464
24289W        W91357   0.281   6.236   1.313
24290W        W91358  24.229  41.294  11.065
24291W        W91359  34.945  38.049   3.240
24292W        W91360   3.350  13.798  11.566
24293W        W91361  21.177   3.377   0.737
24294W        W91362   1.814   9.729  12.342
24295W        W91363  25.994  10.165   4.742
24296W        W91364  40.471   0.397  14.474
24297W        W91365  19.054  13.120   3.376
24298W        W91366  36.376  44.831  14.994
24299W        W91367  16.276   0.743   1.431
24300W        W91368  19.632  44.870   3.678
24301W        W91369  37.060  22.170  11.600
24302W        W91370   2.788  11.662  11.996
24303W        W91371   6.407   7.899  14.389
24304W        W91372   7.744  27.153  13.397
24305W        W91373  33.616  41.986   4.829
24306W        W91374   1.893  29.021  13.422
24307W        W91375  15.191  10.689   4.247
24308W        W91376  35.097   2.333   1.261
24309W        W91377  36.472  23.074  14.852
24310W        W91378   9.721  24.124   1.705
24311W        W91379  32.912   1.868   0.417
24312W        W91380  27.571  35.398   2.414
24313W        W91381  32.594  24.622   1.842
24314W        W91382  27.690  17.769   1.847
24315W        W91383  16.709  21.693   2.875
24316W        W91384  41.505  16.274   3.742
24317W        W91385   1.844  36.379   2.311
24318W        W91386   3.918   3.925  14.447
24319W        W91387  36.493  26.127  14.321
24320W        W91388   4.781  20.167   4.613
24321W        W91389  20.163  36.856   3.649
24322W        W91390   5.215  38.331   0.399
24323W        W91391   0.797  29.448   2.671
24324W        W91392  43.484  26.024  13.052
24325W        W91393   1.424  17.303   2.834
24326W        W91394  31.415  14.147   2.416
24327W        W91395  27.484  19.554   3.702
24328W        W91396   3.930  25.573   0.932
24329W        W91397  35.897  39.418   0.800
24330W        W91398  27.467  11.631  11.509
24331W        W91399   5.218   5.417   2.811
24332W        W91400   8.683  17.625  11.900
24333W        W91401  41.366  44.477  14.785
24334W        W91402   9.732  30.129   3.826
24335W        W91403  34.446  26.052   5.273
24336W        W91404  28.027   8.299   3.368
24337W        W91405  18.155  21.567  12.356
24338W        W91406  21.225  17.285   3.633
24339W        W91407  20.248  37.956  14.292
24340W        W91408  39.860  36.862  11.110
24341W        W91409   1.862  41.900   4.685
24342W        W91410  10.217  17.303  11.383
24343W        W91411  36.090   2.300  13.935
24344W        W91412   5.900  10.183  12.501
24345W        W91413  36.037   7.676  14.388
24346W        W91414  25.713  43.334   3.377
24347W        W91415   3.252  18.641   0.817
24348W        W91416  27.508  26.469   1.917
24349W        W91417  42.313  11.303  12.533
24350W        W91418  15.792  43.883   1.304
24351W        W91419  11.826  33.567   3.166
24352W        W91420  12.143  37.964   4.120
24353W        W91421  38.330   6.344  12.910
24354W        W91422  26.572  11.840  12.468
24355W        W91423  21.173  34.089   1.373
24356W        W91424  35.463  30.614   4.276
24357W        W91425  16.694  35.554  11.968
24358W        W91426  13.732  25.136   3.301
24359W        W91427  37.376   5.818   1.884
24360W        W91428  30.976   5.224  11.532
24361W        W91429  33.119  20.526  12.922
24362W        W91430  21.748   5.818   4.210
24363W        W91431  33.546   2.270   4.790
24364W        W91432  22.207  19.210   1.248
24365W        W91433  43.336  14.683  13.410
24366W        W91434  13.674   7.905   2.333
24367W        W91435  14.770  24.708   3.189
24368W        W91436   3.352  35.447  11.386
24369W        W91437  34.413  19.155   3.781
24370W        W91438  14.687   2.319   2.194
24371W        W91439  12.305  27.998   4.712
24372W        W91440  44.782  40.327  14.479
24373W        W91441  35.028  31.042  13.976
24374W        W91442  23.992   9.230  11.968
24375W        W91443  37.849   2.879   3.658
24376W        W91444  32.124   1.386   0.966
24377W        W91445  13.831  16.269   4.149
24378W        W91446  36.475  10.691   0.802
24379W        W91447  21.242   3.428  12.471
24380W        W91448  44.363  43.896   0.483
24381W        W91449  29.006  30.584   2.819
24382W        W91450  30.020  18.566  10.463
24383W        W91451  13.275  30.555  10.455
24384W        W91452  19.620   9.875  13.508
24385W        W91453  17.214  30.110  10.404
24386W        W91454  21.244  18.594   5.196
24387W        W91455  36.895  25.062  10.626
24388W        W91456  10.645   9.237   3.643
24389W        W91457   9.752   6.300  12.397
24390W        W91458  24.610  38.437  12.855
24391W        W91459   6.393   5.328   2.329
24392W        W91460  43.881   2.891   2.723
24393W        W91461  11.791  15.630   1.436
24394W        W91462   6.801  29.656   2.391
24395W        W91463  16.241  38.972  13.923
24396W        W91464  37.029  27.089  11.577
24397W        W91465  16.183  10.808  10.899
24398W        W91466  24.064  37.402   5.229
24399W        W91467  15.164  26.469  13.494
24400W        W91468  15.743   7.832   4.752
24401W        W91469  23.638  22.598   0.377
24402W        W91470  27.093  21.106  13.899
24403W        W91471  23.676  23.662   3.219
24404W        W91472  22.721   6.222   4.761
24405W        W91473  37.971  17.070   9.955
24406W        W91474  14.816  19.639  11.611
24407W        W91475  19.617  38.483   1.238
24408W        W91476   1.283  15.130   3.753
24409W        W91477  42.902  17.295  14.995
24410W        W91478   6.733   4.444  11.992
24411W        W91479   6.328  39.876   3.767
24412W        W91480  40.331  44.005   1.914
24413W        W91481  16.813   3.947   2.872
24414W        W91482  44.278   1.839   3.744
24415W        W91483  42.371  17.106  14.455
24416W        W91484   0.765   2.397  14.391
24417W        W91485  36.014  27.989   2.189
24418W        W91486  30.991  10.733   0.283
24419W        W91487   9.783  27.060   1.861
24420W        W91488  44.319  24.524   0.900
24421W        W91489  30.929  33.566  14.836
24422W        W91490   1.873  34.567  13.962
24423W        W91491  13.656   4.327   4.153
24424W        W91492  13.783   5.793  13.343
24425W        W91493  41.039  12.241   3.813
24426W        W91494  37.983  35.920  12.050
24427W        W91495  11.263   4.400   2.903
24428W        W91496  40.416  42.978   3.762
24429W        W91497  15.742  24.681  13.542
24430W        W91498  11.299   6.851  11.024
24431W        W91499   9.826  20.637  10.407
24432W        W91500   4.868  27.064  13.822
24433W        W91501   3.287  17.112   3.794
24434W        W91502  12.208  11.302  12.074
24435W        W91503   3.806   5.891  14.991
24436W        W91504  38.500  11.640   3.675
24437W        W91505  36.369  29.426  13.826
24438W        W91506  22.663  44.762  11.519
24439W        W91507  42.838  12.790   0.282
24440W        W91508  29.501   6.238   3.641
24441W        W91509   8.871   2.721   2.207
24442W        W91510  34.988  21.525  12.432
24443W        W91511  20.691  43.870  12.476
24444W        W91512  16.566  19.188  10.927
24445W        W91513   8.233   6.278   0.332
24446W        W91514  39.914   7.395   0.358
24447W        W91515  34.463  13.304   4.828
24448W        W91516  10.158  29.507  11.511
24449W        W91517  24.159  32.959  12.359
24450W        W91518  19.170   3.368  11.944
24451W        W91519  23.597  26.699   4.838
24452W        W91520  16.302   8.199   0.375
24453W        W91521   0.300   4.759  11.071
24454W        W91522  15.637  43.865   1.853
24455W        W91523  23.087  37.984   0.409
24456W        W91524   5.794   2.278  13.444
24457W        W91525  35.092   0.831   0.337
24458W        W91526  32.066  39.019  13.988
24459W        W91527  42.410  12.344  13.059
24460W        W91528  39.049   5.244  14.282
24461W        W91529  36.445  44.485  12.380
24462W        W91530  32.551  41.997  11.394
24463W        W91531  39.960  22.679  14.802
24464W        W91532  41.515  34.000   2.832
24465W        W91533  39.331  12.248  13.834
24466W        W91534  33.398  15.689  12.375
24467W        W91535   9.760  26.491  10.546
24468W        W91536   6.271  20.228   4.629
24469W        W91537  20.673  24.705   0.959
24470W        W91538  31.479  16.300   2.277
24471W        W91539  21.161  31.528   1.905
24472W        W91540  24.102  32.478  14.371
24473W        W91541  31.598  20.543  10.424
24474W        W91542  12.149  33.918   1.435
24475W        W91543  37.022  43.898  13.481
24476W        W91544  32.595  36.048  12.041
24477W        W91545  42.777  24.068  14.801
24478W        W91546  21.082  40.983  14.857
24479W        W91547  44.839  24.012  13.514
24480W        W91548  28.929   6.267  12.020
24481W        W91549   5.348   1.881  11.464
24482W        W91550  24.565  35.021   3.860
24483W        W91551   6.421   2.844  12.000
24484W        W91552  42.008  29.498  12.841
24485W        W91553  11.640  18.748  12.344
24486W        W91554  27.129  37.574  11.547
24487W        W91555  12.300   5.915   4.661
24488W        W91556  13.297   9.207   4.742
24489W        W91557  44.876  27.050   0.445
24490W        W91558   1.873  43.373   0.344
24491W        W91559  15.134  11.654   2.261
24492W        W91560   1.806  40.499  10.598
24493W        W91561  34.434   4.207  13.353
24494W        W91562  36.532  41.464   3.704
24495W        W91563  27.968   2.858  13.953
24496W        W91564  15.225  31.522   1.919
24497W        W91565  41.325  30.431  13.805
24498W        W91566  38.440   0.795   3.671
24499W        W91567  41.347  42.962  13.310
24500W        W91568  17.263  36.890   4.123
24501W        W91569  33.931  23.077   1.303
24502W        W91570  11.831  40.316  12.909
24503W        W91571  18.549  21.182   0.787
24504W        W91572  16.245   0.301   3.380
24505W        W91573  36.353  39.397  14.355
24506W        W91574  21.716  29.047  13.367
24507W        W91575  14.606  31.632  12.437
24508W        W91576  38.524  26.954   1.258
24509W        W91577   8.737   9.168   1.858
24510W        W91578   9.385  10.808   0.348
24511W        W91579  21.256  16.172   1.356
24512W        W91580  17.082   8.313  10.159
24513W        W91581  29.446  17.775  10.925
24514W        W91582   4.415  20.116  11.025
24515W        W91583  29.047  10.690   0.807
24516W        W91584  43.900  16.255  11.016
24517W        W91585  16.626  34.099  11.915
24518W        W91586  10.855   2.360  12.549
24519W        W91587  15.768   6.820   2.729
24520W        W91588   2.907  10.660  11.963
24521W        W91589  38.540  34.543   2.293
24522W        W91590  37.986   5.745  12.979
24523W        W91591  35.050   8.316   0.765
24524W        W91592  23.537  42.457   0.792
24525W        W91593  17.227  14.328   5.186
24526W        W91594   5.350  13.327  14.765
24527W        W91595   2.278  36.518   2.808
24528W        W91596  42.292  12.292  14.279
24529W        W91597  22.027   7.291   0.426
24530W        W91598   4.803   6.304  11.074
24531W        W91599  10.325  10.156  14.308
24532W        W91600  37.471  20.097   2.900
24533W        W91601  29.934  20.570  13.043
24534W        W91602  17.647  34.567   0.345
24535W        W91603  39.871  30.936  10.469
24536W        W91604   4.929  24.693  11.372
24537W        W91605  44.940   4.927   4.690
24538W        W91606  42.400  21.545  11.490
24539W        W91607   1.784  15.700  14.344
24540W        W91608   5.320  16.129  13.904
24541W        W91609  36.465   5.815   3.724
24542W        W91610  19.130  12.798  13.387
24543W        W91611  30.937  37.474   1.282
24544W        W91612  42.506  34.091  10.965
24545W        W91613  43.945  33.054   1.315
24546W        W91614   3.438  19.608   2.406
24547W        W91615  36.000  38.525   4.760
24548W        W91616  42.310  13.207  11.863
24549W        W91617  40.027   9.321  11.415
24550W        W91618  30.593  30.580  10.501
24551W        W91619  10.213  31.908   3.321
24552W        W91620  41.790   8.383   2.739
24553W        W91621   2.790  14.124   1.376
24554W        W91622  42.789   5.235  11.389
24555W        W91623  41.880  33.463  13.011
24556W        W91624  43.323  24.210  14.812
24557W        W91625  26.653  20.638   3.806
24558W        W91626  42.958   4.848  14.925
24559W        W91627  25.175   6.362   0.774
24560W        W91628  41.811  17.139   4.688
24561W        W91629  25.037  19.179   0.868
24562W        W91630  22.608  42.512  13.966
24563W        W91631  40.343  29.516  11.929
24564W        W91632  12.144  23.522   0.359
24565W        W91633  39.867   8.394  12.995
24566W        W91634  20.238  25.573   0.874
24567W        W91635   1.934  38.478  13.370
24568W        W91636  41.028  32.071   4.731
24569W        W91637  41.514  12.203   2.257
24570W        W91638  30.421   6.279   3.287
24571W        W91639  31.561  38.564  12.869
24572W        W91640  44.872  22.740   4.156
24573W        W91641  31.597  38.959   3.333
24574W        W91642  14.705  25.501   2.751
24575W        W91643  37.417  24.638  13.368
24576W        W91644   7.248  23.236   4.791
24577W        W91645  33.927  40.497   1.743
24578W        W91646   9.673  33.558   2.186
24579W        W91647  44.397  17.606   1.401
24580W        W91648  18.246  40.028  10.568
24581W        W91649   9.196  35.566   4.128
24582W        W91650  37.032  22.009   0.862
24583W        W91651  33.036  18.595  10.635
24584W        W91652   2.829  35.959  10.640
24585W        W91653  24.122  26.519  11.865
24586W        W91654  10.299   6.904  14.322
24587W        W91655  24.108  41.880  13.972
24588W        W91656  17.731  28.075   2.714
24589W        W91657  33.076  24.544   9.988
24590W        W91658  11.658  33.487   4.302
24591W        W91659  30.538  17.277   0.734
24592W        W91660  36.495   5.843  12.480
24593W        W91661  42.295  35.517  11.126
24594W        W91662   1.849  18.661  12.829
24595W        W91663  11.867  11.803  10.046
24596W        W91664  42.458  29.995   1.924
24597W        W91665   1.953  14.184   3.864
24598W        W91666  17.214  17.257  11.008
24599W        W91667  32.906  37.568  13.384
24600W        W91668  17.279  10.726  14.765
24601W        W91669  31.992   4.299   4.720
24602W        W91670  40.321  11.230   1.905
24603W        W91671  27.451   6.283   4.745
24604W        W91672  15.646  16.179   4.113
24605W        W91673  10.749  34.451   2.385
24606W        W91674  36.487   2.349   2.858
24607W        W91675  37.921  34.090   4.635
24608W        W91676   6.824  30.164  10.959
24609W        W91677  28.663  18.138   2.821
24610W        W91678  21.162  35.863   1.237
24611W        W91679  27.031  23.051  13.876
24612W        W91680  27.157  38.548  10.635
24613W        W91681  39.004   6.683  10.630
24614W        W91682   9.308  35.529  11.591
24615W        W91683  12.628   6.885   3.824
24616W        W91684  38.406   1.843  11.431
24617W        W91685  28.607  23.666   3.767
24618W        W91686  12.158  17.733  14.483
24619W        W91687  27.169  18.237  10.431
24620W        W91688  29.960   4.305  11.889
24621W        W91689  11.796  38.557   1.767
24622W        W91690  41.851  13.846  12.864
24623W        W91691  14.668  11.630  14.496
24624W        W91692  21.673  16.678   1.313
24625W        W91693  10.809  33.439   1.867
24626W        W91694   2.940  31.479   3.242
24627W        W91695  43.768   5.384  13.940
24628W        W91696   5.748  36.845  10.422
24629W        W91697   9.383  39.427  12.847
24630W        W91698   0.292  10.215   0.267
24631W        W91699  37.068  21.060   1.879
24632W        W91700  27.947  23.184   2.845
24633W        W91701  32.450  27.576  13.848
24634W        W91702   6.392  44.455   9.935
24635W        W91703  31.598  42.944   3.346
24636W        W91704  17.264  20.053   3.157
24637W        W91705   7.809  43.878  13.542
24638W        W91706  14.125  16.248   4.838
24639W        W91707  38.931   2.448   4.750
24640W        W91708   9.716   8.657  11.881
24641W        W91709  23.038   6.370  11.485
24642W        W91710  30.127   7.712   3.363
24643W        W91711  40.950  14.319  10.515
24644W        W91712  15.597  25.560   4.724
24645W        W91713  27.465  24.226  10.597
24646W        W91714   5.878  24.122  13.350
24647W        W91715   3.445  29.526  14.870
24648W        W91716  42.817  29.009  13.540
24649W        W91717  38.074  14.768   0.880
24650W        W91718  13.120  40.866   4.288
24651W        W91719  14.663  11.177  11.937
24652W        W91720  41.988  37.454  14.975
24653W        W91721  25.594   5.251  11.955
24654W        W91722  29.628  32.969  12.452
24655W        W91723  40.378  34.380  10.517
24656W        W91724  29.510   1.398   2.799
24657W        W91725   1.825  33.526   0.879
24658W        W91726   2.753  20.119   2.388
24659W        W91727  15.109  10.372  13.063
24660W        W91728  15.273  30.964  11.504
24661W        W91729  18.073  33.421   2.382
24662W        W91730   8.793  28.518  12.977
24663W        W91731  16.145   6.679  14.373
24664W        W91732  21.169  15.318   4.716
24665W        W91733  22.134  15.763   1.212
24666W        W91734  30.651  24.142   3.632
24667W        W91735  37.954  28.027  12.389
24668W        W91736  10.771  28.943  14.307
24669W        W91737   8.758  38.982   1.811
24670W        W91738  36.497   7.669  10.544
24671W        W91739   2.926  28.481  13.920
24672W        W91740  19.105   9.308  11.567
24673W        W91741  34.875   8.220  12.951
24674W        W91742  30.008   7.318   2.258
24675W        W91743  32.496   2.237  13.982
24676W        W91744  17.602  14.623  14.871
24677W        W91745  36.528  30.141   2.775
24678W        W91746   3.294  37.466   4.294
24679W        W91747  20.052   9.742  12.437
24680W        W91748  15.813  33.007  12.071
24681W        W91749  32.460  17.715   3.321
24682W        W91750  16.654  12.774   3.793
24683W        W91751  19.240  33.089  11.864
24684W        W91752  44.276   8.236  14.408
24685W        W91753   2.467  13.147   0.291
24686W        W91754   0.844  10.847  13.397
24687W        W91755  38.007  18.702   2.793
24688W        W91756  31.068  23.499  11.589
24689W        W91757  17.770  29.633   0.409
24690W        W91758  22.711  11.283  14.364
24691W        W91759  24.685  43.771   1.864
24692W        W91760  20.600   4.943  13.895
24693W        W91761   6.242  29.476  14.828
24694W        W91762  40.946  14.692   1.303
24695W        W91763   5.312   5.401  14.940
24696W        W91764  36.500   1.782   3.230
24697W        W91765  42.881   4.405   1.299
24698W        W91766  27.063  20.614   1.812
24699W        W91767  19.547  39.848  11.926
24700W        W91768  38.052   2.465   2.310
24701W        W91769   1.847   9.712   4.347
24702W        W91770  14.304  32.138   0.809
24703W        W91771  37.029  44.757  13.476
24704W        W91772  20.243  40.515  12.087
24705W        W91773   2.398  34.570  14.793
24706W        W91774  19.258  18.266   2.852
24707W        W91775  11.302  33.625  10.911
24708W        W91776  44.003  23.615   0.838
24709W        W91777  18.778  37.851  12.830
24710W        W91778  24.111  27.029   4.683
24711W        W91779  29.993  10.243  13.047
24712W        W91780  40.321  10.228  11.564
24713W        W91781  35.467  38.000  11.939
24714W        W91782  42.897   6.906  11.908
24715W        W91783  30.039   5.891   0.263
24716W        W91784  40.958   5.722   0.287
24717W        W91785  37.465   6.814   3.645
24718W        W91786  43.921  36.362  13.988
24719W        W91787  36.853  17.223   4.789
24720W        W91788  12.232  33.583  11.052
24721W        W91789  25.109  17.170   3.303
24722W        W91790   4.368  36.399  12.968
24723W        W91791   7.197   3.839  11.990
24724W        W91792  23.133  40.819   1.448
24725W        W91793  31.130  39.556   3.689
24726W        W91794  12.315  37.898  12.922
24727W        W91795   9.680  24.143   0.427
24728W        W91796  21.115  35.488  14.437
24729W        W91797  24.581  36.941   2.807
24730W        W91798  39.408   7.404  10.513
24731W        W91799  29.519  31.103  13.828
24732W        W91800  31.992   5.785  14.278
24733W        W91801  42.391  16.647  10.439
24734W        W91802  27.043  13.604   4.147
24735W        W91803  34.423  13.261  14.940
24736W        W91804   0.818  25.135  12.474
24737W        W91805  16.619  36.076   1.698
24738W        W91806  12.734  44.465   4.347
24739W        W91807  21.583  30.472   3.351
24740W        W91808  22.740  38.953  14.437
24741W        W91809  23.991  42.324  14.915
24742W        W91810  20.560  12.664   4.284
24743W        W91811  14.222   1.397   0.281
24744W        W91812  21.126  14.334   0.730
24745W        W91813  12.175  30.613  13.350
24746W        W91814  40.031  11.246  12.438
24747W        W91815  10.736  18.633   3.288
24748W        W91816  31.439  31.606  13.923
24749W        W91817  37.004  31.020  11.038
24750W        W91818  40.961  38.867  11.568
24751W        W91819  14.722  36.856   2.678
24752W        W91820  14.743  25.675  13.343
24753W        W91821  25.974  30.038   1.797
24754W        W91822   6.202  31.037  10.571
24755W        W91823  39.846  25.589  10.954
24756W        W91824  42.507  36.579   1.437
24757W        W91825   8.778  36.983   3.858
24758W        W91826   5.688  37.910  14.887
24759W        W91827  35.597  35.050   4.222
24760W        W91828  43.323  40.956  13.387
24761W        W91829  26.556   1.251   2.830
24762W        W91830   8.310  42.855   4.829
24763W        W91831  15.239  37.061   4.638
24764W        W91832  39.876  38.334  13.032
24765W        W91833  41.418  21.660  12.459
24766W        W91834  29.547  11.865  10.604
24767W        W91835  18.657  37.831   0.429
24768W        W91836  44.346  25.605  12.860
24769W        W91837  35.934   1.761  10.479
24770W        W91838   5.874  13.746   4.345
24771W        W91839   5.369  35.502   3.319
24772W        W91840  31.119  29.667   3.848
24773W        W91841  36.471  11.829   2.742
24774W        W91842  27.577  28.109   0.449
24775W        W91843  42.387  36.991  13.952
24776W        W91844  21.104  41.460  11.876
24777W        W91845  31.974  29.129   0.319
24778W        W91846  20.533  30.464   3.834
24779W        W91847   3.334   4.436  12.506
24780W        W91848   0.980  23.052   1.888
24781W        W91849  35.088  34.556  12.890
24782W        W91850  11.647   2.361   2.832
24783W        W91851  30.608  35.534  12.373
24784W        W91852   8.174   8.780   5.121
24785W        W91853  40.522   5.926   2.232
24786W        W91854  15.682   9.857  14.885
24787W        W91855  35.903  32.097   5.322
24788W        W91856  17.662  38.885   0.845
24789W        W91857  36.855  40.945  14.513
24790W        W91858  10.207  27.504   0.730
24791W        W91859  41.810   1.361  14.987
24792W        W91860  32.121   5.355   1.791
24793W        W91861  13.317  40.453  11.051
24794W        W91862  34.919  41.530   0.925
24795W        W91863  34.867  27.689  11.099
24796W        W91864  12.741  38.340  11.864
24797W        W91865  33.524   0.251   9.932
24798W        W91866  21.743  29.071  12.904
24799W        W91867  43.854   1.447   0.813
24800W        W91868  34.908  30.163  12.453
24801W        W91869  20.097  17.183   4.223
24802W        W91870  34.524  39.837  14.824
24803W        W91871  17.212  29.115  13.946
24804W        W91872  44.915  13.602  11.980
24805W        W91873   2.400  42.481  13.023
24806W        W91874   2.730  31.600  12.921
24807W        W91875   9.232  13.637   1.716
24808W        W91876  15.213  16.686  13.971
24809W        W91877  40.012  12.356  12.870
24810W        W91878  25.532  13.140   2.373
24811W        W91879  40.304  13.679  11.423
24812W        W91880  11.851  33.451  13.874
24813W        W91881   3.850  41.916   1.772
24814W        W91882  36.445  14.633   0.285
24815W        W91883   3.871  42.788   1.886
24816W        W91884  10.674  30.503  11.126
24817W        W91885  40.392   9.842  11.113
24818W        W91886  41.501  16.684  13.878
24819W        W91887  16.647  18.732  11.066
24820W        W91888   3.740  18.091  10.982
24821W        W91889  23.587   2.824  12.425
24822W        W91890   8.290  41.386   3.300
24823W        W91891  24.680  31.025   3.161
24824W        W91892  17.173   3.776   0.772
24825W        W91893  29.641  36.477   1.389
24826W        W91894  35.378  30.163   2.759
24827W        W91895  13.164   7.865   2.846
24828W        W91896  22.227  40.018   2.879
24829W        W91897   9.723  25.143  12.879
24830W        W91898  27.987  20.254  12.436
24831W        W91899  16.734  40.545  11.510
24832W        W91900  38.018  20.653  14.473
24833W        W91901   1.835  20.182  11.118
24834W        W91902   3.917   2.942  11.985
24835W        W91903  18.558  18.272   1.712
24836W        W91904  13.118  37.575   1.357
24837W        W91905  24.039  31.121  12.970
24838W        W91906   8.364  26.621   3.718
24839W        W91907  28.627  32.529   1.890
24840W        W91908  21.224   1.448   3.232
24841W        W91909   6.875  13.260  12.990
24842W        W91910  28.060  12.833   3.634
24843W        W91911  26.477  15.230  14.351
24844W        W91912  23.164   9.322   4.780
24845W        W91913   1.737  38.994   1.266
24846W        W91914  35.559  33.004   2.214
24847W        W91915  27.587   9.751   4.290
24848W        W91916  23.195  20.140  12.984
24849W        W91917   8.331  15.096  10.959
24850W        W91918  42.795  38.056  13.540
24851W        W91919   9.857   4.328   2.748
24852W        W91920  32.518  15.669   2.398
24853W        W91921  42.851  29.458   5.226
24854W        W91922  27.614  24.984   3.372
24855W        W91923  35.576  24.682  14.334
24856W        W91924   5.410  42.326  13.382
24857W        W91925  34.043  35.589  12.935
24858W        W91926  42.013  17.699   4.255
24859W        W91927  26.610   1.916  13.474
24860W        W91928  30.454  22.540  13.934
24861W        W91929  40.400  24.987   0.280
24862W        W91930  13.614   6.849  11.885
24863W        W91931  10.662  21.525   4.251
24864W        W91932   5.388  11.300  13.945
24865W        W91933  15.749  44.422  11.519
24866W        W91934  35.993  22.531   0.769
24867W        W91935  10.859  14.277   3.361
24868W        W91936   1.939  29.924  11.529
24869W        W91937  13.725   7.830  14.761
24870W        W91938  40.447   4.220   0.926
24871W        W91939  44.262  16.689   0.475
24872W        W91940  20.039   5.338   3.870
24873W        W91941  28.553  40.999   4.146
24874W        W91942   7.888  36.929   3.359
24875W        W91943  31.442  24.060  11.123
24876W        W91944  25.992   0.978   2.251
24877W        W91945   1.776   6.891  12.070
24878W        W91946   2.329  22.605   0.835
24879W        W91947  28.458  44.976  14.833
24880W        W91948   5.807  10.677   4.130
24881W        W91949   5.271  22.688  10.577
24882W        W91950  10.208   3.457  10.603
24883W        W91951  38.011  16.149  10.428
24884W        W91952  24.545  16.716   3.254
24885W        W91953  11.751  44.759  13.328
24886W        W91954  36.370  37.858   1.926
24887W        W91955  15.772  12.856  14.386
24888W        W91956   5.194  41.426  12.459
24889W        W91957  28.142   6.366  11.929
24890W        W91958  38.545   9.737  12.385
24891W        W91959  28.445  34.422  12.070
24892W        W91960  10.365  12.676   3.645
24893W        W91961  25.658  22.729  13.520
24894W        W91962  19.658   7.314   0.954
24895W        W91963   4.277   2.851  12.939
24896W        W91964   7.388  17.134   3.333
24897W        W91965   6.749  20.183   9.529
24898W        W91966   9.810  10.848  14.493
24899W        W91967  41.353  29.527   4.815
24900W        W91968   5.926   9.719  13.906
24901W        W91969   4.321  42.910  14.844
24902W        W91970  27.073  28.472   0.306
24903W        W91971  24.535  43.472  13.439
24904W        W91972  13.709  25.085   2.751
24905W        W91973  39.948  42.989   2.763
24906W        W91974  14.267   2.819   3.197
24907W        W91975  34.927   3.859   4.137
24908W        W91976  13.172  29.587  11.970
24909W        W91977   4.264   7.790   1.758
24910W        W91978  37.374  23.165  11.384
24911W        W91979  11.775  32.937  14.009
24912W        W91980   0.945  30.573   0.749
24913W        W91981  33.381  10.213  14.475
24914W        W91982  44.904  26.679  12.868
24915W        W91983   4.294  17.623  10.041
24916W        W91984  17.229  42.424   3.167
24917W        W91985  34.508  30.952   2.319
24918W        W91986  42.850  39.442   0.361
24919W        W91987  35.065   1.441   2.286
24920W        W91988  24.581  20.200   4.199
24921W        W91989  10.646  20.531   2.315
24922W        W91990  19.256  12.725  12.922
24923W        W91991  34.950  42.979  10.430
24924W        W91992  36.946  43.810   3.685
24925W        W91993  32.927  37.381   3.702
24926W        W91994   6.386  23.216   0.372
24927W        W91995  32.131  37.836   2.356
24928W        W91996  27.026  28.444  11.987
24929W        W91997  38.341  10.384  14.375
24930W        W91998  11.657  44.756   4.219
24931W        W91999  10.729   4.856   4.648
24932W        W92000  44.419  25.134   2.858
24933W        W92001  25.703  44.913  13.051
24934W        W92002  32.572  14.615   3.191
24935W        W92003  39.535  31.535   3.196
24936W        W92004  22.673   8.689   2.263
24937W        W92005  15.241  26.111   1.240
24938W        W92006   8.264  25.615  10.461
24939W        W92007  21.247  40.888  12.471
24940W        W92008  14.767  20.242   0.256
24941W        W92009  18.781  10.192  12.878
24942W        W92010   8.847  23.544   3.638
24943W        W92011  14.315  18.067  13.895
24944W        W92012  38.555  25.501  10.952
24945W        W92013  14.704  42.408   3.670
24946W        W92014   3.348   2.766   2.399
24947W        W92015  44.846   9.873  11.971
24948W        W92016   8.836  18.102   1.770
24949W        W92017  38.992  11.173   0.286
24950W        W92018   4.771  27.966  12.829
24951W        W92019  31.426  20.261   3.322
24952W        W92020  30.566   0.752   1.719
24953W        W92021  34.473   3.739   2.379
24954W        W92022  12.178  10.725   1.423
24955W        W92023  44.414   2.366  13.349
24956W        W92024  43.990  27.141   3.770
24957W        W92025  11.627  10.230   1.741
24958W        W92026  41.447   7.370  12.997
24959W        W92027  12.802   5.402   2.225
24960W        W92028  40.515   1.393   4.787
24961W        W92029  26.614  21.155   3.166
24962W        W92030  13.191   1.414   5.085
24963W        W92031   1.922  11.351   1.299
24964W        W92032  23.240  42.486  10.409
24965W        W92033   4.252  17.579  13.791
24966W        W92034  41.477  13.290  13.985
24967W        W92035   1.281  39.913  11.579
24968W        W92036  44.438  29.549  11.051
24969W        W92037  42.414  34.936   4.700
24970W        W92038  40.984  10.376  12.413
24971W        W92039  24.030  20.247  10.909
24972W        W92040   8.388   1.347  11.067
24973W        W92041  11.217  38.396   4.598
24974W        W92042  29.470  13.150  10.437
24975W        W92043  42.967  42.969  14.857
24976W        W92044  12.635  11.833  11.389
24977W        W92045  17.207  26.063  13.002
24978W        W92046  30.520   1.961  10.953
24979W        W92047   3.882  22.025  12.986
24980W        W92048  17.751  14.646  13.497
24981W        W92049   2.797  44.911  10.478
24982W        W92050  33.909  40.395  14.432
24983W        W92051  15.700   7.846   3.778
24984W        W92052   5.350  35.396  12.968
24985W        W92053   0.884  17.778  12.407
24986W        W92054   2.436   9.328   4.808
24987W        W92055  24.164   3.226  10.082
24988W        W92056  25.111  34.947   3.310
24989W        W92057  31.415  36.370   3.664
24990W        W92058  20.634  14.740   0.759
24991W        W92059  44.408  42.420   4.262
24992W        W92060   1.417   2.799  10.407
24993W        W92061   8.758   3.321  13.545
24994W        W92062   4.867  38.993   0.300
24995W        W92063  27.451  24.111   1.365
24996W        W92064  27.652  28.543  11.973
24997W        W92065  30.042   1.928   2.891
24998W        W92066  43.951   7.756  12.350
24999W        W92067  43.499   4.809  10.959
25000W        W92068  18.145   2.905  12.529
25001W        W92069  29.115  44.808   3.716
25002W        W92070  41.965   5.905  13.496
25003W        W92071  20.040  14.645  12.075
25004W        W92072  32.402  27.159  12.436
25005W        W92073  44.384  19.129   2.791
25006W        W92074  16.295  39.989   1.238
25007W        W92075  11.753  19.251   2.355
25008W        W92076  14.748  22.505   2.274
25009W        W92077  44.858  16.121   2.819
25010W        W92078  34.460  41.410   2.340
25011W        W92079   6.738  22.149  11.535
25012W        W92080  41.859  43.310   2.378
25013W        W92081  40.309  39.524   1.401
25014W        W92082  32.628   9.718  14.413
25015W        W92083  38.904  16.220   1.745
25016W        W92084  17.790  20.141  11.100
25017W        W92085  27.571  42.972  10.586
25018W        W92086  44.855   6.311  10.111
25019W        W92087   3.843   9.302   3.752
25020W        W92088  11.762  33.614  10.136
25021W        W92089  27.609   0.828  11.938
25022W        W92090  37.391  39.014  10.983
25023W        W92091  11.225   2.372   2.708
25024W        W92092  21.720  17.147  12.063
25025W        W92093   3.403  36.017   4.660
25026W        W92094   4.900  12.641   0.376
25027W        W92095  44.765  17.571  12.352
25028W        W92096  23.544   3.459   3.653
25029W        W92097  26.533  18.611  10.594
25030W        W92098   1.366  14.159  12.545
25031W        W92099   5.832  34.551   0.457
25032W        W92100  24.192   1.326   1.712
25033W        W92101   3.339  43.305   2.874
25034W        W92102  36.051  39.405  11.084
25035W        W92103  15.197   9.152  13.411
25036W        W92104  15.137  42.974   2.277
25037W        W92105  26.197  18.219  14.839
25038W        W92106  40.933   3.269   0.812
25039W        W92107  11.826  38.828  14.515
25040W        W92108  29.669  13.153   1.349
25041W        W92109  11.229  27.620  12.392
25042W        W92110  32.051  16.685   2.360
25043W        W92111  39.421   8.851   1.214
25044W        W92112  15.133  32.621  14.884
25045W        W92113   3.932   5.875  13.927
25046W        W92114  35.013   3.290  11.551
25047W        W92115   8.307  31.476   4.665
25048W        W92116  40.508   4.447   2.674
25049W        W92117  11.624  40.530  13.994
25050W        W92118  30.502  40.875  10.915
25051W        W92119  19.598   4.934  13.480
25052W        W92120  44.983  26.486   3.695
25053W        W92121  15.702  17.628  12.525
25054W        W92122   5.781   8.401  10.893
25055W        W92123  38.495  12.790  11.046
25056W        W92124   4.253  25.615  12.544
25057W        W92125  11.812  37.366   4.691
25058W        W92126  13.736   7.911   1.830
25059W        W92127   0.355   0.256   0.730
25060W        W92128   6.425  35.949  13.002
25061W        W92129  15.304  14.103   2.385
25062W        W92130  24.628  32.037   0.899
25063W        W92131  43.456   0.812  11.547
25064W        W92132  36.045  39.434  12.870
25065W        W92133   7.275   6.418  13.822
25066W        W92134  37.020  28.523   0.351
25067W        W92135  10.377  25.102  10.126
25068W        W92136  13.279  21.218   0.772
25069W        W92137  15.319   7.408  12.482
25070W        W92138  15.786   9.395   2.759
25071W        W92139  26.634  40.869  10.513
25072W        W92140  14.171   2.399   1.285
25073W        W92141  38.335  15.812   3.645
25074W        W92142  10.345  25.976   4.602
25075W        W92143  33.921  43.351  11.960
25076W        W92144  36.086  44.267  10.570
25077W        W92145  44.987  38.007  10.531
25078W        W92146  42.363  31.977   3.245
25079W        W92147  29.936  17.562   2.780
25080W        W92148  16.659  22.189   2.351
25081W        W92149  27.575  37.074   4.265
25082W        W92150  35.958  31.429  12.843
25083W        W92151  19.156   1.927   3.312
25084W        W92152  15.785  13.161  13.912
25085W        W92153  41.355   0.847  11.438
25086W        W92154   0.885  17.752  11.078
25087W        W92155   3.717  19.779   0.343
25088W        W92156   1.384  37.900   1.847
25089W        W92157  16.119  30.085   3.690
25090W        W92158  41.384  21.656   3.699
25091W        W92159  35.483  40.010  10.897
25092W        W92160  38.832  44.842   1.388
25093W        W92161  40.373  35.583  14.956
25094W        W92162  17.680  31.153   3.822
25095W        W92163  22.125   1.318   1.904
25096W        W92164  13.321   7.218   0.860
25097W        W92165  16.772  44.495  11.518
25098W        W92166  29.073  27.170   3.263
25099W        W92167  12.834  25.158  14.862
25100W        W92168  36.497  19.280   1.252
25101W        W92169   2.765  16.126  14.791
25102W        W92170  36.493  14.238   5.293
25103W        W92171  30.083  33.470   1.404
25104W        W92172  40.356  32.101  14.403
25105W        W92173  36.914  26.496  13.427
25106W        W92174   0.846  27.640   0.824
25107W        W92175  37.954  33.581   1.833
25108W        W92176  34.599  38.430  14.346
25109W        W92177   1.328   6.676  11.608
25110W        W92178   8.211  39.923   1.355
25111W        W92179  14.700  30.529   3.770
25112W        W92180  10.276  44.290   0.761
25113W        W92181   4.943  10.384  10.439
25114W        W92182   6.688   8.887   0.840
25115W        W92183  31.133  39.336   4.292
25116W        W92184  16.204  42.862  13.352
25117W        W92185  34.507  14.640  14.797
25118W        W92186  40.849   7.271  13.530
25119W        W92187  32.075   3.767  13.054
25120W        W92188   9.717  17.090   3.166
25121W        W92189  18.608  16.197   0.735
25122W        W92190   7.847  16.090  11.066
25123W        W92191  35.389  26.179  12.370
25124W        W92192  42.323  43.502   2.273
25125W        W92193  31.923  21.696   2.776
25126W        W92194  15.120  28.006   3.769
25127W        W92195  27.450   3.816  13.885
25128W        W92196  23.198   6.714   3.184
25129W        W92197  33.939  18.562   1.751
25130W        W92198  39.471   4.774  14.762
25131W        W92199  21.590   3.381   0.349
25132W        W92200   8.812  32.100   3.277
25133W        W92201  18.271  15.761   0.739
25134W        W92202  42.517  33.427   3.839
25135W        W92203  39.824  43.929  12.981
25136W        W92204  15.608   4.282  14.920
25137W        W92205  24.707  38.483   0.375
25138W        W92206   2.398   4.448   0.963
25139W        W92207   5.380  38.425   2.239
25140W        W92208  33.979  39.826  14.379
25141W        W92209   5.730   5.696   2.338
25142W        W92210  44.782  33.571   3.685
25143W        W92211   9.169   2.853   4.317
25144W        W92212  37.338  40.319   4.304
25145W        W92213  21.215  40.422   5.194
25146W        W92214  23.161  34.945   3.850
25147W        W92215  13.601  39.350   2.204
25148W        W92216  24.099  35.512  11.473
25149W        W92217  16.638   2.872   1.326
25150W        W92218  21.181   1.844  10.481
25151W        W92219   3.257  41.491  14.382
25152W        W92220  22.556   4.878   4.175
25153W        W92221  14.340   9.369  11.501
25154W        W92222  36.533  29.162   2.331
25155W        W92223  27.562  36.509   4.639
25156W        W92224  41.376  37.860   2.758
25157W        W92225  24.099  42.949   0.446
25158W        W92226  15.095  22.574   2.189
25159W        W92227  31.517  21.188   1.818
25160W        W92228  15.645  13.615  14.936
25161W        W92229  22.027  23.529  12.060
25162W        W92230  33.010  21.065   2.694
25163W        W92231   3.353  41.519   0.913
25164W        W92232  20.124  41.396  10.577
25165W        W92233  37.526  35.080   2.855
25166W        W92234  23.498  18.247   3.664
25167W        W92235  41.998  36.362   0.285
25168W        W92236  27.073  38.437  14.373
25169W        W92237  16.691   2.263  14.891
25170W        W92238  42.520  31.480  10.442
25171W        W92239  36.527  32.131   1.215
25172W        W92240  41.375   2.746   3.302
25173W        W92241   2.775  15.220   3.196
25174W        W92242   5.744  44.843  14.495
25175W        W92243  36.503  23.176   1.421
25176W        W92244  41.314  37.359   3.292
25177W        W92245   9.679   4.354   3.182
25178W        W92246  36.020   9.797  13.349
25179W        W92247  33.054   7.377   4.599
25180W        W92248  32.886  22.732   1.800
25181W        W92249  42.494   9.782   4.699
25182W        W92250  17.067  33.941  12.828
25183W        W92251  34.929   4.748  12.837
25184W        W92252  10.746  13.305  13.961
25185W        W92253  43.940  32.893  13.454
25186W        W92254   4.241   6.213  10.894
25187W        W92255  33.891  34.994   4.775
25188W        W92256  37.992  15.779   1.924
25189W        W92257   8.299  15.735  10.893
25190W        W92258   8.308  14.723  13.378
25191W        W92259  14.650   9.335   4.149
25192W        W92260  30.612  42.890  13.334
25193W        W92261  18.140  20.175   2.408
25194W        W92262  10.679  10.782  12.434
25195W        W92263  15.181  44.837  13.956
25196W        W92264   6.367  16.192   4.301
25197W        W92265  28.078  35.508  14.987
25198W        W92266  14.657  34.390  14.783
25199W        W92267  27.188  42.849  10.558
25200W        W92268  20.524  30.611   3.271
25201W        W92269  33.463  28.143  10.933
25202W        W92270  13.814  25.640  14.439
25203W        W92271   8.362  33.601   2.887
25204W        W92272  42.027   5.882  14.337
25205W        W92273   6.223   0.258   2.277
25206W        W92274  15.303   3.360   3.193
25207W        W92275  14.722   3.226   3.771
25208W        W92276  25.152  37.938   1.212
25209W        W92277   5.836  37.580  13.838
25210W        W92278   9.731  29.138   1.797
25211W        W92279  20.227  41.834   4.227
25212W        W92280  10.233  38.036   0.923
25213W        W92281   3.909   2.266   0.890
25214W        W92282  37.007   2.328   3.238
25215W        W92283  37.000  42.897  11.475
25216W        W92284  41.981  27.561  14.309
25217W        W92285   8.886  17.071  13.793
25218W        W92286  18.117   1.830   4.142
25219W        W92287   3.388  21.069  11.119
25220W        W92288  19.195  28.153  11.023
25221W        W92289   8.757  29.548   5.220
25222W        W92290  12.756   5.398  11.430
25223W        W92291  29.962  17.700  13.966
25224W        W92292  31.059  42.820   3.855
25225W        W92293   3.449  19.732   0.824
25226W        W92294  17.741  22.656  12.542
25227W        W92295  16.124  17.121  10.052
25228W        W92296  14.765  28.627  11.575
25229W        W92297  22.647   1.792   3.795
25230W        W92298  19.563   2.761   4.718
25231W        W92299   5.286  37.849  14.387
25232W        W92300  44.433  23.009  10.953
25233W        W92301  15.700  44.974  14.798
25234W        W92302  31.108  40.984  14.845
25235W        W92303  14.742  44.345  10.445
25236W        W92304  43.930  11.134   3.776
25237W        W92305  44.917  44.999   3.155
25238W        W92306   3.840  10.249   2.267
25239W        W92307  23.619  20.755   4.747
25240W        W92308   5.231  22.107  13.409
25241W        W92309  22.068  38.895   2.683
25242W        W92310  21.025  24.653   0.412
25243W        W92311  40.340  39.026   4.597
25244W        W92312  26.147  19.193  12.400
25245W        W92313  20.650  35.404   4.621
25246W        W92314   1.406  18.134  14.347
25247W        W92315  29.656  10.375  11.991
25248W        W92316   2.411  30.629  11.041
25249W        W92317   3.422  43.423   3.648
25250W        W92318   1.863   2.748   2.744
25251W        W92319  39.347  35.568   0.756
25252W        W92320   3.788   0.909  13.398
25253W        W92321   8.862  40.868  11.976
25254W        W92322  29.166  31.551   1.211
25255W        W92323  24.024  14.803  14.370
25256W        W92324  11.319  34.957  10.964
25257W        W92325  23.595  29.016  12.451
25258W        W92326   7.845  40.916  11.906
25259W        W92327  39.008  39.471   1.882
25260W        W92328   3.882  34.582   2.798
25261W        W92329  43.993  30.657  11.412
25262W        W92330  19.157  34.419  11.964
25263W        W92331   8.901  13.680   2.687
25264W        W92332  19.283   4.805  12.850
25265W        W92333  37.011   5.691  12.839
25266W        W92334  12.691   9.700   0.851
25267W        W92335  23.045  28.552   1.350
25268W        W92336  18.217  31.571  14.774
25269W        W92337  26.528  15.581  14.802
25270W        W92338  12.357   3.933   4.184
25271W        W92339  32.051   3.389  10.480
25272W        W92340  10.710  41.988  12.349
25273W        W92341  21.593   0.920  10.522
25274W        W92342   3.268   4.893  10.636
25275W        W92343  24.016   8.838   4.785
25276W        W92344   7.757   0.389   3.312
25277W        W92345  41.040  28.470  13.819
25278W        W92346  34.503  37.933   3.245
25279W        W92347  20.198  22.503  14.781
25280W        W92348  32.049  18.649   1.875
25281W        W92349  41.390  38.027  10.986
25282W        W92350   6.392  20.642  13.027
25283W        W92351  30.562  44.456   2.217
25284W        W92352  25.173  39.025   5.105
25285W        W92353  24.199  38.513   1.737
25286W        W92354  22.149  19.178  12.864
25287W        W92355   1.950  40.950   0.795
25288W        W92356   5.779   4.700  13.442
25289W        W92357  38.034  37.993  10.518
25290W        W92358   0.927  35.475  10.963
25291W        W92359  20.215  11.624  11.020
25292W        W92360  33.981  11.803  10.422
25293W        W92361   9.165  42.775   0.377
25294W        W92362  28.118  42.328  12.825
25295W        W92363   6.361   8.331   2.867
25296W        W92364  41.404  32.966   4.227
25297W        W92365  27.179  35.906  14.435
25298W        W92366  35.016  15.752   4.239
25299W        W92367  43.893  44.994   1.859
25300W        W92368   9.709  10.280  12.960
25301W        W92369  30.464  13.691  14.510
25302W        W92370  13.696  41.404   1.928
25303W        W92371  16.157  12.336   2.190
25304W        W92372  40.420  11.725   2.853
25305W        W92373   2.786  21.085  14.338
25306W        W92374   2.778  38.032  10.927
25307W        W92375  38.999  34.118   2.292
25308W        W92376   2.265  17.255  12.844
25309W        W92377  28.069  37.397   3.705
25310W        W92378  18.687  15.232   3.220
25311W        W92379  18.132  12.293  14.983
25312W        W92380  30.056  42.028   4.286
25313W        W92381  43.913  34.866  11.489
25314W        W92382  36.036   6.841  14.001
25315W        W92383  22.018   1.834  13.341
25316W        W92384  43.968  13.227  10.629
25317W        W92385  42.817  40.849  12.442
25318W        W92386   8.356  27.190   1.908
25319W        W92387  25.987  35.937   2.321
25320W        W92388  30.014  22.657  12.942
25321W        W92389   6.858  21.633   9.585
25322W        W92390  39.377  23.151   1.841
25323W        W92391  42.949  24.018  10.551
25324W        W92392  37.865  10.138  14.394
25325W        W92393  12.837  21.129  10.528
25326W        W92394  25.049  20.655  11.524
25327W        W92395   1.402  42.945  13.808
25328W        W92396  12.688  42.854   0.761
25329W        W92397  22.230   0.378  13.986
25330W        W92398  18.204  16.119   3.790
25331W        W92399  39.875  17.189   3.746
25332W        W92400  18.220   2.823   2.394
25333W        W92401  27.944  19.057   1.338
25334W        W92402  39.959  40.819   1.778
25335W        W92403  20.643  23.076   4.184
25336W        W92404  16.171  44.406  13.500
25337W        W92405  29.581  40.980   0.321
25338W        W92406  43.905  23.654   4.751
25339W        W92407  39.481  34.424  12.453
25340W        W92408  38.861   1.921  14.428
25341W        W92409  17.122  32.545  12.087
25342W        W92410  16.084  42.360   0.388
25343W        W92411  32.087  15.278  11.974
25344W        W92412  31.073  29.133   1.886
25345W        W92413  40.314   2.308   4.732
25346W        W92414  26.014  27.006  10.934
25347W        W92415  26.567  15.278   0.474
25348W        W92416  20.220  24.602  11.118
25349W        W92417  25.534  37.414  10.641
25350W        W92418  22.688  18.567   1.916
25351W        W92419   6.903   4.821   3.181
25352W        W92420  15.692  36.947  12.041
25353W        W92421  17.691  27.645  11.008
25354W        W92422  16.805   8.173   0.957
25355W        W92423  17.108  44.318  14.440
25356W        W92424  12.157  30.460   1.813
25357W        W92425  20.561  17.732  12.543
25358W        W92426  15.312   1.921  11.523
25359W        W92427   5.697  15.257  12.886
25360W        W92428  37.364  22.070  13.985
25361W        W92429   0.979  41.330  13.348
25362W        W92430  35.927  28.949  10.970
25363W        W92431  41.522  27.034  10.892
25364W        W92432  18.552  18.714   4.346
25365W        W92433  37.569  29.935  13.466
25366W        W92434  20.115  12.717   2.672
25367W        W92435   9.365  20.697  10.964
25368W        W92436  26.560  34.611  12.952
25369W        W92437  27.557  29.659  10.587
25370W        W92438  36.925   7.294   0.933
25371W        W92439  18.653  17.650  12.491
25372W        W92440  29.664   8.275   2.254
25373W        W92441   1.974  16.301  14.935
25374W        W92442  15.747  25.185   1.829
25375W        W92443  26.014  11.185   4.674
25376W        W92444  44.986  22.176   1.877
25377W        W92445  43.955  16.621  13.875
25378W        W92446  41.859  28.172  13.511
25379W        W92447  42.458  40.548   2.708
25380W        W92448  21.640  27.571  13.430
25381W        W92449  37.883   3.918   4.799
25382W        W92450  30.615  44.333  13.469
25383W        W92451   7.393  36.082   4.171
25384W        W92452   3.915   0.418  14.286
25385W        W92453  39.532  15.289  12.553
25386W        W92454  25.127   8.374  12.478
25387W        W92455  25.599   4.896   1.915
25388W        W92456   5.791  30.063   1.289
25389W        W92457  25.486  24.631  11.858
25390W        W92458  32.505  22.171  10.501
25391W        W92459  33.962  32.029  12.890
25392W        W92460  36.033  14.603   0.246
25393W        W92461  39.061  34.428   4.164
25394W        W92462  10.665  35.019   4.137
25395W        W92463  26.959   1.271   1.321
25396W        W92464  14.730  27.035   0.449
25397W        W92465  33.566  23.023   3.709
25398W        W92466   5.247   3.787   2.825
25399W        W92467   2.835  27.659   1.710
25400W        W92468  35.499  20.063   4.213
25401W        W92469  36.546  31.639  11.870
25402W        W92470  15.215  25.596  12.891
25403W        W92471   6.864  15.640  14.806
25404W        W92472  20.553  37.526  13.882
25405W        W92473  43.437   0.367  14.388
25406W        W92474  21.610  13.743  10.483
25407W        W92475  17.756   4.842  13.823
25408W        W92476  33.980  42.949  13.817
25409W        W92477  11.669  22.028   2.261
25410W        W92478  18.617  17.580  13.318
25411W        W92479  41.537  11.715   4.663
25412W        W92480   8.247  21.748   1.841
25413W        W92481   7.287  40.801  12.493
25414W        W92482   9.298  41.847   3.338
25415W        W92483   5.359  28.980  12.445
25416W        W92484  39.437   0.279   3.229
25417W        W92485   6.747   2.378  12.407
25418W        W92486  37.565  14.772   4.257
25419W        W92487   0.305   8.194   3.194
25420W        W92488  21.130  22.698   4.620
25421W        W92489  12.634  29.067  12.023
25422W        W92490  19.673  16.731   1.402
25423W        W92491  32.419  36.394   2.257
25424W        W92492  21.053  15.247   0.766
25425W        W92493  15.211  30.583   1.372
25426W        W92494   8.870   7.712  13.899
25427W        W92495  19.656  37.533   0.820
25428W        W92496   0.276  26.463  13.968
25429W        W92497  31.641  40.797  11.984
25430W        W92498  35.925  14.339  13.822
25431W        W92499  44.284   0.485  13.531
25432W        W92500  10.331  22.082   4.742
25433W        W92501  42.785  12.770   3.317
25434W        W92502  12.134  34.943  12.982
25435W        W92503  33.573  14.283  14.816
25436W        W92504   9.176  32.039   2.347
25437W        W92505  29.530   8.321   3.269
25438W        W92506  39.998  39.002   1.704
25439W        W92507  19.217  21.646   3.225
25440W        W92508  26.170  43.381  11.082
25441W        W92509  26.578  36.457   4.783
25442W        W92510  30.565  32.971  11.871
25443W        W92511   0.288  15.175  14.001
25444W        W92512  31.149   1.783   5.121
25445W        W92513  32.009  11.269   1.883
25446W        W92514   1.262  22.126   4.337
25447W        W92515  22.625  42.332   3.662
25448W        W92516   9.743  28.460   3.265
25449W        W92517  41.397  39.049   3.358
25450W        W92518   9.795  24.485   3.778
25451W        W92519   2.809  23.160  11.561
25452W        W92520  25.640   3.733   0.933
25453W        W92521  20.153  19.537   1.846
25454W        W92522  25.152  41.347   2.759
25455W        W92523  26.129   4.357   3.170
25456W        W92524  23.070  31.916   0.432
25457W        W92525  15.208  41.015   4.257
25458W        W92526  37.502  28.948  10.092
25459W        W92527  29.526  40.371  10.530
25460W        W92528   5.796  41.500  11.612
25461W        W92529  25.193  32.038  14.375
25462W        W92530  41.993  38.505   2.758
25463W        W92531  31.122  35.538   1.276
25464W        W92532  16.689   8.399  13.332
25465W        W92533  41.823  24.554  14.808
25466W        W92534  11.627  29.086  10.139
25467W        W92535   4.450  27.506   3.282
25468W        W92536  39.003  36.428  11.420
25469W        W92537  43.952  38.396  14.000
25470W        W92538  19.557   0.924  10.416
25471W        W92539   1.902  28.638  14.774
25472W        W92540   5.197   6.806  13.464
25473W        W92541  20.250  42.431  14.471
25474W        W92542  37.966  35.916  14.351
25475W        W92543  42.788  17.755  12.474
25476W        W92544  25.501  21.250   1.349
25477W        W92545  44.357  34.001  13.365
25478W        W92546  25.175  13.350   5.096
25479W        W92547  21.099  17.746   3.355
25480W        W92548  18.160  42.899   4.802
25481W        W92549  34.992  10.861  14.774
25482W        W92550   9.816  25.497  12.948
25483W        W92551  35.069  40.816  14.845
25484W        W92552   0.807  20.743   2.203
25485W        W92553   5.357  23.664  12.078
25486W        W92554  44.441  29.110   0.274
25487W        W92555  11.248  14.334  10.544
25488W        W92556  13.180  40.911  10.450
25489W        W92557   6.685   8.784  12.462
25490W        W92558  32.606  24.118  12.923
25491W        W92559   9.388  32.019  11.068
25492W        W92560  39.325   2.789   1.228
25493W        W92561  41.009  32.516  11.392
25494W        W92562  11.368  10.749  12.852
25495W        W92563  36.387  18.668   4.756
25496W        W92564   5.730  17.719  14.279
25497W        W92565  30.922  12.612   3.833
25498W        W92566  43.438  41.344  14.414
25499W        W92567  14.286  20.100   1.212
25500W        W92568  34.532  16.675  14.941
25501W        W92569  10.699  10.704   1.267
25502W        W92570   2.904  42.354  12.426
25503W        W92571   2.256  12.117   3.807
25504W        W92572  26.500   2.935   1.920
25505W        W92573  27.125  15.754  10.569
25506W        W92574  43.273  43.299   0.438
25507W        W92575   5.341   7.871   0.819
25508W        W92576  38.837  40.031  13.906
25509W        W92577  29.019  35.409  11.511
25510W        W92578  33.488   5.710   0.378
25511W        W92579  21.237  39.063  12.387
25512W        W92580   5.848  21.170   4.823
25513W        W92581  19.243  37.936  11.969
25514W        W92582  10.168   5.368  14.027
25515W        W92583   3.752  29.484   1.855
25516W        W92584  32.544   6.851  14.389
25517W        W92585   3.818  43.504   1.780
25518W        W92586  27.567  20.674   0.253
25519W        W92587   0.255  38.062   2.896
25520W        W92588   8.710   5.717   0.352
25521W        W92589  43.818  13.268   0.944
25522W        W92590   6.855  27.035  10.543
25523W        W92591  27.950  32.043  10.504
25524W        W92592  41.299   9.716   1.392
25525W        W92593  41.434   6.702  11.946
25526W        W92594  28.126  10.343  11.961
25527W        W92595  14.157  12.210  13.023
25528W        W92596  15.233  24.160  11.001
25529W        W92597  21.109  35.023   2.747
25530W        W92598   0.879  28.929   2.284
25531W        W92599  44.978   2.788   2.886
25532W        W92600   6.343   4.234   1.345
25533W        W92601  35.440  25.574   1.217
25534W        W92602   1.942  44.355   1.900
25535W        W92603  39.981  34.064  12.022
25536W        W92604  26.966  26.458  10.633
25537W        W92605   8.260  12.311   1.449
25538W        W92606   2.923   9.755   3.253
25539W        W92607  44.921  44.279  12.515
25540W        W92608   6.321  21.194  10.436
25541W        W92609  12.242  28.614   2.349
25542W        W92610  18.054  27.089   3.180
25543W        W92611  17.265  28.619  12.454
25544W        W92612  23.581  32.502   3.629
25545W        W92613  16.633  31.415   2.732
25546W        W92614   5.372   7.848  13.483
25547W        W92615  20.272  39.932   3.225
25548W        W92616   4.371  17.566   1.369
25549W        W92617  42.481  31.633   1.364
25550W        W92618  30.422  10.192  14.988
25551W        W92619  23.017  24.555  13.795
25552W        W92620   6.702  32.627  11.404
25553W        W92621   4.819  18.200  11.896
25554W        W92622  31.455  43.002   1.380
25555W        W92623  26.095  16.118   4.617
25556W        W92624  33.458  29.965  14.800
25557W        W92625  29.639  31.062   2.705
25558W        W92626  11.285  20.038  14.373
25559W        W92627  29.155  36.913  12.964
25560W        W92628  31.513  40.319   3.202
25561W        W92629  18.252  42.499  13.872
25562W        W92630   8.811  36.924   4.809
25563W        W92631  11.777   2.446  11.505
25564W        W92632  30.426  28.979  11.974
25565W        W92633  30.511  43.407  13.932
25566W        W92634  27.028  36.958   1.389
25567W        W92635  28.639  19.669  10.491
25568W        W92636  24.088  33.623  14.987
25569W        W92637  24.597  32.463  14.397
25570W        W92638  19.710  17.171   2.407
25571W        W92639  35.947   7.184  12.569
25572W        W92640  16.102  10.663  13.368
25573W        W92641   7.748  19.135  12.971
25574W        W92642  32.417   4.421   3.770
25575W        W92643   5.236   1.457   0.482
25576W        W92644  31.912  40.860   2.758
25577W        W92645  24.692  12.324   3.267
25578W        W92646  35.451   4.300  14.312
25579W        W92647  11.220  23.731  12.986
25580W        W92648  24.520  40.024   4.339
25581W        W92649   6.794  23.593   4.164
25582W        W92650  23.187  33.414   3.288
25583W        W92651   4.723  27.550   3.660
25584W        W92652   5.390  15.272   3.302
25585W        W92653  39.361  15.802  11.372
25586W        W92654   7.205  20.636   3.852
25587W        W92655  30.480  30.063   2.209
25588W        W92656   3.953  39.056  10.982
25589W        W92657  16.130  38.942  12.523
25590W        W92658  13.255  35.053   4.242
25591W        W92659  30.131   8.228   3.274
25592W        W92660  27.027  13.614  11.023
25593W        W92661  41.946   2.928  10.462
25594W        W92662  27.134  32.528  13.837
25595W        W92663  42.019  25.054  12.835
25596W        W92664   4.316   5.247   3.380
25597W        W92665  24.148  27.170  14.279
25598W        W92666   0.410  13.635   4.329
25599W        W92667  41.291  44.296  12.959
25600W        W92668   9.160  40.016   4.286
25601W        W92669  28.076  22.664   0.305
25602W        W92670  32.433   8.679   5.308
25603W        W92671   6.919  25.537  13.889
25604W        W92672  22.505  32.046   1.365
25605W        W92673  27.619   9.269  14.788
25606W        W92674   9.657  10.155   9.991
25607W        W92675  22.149  43.502   1.780
25608W        W92676  15.324  31.562   0.896
25609W        W92677  17.104  41.330   3.814
25610W        W92678  24.221  29.531   4.781
25611W        W92679  25.053  29.167   0.259
25612W        W92680  12.664   4.874   0.268
25613W        W92681  18.774  30.009   3.309
25614W        W92682  29.144  24.683   3.303
25615W        W92683  37.085   0.309   2.368
25616W        W92684   4.883   3.365  13.987
25617W        W92685  21.755  30.658   4.793
25618W        W92686  13.715  36.399  12.520
25619W        W92687  26.146  13.253   3.783
25620W        W92688  40.489  15.765   0.401
25621W        W92689   2.342  30.996   2.336
25622W        W92690  31.459   0.846   2.347
25623W        W92691  28.009  30.548   2.687
25624W        W92692  12.701  18.561  13.379
25625W        W92693   9.771  19.181   0.399
25626W        W92694  24.207  22.101  14.463
25627W        W92695  13.621   2.350  12.026
25628W        W92696  11.748  35.004  14.022
25629W        W92697  13.659   2.878   2.885
25630W        W92698   3.415  23.103   0.890
25631W        W92699  13.781  36.856   2.356
25632W        W92700  14.631  32.128   4.343
25633W        W92701  16.692  38.554  11.094
25634W        W92702  39.350  33.878   3.216
25635W        W92703  12.671   6.846   4.813
25636W        W92704  15.648  24.554   1.241
25637W        W92705   8.345  31.546  11.960
25638W        W92706  27.619  23.053  10.426
25639W        W92707  22.169   0.885   2.367
25640W        W92708  18.784   0.788   5.081
25641W        W92709   7.873  44.914   0.935
25642W        W92710  28.658  39.343  12.355
25643W        W92711  34.899  37.866  11.996
25644W        W92712   5.804  18.785  11.415
25645W        W92713  25.518  34.370   3.725
25646W        W92714  26.149  24.562   0.893
25647W        W92715  25.496  23.012   1.918
25648W        W92716   9.225  20.602   1.405
25649W        W92717  43.448  24.992   1.892
25650W        W92718  36.516   7.190  12.023
25651W        W92719   7.346  43.376   4.760
25652W        W92720  20.245  18.220  12.918
25653W        W92721   5.395  19.661  10.467
25654W        W92722  17.802  37.087   2.321
25655W        W92723   4.718   7.889   3.740
25656W        W92724  39.971  21.585  11.499
25657W        W92725  22.573  19.232   4.673
25658W        W92726  38.474  43.361  11.583
25659W        W92727  17.127  21.613  14.807
25660W        W92728  34.579  19.249  14.949
25661W        W92729  31.955   2.411  10.407
25662W        W92730  42.938  30.461  14.794
25663W        W92731  19.212  35.964  11.502
25664W        W92732  43.015  17.767  10.643
25665W        W92733  35.579  35.033   3.239
25666W        W92734  39.993  14.633   1.868
25667W        W92735  23.146  25.118   2.889
25668W        W92736   4.273   6.412   4.212
25669W        W92737  10.154  38.842   3.287
25670W        W92738  16.600  30.138  13.993
25671W        W92739  42.436  17.612   4.742
25672W        W92740  10.872  42.372   3.809
25673W        W92741   1.245  15.756  11.028
25674W        W92742  41.509  34.989  12.560
25675W        W92743  19.615  41.818  12.532
25676W        W92744  33.036  16.591  14.929
25677W        W92745  34.900  22.630   4.773
25678W        W92746   6.805  25.576  11.901
25679W        W92747   6.764  16.675  13.882
25680W        W92748   6.211   1.782   4.791
25681W        W92749  42.883   4.370  12.543
25682W        W92750  13.762  20.539  13.446
25683W        W92751  31.501  34.957   9.934
25684W        W92752   6.367  10.713  12.881
25685W        W92753   3.271  40.398  11.465
25686W        W92754  29.122  35.913  12.888
25687W        W92755   1.431  34.602   2.669
25688W        W92756   2.855  20.678  14.350
25689W        W92757  28.168  15.746  11.034
25690W        W92758   7.908  25.210   2.679
25691W        W92759  17.153  18.625  12.549
25692W        W92760  26.693  39.324   4.759
25693W        W92761  15.197  26.696   1.351
25694W        W92762  35.063  12.336  13.050
25695W        W92763  42.490   5.753   0.806
25696W        W92764   3.247  15.113   0.765
25697W        W92765   8.396  10.354   3.260
25698W        W92766  32.979  10.277   3.363
25699W        W92767   4.858  31.989  11.958
25700W        W92768   9.273   2.359  10.594
25701W        W92769  32.998   0.447   3.703
25702W        W92770  30.933   5.359   0.950
25703W        W92771  10.728  36.485   1.753
25704W        W92772  38.965   1.883  10.556
25705W        W92773   4.401  39.964   2.332
25706W        W92774  42.446  14.156  13.874
25707W        W92775   8.317  26.126  11.503
25708W        W92776   6.416  24.181  10.433
25709W        W92777  16.755  20.600  12.427
25710W        W92778   3.446  38.060  13.888
25711W        W92779  37.857   6.676   0.402
25712W        W92780  33.567  11.660   2.692
25713W        W92781  38.549  43.362   0.751
25714W        W92782  12.215   8.234  14.886
25715W        W92783  44.788  37.960   0.733
25716W        W92784  40.422  18.608  12.036
25717W        W92785  14.210  39.902  13.874
25718W        W92786  13.787  44.317   1.872
25719W        W92787  15.697  23.573   5.190
25720W        W92788   1.328  22.633   0.791
25721W        W92789  40.826  35.545  14.388
25722W        W92790  34.011  28.063   1.251
25723W        W92791  19.212  12.742  14.426
25724W        W92792  40.904  33.413   2.890
25725W        W92793  44.968   4.250  14.940
25726W        W92794   9.257   3.874   2.796
25727W        W92795  18.783   5.272  10.597
25728W        W92796  27.648  22.186   2.194
25729W        W92797  25.690  12.223  14.947
25730W        W92798  38.851   3.813  13.031
25731W        W92799  16.757  11.655  14.326
25732W        W92800  41.296  20.254  12.339
25733W        W92801   3.386  32.988  13.807
25734W        W92802  33.457  10.177   3.183
25735W        W92803  27.157  29.449  13.364
25736W        W92804   3.838  13.230   2.341
25737W        W92805  27.668  29.517   1.412
25738W        W92806   3.752  42.944   3.190
25739W        W92807  19.285  31.101  14.845
25740W        W92808  28.185  41.311  14.805
25741W        W92809  44.284  31.505   2.675
25742W        W92810  39.885  31.545   1.354
25743W        W92811  19.614   3.839  13.427
25744W        W92812  32.890  16.117  11.892
25745W        W92813  12.703  36.495  10.578
25746W        W92814  23.220  35.418   3.265
25747W        W92815   9.820  12.802  12.909
25748W        W92816  31.906  24.111  11.070
25749W        W92817  26.506   7.733  10.566
25750W        W92818  32.565  34.500  11.450
25751W        W92819  39.881  19.132  12.918
25752W        W92820  12.842   3.280  10.510
25753W        W92821  40.438   2.339  11.575
25754W        W92822  44.354  37.523   5.283
25755W        W92823   9.826  13.268   1.387
25756W        W92824  31.966  14.608   2.258
25757W        W92825  19.247   1.298   0.447
25758W        W92826  29.986  33.459   3.177
25759W        W92827   1.897  25.605   3.699
25760W        W92828   2.730  25.185  12.487
25761W        W92829   6.750  41.036  12.399
25762W        W92830  19.063   7.798   4.331
25763W        W92831  12.324  26.038   4.706
25764W        W92832  36.965  37.436   3.228
25765W        W92833  10.344  21.649  10.405
25766W        W92834  42.789   8.763   2.204
25767W        W92835  43.906  27.452  14.927
25768W        W92836  33.072  16.101  10.974
25769W        W92837  29.112   7.893  11.540
25770W        W92838  40.536  24.141   1.363
25771W        W92839   8.192   3.429  12.364
25772W        W92840  36.842  17.652  10.632
25773W        W92841  16.298  12.230  12.441
25774W        W92842   5.794   9.268  13.330
25775W        W92843  19.740  27.687   1.790
25776W        W92844  26.146  32.921   4.233
25777W        W92845  29.556  20.752  13.313
25778W        W92846  13.639  11.703   4.653
25779W        W92847  43.806  39.836  12.952
25780W        W92848  32.960  42.782   2.716
25781W        W92849  31.640  25.171   1.735
25782W        W92850  13.822   8.884  13.933
25783W        W92851   3.927  37.873  11.400
25784W        W92852  13.684  25.582   1.764
25785W        W92853  25.011  34.504  13.336
25786W        W92854   5.867   2.782   3.838
25787W        W92855  15.625  11.681  11.856
25788W        W92856  38.847   3.293  10.533
25789W        W92857   0.474  33.925  12.410
25790W        W92858   6.313  32.556   2.888
25791W        W92859  41.417   9.306   0.303
25792W        W92860  26.086  39.946  11.403
25793W        W92861   8.293  20.247  13.340
25794W        W92862  39.937  11.712   1.387
25795W        W92863   9.362   5.382   1.417
25796W        W92864  40.892   5.193   3.777
25797W        W92865  31.505  40.809   2.196
25798W        W92866  41.394  38.041   3.304
25799W        W92867  12.736  36.448  12.542
25800W        W92868  12.637  24.515  13.427
25801W        W92869  40.850   1.287  14.434
25802W        W92870  37.849  18.635  10.082
25803W        W92871   3.265   4.812   5.168
25804W        W92872  41.430  11.152  12.493
25805W        W92873  22.521   1.352   2.181
25806W        W92874   0.890  41.310   1.760
25807W        W92875  24.149  18.662   2.882
25808W        W92876  44.296  40.948   1.258
25809W        W92877  27.991   5.317   0.744
25810W        W92878  28.068  32.108  14.902
25811W        W92879  30.625  28.963   4.793
25812W        W92880  39.497  37.069   1.441
25813W        W92881  25.962  24.683   1.755
25814W        W92882  24.526   5.888  14.976
25815W        W92883  39.943  32.557   3.683
25816W        W92884  10.807   2.278   3.328
25817W        W92885   8.334  14.216   4.742
25818W        W92886  41.352  13.786  12.040
25819W        W92887   6.255  23.156  10.567
25820W        W92888  18.270  39.396  12.000
25821W        W92889   4.373  31.406  14.807
25822W        W92890  15.664  11.753   3.725
25823W        W92891  43.882  28.176  14.841
25824W        W92892  17.300  34.947   4.606
25825W        W92893  30.473  27.590   3.175
25826W        W92894  22.172  20.586   2.221
25827W        W92895   8.381   9.202   0.928
25828W        W92896  26.959   6.845  12.981
25829W        W92897  36.498   0.394  13.522
25830W        W92898  10.365  22.634   0.468
25831W        W92899  18.564  34.484   2.847
25832W        W92900   1.466  33.009  12.580
25833W        W92901  34.530  25.184   3.371
25834W        W92902  22.742   0.391  10.544
25835W        W92903  34.549   9.200   1.404
25836W        W92904  33.944  13.642   2.773
25837W        W92905   6.309  26.610  14.372
25838W        W92906   4.831  21.033  11.994
25839W        W92907  11.642   9.152  10.468
25840W        W92908  29.461   0.410   2.827
25841W        W92909  30.481  10.769   1.385
25842W        W92910  43.381   3.949  11.111
25843W        W92911   3.951   9.368   1.887
25844W        W92912  27.639  32.473  11.058
25845W        W92913   1.951  22.691  14.833
25846W        W92914   0.930  13.197  13.506
25847W        W92915  13.339  41.856   4.150
25848W        W92916  11.638   8.769   3.183
25849W        W92917  27.152  38.385   1.392
25850W        W92918  17.242  20.084   2.363
25851W        W92919  34.375  36.964  11.965
25852W        W92920   2.357  28.939   1.828
25853W        W92921  14.195  37.862  14.376
25854W        W92922   1.840  23.186  14.314
25855W        W92923   6.818  43.807  13.360
25856W        W92924   3.427   3.948   4.719
25857W        W92925  41.999  13.252   5.136
25858W        W92926  34.884   2.950   1.427
25859W        W92927   4.395  40.487  11.470
25860W        W92928  19.206  10.685  11.022
25861W        W92929  11.745  40.391   2.732
25862W        W92930  39.423  25.970   3.210
25863W        W92931  11.140  36.900  10.601
25864W        W92932  44.501   7.823   2.338
25865W        W92933   5.859  32.908   2.847
25866W        W92934  34.406  25.513  11.899
25867W        W92935  39.908  15.325  12.887
25868W        W92936  26.184  44.395  11.496
25869W        W92937  17.688   3.893  11.965
25870W        W92938   1.410  12.270   2.363
25871W        W92939  14.813  29.641  13.804
25872W        W92940  27.036   7.360   0.371
25873W        W92941  19.616  23.052   3.735
25874W        W92942  32.578  36.916   3.837
25875W        W92943  16.290  38.925  12.938
25876W        W92944  34.109  14.827  10.468
25877W        W92945   2.252  11.789  10.971
25878W        W92946  13.774   6.387   2.876
25879W        W92947   0.465   2.756   1.353
25880W        W92948  21.712  20.702  10.465
25881W        W92949  35.865  35.057  14.021
25882W        W92950  13.138  35.991   1.408
25883W        W92951  28.143  44.867  10.126
25884W        W92952  35.523  28.105   2.847
25885W        W92953  33.008  12.702  10.481
25886W        W92954  24.563  31.026  11.460
25887W        W92955  25.495  24.044  13.873
25888W        W92956  33.105  33.625  14.831
25889W        W92957  25.971  20.602   4.720
25890W        W92958   0.929  36.442  14.473
25891W        W92959  19.283  18.126   1.778
25892W        W92960   8.207  36.349  12.867
25893W        W92961  31.512  40.011  13.466
25894W        W92962  23.599  33.480   2.373
25895W        W92963   1.260  43.862   1.354
25896W        W92964  11.865  16.731  10.643
25897W        W92965   0.979  24.987   9.956
25898W        W92966   6.244  29.046   3.776
25899W        W92967   8.321  21.049  14.408
25900W        W92968   0.829  38.407   3.378
25901W        W92969  40.030  34.090   3.255
25902W        W92970  13.154   6.751   2.320
25903W        W92971  38.068  38.901   2.772
25904W        W92972  32.507  23.619   4.283
25905W        W92973  18.575  44.910  12.089
25906W        W92974  22.628   3.365  14.855
25907W        W92975  13.666  44.952  13.477
25908W        W92976  30.560  17.266   5.103
25909W        W92977  16.115  26.986   4.701
25910W        W92978  44.893  37.336  11.572
25911W        W92979   2.785  13.128  12.000
25912W        W92980  25.689  18.235  14.437
25913W        W92981  42.805  18.589  12.089
25914W        W92982  33.985  31.987   4.131
25915W        W92983   0.903  27.067   3.174
25916W        W92984  38.953  23.621  11.482
25917W        W92985  27.501  37.420   2.878
25918W        W92986  38.369  36.086   4.718
25919W        W92987  21.745  13.150   4.812
25920W        W92988  25.030  26.667   3.777
25921W        W92989  13.201  40.856  13.831
25922W        W92990  13.301  20.239  12.492
25923W        W92991  36.363  28.963   1.342
25924W        W92992  10.866  10.632   2.889
25925W        W92993   4.903  15.227   1.297
25926W        W92994  35.870  17.715  13.930
25927W        W92995  24.666  23.550   3.782
25928W        W92996  24.617   3.441   3.234
25929W        W92997  31.595   8.212  11.944
25930W        W92998   6.920  15.733   4.131
25931W        W92999  30.424   7.816   2.862
25932W        W93000  15.188  38.548   1.725
25933W        W93001  19.772  29.025   1.249
25934W        W93002  30.516  33.600   3.242
25935W        W93003  19.120  25.480  14.472
25936W        W93004  36.972  35.945  14.290
25937W        W93005   3.788  12.223   0.483
25938W        W93006  17.068  34.468  11.426
25939W        W93007   3.941  39.440  13.880
25940W        W93008  25.634   5.419  14.783
25941W        W93009   9.735  32.532  14.783
25942W        W93010   3.286  43.372  12.022
25943W        W93011  10.244  15.327   4.120
25944W        W93012  38.978  36.401   1.357
25945W        W93013  31.062   6.733   4.116
25946W        W93014   1.314   3.250  14.856
25947W        W93015  27.958  16.730  10.599
25948W        W93016  29.513  24.107  10.545
25949W        W93017  22.691   0.816  12.366
25950W        W93018  28.501  10.815   1.215
25951W        W93019  25.972   2.293  10.939
25952W        W93020  12.776  37.546  14.996
25953W        W93021  30.418  24.041  10.553
25954W        W93022  31.052  27.033   3.160
25955W        W93023  19.276  44.951  12.961
25956W        W93024  42.821   3.812   2.879
25957W        W93025  12.631  37.899  11.011
25958W        W93026  25.095   7.773   1.328
25959W        W93027  26.038  11.759   3.326
25960W        W93028   2.844  12.261   4.620
25961W        W93029  24.688  12.746  11.119
25962W        W93030  28.009   3.361  14.022
25963W        W93031  15.228  27.017   4.677
25964W        W93032   3.788   6.201   3.215
25965W        W93033   5.739  13.827   0.960
25966W        W93034  33.556  13.742   3.155
25967W        W93035  34.032  18.633   2.192
25968W        W93036  37.906  37.921   2.842
25969W        W93037  39.533   8.223  14.280
25970W        W93038  40.942   5.242  12.490
25971W        W93039   3.284  36.361  10.442
25972W        W93040  30.514  28.059   3.652
25973W        W93041   6.307  34.409   2.822
25974W        W93042  30.154   4.803   2.885
25975W        W93043  37.859   9.225   3.170
25976W        W93044  33.018  19.179   2.713
25977W        W93045  40.900  32.443   2.686
25978W        W93046  38.931  10.720  10.644
25979W        W93047   3.235  37.421  14.959
25980W        W93048  40.482  10.649   1.899
25981W        W93049  39.843  27.033  13.378
25982W        W93050  28.031  26.508  11.601
25983W        W93051  10.170  16.129   0.358
25984W        W93052  40.031  10.716  13.828
25985W        W93053  26.033  24.576   1.287
25986W        W93054  17.565  25.097   5.168
25987W        W93055  31.523  41.335   0.957
25988W        W93056   0.340  33.081   0.385
25989W        W93057  29.091  38.994   3.632
25990W        W93058  31.476  10.312  13.365
25991W        W93059   1.398  34.015  12.919
25992W        W93060   6.378   2.249   1.875
25993W        W93061  17.785   0.779  14.408
25994W        W93062  24.181  16.135  14.906
25995W        W93063  31.058   7.836  13.883
25996W        W93064  42.994   2.813  10.926
25997W        W93065  30.988  41.316  14.819
25998W        W93066   2.954   0.863  11.008
25999W        W93067  11.238  14.755   0.856
26000W        W93068   1.916   0.806  12.927
26001W        W93069   0.452  14.751  11.026
26002W        W93070  13.809  38.952   4.630
26003W        W93071   5.693  11.251   1.787
26004W        W93072  17.221   8.684  11.587
26005W        W93073   8.837  36.026   0.764
26006W        W93074  25.516  42.807  10.080
26007W        W93075  20.120   4.394   4.270
26008W        W93076   6.733  26.526  10.625
26009W        W93077   9.215  41.989   0.368
26010W        W93078  26.577  10.648   0.371
26011W        W93079  41.934  32.604  14.876
26012W        W93080  21.656  44.829  13.462
26013W        W93081  29.051  29.095   0.253
26014W        W93082  43.473  14.301   3.196
26015W        W93083  37.442  11.151   0.839
26016W        W93084  31.529  31.549  11.068
26017W        W93085   4.338   5.305  13.005
26018W        W93086  37.538  37.898  13.969
26019W        W93087  10.805  21.060  12.553
26020W        W93088  43.421   2.966   0.243
26021W        W93089  43.437   7.838   3.352
26022W        W93090  26.577  34.425  10.116
26023W        W93091  14.738  38.402   3.650
26024W        W93092  30.938  14.176   1.792
26025W        W93093  18.585  35.550  11.381
26026W        W93094  15.767  40.480  12.348
26027W        W93095  19.543  11.229  13.002
26028W        W93096   3.770  41.905   2.406
26029W        W93097  10.268  16.161  14.788
26030W        W93098  19.276  19.202  13.969
26031W        W93099  43.462   6.726  13.919
26032W        W93100  44.868  35.541   3.682
26033W        W93101  30.011  41.913   4.684
26034W        W93102  11.353  10.353  10.459
26035W        W93103  23.517  32.587  10.634
26036W        W93104   8.768   1.805   1.826
26037W        W93105  12.249   6.749   3.765
26038W        W93106  39.519  25.589  10.449
26039W        W93107   9.348  41.299   2.771
26040W        W93108  10.155  37.020   2.749
26041W        W93109  26.576  10.376  13.845
26042W        W93110   0.273  39.531   3.249
26043W        W93111  19.560  35.397   0.808
26044W        W93112  33.897  36.967  11.918
26045W        W93113  33.982  40.382   4.180
26046W        W93114  38.911  39.955  12.457
26047W        W93115  36.547   2.757  14.478
26048W        W93116  40.972  17.155  14.278
26049W        W93117  23.551  14.163  13.894
26050W        W93118  34.453  26.084   4.290
26051W        W93119  24.181  41.021  14.950
26052W        W93120  13.296  33.519   5.197
26053W        W93121  33.553  32.499  11.966
26054W        W93122  27.561   6.327  10.415
26055W        W93123  39.993   6.772  11.503
26056W        W93124   4.730  43.368  14.849
26057W        W93125   6.809  43.503   4.694
26058W        W93126   7.911  22.251   4.838
26059W        W93127  26.195  31.418  12.856
26060W        W93128  30.541   8.893  11.463
26061W        W93129   5.847   4.294  11.100
26062W        W93130  27.534  34.964  10.036
26063W        W93131  20.688  30.642  14.006
26064W        W93132  10.643  34.988  12.971
26065W        W93133   6.712  42.905   5.247
26066W        W93134  10.355  25.105  10.979
26067W        W93135   8.330  10.278   3.830
26068W        W93136  19.156   1.908  13.373
26069W        W93137  21.597  23.603   1.435
26070W        W93138   1.314  39.361  14.921
26071W        W93139   9.249  22.581  13.538
26072W        W93140  19.197   7.296  13.377
26073W        W93141  25.075   6.756   2.849
26074W        W93142  26.165  32.921  10.556
26075W        W93143  28.976  40.830  14.352
26076W        W93144  41.788  31.403  12.067
26077W        W93145  24.568   6.189   0.750
26078W        W93146  23.238  36.533   4.661
26079W        W93147   1.360  36.048   1.443
26080W        W93148  36.426  19.168  11.127
26081W        W93149  30.079  18.685  11.004
26082W        W93150  30.913  40.958   1.232
26083W        W93151  29.440   1.763   0.457
26084W        W93152  41.346  43.342   4.650
26085W        W93153   3.382   1.361   3.287
26086W        W93154  37.578  18.238   3.754
26087W        W93155  13.252  40.030   0.420
26088W        W93156  30.055  44.823   3.305
26089W        W93157  36.550  41.890   0.252
26090W        W93158  28.536  27.061  12.033
26091W        W93159   2.820  33.982  11.041
26092W        W93160  36.090   6.874  12.905
26093W        W93161   7.794  29.104  11.452
26094W        W93162  22.186  23.045  12.414
26095W        W93163   2.246  28.171   0.281
26096W        W93164  39.056  28.050   3.370
26097W        W93165  41.332  32.124  14.795
26098W        W93166   1.830   4.814  11.576
26099W        W93167   9.724  21.578   2.201
26100W        W93168  18.187  10.317   4.330
26101W        W93169  15.637  35.911  12.972
26102W        W93170  12.793  34.027  12.381
26103W        W93171  22.048  30.914   0.913
26104W        W93172   8.215   6.275   2.252
26105W        W93173   6.822  29.163  13.501
26106W        W93174  21.751  16.742  12.928
26107W        W93175   6.255  41.506   4.804
26108W        W93176   2.883  20.111   4.707
26109W        W93177  26.667  25.480   3.667
26110W        W93178  19.255  11.237  12.449
26111W        W93179   6.858  17.267  13.372
26112W        W93180  40.441   3.431  14.513
26113W        W93181  20.161   1.344  11.009
26114W        W93182   1.947   6.887  13.007
26115W        W93183  44.951  41.020   1.438
26116W        W93184  26.160  41.383   3.813
26117W        W93185   5.308  34.603  14.944
26118W        W93186   2.830   1.400   1.268
26119W        W93187   3.217  35.950  14.388
26120W        W93188  37.495   8.804   1.870
26121W        W93189  28.163  17.090   4.834
26122W        W93190  16.139   5.859  12.529
26123W        W93191  12.278  35.004  13.514
26124W        W93192  13.286  43.957   3.281
26125W        W93193  39.878  30.101   4.730
26126W        W93194  17.753  18.760  13.321
26127W        W93195  32.555   8.168  13.995
26128W        W93196  23.078  12.147  12.380
26129W        W93197  16.126  13.778  10.444
26130W        W93198  12.668  14.318   1.927
26131W        W93199  10.741  11.316  14.776
26132W        W93200  24.120  40.983  12.066
26133W        W93201  14.280  15.604  13.322
26134W        W93202  40.534  40.460   3.384
26135W        W93203   2.735  24.586  12.524
26136W        W93204  23.996  10.663   0.416
26137W        W93205   5.717   4.424   1.376
26138W        W93206  10.851   0.333   0.932
26139W        W93207  38.536  36.037   2.392
26140W        W93208  12.839  20.084   0.332
26141W        W93209   2.755   3.915   0.326
26142W        W93210  30.044   3.447   3.304
26143W        W93211  42.889  36.454  14.320
26144W        W93212  23.513  35.096   0.316
26145W        W93213  44.835  25.567   4.716
26146W        W93214  31.630  36.417   0.268
26147W        W93215   8.341  12.661  11.410
26148W        W93216  17.762  32.128  14.978
26149W        W93217  17.669  25.672   2.900
26150W        W93218  11.273  29.520  11.110
26151W        W93219  13.121  11.848  10.412
26152W        W93220  29.094  35.539  13.540
26153W        W93221   5.395  37.878   2.393
26154W        W93222  10.742  16.669   0.744
26155W        W93223  38.368  21.562  14.506
26156W        W93224   0.959  16.221  10.962
26157W        W93225  21.712  14.271   2.785
26158W        W93226  41.457  39.346   0.850
26159W        W93227  16.266  41.846   4.599
26160W        W93228  21.094  26.618   4.685
26161W        W93229  31.924  21.167  11.064
26162W        W93230  32.576  24.628  12.481
26163W        W93231   0.472   5.381  14.773
26164W        W93232  19.761  38.531  12.891
26165W        W93233   0.377  20.758   1.772
26166W        W93234  33.427  23.500  12.025
26167W        W93235  39.478   7.726   3.821
26168W        W93236   2.347  24.044   2.810
26169W        W93237   2.925  11.756  12.356
26170W        W93238  18.624  35.526  13.987
26171W        W93239  22.600  22.006   2.404
26172W        W93240   3.875  16.231   3.726
26173W        W93241  34.890  20.143  11.862
26174W        W93242   6.765  33.917  11.557
26175W        W93243   3.352  23.705  10.893
26176W        W93244  18.625   2.276  11.522
26177W        W93245  30.116  32.987   4.148
26178W        W93246  30.568  13.755  11.983
26179W        W93247  41.468  42.380  14.325
26180W        W93248   2.847   5.203   1.859
26181W        W93249   8.817  18.656  12.562
26182W        W93250  13.644  16.597  13.802
26183W        W93251   6.343  33.004   0.472
26184W        W93252  41.478  18.728  12.560
26185W        W93253   1.262  33.111   1.758
26186W        W93254  32.071  33.393   1.870
26187W        W93255  12.777  30.916   3.379
26188W        W93256  17.571   6.209  13.904
26189W        W93257  25.030  41.012   2.333
26190W        W93258   6.183  28.989  14.896
26191W        W93259  16.582  22.711  13.005
26192W        W93260  18.642  14.101  13.919
26193W        W93261  39.988  22.141   0.796
26194W        W93262   0.872   5.287  13.005
26195W        W93263   9.221  38.945  14.873
26196W        W93264  36.064  20.676   4.339
26197W        W93265  10.680  44.430  13.368
26198W        W93266   7.325  32.479  10.470
26199W        W93267  21.019  30.025  12.445
26200W        W93268  15.787   0.477  10.630
26201W        W93269  14.253  11.302   4.634
26202W        W93270  30.117  31.404   2.349
26203W        W93271  24.479  19.239   2.683
26204W        W93272  16.132  23.598   9.947
26205W        W93273  27.626  32.125   3.244
26206W        W93274  24.215  21.584   1.270
26207W        W93275  27.989  32.940   2.796
26208W        W93276   6.388   2.366  14.890
26209W        W93277  40.935  39.848  10.611
26210W        W93278  43.888   5.384   2.902
26211W        W93279  11.222  43.910  13.532
26212W        W93280  11.767  11.260   3.664
26213W        W93281  28.936  40.994   3.222
26214W        W93282  10.213  15.711  11.917
26215W        W93283   5.847  12.329   1.697
26216W        W93284  33.454  41.425   3.149
26217W        W93285   3.918  41.445   3.361
26218W        W93286   6.367  33.027   4.327
26219W        W93287  19.166  31.992   1.895
26220W        W93288  30.429  33.091  13.811
26221W        W93289  33.085  31.626  10.418
26222W        W93290   6.827  12.294   1.306
26223W        W93291  26.006  42.507  10.579
26224W        W93292   7.390  36.957  10.587
26225W        W93293  38.915  15.671  12.460
26226W        W93294  33.546  17.578   0.843
26227W        W93295  33.380  15.307   1.880
26228W        W93296  20.113  11.749   2.342
26229W        W93297   8.690  22.234  11.925
26230W        W93298  32.567  27.604  14.277
26231W        W93299  13.686  16.122  10.913
26232W        W93300  25.189  31.472  14.938
26233W        W93301   1.421  37.040  12.440
26234W        W93302  16.796  40.841  11.960
26235W        W93303  11.733  21.684  12.341
26236W        W93304  23.096  33.999   3.855
26237W        W93305  14.627  38.373  12.859
26238W        W93306  34.033  10.788   4.625
26239W        W93307  36.515   4.913  11.101
26240W        W93308   3.829  42.992  13.796
26241W        W93309   9.342   6.356   4.781
26242W        W93310   1.464   2.234  14.020
26243W        W93311  17.756  12.144   4.647
26244W        W93312  11.192   1.765  12.356
26245W        W93313  20.267  37.549  13.462
26246W        W93314  10.196   6.372   4.607
26247W        W93315  41.818  33.046   4.227
26248W        W93316  25.020   6.226   2.842
26249W        W93317  17.067  39.963   3.241
26250W        W93318  31.966  25.494  14.408
26251W        W93319   9.295  10.346   1.703
26252W        W93320  33.010  13.308   4.763
26253W        W93321  43.393  33.560   0.820
26254W        W93322   8.882  25.646  13.038
26255W        W93323  40.006  13.738  10.900
26256W        W93324   4.806  25.619   4.762
26257W        W93325  42.921  20.078   4.341
26258W        W93326  23.094   3.290  12.537
26259W        W93327   3.712   9.714   4.808
26260W        W93328  32.102   0.298  10.421
26261W        W93329   6.891  34.055  11.051
26262W        W93330   5.745  19.649  11.079
26263W        W93331  20.030  39.913  11.947
26264W        W93332  37.391   6.785  12.438
26265W        W93333   5.838  14.805   0.950
26266W        W93334  21.600  25.180   3.767
26267W        W93335  40.425   2.955  14.786
26268W        W93336  36.528  44.462   4.307
26269W        W93337   6.314  20.074  11.937
26270W        W93338  30.611  10.788  11.878
26271W        W93339  19.051  40.335  14.997
26272W        W93340  37.962  15.325  11.493
26273W        W93341   1.379  33.042   4.823
26274W        W93342   1.910  22.174  12.950
26275W        W93343  12.230  15.809  13.429
26276W        W93344  15.599   5.274  13.498
26277W        W93345  19.173  35.511  10.494
26278W        W93346  26.044   5.282  10.966
26279W        W93347   5.329  20.676  11.955
26280W        W93348   0.973  20.548   4.657
26281W        W93349  44.798   7.174   3.717
26282W        W93350   3.351  38.991   5.320
26283W        W93351  38.920  26.952  10.922
26284W        W93352  36.952  31.466   1.867
26285W        W93353  17.295  13.185  12.510
26286W        W93354  27.165   4.211   1.251
26287W        W93355   1.947  39.341  11.960
26288W        W93356   8.286  28.476   0.907
26289W        W93357  25.117  28.099  13.318
26290W        W93358  13.603  35.017   0.917
26291W        W93359  14.674  29.048  12.865
26292W        W93360   9.263  12.685  12.913
26293W        W93361  37.079  27.590  11.586
26294W        W93362  42.980  12.144  13.886
26295W        W93363  28.444  22.203   4.322
26296W        W93364  14.250  21.038   4.344
26297W        W93365  36.038  38.982   2.690
26298W        W93366  19.625   2.842   2.830
26299W        W93367   9.821  18.572  13.854
26300W        W93368  29.074   1.291   2.782
26301W        W93369  23.073  31.425   0.823
26302W        W93370  25.143  36.035   3.814
26303W        W93371  38.007  20.531  13.406
26304W        W93372  34.401  36.092   1.403
26305W        W93373  11.141  18.663   4.723
26306W        W93374  40.889   8.654  13.895
26307W        W93375  10.269  16.100  14.329
26308W        W93376   0.387  43.793   1.923
26309W        W93377  40.318  11.253  12.041
26310W        W93378  11.624  19.244   1.248
26311W        W93379  32.518  12.189   0.289
26312W        W93380  37.842  36.395  13.855
26313W        W93381  11.211   6.878   3.763
26314W        W93382   4.798  23.112  11.386
26315W        W93383  35.941   0.328   1.902
26316W        W93384  19.550  18.215   2.739
26317W        W93385  11.150  13.219  11.989
26318W        W93386  30.429  11.290  11.899
26319W        W93387  17.574  37.406  12.876
26320W        W93388  13.253  10.280  14.865
26321W        W93389  18.671  22.167   4.719
26322W        W93390  26.535  13.617   3.162
26323W        W93391  27.035  11.675  11.578
26324W        W93392  41.389  16.148  10.939
26325W        W93393   9.347  16.670  11.993
26326W        W93394  19.101  13.779   0.771
26327W        W93395  19.236   6.900  14.924
26328W        W93396  21.725  17.735   4.264
26329W        W93397  34.885  13.636   2.828
26330W        W93398   2.924  35.109   3.270
26331W        W93399  22.560  22.580   4.680
26332W        W93400  43.368  27.521  11.905
26333W        W93401  28.465  11.331   4.756
26334W        W93402   8.789  28.042   1.411
26335W        W93403  43.305   9.181  14.460
26336W        W93404   7.188  41.409  12.355
26337W        W93405   1.283  24.139   3.762
26338W        W93406  10.278  21.093   4.287
26339W        W93407  16.133  26.606  14.940
26340W        W93408  22.148  43.786  14.913
26341W        W93409  24.525  35.092  12.929
26342W        W93410  10.876  44.864   2.738
26343W        W93411  15.083   9.881   2.883
26344W        W93412  12.688  19.276  10.428
26345W        W93413  40.439   7.215  10.924
26346W        W93414   7.276  22.679  12.033
26347W        W93415   7.845   7.745   4.343
26348W        W93416  22.730  42.033  10.480
26349W        W93417   4.815  41.021  10.508
26350W        W93418  39.973  26.591   1.430
26351W        W93419  27.996  35.002   3.631
26352W        W93420  30.426  15.197   3.181
26353W        W93421  38.057  23.010   2.220
26354W        W93422  12.773  19.657   2.314
26355W        W93423  29.115  38.560   4.819
26356W        W93424  41.534  24.128   3.183
26357W        W93425   7.376   3.390   3.743
26358W        W93426  17.710   8.364  12.542
26359W        W93427  38.948  16.126  10.559
26360W        W93428  35.389  17.761   2.741
26361W        W93429  23.698  13.248   1.879
26362W        W93430  33.431  13.677   3.823
26363W        W93431   5.398  30.131   3.284
26364W        W93432   8.790  11.178   3.851
26365W        W93433  23.563  31.450   3.189
26366W        W93434  19.600  44.891   0.880
26367W        W93435  43.961   7.275  12.915
26368W        W93436  31.580  23.721   0.889
26369W        W93437  29.943  33.965   1.220
26370W        W93438  38.997  10.223   4.166
26371W        W93439  43.794   0.785   0.463
26372W        W93440   1.474   5.368   0.739
26373W        W93441  29.091  18.695   2.857
26374W        W93442  16.173  30.500   0.923
26375W        W93443  20.769  43.836   3.857
26376W        W93444  32.420  17.103  11.907
26377W        W93445  12.204  29.543  11.601
26378W        W93446  21.686  42.520  10.608
26379W        W93447  37.935  33.605   2.297
26380W        W93448   8.812   4.794   1.813
26381W        W93449   6.799  27.684   4.324
26382W        W93450   1.844  18.655  11.482
26383W        W93451  44.817   1.953   4.342
26384W        W93452  15.587   8.899   4.275
26385W        W93453   9.239  28.450  11.422
26386W        W93454  33.606  32.561   2.701
26387W        W93455  39.333  11.275   2.334
26388W        W93456  20.138  19.654   3.297
26389W        W93457  24.604  11.323   4.275
26390W        W93458  32.964  31.611  14.496
26391W        W93459  11.622  15.158  14.783
26392W        W93460  11.835   9.380  12.547
26393W        W93461   8.863  38.820   0.770
26394W        W93462  19.639  16.568   0.824
26395W        W93463   7.791   0.491  12.389
26396W        W93464  30.420  26.520  12.986
26397W        W93465  12.831  13.179   1.290
26398W        W93466  16.120  33.876   4.255
26399W        W93467   0.287  15.584   1.237
26400W        W93468  40.901  33.958   0.922
26401W        W93469  15.325  38.362  13.507
26402W        W93470  28.472  36.025  10.966
26403W        W93471   7.304  24.208  10.443
26404W        W93472  35.096  22.694   2.750
26405W        W93473  28.123  20.709  10.531
26406W        W93474  15.746  38.948   1.441
26407W        W93475  31.031   9.726  13.424
26408W        W93476  41.423  22.169   3.382
26409W        W93477   2.834  21.049  11.027
26410W        W93478  37.867  11.164   2.708
26411W        W93479   8.741  14.290   4.239
26412W        W93480   9.687  33.123  11.029
26413W        W93481  37.379  17.740  12.011
26414W        W93482  30.413  43.422   0.918
26415W        W93483  39.454  26.185  12.887
26416W        W93484  40.386   9.363   1.398
26417W        W93485  36.442  25.709   0.298
26418W        W93486  31.977  28.068   1.932
26419W        W93487  38.331  35.416   4.808
26420W        W93488  33.580   4.324  13.891
26421W        W93489   8.756   8.792  12.019
26422W        W93490   1.276   8.734   1.318
26423W        W93491  25.003  18.595   3.203
26424W        W93492   7.670  18.636   1.266
26425W        W93493  32.034  21.085  10.582
26426W        W93494  36.552  42.312  10.963
26427W        W93495  26.496  26.578   0.320
26428W        W93496  15.717  44.785   1.838
26429W        W93497  29.441  14.162  13.843
26430W        W93498  26.694  10.686  11.058
26431W        W93499  35.464   0.792  12.997
26432W        W93500  16.576   5.389   3.317
26433W        W93501  18.555  11.259  13.519
26434W        W93502  33.589  41.377  10.993
26435W        W93503   3.413  28.098  14.293
26436W        W93504   7.232  19.546   2.229
26437W        W93505   1.259  34.373  10.908
26438W        W93506   5.417  10.873  13.062
26439W        W93507   7.239  18.257   0.727
26440W        W93508  21.594  18.668   2.861
26441W        W93509  22.232  10.149   1.740
26442W        W93510  33.917   4.282  12.835
26443W        W93511  30.530  37.337  13.822
26444W        W93512  10.756  25.168   3.262
26445W        W93513  30.597  18.115  14.491
26446W        W93514  20.656  18.160   4.161
26447W        W93515  19.533  30.581  10.501
26448W        W93516  29.015  23.637   1.339
26449W        W93517  31.615   1.829   1.789
26450W        W93518  12.779  29.467   0.247
26451W        W93519  30.601  14.333   2.363
26452W        W93520   1.314   2.416  14.875
26453W        W93521  34.455  37.029  11.114
26454W        W93522  28.641  41.922   2.227
26455W        W93523  30.038  39.971  14.925
26456W        W93524   4.744  18.656   4.158
26457W        W93525   9.842  17.182   2.310
26458W        W93526   1.313  31.599  14.869
26459W        W93527  16.719  36.445  11.884
26460W        W93528   8.755  19.714  11.112
26461W        W93529  30.075  38.524  12.372
26462W        W93530  36.978  40.874  13.315
26463W        W93531  39.816  17.618   3.780
26464W        W93532  13.723   6.401   3.234
26465W        W93533  16.669   4.209   0.400
26466W        W93534  38.526   1.856   0.475
26467W        W93535  22.999   4.885   1.388
26468W        W93536   6.349   0.301  12.483
26469W        W93537  21.099   9.282   1.734
26470W        W93538   6.755  29.131  12.367
26471W        W93539  26.620  27.962   1.444
26472W        W93540  41.350  34.045   3.869
26473W        W93541  10.746  21.064   5.296
26474W        W93542  19.534  11.233   0.823
26475W        W93543  39.456  10.663   4.776
26476W        W93544   6.757  27.591  11.079
26477W        W93545  21.564  20.623  12.548
26478W        W93546  15.283  37.494   3.357
26479W        W93547  25.615  10.306   4.703
26480W        W93548  39.376  14.604   4.765
26481W        W93549  43.770  22.126   4.265
26482W        W93550  34.399  19.543   4.761
26483W        W93551  32.559  19.582  12.947
26484W        W93552  14.603  23.523   4.740
26485W        W93553   9.387   4.808  13.795
26486W        W93554  36.945  17.292  12.539
26487W        W93555  42.503  24.007   0.403
26488W        W93556   9.890   6.294   3.841
26489W        W93557  28.010  41.453   2.238
26490W        W93558   5.788   2.960   0.792
26491W        W93559  29.550  11.245  10.527
26492W        W93560  24.083  23.175   0.268
26493W        W93561   5.263   1.402  13.420
26494W        W93562  35.392  17.618   3.206
26495W        W93563  26.208  28.988   3.329
26496W        W93564  20.143  38.909   1.335
26497W        W93565  44.333   7.755   4.811
26498W        W93566   2.447  32.035  12.874
26499W        W93567  27.024  10.768   3.273
26500W        W93568   6.318  12.829   5.188
26501W        W93569  38.886  12.293  11.462
26502W        W93570  25.572   8.789  12.994
26503W        W93571   1.885  39.869   1.321
26504W        W93572   2.767  29.527   2.323
26505W        W93573  29.100   2.254   2.689
26506W        W93574  20.581  26.508   1.398
26507W        W93575  38.888  31.620   4.153
26508W        W93576  36.890  14.242  10.983
26509W        W93577  11.762  10.754   2.209
26510W        W93578  17.202  11.804  14.378
26511W        W93579  21.053  36.072   1.787
26512W        W93580  31.547  28.132  11.866
26513W        W93581   7.183   6.355   2.300
26514W        W93582   2.452  32.391  14.874
26515W        W93583   5.749  13.321   2.189
26516W        W93584  15.772  22.138  13.964
26517W        W93585   7.877  16.105   4.273
26518W        W93586  35.563  23.009  12.096
26519W        W93587  39.349  30.446  11.019
26520W        W93588  18.227  22.634  10.452
26521W        W93589  27.034  12.286  14.293
26522W        W93590  19.668  35.976  13.955
26523W        W93591  16.254  36.390  10.547
26524W        W93592  34.023  19.197  13.907
26525W        W93593  35.084  21.234   3.670
26526W        W93594  31.488   7.255  13.335
26527W        W93595  36.000  26.085   2.410
26528W        W93596  10.273  16.786  13.542
26529W        W93597  44.290  30.043   0.318
26530W        W93598  20.658  34.536  13.330
26531W        W93599  44.828  21.573   3.341
26532W        W93600   5.315  29.503   0.380
26533W        W93601  37.083  14.150   2.773
26534W        W93602   6.408  37.411   0.925
26535W        W93603  18.569  31.632  10.635
26536W        W93604   9.876  38.961   1.868
26537W        W93605  35.997  29.044   1.756
26538W        W93606   2.787   7.683   2.343
26539W        W93607  42.456  28.166   1.294
26540W        W93608  16.250  34.376   0.344
26541W        W93609  31.454  41.795   1.850
26542W        W93610  34.935   1.770  13.993
26543W        W93611   2.430  38.490  14.320
26544W        W93612  28.645  37.969   3.259
26545W        W93613  34.946   8.877  14.421
26546W        W93614   7.686  42.467  10.550
26547W        W93615   7.865  44.348   4.832
26548W        W93616   9.656   5.302   3.781
26549W        W93617  28.477   8.767   4.152
26550W        W93618  35.972  38.850   3.258
26551W        W93619  11.645  37.541  12.532
26552W        W93620  23.521   2.950   2.686
26553W        W93621  25.078   5.343   4.650
26554W        W93622  19.220   8.681   0.369
26555W        W93623  17.271  26.489   0.328
26556W        W93624  14.268   0.748  12.894
26557W        W93625  40.936  27.576   3.353
26558W        W93626  34.383  29.589  14.764
26559W        W93627   7.382  24.153  11.923
26560W        W93628  14.758  19.040  14.488
26561W        W93629  10.803   4.916  13.026
26562W        W93630  16.601  18.777  13.452
26563W        W93631  34.501   4.758  11.097
26564W        W93632  10.774  35.580   3.281
26565W        W93633  37.378  24.561   1.319
26566W        W93634  17.673  42.392   0.366
26567W        W93635  41.888   1.244  11.074
26568W        W93636   8.317   1.305   1.722
26569W        W93637  32.602   9.863   3.303
26570W        W93638  34.054  24.007   1.759
26571W        W93639  37.997  28.966   4.599
26572W        W93640  35.991  31.073  11.089
26573W        W93641  11.167  26.674  10.494
26574W        W93642  10.332  22.058   3.239
26575W        W93643  34.580  28.937  13.003
26576W        W93644  15.637  23.177  10.492
26577W        W93645  29.573  32.004   3.830
26578W        W93646  43.337  34.381   3.238
26579W        W93647  22.541  43.781  12.542
26580W        W93648  20.621  11.164   0.861
26581W        W93649   8.184  18.094  12.570
26582W        W93650  27.097  29.641   4.163
26583W        W93651   6.883  14.119  11.098
26584W        W93652  21.676  19.744  14.833
26585W        W93653  19.552  21.263  12.984
26586W        W93654  36.888  28.561   2.215
26587W        W93655   1.946  38.462  14.951
26588W        W93656  41.973   4.220   3.661
26589W        W93657  40.315   6.830  14.030
26590W        W93658  25.619  27.943   4.640
26591W        W93659  44.787  27.160  11.433
26592W        W93660  15.605  30.911  12.380
26593W        W93661  11.160  33.523  14.821
26594W        W93662   5.751  18.662   1.699
26595W        W93663  36.571  24.110  14.885
26596W        W93664  34.612  13.843  12.356
26597W        W93665  14.267  11.144  14.508
26598W        W93666  26.699  27.578   3.630
26599W        W93667  35.036  35.991  12.041
26600W        W93668   2.457  30.992  13.889
26601W        W93669  27.675   4.722  10.455
26602W        W93670  10.743  35.866  12.559
26603W        W93671   1.393  28.174   2.773
26604W        W93672  17.273   5.852  11.556
26605W        W93673  44.952   4.218  11.381
26606W        W93674   1.249  36.447  11.382
26607W        W93675  40.015   3.883  14.798
26608W        W93676   5.319   4.277  12.009
26609W        W93677  11.798   7.848  14.300
26610W        W93678   0.349  40.531  14.280
26611W        W93679   0.396  25.989  12.462
26612W        W93680   6.232   5.786   2.722
26613W        W93681   7.360  30.950  13.865
26614W        W93682  15.284  31.473   4.719
26615W        W93683  17.693   9.238  11.582
26616W        W93684  44.378  10.783  13.522
26617W        W93685  39.414  23.091   0.367
26618W        W93686  34.508  40.821   1.807
26619W        W93687  29.551  22.542  11.119
26620W        W93688  41.456  35.937   2.325
26621W        W93689   9.689  10.653  10.630
26622W        W93690   0.304   5.857   2.800
26623W        W93691  34.392  17.216  14.477
26624W        W93692  42.997  36.066  14.296
26625W        W93693  27.485  16.112  14.375
26626W        W93694  33.978  36.962   3.678
26627W        W93695  40.323  36.012   1.221
26628W        W93696  27.023  37.890   0.904
26629W        W93697  15.118  22.148  11.010
26630W        W93698  44.978  39.418  10.490
26631W        W93699  31.424  39.923   1.340
26632W        W93700  23.046   1.793  13.866
26633W        W93701   6.724  27.530  12.374
26634W        W93702  44.845   8.837  12.480
26635W        W93703  22.083  17.300   1.794
26636W        W93704  34.019  27.666   3.377
26637W        W93705   3.916  38.377  13.881
26638W        W93706   2.860  37.972  12.846
26639W        W93707  12.288   1.472   0.415
26640W        W93708  16.778  28.932   3.160
26641W        W93709  19.258  37.983   3.195
26642W        W93710   5.898  36.863  14.926
26643W        W93711  12.304  30.079  10.515
26644W        W93712   1.388   7.716   0.917
26645W        W93713   5.261  14.191  11.907
26646W        W93714  25.658  40.831  13.483
26647W        W93715  26.518  32.972   0.334
26648W        W93716  28.177  33.953  13.975
26649W        W93717  39.988   7.302  13.005
26650W        W93718   5.345  41.956  11.557
26651W        W93719  38.055  38.939   3.779
26652W        W93720  19.240  28.583  12.000
26653W        W93721   1.345  23.587  14.277
26654W        W93722  12.189  21.705  11.055
26655W        W93723  11.673   0.268  14.806
26656W        W93724  18.611  23.522  12.871
26657W        W93725  22.543  33.404   2.240
26658W        W93726   1.770  41.297   2.289
26659W        W93727   9.150  28.478   3.636
26660W        W93728  18.757  10.688   0.444
26661W        W93729   7.350   2.951   1.780
26662W        W93730  40.483   8.310  13.827
26663W        W93731   2.809  44.438   3.656
26664W        W93732  43.769  38.486   0.829
26665W        W93733  34.106  18.621  11.116
26666W        W93734  30.416   0.917   2.331
26667W        W93735   8.191   7.678   2.769
26668W        W93736  31.537  13.735   5.681
26669W        W93737  43.510  11.216  11.111
26670W        W93738   9.353   5.760  10.035
26671W        W93739  39.394  44.334   1.432
26672W        W93740  26.087  17.772  13.547
26673W        W93741  30.609  33.546  11.383
26674W        W93742  17.685   8.213  10.998
26675W        W93743   6.713  18.660   0.294
26676W        W93744   9.767  15.192   0.380
26677W        W93745   0.759  17.137   2.289
26678W        W93746  28.991  12.354  13.378
26679W        W93747   4.244  13.162  13.049
26680W        W93748  15.735  20.643   2.871
26681W        W93749  27.129  38.355   3.314
26682W        W93750  41.893   7.349   1.907
26683W        W93751   6.241   2.378   4.290
26684W        W93752  35.532  23.490   2.869
26685W        W93753  22.177  13.653  14.789
26686W        W93754  11.694  34.582  11.474
26687W        W93755   0.324  42.988   3.659
26688W        W93756  23.664  43.513  12.064
26689W        W93757  16.702   0.918   2.664
26690W        W93758  33.451  34.424  11.999
26691W        W93759   0.787  36.967   2.742
26692W        W93760  35.049   0.951   1.422
26693W        W93761  25.070  25.622  11.940
26694W        W93762  16.110  43.898   2.850
26695W        W93763   7.840  44.401   3.146
26696W        W93764  17.642   1.970  12.964
26697W        W93765  26.672  40.889   4.672
26698W        W93766   3.446  13.663   3.224
26699W        W93767  30.019  24.681  10.618
26700W        W93768  42.285  32.626   0.372
26701W        W93769   0.467  38.349  13.392
26702W        W93770  20.236  39.869   1.224
26703W        W93771  30.124  10.842  10.923
26704W        W93772  38.555  24.167   2.294
26705W        W93773  11.808  37.403  13.353
26706W        W93774   3.302  35.000   0.338
26707W        W93775   6.206   4.879  11.984
26708W        W93776   5.319  12.260   2.327
26709W        W93777  25.526  11.169  10.546
26710W        W93778  34.485  21.190   2.232
26711W        W93779  18.268  22.203  10.008
26712W        W93780  20.741  33.037  13.820
26713W        W93781  30.072  36.992   4.603
26714W        W93782   0.279  26.641  11.115
26715W        W93783  12.253   9.209   0.457
26716W        W93784   8.357  20.265  14.387
26717W        W93785   2.774  16.603  13.490
26718W        W93786  37.035   4.339   2.787
26719W        W93787   6.753  28.550   2.366
26720W        W93788   5.333  38.855  10.534
26721W        W93789  31.047   0.412  14.300
26722W        W93790  31.117  33.063   4.239
26723W        W93791  26.642  41.988   3.679
26724W        W93792  27.579  39.530   4.610
26725W        W93793  22.525  40.974   0.881
26726W        W93794  21.215  33.095   0.339
26727W        W93795   9.340  38.036  15.000
26728W        W93796   9.269  44.782   3.829
26729W        W93797  21.218  12.342   0.733
26730W        W93798  30.003  18.684  14.434
26731W        W93799  28.611  13.265  11.061
26732W        W93800   1.817  35.536   1.779
26733W        W93801  36.098   6.334   3.267
26734W        W93802  44.948  14.698  10.517
26735W        W93803  27.023  27.972   1.392
26736W        W93804   3.758   6.414  11.128
26737W        W93805   2.365  22.009   0.357
26738W        W93806   5.399  40.478  10.038
26739W        W93807  43.428  30.594   0.928
26740W        W93808   5.255  33.912  13.982
26741W        W93809  20.190  21.200  10.477
26742W        W93810  35.998  16.204   0.729
26743W        W93811  11.336  23.014  10.476
26744W        W93812  21.079   1.756  13.914
26745W        W93813  20.237  19.671   3.716
26746W        W93814   2.843  15.255  13.952
26747W        W93815  33.508  35.916  14.456
26748W        W93816   7.859  36.000  12.414
26749W        W93817  29.589  37.467   2.201
26750W        W93818  13.330  10.635  13.518
26751W        W93819  32.926  27.536   3.384
26752W        W93820  34.448  29.020   1.729
26753W        W93821  44.777  25.203  10.604
26754W        W93822   0.743   4.293   3.787
26755W        W93823  34.977  22.102  11.960
26756W        W93824  25.581   4.308   4.216
26757W        W93825   8.803  20.052   5.090
26758W        W93826  35.074  31.953   2.806
26759W        W93827   5.895  19.244  12.504
26760W        W93828  25.076  19.120  12.002
26761W        W93829  26.121   8.184   0.365
26762W        W93830  40.810   1.380   2.840
26763W        W93831  13.663  18.146  14.379
26764W        W93832  35.466  16.727   0.420
26765W        W93833  15.651  15.578   0.768
26766W        W93834  30.079  25.098   1.769
26767W        W93835  14.112  13.807  12.446
26768W        W93836   5.749  21.116  14.011
26769W        W93837  24.586  24.040   1.348
26770W        W93838  25.508   8.367  11.506
26771W        W93839  26.056  28.643   1.831
26772W        W93840  30.026  14.638  13.905
26773W        W93841  17.572  16.137  13.016
26774W        W93842  22.718  31.575  10.156
26775W        W93843   6.237  37.057   1.924
26776W        W93844  28.990  36.010  10.077
26777W        W93845  42.358  23.686  11.105
26778W        W93846  43.829  36.033  12.950
26779W        W93847  13.156  41.814   0.913
26780W        W93848  15.789  32.436   0.422
26781W        W93849  25.617  42.022   2.727
26782W        W93850  17.172   2.854   3.822
26783W        W93851  12.243  18.770  13.446
26784W        W93852  34.559   1.868   0.354
26785W        W93853  19.557  34.381  11.374
26786W        W93854  30.637  20.227  13.919
26787W        W93855  41.447  23.716  14.334
26788W        W93856  18.185   3.931  12.376
26789W        W93857   2.923  31.420  13.436
26790W        W93858  29.566  13.255   3.165
26791W        W93859   3.288  28.440   0.860
26792W        W93860  37.085  31.474  13.040
26793W        W93861  35.404  20.643   3.788
26794W        W93862  38.421  27.171  14.284
26795W        W93863  30.156  11.811  14.805
26796W        W93864  40.382  22.638  11.914
26797W        W93865  38.415  21.057   9.972
26798W        W93866  43.858   7.367   1.819
26799W        W93867  18.167  33.545  12.341
26800W        W93868  17.710   1.942  14.788
26801W        W93869  15.264  34.608   3.706
26802W        W93870  15.122   7.746  10.630
26803W        W93871  13.232  33.969  12.533
26804W        W93872   8.349  40.516  10.449
26805W        W93873   7.246  38.443  12.464
26806W        W93874  39.488  25.028  12.087
26807W        W93875  24.533   9.800   1.293
26808W        W93876  15.745  29.429  11.953
26809W        W93877  42.980  21.127   0.834
26810W        W93878  29.550  18.264   0.851
26811W        W93879  32.920  10.812  13.499
26812W        W93880  20.741  32.489  13.039
26813W        W93881  37.487  26.612  12.532
26814W        W93882  19.228  38.992  14.860
26815W        W93883  28.609   2.900  12.989
26816W        W93884  25.595   8.748   1.699
26817W        W93885  42.465  12.852  10.964
26818W        W93886  42.303  37.546   2.874
26819W        W93887  17.744  35.536  14.353
26820W        W93888   0.481   4.923   0.276
26821W        W93889  14.183  33.392   4.715
26822W        W93890  17.269  10.293  13.839
26823W        W93891  36.857  42.318   2.690
26824W        W93892   0.253   8.383   4.813
26825W        W93893  41.028  19.135   3.655
26826W        W93894  28.984  24.096  11.082
26827W        W93895   3.360  20.245   3.854
26828W        W93896  20.267  28.989  13.031
26829W        W93897  35.086  11.754  14.976
26830W        W93898  24.096  27.544  12.081
26831W        W93899   9.750  22.995   1.892
26832W        W93900   5.306  33.992   2.728
26833W        W93901  31.553  34.004   2.806
26834W        W93902   8.292  29.123  13.022
26835W        W93903  36.405   0.783   4.222
26836W        W93904  30.157  10.291  14.367
26837W        W93905  10.247  25.578  13.845
26838W        W93906   9.199   0.967   3.353
26839W        W93907  21.042  39.360  10.505
26840W        W93908  10.807  26.021   1.253
26841W        W93909   0.359  39.412  11.961
26842W        W93910  18.074  41.362   4.654
26843W        W93911   2.734  31.023  11.967
26844W        W93912  37.574  20.213  11.599
26845W        W93913  40.542  29.061   1.233
26846W        W93914  32.978   6.917  14.275
26847W        W93915  44.451   5.887   3.288
26848W        W93916  32.595  43.982  13.985
26849W        W93917  16.721   1.773   0.766
26850W        W93918   8.893  31.951   1.906
26851W        W93919  28.676  37.085   0.840
26852W        W93920  39.015  16.797  11.384
26853W        W93921  16.620   9.357  11.105
26854W        W93922  39.313  14.667   4.214
26855W        W93923  42.333  39.541  13.953
26856W        W93924   4.770   5.268  12.481
26857W        W93925   6.344   4.450  14.332
26858W        W93926   4.351  22.118   0.887
26859W        W93927  39.023  35.867   2.180
26860W        W93928   5.763  33.577   3.871
26861W        W93929  12.847  27.982   3.716
26862W        W93930  30.452  15.588  13.420
26863W        W93931  29.983   7.708  13.051
26864W        W93932  26.958  13.732  13.324
26865W        W93933  12.774   0.811   5.202
26866W        W93934  36.584   9.289   1.328
26867W        W93935  17.300   5.195   1.820
26868W        W93936  32.440  13.790   3.376
26869W        W93937  41.901   2.819   2.837
26870W        W93938  26.560  12.237  12.899
26871W        W93939  18.621  29.548   0.344
26872W        W93940  18.604  36.463  12.054
26873W        W93941  18.784  30.050  12.540
26874W        W93942  16.201  23.563   5.171
26875W        W93943  33.548  34.582   3.297
26876W        W93944  18.109  35.078   1.351
26877W        W93945  17.071  24.214   0.752
26878W        W93946  15.213  15.755  13.044
26879W        W93947  18.787  14.130  12.854
26880W        W93948   2.295  44.899   3.696
26881W        W93949  38.486  34.921   3.204
26882W        W93950  23.098  27.630   4.202
26883W        W93951  42.879  38.997   0.776
26884W        W93952  40.823  44.804  14.949
26885W        W93953  15.665  12.338  12.940
26886W        W93954  22.053  14.820  11.423
26887W        W93955  26.660  21.046  10.970
26888W        W93956  30.618  36.358   1.333
26889W        W93957  30.141  36.395  14.392
26890W        W93958  23.597  38.964   3.335
26891W        W93959  12.167  31.941   4.623
26892W        W93960  26.511  42.390   0.812
26893W        W93961  24.226   3.267   5.304
26894W        W93962   5.330   5.806   4.216
26895W        W93963   9.655  15.581  14.948
26896W        W93964  41.883  13.736  13.313
26897W        W93965  34.611  39.394  11.905
26898W        W93966  16.652  42.385   3.701
26899W        W93967   3.302  27.688   2.763
26900W        W93968  22.050  42.293   1.765
26901W        W93969  33.919   0.866   3.162
26902W        W93970   8.721  37.479   2.811
26903W        W93971  44.911  34.537   4.118
26904W        W93972  31.909  33.905   0.393
26905W        W93973   1.753  43.813   3.333
26906W        W93974  43.298   6.228  14.016
26907W        W93975  24.701  10.876  12.521
26908W        W93976  33.392  10.340  13.353
26909W        W93977   8.346  21.260   0.763
26910W        W93978  42.416  38.826  11.873
26911W        W93979  44.278   2.281  14.950
26912W        W93980  13.833  26.180  10.549
26913W        W93981  27.538  13.134   0.438
26914W        W93982  44.377   3.807   3.147
26915W        W93983   9.318  35.991   1.266
26916W        W93984  31.497  24.617   1.907
26917W        W93985  28.673  31.915   4.826
26918W        W93986  43.800  16.784   2.351
26919W        W93987  10.219   1.455   0.422
26920W        W93988  42.781  10.246  12.518
26921W        W93989  25.202  16.626  10.552
26922W        W93990  27.988  21.731  13.849
26923W        W93991  15.310  36.029   4.658
26924W        W93992   1.815  16.593   2.662
26925W        W93993  43.988  40.989   1.334
26926W        W93994  33.107   0.889  12.908
26927W        W93995  37.569  23.097   3.769
26928W        W93996  12.751  22.600  11.066
26929W        W93997  20.251   6.801   4.712
26930W        W93998  21.184  18.110   1.328
26931W        W93999  32.588  27.991  14.396
26932W        W94000  26.967  25.711  10.572
26933W        W94001   7.340   6.314   1.922
26934W        W94002   7.809  42.776  13.054
26935W        W94003   8.252  11.789  13.464
26936W        W94004  26.152  20.732   1.831
26937W        W94005  17.250  33.385   1.331
26938W        W94006  21.692  29.109   1.357
26939W        W94007   8.393   0.295  14.974
26940W        W94008  20.259  16.080  14.927
26941W        W94009  24.701   5.753  10.545
26942W        W94010   3.731  39.328  14.866
26943W        W94011  17.274  19.051   2.697
26944W        W94012  29.447  14.338  12.030
26945W        W94013  13.283  23.183   0.732
26946W        W94014  10.740  12.809   2.872
26947W        W94015  21.201  29.455   1.268
26948W        W94016   7.784  12.126  11.438
26949W        W94017  28.586   3.265  11.582
26950W        W94018  10.342  42.403  12.474
26951W        W94019  39.542  32.042  10.984
26952W        W94020   4.243  41.297  14.951
26953W        W94021  36.088   3.274   0.773
26954W        W94022   2.341  43.998   4.250
26955W        W94023  29.465  28.669   3.201
26956W        W94024  38.022  39.372   1.849
26957W        W94025   8.851  43.460   2.900
26958W        W94026  20.729  15.112   2.835
26959W        W94027  44.404  19.108   3.188
26960W        W94028  15.295   4.321   4.219
26961W        W94029  39.349  12.704   3.808
26962W        W94030   1.376  42.894   1.268
26963W        W94031  25.974  43.015   4.762
26964W        W94032  32.515  38.849  10.473
26965W        W94033  34.967   5.814  12.836
26966W        W94034  29.555   4.816   1.835
26967W        W94035  28.020  35.056  10.598
26968W        W94036  21.041  30.004  14.429
26969W        W94037  31.420  28.032  13.509
26970W        W94038  21.044  16.169  12.529
26971W        W94039   8.225  14.650   3.386
26972W        W94040  24.638  15.801   3.753
26973W        W94041   5.383  21.158  13.800
26974W        W94042  16.620  35.486   0.437
26975W        W94043  16.259  31.648   1.732
26976W        W94044  21.140  17.140  14.015
26977W        W94045   5.222  17.555  13.370
26978W        W94046   8.355  37.483  13.998
26979W        W94047  24.544   8.833   1.812
26980W        W94048   9.352  27.507   4.776
26981W        W94049  10.239  23.633  13.385
26982W        W94050  32.573  11.852  11.392
26983W        W94051   1.355  24.574  12.034
26984W        W94052   7.402  22.540  13.419
26985W        W94053  25.706   4.249   1.709
26986W        W94054  42.971   4.400  10.540
26987W        W94055  21.112  25.072  11.941
26988W        W94056   8.211  21.682   2.874
26989W        W94057  13.795   2.446  10.486
26990W        W94058  30.539  11.621   3.871
26991W        W94059  41.897  36.422   2.664
26992W        W94060   6.423   3.877   4.772
26993W        W94061  22.541   6.279  13.371
26994W        W94062   4.786  44.809  13.543
26995W        W94063  22.213  42.805  10.502
26996W        W94064  31.573  36.852   3.302
26997W        W94065   5.733  44.820  12.932
26998W        W94066   6.233  24.490   3.217
26999W        W94067  42.855  24.494  10.908
27000W        W94068  35.939  44.962   0.376
27001W        W94069  23.990   4.896   4.808
27002W        W94070  39.990  28.609  14.975
27003W        W94071  26.963  11.218  11.527
27004W        W94072  39.853   1.394   0.356
27005W        W94073  13.123  34.020  10.451
27006W        W94074  44.445  16.719  12.441
27007W        W94075  25.081  29.507   1.916
27008W        W94076  28.982  23.090  10.957
27009W        W94077   4.356  19.777  11.472
27010W        W94078  23.040  43.407   2.251
27011W        W94079  43.918  26.518   1.843
27012W        W94080   6.428  20.126   4.122
27013W        W94081   8.258  20.652  11.442
27014W        W94082  19.042  29.122  11.418
27015W        W94083  16.694  11.303  13.418
27016W        W94084  39.031  23.157   4.115
27017W        W94085  29.598   1.253  13.401
27018W        W94086   9.246   1.408   1.852
27019W        W94087   1.742  27.020   2.190
27020W        W94088   8.719  30.578  11.921
27021W        W94089   1.265  31.450   0.944
27022W        W94090  38.391  10.712   0.458
27023W        W94091  28.586  43.794  12.448
27024W        W94092  23.588  23.693  13.340
27025W        W94093  21.655  19.121  14.013
27026W        W94094  33.940  26.979  14.451
27027W        W94095  10.157  19.058  12.937
27028W        W94096  20.110  19.561  13.830
27029W        W94097  42.820   4.375   3.242
27030W        W94098  28.034  31.127  14.010
27031W        W94099  22.744   1.966   1.315
27032W        W94100  44.762  19.229   2.809
27033W        W94101  35.402   5.878   0.356
27034W        W94102  34.014   7.291   0.764
27035W        W94103  10.854  37.359  10.457
27036W        W94104  14.710  14.802   2.317
27037W        W94105  44.292  43.842   3.646
27038W        W94106  36.868  10.296   1.268
27039W        W94107   6.826  31.408  11.427
27040W        W94108  29.622  39.558   1.824
27041W        W94109  25.583  18.728  14.445
27042W        W94110  37.850   0.460   1.928
27043W        W94111  18.270  31.113   3.692
27044W        W94112  19.105  37.359  11.120
27045W        W94113  13.780  34.433  13.425
27046W        W94114  13.645   8.310  12.552
27047W        W94115   9.233   5.782  13.816
27048W        W94116  26.205  13.765  11.595
27049W        W94117  21.663  37.893   5.094
27050W        W94118  39.062   5.719  14.888
27051W        W94119  33.458  42.865  14.407
27052W        W94120   1.795  20.138   3.183
27053W        W94121  12.207  42.485  14.914
27054W        W94122  18.168  20.172   1.728
27055W        W94123  40.965  41.524  12.843
27056W        W94124  21.722  35.867  13.315
27057W        W94125   6.214   4.735   3.295
27058W        W94126  31.965  43.893   0.754
27059W        W94127  10.766  26.171  14.277
27060W        W94128  20.166   9.816   4.227
27061W        W94129  29.530  25.097  11.422
27062W        W94130  31.497  39.511  10.994
27063W        W94131  12.777  32.031   1.411
27064W        W94132  44.784  36.487   4.711
27065W        W94133  10.873  15.711   2.798
27066W        W94134  11.139  44.475   1.451
27067W        W94135   6.707  41.426  12.858
27068W        W94136  11.733  11.361  11.886
27069W        W94137  14.795  11.751  13.398
27070W        W94138  24.138  24.572   4.256
27071W        W94139  16.649  23.586   1.860
27072W        W94140  18.121  11.851   2.893
27073W        W94141  26.082  14.253  13.518
27074W        W94142  34.374   9.676  12.580
27075W        W94143  28.017  10.144   3.666
27076W        W94144  21.723  38.487   3.220
27077W        W94145   6.746  41.309  14.940
27078W        W94146  34.395  19.260   1.763
27079W        W94147  30.066  30.550   2.869
27080W        W94148  29.000   9.364  12.012
27081W        W94149  28.041  26.520   3.813
27082W        W94150  41.532   8.171  14.960
27083W        W94151   7.870   5.877  12.404
27084W        W94152  22.556  22.093  14.421
27085W        W94153  37.529  44.264   2.348
27086W        W94154   8.353   0.973  13.965
27087W        W94155  17.569  43.443   2.222
27088W        W94156  26.614  26.965   3.802
27089W        W94157  41.794  16.191   2.802
27090W        W94158  17.280   6.848   0.919
27091W        W94159  19.712  21.696  11.460
27092W        W94160  41.401   3.456  12.047
27093W        W94161  22.649  35.460  11.430
27094W        W94162  24.523  30.539   0.800
27095W        W94163  29.986  10.850   0.425
27096W        W94164  28.545  25.022   4.599
27097W        W94165  40.045  29.019   3.847
27098W        W94166  28.093   1.763   9.951
27099W        W94167  26.051  43.337   4.151
27100W        W94168  34.024  35.561  13.990
27101W        W94169  27.971  24.482   2.713
27102W        W94170  39.456  30.446   1.287
27103W        W94171  44.920  40.837   3.866
27104W        W94172  28.607  13.113   0.470
27105W        W94173  30.998  21.670  14.414
27106W        W94174   1.941  43.974   2.719
27107W        W94175  31.975  26.520  11.919
27108W        W94176  42.482  26.063  13.434
27109W        W94177  35.394   6.254   2.289
27110W        W94178  34.081  37.008  11.000
27111W        W94179  21.027  16.616   4.828
27112W        W94180  17.254  18.131  10.521
27113W        W94181  42.818   4.725   0.415
27114W        W94182  41.827  35.537   4.616
27115W        W94183  34.995  43.986  14.861
27116W        W94184  10.848   6.244  10.518
27117W        W94185  24.991  16.748   3.291
27118W        W94186  39.937  14.805   4.186
27119W        W94187   3.267  11.709  14.768
27120W        W94188  16.601  23.054  11.937
27121W        W94189   2.420  37.065  12.933
27122W        W94190   6.185  16.727   0.874
27123W        W94191   7.791  17.648   5.095
27124W        W94192  12.721   3.914  10.477
27125W        W94193  14.319   7.386   4.154
27126W        W94194  43.347  13.650  13.438
27127W        W94195  12.660  42.975  13.896
27128W        W94196   7.240  26.507  12.349
27129W        W94197  14.648  31.406   3.187
27130W        W94198   9.151  40.029  10.069
27131W        W94199  21.756  35.447   3.761
27132W        W94200  11.858  12.715  12.523
27133W        W94201  12.721  32.101  12.457
27134W        W94202  40.403  24.710  10.489
27135W        W94203  33.384  36.575  11.860
27136W        W94204  20.032  22.185   1.238
27137W        W94205  16.295  42.352   0.860
27138W        W94206   2.354   7.238  14.761
27139W        W94207   8.839   2.346  14.456
27140W        W94208  28.512  33.607   4.347
27141W        W94209  21.080  39.019   3.630
27142W        W94210  34.503   9.154   3.647
27143W        W94211  37.341  36.444   4.305
27144W        W94212  43.867  25.502  14.911
27145W        W94213  37.012   9.327  10.532
27146W        W94214  19.145  21.183  13.796
27147W        W94215  39.320  18.104   0.398
27148W        W94216  43.363  13.188   0.411
27149W        W94217  44.878  11.210   0.942
27150W        W94218   7.818  37.895   4.813
27151W        W94219  33.888   1.769  10.591
27152W        W94220  22.700  44.404   4.771
27153W        W94221  28.539  17.160  10.565
27154W        W94222   1.766   9.822  10.942
27155W        W94223   9.389  12.244  13.489
27156W        W94224  12.278  39.989  12.023
27157W        W94225  20.096  41.429  14.813
27158W        W94226  37.962  25.704  14.984
27159W        W94227   3.220  34.117  11.586
27160W        W94228  10.317  35.093  11.124
27161W        W94229  12.816  38.351  11.468
27162W        W94230  25.566  36.479   2.192
27163W        W94231  26.504  12.217   4.308
27164W        W94232  27.109  40.906  14.427
27165W        W94233  21.165  28.628  13.430
27166W        W94234  13.625   4.400  11.549
27167W        W94235  19.156  23.005   2.667
27168W        W94236  31.500  15.320  13.860
27169W        W94237  29.163  29.435   4.124
27170W        W94238   2.326  23.631   4.800
27171W        W94239  23.984   7.762   1.823
27172W        W94240   0.422   0.321   4.821
27173W        W94241  42.814  28.027  14.356
27174W        W94242  44.007  26.178  14.279
27175W        W94243   9.724  29.952   4.265
27176W        W94244   3.761  22.682   1.349
27177W        W94245  35.956  37.546  12.990
27178W        W94246  26.551  20.260  13.537
27179W        W94247   7.699  37.493   2.369
27180W        W94248  20.718  24.156  13.034
27181W        W94249  15.757   7.267   2.241
27182W        W94250  42.405  21.678  12.543
27183W        W94251   9.381  35.444  14.469
27184W        W94252  41.821  36.408  14.840
27185W        W94253  40.833  41.333  13.352
27186W        W94254   3.720  37.341  13.461
27187W        W94255  24.532  40.802  11.023
27188W        W94256  28.519  31.900   1.262
27189W        W94257   9.387  27.120  11.867
27190W        W94258  18.143   6.804  13.350
27191W        W94259   1.267  38.474   3.146
27192W        W94260  30.473  34.916  12.943
27193W        W94261  27.645  11.764   2.219
27194W        W94262  34.976  28.005  12.507
27195W        W94263  20.157  35.380  11.438
27196W        W94264   0.350  13.172  11.076
27197W        W94265  15.758  31.537  11.986
27198W        W94266   8.727  40.320   1.441
27199W        W94267  18.210  16.298   1.731
27200W        W94268  12.635  44.976   4.241
27201W        W94269  39.008   1.905   2.666
27202W        W94270  10.667  18.288   3.270
27203W        W94271  24.118  29.046   1.804
27204W        W94272  13.617  30.153  12.412
27205W        W94273  44.778  34.436   1.249
27206W        W94274  30.082  30.443   0.862
27207W        W94275  41.021  10.750   3.320
27208W        W94276  38.832  14.160   1.326
27209W        W94277  27.456   9.670   3.201
27210W        W94278  32.517  24.114   2.333
27211W        W94279  34.531  24.025  11.022
27212W        W94280  30.592  16.757   1.248
27213W        W94281  33.625  40.994  12.464
27214W        W94282  19.055  35.872  11.998
27215W        W94283  33.079   8.656   1.287
27216W        W94284   5.436  29.023   2.669
27217W        W94285  38.430   0.491  12.397
27218W        W94286  37.385  32.141  13.841
27219W        W94287   6.368   6.281  10.893
27220W        W94288  43.514  37.921  11.010
27221W        W94289  15.183  22.244   0.817
27222W        W94290  38.978   5.857   3.265
27223W        W94291   3.270  12.291  11.596
27224W        W94292  40.957   9.212   2.755
27225W        W94293  16.791   2.381  11.973
27226W        W94294  42.359  35.078  12.493
27227W        W94295   1.281  38.971  13.808
27228W        W94296  19.755  33.126  14.966
27229W        W94297   3.903  22.233  14.310
27230W        W94298   0.955  19.254  10.891
27231W        W94299   0.311   3.342  10.902
27232W        W94300  29.132  44.903   0.315
27233W        W94301  37.470   3.301   1.433
27234W        W94302   2.261  16.173   4.616
27235W        W94303   6.290  32.453  11.485
27236W        W94304   2.293   4.836  14.366
27237W        W94305  21.221   5.841  11.978
27238W        W94306   7.350   3.878  14.432
27239W        W94307  24.487  32.444  11.549
27240W        W94308  20.205  20.171  12.954
27241W        W94309  23.595  37.870  12.946
27242W        W94310  38.871  15.290   0.911
27243W        W94311  36.867  20.177  13.334
27244W        W94312  23.049  11.276   0.881
27245W        W94313   9.206  27.196   3.771
27246W        W94314  18.760   8.325   3.161
27247W        W94315  39.324  18.050   3.351
27248W        W94316  13.832  17.256   4.298
27249W        W94317  38.473  35.091  12.895
27250W        W94318  26.004  11.765   3.750
27251W        W94319  41.342  16.666   3.793
27252W        W94320  39.950  13.601   2.872
27253W        W94321  14.712   3.859   3.264
27254W        W94322   2.303  16.077  14.018
27255W        W94323   2.336  30.458  12.568
27256W        W94324  11.180  37.935  14.021
27257W        W94325  27.138   2.312  11.036
27258W        W94326  31.493  33.494   1.872
27259W        W94327  22.215  31.045  14.962
27260W        W94328  20.266   6.845   2.704
27261W        W94329  26.523   9.773   2.341
27262W        W94330   2.842  25.000  14.306
27263W        W94331  35.599  42.394   2.835
27264W        W94332  15.137  35.867   3.839
27265W        W94333  40.454  40.352   9.941
27266W        W94334   6.305   9.273   3.707
27267W        W94335  34.549  43.507  13.476
27268W        W94336   5.747  23.179   1.232
27269W        W94337   8.746  21.631  11.064
27270W        W94338   1.964  37.959   2.366
27271W        W94339   0.376   4.714  10.452
27272W        W94340   1.304  17.121  14.322
27273W        W94341  23.578  35.034   1.749
27274W        W94342  39.352  34.466  14.025
27275W        W94343  30.429  20.601  11.936
27276W        W94344   0.758  29.944   4.261
27277W        W94345  28.057  31.111   0.273
27278W        W94346  37.373  35.085   4.280
27279W        W94347  20.711  33.967   0.928
27280W        W94348  29.054  14.205   1.851
27281W        W94349  40.394  19.118  10.910
27282W        W94350  33.087  11.334   1.862
27283W        W94351  14.783  39.524   3.803
27284W        W94352  17.690   6.896  12.568
27285W        W94353  42.856  13.721   1.709
27286W        W94354  20.051  18.098   2.409
27287W        W94355  12.161  44.881   3.290
27288W        W94356  18.119  38.947  10.463
27289W        W94357  28.587   4.387   3.866
27290W        W94358  21.573   3.440   0.767
27291W        W94359  21.096  34.054  12.015
27292W        W94360   1.437  25.605  13.916
27293W        W94361  11.675  44.917  12.458
27294W        W94362  13.799  35.050   1.901
27295W        W94363  22.606   2.776   3.838
27296W        W94364  24.678  23.157   4.623
27297W        W94365  23.569  22.722  13.884
27298W        W94366  21.044  28.666  10.950
27299W        W94367  38.997  39.957  11.431
27300W        W94368  14.803  28.070   4.217
27301W        W94369  35.946   7.882   1.440
27302W        W94370  23.638   6.765   4.247
27303W        W94371  34.493  21.034  11.478
27304W        W94372   2.326  33.385   1.930
27305W        W94373   9.748   1.936  13.456
27306W        W94374  27.103   1.376  12.401
27307W        W94375  31.567   3.340   1.252
27308W        W94376   5.438   2.858  11.443
27309W        W94377  21.729  20.551   3.238
27310W        W94378   5.416  34.613   2.748
27311W        W94379  21.065  41.799  10.568
27312W        W94380  22.131  43.381   0.379
27313W        W94381  38.356  10.777   2.183
27314W        W94382  32.988  39.345   3.745
27315W        W94383  31.411  35.955  13.317
27316W        W94384   6.777  18.124  11.965
27317W        W94385  27.541   7.215   3.261
27318W        W94386  28.006  25.058   2.289
27319W        W94387  10.366  18.761   0.292
27320W        W94388  32.602  22.097  13.368
27321W        W94389   8.745  10.784  11.531
27322W        W94390  10.633  38.354  13.410
27323W        W94391  14.118  43.331  14.278
27324W        W94392  30.125   2.252   1.336
27325W        W94393  31.606   0.455   0.785
27326W        W94394   9.153  23.191   2.379
27327W        W94395  32.014  41.357  11.428
27328W        W94396  21.735  19.230  12.955
27329W        W94397  43.511  34.979  14.835
27330W        W94398  38.992  36.901   2.691
27331W        W94399   7.211  27.540  12.886
27332W        W94400  22.699  32.571   0.966
27333W        W94401  18.117  44.317  14.956
27334W        W94402  32.488  36.951  13.035
27335W        W94403  26.620   0.826   0.383
27336W        W94404   9.298  34.395   4.696
27337W        W94405  13.109  30.012   1.421
27338W        W94406  33.903  27.557   9.495
27339W        W94407  41.835  29.512   1.367
27340W        W94408  31.121  43.313  14.010
27341W        W94409  31.126  25.603  12.959
27342W        W94410  37.971  31.942   4.134
27343W        W94411  38.400  17.227   4.250
27344W        W94412   3.282  10.780  12.575
27345W        W94413  13.836  26.142  13.859
27346W        W94414  43.866   3.226  10.498
27347W        W94415  40.472  13.177   3.731
27348W        W94416   7.342  34.422   3.800
27349W        W94417  43.818   1.469  11.476
27350W        W94418   9.828  13.158  13.354
27351W        W94419  22.252  30.630  14.923
27352W        W94420  32.119  23.223  14.946
27353W        W94421   4.941  13.343  12.025
27354W        W94422   9.239  33.429   4.127
27355W        W94423  25.000  13.704  13.845
27356W        W94424  22.523   6.819  10.560
27357W        W94425  30.594  37.018  12.911
27358W        W94426   9.375  34.498   2.724
27359W        W94427  10.219   4.713  12.380
27360W        W94428  34.540  14.326   2.843
27361W        W94429  26.579  10.699   0.795
27362W        W94430  23.584  39.883   0.876
27363W        W94431   6.314  16.591  10.485
27364W        W94432  28.087   1.975   4.205
27365W        W94433  10.338  41.953   5.306
27366W        W94434   9.789  12.753   1.243
27367W        W94435  24.657  13.309  11.517
27368W        W94436   2.416  11.183  11.519
27369W        W94437  17.701   8.392  13.039
27370W        W94438   6.376   5.300   0.957
27371W        W94439  38.423  40.923  11.075
27372W        W94440  41.390  40.857  11.426
27373W        W94441  13.233  33.072  13.840
27374W        W94442  17.275  33.003  11.124
27375W        W94443   3.326   7.758  11.502
27376W        W94444  41.847   4.810  10.039
27377W        W94445  26.091  33.986  11.041
27378W        W94446  17.081  22.549  11.055
27379W        W94447  40.421  29.028  12.998
27380W        W94448  10.854   5.324   0.339
27381W        W94449   6.780   0.958   1.331
27382W        W94450   5.332  23.135   1.239
27383W        W94451  13.119  42.290   4.212
27384W        W94452  44.825  35.007   3.231
27385W        W94453  35.499  17.149  13.531
27386W        W94454  40.402  29.071   1.894
27387W        W94455  41.943  33.438  12.405
27388W        W94456  24.096  22.607   3.203
27389W        W94457  20.759  44.267  13.517
27390W        W94458  31.096  18.257  13.953
27391W        W94459   9.333  10.800   2.689
27392W        W94460  30.097  11.320  11.525
27393W        W94461  30.475  34.121  14.823
27394W        W94462  39.041  43.511  13.056
27395W        W94463  32.401  43.877   3.280
27396W        W94464  10.642  25.649  10.891
27397W        W94465  19.081  19.270   0.933
27398W        W94466  34.482  20.638   2.845
27399W        W94467  31.560  17.148   0.303
27400W        W94468   9.310  12.329  13.878
27401W        W94469  18.635  10.332   2.800
27402W        W94470  14.159  33.029  10.949
27403W        W94471   4.309  36.472  10.967
27404W        W94472  27.125   0.347   0.454
27405W        W94473  43.977   9.359  13.897
27406W        W94474  29.632  27.682  13.842
27407W        W94475   1.469  40.978   1.326
27408W        W94476  40.929  43.467  11.903
27409W        W94477  10.670   9.842  11.599
27410W        W94478  19.198  43.322  13.019
27411W        W94479  12.695  37.558   9.979
27412W        W94480  36.537  19.556   5.160
27413W        W94481   1.914   3.285  10.638
27414W        W94482  17.185  18.680  14.885
27415W        W94483  44.362  44.817   0.956
27416W        W94484  33.964  39.031  12.011
27417W        W94485  27.066  42.796  10.121
27418W        W94486  29.040  18.676   4.744
27419W        W94487  28.585   5.926  10.972
27420W        W94488  43.780  27.542  10.504
27421W        W94489   3.745   4.317  11.100
27422W        W94490  39.031  30.521  13.874
27423W        W94491  33.049   9.313  12.562
27424W        W94492  18.198  16.682  11.413
27425W        W94493  41.407  37.853   1.284
27426W        W94494  10.318  28.065  13.508
27427W        W94495  18.695  11.679   3.281
27428W        W94496   1.454  39.882   3.809
27429W        W94497  21.536  36.571   3.224
27430W        W94498  38.989  29.482  14.409
27431W        W94499   5.882  38.359  12.859
27432W        W94500  44.438  27.186  13.419
27433W        W94501  32.106  18.778  11.996
27434W        W94502  39.383  36.512  12.497
27435W        W94503  38.903  36.566   0.887
27436W        W94504   4.782  14.156  13.370
27437W        W94505  17.706  30.628   4.303
27438W        W94506   0.359  21.107  12.957
27439W        W94507   8.892  23.614  11.598
27440W        W94508  13.107  18.123   4.313
27441W        W94509   7.712  10.383  10.969
27442W        W94510  13.819   4.811  12.565
27443W        W94511   5.227   1.738  10.999
27444W        W94512   7.309  22.087   4.225
27445W        W94513  22.105  36.051  12.881
27446W        W94514  38.874  13.602  10.602
27447W        W94515  25.044  13.732   2.325
27448W        W94516  13.715  24.696   0.340
27449W        W94517  41.953  35.995   3.729
27450W        W94518  19.570  18.715   3.378
27451W        W94519  42.435  25.540   2.801
27452W        W94520  38.497  12.351   0.758
27453W        W94521  42.464  15.723  14.407
27454W        W94522   7.909  31.050  11.443
27455W        W94523  32.469  34.432   3.145
27456W        W94524  12.847   8.397  12.417
27457W        W94525  13.126  18.127  13.802
27458W        W94526   4.427   5.896  12.878
27459W        W94527  22.526  18.227   9.949
27460W        W94528   7.676  29.130   4.712
27461W        W94529  11.222  34.025  10.404
27462W        W94530  18.160  43.794   1.727
27463W        W94531  12.129  41.439   1.432
27464W        W94532  13.624  38.018  13.815
27465W        W94533  11.206  26.513   1.266
27466W        W94534  36.846  25.517  14.450
27467W        W94535  31.115  44.486  10.596
27468W        W94536  12.734   7.358   2.798
27469W        W94537  42.336   9.308   3.365
27470W        W94538  39.435   9.712   3.219
27471W        W94539  14.152  38.448  11.494
27472W        W94540  42.841  24.143  11.482
27473W        W94541  26.188   0.866   3.183
27474W        W94542  33.901   3.913   0.876
27475W        W94543  24.105  14.115   2.231
27476W        W94544  26.040  12.345  12.547
27477W        W94545  36.057   4.291  10.550
27478W        W94546  41.986  32.439   1.714
27479W        W94547   7.848  37.565  11.876
27480W        W94548  15.221  31.982  14.951
27481W        W94549   4.839  14.210   0.933
27482W        W94550  13.666  21.724   3.700
27483W        W94551  12.270  13.242  12.094
27484W        W94552   5.352  43.417   3.385
27485W        W94553  35.935  22.523   2.895
27486W        W94554   0.974  27.498   3.791
27487W        W94555  39.378  24.004  12.074
27488W        W94556   3.874  25.469  11.125
27489W        W94557  11.320  39.423   1.835
27490W        W94558  37.042  37.030  12.084
27491W        W94559  11.288  35.094   4.686
27492W        W94560  33.385  18.247   2.187
27493W        W94561  40.498  25.124   2.839
27494W        W94562  17.625  44.871  11.437
27495W        W94563  34.108   2.803  10.534
27496W        W94564   5.274  33.096   2.721
27497W        W94565  13.819  34.406   4.121
27498W        W94566  37.065   8.849  12.406
27499W        W94567  10.146  28.041  11.519
27500W        W94568  18.202  44.981  13.874
27501W        W94569   4.438  18.733   2.291
27502W        W94570   8.181  20.212  13.807
27503W        W94571  13.335  17.662   0.422
27504W        W94572  18.253  30.101   1.887
27505W        W94573   6.853  25.040  10.571
27506W        W94574   2.239   8.248  13.995
27507W        W94575  42.913   3.330  13.320
27508W        W94576   7.302   4.810   1.359
27509W        W94577  36.872   4.802  10.444
27510W        W94578  33.424   7.223   4.613
27511W        W94579  36.513  42.829   0.324
27512W        W94580   2.829  36.090  10.964
27513W        W94581  14.227  36.590   3.167
27514W        W94582  44.806  39.866   1.291
27515W        W94583   9.286  11.679   1.259
27516W        W94584  23.580  14.741   2.358
27517W        W94585  14.682  43.949  11.458
27518W        W94586  21.164  30.592   0.447
27519W        W94587  22.070  24.627  12.979
27520W        W94588  13.711  12.676   0.892
27521W        W94589  35.446  10.796   0.319
27522W        W94590  23.545  24.558   4.752
27523W        W94591  39.349   6.822  12.990
27524W        W94592  10.815  11.211  14.012
27525W        W94593  42.830   5.248   0.302
27526W        W94594  33.607   9.777  12.959
27527W        W94595  10.345  23.029   4.822
27528W        W94596  22.096   5.193  11.015
27529W        W94597  15.160  37.508   9.931
27530W        W94598  29.100  24.192  10.603
27531W        W94599   6.723  24.020   3.858
27532W        W94600  31.560  21.104   4.818
27533W        W94601  30.004  16.229   9.478
27534W        W94602  35.527  24.678   1.736
27535W        W94603  10.658   5.913  11.604
27536W        W94604  31.017  11.262   1.777
27537W        W94605  24.230  17.072  10.456
27538W        W94606  42.009  31.548   1.783
27539W        W94607  11.649   5.291   3.337
27540W        W94608  43.798   0.829  12.069
27541W        W94609   0.269  12.239   0.750
27542W        W94610  34.972   4.363  10.905
27543W        W94611  21.189  38.558  11.448
27544W        W94612   0.946  17.090  14.879
27545W        W94613  43.821  31.585  14.783
27546W        W94614  20.736   7.272  12.999
27547W        W94615  22.094  29.567  13.848
27548W        W94616   5.912  13.696  14.902
27549W        W94617  11.838  36.463  13.324
27550W        W94618  21.089  32.555   1.719
27551W        W94619  11.726   2.335   1.252
27552W        W94620  31.059  37.074  12.980
27553W        W94621  31.896  16.228  11.931
27554W        W94622  30.140  21.662  11.093
27555W        W94623  22.607  14.188   3.162
27556W        W94624  27.478   5.212   1.379
27557W        W94625  26.543  43.961   2.892
27558W        W94626   6.426  41.417   0.292
27559W        W94627  35.024  20.539   3.198
27560W        W94628  28.678  19.703  14.785
27561W        W94629  43.934  18.577   0.895
27562W        W94630  32.075  11.827   3.158
27563W        W94631  14.700  29.147  13.841
27564W        W94632  18.083  11.220   0.316
27565W        W94633  11.690  23.730   0.804
27566W        W94634  41.874  28.603   1.231
27567W        W94635  12.279  35.108   3.715
27568W        W94636  20.149  29.002   2.752
27569W        W94637   5.896  20.220   2.271
27570W        W94638  32.623  19.156  14.515
27571W        W94639  20.750   4.299   1.811
27572W        W94640  21.715  31.498   4.637
27573W        W94641  24.588   4.890   0.770
27574W        W94642  36.432  34.407  13.324
27575W        W94643  40.915  22.167   3.852
27576W        W94644  28.496  15.103   2.212
27577W        W94645  13.159  34.554   0.864
27578W        W94646  34.993  17.162   2.782
27579W        W94647  29.924  23.042  14.440
27580W        W94648  39.894  16.207  12.014
27581W        W94649  14.263  22.588   2.301
27582W        W94650  27.560   2.891   4.740
27583W        W94651  32.575  42.281  10.513
27584W        W94652  33.035   0.247   3.151
27585W        W94653  13.713  35.014  12.343
27586W        W94654  42.863  41.964  14.787
27587W        W94655  31.588   9.836   4.177
27588W        W94656  43.855  40.851  11.573
27589W        W94657  38.550  32.554  14.771
27590W        W94658   8.374  23.518  12.923
27591W        W94659   6.346  14.614  10.457
27592W        W94660   2.806  25.016  10.470
27593W        W94661   7.819  11.325  11.922
27594W        W94662  42.959   6.819  14.814
27595W        W94663   2.859  35.449   1.837
27596W        W94664  43.487   7.736   4.770
27597W        W94665  29.544  23.574   0.305
27598W        W94666   6.708  28.469  11.964
27599W        W94667  35.080  16.693   3.821
27600W        W94668  24.637  14.601   2.849
27601W        W94669   8.406   8.886  11.093
27602W        W94670  40.336  30.049   4.290
27603W        W94671   0.261  16.117  13.880
27604W        W94672   1.398  18.719   4.191
27605W        W94673  13.635  37.059  11.118
27606W        W94674  41.373  16.767  10.633
27607W        W94675   2.752  34.536  12.392
27608W        W94676  28.652  14.145   3.328
27609W        W94677  35.385  43.405  14.386
27610W        W94678   3.224   0.921   1.267
27611W        W94679  38.049  15.217   2.769
27612W        W94680  32.622  39.478   0.335
27613W        W94681  17.147  13.115   0.801
27614W        W94682  25.121  25.703   4.154
27615W        W94683  22.542  42.352   2.745
27616W        W94684  17.103  24.484   2.327
27617W        W94685  43.381  27.513  13.792
27618W        W94686  41.424  21.203  10.425
27619W        W94687  29.995  42.439  13.412
27620W        W94688   6.401  31.974   1.212
27621W        W94689  16.257  35.967  14.018
27622W        W94690  19.147  26.550  10.148
27623W        W94691  37.075  29.078  13.024
27624W        W94692  11.238  43.876   4.209
27625W        W94693   8.730  12.358   0.863
27626W        W94694  24.652   5.273  14.408
27627W        W94695   5.762  42.411  10.920
27628W        W94696  24.707   0.834  14.293
27629W        W94697  30.502   8.263  10.405
27630W        W94698  10.257  41.937   0.768
27631W        W94699   5.398  16.703  12.884
27632W        W94700  12.827  18.095  10.990
27633W        W94701  12.806  43.981  10.561
27634W        W94702   3.239   5.271   1.387
27635W        W94703  23.549  40.865  12.015
27636W        W94704  24.128   8.711   3.829
27637W        W94705  10.329  36.082   4.309
27638W        W94706   8.795  40.984  12.929
27639W        W94707  21.228   4.434  12.852
27640W        W94708  37.929   7.281   0.770
27641W        W94709  40.033  11.638   0.389
27642W        W94710  19.540  27.161   3.773
27643W        W94711  13.810  14.255   1.839
27644W        W94712  29.569  37.441  12.344
27645W        W94713  44.397  29.528  12.526
27646W        W94714  24.720   5.340   1.254
27647W        W94715  41.943  41.005  13.317
27648W        W94716   7.397  23.574   3.689
27649W        W94717  24.675  31.933  11.446
27650W        W94718  16.701  17.656   3.734
27651W        W94719  19.672  31.407   3.669
27652W        W94720  30.554   6.697  11.886
27653W        W94721  42.505   6.683  12.009
27654W        W94722  38.381  36.389  12.461
27655W        W94723  44.485  42.506   4.822
27656W        W94724  40.485   6.808   3.784
27657W        W94725  34.562   1.850  14.390
27658W        W94726  40.522   0.399   4.229
27659W        W94727   7.888  10.245  14.872
27660W        W94728  24.018   5.928   0.746
27661W        W94729  10.839  34.583   3.186
27662W        W94730  29.483  24.182   3.833
27663W        W94731  11.237   8.164   2.300
27664W        W94732  18.158   3.300  11.912
27665W        W94733  13.830  27.574  12.386
27666W        W94734   6.249  30.142   0.750
27667W        W94735  16.280  36.923   3.813
27668W        W94736  43.839  31.416  13.900
27669W        W94737  37.530  28.496   0.349
27670W        W94738   1.338   6.903  10.435
27671W        W94739  35.882  16.714  14.351
27672W        W94740  40.915  23.715   4.321
27673W        W94741   6.735  20.186   2.711
27674W        W94742  10.637  19.728  12.424
27675W        W94743  17.571  29.573   2.864
27676W        W94744   1.298  24.641  11.027
27677W        W94745  17.224  21.109   2.356
27678W        W94746  35.943   7.677   2.245
27679W        W94747  39.486  28.166  10.413
27680W        W94748   6.746   2.821   3.240
27681W        W94749  41.505  26.541  14.915
27682W        W94750  42.808  29.106   2.329
27683W        W94751  22.676   4.348   3.161
27684W        W94752   4.907   9.826   1.731
27685W        W94753  25.201  38.553  13.436
27686W        W94754  42.947  25.648   1.789
27687W        W94755  41.992  44.272  13.979
27688W        W94756  23.638  34.068  14.950
27689W        W94757  14.162  18.581  14.379
27690W        W94758  39.836   4.240  14.934
27691W        W94759  36.520  12.156   1.419
27692W        W94760  42.434  13.717   4.263
27693W        W94761  11.863  24.046  12.044
27694W        W94762   2.942  27.635  10.553
27695W        W94763  22.045  26.191   1.765
27696W        W94764  25.009   7.227   1.838
27697W        W94765  29.644  33.950   1.776
27698W        W94766  31.465  35.100   2.673
27699W        W94767  40.365  44.302   2.185
27700W        W94768  41.434   0.779  13.414
27701W        W94769  30.573   7.355   1.349
27702W        W94770  14.813  22.210  11.978
27703W        W94771  17.613  19.728  14.408
27704W        W94772   1.969  13.321  14.482
27705W        W94773  19.250  25.055   0.438
27706W        W94774  30.507  27.944  11.011
27707W        W94775  37.364  38.561   4.688
27708W        W94776   7.910  29.567  12.461
27709W        W94777  13.729   5.845   2.690
27710W        W94778  18.069   2.438   1.789
27711W        W94779   0.268  40.914   1.927
27712W        W94780  41.800  16.119  12.488
27713W        W94781  24.035  17.587   4.266
27714W        W94782   1.363   9.801  12.825
27715W        W94783   2.878   8.805  12.053
27716W        W94784  11.312   9.691  12.523
27717W        W94785   0.418  16.733  12.985
27718W        W94786  12.210  36.899  11.910
27719W        W94787  44.375   8.186  13.051
27720W        W94788  33.893  13.752  10.630
27721W        W94789  28.576  23.508   0.866
27722W        W94790  36.025  43.304   0.958
27723W        W94791  12.848  43.292   2.309
27724W        W94792  38.987  11.195   3.678
27725W        W94793  21.118  37.852   1.361
27726W        W94794  39.048   0.282  12.884
27727W        W94795  15.695  27.961  12.833
27728W        W94796  38.923  35.421  12.055
27729W        W94797  14.616   0.421  10.492
27730W        W94798  31.065   4.390   0.451
27731W        W94799  12.785  37.494  11.426
27732W        W94800  10.828  21.077   4.625
27733W        W94801  26.622  14.830  13.310
27734W        W94802  27.594  32.988   1.391
27735W        W94803  34.923  35.009   1.804
27736W        W94804  36.890   3.278   4.334
27737W        W94805   3.780  12.762   0.283
27738W        W94806  15.092  11.730  12.433
27739W        W94807  34.963  39.871  14.024
27740W        W94808   1.825  36.915  14.910
27741W        W94809  23.575  37.024  13.480
27742W        W94810  42.492  40.460   0.859
27743W        W94811  27.618  31.410  14.842
27744W        W94812  27.077  34.045   0.363
27745W        W94813   0.456   6.399  11.116
27746W        W94814   6.210  37.468   0.354
27747W        W94815  13.350  19.634   4.165
27748W        W94816  34.093  42.924   2.189
27749W        W94817  20.117  24.595   0.801
27750W        W94818  29.096  41.470   3.380
27751W        W94819  37.875  15.630  11.553
27752W        W94820   2.894  20.056   3.245
27753W        W94821   8.800  21.592  14.798
27754W        W94822   7.370  31.606   2.412
27755W        W94823  23.560   6.858  14.024
27756W        W94824   4.818  14.827   3.812
27757W        W94825  44.899   6.336  10.500
27758W        W94826  15.741  40.937   3.292
27759W        W94827  37.388  28.023  13.540
27760W        W94828  20.197  40.818   4.289
27761W        W94829  28.094  42.836   3.749
27762W        W94830  44.008   3.739  14.880
27763W        W94831   5.348   2.232   4.778
27764W        W94832  36.892  23.598  12.488
27765W        W94833   3.944  27.645   1.375
27766W        W94834  13.826  14.684  12.014
27767W        W94835   0.943  23.518  14.817
27768W        W94836  22.087  32.103   3.220
27769W        W94837  10.380  10.843  13.860
27770W        W94838  25.632  12.674   2.856
27771W        W94839  32.028  26.160  13.376
27772W        W94840  22.114   8.377   1.385
27773W        W94841  10.675  11.810   3.315
27774W        W94842  22.724   7.190   2.786
27775W        W94843  43.411  23.232  11.549
27776W        W94844  43.999  36.503   0.760
27777W        W94845  37.033  29.649   4.800
27778W        W94846  10.746  34.961   3.262
27779W        W94847  42.373  24.092  12.905
27780W        W94848  28.992  40.462   2.768
27781W        W94849  39.869  19.256   1.226
27782W        W94850  41.881   8.736   1.735
27783W        W94851  26.025  37.536  12.003
27784W        W94852   9.770  28.466  13.900
27785W        W94853   1.458   6.244  13.967
27786W        W94854   2.247   7.720   4.348
27787W        W94855   6.907  24.581   2.251
27788W        W94856  28.152   0.841  12.417
27789W        W94857   3.271  30.993   3.849
27790W        W94858  32.912  19.737   3.663
27791W        W94859  16.687  41.043   1.761
27792W        W94860  41.022  16.186   4.773
27793W        W94861   8.709   6.763   1.881
27794W        W94862  26.139  43.453   2.790
27795W        W94863  35.503  21.065  11.423
27796W        W94864  12.691  24.705   0.887
27797W        W94865   0.362  26.060  14.324
27798W        W94866  10.675  20.632  12.844
27799W        W94867  27.179  36.448   1.905
27800W        W94868  22.098  17.184  12.920
27801W        W94869  14.197  20.270   9.926
27802W        W94870  27.196   3.345  10.097
27803W        W94871  16.651  40.536  10.565
27804W        W94872  12.811  16.258  12.563
27805W        W94873  40.904  22.132   1.874
27806W        W94874  14.231  14.140   1.914
27807W        W94875  41.857  11.724   3.320
27808W        W94876   6.367   7.322   2.874
27809W        W94877  30.950  15.649   0.765
27810W        W94878   0.789  23.554   4.146
27811W        W94879  36.010  22.098   0.792
27812W        W94880   8.674  19.243  12.481
27813W        W94881   3.301  32.137  12.896
27814W        W94882   9.200  18.098   2.390
27815W        W94883   0.927   4.282  12.559
27816W        W94884   1.812  42.427   1.217
27817W        W94885  10.235   6.864  11.508
27818W        W94886   1.808  37.069  13.891
27819W        W94887   9.817   3.945  12.426
27820W        W94888  37.392  11.366   3.823
27821W        W94889  17.269  41.792  13.880
27822W        W94890  32.559  28.567   1.710
27823W        W94891  27.673  25.156   4.710
27824W        W94892  15.328   9.251   0.484
27825W        W94893  14.652   1.943   2.761
27826W        W94894   8.381  38.925  12.048
27827W        W94895   9.662  14.728  14.775
27828W        W94896  23.202  26.157  14.806
27829W        W94897  17.652  26.594  13.849
27830W        W94898  18.686  18.112  11.949
27831W        W94899  43.954  18.723  11.372
27832W        W94900  13.322  15.642  13.395
27833W        W94901  22.744   0.817   4.190
27834W        W94902   4.348   1.872   1.226
27835W        W94903  18.548  26.026  10.403
27836W        W94904  26.160  42.381   0.782
27837W        W94905  16.595   5.366   2.247
27838W        W94906   5.920  38.893  12.500
27839W        W94907   6.718  14.603   0.803
27840W        W94908  11.722   3.935  12.999
27841W        W94909  36.513  31.503  10.413
27842W        W94910   8.163   8.700   2.840
27843W        W94911  17.727  42.964  14.925
27844W        W94912  40.946   6.727   4.632
27845W        W94913  15.180  26.560  10.448
27846W        W94914  39.022  22.148   3.643
27847W        W94915   5.875  35.585  10.421
27848W        W94916  23.659  21.116  14.790
27849W        W94917  33.530  11.685  14.881
27850W        W94918   8.256  37.000   0.850
27851W        W94919  24.657  27.456   1.389
27852W        W94920   1.372  38.397   1.904
27853W        W94921   7.234   9.395   1.290
27854W        W94922  44.986  40.398  14.808
27855W        W94923   6.730  41.956   4.644
27856W        W94924   4.397  21.184   4.342
27857W        W94925  20.158  33.965  13.493
27858W        W94926  43.385  25.634  13.816
27859W        W94927  27.121   2.788  12.516
27860W        W94928  27.007  16.656   3.793
27861W        W94929  25.185  36.470   1.838
27862W        W94930   4.720  14.684  11.532
27863W        W94931  44.909   5.895   0.790
27864W        W94932  29.653  41.375   3.205
27865W        W94933   3.262  42.845   3.266
27866W        W94934  14.658  15.808  14.475
27867W        W94935  44.957   1.294   4.693
27868W        W94936  18.158   0.388   4.281
27869W        W94937  31.922   8.778  12.825
27870W        W94938  19.686  18.566   2.816
27871W        W94939   2.851   8.661  13.854
27872W        W94940  19.149  34.388   1.248
27873W        W94941  42.836  12.739  10.975
27874W        W94942  42.379  12.206  14.935
27875W        W94943   5.287  44.418  14.965
27876W        W94944  30.948  12.664  14.324
27877W        W94945  11.190  42.996  12.970
27878W        W94946  12.228  26.190  12.529
27879W        W94947   8.292  22.565   2.400
27880W        W94948  18.651  25.998   1.447
27881W        W94949   8.791  17.174   3.235
27882W        W94950  26.462  29.970  12.873
27883W        W94951  12.708  29.168  14.417
27884W        W94952  11.332  41.335   2.380
27885W        W94953  19.109  15.774   1.396
27886W        W94954  22.077  28.476  12.041
27887W        W94955  35.390  23.206  12.445
27888W        W94956   4.853  19.148   1.361
27889W        W94957  33.474  19.668   0.362
27890W        W94958  29.052  13.244   3.211
27891W        W94959  39.423  12.222   4.776
27892W        W94960  15.293  28.183  11.013
27893W        W94961  29.981  35.021   3.852
27894W        W94962   9.650  24.695   4.172
27895W        W94963   4.819  25.659  14.853
27896W        W94964   7.284  27.573   2.214
27897W        W94965  39.488  20.031  13.333
27898W        W94966  39.875  20.067  14.974
27899W        W94967  10.728  12.228  12.575
27900W        W94968  27.068  15.195  14.293
27901W        W94969  24.104  43.918   1.384
27902W        W94970  30.127  35.416  14.281
27903W        W94971  42.500   3.798   1.306
27904W        W94972   0.354  11.625  13.455
27905W        W94973  14.714   4.237   2.663
27906W        W94974  18.290   9.734   3.716
27907W        W94975   6.244  37.911   2.703
27908W        W94976  23.235  14.694   2.336
27909W        W94977   2.909  25.214   0.336
27910W        W94978  11.247  23.150   0.311
27911W        W94979  38.941   8.666  14.963
27912W        W94980  10.274  40.372  12.983
27913W        W94981   0.489  39.407  10.624
27914W        W94982  25.629   9.851  10.443
27915W        W94983  39.987  43.005  13.864
27916W        W94984   6.333  24.150  14.786
27917W        W94985  42.951  11.343  11.582
27918W        W94986  40.428  19.559   5.293
27919W        W94987  16.313  39.976   4.700
27920W        W94988  41.348  25.039   0.726
27921W        W94989  34.066  16.653  12.579
27922W        W94990   3.895  36.530  10.641
27923W        W94991  36.883  40.485   1.380
27924W        W94992   5.897  13.833  13.356
27925W        W94993  25.470   5.795  12.529
27926W        W94994  32.957  12.730   2.327
27927W        W94995  14.297  20.183   4.264
27928W        W94996  33.923  17.123   2.305
27929W        W94997  32.460  18.202  11.607
27930W        W94998  17.158  16.803   1.798
27931W        W94999  22.659   5.821  12.417
27932W        W95000  26.634  11.310  11.407
27933W        W95001  23.618   3.249   2.315
27934W        W95002  26.975  34.480   3.845
27935W        W95003  10.709  37.504  11.411
27936W        W95004   2.338   5.281   3.202
27937W        W95005  36.487  30.424   5.163
27938W        W95006  13.194  15.109   0.317
27939W        W95007  34.121  44.457  13.901
27940W        W95008   1.452   4.827  13.483
27941W        W95009  21.671  35.983   1.433
27942W        W95010   5.687  28.181  12.875
27943W        W95011  27.577   9.756  11.383
27944W        W95012  39.989  21.248  13.480
27945W        W95013  35.598  26.580  12.887
27946W        W95014   6.235  29.077  13.926
27947W        W95015  37.949  19.679   2.717
27948W        W95016  18.149  42.837  14.792
27949W        W95017   6.847  33.101  10.953
27950W        W95018  29.930   7.814  13.904
27951W        W95019   1.878  12.793   0.433
27952W        W95020   6.915   8.306   1.399
27953W        W95021   0.271  17.128   0.251
27954W        W95022  17.735  12.636   0.752
27955W        W95023  19.265   2.295  13.927
27956W        W95024   5.790  33.578  14.821
27957W        W95025  18.687  36.058  10.052
27958W        W95026   0.821   7.800   4.238
27959W        W95027  31.486   5.303  12.525
27960W        W95028  12.798  41.895   4.779
27961W        W95029  34.076  12.664   3.354
27962W        W95030  33.588  42.481   3.725
27963W        W95031  23.176  44.294  12.914
27964W        W95032  12.305  26.686  10.900
27965W        W95033   5.931   7.190  11.976
27966W        W95034   5.216   5.200  11.493
27967W        W95035  28.951  40.835   4.153
27968W        W95036  34.109  42.962  12.460
27969W        W95037  40.305  12.341   3.756
27970W        W95038  32.530  19.159  12.940
27971W        W95039  18.570   9.870  12.416
27972W        W95040  12.839   4.827   4.660
27973W        W95041   0.328   9.868  12.894
27974W        W95042   1.934   2.944  12.945
27975W        W95043  23.129  25.579   3.147
27976W        W95044   8.354  12.317  14.864
27977W        W95045  28.020   4.770  13.431
27978W        W95046  19.267  14.099  14.807
27979W        W95047  20.642  33.499   4.820
27980W        W95048  35.575  33.423   0.736
27981W        W95049   5.809  30.141   3.777
27982W        W95050  15.762  28.968  11.462
27983W        W95051  24.693  23.680  13.998
27984W        W95052   1.836  30.971   2.793
27985W        W95053   6.272  14.258  10.887
27986W        W95054  16.163  10.231   5.607
27987W        W95055  22.099  26.569  10.970
27988W        W95056   9.723  20.534  13.359
27989W        W95057  20.236   2.791  13.537
27990W        W95058  41.821  34.605  12.930
27991W        W95059  25.637   9.831   3.720
27992W        W95060   7.889  33.004  13.460
27993W        W95061  38.350  10.339   2.324
27994W        W95062   4.782  12.181  12.408
27995W        W95063  13.784  15.607   3.291
27996W        W95064  24.153  14.237   1.435
27997W        W95065  22.662   9.378   2.199
27998W        W95066  28.068  14.167   3.766
27999W        W95067  26.129   7.233   0.291
28000W        W95068   7.783  36.870   4.639
28001W        W95069  24.673   7.703   2.845
28002W        W95070  13.105  16.780  10.600
28003W        W95071  44.395   0.490  13.044
28004W        W95072   7.331  27.162  12.386
28005W        W95073  12.206  33.502   4.728
28006W        W95074  43.407  24.175  10.501
28007W        W95075   3.248  25.501  12.431
28008W        W95076   3.247   9.270   1.809
28009W        W95077  37.874  13.613  13.916
28010W        W95078  39.483  32.076  14.330
28011W        W95079   6.717   7.179  14.918
28012W        W95080  21.737  43.920  13.887
28013W        W95081  29.043  42.906   4.780
28014W        W95082   4.297  16.596  13.973
28015W        W95083  32.585  24.975  13.852
28016W        W95084  22.609  32.137   4.739
28017W        W95085  15.786  14.101  13.937
28018W        W95086  12.768  11.133  10.633
28019W        W95087  30.929   7.212   0.244
28020W        W95088  31.619  20.067  11.020
28021W        W95089  27.640  10.243  13.378
28022W        W95090  25.981  13.634   1.772
28023W        W95091   5.782  36.545  12.994
28024W        W95092   5.205   1.267   2.301
28025W        W95093   8.820  30.934   3.214
28026W        W95094   9.695  17.559  14.360
28027W        W95095  33.412  14.161  12.581
28028W        W95096   5.724  42.010  12.970
28029W        W95097  36.949  19.589  10.927
28030W        W95098  13.150  31.045  10.484
28031W        W95099  29.935  10.215   2.711
28032W        W95100  16.633  24.576  13.859
28033W        W95101   1.387   7.775  12.553
28034W        W95102  41.029   9.359  10.526
28035W        W95103  27.002  28.661   1.265
28036W        W95104  25.046  16.200   4.836
28037W        W95105  42.939  30.013  13.355
28038W        W95106  32.979  41.522   4.639
28039W        W95107  16.780  35.555  12.507
28040W        W95108  32.911  37.471   0.347
28041W        W95109   2.346   0.438  12.367
28042W        W95110   2.754  44.308  10.601
28043W        W95111  14.756  26.499  13.019
28044W        W95112  33.886  16.305  14.359
28045W        W95113   6.379  33.536  12.828
28046W        W95114  33.104  15.819   0.369
28047W        W95115   6.725  15.197  14.965
28048W        W95116  22.626   6.222  14.986
28049W        W95117  20.071  23.632  11.128
28050W        W95118  44.796  19.231   1.852
28051W        W95119  19.090   2.725  14.983
28052W        W95120  16.689  15.584   4.725
28053W        W95121   4.784   1.265   2.378
28054W        W95122  20.140  37.904  10.430
28055W        W95123  40.492   1.460   3.749
28056W        W95124  16.172  40.355   0.819
28057W        W95125   9.377  23.685   0.825
28058W        W95126   2.372  10.311   4.671
28059W        W95127  10.338  17.186  10.472
28060W        W95128   9.205  12.229   3.317
28061W        W95129  33.047  36.376  12.887
28062W        W95130  24.660  13.205   3.654
28063W        W95131  16.641  38.074  11.569
28064W        W95132   9.258  39.332  12.060
28065W        W95133   6.391  10.707   0.952
28066W        W95134  26.175  25.616   4.301
28067W        W95135  14.593  20.030   3.812
28068W        W95136  13.780  26.549   3.774
28069W        W95137  14.796   9.841  12.906
28070W        W95138  27.013  44.877  11.433
28071W        W95139  32.016   8.246  13.048
28072W        W95140   6.843  37.982   0.854
28073W        W95141  38.514  34.011  14.924
28074W        W95142  21.565  22.552  12.410
28075W        W95143  23.172  13.170  11.059
28076W        W95144  21.190  36.998   2.742
28077W        W95145  12.789  10.139  10.613
28078W        W95146  29.482  28.492   1.281
28079W        W95147  32.048  38.052  12.353
28080W        W95148  26.033  41.416  13.368
28081W        W95149   1.346   3.924  10.502
28082W        W95150  32.401  37.376  14.955
28083W        W95151   1.336  31.645   3.733
28084W        W95152  27.601  42.843  11.989
28085W        W95153   1.393   0.933  11.969
28086W        W95154  14.198  22.644  12.544
28087W        W95155   3.806  10.825  13.497
28088W        W95156  40.038   6.193   2.750
28089W        W95157  21.084  13.614   0.267
28090W        W95158  31.046  32.512  14.280
28091W        W95159  11.634  42.033   2.825
28092W        W95160   9.752   5.716  14.806
28093W        W95161  12.244  19.226  14.852
28094W        W95162   9.293   8.784   1.868
28095W        W95163  32.888  27.663  12.515
28096W        W95164  16.750   3.923  11.112
28097W        W95165  34.066  35.922   1.287
28098W        W95166  23.548  25.064  13.989
28099W        W95167  44.883  33.419   1.789
28100W        W95168  11.218  12.695  13.537
28101W        W95169  35.947   5.241   4.805
28102W        W95170  22.120   4.818   1.823
28103W        W95171  18.174  37.056   0.434
28104W        W95172  16.278   8.758  13.867
28105W        W95173   1.360  35.948  12.436
28106W        W95174  28.654  34.608   3.652
28107W        W95175  44.943  25.972   1.256
28108W        W95176  35.004  11.648   1.848
28109W        W95177  16.644  34.565   1.406
28110W        W95178  35.969  34.499  13.853
28111W        W95179  41.499   5.723   1.396
28112W        W95180   8.254  23.132   0.840
28113W        W95181  23.706  13.737   2.719
28114W        W95182  17.613  32.118   3.244
28115W        W95183  22.138   1.955  12.083
28116W        W95184  23.545  24.690  14.412
28117W        W95185   2.361   4.263  13.866
28118W        W95186  11.788  11.856   3.846
28119W        W95187  39.957   9.850   3.309
28120W        W95188   4.404  34.912   2.348
28121W        W95189   1.819  14.816   4.744
28122W        W95190   3.252   0.749   4.323
28123W        W95191  21.659  15.271   4.818
28124W        W95192   9.244  10.806  13.421
28125W        W95193   9.669   7.905  12.539
28126W        W95194  27.692   4.335  14.423
28127W        W95195  17.576   4.862   1.395
28128W        W95196  30.446  44.954  11.934
28129W        W95197  24.531   0.437  11.479
28130W        W95198  21.218  24.572  14.017
28131W        W95199  21.753  14.683  12.363
28132W        W95200  36.064  40.376   3.736
28133W        W95201   9.334  17.753   2.789
28134W        W95202  20.267  24.670  14.507
28135W        W95203  14.203  37.560  14.005
28136W        W95204  40.468  31.638   0.246
28137W        W95205  13.338   0.409  13.921
28138W        W95206   8.678  15.208   4.787
28139W        W95207  27.507   3.798  14.921
28140W        W95208  19.605   9.842   2.275
28141W        W95209  21.131  40.459  10.508
28142W        W95210  19.566  42.834  11.415
28143W        W95211  39.466   3.346   1.858
28144W        W95212  10.379  42.953   2.328
28145W        W95213  25.000  17.660   2.703
28146W        W95214  21.045   3.431  13.809
28147W        W95215  35.571  16.191  12.344
28148W        W95216  38.063  31.578  10.908
28149W        W95217   9.776  14.704   0.448
28150W        W95218  40.926   0.801  12.987
28151W        W95219  22.662  39.402   2.848
28152W        W95220  20.076  15.138   2.376
28153W        W95221  15.677  33.948   4.758
28154W        W95222  33.613   7.191   3.157
28155W        W95223  37.930  29.124   3.304
28156W        W95224   7.754  11.190   4.648
28157W        W95225  32.908   1.774   1.899
28158W        W95226  21.586  35.988   0.404
28159W        W95227  17.702  10.685   2.311
28160W        W95228  38.966  19.132  10.895
28161W        W95229  31.634  26.110   2.743
28162W        W95230  25.141  12.716   0.909
28163W        W95231  25.095  23.014   0.777
28164W        W95232  17.201  39.014  14.768
28165W        W95233  39.863  27.139   0.383
28166W        W95234  39.841  43.999  13.982
28167W        W95235  22.573  25.523  14.977
28168W        W95236  19.139   3.910  11.896
28169W        W95237  44.951  20.715   1.312
28170W        W95238   1.817  16.712   3.366
28171W        W95239  21.091  23.598  10.901
28172W        W95240  20.183   9.185   4.249
28173W        W95241  30.470  12.661   0.953
28174W        W95242  32.402   4.719   1.394
28175W        W95243  28.555  18.664  10.410
28176W        W95244  31.915  32.511  12.946
28177W        W95245  43.995  11.140  13.971
28178W        W95246  16.203   2.419   0.748
28179W        W95247  12.352  36.886  13.949
28180W        W95248  10.339  44.809  11.933
28181W        W95249  13.126   5.877  11.606
28182W        W95250   5.415  28.995  10.536
28183W        W95251  30.413   4.762   1.368
28184W        W95252  34.430  11.859   4.116
28185W        W95253  43.463   2.264  11.111
28186W        W95254   5.357  31.551   1.298
28187W        W95255  36.946  30.521  11.504
28188W        W95256   2.338   0.297   3.291
28189W        W95257  33.918  29.520  11.934
28190W        W95258  20.257   3.449  11.403
28191W        W95259  36.933   1.834   4.693
28192W        W95260  10.851  43.974  10.159
28193W        W95261   9.199  44.328   2.330
28194W        W95262  10.176  21.097   4.672
28195W        W95263   2.459  12.673  10.609
28196W        W95264  13.293  24.683  14.865
28197W        W95265  29.438  12.308   2.199
28198W        W95266  27.139  18.562   2.857
28199W        W95267   1.894  13.730  11.543
28200W        W95268  36.463  17.734   0.376
28201W        W95269   5.383   9.725   3.822
28202W        W95270  40.938   9.323   0.355
28203W        W95271   0.367  36.863   2.249
28204W        W95272  34.507  20.572   4.276
28205W        W95273  17.181  40.468   2.739
28206W        W95274  10.253   2.385  12.576
28207W        W95275  11.177  34.377  13.800
28208W        W95276  19.595  22.246  11.380
28209W        W95277   4.758   0.797   2.665
28210W        W95278   6.189  33.888  12.375
28211W        W95279  41.329   6.375   2.335
28212W        W95280  10.840  29.105   3.852
28213W        W95281  10.697  37.861  13.469
28214W        W95282  44.891  17.719   3.810
28215W        W95283  37.396   5.846  13.794
28216W        W95284  36.497  18.170   4.793
28217W        W95285  18.267  24.087   3.839
28218W        W95286  20.274   8.810  12.544
28219W        W95287  18.719  30.597   4.771
28220W        W95288  11.162  14.677   2.832
28221W        W95289   7.298  33.613   2.895
28222W        W95290  20.065  17.589   1.319
28223W        W95291  38.842  42.347  10.588
28224W        W95292  22.216   2.456   4.756
28225W        W95293  17.280  15.658   0.797
28226W        W95294  41.902  20.598   0.457
28227W        W95295   6.258  15.115   4.158
28228W        W95296   8.308  26.036   0.787
28229W        W95297  42.882  34.515  13.391
28230W        W95298  32.022  42.359  10.936
28231W        W95299   7.729  23.223  10.942
28232W        W95300  26.461   8.824  14.944
28233W        W95301   5.309  13.202  12.376
28234W        W95302  30.517   8.698   2.328
28235W        W95303  26.987  41.298  13.471
28236W        W95304  25.706  21.560  14.505
28237W        W95305   8.243  37.998  11.489
28238W        W95306  11.770  16.271   3.242
28239W        W95307  39.560  11.725   1.885
28240W        W95308  16.697   0.409   2.899
28241W        W95309  30.056  43.360   3.362
28242W        W95310  23.189  35.945  14.821
28243W        W95311  33.489  32.427   4.673
28244W        W95312  39.813  25.115   4.136
28245W        W95313  40.319  40.825   1.257
28246W        W95314   1.901  25.047   2.738
28247W        W95315  21.108  26.146  13.987
28248W        W95316  28.149  34.052   3.634
28249W        W95317   7.706  39.825   1.337
28250W        W95318  29.956   2.917  13.469
28251W        W95319   8.371   8.283  12.389
28252W        W95320  28.612  43.448  10.431
28253W        W95321  31.477  13.787   2.877
28254W        W95322  26.619  43.338   0.910
28255W        W95323  22.194   0.473  12.990
28256W        W95324  15.698  36.070  10.512
28257W        W95325   2.764  39.880  14.498
28258W        W95326   7.195  30.012   3.668
28259W        W95327   4.762  11.695  12.995
28260W        W95328  41.919  44.917   1.441
28261W        W95329  18.284   5.200  12.879
28262W        W95330  11.867  28.636  12.998
28263W        W95331  37.537  33.074   0.738
28264W        W95332  15.289   0.919  11.006
28265W        W95333  17.785  26.970   0.910
28266W        W95334  11.634  35.990  11.523
28267W        W95335  44.878  30.011  14.877
28268W        W95336  16.589  32.097  11.858
28269W        W95337  35.037  16.665   1.293
28270W        W95338   0.813  32.036  13.903
28271W        W95339  34.872  17.571  12.076
28272W        W95340  39.389  22.169   4.209
28273W        W95341  37.880  16.700   2.401
28274W        W95342  33.548  40.962   1.772
28275W        W95343  31.616   4.840  13.840
28276W        W95344  24.069  25.141  14.794
28277W        W95345  44.397  21.599   2.407
28278W        W95346   8.178  31.930   1.256
28279W        W95347  38.964  29.078   4.795
28280W        W95348  29.061  24.513  11.470
28281W        W95349  26.138   0.480  14.811
28282W        W95350  31.089  17.219  14.307
28283W        W95351  15.195  30.653  10.905
28284W        W95352  36.873  41.441  14.898
28285W        W95353  10.372  36.041   0.781
28286W        W95354  13.218  22.530   1.359
28287W        W95355  38.831  39.906  10.468
28288W        W95356  27.555  25.116   2.766
28289W        W95357   0.838  14.302  10.602
28290W        W95358  43.928  32.918  12.008
28291W        W95359   5.843  33.078  11.933
28292W        W95360  43.876  41.380   4.729
28293W        W95361  29.534  37.430  14.878
28294W        W95362  39.961  14.662   2.665
28295W        W95363  29.595  27.166  14.283
28296W        W95364  20.159   9.870  14.013
28297W        W95365  26.497  37.370   1.333
28298W        W95366  42.438  30.645  11.571
28299W        W95367  32.095  16.187  12.578
28300W        W95368   0.349  36.569   3.193
28301W        W95369  42.290  17.718   4.125
28302W        W95370  41.486  31.952  13.350
28303W        W95371  20.155   9.151   4.702
28304W        W95372  28.116  19.197   1.815
28305W        W95373  23.129  16.662  12.947
28306W        W95374  40.365   1.768  12.487
28307W        W95375  41.849   9.307   2.703
28308W        W95376  23.171  18.763   1.772
28309W        W95377  34.565  29.507  12.909
28310W        W95378  12.760  29.657  11.423
28311W        W95379  18.118  31.500  13.419
28312W        W95380  18.791   6.394  14.362
28313W        W95381  12.826  25.020   0.856
28314W        W95382  21.058   2.925  13.978
28315W        W95383  23.684  35.416  12.088
28316W        W95384  17.764  29.636  13.474
28317W        W95385  18.755  28.607   1.373
28318W        W95386   9.365  37.384  10.476
28319W        W95387   0.253  40.803  12.420
28320W        W95388   8.670  11.203  12.973
28321W        W95389   7.192  40.825   3.699
28322W        W95390  40.904   8.281  12.927
28323W        W95391  24.136  25.975   0.278
28324W        W95392   7.258  13.137  12.421
28325W        W95393   5.285  22.634  12.915
28326W        W95394  33.019  41.001   1.695
28327W        W95395   5.737  12.669  10.509
28328W        W95396  10.789  29.506   0.409
28329W        W95397  25.183  38.555  14.429
28330W        W95398   6.731  42.325  12.929
28331W        W95399  24.172   1.898   0.806
28332W        W95400  42.454  43.450   4.350
28333W        W95401  41.898   9.765   2.664
28334W        W95402  41.799   6.305  13.457
28335W        W95403  17.285  27.622  10.907
28336W        W95404  15.647  20.214   3.345
28337W        W95405  34.481   8.245   0.453
28338W        W95406  23.000  19.579  10.569
28339W        W95407  13.214  29.161  13.396
28340W        W95408  18.229  21.247  10.948
28341W        W95409  21.257   5.234  10.991
28342W        W95410  23.672  18.672  12.403
28343W        W95411  17.616   5.285  11.943
28344W        W95412  39.043   6.892  10.948
28345W        W95413   4.303  16.634   3.213
28346W        W95414  17.084  30.509  10.512
28347W        W95415  11.748   8.379  14.360
28348W        W95416  24.623  14.803  12.982
28349W        W95417   1.427  42.476  13.474
28350W        W95418  16.643  25.078  11.422
28351W        W95419  38.447   0.763  13.902
28352W        W95420  26.463  27.050  12.824
28353W        W95421  33.887   7.707   0.443
28354W        W95422  36.901  37.473  12.940
28355W        W95423  23.550  15.229  12.466
28356W        W95424  30.532  33.465   1.222
28357W        W95425  36.985  16.666  11.975
28358W        W95426  13.276   4.927   4.334
28359W        W95427  43.311   6.317   1.713
28360W        W95428  27.459  26.040   1.873
28361W        W95429  22.641  44.414  11.585
28362W        W95430  28.113  38.515   4.273
28363W        W95431  14.720   5.217   2.397
28364W        W95432   2.943   4.398  10.495
28365W        W95433  34.934  42.784   1.368
28366W        W95434   4.808  15.233   4.754
28367W        W95435   7.270  30.630   0.306
28368W        W95436  36.406  28.102  11.503
28369W        W95437   0.965   7.380   2.785
28370W        W95438   8.324  28.095   2.678
28371W        W95439  33.380  21.556   5.264
28372W        W95440  37.394  39.877  14.893
28373W        W95441  10.186  11.856  10.480
28374W        W95442  17.173  15.141   2.299
28375W        W95443  24.653   0.473  10.891
28376W        W95444  39.392   3.406  10.500
28377W        W95445  38.566   8.210  10.963
28378W        W95446  39.377  15.241   3.657
28379W        W95447  34.440  26.131  13.917
28380W        W95448  13.744  40.383  12.464
28381W        W95449  41.390   4.369   1.862
28382W        W95450  10.857  20.679  12.034
28383W        W95451  13.189   5.212  14.291
28384W        W95452  26.605  17.203   3.171
28385W        W95453   7.838   5.240   2.375
28386W        W95454  13.200  15.200  14.367
28387W        W95455  28.515  15.757  11.401
28388W        W95456  33.460  20.685   2.859
28389W        W95457  10.146  43.490   4.243
28390W        W95458   3.340   5.320   0.382
28391W        W95459  14.150  37.553   2.884
28392W        W95460  35.067  42.829  14.029
28393W        W95461  28.481  11.344  13.475
28394W        W95462   1.892   5.214   4.808
28395W        W95463  32.978   6.753  12.964
28396W        W95464  34.548  29.635  14.487
28397W        W95465  24.673  38.517  14.802
28398W        W95466  44.978  32.066   0.833
28399W        W95467  10.791   6.231   3.629
28400W        W95468  24.660  20.118  14.821
28401W        W95469  34.916  28.967   4.315
28402W        W95470  35.357  15.807  11.011
28403W        W95471  28.095  29.121   3.693
28404W        W95472  29.161   9.201   1.785
28405W        W95473  18.737  42.012  11.420
28406W        W95474  39.348  34.370   0.432
28407W        W95475  28.103   7.864   4.195
28408W        W95476  26.163  28.570   2.390
28409W        W95477   9.181   0.249  13.924
28410W        W95478  41.917   0.900   0.764
28411W        W95479  14.224  25.000  13.053
28412W        W95480  23.114  17.749  14.502
28413W        W95481  34.497  42.343  11.573
28414W        W95482  30.605   1.382  11.991
28415W        W95483  37.974   1.904   0.301
28416W        W95484   0.264  30.500   2.299
28417W        W95485  39.346  27.945  14.991
28418W        W95486   4.213  19.710   4.646
28419W        W95487  39.949  39.419   0.914
28420W        W95488  44.419  16.088  14.020
28421W        W95489  43.003   7.797  14.803
28422W        W95490  38.045  23.021   0.281
28423W        W95491   1.249  16.746  10.630
28424W        W95492  41.481  10.640  14.313
28425W        W95493  16.785  29.077  11.088
28426W        W95494  26.657   5.759  12.360
28427W        W95495  24.982  11.164   4.278
28428W        W95496  14.785  43.820   2.388
28429W        W95497  24.000   1.750   4.260
28430W        W95498  27.137   4.442   0.830
28431W        W95499  40.473  15.810  12.897
28432W        W95500  29.662  31.498   2.671
28433W        W95501  29.566  16.636   0.242
28434W        W95502  10.709  36.433   4.232
28435W        W95503  37.343  44.481  10.544
28436W        W95504  33.897  35.493   2.328
28437W        W95505   0.963   8.258   2.243
28438W        W95506  33.043   9.867  10.907
28439W        W95507  10.834  34.869   2.400
28440W        W95508   4.261  33.581   4.763
28441W        W95509  15.288   3.832  13.831
28442W        W95510  31.127  20.739   0.819
28443W        W95511  40.496  42.475   4.820
28444W        W95512  30.535  13.341  13.848
28445W        W95513  36.448   8.298  10.433
28446W        W95514  16.795  15.750  10.420
28447W        W95515  42.418   4.878   1.338
28448W        W95516  37.881  19.744   3.263
28449W        W95517  43.879   6.322  13.425
28450W        W95518  23.202  19.190   3.857
28451W        W95519  20.072  43.946   1.379
28452W        W95520  32.903  33.408  10.428
28453W        W95521  10.324  21.149   0.801
28454W        W95522  31.909   6.207  13.465
28455W        W95523  12.761  31.123  10.524
28456W        W95524  15.253  33.042  14.425
28457W        W95525   4.397  32.487  12.514
28458W        W95526   2.774  16.128   0.288
28459W        W95527   8.363   8.739   1.355
28460W        W95528  26.625   7.839   4.649
28461W        W95529  37.897  31.046   4.259
28462W        W95530  10.739   6.912  11.412
28463W        W95531  37.046   2.936  14.285
28464W        W95532  16.579  33.398  12.000
28465W        W95533  25.988   5.755   4.642
28466W        W95534  26.535  25.117  13.513
28467W        W95535   2.752  10.715  10.927
28468W        W95536  23.205  13.796  11.415
28469W        W95537  37.401  12.166  14.327
28470W        W95538  36.093  20.757  13.828
28471W        W95539  39.410  32.541  12.059
28472W        W95540  38.494  28.002   0.424
28473W        W95541  11.750  41.408   0.264
28474W        W95542  16.658   8.361   2.719
28475W        W95543  24.510  19.554   4.663
28476W        W95544  13.642   0.948  11.415
28477W        W95545  25.146  16.775  13.532
28478W        W95546  35.976  19.536   4.186
28479W        W95547  43.434  35.473  11.408
28480W        W95548  26.509  33.606  13.425
28481W        W95549  31.125  25.972   2.298
28482W        W95550  14.661  16.237  11.106
28483W        W95551  14.827  23.183   4.622
28484W        W95552  37.546  14.618   5.246
28485W        W95553  29.978  44.284   4.297
28486W        W95554   1.410  29.159  13.337
28487W        W95555  25.532   6.867   4.353
28488W        W95556  13.170  19.064  11.073
28489W        W95557  23.091  31.641   0.401
28490W        W95558  25.189  26.127   4.193
28491W        W95559  24.511  42.399   4.286
28492W        W95560   5.746  40.907  14.787
28493W        W95561   5.390  15.297  11.459
28494W        W95562  33.055  22.224   4.724
28495W        W95563  40.426  32.524  10.907
28496W        W95564  40.016  31.107   4.814
28497W        W95565  28.999  33.008  14.974
28498W        W95566   4.209  42.872   4.233
28499W        W95567  18.555   6.786  12.345
28500W        W95568  17.639  19.601  10.475
28501W        W95569   1.290  29.623   3.220
28502W        W95570  22.563   5.781  14.306
28503W        W95571  15.812   9.776   5.772
28504W        W95572  14.112   9.780  13.928
28505W        W95573  11.216  23.090   3.670
28506W        W95574   9.653  14.337  13.061
28507W        W95575  33.896  28.161  14.342
28508W        W95576  13.673   5.851   3.825
28509W        W95577  28.485  15.206   4.330
28510W        W95578  29.174  10.690   1.769
28511W        W95579  19.142  16.666   4.129
28512W        W95580  22.214  34.886  14.906
28513W        W95581   8.878  44.896  13.816
28514W        W95582   5.823   2.742   4.659
28515W        W95583   8.876  30.643   1.847
28516W        W95584  27.481  38.435   1.352
28517W        W95585   0.915   7.795   4.600
28518W        W95586  22.688  28.042  12.518
28519W        W95587  17.792   4.223  12.536
28520W        W95588  11.370  17.181   2.274
28521W        W95589  29.605  21.200  11.865
28522W        W95590  25.215   4.372  12.895
28523W        W95591  37.349  33.117  13.812
28524W        W95592   2.842   0.791  13.850
28525W        W95593  17.067  12.715  12.908
28526W        W95594  29.960  21.700   0.279
28527W        W95595   7.194  26.024  14.347
28528W        W95596  12.712  43.814   3.727
28529W        W95597  24.179  40.809   2.204
28530W        W95598  44.876  33.104   5.703
28531W        W95599   3.956  19.722   1.280
28532W        W95600  21.593  19.280   1.436
28533W        W95601  44.466  36.877  12.890
28534W        W95602  44.914  37.510   0.385
28535W        W95603   9.645  13.625  13.975
28536W        W95604   9.747   9.669   0.470
28537W        W95605  18.055  22.026   5.233
28538W        W95606   8.356   2.459  14.920
28539W        W95607  32.561  42.881   5.202
28540W        W95608  41.375  40.478  12.912
28541W        W95609   2.469   2.419  14.443
28542W        W95610   1.325  32.515   4.775
28543W        W95611  32.049   0.787  10.448
28544W        W95612  27.607  40.905   2.769
28545W        W95613   9.714  18.212   2.372
28546W        W95614  32.067  27.093  10.427
28547W        W95615  14.192  23.033   3.816
28548W        W95616  29.591  25.075   1.302
28549W        W95617   7.826  27.569   0.347
28550W        W95618  30.508  17.215  11.095
28551W        W95619  35.051  18.124   3.313
28552W        W95620  42.895  15.780   0.403
28553W        W95621  16.122  32.997   1.280
28554W        W95622   7.818  30.123  13.389
28555W        W95623   1.477  36.382  14.471
28556W        W95624  42.881  35.567   1.237
28557W        W95625  30.078   8.735  11.888
28558W        W95626  42.479   8.243   4.173
28559W        W95627  23.093  27.498   1.303
28560W        W95628  14.235   4.241  10.613
28561W        W95629   5.238  36.894  10.569
28562W        W95630  42.357  23.026  14.801
28563W        W95631  33.507  42.981   3.674
28564W        W95632  26.125   4.800   1.303
28565W        W95633  39.923  25.503   0.392
28566W        W95634  36.553   7.888   0.787
28567W        W95635  37.402   8.853  11.410
28568W        W95636  20.143   7.269  13.990
28569W        W95637  26.593  39.028  11.608
28570W        W95638  18.739  39.418  11.007
28571W        W95639   9.715  15.761  11.919
28572W        W95640  25.605  39.952   4.837
28573W        W95641  11.848  38.870  11.472
28574W        W95642  28.674   4.911  10.474
28575W        W95643  22.551  14.763  13.482
28576W        W95644  29.172  36.430   1.751
28577W        W95645   8.846  28.520   1.772
28578W        W95646   0.403  14.277   1.320
28579W        W95647  18.132   9.793   2.689
28580W        W95648  10.280  10.827   0.830
28581W        W95649   9.174  36.053   3.802
28582W        W95650  31.141  18.059   1.734
28583W        W95651  32.440  44.836   4.307
28584W        W95652   0.421  23.095  12.540
28585W        W95653  12.128  42.922   2.678
28586W        W95654   2.341  44.495   0.476
28587W        W95655  14.126  13.138  11.036
28588W        W95656  10.229  38.498   1.419
28589W        W95657  15.167  44.006  12.466
28590W        W95658   4.810  34.903   5.278
28591W        W95659  23.095  38.548  12.984
28592W        W95660  27.187  35.963  12.513
28593W        W95661  20.143  12.807   3.766
28594W        W95662  13.718  38.862   0.292
28595W        W95663  25.520  19.692   0.756
28596W        W95664  33.082   5.747  13.859
28597W        W95665  13.756  43.957   2.765
28598W        W95666  39.910   8.710  14.960
28599W        W95667  20.613  37.904  11.905
28600W        W95668  44.769   0.362  13.028
28601W        W95669  11.773  22.141   4.345
28602W        W95670  42.949  37.464   1.448
28603W        W95671  13.802  42.809   3.665
28604W        W95672   7.250  37.500   3.297
28605W        W95673  33.085  30.488   2.272
28606W        W95674   0.802  14.631  13.013
28607W        W95675  12.745   0.839   1.408
28608W        W95676  17.294  30.438  12.427
28609W        W95677  11.827  43.827  12.001
28610W        W95678  13.615  19.270  13.033
28611W        W95679  26.133  23.628  10.634
28612W        W95680   1.482  44.910   4.766
28613W        W95681   6.810  27.198   0.466
28614W        W95682  18.679  35.512   1.832
28615W        W95683  35.981  10.721  11.994
28616W        W95684  41.959  44.941   0.955
28617W        W95685  22.203  12.708   2.307
28618W        W95686   4.225  41.976  13.794
28619W        W95687  14.107  14.298   2.256
28620W        W95688  42.521   4.216  12.999
28621W        W95689   2.948  30.930   3.768
28622W        W95690   5.340  24.656   4.752
28623W        W95691  25.677  17.079  11.537
28624W        W95692  22.999  10.793  11.089
28625W        W95693  34.076  34.433  11.087
28626W        W95694  23.058  17.170   0.967
28627W        W95695   3.747  37.341   0.749
28628W        W95696  30.617   0.914   3.718
28629W        W95697  41.007   6.262  12.515
28630W        W95698   7.877  44.498   2.309
28631W        W95699  19.244  21.530  11.958
28632W        W95700   3.445   5.838   3.150
28633W        W95701  39.449   0.488   2.261
28634W        W95702  34.535  33.596  14.429
28635W        W95703  22.734  44.929  12.073
28636W        W95704   2.382  11.840  12.378
28637W        W95705   8.796  43.813  14.422
28638W        W95706  26.121  17.778  13.996
28639W        W95707  43.473  28.940  13.907
28640W        W95708  20.748  12.130  12.834
28641W        W95709  39.034   6.699  11.382
28642W        W95710  15.110  38.886   4.809
28643W        W95711  37.064   5.800  13.944
28644W        W95712  33.027  43.280  14.997
28645W        W95713  16.664  10.706  13.885
28646W        W95714   9.324  36.449   2.372
28647W        W95715  37.928  16.287   0.369
28648W        W95716   1.909  33.390  14.404
28649W        W95717  27.035  20.181   4.247
28650W        W95718  30.568   2.757  11.877
28651W        W95719  27.567  10.686   3.330
28652W        W95720  16.170  16.154   4.138
28653W        W95721  14.107   6.741  11.124
28654W        W95722  40.493  25.085  10.437
28655W        W95723  29.975  32.941   0.428
28656W        W95724  27.502  24.638  11.942
28657W        W95725  24.178  24.611  13.397
28658W        W95726  10.140  38.444   0.473
28659W        W95727  40.459   0.292  12.015
28660W        W95728   4.913  43.968   3.190
28661W        W95729  27.127  11.247  11.927
28662W        W95730   3.320  21.206  14.856
28663W        W95731  30.958  17.772   4.745
28664W        W95732  27.976  44.758   4.266
28665W        W95733  12.686  31.071   4.250
28666W        W95734  11.689   8.734   2.256
28667W        W95735  42.998  19.633   3.342
28668W        W95736  16.680  17.791  14.947
28669W        W95737  37.073   5.836   3.838
28670W        W95738  42.438   2.937  11.898
28671W        W95739   5.370  35.941   4.342
28672W        W95740  44.397  29.991  11.980
28673W        W95741  15.716  23.658   4.742
28674W        W95742  26.558  15.653  10.630
28675W        W95743   8.296   0.817  12.534
28676W        W95744  44.452  25.495  13.458
28677W        W95745  23.646  21.707  11.975
28678W        W95746  43.407  32.522   4.183
28679W        W95747  10.859   5.738   3.316
28680W        W95748  20.079  28.977  12.539
28681W        W95749  22.029  34.026   1.928
28682W        W95750   0.351  17.072  11.856
28683W        W95751  22.696  21.747  10.573
28684W        W95752  23.992  32.925   3.777
28685W        W95753  16.765   6.367   2.687
28686W        W95754  33.043  26.505  13.842
28687W        W95755  44.799  16.241   1.701
28688W        W95756  31.149  43.942   2.276
28689W        W95757  22.628   0.482  13.803
28690W        W95758  21.056   0.936   3.674
28691W        W95759  43.470   1.312  12.959
28692W        W95760  40.496   7.754  14.836
28693W        W95761  11.743  44.899   2.780
28694W        W95762  19.191   2.787  14.413
28695W        W95763  11.271  26.967   1.242
28696W        W95764  43.303  20.631   4.330
28697W        W95765  28.968  22.601  12.935
28698W        W95766   3.835   5.421   3.215
28699W        W95767   3.854  16.799  14.404
28700W        W95768   0.327  22.234  14.968
28701W        W95769  41.797   4.222  10.557
28702W        W95770  27.624   6.742   4.760
28703W        W95771  31.915  44.934  12.052
28704W        W95772  17.600   7.329   3.807
28705W        W95773  27.032  28.026   4.611
28706W        W95774   1.922  39.405  12.852
28707W        W95775   9.688  33.911   4.604
28708W        W95776  21.747  10.791  12.011
28709W        W95777   5.904   6.263  11.606
28710W        W95778  16.307   4.328  12.081
28711W        W95779  11.636   7.725   1.760
28712W        W95780  18.155  26.050   4.702
28713W        W95781  16.617  11.267  11.923
28714W        W95782  10.764  18.547  14.875
28715W        W95783  40.985  31.582   2.373
28716W        W95784  22.689  42.380  11.385
28717W        W95785  33.877  18.697  12.454
28718W        W95786   7.722   2.388  10.480
28719W        W95787  25.503  14.606  11.523
28720W        W95788  12.249  41.308  14.437
28721W        W95789   8.286  31.544  14.475
28722W        W95790   8.191  34.113   1.311
28723W        W95791  35.922  19.131  11.508
28724W        W95792  14.127  43.885   1.426
28725W        W95793  35.536  40.898  11.093
28726W        W95794   2.425  40.923  14.505
28727W        W95795  37.961  30.456   2.315
28728W        W95796  11.227  28.995  11.127
28729W        W95797  20.704  21.541  11.555
28730W        W95798  27.619  20.610  11.966
28731W        W95799  36.478  26.050   0.293
28732W        W95800  35.867  29.630   1.407
28733W        W95801  23.599  44.791  11.531
28734W        W95802   0.771   8.205  11.581
28735W        W95803   3.335  41.879   1.404
28736W        W95804  40.972  12.755  12.050
28737W        W95805  13.656  31.496   4.640
28738W        W95806  23.065  28.464  13.370
28739W        W95807  37.920  22.580  11.903
28740W        W95808  10.186   2.295   2.238
28741W        W95809  28.979   7.247   2.690
28742W        W95810  31.429  13.216  12.892
28743W        W95811  20.116  21.165   2.228
28744W        W95812  14.264  15.734   0.257
28745W        W95813  32.989  28.084   1.708
28746W        W95814  24.008  25.985   4.343
28747W        W95815  26.054  22.010   2.693
28748W        W95816   6.214   7.368   9.992
28749W        W95817   9.889  15.713  11.056
28750W        W95818  41.902  14.775  11.385
28751W        W95819  11.274  35.381  13.979
28752W        W95820  20.561   3.879   3.167
28753W        W95821   9.732   3.818  11.445
28754W        W95822  44.862   6.327  13.833
28755W        W95823  19.541   4.785   2.403
28756W        W95824   0.398  37.048   1.933
28757W        W95825  35.945  28.183   4.323
28758W        W95826  12.340  34.901  11.383
28759W        W95827  27.676  21.576  10.634
28760W        W95828  22.563  44.306   2.397
28761W        W95829  21.716  22.503   1.792
28762W        W95830  18.112  39.470  13.310
28763W        W95831   0.858   9.786   0.797
28764W        W95832   5.405   0.774   3.738
28765W        W95833  41.318  25.053  10.442
28766W        W95834  28.467  39.046  14.387
28767W        W95835  38.351  31.121   2.266
28768W        W95836  26.619  41.372  11.092
28769W        W95837  28.534   3.295   1.780
28770W        W95838   0.923   8.375   2.802
28771W        W95839  21.584  13.761   4.787
28772W        W95840  33.056  12.836   0.811
28773W        W95841   1.972   8.356   0.840
28774W        W95842  23.687  25.989   0.305
28775W        W95843  26.539  12.768  11.010
28776W        W95844  31.931  15.132  10.416
28777W        W95845  32.407  14.242  12.560
28778W        W95846   0.468  12.174  11.527
28779W        W95847  44.806  27.080   4.348
28780W        W95848  22.229  42.401   0.840
28781W        W95849  19.737  42.419   4.681
28782W        W95850  30.146  44.975   4.291
28783W        W95851  24.987  36.587  11.527
28784W        W95852  26.177  38.900  11.979
28785W        W95853  15.737  19.648   5.636
28786W        W95854  18.702  17.740   2.708
28787W        W95855  27.494  41.332   2.241
28788W        W95856  28.612  27.156   1.746
28789W        W95857  31.579  22.698  12.013
28790W        W95858  43.333  14.645  12.435
28791W        W95859  17.210  32.007  14.375
28792W        W95860  13.270   7.302  13.412
28793W        W95861  31.996  31.040  14.031
28794W        W95862  35.870  38.967  13.025
28795W        W95863  34.586  13.699  11.464
28796W        W95864  11.758  35.473   0.888
28797W        W95865  38.902  23.079  14.488
28798W        W95866  17.307  27.054   2.851
28799W        W95867  22.533  23.672   0.901
28800W        W95868  14.326  21.679   2.320
28801W        W95869  37.441  10.153  10.472
28802W        W95870  22.626  27.014  12.886
28803W        W95871  33.615  15.092  11.025
28804W        W95872  22.732  10.722   0.323
28805W        W95873  44.943  31.622   3.651
28806W        W95874  14.312  43.480  12.341
28807W        W95875  19.772   8.378  14.917
28808W        W95876   6.232  25.639   0.298
28809W        W95877  27.658  30.158  12.456
28810W        W95878  25.165  19.637  11.910
28811W        W95879  19.551   2.427  13.366
28812W        W95880  30.931   2.930  13.410
28813W        W95881  32.017  37.856   3.827
28814W        W95882   6.729  28.564   3.269
28815W        W95883  40.497  35.951  12.069
28816W        W95884  39.867  44.388  11.587
28817W        W95885   5.294  32.093   4.602
28818W        W95886  39.980   9.681   1.375
28819W        W95887   3.305  42.825  11.392
28820W        W95888   1.963  22.561   4.175
28821W        W95889  22.167   7.908  11.536
28822W        W95890  41.809   5.283   2.278
28823W        W95891  22.560   2.271  14.494
28824W        W95892   9.834   8.890  11.431
28825W        W95893  19.767  19.575   1.416
28826W        W95894  13.162  36.009   5.085
28827W        W95895  28.517  26.031  11.403
28828W        W95896  42.932  10.803   2.399
28829W        W95897  34.966  32.909   0.249
28830W        W95898  27.158  40.039   1.760
28831W        W95899   6.864  25.173  12.494
28832W        W95900  21.207   9.341  13.012
28833W        W95901  13.614  13.767   4.160
28834W        W95902  38.484  10.227  14.982
28835W        W95903   7.405  32.410   3.261
28836W        W95904  33.567   2.778  13.940
28837W        W95905  32.923   0.441  13.425
28838W        W95906  42.823  10.875   0.293
28839W        W95907  44.821  21.554   1.269
28840W        W95908   6.805  23.150  10.930
28841W        W95909  20.575  20.079   1.760
28842W        W95910  26.203  29.048  12.018
28843W        W95911   5.821  25.144   1.729
28844W        W95912  43.913   8.317  12.986
28845W        W95913  18.630  20.566   4.705
28846W        W95914  25.489  39.898  11.903
28847W        W95915  13.745  22.563   3.335
28848W        W95916   7.859  31.928   0.764
28849W        W95917  19.579   4.322  11.895
28850W        W95918  26.532  15.802   0.265
28851W        W95919  13.735  11.664   3.856
28852W        W95920  15.705  39.930  14.834
28853W        W95921  28.079  44.780  12.911
28854W        W95922  19.699  21.076  11.055
28855W        W95923  23.692  11.781  12.516
28856W        W95924  12.662  44.941   2.178
28857W        W95925  41.375  16.204   4.827
28858W        W95926  37.886   8.891   1.919
28859W        W95927   7.735   8.784  12.472
28860W        W95928   1.775  27.657  10.909
28861W        W95929  25.474  11.825  15.000
28862W        W95930   7.695  10.299   3.261
28863W        W95931  40.874  42.384   1.768
28864W        W95932  19.207  21.564   0.308
28865W        W95933  16.148  36.041  12.973
28866W        W95934   4.945  16.668   1.416
28867W        W95935  24.710  16.091   1.230
28868W        W95936  14.683  30.565   2.768
28869W        W95937  41.040  32.012  11.925
28870W        W95938  40.317  10.656   4.348
28871W        W95939  16.589  39.890   1.318
28872W        W95940  26.001  13.762   4.172
28873W        W95941  44.991  23.121   1.359
28874W        W95942  20.253  43.419   3.804
28875W        W95943  27.955  20.526   1.726
28876W        W95944  25.496   4.944  10.006
28877W        W95945  16.654  35.471   2.401
28878W        W95946  27.098  17.658   3.359
28879W        W95947  35.525  15.283  13.038
28880W        W95948  27.646  30.433  14.785
28881W        W95949  10.821  42.802   3.288
28882W        W95950  18.564  30.147  11.016
28883W        W95951   1.864  38.014  13.055
28884W        W95952  43.872  43.432   2.853
28885W        W95953  12.791   8.168  14.795
28886W        W95954  38.826  37.455  11.094
28887W        W95955  21.146  44.345   1.884
28888W        W95956   9.842   1.450  10.560
28889W        W95957  12.705  22.088   0.860
28890W        W95958  18.584   0.812   2.856
28891W        W95959   5.899   3.454   1.309
28892W        W95960   8.376   6.314   4.312
28893W        W95961  21.545  26.639   4.124
28894W        W95962  17.257  25.611  11.439
28895W        W95963   7.326  33.562   1.701
28896W        W95964  34.925  16.568  11.405
28897W        W95965  36.485  33.092   4.809
28898W        W95966   7.201   6.779  10.488
28899W        W95967  30.932   3.435  11.566
28900W        W95968  21.647  22.207   1.905
28901W        W95969   2.452   4.345   1.887
28902W        W95970  25.164   0.768   0.389
28903W        W95971  26.030   2.434  14.957
28904W        W95972  29.490  40.844   1.212
28905W        W95973   6.790  17.707  14.498
28906W        W95974  41.913   2.291  11.580
28907W        W95975  26.197  25.218  14.431
28908W        W95976  34.392  21.094   0.289
28909W        W95977  16.668   9.280  14.852
28910W        W95978  42.789  33.970  14.295
28911W        W95979  43.975  35.530  10.890
28912W        W95980  31.144  17.205   1.868
28913W        W95981  14.226  14.660  12.987
28914W        W95982  25.676  26.598   3.207
28915W        W95983  17.594  35.412  13.911
28916W        W95984  32.552  44.850  13.024
28917W        W95985  36.459  42.031  12.441
28918W        W95986   0.772  13.272  13.005
28919W        W95987  16.098  21.248   2.712
28920W        W95988  23.524  28.605   1.914
28921W        W95989  32.434   3.353   3.818
28922W        W95990  15.284  34.023  10.620
28923W        W95991  32.426   2.362   3.268
28924W        W95992  38.868  13.249  13.442
28925W        W95993  33.046  21.616  11.425
28926W        W95994  19.586  31.500  10.970
28927W        W95995   6.871  34.970  14.984
28928W        W95996   8.894  15.205   0.403
28929W        W95997  41.842   7.202  13.015
28930W        W95998  32.409  25.518   3.339
28931W        W95999  21.127  29.150   5.250
28932W        W96000   5.894  31.524   1.854
28933W        W96001  38.076   7.180   0.421
28934W        W96002  18.713  22.705  12.834
28935W        W96003  40.468  33.509  12.961
28936W        W96004  23.200   4.784   3.731
28937W        W96005  19.654   8.674  11.917
28938W        W96006  15.167  42.830  13.489
28939W        W96007   4.887  28.543  10.942
28940W        W96008  31.039  13.841  10.971
28941W        W96009   8.891  43.377  13.989
28942W        W96010  41.854   0.936  13.328
28943W        W96011  23.072  41.810  14.922
28944W        W96012  11.271  43.436   1.257
28945W        W96013   2.785  39.903   1.291
28946W        W96014  31.046  22.059  13.460
28947W        W96015  38.333  33.937   2.285
28948W        W96016  35.002   9.229  14.967
28949W        W96017   7.809  24.205  11.947
28950W        W96018  36.420  38.980  13.458
28951W        W96019  15.578  17.088   2.724
28952W        W96020  37.871   6.391   2.809
28953W        W96021  12.250  27.976   4.270
28954W        W96022  34.604  26.699   2.705
28955W        W96023  12.227   2.834  14.389
28956W        W96024  19.096  30.441  14.417
28957W        W96025  13.820  18.153  12.927
28958W        W96026  21.713  27.508   0.894
28959W        W96027  27.552  36.988  13.022
28960W        W96028  36.551  17.149  14.347
28961W        W96029   5.778  32.550  13.015
28962W        W96030  20.538  25.048  13.505
28963W        W96031  37.068  24.116   0.821
28964W        W96032  31.572  32.565  11.584
28965W        W96033  38.479  18.621  10.630
28966W        W96034  22.603  26.516   1.922
28967W        W96035   0.984  11.243   2.814
28968W        W96036   4.866  20.667   3.661
28969W        W96037  39.546  10.740  10.618
28970W        W96038  10.165  33.943   4.205
28971W        W96039  21.575  36.961   5.174
28972W        W96040  43.769  24.637   1.247
28973W        W96041  19.205  32.064   0.930
28974W        W96042   6.362   5.324   2.687
28975W        W96043  38.982  20.230  14.426
28976W        W96044   2.382  15.688  10.537
28977W        W96045   4.857   3.932  12.829
28978W        W96046  24.217  20.629   0.402
28979W        W96047  39.035  27.008  13.319
28980W        W96048   1.418   2.903   3.384
28981W        W96049  41.942  41.870   0.362
28982W        W96050  44.893  18.230   3.734
28983W        W96051   7.679  32.106  11.885
28984W        W96052  33.450   5.913   4.216
28985W        W96053  17.636  26.528  12.037
28986W        W96054  14.167   7.868  12.924
28987W        W96055  35.857  32.032  13.988
28988W        W96056  20.034  29.595  10.904
28989W        W96057  33.074  23.562   2.726
28990W        W96058  25.204  39.937   1.838
28991W        W96059  34.488   0.945  13.531
28992W        W96060   3.951  24.092  10.936
28993W        W96061  32.490  11.648  12.506
28994W        W96062  16.091  14.617  12.050
28995W        W96063  20.054  19.678  13.512
28996W        W96064  43.500  42.424  14.303
28997W        W96065   3.278  25.141   1.443
28998W        W96066  40.834  28.630  10.632
28999W        W96067  30.934  28.955  12.064
29000W        W96068  16.729   8.739   1.933
29001W        W96069   2.722  27.179  12.962
29002W        W96070  33.878  24.600   2.755
29003W        W96071   9.291  42.363   3.199
29004W        W96072   2.771   4.313   1.213
29005W        W96073  44.839  15.727   4.324
29006W        W96074   7.688  24.215  12.376
29007W        W96075  11.658  21.148  13.847
29008W        W96076  23.567   7.762   4.664
29009W        W96077  40.951  12.164  13.911
29010W        W96078   1.898  15.662   2.754
29011W        W96079  17.666  23.209   2.750
29012W        W96080  41.005  13.600  14.414
29013W        W96081  32.050  21.254  12.555
29014W        W96082  17.210   7.761   3.356
29015W        W96083   4.289  23.576  10.999
29016W        W96084  17.610  24.556   3.856
29017W        W96085  38.341   7.717  12.882
29018W        W96086  25.518   3.276  14.380
29019W        W96087  34.029   7.378  10.895
29020W        W96088   2.955  33.091  13.879
29021W        W96089  22.582  36.419  12.944
29022W        W96090   8.371  43.411   2.419
29023W        W96091  23.587  17.719   2.877
29024W        W96092   6.405  15.708  14.839
29025W        W96093  35.051   7.188  12.558
29026W        W96094  22.071  24.018   4.210
29027W        W96095   0.923   4.712  10.643
29028W        W96096  12.667  39.500  14.900
29029W        W96097  39.926  33.492  14.927
29030W        W96098  44.495  34.938   4.318
29031W        W96099  11.161  28.661  13.343
29032W        W96100  21.132  42.312   4.760
29033W        W96101  12.823  17.617  14.384
29034W        W96102  41.377  43.449  13.324
29035W        W96103   4.314  41.960  13.486
29036W        W96104   4.212  18.161   3.629
29037W        W96105  39.967   4.738   2.781
29038W        W96106  29.641  19.171  12.499
29039W        W96107   2.420  26.024   4.113
29040W        W96108  26.100  20.700  14.278
29041W        W96109  33.464  44.936  14.764
29042W        W96110  44.831  38.522  13.058
29043W        W96111  32.520   3.369   5.115
29044W        W96112  33.508  32.000  10.956
29045W        W96113  24.514  36.916  14.970
29046W        W96114  13.659  17.231  12.451
29047W        W96115  32.431  33.890   2.307
29048W        W96116  32.455  36.851  13.876
29049W        W96117  25.670  22.704  14.367
29050W        W96118  22.995  41.934  11.530
29051W        W96119  26.543  27.134   2.883
29052W        W96120  29.960  20.758   2.317
29053W        W96121  31.476  11.152   0.382
29054W        W96122  10.664   6.787  12.576
29055W        W96123   7.275  33.061   3.831
29056W        W96124  38.429  40.959   4.243
29057W        W96125   4.375  44.787  12.451
29058W        W96126   8.780  39.492  10.630
29059W        W96127  28.055  20.043  13.494
29060W        W96128  43.284  27.068   2.285
29061W        W96129   4.415  39.471  13.328
29062W        W96130  10.242   5.850  14.000
29063W        W96131  11.306   5.854  14.971
29064W        W96132  29.597  37.444   1.752
29065W        W96133   6.193   1.935   2.826
29066W        W96134   8.755  21.103  13.326
29067W        W96135  28.000  11.362  13.798
29068W        W96136  37.369  42.372  13.493
29069W        W96137  39.509   0.810   2.278
29070W        W96138  43.902   0.465   3.279
29071W        W96139  32.943  17.197  11.860
29072W        W96140  19.070  31.500   1.703
29073W        W96141  28.067   9.391  10.932
29074W        W96142  24.117  13.189  14.983
29075W        W96143  14.590  25.691  10.415
29076W        W96144   4.369  35.515  11.905
29077W        W96145   5.262  33.486   4.613
29078W        W96146   0.851  26.529  14.989
29079W        W96147  29.137  20.600   2.714
29080W        W96148  36.855  34.543   4.714
29081W        W96149  44.865  43.954   2.840
29082W        W96150   4.823  32.034   3.781
29083W        W96151  16.131  29.660   1.254
29084W        W96152  32.538  16.295  14.455
29085W        W96153  14.698   5.250   3.186
29086W        W96154  40.883  37.518   2.323
29087W        W96155  40.390   9.689  14.956
29088W        W96156  28.622  13.205   4.313
29089W        W96157  10.787  25.528   0.860
29090W        W96158  25.519  38.981   4.673
29091W        W96159  26.506   1.959  12.565
29092W        W96160  24.114  28.582  10.499
29093W        W96161  36.027  22.067   4.795
29094W        W96162  44.406  26.004   0.862
29095W        W96163  16.741  19.712   0.887
29096W        W96164  39.999  18.667  14.327
29097W        W96165  31.636   2.836  14.920
29098W        W96166  13.621  18.239   3.153
29099W        W96167  25.119  12.295  10.486
29100W        W96168  40.318  34.090  14.508
29101W        W96169   2.774  42.879   0.304
29102W        W96170   6.918  15.203   2.207
29103W        W96171  28.598  24.646   2.240
29104W        W96172   5.846  31.976   4.181
29105W        W96173  37.940  10.194   4.610
29106W        W96174   7.313  36.939   1.855
29107W        W96175  35.486  19.705   3.204
29108W        W96176  14.122  36.453  14.021
29109W        W96177  38.528  20.581  14.334
29110W        W96178  42.883  35.474   1.775
29111W        W96179   8.370  18.058   3.659
29112W        W96180  38.884   4.816  10.890
29113W        W96181   8.335  39.856  12.065
29114W        W96182  13.328  26.655  12.869
29115W        W96183  36.374  21.569  11.434
29116W        W96184   8.894  40.325   4.136
29117W        W96185  22.550  42.338  10.030
29118W        W96186  24.697  25.635   4.314
29119W        W96187  27.023  41.398  14.933
29120W        W96188  23.582  37.036  14.472
29121W        W96189  36.466  26.989  12.901
29122W        W96190  32.083   7.845   0.941
29123W        W96191  32.035   8.881  10.478
29124W        W96192  38.013  35.901   4.318
29125W        W96193  29.028  40.335   4.629
29126W        W96194  36.465   6.688   2.350
29127W        W96195  37.838   7.265  11.891
29128W        W96196   3.421  36.521   3.277
29129W        W96197  41.408  19.210  13.529
29130W        W96198  23.082  28.967   4.148
29131W        W96199   0.388  22.518   2.796
29132W        W96200  39.389  23.497  13.487
29133W        W96201   6.747   7.231   3.654
29134W        W96202   5.919   1.265  13.039
29135W        W96203   3.932  42.305   2.311
29136W        W96204   8.165  24.150   3.700
29137W        W96205  37.839  10.829  12.000
29138W        W96206  27.626  32.531   3.339
29139W        W96207   3.317  22.138   9.961
29140W        W96208  28.663   4.258  14.031
29141W        W96209  32.468  18.683  14.464
29142W        W96210  21.722  29.507  11.121
29143W        W96211  16.795  33.382   0.752
29144W        W96212  32.987  26.952  14.816
29145W        W96213  43.013  44.454  14.431
29146W        W96214   6.690  25.020  11.592
29147W        W96215  40.469   5.325  11.545
29148W        W96216   5.276  44.410   9.990
29149W        W96217  44.341  27.147   3.682
29150W        W96218  14.289  36.028  11.004
29151W        W96219  20.211   0.801   2.205
29152W        W96220  38.373  38.365  14.992
29153W        W96221  22.508  28.481   3.654
29154W        W96222  27.550   1.391   3.286
29155W        W96223  43.502  16.147  10.894
29156W        W96224  18.551   9.380   4.666
29157W        W96225  39.974  30.128   4.251
29158W        W96226  31.525  25.572   4.676
29159W        W96227  29.088  15.626   1.217
29160W        W96228  26.133   6.223  13.384
29161W        W96229  28.612  25.664   1.301
29162W        W96230   6.835  15.217   1.340
29163W        W96231  22.125   2.900   1.388
29164W        W96232  25.625  25.209   0.356
29165W        W96233  30.004  32.955  13.959
29166W        W96234  28.134   4.855  12.862
29167W        W96235  18.556  26.579  13.887
29168W        W96236   1.269  23.692  14.829
29169W        W96237   3.953  24.542   4.287
29170W        W96238   4.853  11.812   4.743
29171W        W96239  31.497   6.423  11.504
29172W        W96240  13.240  22.248   4.768
29173W        W96241  23.735  20.738  10.519
29174W        W96242  11.330  33.951   3.194
29175W        W96243   9.244  37.073   0.300
29176W        W96244  35.997   4.741  11.051
29177W        W96245  27.600  35.922   0.744
29178W        W96246  18.691  10.320  12.055
29179W        W96247  22.090   4.450  14.828
29180W        W96248  34.909  18.637  10.547
29181W        W96249  41.390  22.659   1.286
29182W        W96250   9.162  25.964  11.086
29183W        W96251   5.313  23.082   0.258
29184W        W96252  27.175  38.539   0.325
29185W        W96253   8.876   0.256   1.733
29186W        W96254  31.580  42.324   0.467
29187W        W96255   7.876  32.112   0.468
29188W        W96256   8.328  26.638   4.598
29189W        W96257  41.927  30.069   2.406
29190W        W96258  40.965  31.533   1.218
29191W        W96259  22.532  18.148   5.300
29192W        W96260  22.564  36.880   1.410
29193W        W96261   7.413   6.283  11.441
29194W        W96262  17.280  28.509  12.897
29195W        W96263  13.621  37.386  11.607
29196W        W96264  17.070  17.213   3.642
29197W        W96265  13.838  20.691  10.065
29198W        W96266  13.280  39.837  12.850
29199W        W96267  14.723  31.634  14.420
29200W        W96268   4.241  16.282   2.703
29201W        W96269  33.924  33.621  12.937
29202W        W96270  35.572  33.119  12.864
29203W        W96271  17.204   6.309   0.760
29204W        W96272  15.633  27.019   1.697
29205W        W96273   2.800   5.701   1.819
29206W        W96274  13.663   6.794   0.911
29207W        W96275  22.655  13.204  14.451
29208W        W96276  16.593  29.592  12.403
29209W        W96277  38.840   8.888   0.373
29210W        W96278   3.945  39.331  10.506
29211W        W96279  31.101  17.633  13.372
29212W        W96280  31.981  42.938   5.195
29213W        W96281  37.354  30.077   0.414
29214W        W96282  21.524  12.307   1.296
29215W        W96283  35.479  34.497   3.680
29216W        W96284  28.154  23.635  11.101
29217W        W96285  36.015  10.210   0.913
29218W        W96286   9.324  16.156  14.763
29219W        W96287  24.080  20.100   2.837
29220W        W96288  39.867  24.230   2.199
29221W        W96289  16.076   1.734  13.991
29222W        W96290  21.227  13.263  12.074
29223W        W96291   6.906  16.810  14.998
29224W        W96292  34.005  38.959   0.298
29225W        W96293   8.900  16.200  11.987
29226W        W96294  17.203   9.366  12.898
29227W        W96295  31.634  25.667  12.362
29228W        W96296  24.018   7.351   0.925
29229W        W96297  31.962  23.043   3.176
29230W        W96298  28.482   1.764  11.967
29231W        W96299  42.794  27.140  12.358
29232W        W96300  18.229  14.189  12.466
29233W        W96301  13.705  43.297   4.791
29234W        W96302  30.107   8.170  12.457
29235W        W96303  15.606   7.776  10.447
29236W        W96304  25.639  32.411   1.720
29237W        W96305  39.974  16.182  10.465
29238W        W96306   5.868  22.693  14.914
29239W        W96307   5.379  17.750  12.525
29240W        W96308  17.792  23.625   4.250
29241W        W96309  42.956  43.418   0.880
29242W        W96310   4.750   1.824  14.452
29243W        W96311  39.330   9.286  13.965
29244W        W96312   1.438  35.985  13.499
29245W        W96313  25.615  11.691   4.699
29246W        W96314  40.370  44.884  13.040
29247W        W96315   9.816  29.947  13.796
29248W        W96316   3.908   3.219   1.920
29249W        W96317  21.613  36.540  12.917
29250W        W96318  43.314  33.421   4.606
29251W        W96319  40.872  25.544  12.839
29252W        W96320  35.998  26.990   0.834
29253W        W96321  24.973  29.622  13.502
29254W        W96322  21.260   5.406  12.021
29255W        W96323  38.330  27.457  10.962
29256W        W96324  33.083  27.117  13.810
29257W        W96325   8.878  38.037   1.749
29258W        W96326  39.019  16.748   0.364
29259W        W96327  44.356   2.258  13.953
29260W        W96328   5.737  19.259   0.361
29261W        W96329  40.382  37.544  14.308
29262W        W96330  22.578  30.625  12.061
29263W        W96331  31.445  15.247   1.836
29264W        W96332  19.076  43.467  14.862
29265W        W96333  38.894  44.386   4.808
29266W        W96334   8.325  13.766  13.857
29267W        W96335  34.093  32.486  14.802
29268W        W96336  35.371  24.191   4.240
29269W        W96337  43.924  20.698   0.349
29270W        W96338  13.653  22.660  13.329
29271W        W96339  42.469  11.262  13.985
29272W        W96340  34.504  11.748  13.909
29273W        W96341   0.923   9.765   4.748
29274W        W96342   2.410  18.177  14.793
29275W        W96343  28.171  43.338  13.853
29276W        W96344  17.179  11.147   4.253
29277W        W96345  34.895  12.853   3.353
29278W        W96346  28.186   6.871  12.404
29279W        W96347  39.015  17.304  11.534
29280W        W96348  30.041  31.598   1.225
29281W        W96349  35.937   4.752   3.788
29282W        W96350   1.935   7.890  12.545
29283W        W96351  29.498  21.628  13.950
29284W        W96352  14.599  42.914   3.364
29285W        W96353  19.255  32.917   3.753
29286W        W96354  16.123  35.466  10.425
29287W        W96355  37.088  11.750   4.300
29288W        W96356   7.246  39.059   1.295
29289W        W96357  10.267  30.489  10.577
29290W        W96358  34.579   8.869   2.233
29291W        W96359  24.039  44.770  14.276
29292W        W96360   9.881  11.695  11.032
29293W        W96361  31.052  27.619  12.003
29294W        W96362  21.717  43.463   2.858
29295W        W96363  20.537  28.476   2.781
29296W        W96364  18.669  41.350  11.021
29297W        W96365  31.926  37.421  12.572
29298W        W96366  20.527   5.279  12.031
29299W        W96367  29.435  28.512   4.653
29300W        W96368  13.249  21.669  13.002
29301W        W96369   3.262  44.802  10.420
29302W        W96370  11.734  19.561  13.830
29303W        W96371  19.570   1.296  13.908
29304W        W96372   8.670  35.021  13.863
29305W        W96373  17.118  41.907  12.066
29306W        W96374  31.081  15.179   1.929
29307W        W96375   0.902  38.871  11.446
29308W        W96376   2.244  11.257  10.429
29309W        W96377  16.795  38.923   1.700
29310W        W96378  35.909  24.560  12.428
29311W        W96379  39.934  13.650   0.295
29312W        W96380  12.305  40.025   2.379
29313W        W96381  39.919  15.810  11.450
29314W        W96382  19.741  38.345   0.374
29315W        W96383  43.886  18.230   1.744
29316W        W96384  19.105  10.353  11.078
29317W        W96385  37.564  20.202  10.607
29318W        W96386  22.239  21.132   2.416
29319W        W96387  29.101  15.615  12.527
29320W        W96388  36.451  30.933  13.919
29321W        W96389  23.593  26.003  10.528
29322W        W96390  43.963  41.294  12.492
29323W        W96391  21.189  29.549   2.321
29324W        W96392  22.067  35.478   3.262
29325W        W96393  21.747   4.298   3.206
29326W        W96394  11.261  22.538  14.900
29327W        W96395  21.073  18.566  14.866
29328W        W96396   5.806   7.728   0.875
29329W        W96397  40.835  21.065  11.507
29330W        W96398  44.372  26.566  13.928
29331W        W96399  25.572  21.651  14.008
29332W        W96400  37.019  20.201   2.316
29333W        W96401  34.483  15.791   3.164
29334W        W96402  42.927  16.262   4.686
29335W        W96403  20.718  31.056  11.461
29336W        W96404  18.612  11.695  10.492
29337W        W96405   3.242  26.167   0.755
29338W        W96406  35.402   6.316   4.609
29339W        W96407  33.386   3.372  14.926
29340W        W96408  43.281  28.068   1.344
29341W        W96409  42.368  34.545  10.643
29342W        W96410   8.758  38.383   4.736
29343W        W96411  28.090  34.956  14.402
29344W        W96412   7.747  38.015   2.694
29345W        W96413  11.686  22.581  10.005
29346W        W96414  20.094   7.190   2.775
29347W        W96415  21.579  30.068   1.423
29348W        W96416   1.241   3.841   1.363
29349W        W96417   7.259  20.581   1.407
29350W        W96418  30.038  21.038   1.412
29351W        W96419   4.281   1.835  12.007
29352W        W96420  36.482  38.911   4.317
29353W        W96421  43.427  42.985   3.194
29354W        W96422  12.342  36.874   4.171
29355W        W96423   4.236  38.025  12.009
29356W        W96424  13.781  27.580   1.831
29357W        W96425  13.728  16.205   1.746
29358W        W96426  25.522  32.037   0.847
29359W        W96427  13.230  11.626   0.385
29360W        W96428  19.262   6.359  12.549
29361W        W96429  41.036  15.187  11.514
29362W        W96430   5.874  23.074  10.457
29363W        W96431   4.221   2.828   3.681
29364W        W96432  39.460  18.576   1.905
29365W        W96433  11.296  30.131   4.116
29366W        W96434  13.142   5.192  13.417
29367W        W96435  35.863   2.270   2.367
29368W        W96436   3.808  12.652  14.816
29369W        W96437  35.528  41.889  13.928
29370W        W96438  16.714  32.495  13.427
29371W        W96439  34.565  35.505   1.276
29372W        W96440   6.701  42.801   0.904
29373W        W96441  26.109  10.316  11.123
29374W        W96442  17.576  36.501  13.866
29375W        W96443   0.802   8.189   4.700
29376W        W96444  10.773  29.529  14.451
29377W        W96445  31.515  42.814   0.852
29378W        W96446   2.394  25.478   1.898
29379W        W96447  16.751  10.870  13.312
29380W        W96448   4.929   8.794   1.797
29381W        W96449  19.092  13.276  11.961
29382W        W96450   0.932  33.436   1.819
29383W        W96451  24.053  43.844  14.350
29384W        W96452  37.553  37.555   4.699
29385W        W96453  39.320   3.935   4.815
29386W        W96454  38.844  38.563  10.582
29387W        W96455  23.167  27.646  13.995
29388W        W96456  11.214   7.686   2.191
29389W        W96457  13.726   6.371   2.188
29390W        W96458   5.824  31.915   0.407
29391W        W96459   0.901  12.149   2.355
29392W        W96460  39.005   5.308  11.875
29393W        W96461  22.537  29.611   4.315
29394W        W96462  42.421  42.312  13.396
29395W        W96463  12.351  43.276   0.253
29396W        W96464  10.721  28.524  12.549
29397W        W96465  33.952   7.820  12.970
29398W        W96466  30.945  27.646  12.949
29399W        W96467  20.594   4.409   2.406
29400W        W96468  25.501  10.658   0.910
29401W        W96469  25.038   4.381   0.913
29402W        W96470   9.724  23.154   3.848
29403W        W96471   7.709  29.169  14.361
29404W        W96472  30.051   6.182  12.495
29405W        W96473  33.094  44.264   3.187
29406W        W96474  27.008  14.601  10.905
29407W        W96475  29.596  22.104   3.207
29408W        W96476  37.387   3.321   4.165
29409W        W96477   8.678  14.807   1.255
29410W        W96478  28.538  21.226  10.932
29411W        W96479  24.973  11.770  10.495
29412W        W96480  23.164  14.781   1.883
29413W        W96481  19.600  42.365   3.350
29414W        W96482  43.509  40.303   1.866
29415W        W96483  13.769  41.857  14.882
29416W        W96484  13.721   0.895  14.302
29417W        W96485   0.830  11.225  13.541
29418W        W96486   7.373  36.881   1.252
29419W        W96487  16.651   9.871  11.923
29420W        W96488  41.997   5.851   2.696
29421W        W96489   9.816  12.343  14.839
29422W        W96490  42.502  32.409   1.293
29423W        W96491   7.343  24.212   1.211
29424W        W96492  13.333   3.339   0.413
29425W        W96493  34.117  17.794   1.435
29426W        W96494   7.758  17.633  10.492
29427W        W96495  27.523  24.118   3.795
29428W        W96496  26.203  24.166   0.424
29429W        W96497  12.826  22.231   2.320
29430W        W96498   9.233  28.956  13.527
29431W        W96499   1.439  32.460   3.826
29432W        W96500  11.252  25.702  10.483
29433W        W96501  32.031   0.983   4.220
29434W        W96502   9.273  34.502   0.967
29435W        W96503  10.221   1.317   0.787
29436W        W96504   8.786  10.225   4.140
29437W        W96505  22.705  18.165  13.427
29438W        W96506  15.222   7.798  14.933
29439W        W96507  40.422  19.546   1.332
29440W        W96508  18.253  39.867  13.923
29441W        W96509   6.901  39.405   3.769
29442W        W96510  43.820  31.483  11.077
29443W        W96511  10.227  35.052   3.688
29444W        W96512  13.624  11.227   1.892
29445W        W96513  16.262   5.732   3.801
29446W        W96514   3.455  34.384   4.136
29447W        W96515  22.042  12.353  14.792
29448W        W96516  38.926  42.488  12.851
29449W        W96517   2.252   5.389   4.330
29450W        W96518   5.745  12.257  14.440
29451W        W96519   3.252  39.368  12.089
29452W        W96520   2.341   1.347  10.425
29453W        W96521  23.645  12.788  10.510
29454W        W96522  11.862   9.869   1.834
29455W        W96523  21.709  12.635  14.925
29456W        W96524  12.215   1.962  13.516
29457W        W96525  19.537   3.432   0.874
29458W        W96526  29.654   2.327   3.199
29459W        W96527  26.529   8.731   1.906
29460W        W96528  21.579  40.873  14.497
29461W        W96529  13.318  42.020   3.331
29462W        W96530  31.924  12.289   2.693
29463W        W96531  19.735  12.715  14.434
29464W        W96532  33.955  28.051  10.135
29465W        W96533  32.100  42.855  14.961
29466W        W96534  14.132  38.956  14.875
29467W        W96535  26.570   0.819   2.190
29468W        W96536  35.440  14.131  13.955
29469W        W96537   9.780   4.374   1.306
29470W        W96538  35.877   5.930  12.055
29471W        W96539   4.420  42.873  11.977
29472W        W96540   1.458  24.593   4.751
29473W        W96541  30.427  30.122   4.148
29474W        W96542   2.386  17.182   4.829
29475W        W96543  29.547  43.452  11.397
29476W        W96544  17.769   1.461  12.883
29477W        W96545  20.622  22.024   2.710
29478W        W96546  39.343   1.930  13.816
29479W        W96547  42.401  20.537   0.843
29480W        W96548  43.822  41.790   1.763
29481W        W96549  13.315  34.051   0.272
29482W        W96550  42.910  28.995   2.672
29483W        W96551   1.806   8.806  10.474
29484W        W96552  44.989  26.056  12.549
29485W        W96553  37.406  33.505   5.100
29486W        W96554  13.279  37.850   3.716
29487W        W96555  23.575  23.533  10.597
29488W        W96556  31.638  44.954   0.877
29489W        W96557   6.415   0.917   1.223
29490W        W96558   6.749  31.105   0.435
29491W        W96559   8.803   7.289   2.731
29492W        W96560   0.763  38.386   4.162
29493W        W96561   6.801   9.650   4.343
29494W        W96562  15.286  34.478  11.538
29495W        W96563  19.755  35.522  12.364
29496W        W96564  40.895  36.846   3.743
29497W        W96565  13.278   1.799   4.672
29498W        W96566   3.939  16.310  14.784
29499W        W96567  21.600  39.024  14.406
29500W        W96568  22.203  28.977   4.759
29501W        W96569  44.009  20.237   3.849
29502W        W96570   8.834  30.583  10.050
29503W        W96571   7.832   9.734   0.258
29504W        W96572  44.986  44.921  13.468
29505W        W96573  42.311  14.169   3.835
29506W        W96574  16.787  29.930   3.636
29507W        W96575  32.971  24.713   2.754
29508W        W96576  40.341  36.348   1.782
29509W        W96577   2.938  29.567   0.764
29510W        W96578  37.926  23.718  11.942
29511W        W96579  16.715  20.579   3.152
29512W        W96580  13.686  43.505   0.925
29513W        W96581  12.194  27.182  12.905
29514W        W96582   0.468  27.535   3.318
29515W        W96583  37.486  44.349   4.290
29516W        W96584  10.160  32.455  12.946
29517W        W96585  27.973  25.998   1.699
29518W        W96586  24.615  41.027   3.184
29519W        W96587  26.201   0.293   1.341
29520W        W96588  14.314  22.252   1.799
29521W        W96589  34.931  27.588  11.429
29522W        W96590  37.480   6.729   2.209
29523W        W96591  22.644  21.218  10.972
29524W        W96592  19.607  23.587  12.481
29525W        W96593   4.361  37.369  10.979
29526W        W96594  16.269  37.913  11.091
29527W        W96595  30.030  37.058  14.441
29528W        W96596  26.045  27.058  12.581
29529W        W96597  31.081  29.960   2.297
29530W        W96598   5.345  40.999  12.940
29531W        W96599   7.831   5.311   3.173
29532W        W96600  41.856  19.272   3.685
29533W        W96601  19.284  19.051   0.257
29534W        W96602  30.911   0.275  14.940
29535W        W96603   8.681  18.684  14.887
29536W        W96604  32.119  13.720  14.299
29537W        W96605  18.232  30.568  12.348
29538W        W96606   0.816  36.556  11.910
29539W        W96607  30.082  35.485   1.251
29540W        W96608  14.283  20.579  10.929
29541W        W96609   8.259  41.357   1.929
29542W        W96610  32.048   5.346   3.688
29543W        W96611  42.361  28.537  12.016
29544W        W96612  34.476  12.229   4.696
29545W        W96613  12.242  40.857   2.197
29546W        W96614   2.926   8.316  11.868
29547W        W96615   7.761  38.327   2.686
29548W        W96616  32.496  37.068   1.379
29549W        W96617  12.201  14.147   2.720
29550W        W96618  21.598  21.041  14.977
29551W        W96619  23.069  18.220  13.909
29552W        W96620  43.480  15.195  12.510
29553W        W96621  10.642  16.172   3.281
29554W        W96622  32.998  37.581  14.824
29555W        W96623   1.909  41.003   3.856
29556W        W96624  24.620  42.825   1.888
29557W        W96625  26.578  28.610  12.531
29558W        W96626  17.698   9.725  11.511
29559W        W96627  12.785  24.154  12.397
29560W        W96628  40.419  39.528   1.889
29561W        W96629  37.918   1.766  14.460
29562W        W96630  37.969   6.920   1.284
29563W        W96631   6.275  43.317   1.348
29564W        W96632  24.163  19.759   4.149
29565W        W96633  13.773  38.900  14.287
29566W        W96634   0.779  21.144   9.933
29567W        W96635  30.108  44.419   2.220
29568W        W96636  25.635   3.736   3.334
29569W        W96637  12.303  17.659   0.323
29570W        W96638  12.292  22.540  13.826
29571W        W96639  34.475   8.703  14.420
29572W        W96640  17.573  23.601   3.187
29573W        W96641  15.654  36.970  14.308
29574W        W96642  12.677  30.612  11.497
29575W        W96643  20.162  37.037   0.849
29576W        W96644   1.398  23.112   4.675
29577W        W96645  18.659  26.059   2.703
29578W        W96646   2.306  41.441   9.970
29579W        W96647  39.423  18.666  10.428
29580W        W96648  20.651  23.204  14.859
29581W        W96649  35.886  38.347  11.453
29582W        W96650   6.226  20.720   5.167
29583W        W96651  15.743  30.483   2.790
29584W        W96652  16.686   2.959  13.938
29585W        W96653  16.311  39.464   2.284
29586W        W96654  42.471   6.817   1.740
29587W        W96655  29.624  18.717   4.345
29588W        W96656  32.407   9.744   4.145
29589W        W96657  35.539  20.229   2.273
29590W        W96658  38.505   9.289   0.963
29591W        W96659  29.659  31.455   1.815
29592W        W96660  40.894  34.953  12.541
29593W        W96661  25.574   7.891   4.122
29594W        W96662  26.668  14.127  11.044
29595W        W96663   4.873  11.861   4.218
29596W        W96664  37.849  17.277   4.741
29597W        W96665  11.808  26.614   2.789
29598W        W96666  20.591  32.969  11.481
29599W        W96667  15.702  16.201  10.914
29600W        W96668  27.129  40.389   0.868
29601W        W96669  15.289  21.033  11.886
29602W        W96670  44.350  23.081   3.185
29603W        W96671  13.747  41.450   1.325
29604W        W96672  39.417  29.110   5.269
29605W        W96673  43.975  10.342   4.619
29606W        W96674  23.046  35.365  12.369
29607W        W96675  13.723  19.157  14.851
29608W        W96676  20.061  27.474  10.636
29609W        W96677  32.100   3.858  14.287
29610W        W96678  34.384  10.731   2.379
29611W        W96679  11.170  20.032  11.009
29612W        W96680  39.544  41.338   1.381
29613W        W96681  38.487  17.582   0.839
29614W        W96682  44.412  40.844   4.352
29615W        W96683  27.962  25.047  10.022
29616W        W96684  44.832  44.410   4.606
29617W        W96685  32.454  32.899  13.441
29618W        W96686  37.363   3.351  14.335
29619W        W96687  43.828  26.125   0.406
29620W        W96688  36.504  44.944  10.411
29621W        W96689  23.063  37.882  13.859
29622W        W96690  28.487  31.603   4.669
29623W        W96691  41.858  17.732   3.681
29624W        W96692  20.636  21.645  10.632
29625W        W96693  29.977  31.995   0.454
29626W        W96694  31.541  39.918  14.804
29627W        W96695  20.038  20.548  14.768
29628W        W96696  26.094  20.618  11.501
29629W        W96697  35.603   2.337  13.922
29630W        W96698  36.841  33.061   3.645
29631W        W96699  19.070   9.336  12.034
29632W        W96700   4.447  35.410   1.838
29633W        W96701  44.790  25.657   4.269
29634W        W96702  31.482  42.497  10.506
29635W        W96703   9.737  18.613   2.868
29636W        W96704   6.298  11.185  10.916
29637W        W96705   9.863  18.221   4.692
29638W        W96706   5.697  25.668   0.773
29639W        W96707  35.023  31.918  10.595
29640W        W96708   1.746  14.306   3.149
29641W        W96709  18.734  24.191  11.962
29642W        W96710  20.528  20.701   0.469
29643W        W96711   6.801  40.957   3.167
29644W        W96712  34.506  43.382  11.388
29645W        W96713  38.851  38.468   0.458
29646W        W96714  38.913  14.218  11.944
29647W        W96715  35.109  23.715   3.859
29648W        W96716   0.340   7.762  10.954
29649W        W96717  39.990  26.457  10.104
29650W        W96718  14.128  17.612   1.738
29651W        W96719   7.683  12.801  13.940
29652W        W96720  39.333  12.735   0.903
29653W        W96721  32.898  28.086  13.514
29654W        W96722   7.303  16.682   4.251
29655W        W96723  40.349  16.297   4.217
29656W        W96724  24.973   3.831   2.282
29657W        W96725  40.897  14.170   3.173
29658W        W96726  24.190  21.701  13.989
29659W        W96727  31.937  11.361   4.707
29660W        W96728  13.771  18.685   1.718
29661W        W96729  14.214  18.207  12.446
29662W        W96730  17.800  36.483  13.483
29663W        W96731   7.416  37.975  13.041
29664W        W96732  21.089  29.097  13.541
29665W        W96733  24.551  36.003  14.015
29666W        W96734  25.586  20.066  12.847
29667W        W96735  25.631  30.647  13.810
29668W        W96736  28.948   1.363   3.359
29669W        W96737  14.286  18.709   4.190
29670W        W96738  31.033  39.357  14.770
29671W        W96739  14.652  12.247  11.084
29672W        W96740  28.549  37.462   1.814
29673W        W96741  15.638  35.549   2.340
29674W        W96742  32.053   7.364  11.980
29675W        W96743  23.558  39.526  13.444
29676W        W96744  42.018  11.644   1.840
29677W        W96745  44.977  20.225  11.093
29678W        W96746  40.940  24.573  13.321
29679W        W96747  17.705   3.276   3.155
29680W        W96748  30.999   5.782   2.701
29681W        W96749  30.611  39.860  11.384
29682W        W96750  12.314  22.601  12.517
29683W        W96751  25.545  43.392   2.275
29684W        W96752  42.800  31.078  13.477
29685W        W96753  41.457  15.324   1.849
29686W        W96754  26.047   2.260  11.540
29687W        W96755  17.599  18.176  14.937
29688W        W96756  15.812  23.118   2.258
29689W        W96757  11.784  28.526   3.805
29690W        W96758   4.372  25.062   1.424
29691W        W96759  33.125  20.661   3.364
29692W        W96760   1.237  11.783  12.370
29693W        W96761   7.677   6.388   4.353
29694W        W96762  25.701   6.791   0.913
29695W        W96763  37.500  22.020   3.294
29696W        W96764  35.912  29.437  10.433
29697W        W96765  30.038  44.786  12.444
29698W        W96766   7.761   9.775  13.939
29699W        W96767  22.683  26.685   4.737
29700W        W96768  10.186  19.582   4.342
29701W        W96769  38.980  21.632  11.523
29702W        W96770   8.221  16.196  12.884
29703W        W96771  21.210  39.341   0.431
29704W        W96772  25.140  11.237  14.763
29705W        W96773  33.455  18.649  13.980
29706W        W96774  43.353  21.646  10.946
29707W        W96775  33.599  14.333  10.893
29708W        W96776  38.061  33.578  14.407
29709W        W96777   6.773  24.056  12.994
29710W        W96778   0.816  37.427  10.567
29711W        W96779  22.572   6.387  13.989
29712W        W96780  29.065   2.794   4.655
29713W        W96781  13.673  44.775   0.245
29714W        W96782  39.333  33.029   3.870
29715W        W96783  18.294   1.375   1.378
29716W        W96784   8.743  22.195  10.065
29717W        W96785   2.872  43.507   0.384
29718W        W96786  39.979  23.522   1.926
29719W        W96787  40.816  18.177   0.429
29720W        W96788   0.356  21.547   4.800
29721W        W96789  22.146  29.160  10.577
29722W        W96790  41.423  42.845   3.820
29723W        W96791  28.673  15.106  10.474
29724W        W96792  33.004  37.452  12.040
29725W        W96793  41.293   3.887   1.366
29726W        W96794  27.623  29.141  11.944
29727W        W96795  19.187  33.068  14.417
29728W        W96796  13.170  22.636  12.453
29729W        W96797  33.433  33.006   4.215
29730W        W96798  16.206  13.342  13.924
29731W        W96799  27.478  22.674   1.806
29732W        W96800  40.391  37.384   2.688
29733W        W96801  10.150   1.368  13.451
29734W        W96802  27.942  13.336  13.863
29735W        W96803  25.554  17.779  13.995
29736W        W96804  19.184  19.562   0.279
29737W        W96805  10.637  12.611   1.781
29738W        W96806  29.661  32.004   3.205
29739W        W96807  29.082  27.118   2.713
29740W        W96808  22.096  17.188  13.325
29741W        W96809  40.549  18.114  10.416
29742W        W96810   7.670   4.326  13.016
29743W        W96811  37.349  24.198  14.825
29744W        W96812   4.440  11.198   2.247
29745W        W96813  42.920  29.151   3.203
29746W        W96814  35.448  19.097   1.913
29747W        W96815  19.733  21.592   0.283
29748W        W96816  11.315  33.114   1.312
29749W        W96817  40.047  22.653  12.855
29750W        W96818  38.548   7.884  10.570
29751W        W96819   9.246  41.028  11.458
29752W        W96820  39.487  16.255   1.847
29753W        W96821  44.488   8.401  10.964
29754W        W96822  37.508  37.861   0.436
29755W        W96823  41.383  22.533   3.660
29756W        W96824  13.604  35.105  11.021
29757W        W96825  34.997  32.593   2.208
29758W        W96826   6.232  12.136   0.766
29759W        W96827  38.407  19.715  10.941
29760W        W96828  11.668   9.201  14.909
29761W        W96829   3.329  31.959   4.803
29762W        W96830  29.974  29.962  14.031
29763W        W96831  18.111  43.411  12.033
29764W        W96832   0.752  31.536   2.281
29765W        W96833   5.364  19.731  11.903
29766W        W96834  14.645  37.875   4.297
29767W        W96835  28.589  13.118   2.746
29768W        W96836   9.830  30.485   4.216
29769W        W96837  40.391  15.299  10.610
29770W        W96838   1.822  19.046   2.717
29771W        W96839   5.360  17.689  10.958
29772W        W96840  34.554  22.672  12.431
29773W        W96841   7.854  10.189  13.420
29774W        W96842  44.888  38.358  12.428
29775W        W96843  12.821  42.343   1.742
29776W        W96844  13.328  36.434  13.793
29777W        W96845  39.832  25.151  12.528
29778W        W96846  26.009  33.608   0.794
29779W        W96847  16.155  10.688  12.373
29780W        W96848   8.245  11.263  13.490
29781W        W96849   0.412  24.679   3.276
29782W        W96850  10.187  31.476  12.857
29783W        W96851  40.374  44.355  10.940
29784W        W96852   3.366  15.263  14.843
29785W        W96853  14.714  20.533   0.469
29786W        W96854  18.739   7.716  11.974
29787W        W96855  15.687   2.775   3.201
29788W        W96856   1.362  16.082   4.724
29789W        W96857   5.784   9.847   4.191
29790W        W96858  36.988  26.539   3.827
29791W        W96859  27.602   1.788  14.831
29792W        W96860   2.744   0.429  11.531
29793W        W96861   8.894  13.625   1.427
29794W        W96862   0.296  38.821  11.120
29795W        W96863   1.294  31.006   2.789
29796W        W96864  23.723  29.658   1.921
29797W        W96865  28.123   1.443  14.371
29798W        W96866  31.096   2.837  11.968
29799W        W96867  34.873   7.688   0.956
29800W        W96868  28.147   0.284   2.308
29801W        W96869  13.160  40.412  13.828
29802W        W96870  23.991  11.313  13.949
29803W        W96871  12.818  25.168  10.540
29804W        W96872  31.621   2.746   2.291
29805W        W96873  20.213  25.121   3.184
29806W        W96874  17.246  15.121   3.860
29807W        W96875  16.190  11.305   2.254
29808W        W96876  38.887  41.815  12.855
29809W        W96877   3.390  15.681   3.698
29810W        W96878   9.155  13.798  12.536
29811W        W96879  24.584  28.492   3.815
29812W        W96880  38.016   1.423   3.774
29813W        W96881  43.340  33.437   2.282
29814W        W96882  32.903  12.778  13.528
29815W        W96883   1.370  33.523  12.436
29816W        W96884  30.996  39.868  12.510
29817W        W96885  18.145  10.754  12.950
29818W        W96886   2.785  14.639  12.872
29819W        W96887   2.897  33.527  10.991
29820W        W96888  25.001  33.071  12.489
29821W        W96889  20.055  40.323  10.007
29822W        W96890  13.632   3.425   4.173
29823W        W96891   8.856  14.637  13.456
29824W        W96892  23.132  20.679   1.313
29825W        W96893  18.288  32.593   4.813
29826W        W96894   4.265  32.469   0.948
29827W        W96895   1.342   9.328   4.630
29828W        W96896   0.401  27.680  14.325
29829W        W96897   3.713  31.608   0.244
29830W        W96898  15.163  39.492   2.245
29831W        W96899  28.170  19.259   4.304
29832W        W96900  14.104  24.182  12.400
29833W        W96901  32.004  30.968  10.486
29834W        W96902  14.629  16.121   1.777
29835W        W96903  14.625  43.936  10.418
29836W        W96904  22.124  28.091   4.222
29837W        W96905  30.459  18.150  13.454
29838W        W96906  35.869  17.791  13.013
29839W        W96907   7.741  14.827   0.886
29840W        W96908  30.971  22.521   1.920
29841W        W96909  22.549   9.760  14.879
29842W        W96910   7.324   3.891   4.609
29843W        W96911  14.769  11.276  13.322
29844W        W96912  30.557  25.996   1.736
29845W        W96913  26.541  13.836   2.259
29846W        W96914  17.640  39.503   4.666
29847W        W96915  26.698  41.824  13.950
29848W        W96916  41.311  22.117  10.441
29849W        W96917  37.999  26.041  14.911
29850W        W96918  22.719   2.963   1.855
29851W        W96919  25.641  34.908   3.857
29852W        W96920   4.838  22.624  10.983
29853W        W96921  36.994  27.035   4.349
29854W        W96922  13.673  28.573   0.760
29855W        W96923   6.292  38.905   2.279
29856W        W96924  14.259   8.807   4.198
29857W        W96925  39.883   2.461   3.263
29858W        W96926   5.380  43.836  10.596
29859W        W96927  19.045  41.999  13.319
29860W        W96928  44.433  13.229  12.938
29861W        W96929  31.928  41.958   1.413
29862W        W96930  23.230   5.839  13.050
29863W        W96931   3.284  13.819   1.786
29864W        W96932  27.091  11.140   2.387
29865W        W96933  22.052  14.184   1.290
29866W        W96934  18.616  28.161  10.010
29867W        W96935   7.695  35.429  14.924
29868W        W96936   4.766  39.536  11.964
29869W        W96937  10.846   8.848  10.979
29870W        W96938  26.988  36.902   1.797
29871W        W96939   6.324  11.190  13.367
29872W        W96940  40.412  17.649   4.683
29873W        W96941  25.511  32.637  14.844
29874W        W96942   5.847  38.967  13.515
29875W        W96943  42.325   1.810  13.875
29876W        W96944  13.648  34.893  11.417
29877W        W96945  20.249  19.678   4.808
29878W        W96946  10.219  24.616  12.501
29879W        W96947  13.704  15.101   2.668
29880W        W96948   2.336   7.258   0.835
29881W        W96949  25.624  42.781   1.926
29882W        W96950   4.883  15.104   9.958
29883W        W96951  37.523  33.029   2.808
29884W        W96952  16.192  44.836   2.242
29885W        W96953  44.970  14.823  10.990
29886W        W96954   6.255  39.349  11.567
29887W        W96955   1.319  10.175   4.662
29888W        W96956   9.221  27.532   0.441
29889W        W96957  32.423  11.271   3.379
29890W        W96958  29.127  20.187   2.229
29891W        W96959  34.928  41.844   0.850
29892W        W96960   5.361  12.250  13.337
29893W        W96961  44.944  26.468   3.319
29894W        W96962  37.080  33.088  12.470
29895W        W96963  14.767   2.267  12.053
29896W        W96964  19.746  11.261   3.683
29897W        W96965   4.836  12.696   5.205
29898W        W96966  21.698  17.610   1.804
29899W        W96967  30.482  36.929   0.781
29900W        W96968  26.182  14.697  14.335
29901W        W96969  42.970  36.888   4.256
29902W        W96970  26.491  27.095  14.850
29903W        W96971  19.238  18.673  13.834
29904W        W96972  26.468  19.245   1.846
29905W        W96973  34.004  14.139  13.994
29906W        W96974   9.184   0.747   3.662
29907W        W96975   0.250  24.605   1.733
29908W        W96976  39.023   4.919  10.573
29909W        W96977  32.886  35.108  11.389
29910W        W96978  18.130  25.665   1.709
29911W        W96979   4.891   0.464  10.627
29912W        W96980   4.876  23.547   9.944
29913W        W96981  28.950  32.504   1.222
29914W        W96982  22.595  31.476   1.448
29915W        W96983  42.352   6.296   2.342
29916W        W96984  27.514   4.301  11.610
29917W        W96985  28.487  29.042  12.366
29918W        W96986  35.546   1.355   0.896
29919W        W96987  23.059  15.291   0.938
29920W        W96988  24.482  30.980   1.316
29921W        W96989  37.420  10.138  12.923
29922W        W96990   1.830  13.622  12.071
29923W        W96991   0.913  16.282  11.406
29924W        W96992  42.487  41.484   3.670
29925W        W96993  30.489   5.917  12.923
29926W        W96994  28.567  19.777  13.971
29927W        W96995  41.954  42.800   4.709
29928W        W96996  38.000   5.248  12.413
29929W        W96997  18.625  10.785   3.250
29930W        W96998  12.307  28.130  12.856
29931W        W96999  16.107  32.487   2.271
29932W        W97000  11.764  18.127   3.179
29933W        W97001  11.234  26.603  11.483
29934W        W97002  10.209  19.651   3.381
29935W        W97003   4.921  32.088   4.720
29936W        W97004  11.828   1.731   4.658
29937W        W97005  18.546  15.304  12.917
29938W        W97006   0.874  24.980  14.872
29939W        W97007  17.759  38.030   2.394
29940W        W97008  37.830  20.722  10.972
29941W        W97009   5.720  27.999  14.358
29942W        W97010  18.780  40.040   3.867
29943W        W97011  15.170  28.452   4.271
29944W        W97012  39.987  43.379   2.890
29945W        W97013   7.220  41.882  14.988
29946W        W97014  25.524  41.954   3.693
29947W        W97015  30.538  42.842   2.366
29948W        W97016  29.633  28.015   4.835
29949W        W97017  27.043   9.674   1.316
29950W        W97018  24.047   7.184  12.423
29951W        W97019   5.895   4.354   4.225
29952W        W97020  36.520  28.623  11.960
29953W        W97021  37.579  34.938   0.891
29954W        W97022  12.270  18.595  13.993
29955W        W97023  39.953  32.601  13.029
29956W        W97024  29.516  26.628   2.264
29957W        W97025  34.383  31.108   0.961
29958W        W97026  37.513   5.895  11.522
29959W        W97027   0.934  16.580  10.893
29960W        W97028  20.140  37.549  11.408
29961W        W97029   6.779  11.788   3.315
29962W        W97030  41.326  31.463  11.030
29963W        W97031   1.808  19.074  13.412
29964W        W97032  26.148  37.502  10.577
29965W        W97033  11.648  33.956  14.435
29966W        W97034  41.018   7.357  14.998
29967W        W97035  33.995  41.012   4.131
29968W        W97036  15.789  16.229  10.572
29969W        W97037  17.266  41.354  12.366
29970W        W97038   8.257  10.758   2.726
29971W        W97039  28.581  34.436   3.368
29972W        W97040  29.018  33.489   3.708
29973W        W97041   8.676  34.384  13.061
29974W        W97042   0.831  38.452  12.078
29975W        W97043  41.453  42.817  11.872
29976W        W97044   3.225  43.843  12.070
29977W        W97045  33.936  18.266  14.511
29978W        W97046  15.664   6.237   3.205
29979W        W97047  24.664  39.390   0.906
29980W        W97048  29.467  43.892   1.271
29981W        W97049  23.986  34.916  11.544
29982W        W97050   1.463  42.799   2.251
29983W        W97051  42.325  15.309  11.607
29984W        W97052   2.911  35.856   4.707
29985W        W97053  34.112  12.265   4.308
29986W        W97054  31.908  41.978   4.264
29987W        W97055  22.078   4.712   4.124
29988W        W97056  20.743  38.359  13.954
29989W        W97057  14.163  25.060  14.440
29990W        W97058   6.211  16.293  12.994
29991W        W97059  15.726  34.596   4.713
29992W        W97060  12.827  44.880  11.547
29993W        W97061  33.068  22.022   0.896
29994W        W97062  20.138  25.641  14.512
29995W        W97063  43.504  11.671  11.445
29996W        W97064  15.182  43.958  14.809
29997W        W97065  24.048  17.793   1.309
29998W        W97066  14.803  15.131  13.041
29999W        W97067  14.815  30.909   1.730
30000W        W97068  16.713  30.985   2.266
30001W        W97069   2.939  34.101   2.764
30002W        W97070  25.642   6.237  13.518
30003W        W97071  34.058  18.259  10.920
30004W        W97072   4.933  32.116   2.808
30005W        W97073  30.952  24.037  12.048
30006W        W97074  26.545  15.263  10.533
30007W        W97075  11.735   8.781   1.770
30008W        W97076  20.767  11.791  14.374
30009W        W97077  44.966  26.162   4.143
30010W        W97078  32.058  25.710  13.366
30011W        W97079   6.279  37.887  11.034
30012W        W97080   7.884  41.480   3.856
30013W        W97081  29.502  40.022  10.552
30014W        W97082  34.546   1.813   4.168
30015W        W97083  29.935  42.957   2.898
30016W        W97084  34.593   1.390   4.281
30017W        W97085  11.672  22.573  11.990
30018W        W97086  37.045  16.195  13.879
30019W        W97087   5.890  27.120  14.288
30020W        W97088  13.787  35.054  14.972
30021W        W97089  29.152  21.640   1.226
30022W        W97090  28.950  25.197   4.755
30023W        W97091  31.578  26.634   0.435
30024W        W97092   4.276  41.531   0.953
30025W        W97093  30.981  16.207   0.304
30026W        W97094   2.799  28.578   4.158
30027W        W97095  20.030  44.940  12.453
30028W        W97096  27.684  32.485   2.337
30029W        W97097  35.881  11.774   0.419
30030W        W97098  32.394  44.409  14.298
30031W        W97099  42.854  37.867  11.922
30032W        W97100  17.653  11.786   4.726
30033W        W97101  16.703  33.498  12.545
30034W        W97102  40.516  14.318   0.257
30035W        W97103   2.436  13.798   2.188
30036W        W97104  23.735  11.165   1.805
30037W        W97105  20.555   2.430  12.064
30038W        W97106  38.884  24.675   0.248
30039W        W97107  16.790  11.172  13.032
30040W        W97108  34.583  17.255   3.372
30041W        W97109  35.090  43.372  11.500
30042W        W97110  14.651   6.214   2.856
30043W        W97111  35.426  43.403   0.927
30044W        W97112  33.928  21.745   0.861
30045W        W97113  21.030  17.726   0.835
30046W        W97114   3.282  13.300   1.928
30047W        W97115   7.347  21.731  14.493
30048W        W97116  24.712  36.496  11.092
30049W        W97117   9.704  31.993  12.491
30050W        W97118  23.571  18.604  10.567
30051W        W97119  16.630   0.864   1.921
30052W        W97120  30.435   0.449  13.936
30053W        W97121  25.489   4.886  14.787
30054W        W97122  44.995  11.638   0.432
30055W        W97123   4.214  20.258  13.797
30056W        W97124  20.628  42.017  14.009
30057W        W97125  25.194  39.809   2.259
30058W        W97126  21.565  14.338  12.406
30059W        W97127   2.415  38.337   4.225
30060W        W97128  13.344  24.182  11.073
30061W        W97129  34.066  28.581  14.413
30062W        W97130   3.856  33.532  11.479
30063W        W97131  32.010  26.136   2.307
30064W        W97132  44.844  30.952   2.326
30065W        W97133  38.866  44.273   0.272
30066W        W97134  39.342  43.462   3.276
30067W        W97135  41.447   2.308   4.351
30068W        W97136  16.116  36.520  11.432
30069W        W97137  26.664   8.692  13.860
30070W        W97138  28.013  36.858  13.977
30071W        W97139  23.561  30.541   4.236
30072W        W97140   0.779  19.273   3.772
30073W        W97141  29.979  31.152   0.428
30074W        W97142  41.332  36.911   1.285
30075W        W97143  29.591  23.685  13.460
30076W        W97144   4.433  10.176  12.987
30077W        W97145  23.179  37.581   4.665
30078W        W97146  19.241  41.812  14.897
30079W        W97147  36.030  39.939  14.502
30080W        W97148  25.554  43.500  13.793
30081W        W97149  19.223  21.587  10.569
30082W        W97150  12.240  24.520   1.712
30083W        W97151  44.288  32.413   0.789
30084W        W97152  33.937  41.535  12.528
30085W        W97153  22.561   7.795   1.326
30086W        W97154  37.836  33.990   1.338
30087W        W97155  11.170  30.607   0.482
30088W        W97156  41.894  44.378   4.638
30089W        W97157  11.265  11.141   1.238
30090W        W97158   6.730   5.930   0.297
30091W        W97159  38.536  37.436   1.922
30092W        W97160   3.801  30.607  10.433
30093W        W97161   3.442  26.596  11.471
30094W        W97162  11.774  44.789  12.860
30095W        W97163  38.031  28.527   0.253
30096W        W97164   9.720  25.181  10.516
30097W        W97165   6.364  35.083   2.327
30098W        W97166   6.896  28.544  12.845
30099W        W97167  26.016  10.318   4.147
30100W        W97168  21.678  41.313   2.202
30101W        W97169  31.142   0.948   0.266
30102W        W97170  25.056  27.987   1.430
30103W        W97171  22.627  23.009   0.270
30104W        W97172   4.738  39.512  12.525
30105W        W97173  25.504   1.379  11.498
30106W        W97174  34.441   1.975  14.962
30107W        W97175  25.527  27.059  14.350
30108W        W97176  40.530  10.758   4.756
30109W        W97177  39.463  42.434  10.493
30110W        W97178  33.958  19.191  10.534
30111W        W97179   6.303  22.082   2.340
30112W        W97180  34.481   2.919  11.440
30113W        W97181  15.743   5.284  11.873
30114W        W97182  14.743  30.137   0.874
30115W        W97183  22.184  14.625  12.443
30116W        W97184  15.300  25.613  14.362
30117W        W97185  14.793  37.495  10.983
30118W        W97186   2.349  34.958   2.271
30119W        W97187  32.522  27.660   1.323
30120W        W97188  20.637   4.310   3.212
30121W        W97189   8.164  10.751   4.744
30122W        W97190   1.238  44.923   3.224
30123W        W97191  17.127  26.143  14.791
30124W        W97192  26.109  14.241   4.604
30125W        W97193  29.122  11.829   4.644
30126W        W97194  12.118  35.410   1.245
30127W        W97195  38.909  29.429  10.016
30128W        W97196  40.415  25.680   4.620
30129W        W97197  33.426  41.038  14.762
30130W        W97198  30.600   4.256  10.443
30131W        W97199   4.208  43.844   0.749
30132W        W97200  34.093  14.706  12.960
30133W        W97201   1.755   4.390  13.326
30134W        W97202   9.180   4.341  12.935
30135W        W97203  17.143   0.483   4.677
30136W        W97204  32.411  14.206   5.139
30137W        W97205   5.844  33.572  13.868
30138W        W97206   5.414  41.836  14.769
30139W        W97207  40.049  38.036   4.780
30140W        W97208   7.712  39.321  14.417
30141W        W97209  31.580   6.697  11.054
30142W        W97210   2.444  15.103  11.863
30143W        W97211  21.528  13.170   4.134
30144W        W97212  38.997  16.309   1.229
30145W        W97213  26.126  44.455   2.328
30146W        W97214  29.636  25.063   5.310
30147W        W97215   0.387  39.830   3.268
30148W        W97216   2.411   7.320  10.479
30149W        W97217  44.461   0.291   3.828
30150W        W97218  30.514  34.457  13.486
30151W        W97219  24.630  34.041   1.883
30152W        W97220  43.019  31.925  12.565
30153W        W97221  29.602  26.634  14.409
30154W        W97222  28.124   2.829  10.117
30155W        W97223  21.028  28.547   3.155
30156W        W97224  27.454  22.605  11.598
30157W        W97225  38.560  16.697   3.168
30158W        W97226  39.542  38.948   0.286
30159W        W97227   7.225  12.836   0.271
30160W        W97228  41.928  27.638   3.708
30161W        W97229  25.208   7.885  12.013
30162W        W97230   5.807  24.977  11.873
30163W        W97231  41.427  20.522   2.787
30164W        W97232  16.234  23.665  11.586
30165W        W97233  22.610  21.240   5.191
30166W        W97234  36.959  12.697  12.067
30167W        W97235  32.492  22.539   1.341
30168W        W97236   9.330  35.874  14.958
30169W        W97237  43.378  28.503  10.570
30170W        W97238   2.779  14.137  13.536
30171W        W97239  23.622   1.815  13.820
30172W        W97240   2.854  17.782  14.845
30173W        W97241  11.790  30.489   0.918
30174W        W97242  13.781  38.348   1.267
30175W        W97243  29.444  12.184  14.893
30176W        W97244  43.425   2.877   1.925
30177W        W97245   8.209  12.631  14.448
30178W        W97246   6.290   7.379   4.141
30179W        W97247  42.408  31.564  13.518
30180W        W97248  12.217  32.553   0.729
30181W        W97249   6.767   3.258  12.440
30182W        W97250  27.674  35.424   3.684
30183W        W97251   1.477  24.175  14.018
30184W        W97252  31.046  41.507   2.665
30185W        W97253  42.345  22.018  14.916
30186W        W97254  15.766  36.533   4.123
30187W        W97255  32.126   3.866   0.295
30188W        W97256  31.021  22.036  14.485
30189W        W97257  16.655  40.842   1.394
30190W        W97258  25.029  29.128   4.144
30191W        W97259  36.431  36.041  10.022
30192W        W97260  19.040   0.428  14.411
30193W        W97261  19.195  10.289  13.365
30194W        W97262  23.503  11.251  10.610
30195W        W97263  39.483  13.158   1.341
30196W        W97264  29.010  22.726  10.460
30197W        W97265   8.290  38.022  10.442
30198W        W97266   3.798  36.395   0.324
30199W        W97267  26.551   6.275  10.492
30200W        W97268   5.202   7.417  12.897
30201W        W97269  13.793  17.250  11.015
30202W        W97270  29.107  14.706  12.580
30203W        W97271  29.967  22.057  10.919
30204W        W97272   0.255  10.760  12.433
30205W        W97273  23.591  39.437  11.865
30206W        W97274  24.628  33.626  12.502
30207W        W97275  18.726  41.977  13.041
30208W        W97276  40.464  42.350  12.026
30209W        W97277  11.161  15.223  14.776
30210W        W97278   5.838   9.285   2.412
30211W        W97279  27.596  37.988  12.439
30212W        W97280  21.642  37.994  12.510
30213W        W97281  33.591  38.841  14.829
30214W        W97282  29.979  27.186   4.267
30215W        W97283  18.126   3.739  11.522
30216W        W97284  16.651  41.331   1.313
30217W        W97285  16.188  12.704  10.988
30218W        W97286   7.696  23.508   4.724
30219W        W97287  22.217  37.540   4.255
30220W        W97288  42.847   7.216   1.222
30221W        W97289  30.538  37.442   0.955
30222W        W97290  16.319  34.390   1.441
30223W        W97291  34.599   3.379   0.484
30224W        W97292  38.442   5.789  10.482
30225W        W97293   0.279  42.411  14.499
30226W        W97294   0.876  28.438   4.265
30227W        W97295  24.075  33.452   0.260
30228W        W97296  37.379  10.340   4.705
30229W        W97297  31.486  24.209   3.280
30230W        W97298  36.466  31.437  14.333
30231W        W97299  43.298  44.763  14.845
30232W        W97300  35.481  42.782   1.443
30233W        W97301  13.215  31.956  12.961
30234W        W97302   2.403  40.345   2.199
30235W        W97303  34.477  27.463   1.311
30236W        W97304   2.315  28.181   3.229
30237W        W97305  29.967  17.725   4.246
30238W        W97306  10.875   7.221  12.483
30239W        W97307  18.656  28.127   0.895
30240W        W97308  35.388  26.161   0.423
30241W        W97309  30.016  24.122  14.981
30242W        W97310  19.222  17.644  14.893
30243W        W97311  17.272  44.333   2.349
30244W        W97312  44.490  43.013   4.805
30245W        W97313  27.013  44.285  11.507
30246W        W97314  30.948  25.046  14.937
30247W        W97315  15.631  19.756   3.805
30248W        W97316  41.878  28.527  12.037
30249W        W97317  10.750  25.070  13.877
30250W        W97318  20.722  15.707   4.156
30251W        W97319  19.695   0.982  13.937
30252W        W97320  11.136   9.845  13.887
30253W        W97321   3.931  38.995   1.767
30254W        W97322  11.734  21.580  14.469
30255W        W97323  16.741  37.484   0.275
30256W        W97324  42.424  33.487   0.809
30257W        W97325  26.989  20.674   2.723
30258W        W97326  27.117  17.715   4.752
30259W        W97327  24.157  11.761   3.319
30260W        W97328   3.258   1.254   0.265
30261W        W97329  19.264   9.317   0.879
30262W        W97330  15.324  44.822  12.362
30263W        W97331  27.166  32.392   2.192
30264W        W97332  27.590   7.219   2.858
30265W        W97333  39.330  16.226   2.685
30266W        W97334  44.273   9.385  13.335
30267W        W97335  12.623   1.249  14.918
30268W        W97336  31.032  28.587  10.977
30269W        W97337  14.290  43.880   4.167
30270W        W97338   1.932  28.085  12.347
30271W        W97339  16.130  24.611  14.378
30272W        W97340  29.134  25.493   4.806
30273W        W97341  16.772   6.707  14.774
30274W        W97342  43.941  18.547  10.945
30275W        W97343  22.078  21.640  14.426
30276W        W97344   5.884  38.476   2.853
30277W        W97345  32.903  37.391   2.877
30278W        W97346  16.271  12.194   9.964
30279W        W97347  41.447  21.534   3.204
30280W        W97348  32.143  28.470   4.219
30281W        W97349  20.184  18.691   0.293
30282W        W97350  22.591  24.155   3.322
30283W        W97351  33.398  26.489   3.774
30284W        W97352  41.982  11.775   2.320
30285W        W97353   5.417  36.872   0.763
30286W        W97354  14.140  24.068   1.743
30287W        W97355  30.013  36.027  14.427
30288W        W97356  18.115  32.126   4.332
30289W        W97357   9.372  10.320  11.440
30290W        W97358   3.379  22.131   0.866
30291W        W97359  41.015  33.492   9.922
30292W        W97360   0.302  15.583   1.772
30293W        W97361  18.682  15.751   1.258
30294W        W97362  20.553  12.779   2.362
30295W        W97363  19.252   3.756   0.254
30296W        W97364   4.398  32.463   0.378
30297W        W97365  37.457  40.018  11.448
30298W        W97366  11.732   9.310  11.427
30299W        W97367  12.325  41.929  14.947
30300W        W97368  10.380  16.605  14.283
30301W        W97369  33.966  44.846  14.918
30302W        W97370  29.448  12.735  14.348
30303W        W97371  41.928  23.616   0.821
30304W        W97372  14.177  16.677  11.992
30305W        W97373  30.014  18.225   1.227
30306W        W97374  26.666  22.036   2.700
30307W        W97375  15.162  43.370  12.936
30308W        W97376  38.383  18.150   0.303
30309W        W97377  23.171   7.217   1.859
30310W        W97378  36.583  42.898  12.572
30311W        W97379  17.646  42.986   0.404
30312W        W97380  10.679  37.489   4.239
30313W        W97381  20.231  17.604  13.526
30314W        W97382  26.520   3.942   2.743
30315W        W97383  23.616  32.404   1.360
30316W        W97384   4.381  34.017  13.837
30317W        W97385   7.853  19.759  12.342
30318W        W97386  17.656   1.813   1.914
30319W        W97387  40.830  18.233  13.386
30320W        W97388  19.551   7.911  13.991
30321W        W97389  18.273  31.445  12.998
30322W        W97390  29.962   9.694  14.323
30323W        W97391  12.821   8.676  12.961
30324W        W97392  25.056  17.235  12.412
30325W        W97393  17.641  28.058   1.349
30326W        W97394  35.598   9.325  14.832
30327W        W97395  28.112  23.719  12.086
30328W        W97396  39.514  43.809   2.264
30329W        W97397   5.930   7.799  14.904
30330W        W97398  37.031  18.725   4.193
30331W        W97399   8.894  16.095  10.500
30332W        W97400   9.738   9.155   4.611
30333W        W97401  38.073   2.274   0.837
30334W        W97402   1.821   5.293  11.049
30335W        W97403  29.044   4.367   1.284
30336W        W97404  28.948   4.429  14.843
30337W        W97405   8.846  12.300  11.068
30338W        W97406  36.577  19.232  11.408
30339W        W97407  34.449   6.793  13.849
30340W        W97408  15.181  36.375   2.852
30341W        W97409   6.215   3.395  12.357
30342W        W97410  36.081  40.843   2.850
30343W        W97411   3.337  23.678  13.963
30344W        W97412  32.597  40.446  14.848
30345W        W97413  27.195  18.627   1.258
30346W        W97414  44.949  10.211  13.536
30347W        W97415  24.220   1.909   3.363
30348W        W97416  24.622   1.430  14.952
30349W        W97417   2.816  10.165   1.216
30350W        W97418  20.184  26.978  14.453
30351W        W97419  30.604  43.449  13.461
30352W        W97420  29.047  12.177   3.340
30353W        W97421  31.462  10.169   0.462
30354W        W97422  36.589  28.489  10.602
30355W        W97423   6.233  18.637  13.017
30356W        W97424  10.695   5.721   0.338
30357W        W97425   5.218  38.347   4.651
30358W        W97426  10.747  11.310   3.782
30359W        W97427   1.254  32.079   1.734
30360W        W97428  29.541   9.301  12.550
30361W        W97429  15.664   1.926  12.399
30362W        W97430  26.165   9.370  13.992
30363W        W97431  42.832  37.577  13.357
30364W        W97432   1.316   7.688  11.603
30365W        W97433   1.428  32.066  13.857
30366W        W97434  10.320  18.198   4.170
30367W        W97435  33.450  17.660   2.378
30368W        W97436  32.919  36.467   2.683
30369W        W97437  20.271  44.475  14.828
30370W        W97438  27.946   3.308   3.706
30371W        W97439  13.260  20.595  14.444
30372W        W97440   8.175  30.628  12.070
30373W        W97441  10.855  39.467  13.019
30374W        W97442  19.695   0.458   4.686
30375W        W97443   3.877  10.178  11.005
30376W        W97444  42.983  33.450  14.388
30377W        W97445  28.482  40.540  13.396
30378W        W97446  10.313  37.911  13.529
30379W        W97447  12.780  10.297  12.438
30380W        W97448  41.005  23.239   1.911
30381W        W97449  29.577  18.098   3.760
30382W        W97450  43.495   9.220  10.515
30383W        W97451  23.069  32.636   3.841
30384W        W97452  42.431  16.737   0.333
30385W        W97453  43.374   1.845   1.435
30386W        W97454   6.181  31.998  11.991
30387W        W97455   8.737  29.534  11.415
30388W        W97456  12.617  23.098  13.023
30389W        W97457  17.296  40.357   3.238
30390W        W97458  22.711  16.586  11.545
30391W        W97459  15.617  14.610   2.299
30392W        W97460  19.598  27.147  11.564
30393W        W97461  32.098  41.837   0.404
30394W        W97462  26.000  29.661   1.415
30395W        W97463  17.802  17.610  12.078
30396W        W97464  15.308  35.032   0.476
30397W        W97465  30.632  39.349  10.596
30398W        W97466  40.911  19.269  13.948
30399W        W97467   0.840  18.074   5.293
30400W        W97468   0.842  25.205   2.702
30401W        W97469   9.261  27.467   1.213
30402W        W97470  44.339   7.907  10.561
30403W        W97471  33.001   8.255   3.368
30404W        W97472   6.412  39.378   3.384
30405W        W97473  34.933  13.636  11.039
30406W        W97474  38.070  11.692  11.927
30407W        W97475  41.955  40.868  11.017
30408W        W97476  10.773  43.282  11.094
30409W        W97477  14.238   5.263  12.985
30410W        W97478   2.449   1.400   3.633
30411W        W97479  35.933   0.754   2.295
30412W        W97480  32.410  13.724  13.485
30413W        W97481  20.528  18.125  14.973
30414W        W97482  18.202  43.503   3.220
30415W        W97483  10.700  11.820   0.291
30416W        W97484  18.173  25.040   1.844
30417W        W97485  34.613  22.231   3.638
30418W        W97486  26.182  24.092   2.794
30419W        W97487  30.964  25.514   2.673
30420W        W97488  24.503   5.766   0.431
30421W        W97489  25.997  19.232   4.655
30422W        W97490  15.132  12.638  13.342
30423W        W97491  31.151  22.739   0.267
30424W        W97492  40.005  34.029  12.491
30425W        W97493  36.992  29.967   3.375
30426W        W97494   8.663  32.477   4.210
30427W        W97495  35.526  37.400  12.871
30428W        W97496   9.238  10.753   1.859
30429W        W97497  42.914  10.797  11.911
30430W        W97498  24.138  17.755  13.795
30431W        W97499  40.029  33.082   4.607
30432W        W97500  35.567  17.772  11.376
30433W        W97501  39.342  21.612  10.440
30434W        W97502  43.458  41.292   5.132
30435W        W97503  32.052  27.031  11.061
30436W        W97504  26.677  36.558  13.359
30437W        W97505  43.900  24.158  11.097
30438W        W97506  17.705   2.274  13.317
30439W        W97507  34.055  29.044   0.944
30440W        W97508   7.833  41.329  13.982
30441W        W97509  41.913   0.448  14.351
30442W        W97510   9.317   3.347  13.839
30443W        W97511  39.337  19.734  11.077
30444W        W97512   0.882  10.366   4.721
30445W        W97513   9.661  30.563  14.498
30446W        W97514   0.449  36.400   3.769
30447W        W97515  22.526  31.986  13.401
30448W        W97516   0.873   3.265  11.420
30449W        W97517  37.460  28.500   0.883
30450W        W97518  21.677  25.693  10.562
30451W        W97519   7.330  30.995   2.720
30452W        W97520  24.082  41.843  11.407
30453W        W97521  10.207  18.783  12.937
30454W        W97522  30.602  17.603   0.807
30455W        W97523  24.536  14.648  11.124
30456W        W97524   9.754  37.407  11.545
30457W        W97525   8.302  42.377  12.022
30458W        W97526   2.403  15.607  14.424
30459W        W97527  36.076  34.034   0.397
30460W        W97528   4.885   7.826  14.456
30461W        W97529  12.261  32.029   1.344
30462W        W97530  34.985  23.046   2.257
30463W        W97531  16.759  15.228   1.719
30464W        W97532  17.075  44.948  12.377
30465W        W97533   7.379   4.260   0.364
30466W        W97534  17.600  34.884  13.425
30467W        W97535   0.865  35.417  10.088
30468W        W97536  32.983  17.733   1.821
30469W        W97537  18.141  20.083  12.984
30470W        W97538  38.884  32.425   3.278
30471W        W97539  44.970   7.416   0.754
30472W        W97540   6.862   7.294  11.953
30473W        W97541  29.629  25.667   9.436
30474W        W97542   2.267  33.955  10.908
30475W        W97543  17.132  28.496  12.056
30476W        W97544  40.525   5.775  13.372
30477W        W97545  25.467   3.879  13.447
30478W        W97546  25.525  21.738   2.738
30479W        W97547  23.717  27.986  14.919
30480W        W97548  41.380  19.169  13.902
30481W        W97549  27.145  41.894  14.439
30482W        W97550  37.568  17.286   4.614
30483W        W97551   0.440  20.572   0.866
30484W        W97552  29.528  34.435  11.879
30485W        W97553  37.505   7.341   3.697
30486W        W97554   2.447  34.521   3.342
30487W        W97555   4.772  26.469  10.440
30488W        W97556  13.650  11.284  12.473
30489W        W97557  36.944  22.206   1.393
30490W        W97558  42.297  27.558   4.610
30491W        W97559   5.349  44.840   0.900
30492W        W97560  14.798   9.245  12.515
30493W        W97561   9.699  14.306   2.245
30494W        W97562  12.351  14.300  12.930
30495W        W97563  34.949  24.076   4.228
30496W        W97564  33.511   2.409  10.477
30497W        W97565  17.754  24.023   2.833
30498W        W97566   7.703   7.709  12.955
30499W        W97567  18.226  27.098   2.757
30500W        W97568  21.093  42.817  12.929
30501W        W97569  13.795  37.960   0.386
30502W        W97570  35.944  25.002   3.343
30503W        W97571  14.144   6.359  13.393
30504W        W97572  22.229  28.084  14.957
30505W        W97573  42.506  26.530   1.352
30506W        W97574   0.854  28.451   0.414
30507W        W97575  13.193  10.370  13.931
30508W        W97576  44.810  42.489   2.853
30509W        W97577  27.466   2.757  10.888
30510W        W97578  43.790   6.906   0.323
30511W        W97579  20.043  27.001   4.686
30512W        W97580  30.498   5.322   1.694
30513W        W97581  17.248  25.551   3.752
30514W        W97582   0.464  16.798  10.576
30515W        W97583  34.986  23.710   9.923
30516W        W97584  38.557  44.893  11.903
30517W        W97585   3.750  44.351   3.278
30518W        W97586  44.876  11.820   2.249
30519W        W97587  30.124  37.930  12.966
30520W        W97588   6.231  26.130   4.166
30521W        W97589  25.503  28.599   1.415
30522W        W97590  44.857  23.591  12.432
30523W        W97591  26.191  20.606  12.952
30524W        W97592  30.583  16.255   3.358
30525W        W97593  35.017  13.229   3.753
30526W        W97594  10.332  34.892   1.785
30527W        W97595  18.545  26.629  10.035
30528W        W97596  32.468  34.968  10.961
30529W        W97597  20.676   5.241  12.856
30530W        W97598   2.262  34.462   2.327
30531W        W97599  37.378  43.852   3.199
30532W        W97600   6.683  22.594   0.256
30533W        W97601  29.921   9.178  12.941
30534W        W97602   5.771  21.154   0.865
30535W        W97603   9.363   2.278   2.218
30536W        W97604  43.338  10.381  14.291
30537W        W97605  14.281  36.373  10.959
30538W        W97606  19.673  31.993   0.471
30539W        W97607  38.038  10.652   2.839
30540W        W97608   3.318  30.964   3.210
30541W        W97609  26.531   5.698   5.304
30542W        W97610   5.329  43.848  14.441
30543W        W97611  11.250  28.949   3.867
30544W        W97612   8.668  30.981  11.466
30545W        W97613  12.652  35.601  10.438
30546W        W97614   4.775  34.109   2.690
30547W        W97615  31.555  44.488  10.520
30548W        W97616  14.747   3.766  12.487
30549W        W97617  20.606  41.011   2.226
30550W        W97618  26.077  40.836  13.375
30551W        W97619  28.137  21.516   2.857
30552W        W97620  15.682  15.710  11.073
30553W        W97621  17.585   2.735   3.754
30554W        W97622  38.552   0.936  10.445
30555W        W97623   6.297  34.419   3.700
30556W        W97624  10.734  15.181   2.868
30557W        W97625  21.676  14.710  13.049
30558W        W97626  32.592   1.944  14.339
30559W        W97627  34.426  15.293  10.891
30560W        W97628  15.779  17.266  12.450
30561W        W97629  13.842  11.667  13.045
30562W        W97630  34.891  27.068  12.554
30563W        W97631  22.094  24.059  13.485
30564W        W97632  29.072  37.530   2.686
30565W        W97633  20.603  17.166  14.387
30566W        W97634  17.293  44.403   0.403
30567W        W97635  14.825   7.690   0.449
30568W        W97636  33.934  27.527   5.580
30569W        W97637  17.271   2.437   4.652
30570W        W97638  20.555  11.696   3.633
30571W        W97639  32.060   2.895  10.587
30572W        W97640   4.354  27.953   2.863
30573W        W97641  18.217  35.446   1.777
30574W        W97642  19.222  30.140   2.897
30575W        W97643   9.655   7.218   3.708
30576W        W97644  18.197   3.414  13.427
30577W        W97645  41.377  27.491  11.418
30578W        W97646  37.483  14.108  12.513
30579W        W97647  11.766  12.170   2.258
30580W        W97648  12.324  26.464  12.888
30581W        W97649  22.545  13.246   3.669
30582W        W97650   9.200  33.111  14.758
30583W        W97651  36.474  18.060  14.392
30584W        W97652  23.028  38.391   1.790
30585W        W97653   8.261  17.713   2.893
30586W        W97654  10.140  10.165   3.787
30587W        W97655  22.612   8.865   4.302
30588W        W97656  20.757   7.224  14.792
30589W        W97657  44.864   3.830  12.450
30590W        W97658  31.490   5.898   4.836
30591W        W97659  34.893  16.698   4.790
30592W        W97660  38.908   2.880   3.364
30593W        W97661  31.501  13.685  13.526
30594W        W97662  38.824   2.784   4.141
30595W        W97663  26.577  23.576  14.400
30596W        W97664  29.498  18.715  11.005
30597W        W97665  14.218   2.820   1.409
30598W        W97666  32.413  33.508  12.519
30599W        W97667  39.893  37.488   0.303
30600W        W97668  13.197  10.251  12.882
30601W        W97669  31.644   7.738  13.542
30602W        W97670   2.932   0.409  10.933
30603W        W97671  40.452  24.057  10.955
30604W        W97672  13.267  28.534   2.294
30605W        W97673  19.696  24.655  13.870
30606W        W97674  25.035   9.227   4.140
30607W        W97675  37.072  36.562   1.773
30608W        W97676  14.150  17.216  11.983
30609W        W97677  22.236  13.826  12.438
30610W        W97678  30.559  24.665  10.000
30611W        W97679  11.761  15.755   3.860
30612W        W97680   1.308  13.243   1.915
30613W        W97681  35.551  30.026   2.344
30614W        W97682  16.193  20.231   4.213
30615W        W97683   5.898  23.542   1.244
30616W        W97684   4.217  18.575   3.772
30617W        W97685  12.720  25.002  13.359
30618W        W97686   3.889  40.002  13.313
30619W        W97687  38.946   2.233   1.295
30620W        W97688  36.362   1.894   2.787
30621W        W97689  25.193  32.028   2.224
30622W        W97690  37.340   8.728   1.317
30623W        W97691  16.569  27.093  13.407
30624W        W97692  18.787  23.003  10.600
30625W        W97693  18.666  18.605  14.425
30626W        W97694  32.111   2.405  10.951
30627W        W97695  18.646  38.483   4.798
30628W        W97696  33.913   3.888   1.794
30629W        W97697   5.770  44.458  12.497
30630W        W97698   4.420   3.848   0.885
30631W        W97699   1.440  31.623   5.222
30632W        W97700  11.231  33.479  13.791
30633W        W97701  24.984  18.161  13.334
30634W        W97702  19.283  24.676  11.996
30635W        W97703   8.377  44.270  12.012
30636W        W97704  21.618   9.362  14.431
30637W        W97705  44.369  20.525  14.970
30638W        W97706  34.429  35.925   3.169
30639W        W97707  38.340  38.954   3.268
30640W        W97708  21.098  12.330  14.285
30641W        W97709  16.143  17.178  12.345
30642W        W97710  31.552   9.654  14.888
30643W        W97711  23.726   0.351   4.206
30644W        W97712  31.088  29.600  10.893
30645W        W97713  16.692  44.953   0.838
30646W        W97714  44.344   3.954   2.273
30647W        W97715  12.694  39.377   1.389
30648W        W97716  34.908  19.661  13.905
30649W        W97717  25.099   8.830   0.308
30650W        W97718  24.085  18.731   3.314
30651W        W97719  43.483  25.179   5.253
30652W        W97720   8.871  11.697  11.437
30653W        W97721   6.278  33.444   3.647
30654W        W97722  16.728  19.220  11.528
30655W        W97723  25.571  34.517   0.854
30656W        W97724  21.127  41.463  13.946
30657W        W97725   4.698  26.459  13.341
30658W        W97726  18.718  33.625  12.913
30659W        W97727  33.919  32.893   3.192
30660W        W97728   6.238  40.877  12.055
30661W        W97729  41.317  39.340   3.267
30662W        W97730  22.653  30.592   5.221
30663W        W97731  11.768  27.629   4.781
30664W        W97732   7.796  25.467   3.833
30665W        W97733  31.978  20.614  12.889
30666W        W97734  22.587  23.141  14.464
30667W        W97735  28.483   6.409  11.865
30668W        W97736  40.309  42.915   4.620
30669W        W97737  19.769  31.525   3.339
30670W        W97738  15.227  44.323  11.978
30671W        W97739  32.984  26.547   2.799
30672W        W97740  42.969  14.328  12.889
30673W        W97741  27.139  34.448   2.803
30674W        W97742   6.301   0.371   2.839
30675W        W97743   5.793   0.848  10.909
30676W        W97744  14.722  16.255   4.622
30677W        W97745  41.813  32.636  13.815
30678W        W97746  12.846  19.747  10.988
30679W        W97747  10.636  38.353  12.875
30680W        W97748   9.319  22.649  13.058
30681W        W97749  18.273  26.671  10.941
30682W        W97750  40.009  42.792   0.934
30683W        W97751  19.040  11.656  13.438
30684W        W97752   7.235   8.695   1.921
30685W        W97753  29.105  29.572   1.439
30686W        W97754  22.213  16.292  11.029
30687W        W97755  14.260  29.977   3.714
30688W        W97756  41.841  44.404  10.539
30689W        W97757  34.579  33.524   3.815
30690W        W97758   1.793  35.601  12.556
30691W        W97759  14.281  16.674   4.739
30692W        W97760  37.029  13.277  14.888
30693W        W97761  11.289   1.344   1.863
30694W        W97762  33.518  14.177  12.995
30695W        W97763  25.198  24.610   0.799
30696W        W97764  37.885  29.097  10.521
30697W        W97765   4.343  42.407  13.373
30698W        W97766  16.721   0.773   4.180
30699W        W97767  10.750  25.506   4.647
30700W        W97768  35.948   1.294  11.603
30701W        W97769  32.568  22.626   1.780
30702W        W97770   5.737   6.768   1.406
30703W        W97771  14.125  15.775   2.832
30704W        W97772  38.853  27.462  13.039
30705W        W97773  16.117  21.053  13.020
30706W        W97774  34.451   5.384  13.043
30707W        W97775  13.291  34.975   0.833
30708W        W97776   4.428  26.959   3.245
30709W        W97777   0.904  21.155   2.821
30710W        W97778  14.304   5.793  13.913
30711W        W97779  27.959  24.118   0.476
30712W        W97780   8.693  16.126  13.376
30713W        W97781   3.929  40.498  12.427
30714W        W97782   5.850  11.235  13.485
30715W        W97783  34.600  11.249   4.756
30716W        W97784  36.903  27.049   1.394
30717W        W97785  12.300   2.289  13.948
30718W        W97786  43.822  15.144  14.989
30719W        W97787   1.903  15.280  14.435
30720W        W97788  36.005  21.652   1.404
30721W        W97789  16.136   8.706  11.943
30722W        W97790  24.136  12.687   3.273
30723W        W97791  23.038  36.909  10.925
30724W        W97792   7.367  22.643   0.321
30725W        W97793   7.347  27.555   4.161
30726W        W97794  23.708  22.245   2.777
30727W        W97795  25.042  20.240   0.348
30728W        W97796   9.296  18.133   3.149
30729W        W97797  33.010  18.098  14.013
30730W        W97798  33.624   4.357  10.406
30731W        W97799  12.158  25.559  11.865
30732W        W97800   0.982  29.038   9.981
30733W        W97801  41.418  38.500  13.036
30734W        W97802  17.115  30.081  11.047
30735W        W97803  20.075   0.297   2.889
30736W        W97804  39.823  13.305  12.891
30737W        W97805  41.907  39.016  12.963
30738W        W97806   3.848   7.317  14.288
30739W        W97807  31.064  26.104  14.286
30740W        W97808  42.863   3.903   0.749
30741W        W97809  17.204  25.546  14.802
30742W        W97810  12.618  16.304  11.954
30743W        W97811  42.399  36.970  11.954
30744W        W97812  36.399  17.670  12.503
30745W        W97813  37.960  40.318   0.259
30746W        W97814  34.453  32.468  13.486
30747W        W97815   2.727  27.686   1.438
30748W        W97816   6.349  17.772  13.366
30749W        W97817   8.229  35.869  11.969
30750W        W97818   0.750  22.566  10.627
30751W        W97819  32.635  37.839   1.357
30752W        W97820  21.740  30.112   0.746
30753W        W97821  42.501   2.804  11.068
30754W        W97822   9.833  44.390  11.469
30755W        W97823  25.688  33.058  10.623
30756W        W97824  28.641  42.476   2.790
30757W        W97825  26.558   2.754   1.451
30758W        W97826  34.926  20.569  14.430
30759W        W97827  24.984  37.447  14.787
30760W        W97828  31.025  34.033   3.691
30761W        W97829  31.641  43.510   3.346
30762W        W97830   3.716  44.856  12.007
30763W        W97831  39.916  44.436  14.927
30764W        W97832   2.287  27.669  13.483
30765W        W97833  33.436  14.293   2.816
30766W        W97834  43.919  29.105  11.395
30767W        W97835   8.320  18.223  13.893
30768W        W97836   6.864  36.497  11.916
30769W        W97837  20.235  38.372   2.665
30770W        W97838  31.924  10.740  10.566
30771W        W97839   7.775  21.089   3.866
30772W        W97840  35.409  32.455  12.995
30773W        W97841  29.485  13.183   0.325
30774W        W97842  20.163  11.639   5.270
30775W        W97843  12.823  44.462   0.276
30776W        W97844  32.636  19.061   0.482
30777W        W97845  21.055  16.692  12.877
30778W        W97846  43.337  30.001   0.842
30779W        W97847   0.316  38.459   2.743
30780W        W97848  21.544  17.612  10.468
30781W        W97849  31.979  31.127  12.884
30782W        W97850  27.121   6.400   4.669
30783W        W97851  39.933  39.421  10.451
30784W        W97852  23.554  33.881  13.919
30785W        W97853  15.660  28.551   4.156
30786W        W97854  32.939  37.365  10.436
30787W        W97855  27.124  26.159   1.359
30788W        W97856  17.091   2.867   0.922
30789W        W97857  12.259  43.375  10.947
30790W        W97858  22.579  37.545   4.255
30791W        W97859   0.759  36.912  11.453
30792W        W97860  33.565  43.461  12.959
30793W        W97861  12.239  32.047   0.770
30794W        W97862  13.722  18.554   1.368
30795W        W97863  42.326  13.159  14.865
30796W        W97864  32.498   5.203  12.932
30797W        W97865  33.924  39.384   0.747
30798W        W97866   2.939  41.320   3.250
30799W        W97867  17.300   1.955   2.801
30800W        W97868  34.412  26.553  13.540
30801W        W97869  31.576  12.207  13.828
30802W        W97870   6.786   3.886  11.491
30803W        W97871  21.599  27.141   4.282
30804W        W97872  35.388  28.032  13.004
30805W        W97873  30.160  43.792   4.334
30806W        W97874  39.964  41.355  12.914
30807W        W97875  38.484  20.599  11.429
30808W        W97876   7.843  44.909  14.497
30809W        W97877  31.536  17.572  14.328
30810W        W97878  27.959  18.597  11.908
30811W        W97879  41.818  34.941  11.899
30812W        W97880  18.547  26.560   5.288
30813W        W97881  22.131  38.490  13.010
30814W        W97882   6.400  14.118  10.594
30815W        W97883   8.736  32.895   3.679
30816W        W97884   5.897   8.838   1.310
30817W        W97885  41.385  28.626   3.836
30818W        W97886   0.337  28.620  14.493
30819W        W97887  16.201   6.380   0.285
30820W        W97888  24.978  24.150  12.522
30821W        W97889  44.437  40.314   3.240
30822W        W97890  15.151  17.091   1.722
30823W        W97891   9.882  10.278  14.023
30824W        W97892  23.502  17.603  13.411
30825W        W97893  27.194  21.197  10.475
30826W        W97894  25.654  37.994  13.532
30827W        W97895  25.557   4.231   3.361
30828W        W97896  17.187  42.005   4.290
30829W        W97897  44.960   1.882  12.983
30830W        W97898  22.039  41.987   4.602
30831W        W97899  39.481  39.025   4.757
30832W        W97900  37.982  14.626  14.285
30833W        W97901  33.901   0.921   0.908
30834W        W97902  17.282  16.239   1.356
30835W        W97903  35.989  34.958  11.001
30836W        W97904   2.789  15.318  11.975
30837W        W97905  24.117  24.177   0.479
30838W        W97906  11.738  14.217   0.848
30839W        W97907  19.765  40.935   4.652
30840W        W97908  10.660  14.819  12.368
30841W        W97909  10.649  29.023   0.304
30842W        W97910   9.858   3.728   4.296
30843W        W97911  31.512  23.589   1.820
30844W        W97912  28.499  27.139   0.477
30845W        W97913   2.874  14.676   3.198
30846W        W97914  24.156  17.773  14.992
30847W        W97915  36.842  18.700  11.863
30848W        W97916  22.022  28.621  14.761
30849W        W97917  13.328  42.803  14.025
30850W        W97918  27.164  10.853  12.981
30851W        W97919  32.980  28.173   4.730
30852W        W97920  41.822  17.595   3.336
30853W        W97921  24.210  24.506  13.062
30854W        W97922  28.560  29.459  14.896
30855W        W97923  35.965  21.517   0.454
30856W        W97924   0.944   9.204   4.218
30857W        W97925  31.647  29.972  14.315
30858W        W97926  18.661  37.476   4.647
30859W        W97927  23.222  18.704   0.756
30860W        W97928  32.404  37.456   3.231
30861W        W97929  14.822  10.682  12.913
30862W        W97930   8.253  13.672  11.391
30863W        W97931   8.352  19.679  12.000
30864W        W97932  15.775  32.603  12.996
30865W        W97933  10.352   4.360  11.907
30866W        W97934   7.364  36.417  14.801
30867W        W97935   4.810  20.217   2.707
30868W        W97936  15.792   9.266   3.147
30869W        W97937  31.428  29.146   4.697
30870W        W97938  14.771   7.322  13.857
30871W        W97939   9.228  29.589  13.506
30872W        W97940  17.604  21.602   5.121
30873W        W97941  24.505  37.528  11.371
30874W        W97942  11.682  41.985   3.763
30875W        W97943   4.790  23.695  11.379
30876W        W97944  37.043   8.269  13.956
30877W        W97945  29.110  31.096  10.625
30878W        W97946  18.075  28.948  13.379
30879W        W97947  34.411  20.751   3.258
30880W        W97948  33.062   8.202   0.476
30881W        W97949  30.086   9.181   1.261
30882W        W97950  44.307  44.440  10.491
30883W        W97951  27.156  29.570  12.024
30884W        W97952   6.409  19.602   4.152
30885W        W97953  11.742   6.679   0.895
30886W        W97954  23.607  27.011  10.891
30887W        W97955  32.397  37.468  12.556
30888W        W97956  20.578  17.062   4.625
30889W        W97957  13.106   8.244  14.287
30890W        W97958  32.936   5.247  13.395
30891W        W97959  39.864  32.966   4.308
30892W        W97960   5.353   5.802   3.684
30893W        W97961  42.956  40.409  13.062
30894W        W97962  26.573  21.728  10.475
30895W        W97963  41.892  25.183   0.779
30896W        W97964  39.907  25.707  13.046
30897W        W97965  14.311  14.699   4.825
30898W        W97966  27.953  44.504   1.292
30899W        W97967  32.536  30.027   3.311
30900W        W97968  22.712  30.615   9.934
30901W        W97969  21.118  34.554  10.432
30902W        W97970   9.332  39.322  12.422
30903W        W97971  26.037   5.760   2.274
30904W        W97972   7.829   1.387  14.457
30905W        W97973  30.102  44.401  10.548
30906W        W97974  12.839  10.749  14.504
30907W        W97975  13.742   2.422   4.815
30908W        W97976  40.431  27.957   1.228
30909W        W97977  42.890  25.971  12.949
30910W        W97978  21.561   5.840   1.245
30911W        W97979  31.505  23.557  11.861
30912W        W97980  14.727  27.145  13.022
30913W        W97981  11.255  14.715  14.010
30914W        W97982  15.798  38.934  10.535
30915W        W97983   7.257  31.442  10.406
30916W        W97984  26.475  32.455   5.092
30917W        W97985   5.312  23.182   4.776
30918W        W97986  29.992  16.574  14.487
30919W        W97987  17.621  36.858  13.909
30920W        W97988  31.473   6.793  14.955
30921W        W97989  20.080   5.281  12.096
30922W        W97990  11.833  17.624  10.623
30923W        W97991  17.589   4.226   3.769
30924W        W97992  33.938  33.097  13.810
30925W        W97993  37.340  29.126  11.116
30926W        W97994  30.428   8.237   1.741
30927W        W97995  38.516  17.216  11.119
30928W        W97996  13.788  19.533  14.515
30929W        W97997  12.708   7.289  13.935
30930W        W97998  31.950   8.180   4.179
30931W        W97999   5.230  21.126   0.935
30932W        W98000  33.407   7.701   2.317
30933W        W98001  22.201   6.679   3.282
30934W        W98002  20.076   5.785   3.316
30935W        W98003  28.527  36.080   1.216
30936W        W98004  15.226   3.420   2.240
30937W        W98005  15.204  39.321  12.838
30938W        W98006  36.436  35.461  10.409
30939W        W98007  33.069  22.137  12.556
30940W        W98008  36.406  38.389   3.652
30941W        W98009  17.192  43.497   4.269
30942W        W98010  30.924   9.808   0.914
30943W        W98011   5.883  13.840   3.377
30944W        W98012  33.477  30.956   4.288
30945W        W98013  31.591  30.544  12.432
30946W        W98014  37.460  24.150  14.293
30947W        W98015  41.516  13.112   0.753
30948W        W98016  28.553  18.665  12.460
30949W        W98017  28.023   9.696   9.997
30950W        W98018  37.554  36.402  10.965
30951W        W98019  41.442  12.677  10.466
30952W        W98020  18.678  22.735   5.094
30953W        W98021  28.162  17.643  10.077
30954W        W98022   3.216  11.742   5.130
30955W        W98023  34.402  13.219   2.255
30956W        W98024  20.716  40.519  11.931
30957W        W98025  16.089  41.004  14.817
30958W        W98026  41.421   2.925   4.680
30959W        W98027  14.241   3.808   5.159
30960W        W98028  30.494  36.055   1.834
30961W        W98029  44.310  29.480  14.427
30962W        W98030  32.494  39.019  13.842
30963W        W98031  37.546   2.372  14.911
30964W        W98032  41.959  29.004   2.700
30965W        W98033  12.309   0.812   1.423
30966W        W98034  20.236  21.591  11.118
30967W        W98035   1.373  30.988  14.485
30968W        W98036  37.834  19.220   4.253
30969W        W98037  28.158   4.835  11.910
30970W        W98038  23.223  40.495  13.341
30971W        W98039  28.440  22.039  13.840
30972W        W98040  12.303  11.801   1.836
30973W        W98041  44.831  14.733  13.440
30974W        W98042  16.630  26.000   0.930
30975W        W98043  23.510  20.203  12.035
30976W        W98044  22.556  32.528   1.344
30977W        W98045   7.375  39.943  10.425
30978W        W98046   0.776  31.003   4.699
30979W        W98047  14.154  12.675   3.315
30980W        W98048  41.787   8.243  13.322
30981W        W98049  40.940  44.767  11.429
30982W        W98050   7.413  32.408   1.824
30983W        W98051   3.385   8.787   4.764
30984W        W98052  10.198   6.216   4.131
30985W        W98053  10.797  41.530   3.813
30986W        W98054  11.132   4.225  14.508
30987W        W98055  18.169  43.487  14.404
30988W        W98056  41.946  42.295  14.489
30989W        W98057  21.728  44.327   4.164
30990W        W98058  20.082   5.771  10.433
30991W        W98059  43.904  35.053  10.452
30992W        W98060  13.726  23.676   3.314
30993W        W98061  32.409   2.298   4.799
30994W        W98062  31.433  20.621  14.934
30995W        W98063  15.717  36.084  11.443
30996W        W98064   0.494  14.095  13.507
30997W        W98065  29.939   7.723   4.284
30998W        W98066  15.656  31.933   4.747
30999W        W98067  22.015  18.569  13.027
31000W        W98068  34.092  19.693   0.918
31001W        W98069  20.121  30.918  14.759
31002W        W98070  13.129  32.895  12.085
31003W        W98071   6.331  42.282   0.307
31004W        W98072   0.906  20.605   0.320
31005W        W98073   2.882  24.606  14.955
31006W        W98074  32.049  10.295  11.898
31007W        W98075  23.088  39.050  14.820
31008W        W98076  30.578  11.371   4.338
31009W        W98077  15.293   1.406  13.307
31010W        W98078  13.621  29.450  11.946
31011W        W98079  29.028  35.563  10.565
31012W        W98080  17.754   1.866  13.358
31013W        W98081  20.722   9.792   0.959
31014W        W98082  14.681  34.464   1.845
31015W        W98083  16.615  13.829   3.223
31016W        W98084  23.105   8.678  13.844
31017W        W98085  18.104  29.632  12.524
31018W        W98086  41.438  16.271  12.848
31019W        W98087  22.130  11.141  13.796
31020W        W98088  23.615  28.532  13.001
31021W        W98089  13.265  34.473   0.458
31022W        W98090  40.539   9.226   1.872
31023W        W98091  30.987  31.906   1.274
31024W        W98092  11.235  22.071  14.977
31025W        W98093  29.946  43.786  14.967
31026W        W98094  28.572   5.779  13.510
31027W        W98095  40.001  21.697   1.231
31028W        W98096  36.407  20.654   1.398
31029W        W98097   1.482  32.610  14.363
31030W        W98098  16.632   7.200   1.451
31031W        W98099  19.544   4.891   3.209
31032W        W98100  37.954  33.480  10.001
31033W        W98101  29.001  27.950  12.985
31034W        W98102   2.471   2.279   2.693
31035W        W98103  27.058  12.815  14.484
31036W        W98104  14.176  18.166   2.235
31037W        W98105  27.012  19.652  13.988
31038W        W98106  34.409  39.492   3.806
31039W        W98107  17.745  40.892   0.868
31040W        W98108  39.326  11.291  11.003
31041W        W98109  31.638  29.563  11.583
31042W        W98110  28.516  23.548   0.396
31043W        W98111   3.220  23.039   2.376
31044W        W98112  33.475  35.070  11.091
31045W        W98113  39.971   1.915   1.846
31046W        W98114  12.788  41.893   1.231
31047W        W98115  14.141  14.689   3.819
31048W        W98116  24.521  13.642  12.564
31049W        W98117  40.451   1.361   2.270
31050W        W98118  18.092  14.758   1.221
31051W        W98119  22.170  27.567   2.780
31052W        W98120  20.029  27.970   2.759
31053W        W98121  17.289  36.099  14.027
31054W        W98122   8.184  28.054   1.815
31055W        W98123  35.368  23.132  14.961
31056W        W98124   5.790  16.312  10.926
31057W        W98125  23.039  19.139   4.292
31058W        W98126  12.211  20.111   1.837
31059W        W98127   4.833   2.722  10.430
31060W        W98128  25.511  18.128  11.558
31061W        W98129  30.583  40.344   2.218
31062W        W98130   5.917  34.513  13.997
31063W        W98131  32.023  35.581  11.510
31064W        W98132  40.901   2.425   2.316
31065W        W98133  24.024  13.693   0.452
31066W        W98134  14.271  32.512   0.453
31067W        W98135  16.315  10.384   4.821
31068W        W98136  42.437  12.682  12.483
31069W        W98137  18.078  21.526  12.051
31070W        W98138  37.087  28.594  13.538
31071W        W98139   3.251  16.239   1.802
31072W        W98140  12.316   6.407   4.196
31073W        W98141   1.865   4.344   0.458
31074W        W98142  38.435  27.958  14.418
31075W        W98143  35.968  15.752   0.860
31076W        W98144  11.254  43.882   3.225
31077W        W98145   4.346  10.201  11.024
31078W        W98146  18.230  20.195   3.350
31079W        W98147  16.302  18.296   5.271
31080W        W98148  22.252  14.765  11.008
31081W        W98149   1.248  35.017  12.577
31082W        W98150  24.492   2.298  11.999
31083W        W98151  12.328  43.950   4.120
31084W        W98152  19.610  12.764   2.360
31085W        W98153  28.513  11.137  11.923
31086W        W98154  25.692  29.581   1.931
31087W        W98155  24.050   6.893   4.825
31088W        W98156  35.906   9.704   0.312
31089W        W98157   7.717   6.398  10.943
31090W        W98158   8.760  44.411   0.903
31091W        W98159  19.119  15.185  10.523
31092W        W98160   1.776  29.613   4.689
31093W        W98161   0.899  32.954  14.013
31094W        W98162  40.495  24.651   1.912
31095W        W98163   6.908  21.726   4.626
31096W        W98164  42.805  32.498  14.954
31097W        W98165  23.167  18.126  10.933
31098W        W98166  29.045  38.443   3.845
31099W        W98167   1.403  33.896  11.520
31100W        W98168  33.494  43.906   3.847
31101W        W98169  15.089  44.487  14.369
31102W        W98170  34.451  11.256  13.806
31103W        W98171  23.689  32.127   3.659
31104W        W98172  14.606  27.059  10.991
31105W        W98173  22.697   9.226   4.189
31106W        W98174   9.825   7.253  11.962
31107W        W98175  24.149  15.166  11.108
31108W        W98176  12.118  26.668   3.734
31109W        W98177  42.989  27.149  10.620
31110W        W98178  20.139  35.522  14.381
31111W        W98179   2.759  17.686   2.344
31112W        W98180  12.291  42.338  12.383
31113W        W98181  27.030  12.333   1.353
31114W        W98182  32.053   9.769   1.274
31115W        W98183  10.245  32.141   4.217
31116W        W98184   3.380   7.799  12.547
31117W        W98185  20.557  26.488  13.045
31118W        W98186  44.389  39.509   1.238
31119W        W98187   0.819  11.325  10.411
31120W        W98188   6.699  33.562  11.545
31121W        W98189  33.380   7.279  13.050
31122W        W98190  11.824   6.428  13.878
31123W        W98191  36.971  37.437  12.512
31124W        W98192   0.959   6.708  11.517
31125W        W98193  16.758  12.670  14.945
31126W        W98194  10.746  24.540  14.972
31127W        W98195  39.060  42.823  14.497
31128W        W98196   8.670   4.223   2.365
31129W        W98197  39.958   7.405  14.830
31130W        W98198  32.548   6.905  11.539
31131W        W98199  21.746  34.890  10.523
31132W        W98200   0.841  13.699   1.897
31133W        W98201  12.716  17.717   1.351
31134W        W98202   5.343  13.149   0.777
31135W        W98203  36.984  35.004  13.481
31136W        W98204  13.754  24.558  11.869
31137W        W98205  26.097  34.061  14.293
31138W        W98206  27.115  30.135   0.386
31139W        W98207   8.293  10.754  11.998
31140W        W98208  25.475   6.870  14.284
31141W        W98209  43.015  31.035  11.047
31142W        W98210  26.555  23.078   0.783
31143W        W98211  29.586   1.899   3.326
31144W        W98212  36.394   4.738   1.290
31145W        W98213  31.603   9.237   2.256
31146W        W98214  23.537  22.231  14.488
31147W        W98215  31.561   7.862  12.442
31148W        W98216  42.482   4.430  11.496
31149W        W98217  43.317  23.017  14.819
31150W        W98218  27.676  36.449   1.766
31151W        W98219  30.939  23.133  14.916
31152W        W98220  11.252  36.348   2.813
31153W        W98221  38.018  26.464  11.942
31154W        W98222   7.753  23.614   0.933
31155W        W98223  41.933  11.782   4.125
31156W        W98224  38.049  23.567   1.406
31157W        W98225  15.111  40.402   1.746
31158W        W98226  34.445  35.469   2.662
31159W        W98227  33.131   0.270   2.866
31160W        W98228  38.926  13.835  11.086
31161W        W98229  37.559  31.560  13.860
31162W        W98230   0.272  40.841  12.086
31163W        W98231  23.167  25.511   4.238
31164W        W98232  15.323  34.025  14.924
31165W        W98233  42.405  10.755   2.865
31166W        W98234  21.201   4.325   2.739
31167W        W98235   5.424  32.581   2.703
31168W        W98236  20.684  11.281   2.736
31169W        W98237  27.464  31.112   0.431
31170W        W98238  11.767  32.568   3.696
31171W        W98239  22.566  13.664   3.153
31172W        W98240   4.795  15.085   3.708
31173W        W98241  33.107  11.174   2.197
31174W        W98242  20.035  27.146   2.204
31175W        W98243   6.247  40.854  11.432
31176W        W98244   1.952  26.545   2.685
31177W        W98245  32.026  31.006  11.526
31178W        W98246  23.564  13.804  13.320
31179W        W98247   4.830  30.446   3.776
31180W        W98248  29.584  24.653   3.734
31181W        W98249  29.142  15.734   4.735
31182W        W98250  30.993   3.838   3.152
31183W        W98251   6.862  10.856   3.244
31184W        W98252  17.215   8.327   1.365
31185W        W98253  10.169   2.396  14.016
31186W        W98254  42.806  37.567   4.179
31187W        W98255  19.741   9.149   4.189
31188W        W98256  14.210   8.726  10.944
31189W        W98257   4.294  21.616  11.949
31190W        W98258   2.897  29.665  12.891
31191W        W98259  20.232  18.141  13.952
31192W        W98260   9.388  31.966  13.479
31193W        W98261  18.662  32.026  11.096
31194W        W98262  17.680  43.944  13.323
31195W        W98263   6.825  35.990   2.296
31196W        W98264  15.693  19.186   4.806
31197W        W98265  32.943   8.175  13.403
31198W        W98266  23.669  23.166   2.865
31199W        W98267   6.333  20.678  14.507
31200W        W98268  43.382  24.169  11.905
31201W        W98269   0.784  12.304   0.820
31202W        W98270  41.023  13.676  12.379
31203W        W98271  24.161  12.857  10.617
31204W        W98272  19.194   9.687   0.478
31205W        W98273   0.935  44.285   1.709
31206W        W98274   2.895  23.005  14.016
31207W        W98275   8.263  36.987   4.831
31208W        W98276  16.138   0.953   0.410
31209W        W98277  29.031   0.269   1.318
31210W        W98278  35.986  26.558  13.025
31211W        W98279  11.142  42.455  11.382
31212W        W98280  21.062  10.155  11.605
31213W        W98281  18.544   9.186  13.045
31214W        W98282  36.967  15.814   1.409
31215W        W98283  10.352  42.928  12.857
31216W        W98284  25.061   7.858  10.622
31217W        W98285   9.173  20.551  12.879
31218W        W98286  15.249   0.338  14.028
31219W        W98287  30.921  20.186  12.491
31220W        W98288   4.885  30.417  13.025
31221W        W98289  36.531  34.864   0.881
31222W        W98290  25.184  41.389  12.903
31223W        W98291  35.935   3.253   3.846
31224W        W98292  17.107   2.789  10.980
31225W        W98293  35.495  30.909   3.361
31226W        W98294  32.094  17.681   5.159
31227W        W98295  29.028  38.399  11.091
31228W        W98296  12.249  32.571  14.423
31229W        W98297   1.828  21.039  11.578
31230W        W98298   2.886  10.650  10.464
31231W        W98299  15.724  23.123   4.681
31232W        W98300  43.971  35.486   2.392
31233W        W98301  42.494  22.626  12.394
31234W        W98302  38.919   1.394   4.605
31235W        W98303   0.869  37.410  11.110
31236W        W98304  11.781   6.906   3.379
31237W        W98305  35.492  27.964   4.749
31238W        W98306  26.195  10.764  13.062
31239W        W98307  20.118  39.509  14.430
31240W        W98308  44.896   5.257   4.622
31241W        W98309  14.608  20.633  14.388
31242W        W98310  31.542  30.156  11.886
31243W        W98311  42.284  38.505  10.896
31244W        W98312  32.067  10.207   0.939
31245W        W98313  40.809   6.726   0.293
31246W        W98314  21.708   1.778  11.122
31247W        W98315   9.372  42.459  12.390
31248W        W98316  35.882  36.928   4.681
31249W        W98317   7.367  12.170   4.778
31250W        W98318  33.623   3.826  10.038
31251W        W98319   4.227  26.156   4.650
31252W        W98320   5.429  28.508  13.930
31253W        W98321  44.906  18.104   0.956
31254W        W98322  24.597  44.502  14.500
31255W        W98323  44.352  31.408   0.476
31256W        W98324  32.631  11.350   3.632
31257W        W98325  31.054  16.195   2.263
31258W        W98326   0.294  23.537  13.907
31259W        W98327  41.790  38.359  13.825
31260W        W98328  18.258   9.736   9.985
31261W        W98329  22.718  42.286   3.185
31262W        W98330   3.281  23.516   2.864
31263W        W98331  26.154  25.713   0.257
31264W        W98332  36.059  42.302   0.850
31265W        W98333   9.694  18.235   1.910
31266W        W98334  13.717  39.898  14.366
31267W        W98335  31.618  21.518   3.218
31268W        W98336  21.665  14.735  10.895
31269W        W98337   0.860   7.354  10.567
31270W        W98338  42.933   7.239  12.393
31271W        W98339   6.186  28.515   0.283
31272W        W98340  24.016  34.540  14.891
31273W        W98341  33.481  19.625  11.404
31274W        W98342  31.048  29.136  14.932
31275W        W98343   5.376  41.824   4.281
31276W        W98344  29.445   3.796  14.856
31277W        W98345  36.537  25.032  13.488
31278W        W98346   2.408  13.291   2.690
31279W        W98347  28.487   3.315  11.082
31280W        W98348  34.950   1.772   1.271
31281W        W98349  29.527   3.954   2.180
31282W        W98350  22.688   8.697   4.627
31283W        W98351  11.127  22.131   2.772
31284W        W98352  10.719  26.600   1.302
31285W        W98353  16.790  34.381   4.702
31286W        W98354  22.024  16.206  12.432
31287W        W98355  36.558   3.318   4.264
31288W        W98356  18.632  20.638  14.886
31289W        W98357  33.522  37.414   2.348
31290W        W98358  32.972  29.437  12.068
31291W        W98359  37.905   3.883   0.346
31292W        W98360   6.756   9.794  12.557
31293W        W98361  35.067  29.174   9.973
31294W        W98362  18.786  22.596   1.249
31295W        W98363  39.985  35.387   4.704
31296W        W98364  27.114  20.713  14.785
31297W        W98365  28.614  43.996  13.489
31298W        W98366   7.840  38.392   4.257
31299W        W98367  33.380   0.309  10.552
31300W        W98368  17.216   3.773  13.436
31301W        W98369  19.735   5.316   0.397
31302W        W98370  15.749  30.642   4.287
31303W        W98371  35.084   1.795   5.148
31304W        W98372  40.901   1.904  12.038
31305W        W98373  42.927  20.568  10.925
31306W        W98374   4.365  10.680   0.349
31307W        W98375  36.398   6.198   3.781
31308W        W98376  21.152  37.404  14.411
31309W        W98377   5.793  32.032  13.404
31310W        W98378   0.474  14.278   2.370
31311W        W98379  14.283  25.533  14.862
31312W        W98380  31.597  23.175  14.918
31313W        W98381  13.829   0.360   1.868
31314W        W98382  19.539  29.017  13.011
31315W        W98383  23.053  23.178   1.719
31316W        W98384   8.376  21.681   2.198
31317W        W98385   7.686   9.837  13.459
31318W        W98386  23.578  39.552   1.712
31319W        W98387  25.969  32.046   1.380
31320W        W98388  36.515  20.112   2.310
31321W        W98389  39.364  19.697  13.884
31322W        W98390   7.748  12.797  11.538
31323W        W98391  35.906  22.621   0.411
31324W        W98392   4.895  29.666   3.208
31325W        W98393  27.486  11.852   3.281
31326W        W98394   0.773  28.167  10.441
31327W        W98395  19.192   1.822   2.680
31328W        W98396  44.444  10.291  12.055
31329W        W98397  15.767   2.472  14.915
31330W        W98398  12.824  15.304   4.712
31331W        W98399  12.632  33.560  13.816
31332W        W98400   8.282  16.193   1.774
31333W        W98401  43.810  24.991   4.677
31334W        W98402  20.742  37.351   0.772
31335W        W98403  12.732  33.440   1.835
31336W        W98404   5.881   4.305   2.410
31337W        W98405   3.290   7.878   1.835
31338W        W98406  39.543  11.148  12.986
31339W        W98407  20.528  23.729   3.828
31340W        W98408  24.623  24.609   4.121
31341W        W98409  25.138  33.496  11.531
31342W        W98410  10.345  38.501  10.052
31343W        W98411  15.787  21.215   1.775
31344W        W98412  10.287   9.371  14.031
31345W        W98413  32.472   1.880   4.675
31346W        W98414  26.007   9.161   2.670
31347W        W98415  32.490  33.117  12.881
31348W        W98416  12.146   8.740  14.409
31349W        W98417  11.167  39.513   3.257
31350W        W98418  24.527  42.813  12.937
31351W        W98419  34.972  17.108   3.311
31352W        W98420  25.658  12.295   3.775
31353W        W98421  33.450  17.268   3.331
31354W        W98422  12.334  30.494  13.905
31355W        W98423  27.484  32.133   4.790
31356W        W98424  16.150  13.238  14.778
31357W        W98425  14.155  36.849   4.674
31358W        W98426   6.391  28.576   4.613
31359W        W98427  38.350  19.050  10.499
31360W        W98428  32.444  19.139   4.795
31361W        W98429   5.253  26.086  12.021
31362W        W98430  30.149   0.947   0.793
31363W        W98431  26.661  34.455  14.786
31364W        W98432  34.470  38.870   1.694
31365W        W98433  39.343   3.824   0.840
31366W        W98434  24.187   0.986  12.003
31367W        W98435  29.574  44.832  14.354
31368W        W98436  15.327  29.047   3.269
31369W        W98437   3.395   7.399  10.517
31370W        W98438   0.417  13.658   1.390
31371W        W98439   5.330  30.644   4.687
31372W        W98440  16.717  35.397   2.780
31373W        W98441  33.998  33.381  10.601
31374W        W98442   5.704   8.792   1.762
31375W        W98443   4.857  35.439   1.286
31376W        W98444  17.243  29.580  12.084
31377W        W98445   0.400  34.898   3.840
31378W        W98446   1.916   5.432  11.490
31379W        W98447  23.677   6.892   0.369
31380W        W98448  35.104  10.832  11.412
31381W        W98449  34.392  43.301  14.441
31382W        W98450   9.373  11.642  12.934
31383W        W98451  44.793   4.445  11.077
31384W        W98452   2.340  43.337   2.793
31385W        W98453  22.079  27.112  14.009
31386W        W98454  10.356   4.816   0.909
31387W        W98455   7.889  32.981   2.784
31388W        W98456  25.541  19.655  13.967
31389W        W98457  10.703  31.502  14.951
31390W        W98458  26.654  33.091   4.686
31391W        W98459  34.464  19.136   2.363
31392W        W98460  35.996  14.738   1.411
31393W        W98461  22.623  25.644   4.770
31394W        W98462   8.231  30.968  11.995
31395W        W98463  17.688  41.991   2.371
31396W        W98464  11.186  24.540  14.940
31397W        W98465  14.195   0.445   1.229
31398W        W98466  34.570  28.972  10.984
31399W        W98467  21.625  17.276  10.925
31400W        W98468  18.160  20.102   1.227
31401W        W98469  11.627  24.089   2.851
31402W        W98470  16.213  23.190  14.943
31403W        W98471  22.564  25.628  11.461
31404W        W98472   1.879  14.308   4.158
31405W        W98473  15.176  14.117  14.278
31406W        W98474  17.674   5.342   1.754
31407W        W98475  35.901  36.415   2.179
31408W        W98476  19.148  23.008  13.024
31409W        W98477  19.573  39.927  12.514
31410W        W98478  10.708  38.897   2.247
31411W        W98479  31.641  22.687   0.428
31412W        W98480  25.545   6.824  12.451
31413W        W98481  16.678  20.714   1.290
31414W        W98482   5.258  33.585  10.636
31415W        W98483  11.791   1.884   5.225
31416W        W98484  42.313  21.182   2.309
31417W        W98485  20.679  44.427  10.437
31418W        W98486  38.952  23.107   3.789
31419W        W98487   4.910  21.179  13.492
31420W        W98488  22.066  19.734  13.798
31421W        W98489  23.594  34.571  11.454
31422W        W98490  21.544  10.191  11.521
31423W        W98491  27.544   1.805   2.832
31424W        W98492  42.795  12.680   2.377
31425W        W98493  35.017  21.678  12.059
31426W        W98494   2.374  24.521   4.638
31427W        W98495   4.363  21.039   3.695
31428W        W98496   9.735  20.071   3.306
31429W        W98497  25.553  32.063   2.217
31430W        W98498  24.096  33.580  13.484
31431W        W98499  11.640  28.009  13.918
31432W        W98500   8.287   0.443  13.961
31433W        W98501   0.424  40.938  10.632
31434W        W98502  44.007  21.558   3.803
31435W        W98503  28.053  17.780  14.380
31436W        W98504  23.168  13.213   1.899
31437W        W98505  27.535  13.703   1.801
31438W        W98506   2.904  29.992  12.426
31439W        W98507  38.945  13.786   3.666
31440W        W98508  27.584  20.764   1.827
31441W        W98509  29.566  20.709   3.769
31442W        W98510  37.450  28.613   1.835
31443W        W98511  35.498  30.421  12.016
31444W        W98512  28.966  12.716   1.737
31445W        W98513  23.193  43.491   0.338
31446W        W98514  40.839  38.481   0.354
31447W        W98515  24.067   3.226   3.712
31448W        W98516  14.159  37.054   0.316
31449W        W98517  22.519  43.999  12.945
31450W        W98518  44.931  22.551  11.409
31451W        W98519  33.554  40.491  13.908
31452W        W98520  41.905  34.556   4.149
31453W        W98521  11.200  27.483   2.234
31454W        W98522  36.913  12.358   0.355
31455W        W98523  43.004   3.730   4.331
31456W        W98524  28.932   2.422  14.378
31457W        W98525  10.195   9.316  12.556
31458W        W98526   1.346  31.106   4.136
31459W        W98527  23.037  14.204  11.096
31460W        W98528  42.409  18.578   3.186
31461W        W98529  37.076  41.902  10.482
31462W        W98530   5.816  11.317   2.276
31463W        W98531  21.149  33.383   3.800
31464W        W98532  11.728  20.524  10.968
31465W        W98533  14.690  34.459  12.504
31466W        W98534  42.481  20.038   2.695
31467W        W98535  22.179  15.218   0.744
31468W        W98536  18.183  22.646   1.401
31469W        W98537  34.503  44.952  12.937
31470W        W98538   6.680  39.869   2.192
31471W        W98539   4.916  39.543  13.798
31472W        W98540  11.349   2.773   1.923
31473W        W98541  17.140  15.295   0.917
31474W        W98542  16.089   9.193  10.075
31475W        W98543  13.139   3.298   2.355
31476W        W98544  10.806   1.843   0.311
31477W        W98545  37.861  12.646  12.404
31478W        W98546   3.264   3.453  10.473
31479W        W98547  14.664  42.938  13.428
31480W        W98548  13.348  26.992   0.963
31481W        W98549  20.594  14.709  14.934
31482W        W98550  22.508  27.527   4.177
31483W        W98551   0.459  14.161  11.475
31484W        W98552  18.584  25.480  10.467
31485W        W98553  38.372  15.661   4.241
31486W        W98554  38.960  28.082  11.575
31487W        W98555  42.370  26.184  11.896
31488W        W98556  25.003  28.993   1.785
31489W        W98557  13.665  25.599   0.383
31490W        W98558  32.133  39.904   4.223
31491W        W98559  35.858  42.389   3.734
31492W        W98560  23.594   8.830  13.872
31493W        W98561  24.499   1.769   4.806
31494W        W98562  31.008   4.401   4.304
31495W        W98563  28.981  41.349  10.927
31496W        W98564  39.402   8.884   2.411
31497W        W98565  44.771   0.313   2.860
31498W        W98566   1.361  20.181   1.329
31499W        W98567   3.748  13.255   4.146
31500W        W98568  32.950  14.335   4.680
31501W        W98569  41.373  21.195   4.753
31502W        W98570  38.968  44.492  10.989
31503W        W98571  10.243  32.525   2.203
31504W        W98572  34.558  21.146  10.500
31505W        W98573  35.037   1.253   3.295
31506W        W98574  17.078  12.681  12.540
31507W        W98575  34.594  28.649  13.507
31508W        W98576  15.194  25.627   0.261
31509W        W98577  32.897  21.092   2.348
31510W        W98578  38.529  17.619   0.285
31511W        W98579   3.399  13.613   4.661
31512W        W98580  23.216  35.597  13.498
31513W        W98581   7.256  16.089  12.995
31514W        W98582  17.097  20.603  12.078
31515W        W98583   3.260  38.994  14.477
31516W        W98584  29.445  18.664   3.192
31517W        W98585  34.408  17.635   2.724
31518W        W98586  19.118  41.386  12.490
31519W        W98587  19.212  17.633   2.794
31520W        W98588  27.196  35.603  14.020
31521W        W98589  35.521  42.959  14.470
31522W        W98590   9.287  44.940   2.212
31523W        W98591  24.571  37.472  10.571
31524W        W98592  39.439   4.898   2.256
31525W        W98593   8.701  43.367   1.353
31526W        W98594  11.279   9.276   3.703
31527W        W98595  21.583   9.883  14.379
31528W        W98596   9.767  12.118  10.499
31529W        W98597  13.739   6.393  11.966
31530W        W98598   1.404   7.241  11.087
31531W        W98599  42.951  43.780   2.824
31532W        W98600  25.506  35.363  13.923
31533W        W98601  43.288  14.724   4.313
31534W        W98602  39.534  19.172  13.438
31535W        W98603  11.785   3.418  10.080
31536W        W98604  15.116   4.839   2.777
31537W        W98605  42.900  19.654   3.696
31538W        W98606  43.497  34.385  10.590
31539W        W98607  28.169   3.752   0.729
31540W        W98608  42.971  37.533  11.454
31541W        W98609  27.660  27.144   0.484
31542W        W98610   5.874  32.637  13.876
31543W        W98611  29.626  19.706   1.405
31544W        W98612  15.740   3.237   1.808
31545W        W98613   8.882   0.390   0.895
31546W        W98614  35.928  21.158  12.569
31547W        W98615  15.607   7.386   9.560
31548W        W98616  33.545   0.485  13.499
31549W        W98617  15.232  25.698  10.422
31550W        W98618  35.040  44.978   3.637
31551W        W98619  23.673  41.403  11.027
31552W        W98620  18.739  19.538   0.949
31553W        W98621  35.553  39.983   0.323
31554W        W98622   0.324  27.643   0.470
31555W        W98623   6.897  42.431   3.266
31556W        W98624  15.659   7.316   5.798
31557W        W98625  17.131  25.127  14.374
31558W        W98626  34.536   7.847   3.637
31559W        W98627  37.352  21.029   2.888
31560W        W98628  43.885  19.552   3.185
31561W        W98629  37.034   0.358   3.666
31562W        W98630  18.777   6.274  10.903
31563W        W98631  13.725   5.698  12.343
31564W        W98632  33.122  14.686   0.742
31565W        W98633  19.543   9.788  13.848
31566W        W98634  29.995  19.042  12.904
31567W        W98635  22.066   7.870  12.487
31568W        W98636   2.333   4.736   3.823
31569W        W98637  14.735   7.698  14.922
31570W        W98638  19.145   8.834  13.818
31571W        W98639  29.978   1.412  13.464
31572W        W98640   5.793  19.652  12.908
31573W        W98641  29.962  16.712   0.452
31574W        W98642  33.976  32.623  14.352
31575W        W98643  32.449  27.075   3.302
31576W        W98644  25.626  28.155  11.005
31577W        W98645   7.211  35.431   3.815
31578W        W98646  15.772  18.062  11.483
31579W        W98647  28.518  17.258  13.060
31580W        W98648  33.538  13.343   3.196
31581W        W98649  11.699  18.784   9.947
31582W        W98650   0.423  42.967   1.346
31583W        W98651  44.849  36.057  14.953
31584W        W98652   8.395  43.515   3.255
31585W        W98653  28.169  21.119   0.346
31586W        W98654  24.534   2.756   3.745
31587W        W98655   6.700  28.127  10.460
31588W        W98656  33.958  11.661   2.379
31589W        W98657  24.508   2.867   0.922
31590W        W98658   3.729  27.685  12.033
31591W        W98659  27.585  39.483  13.518
31592W        W98660  29.549  20.227  13.947
31593W        W98661  12.836  44.974  13.792
31594W        W98662  35.592   1.256  14.999
31595W        W98663  20.127   4.438   1.755
31596W        W98664  42.790   8.368   2.845
31597W        W98665  28.643   6.718  11.426
31598W        W98666  18.215  33.529   3.360
31599W        W98667  15.659  28.172   3.262
31600W        W98668   7.820   4.303  10.982
31601W        W98669   2.740  11.664  13.801
31602W        W98670  22.021   3.855   0.456
31603W        W98671   5.208  38.509  14.497
31604W        W98672  40.538   6.295  10.445
31605W        W98673   6.683   9.168   3.232
31606W        W98674   5.397  27.655   3.242
31607W        W98675  36.064  40.309   3.175
31608W        W98676  39.925  24.112  13.452
31609W        W98677  15.663  19.573  13.408
31610W        W98678  20.657  21.121  14.898
31611W        W98679  18.729  18.695  14.967
31612W        W98680   5.407  30.656   1.706
31613W        W98681   6.312  28.663  13.812
31614W        W98682  39.825  18.255   0.432
31615W        W98683  35.444  34.529   2.262
31616W        W98684   1.760   6.299   2.254
31617W        W98685   1.332  25.664   4.239
31618W        W98686  39.981   6.232  14.316
31619W        W98687   4.446  44.328  14.838
31620W        W98688  35.395  34.075   4.226
31621W        W98689  35.099  15.300  14.946
31622W        W98690   6.318  22.537   0.312
31623W        W98691  19.179  22.246  13.857
31624W        W98692   4.853  43.923   2.842
31625W        W98693   8.760   7.777  14.977
31626W        W98694  39.547  28.441  12.005
31627W        W98695  32.029  24.148  13.519
31628W        W98696  25.058   6.369   4.601
31629W        W98697  24.109  27.564   4.675
31630W        W98698  21.724  33.609  10.015
31631W        W98699   8.297  18.572   2.243
31632W        W98700  33.571  37.464   1.870
31633W        W98701  37.336  36.399   2.371
31634W        W98702  35.580  16.235  13.924
31635W        W98703  16.617  41.919  12.032
31636W        W98704   1.818   8.234  12.545
31637W        W98705  17.721  17.759  10.552
31638W        W98706  43.775  15.207  14.015
31639W        W98707   2.796  34.492   4.198
31640W        W98708   1.904  13.728   4.220
31641W        W98709  18.124  39.977   3.350
31642W        W98710  40.394   7.912   4.835
31643W        W98711  24.624  15.800  12.564
31644W        W98712  42.884  12.849  12.545
31645W        W98713  44.814  22.521   0.432
31646W        W98714  37.959  17.240   0.792
31647W        W98715  24.714   4.910   3.791
31648W        W98716  43.449  20.126   0.757
31649W        W98717   1.765  32.570  11.963
31650W        W98718  27.043  35.559   4.705
31651W        W98719  31.503  26.978  10.918
31652W        W98720   7.310  11.679   3.691
31653W        W98721  29.989  10.728  13.460
31654W        W98722  22.665  22.724  11.884
31655W        W98723  44.417  39.428   2.827
31656W        W98724  19.662  18.579  14.003
31657W        W98725  44.917  23.661  11.892
31658W        W98726  25.495  39.915  10.516
31659W        W98727  43.326  27.535   4.706
31660W        W98728  20.079  27.561  10.073
31661W        W98729  31.646   0.775  10.896
31662W        W98730   4.300   7.271   0.434
31663W        W98731  42.780  18.661   4.118
31664W        W98732  37.859  33.070   4.605
31665W        W98733  25.634  33.956   4.693
31666W        W98734  12.237  25.484  10.511
31667W        W98735  27.957  31.595  11.062
31668W        W98736  40.977  10.219  12.837
31669W        W98737   5.280  43.990  13.987
31670W        W98738  36.426   5.262  12.017
31671W        W98739  25.054  14.733   4.642
31672W        W98740  11.330   7.198  14.842
31673W        W98741   3.840  23.216   1.865
31674W        W98742   4.842  37.394   1.279
31675W        W98743  22.595  36.438  11.563
31676W        W98744  26.009  30.659  13.419
31677W        W98745  11.638   7.201   3.297
31678W        W98746  22.616  27.618   2.234
31679W        W98747  19.245  31.122   4.807
31680W        W98748  21.118  41.491   1.901
31681W        W98749  37.540  11.835   0.302
31682W        W98750  25.475   0.416  11.390
31683W        W98751  42.010   0.911   5.210
31684W        W98752  42.449  41.905  13.485
31685W        W98753  23.662  13.842   0.391
31686W        W98754  34.551  17.219   2.272
31687W        W98755  14.104  27.099   2.380
31688W        W98756  10.847  30.060  11.036
31689W        W98757  41.311  33.958   0.289
31690W        W98758  11.647  35.447   3.642
31691W        W98759  27.191  38.982  13.506
31692W        W98760  42.995  32.410   0.958
31693W        W98761  38.022  27.001   0.939
31694W        W98762  38.510  36.860  11.922
31695W        W98763  15.238   5.222   0.450
31696W        W98764  28.453  25.133   3.149
31697W        W98765  30.464  13.728  13.021
31698W        W98766  40.986  30.995   3.668
31699W        W98767  34.507  28.607  10.418
31700W        W98768   2.828  14.598  11.392
31701W        W98769  11.149  29.481  10.609
31702W        W98770  33.018   6.892   2.246
31703W        W98771  42.012  41.294  10.906
31704W        W98772  21.730  32.600  12.428
31705W        W98773  34.509  34.909   2.410
31706W        W98774   8.292   0.833   0.425
31707W        W98775  25.677  13.820   4.819
31708W        W98776   2.412  15.786   3.851
31709W        W98777  39.461  35.928   3.835
31710W        W98778  10.848   8.797  11.375
31711W        W98779  43.981   5.357  14.374
31712W        W98780  29.478  37.443  13.394
31713W        W98781  13.771  42.433  11.986
31714W        W98782   3.238   1.459  13.816
31715W        W98783  17.743  41.318   4.652
31716W        W98784   1.289  21.556   4.300
31717W        W98785  34.946   8.696   1.336
31718W        W98786   4.334  29.664  10.633
31719W        W98787  13.837  44.773   0.779
31720W        W98788  33.974   1.963  12.377
31721W        W98789   0.440  26.484  13.014
31722W        W98790  38.949  39.479   3.259
31723W        W98791  26.691   4.922   1.798
31724W        W98792  10.345   7.265   1.900
31725W        W98793  36.068  29.557   3.309
31726W        W98794  39.502  18.119  14.461
31727W        W98795  15.147  12.171  10.635
31728W        W98796  27.489   4.858  11.515
31729W        W98797  21.170  23.095  14.419
31730W        W98798  17.109  19.648   3.329
31731W        W98799   2.468  34.907  12.869
31732W        W98800   1.959   6.682  10.494
31733W        W98801  17.749   6.191   3.662
31734W        W98802  14.203  21.627   5.110
31735W        W98803  43.945  15.583  12.907
31736W        W98804  23.551  40.457   1.445
31737W        W98805  33.474  23.568  10.624
31738W        W98806  37.466   4.828  12.498
31739W        W98807  31.969  28.644  10.468
31740W        W98808  36.011  24.102   2.779
31741W        W98809  37.522   6.679   1.228
31742W        W98810   4.883  20.765  11.043
31743W        W98811  14.759  21.729  12.079
31744W        W98812  14.749  25.017   1.748
31745W        W98813  35.907  19.632  12.005
31746W        W98814  13.110  15.602   3.721
31747W        W98815  30.919  22.654   4.144
31748W        W98816  10.349   9.682   3.654
31749W        W98817  26.485  27.646  11.400
31750W        W98818  26.022   3.258   3.158
31751W        W98819  23.680  27.135   2.831
31752W        W98820  16.237  24.203   1.796
31753W        W98821   4.746  41.958  11.095
31754W        W98822   1.862  10.137  13.328
31755W        W98823  30.970  14.692  10.973
31756W        W98824  33.957   5.439   3.792
31757W        W98825  27.167  26.480  12.578
31758W        W98826   6.812  36.054   0.351
31759W        W98827  29.632  13.779  11.586
31760W        W98828  43.938  22.125  13.481
31761W        W98829  18.590  33.067  11.017
31762W        W98830   8.776   3.226  11.082
31763W        W98831  12.249  19.616   3.691
31764W        W98832  39.938  14.225   1.932
31765W        W98833   3.735  31.506  11.921
31766W        W98834  24.534   4.797  13.384
31767W        W98835  19.125  41.475  13.881
31768W        W98836  15.641   1.811   3.750
31769W        W98837   5.776  19.726  13.349
31770W        W98838  33.463   6.759  13.365
31771W        W98839  29.631  35.901   0.362
31772W        W98840  26.197   3.319  12.985
31773W        W98841  35.443  34.539  11.950
31774W        W98842   9.658  26.133  13.434
31775W        W98843  41.367   4.233   3.246
31776W        W98844  18.167  39.828   0.422
31777W        W98845   4.917   4.210  12.488
31778W        W98846  26.118  39.314   4.753
31779W        W98847  42.012  29.926   1.867
31780W        W98848  35.103  41.039   4.827
31781W        W98849  14.133  17.159   2.785
31782W        W98850   8.735  13.611   1.700
31783W        W98851  13.844  12.221   4.609
31784W        W98852   2.810  11.784  12.949
31785W        W98853   9.261  20.629  14.394
31786W        W98854  43.922  19.203   3.205
31787W        W98855   8.676  34.089  11.892
31788W        W98856  31.030  21.744   2.792
31789W        W98857   6.210  30.575   1.231
31790W        W98858  15.219  22.553  10.613
31791W        W98859   7.869  44.379   1.413
31792W        W98860  22.656  37.957  14.461
31793W        W98861  13.311  11.636   0.867
31794W        W98862  16.763  44.492   2.709
31795W        W98863  18.146  32.041  13.433
31796W        W98864  12.776  18.737   1.314
31797W        W98865  19.570  16.762   3.198
31798W        W98866  28.960  17.696  10.940
31799W        W98867  39.414   2.274   1.808
31800W        W98868  12.320  20.666  13.451
31801W        W98869  24.708  18.633  14.369
31802W        W98870   7.753  42.412   2.320
31803W        W98871   3.763  29.925  10.453
31804W        W98872  10.718  43.835  11.961
31805W        W98873   1.802  44.789  10.534
31806W        W98874  18.772   9.267   2.324
31807W        W98875  39.830  29.019   0.460
31808W        W98876  36.077   5.429   3.843
31809W        W98877  34.875   9.822   3.750
31810W        W98878  34.870  41.437  14.449
31811W        W98879  27.010   5.703  13.857
31812W        W98880  16.736  28.095  14.480
31813W        W98881  23.232  44.917   1.325
31814W        W98882  39.330  15.619   1.404
31815W        W98883   0.276  11.142  13.441
31816W        W98884   4.345  32.012   3.727
31817W        W98885  28.061  33.881   2.387
31818W        W98886  35.082  41.813   4.222
31819W        W98887  27.489  42.985   2.269
31820W        W98888  31.149  27.005   1.833
31821W        W98889  13.132  23.504  12.898
31822W        W98890  17.744   1.427   2.284
31823W        W98891  17.266  30.616   0.754
31824W        W98892  28.448  14.255  11.379
31825W        W98893  30.652  31.993  13.439
31826W        W98894  40.961   3.765  12.027
31827W        W98895  34.870  23.711  14.454
31828W        W98896  31.944  27.001   9.448
31829W        W98897   9.764  20.217  11.435
31830W        W98898   8.371  34.504   4.294
31831W        W98899  33.896  18.571   3.170
31832W        W98900  14.776  23.234  10.904
31833W        W98901  17.130  20.659  12.528
31834W        W98902  15.114   5.367  14.440
31835W        W98903  20.095   5.265   3.269
31836W        W98904  12.628  19.135   2.757
31837W        W98905  22.700   1.286  11.031
31838W        W98906  41.901   5.278  14.378
31839W        W98907  36.352  36.583   1.718
31840W        W98908  39.815  38.884  14.391
31841W        W98909  28.561  31.135  13.930
31842W        W98910   8.212  39.500  10.443
31843W        W98911  39.353   1.479   1.424
31844W        W98912   3.895  23.640  13.404
31845W        W98913  10.864  37.020   2.839
31846W        W98914  43.810  18.555   3.163
31847W        W98915  21.589  15.680  12.947
31848W        W98916  30.457  31.917   3.301
31849W        W98917  42.943  33.037  10.424
31850W        W98918  16.180  18.640  10.054
31851W        W98919  20.542  39.418  11.476
31852W        W98920  30.076  35.473  10.440
31853W        W98921  33.998  39.374   1.906
31854W        W98922  24.688  31.106  12.040
31855W        W98923  10.753   8.244  10.984
31856W        W98924  12.215  33.917  14.436
31857W        W98925  14.712  40.812  11.608
31858W        W98926  37.456  19.537  10.966
31859W        W98927  38.854  19.764  12.853
31860W        W98928  18.153  44.463  10.627
31861W        W98929  36.547  32.407  13.463
31862W        W98930  18.579  29.994   2.365
31863W        W98931   4.300   4.894   0.842
31864W        W98932  41.035  33.108  12.355
31865W        W98933  14.253  35.963   0.258
31866W        W98934  20.649   9.767  12.022
31867W        W98935  25.524  12.212   1.239
31868W        W98936   3.931  30.118  13.502
31869W        W98937   0.829  11.709  10.119
31870W        W98938  26.105  33.992   3.320
31871W        W98939  38.497   2.247   3.757
31872W        W98940  29.470  14.808   0.941
31873W        W98941  38.541  26.679   2.871
31874W        W98942  14.208  10.645   4.774
31875W        W98943  31.914   0.454   0.790
31876W        W98944  29.441  43.941   4.721
31877W        W98945   6.392  17.736   4.310
31878W        W98946  16.273  36.972   1.339
31879W        W98947  43.395  14.314  14.885
31880W        W98948  34.955  20.563   2.793
31881W        W98949  17.651  35.524  11.872
31882W        W98950  25.685  25.184  14.419
31883W        W98951  31.948  43.290   3.180
31884W        W98952  44.764  31.641   4.624
31885W        W98953  27.051   9.170  13.505
31886W        W98954  23.507  30.997  11.982
31887W        W98955  39.034  10.368  12.933
31888W        W98956  18.134  16.690   3.743
31889W        W98957   2.463  19.257   4.333
31890W        W98958  32.102  43.474   1.803
31891W        W98959  18.549   3.421   1.348
31892W        W98960   3.308   9.727   0.822
31893W        W98961   1.879  28.052   3.341
31894W        W98962  36.390  42.909   3.771
31895W        W98963  12.839  43.860  12.826
31896W        W98964  35.026  37.409  10.972
31897W        W98965  27.154  44.393   0.863
31898W        W98966  28.135  41.993   1.911
31899W        W98967  39.904  11.818   1.788
31900W        W98968  14.626  23.684  11.927
31901W        W98969  19.667  15.265   4.798
31902W        W98970  30.098  23.168   0.472
31903W        W98971  21.119  30.583  12.919
31904W        W98972   3.835  37.546   3.662
31905W        W98973  27.501  35.046   2.311
31906W        W98974  19.639  42.991   3.832
31907W        W98975  16.569  37.361  10.444
31908W        W98976  42.448   8.696   3.690
31909W        W98977  16.190  43.994  13.436
31910W        W98978   9.717   4.814  14.782
31911W        W98979  31.495  41.983  13.908
31912W        W98980  25.017  25.695  14.478
31913W        W98981  25.660   1.916  11.423
31914W        W98982  25.592  36.502   0.397
31915W        W98983  13.714  39.931   0.916
31916W        W98984  30.565  32.926  12.498
31917W        W98985   5.431   7.906   3.774
31918W        W98986  34.958  11.156   0.465
31919W        W98987  42.957  38.485  11.957
31920W        W98988   3.925  42.483   3.749
31921W        W98989   9.217  30.929  13.355
31922W        W98990  35.940  33.959  12.945
31923W        W98991  31.585  33.093  11.899
31924W        W98992  34.528  23.112   4.202
31925W        W98993  29.608   8.344  12.906
31926W        W98994  39.531  18.782  12.497
31927W        W98995  27.102  44.449   1.775
31928W        W98996  12.180  35.528   3.196
31929W        W98997  21.019  26.099  14.509
31930W        W98998   2.289  24.093  12.530
31931W        W98999  13.292  26.100   2.281
31932W        W99000  37.906  39.819   1.411
31933W        W99001  37.494   0.840  14.400
31934W        W99002  21.119   0.809   2.311
31935W        W99003  24.672   9.385  13.347
31936W        W99004   4.263  44.829   0.926
31937W        W99005  35.985  31.154   3.822
31938W        W99006  28.094  38.340   4.609
31939W        W99007  18.662  39.500  13.402
31940W        W99008   7.233  15.790  10.418
31941W        W99009   4.268   4.720  14.322
31942W        W99010   2.745  33.451  11.582
31943W        W99011  40.014  22.654   0.912
31944W        W99012  11.638  18.197  13.830
31945W        W99013  43.818  18.170   0.253
31946W        W99014  17.626  21.655  14.765
31947W        W99015  19.250  26.078   2.351
31948W        W99016  15.329  33.983   4.796
31949W        W99017  41.409  32.032   1.878
31950W        W99018  25.558  33.026  11.550
31951W        W99019  35.390  15.281  13.859
31952W        W99020   6.903   1.470   1.282
31953W        W99021  44.912  14.251  14.360
31954W        W99022  23.661   8.379   1.295
31955W        W99023  18.561  40.858  11.084
31956W        W99024   0.296  16.218   1.749
31957W        W99025  44.434  27.961  13.537
31958W        W99026  30.942  28.632   0.909
31959W        W99027  31.082   7.327   1.917
31960W        W99028  12.254  29.055   0.309
31961W        W99029  33.429  39.821  12.079
31962W        W99030  40.547  31.622  12.072
31963W        W99031  35.922  42.895  13.041
31964W        W99032  41.851  42.284   3.180
31965W        W99033  43.342   0.409   3.730
31966W        W99034  35.358  29.540  13.978
31967W        W99035  36.519  44.964   0.953
31968W        W99036   4.384  19.073  10.413
31969W        W99037   7.885  30.426  12.380
31970W        W99038  18.556  36.486   2.673
31971W        W99039   0.976  26.548   5.277
31972W        W99040  13.149  40.839  14.896
31973W        W99041  38.873  40.540   4.289
31974W        W99042  25.677  10.297   1.822
31975W        W99043  22.717  20.030  13.915
31976W        W99044   8.883  39.971  13.843
31977W        W99045  13.309  27.615   3.685
31978W        W99046   1.898  42.378  13.323
31979W        W99047  35.949  13.732   2.706
31980W        W99048  44.929  27.973   3.373
31981W        W99049  36.365  20.105   3.637
31982W        W99050  24.130  41.847   4.326
31983W        W99051  24.202   6.348   2.706
31984W        W99052  11.254  25.512   2.415
31985W        W99053   9.246  14.758   4.689
31986W        W99054  16.617   5.721  12.979
31987W        W99055   1.320   9.336   2.881
31988W        W99056  30.029  37.378   1.443
31989W        W99057  43.882  43.313  13.447
31990W        W99058   8.763  18.294  10.498
31991W        W99059  17.208   0.901   0.858
31992W        W99060  44.839   4.919  10.592
31993W        W99061   7.183  31.118  12.488
31994W        W99062  29.141  10.289   0.432
31995W        W99063  31.956  44.459  14.486
31996W        W99064  14.314  10.138   4.628
31997W        W99065  25.206  33.944   3.375
31998W        W99066  44.842   8.684  12.847
31999W        W99067  35.536  30.493   0.368
32000W        W99068   3.366  39.518   4.264
32001W        W99069   5.805  37.927  13.045
32002W        W99070  40.992  16.710  10.964
32003W        W99071  15.683  39.980   3.146
32004W        W99072  12.621  35.581   3.286
32005W        W99073  31.086  39.970   0.404
32006W        W99074   2.860   6.809   4.731
32007W        W99075  27.486  22.995  12.353
32008W        W99076  36.881   5.271   3.190
32009W        W99077  38.499  27.518   4.128
32010W        W99078  15.279   3.434   0.375
32011W        W99079  18.075  24.591  11.862
32012W        W99080  10.152  23.088  13.443
32013W        W99081   9.863  37.339  11.077
32014W        W99082  24.556   8.390   2.194
32015W        W99083  39.990  13.635  13.985
32016W        W99084  13.141  25.585   0.268
32017W        W99085   4.333  26.647   4.176
32018W        W99086  42.030  23.180   2.853
32019W        W99087  35.067  30.971   2.663
32020W        W99088  34.108  23.613  14.462
32021W        W99089  35.470  15.620  11.956
32022W        W99090  23.008  31.923   4.705
32023W        W99091   8.386  21.615   0.750
32024W        W99092  30.540  34.980  11.470
32025W        W99093  20.236  22.121   2.875
32026W        W99094  34.402   8.179   1.756
32027W        W99095   2.253  20.271  12.453
32028W        W99096  33.973  14.713  12.093
32029W        W99097  30.634   4.698  14.983
32030W        W99098  28.035  24.595  10.151
32031W        W99099  22.741  28.504   0.271
32032W        W99100  37.865  30.581   0.849
32033W        W99101  19.681  13.700   0.254
32034W        W99102  20.032   9.292   1.862
32035W        W99103   6.319   6.871   4.304
32036W        W99104   3.249  19.047   0.310
32037W        W99105  17.566   0.363   3.660
32038W        W99106   6.794  16.256  11.936
32039W        W99107   8.897  34.037   1.238
32040W        W99108   9.212  43.881   2.181
32041W        W99109  28.943  31.096  12.953
32042W        W99110   4.726  42.339   1.770
32043W        W99111  19.721   8.683   4.355
32044W        W99112  13.728  16.638  12.047
32045W        W99113  15.101   4.721  11.080
32046W        W99114  44.936  27.955   9.948
32047W        W99115   6.380  32.936  13.936
32048W        W99116  11.180  26.989   4.730
32049W        W99117  29.439  12.711   5.274
32050W        W99118  34.450  26.462  14.877
32051W        W99119  10.787  31.958   3.250
32052W        W99120  31.972  20.707   1.430
32053W        W99121  37.945  25.535   0.775
32054W        W99122  37.901  38.442   3.813
32055W        W99123  31.075  24.135   4.132
32056W        W99124   4.421  16.230  14.413
32057W        W99125  37.485  35.955   0.935
32058W        W99126   8.777  39.441   4.344
32059W        W99127   1.335  20.238  10.544
32060W        W99128  32.478  17.632   4.332
32061W        W99129  33.001   0.423   0.335
32062W        W99130  21.145  17.168  10.919
32063W        W99131  36.895  26.203  13.517
32064W        W99132   7.243  34.457   1.239
32065W        W99133  11.152   2.833   4.834
32066W        W99134   7.863  22.646   0.435
32067W        W99135  11.301   5.833   1.234
32068W        W99136  21.623   2.797  10.521
32069W        W99137  30.057  41.844  12.381
32070W        W99138  20.532  42.889   1.755
32071W        W99139  22.541   7.848  13.968
32072W        W99140   1.953  41.930   3.842
32073W        W99141  43.801  10.140   0.438
32074W        W99142  32.979  22.680  11.484
32075W        W99143   9.155  35.873   1.819
32076W        W99144   7.313  41.956  12.360
32077W        W99145   7.890   9.657   1.924
32078W        W99146  26.035   0.318   4.120
32079W        W99147   8.828  27.475   1.240
32080W        W99148  10.293  42.389  13.813
32081W        W99149  20.620  42.513   4.598
32082W        W99150   5.193  17.215  14.324
32083W        W99151   1.473   6.768   3.172
32084W        W99152  34.439   4.330   1.888
32085W        W99153  36.032  11.282   0.853
32086W        W99154  10.856   8.358   0.369
32087W        W99155  32.617  16.177  10.908
32088W        W99156  32.888   7.688  11.604
32089W        W99157  29.138  29.034   1.277
32090W        W99158  16.159   6.867   5.622
32091W        W99159  33.539  23.499  14.461
32092W        W99160  26.512  42.429   1.825
32093W        W99161  23.527   2.442  13.922
32094W        W99162  26.132   6.834   3.839
32095W        W99163  43.405   0.392  12.036
32096W        W99164  37.036   7.686   1.348
32097W        W99165  10.774  37.441  11.070
32098W        W99166  24.162   0.916  10.099
32099W        W99167  32.006   1.800  13.889
32100W        W99168  11.831   3.390  14.932
32101W        W99169   4.698   1.826  10.987
32102W        W99170  25.205   3.359  12.012
32103W        W99171  12.256  29.158  14.387
32104W        W99172  17.602  37.038   4.247
32105W        W99173  36.986   1.790  10.502
32106W        W99174  13.751  23.988   1.934
32107W        W99175  19.589   7.830   3.271
32108W        W99176   2.275  36.375  12.415
32109W        W99177  36.000  43.487  12.091
32110W        W99178   6.252  25.219  14.474
32111W        W99179  32.016  37.509  14.487
32112W        W99180  44.908  16.204  14.515
32113W        W99181   8.379  12.719   1.233
32114W        W99182   7.893  34.394  10.456
32115W        W99183  43.870  18.572   3.687
32116W        W99184  42.500   8.347   3.775
32117W        W99185  41.982  35.974  13.350
32118W        W99186  15.147  34.865   3.213
32119W        W99187  32.014  12.235  13.925
32120W        W99188  43.775  25.048  11.602
32121W        W99189  27.993  15.242   4.303
32122W        W99190  36.982  43.379  14.297
32123W        W99191  16.094  40.924  12.470
32124W        W99192  35.593  40.388  14.823
32125W        W99193  44.355  36.564  10.034
32126W        W99194   7.765  31.056   2.393
32127W        W99195  31.521   7.762   1.857
32128W        W99196  27.564   6.415  13.952
32129W        W99197  41.832  33.121   0.256
32130W        W99198  40.920  19.101  11.870
32131W        W99199  30.561  25.137   0.728
32132W        W99200  28.143  24.658  14.487
32133W        W99201  27.171  23.093  11.998
32134W        W99202  34.574   5.710   4.613
32135W        W99203  41.296   3.386  14.433
32136W        W99204  24.600  21.076  13.545
32137W        W99205  42.841  23.005  12.439
32138W        W99206  21.064  38.388  13.321
32139W        W99207   2.832  23.645   0.774
32140W        W99208  22.146  14.792  10.549
32141W        W99209  12.634  37.418  10.487
32142W        W99210   6.397  16.574   1.793
32143W        W99211  12.775  32.924  14.776
32144W        W99212  32.397  23.094  14.858
32145W        W99213  39.928  21.248   4.327
32146W        W99214   8.211  34.495   3.264
32147W        W99215  21.113  39.423  14.290
32148W        W99216   2.721   5.757  10.969
32149W        W99217  27.172  38.509   3.843
32150W        W99218   5.248  20.703  14.005
32151W        W99219  38.395  35.423   2.783
32152W        W99220   2.323  27.545   0.855
32153W        W99221   8.252  39.059   4.603
32154W        W99222  37.546  15.107   1.744
32155W        W99223  16.116   4.865  13.418
32156W        W99224   3.791  42.304  13.379
32157W        W99225  33.072  24.578  11.975
32158W        W99226  38.387  29.488   0.851
32159W        W99227  15.720  30.642   5.292
32160W        W99228  36.469  44.308   2.859
32161W        W99229  31.545  27.008   9.969
32162W        W99230   0.828  32.576  11.475
32163W        W99231   3.891  35.073   2.345
32164W        W99232  38.487   3.882   2.394
32165W        W99233  38.378  29.658  12.029
32166W        W99234  20.637   5.250   3.680
32167W        W99235   8.674  39.529  12.837
32168W        W99236  10.822  31.896   3.825
32169W        W99237  13.629  21.209  13.019
32170W        W99238  40.342  30.600   4.798
32171W        W99239  34.395  22.519  10.409
32172W        W99240  16.199   3.232  12.002
32173W        W99241  21.690   2.308   4.276
32174W        W99242  20.198  16.106  11.899
32175W        W99243  17.231  36.542  14.988
32176W        W99244   3.215  10.650  12.015
32177W        W99245  31.468  38.449  11.390
32178W        W99246  41.040   3.833  10.568
32179W        W99247  39.408  19.064  11.511
32180W        W99248   2.362   6.184  13.518
32181W        W99249   0.756  40.309  10.473
32182W        W99250  22.220  10.224   0.759
32183W        W99251  28.523  33.420   0.747
32184W        W99252  42.930  24.655   0.328
32185W        W99253  38.851  38.881   2.840
32186W        W99254   6.816  36.877   0.820
32187W        W99255  19.226  30.932  13.968
32188W        W99256   4.872  17.120   1.765
32189W        W99257   7.232  15.260  13.345
32190W        W99258  10.320  19.236  13.922
32191W        W99259  18.158  29.940  13.514
32192W        W99260   9.211   7.182   3.291
32193W        W99261   1.852  18.258   1.801
32194W        W99262   3.283  22.562  14.776
32195W        W99263  15.208   0.812   4.342
32196W        W99264  14.722  35.102   4.212
32197W        W99265  22.221  11.740  12.395
32198W        W99266  15.579  12.714   1.404
32199W        W99267  15.605  29.922  10.509
32200W        W99268  32.488  18.220  12.068
32201W        W99269  35.879  24.699   3.189
32202W        W99270  20.549  35.880   4.329
32203W        W99271  36.381  34.086   2.893
32204W        W99272   4.335  21.557  13.900
32205W        W99273  44.324  44.002  12.011
32206W        W99274  38.858  41.344  11.078
32207W        W99275  25.967  39.416   0.454
32208W        W99276  23.993  12.154   3.314
32209W        W99277  19.266  11.664   1.881
32210W        W99278  37.387   8.846   4.674
32211W        W99279  37.003   7.760  12.509
32212W        W99280  32.902  13.820  12.976
32213W        W99281  10.290   9.707  13.497
32214W        W99282  27.548  14.201   2.712
32215W        W99283  11.342   1.326   5.094
32216W        W99284  13.638   7.267  12.006
32217W        W99285  33.412   2.786  14.940
32218W        W99286   4.917   4.399  11.897
32219W        W99287  23.565  30.558   1.238
32220W        W99288   8.405   3.303   3.815
32221W        W99289  15.651  28.540  10.944
32222W        W99290  12.847  23.544  12.910
32223W        W99291  23.530  38.434  14.003
32224W        W99292  36.034  17.708  10.475
32225W        W99293  30.618  37.857  11.551
32226W        W99294   2.825  17.300  13.809
32227W        W99295  16.149  25.153   1.899
32228W        W99296  41.790  18.558  12.934
32229W        W99297  29.590  33.981   0.863
32230W        W99298  43.511  42.911  11.485
32231W        W99299   4.333   4.207  11.504
32232W        W99300  33.532  33.413   2.323
32233W        W99301  11.250  10.852   4.116
32234W        W99302  35.045  19.770  10.459
32235W        W99303  38.520  16.174   3.796
32236W        W99304  15.094  31.908   3.716
32237W        W99305   8.298  27.591   4.720
32238W        W99306  34.079  13.703  12.974
32239W        W99307   7.739   2.723   4.760
32240W        W99308   7.361  30.067  12.844
32241W        W99309  44.992   5.213  12.952
32242W        W99310  18.637  38.547  10.971
32243W        W99311   1.312  14.164   2.251
32244W        W99312  18.743  27.071  13.392
32245W        W99313   1.285  33.078  14.284
32246W        W99314  17.215  24.719  11.505
32247W        W99315   4.422  13.284  12.464
32248W        W99316  36.389  24.560  14.495
32249W        W99317   2.911   8.398  13.526
32250W        W99318  10.182  22.200  11.004
32251W        W99319  42.296  30.090   4.757
32252W        W99320  23.041   2.397  10.468
32253W        W99321  15.602   4.743   2.395
32254W        W99322  19.710  29.497  13.955
32255W        W99323  31.916  22.724  10.571
32256W        W99324  44.988  21.027  13.507
32257W        W99325  44.271  14.794  10.509
32258W        W99326  10.297   7.865  11.962
32259W        W99327  17.247   7.338  11.590
32260W        W99328  41.004  43.772   3.379
32261W        W99329  10.198   6.337  14.380
32262W        W99330  20.255  33.023  14.975
32263W        W99331  11.191  39.434  10.466
32264W        W99332  22.027   1.750   4.326
32265W        W99333  32.485  28.181   3.793
32266W        W99334  43.330  37.438   2.819
32267W        W99335  21.511  40.969   3.652
32268W        W99336  24.642   7.870   3.672
32269W        W99337   1.840  30.435   4.708
32270W        W99338  37.901  25.626   1.450
32271W        W99339  32.589  11.140  12.384
32272W        W99340  28.104  18.583  12.403
32273W        W99341   9.679  13.248   3.271
32274W        W99342   2.442   6.691   4.175
32275W        W99343   0.886   1.337  10.998
32276W        W99344  35.016  28.017  10.133
32277W        W99345   6.229  12.340  13.482
32278W        W99346  37.508  39.393  12.572
32279W        W99347  36.968  29.585   2.190
32280W        W99348   1.969  39.550   4.125
32281W        W99349  26.203  34.612   2.890
32282W        W99350  14.219  13.139   1.371
32283W        W99351  38.830  32.433  11.005
32284W        W99352  36.474  16.261  10.590
32285W        W99353  12.297  21.550  12.456
32286W        W99354   6.829  24.543   1.775
32287W        W99355  20.551  22.645   2.830
32288W        W99356  31.922   3.903  14.989
32289W        W99357  33.037  44.425  14.854
32290W        W99358  33.445   8.160  11.972
32291W        W99359  36.535  20.525   0.833
32292W        W99360  42.506   4.843  13.437
32293W        W99361  43.310  12.252  14.871
32294W        W99362   1.901  16.078  13.339
32295W        W99363  40.353  18.603   3.210
32296W        W99364   4.334  31.121  11.994
32297W        W99365  38.875   3.245   0.450
32298W        W99366  22.534  32.637   4.328
32299W        W99367  25.575   2.746   4.768
32300W        W99368   9.271  35.577  13.383
32301W        W99369  29.026  28.134  14.844
32302W        W99370  38.434  33.025  14.891
32303W        W99371  42.486  42.456  13.025
32304W        W99372  27.000  42.818   2.880
32305W        W99373  22.562  16.112   0.320
32306W        W99374  26.181  21.156  13.873
32307W        W99375  13.318  31.557   3.763
32308W        W99376  38.533  12.688  14.384
32309W        W99377  24.589  39.532   2.823
32310W        W99378  29.627  37.971  13.999
32311W        W99379  40.042  31.904   0.920
32312W        W99380  18.594  21.113  14.992
32313W        W99381  26.560  23.734   2.727
32314W        W99382  34.975   0.940  12.914
32315W        W99383   6.742  40.975  11.403
32316W        W99384  17.677  10.378  14.304
32317W        W99385  36.385   2.472  12.467
32318W        W99386  19.198  29.544   3.859
32319W        W99387  30.628  19.155   3.223
32320W        W99388  44.769   9.173   0.312
32321W        W99389  30.066  15.686  10.107
32322W        W99390  11.857  19.616   0.741
32323W        W99391  21.639   4.710  10.156
32324W        W99392  20.536   7.839   4.627
32325W        W99393  16.284  39.862  12.500
32326W        W99394  11.160  22.639   0.339
32327W        W99395  25.572  21.607  12.385
32328W        W99396  18.063  26.105  10.438
32329W        W99397  43.348  15.639  12.571
32330W        W99398  24.104   5.250  12.049
32331W        W99399  18.054  10.215  11.393
32332W        W99400   8.882   0.413  13.937
32333W        W99401   6.330  33.598   2.276
32334W        W99402  26.530  18.737   3.215
32335W        W99403  42.290  14.226   0.289
32336W        W99404  20.255  27.193   0.295
32337W        W99405   1.444  10.687  11.926
32338W        W99406  32.017  28.130   4.239
32339W        W99407  13.134  11.174   0.828
32340W        W99408   4.730  26.653   5.198
32341W        W99409  13.262  24.602  11.026
32342W        W99410  35.009  15.750   2.399
32343W        W99411  37.499  36.007  14.341
32344W        W99412  32.143  27.991   1.395
32345W        W99413  12.295  18.144  12.352
32346W        W99414   4.727  29.171   0.842
32347W        W99415  33.391  24.152   2.900
32348W        W99416  44.778   5.711  12.080
32349W        W99417  11.673  24.120   4.664
32350W        W99418   4.275   1.408  10.925
32351W        W99419  31.602  39.388  12.911
32352W        W99420  32.036  22.505  14.510
32353W        W99421  13.323  17.102   2.294
32354W        W99422  21.753   7.681   3.212
32355W        W99423   5.820  27.116   3.348
32356W        W99424   4.789  12.636   4.255
32357W        W99425  25.035  23.500  11.588
32358W        W99426  34.925  30.094   0.324
32359W        W99427  23.032  36.887   1.407
32360W        W99428  10.144  27.672  10.068
32361W        W99429  23.181  32.020  11.867
32362W        W99430  23.059  32.092  10.595
32363W        W99431  38.335  33.519  12.960
32364W        W99432   0.321  33.091  12.005
32365W        W99433   4.256  33.486  11.968
32366W        W99434   4.355  39.455   3.811
32367W        W99435  13.121   0.435   5.795
32368W        W99436  30.592   7.765   1.315
32369W        W99437  22.635  14.656   3.632
32370W        W99438  35.938  11.828   3.377
32371W        W99439   2.352  33.989  13.000
32372W        W99440  34.403  12.332  12.986
32373W        W99441  31.521   0.485  13.827
32374W        W99442  17.581   4.261   2.280
32375W        W99443  33.529  17.288   2.677
32376W        W99444  17.664  41.858   4.287
32377W        W99445  24.186   7.851   0.331
32378W        W99446  19.730   6.710   0.940
32379W        W99447   0.319  41.935  12.389
32380W        W99448  22.547  25.125   0.762
32381W        W99449  16.290   0.388   0.855
32382W        W99450  23.555  20.614   0.829
32383W        W99451  27.628  39.991   1.233
32384W        W99452  44.405  28.009  12.387
32385W        W99453  42.936  26.686   2.695
32386W        W99454  22.692  25.030   2.887
32387W        W99455   1.953   6.296  11.604
32388W        W99456  21.122  29.047   0.860
32389W        W99457  40.510  33.904   4.231
32390W        W99458  26.605  20.762   2.199
32391W        W99459   6.350  16.243   2.783
32392W        W99460  12.635  12.142  11.585
32393W        W99461  24.641  18.097  13.491
32394W        W99462   9.868   8.778   1.401
32395W        W99463  28.632  33.532   1.236
32396W        W99464   0.322  28.587  10.982
32397W        W99465  38.030  17.608   2.664
32398W        W99466  29.574  17.751  12.036
32399W        W99467  22.044   9.775   0.288
32400W        W99468  20.551  21.512   1.367
32401W        W99469  27.015  39.454  11.042
32402W        W99470   4.702  42.811   4.838
32403W        W99471  24.624  32.565  13.536
32404W        W99472  11.750  39.943   2.208
32405W        W99473   2.833   4.783   0.889
32406W        W99474   6.739  38.504   0.808
32407W        W99475   9.316  34.887   3.711
32408W        W99476  37.484  33.437  14.880
32409W        W99477  21.171   1.333   0.903
32410W        W99478  29.669   6.892   2.386
32411W        W99479  23.114  16.736   4.633
32412W        W99480   0.385  13.298   3.777
32413W        W99481  21.598   4.761   4.145
32414W        W99482  42.459  23.118  14.459
32415W        W99483  30.643  22.214   2.234
32416W        W99484  15.091  27.022   0.952
32417W        W99485  10.703  34.533  13.440
32418W        W99486  40.448  26.601  13.399
32419W        W99487  29.155  20.101  12.068
32420W        W99488  44.800  32.426  14.457
32421W        W99489  40.888  25.208   1.221
32422W        W99490  29.160   6.881  11.052
32423W        W99491   3.766   8.247  14.423
32424W        W99492  21.653  10.739   4.823
32425W        W99493  33.905  35.593   4.316
32426W        W99494  33.958  28.031   2.385
32427W        W99495  20.644  25.621  13.318
32428W        W99496  19.730  43.914  11.050
32429W        W99497  23.122  24.523   3.211
32430W        W99498  25.617  34.909   2.889
32431W        W99499   4.288  29.565   3.321
32432W        W99500  34.987  26.076   9.937
32433W        W99501  19.705  17.190   5.301
32434W        W99502  19.187  16.261  13.374
32435W        W99503  30.569   1.426   3.691
32436W        W99504  19.119  28.074  11.384
32437W        W99505   1.803  19.594   1.862
32438W        W99506   1.334  24.498  14.857
32439W        W99507   9.775  10.775   2.232
32440W        W99508  44.894  19.710   0.481
32441W        W99509   0.968  36.031   4.789
32442W        W99510  37.971  27.498   0.252
32443W        W99511  15.313  17.174  10.453
32444W        W99512  31.455  42.887  14.344
32445W        W99513  32.404  14.770   4.346
32446W        W99514  27.078  21.524   0.952
32447W        W99515  33.599  34.964  11.922
32448W        W99516  33.898  41.397  12.861
32449W        W99517  41.522  26.640  12.096
32450W        W99518   1.831  36.544   1.223
32451W        W99519  29.994  41.887  10.432
32452W        W99520   3.460  20.694   1.440
32453W        W99521  26.042  31.136  10.979
32454W        W99522   7.328  10.857   4.250
32455W        W99523  43.006   2.245   2.391
32456W        W99524   1.828  20.165   1.351
32457W        W99525  16.651  19.076  12.380
32458W        W99526  21.587  43.004  12.068
32459W        W99527  28.477   3.855   2.831
32460W        W99528  44.871  24.163  12.489
32461W        W99529  22.552  35.540   3.647
32462W        W99530  33.567  39.450   5.197
32463W        W99531  30.611   9.777   2.270
32464W        W99532  10.205  14.189  13.989
32465W        W99533  14.193  22.673  11.537
32466W        W99534  26.702   1.366  14.898
32467W        W99535  11.748  21.514  10.465
32468W        W99536  22.508   3.858  14.819
32469W        W99537   3.407   5.709   0.404
32470W        W99538  39.433  12.146  11.603
32471W        W99539  34.951  26.178  12.838
32472W        W99540  23.177  30.143   2.670
32473W        W99541  10.726  13.199  13.399
32474W        W99542  36.474  22.156  14.511
32475W        W99543  38.545  44.880   2.199
32476W        W99544  38.393  19.548   0.875
32477W        W99545  15.589   0.826   5.302
32478W        W99546  19.565  27.529  11.606
32479W        W99547  27.680  19.562   5.278
32480W        W99548  17.570  28.153  13.475
32481W        W99549   6.408   0.828  13.061
32482W        W99550  24.693  30.624  12.510
32483W        W99551   7.884   0.316   0.898
32484W        W99552  22.217   1.336   3.735
32485W        W99553   0.337  34.872   3.309
32486W        W99554  38.434  40.831   1.803
32487W        W99555  23.527  36.367  10.935
32488W        W99556   7.777  35.963  14.026
32489W        W99557  24.502  17.095   1.223
32490W        W99558  27.076   9.817   0.841
32491W        W99559  32.974  19.594   0.266
32492W        W99560  18.561  27.490  12.478
32493W        W99561  38.979  34.047  11.422
32494W        W99562   5.318  27.947  10.121
32495W        W99563  29.663  35.535   3.652
32496W        W99564   3.853   1.884   3.725
32497W        W99565  25.520  15.818   1.868
32498W        W99566  44.285  36.590  11.458
32499W        W99567   1.893   9.653   2.271
32500W        W99568  37.350  36.378   2.786
32501W        W99569  16.140   9.838   2.823
32502W        W99570  42.984  22.180  14.977
32503W        W99571   6.684  19.620   1.783
32504W        W99572   7.375  24.057  11.584
32505W        W99573  30.159  22.062   4.123
32506W        W99574  23.087   5.382  13.387
32507W        W99575  44.965  12.140  14.849
32508W        W99576   8.215  15.589   1.428
32509W        W99577  44.776   8.215   1.694
32510W        W99578  29.921  14.700   2.196
32511W        W99579   9.798  12.709  10.889
32512W        W99580  11.649  44.003  13.319
32513W        W99581  30.138  24.600  14.317
32514W        W99582  21.052  12.807   5.222
32515W        W99583  34.524  10.374   3.281
32516W        W99584  18.731  41.319   2.249
32517W        W99585  41.835   1.255   3.207
32518W        W99586   3.869  32.618  13.060
32519W        W99587  14.746  40.364  12.929
32520W        W99588  11.657  25.210  14.027
32521W        W99589  29.526  38.993   1.389
32522W        W99590  30.128  19.635  12.546
32523W        W99591  30.522  27.966  11.459
32524W        W99592   1.296  34.045   1.776
32525W        W99593  22.520  23.003   0.784
32526W        W99594  38.455   4.336  11.400
32527W        W99595  11.220  32.996   0.311
32528W        W99596   6.882  24.662  12.573
32529W        W99597  18.280   9.752   4.640
32530W        W99598  25.707  35.374   3.730
32531W        W99599  34.016   4.877   2.861
32532W        W99600  19.265  43.872  12.378
32533W        W99601  36.916  32.548  11.484
32534W        W99602  43.938  43.323  11.956
32535W        W99603  41.974  42.415  12.349
32536W        W99604  33.000   6.748  11.508
32537W        W99605  26.648  33.457  11.470
32538W        W99606  21.553  12.225  12.398
32539W        W99607  38.387  37.473  11.433
32540W        W99608  12.771   1.358   4.248
32541W        W99609  40.928  31.575   4.757
32542W        W99610  39.012  27.585   4.796
32543W        W99611   5.875   0.325   2.358
32544W        W99612  25.209  32.451  12.394
32545W        W99613  19.098   6.388   4.662
32546W        W99614  18.715  13.812  13.832
32547W        W99615   9.182  30.984   0.445
32548W        W99616  24.073  13.696  12.845
32549W        W99617  41.520  41.972  13.870
32550W        W99618  25.041  28.536   2.279
32551W        W99619  20.612   8.885   3.675
32552W        W99620  12.710   3.222   3.680
32553W        W99621  17.195  17.161  13.524
32554W        W99622   6.769  44.980   1.314
32555W        W99623  34.481  37.060  13.904
32556W        W99624   9.707   4.234  14.787
32557W        W99625   2.794  32.542  14.431
32558W        W99626  31.644   5.204  11.949
32559W        W99627   5.743  35.034   0.242
32560W        W99628  19.113  16.698   3.366
32561W        W99629   6.305  26.491  10.052
32562W        W99630  23.184  13.806   1.365
32563W        W99631  17.168  34.496  14.484
32564W        W99632   2.388  22.162  14.923
32565W        W99633  11.322  10.333   3.188
32566W        W99634  11.276  16.699  11.388
32567W        W99635  29.518   8.704  14.327
32568W        W99636  43.922   7.873   3.368
32569W        W99637  27.618  19.043  11.949
32570W        W99638  32.017  40.376  11.992
32571W        W99639  35.853   1.973  11.481
32572W        W99640  20.119  10.711  11.948
32573W        W99641  11.758   0.282  12.962
32574W        W99642  33.604  44.276   0.763
32575W        W99643  35.061  10.857   4.837
32576W        W99644   5.893  25.986  14.951
32577W        W99645  35.921  41.535  12.426
32578W        W99646   1.327   2.962   2.214
32579W        W99647   1.392  16.270   2.839
32580W        W99648  13.310  23.659  14.478
32581W        W99649   0.281   7.784   3.831
32582W        W99650  34.999  32.592   3.340
32583W        W99651  37.370  12.343   1.261
32584W        W99652  16.289  44.457   4.796
32585W        W99653  41.892  19.685   1.337
32586W        W99654  21.194  23.623   3.780
32587W        W99655  38.424  21.521   4.615
32588W        W99656  11.747   4.854  14.293
32589W        W99657  37.982  38.527   1.444
32590W        W99658  28.514  28.621   4.803
32591W        W99659   9.282   8.201   3.341
32592W        W99660  34.462  23.717   0.393
32593W        W99661  12.765  12.146   2.810
32594W        W99662  21.650   3.735  13.941
32595W        W99663  18.740  15.137   3.811
32596W        W99664   9.251  33.445   0.958
32597W        W99665  44.932  41.833  11.048
32598W        W99666  21.110  17.631   4.640
32599W        W99667  34.414  29.625   3.828
32600W        W99668   4.847  27.509   0.272
32601W        W99669   3.323   7.803  14.509
32602W        W99670  14.674  18.281   2.682
32603W        W99671  10.243   5.344  12.923
32604W        W99672   4.298  10.702   0.956
32605W        W99673  24.194  17.245  14.980
32606W        W99674  23.532  10.667   0.294
32607W        W99675  28.602  31.971  10.619
32608W        W99676  31.994   7.752   4.241
32609W        W99677  15.224  18.160   2.891
32610W        W99678  22.108  18.112  12.345
32611W        W99679  43.499  11.698  13.371
32612W        W99680  42.795  22.671  12.387
32613W        W99681  22.545  31.437  11.488
32614W        W99682  27.668   4.904   4.354
32615W        W99683   0.313  30.453  11.482
32616W        W99684  18.158  32.448  14.802
32617W        W99685  27.010  38.463  11.052
32618W        W99686  23.160  34.968   2.889
32619W        W99687  32.082   1.897   1.923
32620W        W99688  14.247  31.515  11.572
32621W        W99689  26.502  19.742   2.878
32622W        W99690  33.434  23.072  12.340
32623W        W99691   7.773  16.219  14.297
32624W        W99692  26.641  14.244   0.357
32625W        W99693  16.716  12.761   1.697
32626W        W99694  44.884  15.235  11.567
32627W        W99695  23.696  21.713   1.400
32628W        W99696  11.830  26.507   5.114
32629W        W99697  17.681  37.503   0.951
32630W        W99698   9.274  32.503   0.884
32631W        W99699  25.091  40.515   0.867
32632W        W99700  29.562   3.819   1.740
32633W        W99701  22.657  31.126   1.411
32634W        W99702  23.533  26.186   3.735
32635W        W99703   2.405  28.677  13.057
32636W        W99704  21.100  22.161   4.194
32637W        W99705  33.116  26.523   1.754
32638W        W99706  29.578  35.988  13.987
32639W        W99707  22.699  13.349  13.032
32640W        W99708  14.645   0.961   1.442
32641W        W99709  13.131  38.881  12.006
32642W        W99710  40.463  13.115  10.514
32643W        W99711  10.291  21.209   2.366
32644W        W99712  31.623  25.625   4.245
32645W        W99713   3.290  26.983  10.433
32646W        W99714  29.601  40.527  13.415
32647W        W99715  23.038  12.833   0.731
32648W        W99716  18.595  12.181  11.450
32649W        W99717  43.435   1.913  13.397
32650W        W99718  14.198  20.623   1.388
32651W        W99719  19.256  10.263   2.381
32652W        W99720  15.755  22.065  14.503
32653W        W99721  37.384   4.785  11.551
32654W        W99722  39.335  42.858  14.328
32655W        W99723  13.757  21.184   1.845
32656W        W99724  32.080  43.788  12.856
32657W        W99725  38.506  28.605  13.505
32658W        W99726  17.719  34.110  10.535
32659W        W99727   3.417  17.153  14.285
32660W        W99728  38.931   4.341   4.637
32661W        W99729  35.535   6.311   0.392
32662W        W99730   8.236  25.682  14.777
32663W        W99731   0.466   5.412   2.871
32664W        W99732   2.335  38.871  13.885
32665W        W99733   9.859   6.819   3.832
32666W        W99734  26.657  10.150  11.941
32667W        W99735  41.340  22.731  14.017
32668W        W99736  16.262   4.887   4.816
32669W        W99737  34.059  38.069  13.950
32670W        W99738   9.164  43.453  13.379
32671W        W99739  27.514  19.698   4.237
32672W        W99740  38.822  13.613   3.173
32673W        W99741  39.936  43.981  10.469
32674W        W99742  13.779  26.169   0.907
32675W        W99743   3.843  12.694   3.826
32676W        W99744   5.391   7.843  13.857
32677W        W99745  42.435  14.285   1.432
32678W        W99746  29.934  13.341   3.182
32679W        W99747  37.563  10.748  12.549
32680W        W99748  38.065  20.591  10.417
32681W        W99749  10.728  19.572  11.052
32682W        W99750  31.093  39.048   0.437
32683W        W99751   1.400  15.138  10.626
32684W        W99752  32.400   4.760   3.742
32685W        W99753  25.589   3.373  13.911
32686W        W99754  41.379  31.583   3.274
32687W        W99755  36.980  31.524  10.441
32688W        W99756  42.830  41.986   4.334
32689W        W99757  16.781   2.960  12.836
32690W        W99758  33.504  27.576   1.291
32691W        W99759  14.197   1.313  13.821
32692W        W99760  40.333  42.855   5.299
32693W        W99761  10.777  35.388  13.353
32694W        W99762  22.524  21.160   0.882
32695W        W99763  27.046  18.273  12.397
32696W        W99764  15.783  42.415  13.810
32697W        W99765  11.160  38.382  14.416
32698W        W99766   8.368  27.179   2.841
32699W        W99767  42.351  40.510  13.312
32700W        W99768  10.336  13.189   5.101
32701W        W99769  30.999  14.260   3.667
32702W        W99770   6.840  15.589   0.415
32703W        W99771  19.194   6.808  13.937
32704W        W99772  21.057  26.637   1.887
32705W        W99773  28.613  44.338   3.378
32706W        W99774  17.657  44.488  10.508
32707W        W99775   3.444  38.366  14.764
32708W        W99776   7.301   5.830  13.051
32709W        W99777  44.401  24.108   4.714
32710W        W99778  42.934  30.947   4.121
32711W        W99779   5.378  24.035   4.303
32712W        W99780  27.683  13.306   2.266
32713W        W99781  18.785  43.781   4.322
32714W        W99782  37.996  14.650   3.227
32715W        W99783   9.159  12.613  10.454
32716W        W99784   0.474   4.415   3.245
32717W        W99785  25.972  23.573  14.346
32718W        W99786  39.522  21.555   2.902
32719W        W99787  29.519  11.151  13.836
32720W        W99788  42.410   9.692   1.428
32721W        W99789   3.448  20.261   1.796
32722W        W99790   5.762  41.998  11.429
32723W        W99791  23.128  28.942  11.908
32724W        W99792  19.630  29.667   3.772
32725W        W99793  37.989  21.716   3.168
32726W        W99794   1.413  23.560  10.562
32727W        W99795  29.174  33.454   4.337
32728W        W99796  14.641  33.122  12.558
32729W        W99797  40.547  42.019   0.884
32730W        W99798  43.883   2.748   4.177
32731W        W99799   3.921  33.074   1.934
32732W        W99800  15.304  42.362  11.473
32733W        W99801  27.495   5.818  13.856
32734W        W99802  29.997  38.361   1.926
32735W        W99803  20.035  27.944  13.508
32736W        W99804  33.477  20.687  11.521
32737W        W99805  28.174  24.556  12.520
32738W        W99806   4.351  35.541   2.888
32739W        W99807  31.643   5.274   3.274
32740W        W99808  20.700  27.616  11.409
32741W        W99809  20.657  21.110   2.256
32742W        W99810  27.182   8.377  14.377
32743W        W99811  20.073  41.008   0.460
32744W        W99812  18.184  10.369   2.342
32745W        W99813  21.731  43.880  10.464
32746W        W99814  20.120  33.029  11.593
32747W        W99815   0.286  30.151   2.818
32748W        W99816   4.870   8.780  13.811
32749W        W99817   1.894  31.978  14.884
32750W        W99818   1.972  11.253   2.348
32751W        W99819  32.933   0.458   1.348
32752W        W99820   4.829  19.569  13.487
32753W        W99821  23.567  18.662   2.408
32754W        W99822  37.389  26.608   2.843
32755W        W99823   2.296  37.559   4.134
32756W        W99824  19.077  28.130   1.755
32757W        W99825  17.755  27.992   5.750
32758W        W99826  31.441  39.441   4.792
32759W        W99827  16.265  30.991  11.027
32760W        W99828   7.265  32.960   0.825
32761W        W99829  41.991  42.405   4.266
32762W        W99830  24.995  36.922  10.962
32763W        W99831  24.597   0.269  14.417
32764W        W99832  11.713   6.340   1.277
32765W        W99833  16.222  37.881   2.241
32766W        W99834  39.535  33.548  10.521
32767W        W99835   9.794  38.571   2.267
32768W        W99836   1.422  42.403   3.735
32769W        W99837  27.686  33.886   2.216
32770W        W99838  17.720  44.366  11.001
32771W        W99839   9.257  32.092  11.906
32772W        W99840  31.526  11.846  10.912
32773W        W99841  36.530  39.364   2.881
32774W        W99842  24.029  34.510   1.380
32775W        W99843  33.417  21.235   2.807
32776W        W99844  40.921  43.968   0.768
32777W        W99845  21.186  42.784  14.951
32778W        W99846  21.723  36.584   1.393
32779W        W99847  11.130  24.545   4.718
32780W        W99848  15.736  38.882   5.193
32781W        W99849  24.100   5.923   3.196
32782W        W99850  22.072  34.965  12.433
32783W        W99851  22.632  24.611   2.250
32784W        W99852  20.746  40.952  14.340
32785W        W99853  24.624   8.705   2.869
32786W        W99854   8.334  27.085  12.967
32787W        W99855   0.795  36.061   1.921
32788W        W99856  16.147  21.151   3.259
32789W        W99857  30.415  13.272   2.291
32790W        W99858   2.918  17.300   1.770
32791W        W99859  36.422  13.309   4.776
32792W        W99860  37.450  31.092  14.393
32793W        W99861  27.540  12.687   0.359
32794W        W99862  23.062   1.944  14.381
32795W        W99863  32.955  43.996  10.544
32796W        W99864   2.934  38.411   4.810
32797W        W99865  11.301  32.118  13.918
32798W        W99866  27.666   9.772  11.021
32799W        W99867  19.657   6.819   1.809
32800W        W99868  11.709  26.540  11.406
32801W        W99869  41.846  18.237   0.285
32802W        W99870  27.556  36.062   2.308
32803W        W99871   8.705   4.751  13.482
32804W        W99872  20.143  40.956   3.787
32805W        W99873  21.703  39.980  11.951
32806W        W99874  41.012  29.949  12.033
32807W        W99875  30.001   6.386  12.054
32808W        W99876  26.111  20.745  10.918
32809W        W99877  24.148  17.111  13.834
32810W        W99878  20.087  27.962   3.148
32811W        W99879   6.388  27.649  14.984
32812W        W99880  26.973  14.186  11.951
32813W        W99881  44.008  42.418   4.825
32814W        W99882   9.270  38.904   1.843
32815W        W99883  37.483  43.918   3.845
32816W        W99884  39.026  15.756  11.394
32817W        W99885  11.821   5.842   4.136
32818W        W99886  34.605  44.307  14.345
32819W        W99887  25.521  34.608  14.919
32820W        W99888  25.155  43.404  12.037
32821W        W99889  25.547  23.528  10.015
32822W        W99890  26.098  27.011  14.846
32823W        W99891   0.751  44.375   2.868
32824W        W99892  16.789  10.741  11.921
32825W        W99893  37.563  22.040   1.765
32826W        W99894   3.301  43.377  14.018
32827W        W99895   7.766   6.281   2.258
32828W        W99896  37.840  18.291  14.366
32829W        W99897  33.975   5.693  10.633
32830W        W99898  40.909  37.879   3.795
32831W        W99899   7.354   9.168   3.765
32832W        W99900  43.516  26.154   1.778
32833W        W99901  20.553  26.546  11.551
32834W        W99902  29.055   4.783  10.980
32835W        W99903  40.446   3.400  14.820
32836W        W99904  39.036  22.659   3.315
32837W        W99905  30.582  31.072   0.787
32838W        W99906  41.803  11.729   1.262
32839W        W99907   0.335  28.510   3.865
32840W        W99908   8.187   4.300   2.360
32841W        W99909  32.468  15.323  11.084
32842W        W99910  38.421   9.692  10.979
32843W        W99911   2.292  24.010  10.146
32844W        W99912  22.215  36.890  14.402
32845W        W99913  32.593   2.791  10.496
32846W        W99914  43.300  31.616  14.923
32847W        W99915  11.679  29.063  12.538
32848W        W99916  38.434  17.131   3.282
32849W        W99917   3.866  15.172  11.386
32850W        W99918   5.321  36.362   2.303
32851W        W99919  21.678  31.984  11.912
32852W        W99920  17.209  40.337   4.777
32853W        W99921  25.170  28.563  11.089
32854W        W99922  32.936  10.258  10.960
32855W        W99923  38.056   5.255   3.236
32856W        W99924  30.989  24.099   2.250
32857W        W99925  15.214   0.277  10.940
32858W        W99926  30.920  34.404  10.068
32859W        W99927  10.138  15.605   2.845
32860W        W99928  24.041  40.349   2.394
32861W        W99929  27.081  36.078  13.911
32862W        W99930  43.446  10.336  10.050
32863W        W99931  31.531  44.294   0.837
32864W        W99932  40.913  29.164  12.974
32865W        W99933  27.175  39.388   3.332
32866W        W99934   4.325   8.728   0.330
32867W        W99935  12.645  39.433  10.893
32868W        W99936  36.908  11.315   1.854
32869W        W99937  34.115  26.044   4.190
32870W        W99938  10.204  27.510   1.841
32871W        W99939  20.591  41.805  14.424
32872W        W99940  32.603  44.321   9.982
32873W        W99941  37.360  44.977  12.411
32874W        W99942  42.430  38.012   1.379
32875W        W99943   0.351  43.512  13.053
32876W        W99944   8.724  27.610  11.389
32877W        W99945  13.349   3.794   3.321
32878W        W99946  27.180  34.009   1.234
32879W        W99947  30.548  31.412   0.454
32880W        W99948   2.242   8.175  13.026
32881W        W99949  15.193  16.620  13.443
32882W        W99950  38.943  28.470  11.878
32883W        W99951  10.323  34.953  10.466
32884W        W99952  12.272  31.454  10.993
32885W        W99953   9.702  11.212  14.301
32886W        W99954  28.950  41.335  11.977
32887W        W99955  22.689  44.424  11.049
32888W        W99956  23.642  15.599  11.384
32889W        W99957   7.320   5.922   0.481
32890W        W99958   6.733  14.672   1.366
32891W        W99959  42.504   1.950   4.731
32892W        W99960  28.067  30.033   0.930
32893W        W99961  11.818  42.874  11.961
32894W        W99962  31.122  41.303   3.718
32895W        W99963  26.117  38.512   4.631
32896W        W99964  43.510   1.879   4.615
32897W        W99965  39.374   8.279   4.191
32898W        W99966  11.646   8.681  14.824
32899W        W99967  36.371   5.922  13.406
32900W        W99968  13.313  36.096  11.110
32901W        W99969   7.355   2.836  14.419
32902W        W99970  26.101   0.297   2.198
32903W        W99971   8.343  44.766   3.185
32904W        W99972   7.699  27.532  11.437
32905W        W99973  20.566   7.847   3.837
32906W        W99974  31.622  38.856  11.860
32907W        W99975  33.483  29.066  13.530
32908W        W99976   7.812   7.397  13.794
32909W        W99977   0.389  18.639  14.496
32910W        W99978  43.444   9.861   2.866
32911W        W99979  27.626  41.873   2.715
32912W        W99980   3.956   8.670   3.375
32913W        W99981  35.452  21.705  12.550
32914W        W99982  11.195  43.774   3.642
32915W        W99983  12.734  21.542  10.462
32916W        W99984  37.994  33.616   0.364
32917W        W99985  24.009  36.365  11.584
32918W        W99986  19.270  36.083  12.373
32919W        W99987   6.776  30.595   3.277
32920W        W99988   6.189  40.969   2.851
32921W        W99989  30.644  27.030   2.288
32922W        W99990  35.071  40.053  10.566
32923W        W99991   7.229  11.269  10.493
32924W        W99992  16.813   1.977  12.834
32925W        W99993  29.462  32.460   5.143
32926W        W99994  36.578   6.369   3.364
32927W        W99995  14.592  42.815  11.878
32928W        W99996  29.034  23.221  11.410
32929W        W99997  28.445  23.148   4.145
32930W        W99998  25.065  37.890  14.765
32931W        W99999  16.691  28.151  12.392
32932W        W    0   1.362  10.800   1.729
32933W        W    1  27.971  24.495  12.948
32934W        W    2  15.095  24.603   1.446
32935W        W    3  14.645  24.019  10.145
32936W        W    4  37.883  37.857  14.784
32937W        W    5  41.326  37.970   0.807
32938W        W    6  43.766  28.995  12.826
32939W        W    7  28.575  28.155  11.002
32940W        W    8  23.670  14.156  11.006
32941W        W    9   3.794  15.620   1.433
32942W        W   10   2.929   7.752  11.968
32943W        W   11  14.743  39.405   4.150
32944W        W   12  11.244  25.494  14.837
32945W        W   13  38.557  44.320  13.803
32946W        W   14  35.389   8.384   4.643
32947W        W   15  11.728  44.269   1.376
32948W        W   16  42.466  39.003  14.971
32949W        W   17   4.414  32.893   2.709
32950W        W   18  17.756  10.379  14.938
32951W        W   19  32.057  31.435  11.576
32952W        W   20  44.302  21.183  11.549
32953W        W   21  29.626   6.763  13.474
32954W        W   22   4.282   1.381  14.421
32955W        W   23  34.480  33.453   1.899
32956W        W   24  14.790   2.367  11.074
32957W        W   25  21.236   5.265  11.483
32958W        W   26  32.974  10.322  11.580
32959W        W   27   2.449  25.537   4.677
32960W        W   28  20.703   2.878  13.018
32961W        W   29  41.040   1.825   2.850
32962W        W   30   7.294  13.823   1.748
32963W        W   31  25.091   2.850  10.419
32964W        W   32  21.663   3.789   0.815
32965W        W   33  16.270   1.876   2.680
32966W        W   34  34.585  12.650   4.228
32967W        W   35  16.752   3.403  13.507
32968W        W   36   6.365  41.456  10.594
32969W        W   37  42.299  28.047  10.982
32970W        W   38  20.577  42.811  14.515
32971W        W   39  21.620  12.757  12.044
32972W        W   40  16.656   5.852   1.303
32973W        W   41  32.484  24.976   3.667
32974W        W   42  15.810  34.987  11.432
32975W        W   43  32.085  21.666   2.283
32976W        W   44  42.481  39.062  11.461
32977W        W   45  13.263   6.285   1.260
32978W        W   46  20.525   0.813   1.791
32979W        W   47  13.307  16.648  11.470
32980W        W   48  36.922  10.169   0.965
32981W        W   49  29.472  20.535   0.445
32982W        W   50  43.479  39.432  12.946
32983W        W   51   2.381  20.032  10.902
32984W        W   52  17.657  27.109  13.499
32985W        W   53   9.754  41.788   0.861
32986W        W   54   2.899  34.465   2.341
32987W        W   55  10.267  16.668   4.303
32988W        W   56  16.206  13.116   1.907
32989W        W   57   1.480  39.953  14.908
32990W        W   58  11.304   9.798   1.309
32991W        W   59  25.116  31.643   4.713
32992W        W   60  33.984  41.352  13.332
32993W        W   61  24.152   8.878   3.337
32994W        W   62  41.351  17.632   4.778
32995W        W   63   5.309  34.529  12.424
32996W        W   64  10.222   4.745   0.404
32997W        W   65  32.105  30.572   4.746
32998W        W   66  23.033  18.106  12.438
32999W        W   67  32.139  30.147   1.239
33000W        W   68  17.157  12.662   4.131
33001W        W   69  41.787  22.061   2.807
33002W        W   70  17.162   1.279  11.032
33003W        W   71  17.201  20.149  10.987
33004W        W   72  17.772  44.381   2.215
33005W        W   73  30.976  34.974  12.438
33006W        W   74  30.624  27.090  13.946
33007W        W   75  32.001  25.473   0.832
33008W        W   76   0.442  13.835   3.318
33009W        W   77  27.492  19.577  12.041
33010W        W   78  40.442  31.446   2.832
33011W        W   79   4.290  38.830   2.325
33012W        W   80  21.239  15.655   2.197
33013W        W   81   4.402  24.085  12.974
33014W        W   82  14.595   6.690   2.829
33015W        W   83  29.533  13.818  11.096
33016W        W   84  12.156   8.811  11.444
33017W        W   85  30.054   6.688  10.981
33018W        W   86  31.423   6.211   0.427
33019W        W   87  21.125  34.409   1.834
33020W        W   88   4.858   1.382   0.248
33021W        W   89  23.702   7.381   1.709
33022W        W   90  18.283  25.052  14.286
33023W        W   91  38.538  37.485  10.505
33024W        W   92  19.691   3.411  10.540
33025W        W   93  20.625  40.882  10.433
33026W        W   94  21.051  36.918  12.533
33027W        W   95  44.263  18.135  13.030
33028W        W   96  26.022  22.065  13.453
33029W        W   97  29.005  38.903   0.423
33030W        W   98  43.862  37.006  10.420
33031W        W   99  14.099   7.224  11.857
33032W        W  100   4.808  40.996   3.744
33033W        W  101   9.214  20.614   0.395
33034W        W  102  17.266  28.437   1.270
33035W        W  103   5.917  31.028   1.809
33036W        W  104   9.202  19.576   5.206
33037W        W  105   4.433  28.658   2.740
33038W        W  106  40.388  32.097  11.413
33039W        W  107  28.607  34.436  14.353
33040W        W  108   5.887  38.063  14.450
33041W        W  109  38.010  18.245  12.396
33042W        W  110   8.279   1.764   4.278
33043W        W  111   9.244  10.873   3.337
33044W        W  112  33.115  34.545   4.670
33045W        W  113  14.164  14.284   3.161
33046W        W  114  43.982  36.407  14.810
33047W        W  115   9.175  37.988  10.992
33048W        W  116   5.768  27.092  12.393
33049W        W  117  11.299  43.504  11.426
33050W        W  118   7.670  32.502   4.329
33051W        W  119  30.437   3.453  11.572
33052W        W  120  34.021   6.268   2.737
33053W        W  121  37.846  43.427  13.395
33054W        W  122  34.069  40.487  11.561
33055W        W  123  33.945  28.540   0.327
33056W        W  124  28.045   3.358  14.403
33057W        W  125  35.088  32.951  11.883
33058W        W  126  41.402  13.214   1.249
33059W        W  127  36.443  35.085   4.740
33060W        W  128  38.344  31.073  13.044
33061W        W  129  17.209  32.060  10.639
33062W        W  130  29.450   9.315  10.940
33063W        W  131  12.287  11.718  12.549
33064W        W  132   5.194  27.948   2.411
33065W        W  133  30.554  43.413  11.460
33066W        W  134  20.132  22.564  12.502
33067W        W  135   9.803  39.920   4.830
33068W        W  136  13.304  32.414   2.852
33069W        W  137  24.483   6.893   0.466
33070W        W  138  38.525  15.783  12.561
33071W        W  139   4.789  19.772   3.840
33072W        W  140  28.063   3.235  13.002
33073W        W  141  11.677  44.006  14.763
33074W        W  142  44.441   1.358  13.966
33075W        W  143  36.466  31.523  14.935
33076W        W  144   6.341  35.937   3.817
33077W        W  145  28.651   7.379   3.774
33078W        W  146  34.877  39.899   0.781
33079W        W  147  12.771  38.335   4.225
33080W        W  148  12.139  11.797   2.338
33081W        W  149  15.602   4.813  10.440
33082W        W  150   9.879  18.596  12.989
33083W        W  151   7.376   9.270   1.857
33084W        W  152  18.774  27.970  14.301
33085W        W  153   2.248  13.319   3.165
33086W        W  154  38.055  29.440   0.437
33087W        W  155   4.869  15.807   2.309
33088W        W  156  41.961  39.471   3.641
33089W        W  157  41.960  22.155  13.845
33090W        W  158  39.403  21.222  13.894
33091W        W  159  19.732  26.499  14.362
33092W        W  160  39.401  43.393  14.439
33093W        W  161   3.712  27.527   4.768
33094W        W  162   5.780  28.503   1.260
33095W        W  163  32.115  38.427  12.379
33096W        W  164  30.602  27.041   0.897
33097W        W  165  14.187   6.834   3.320
33098W        W  166  37.037   8.224   4.836
33099W        W  167  41.986   9.850  12.430
33100W        W  168  39.046  37.954   4.666
33101W        W  169  31.115  34.439   4.197
33102W        W  170  35.879  28.092  14.889
33103W        W  171  26.061  19.764  10.968
33104W        W  172   7.909  12.611  12.893
33105W        W  173  17.694  22.584  10.521
33106W        W  174  40.972  43.499   0.881
33107W        W  175   9.730  39.510  14.003
33108W        W  176  16.630   6.708  10.608
33109W        W  177  14.752  41.341   3.369
33110W        W  178  41.312  24.499   0.336
33111W        W  179  15.180   3.317  14.923
33112W        W  180  24.485  39.427   3.235
33113W        W  181  34.945  18.760   4.139
33114W        W  182  40.943   2.370  14.018
33115W        W  183  37.358  13.324  13.490
33116W        W  184  21.245  23.504   4.658
33117W        W  185  37.883   3.266  14.922
33118W        W  186  25.634  38.550  12.089
33119W        W  187  31.487   6.760   1.415
33120W        W  188  44.931  44.961   2.315
33121W        W  189   8.739   2.358   1.431
33122W        W  190  28.673  34.956   3.675
33123W        W  191  29.060  18.559   0.813
33124W        W  192  41.329  38.063   4.619
33125W        W  193  19.771  16.202   3.865
33126W        W  194  35.416  41.384  12.426
33127W        W  195  28.178  41.881   0.318
33128W        W  196  17.066  13.263  14.825
33129W        W  197  39.986  31.412   1.928
33130W        W  198  43.923  40.356  10.426
33131W        W  199  24.106   4.335   2.898
33132W        W  200   0.777   0.929   1.895
33133W        W  201  22.112  39.061   1.355
33134W        W  202   6.321   0.286  11.858
33135W        W  203  13.786  10.366   1.286
33136W        W  204   1.734   8.783  13.983
33137W        W  205  38.349   7.392  13.893
33138W        W  206  27.970  15.087   5.154
33139W        W  207   8.683  18.213   2.353
33140W        W  208  36.525  24.712   1.337
33141W        W  209  38.825  33.087   4.307
33142W        W  210  37.029   5.903   1.753
33143W        W  211  31.097   0.981  10.091
33144W        W  212  16.610  34.094   0.741
33145W        W  213  22.633  16.263   3.251
33146W        W  214   4.356   5.280   4.610
33147W        W  215  39.038  11.292   2.681
33148W        W  216  41.029  19.613   0.250
33149W        W  217  42.894  33.066   3.672
33150W        W  218  13.295  30.028   1.851
33151W        W  219  27.680  37.844   0.427
33152W        W  220  44.262  22.156  10.498
33153W        W  221  14.713  37.541   3.321
33154W        W  222  35.902   7.383  11.409
33155W        W  223   8.352  31.953  14.979
33156W        W  224   6.878  37.907  14.013
33157W        W  225  28.486  33.459   3.190
33158W        W  226  32.635  24.081   0.804
33159W        W  227  41.447  11.160   1.376
33160W        W  228   9.793  39.921   0.370
33161W        W  229  41.011  35.444  11.419
33162W        W  230  28.631   4.773   4.791
33163W        W  231  29.008  19.554  13.812
33164W        W  232  21.239  15.734   2.689
33165W        W  233  44.836  26.986  10.624
33166W        W  234   7.210  22.707   4.247
33167W        W  235  42.305  34.986  12.051
33168W        W  236  13.286  42.876   1.779
33169W        W  237  13.841  10.687  12.026
33170W        W  238  31.898  19.659  14.426
33171W        W  239  19.203   3.381   1.858
33172W        W  240  44.497  10.744   0.389
33173W        W  241  33.982   6.382  11.935
33174W        W  242  32.480   2.392  11.102
33175W        W  243  25.645   7.828  11.057
33176W        W  244  16.573  28.060   1.922
33177W        W  245  11.711  18.786   4.151
33178W        W  246  25.544  12.216  14.427
33179W        W  247  38.567  30.064  12.370
33180W        W  248   5.385  31.055  10.640
33181W        W  249  28.069  38.009   0.408
33182W        W  250   7.332  41.831   2.847
33183W        W  251  32.570   7.396  11.083
33184W        W  252   1.344  18.150   0.342
33185W        W  253  18.141  13.739   0.839
33186W        W  254  10.323  28.668   3.363
33187W        W  255  13.841  11.763  13.866
33188W        W  256  15.273  30.651   4.202
33189W        W  257  41.366  21.665  13.316
33190W        W  258  20.114  11.695  14.863
33191W        W  259  12.146  43.341  14.901
33192W        W  260  19.166  40.888   0.458
33193W        W  261  16.096  31.435  13.893
33194W        W  262  39.546  41.432  14.870
33195W        W  263  24.205  20.694  14.827
33196W        W  264  41.828  27.459  12.888
33197W        W  265  14.741  12.816  10.975
33198W        W  266  13.341   2.303  14.850
33199W        W  267   1.412  22.543  10.906
33200W        W  268  11.660  38.041  10.944
33201W        W  269  27.463  21.201   1.328
33202W        W  270  22.662   4.746  12.973
33203W        W  271  32.505   3.378   3.322
33204W        W  272  13.736  17.300  13.516
33205W        W  273  24.708  35.490  12.024
33206W        W  274  37.468  23.043  14.387
33207W        W  275  20.607  11.750   0.898
33208W        W  276  10.195   5.291  11.387
33209W        W  277   8.695  13.800  13.535
33210W        W  278   9.248  17.722   3.281
33211W        W  279   7.757  19.710  10.024
33212W        W  280  25.474  20.090  13.969
33213W        W  281  29.515  11.820  12.000
33214W        W  282   9.379  29.440   3.372
33215W        W  283  16.630  18.262   2.389
33216W        W  284  24.560   4.212  11.481
33217W        W  285  12.265   0.296  12.048
33218W        W  286   0.330   9.741   3.262
33219W        W  287  38.498  40.801   4.642
33220W        W  288   2.827  39.814  10.937
33221W        W  289  31.497  15.154   0.343
33222W        W  290  28.517  42.023  12.530
33223W        W  291  24.137  12.233   0.418
33224W        W  292  28.061  15.656   3.863
33225W        W  293  39.539   3.861  14.304
33226W        W  294  27.547  19.262  11.542
33227W        W  295   1.261  26.099  10.579
33228W        W  296  22.050  32.432   1.216
33229W        W  297   0.317   2.244   3.843
33230W        W  298  22.162  39.319   1.781
33231W        W  299  15.804  44.490   4.634
33232W        W  300  33.455  21.733  14.025
33233W        W  301  37.013  19.582  13.923
33234W        W  302   9.666  44.481   3.289
33235W        W  303   2.740  32.069   2.363
33236W        W  304  26.201  29.976   2.718
33237W        W  305  28.102  14.337  13.881
33238W        W  306   8.791  17.713   0.820
33239W        W  307  11.761  40.903   1.916
33240W        W  308  33.415  34.519   0.933
33241W        W  309   6.401   9.888  13.307
33242W        W  310  27.541  12.141   2.215
33243W        W  311  13.304  28.663  10.488
33244W        W  312  33.064  36.899   2.686
33245W        W  313   6.740   5.851  13.012
33246W        W  314  33.092   0.933   1.353
33247W        W  315  26.536  37.972   2.253
33248W        W  316  16.604  21.066   1.398
33249W        W  317  29.034  41.958   4.317
33250W        W  318   7.720  39.847   4.830
33251W        W  319  35.862  20.723  12.943
33252W        W  320  44.905  39.499   0.747
33253W        W  321  40.897  23.130   0.464
33254W        W  322  21.689  38.346  13.377
33255W        W  323  30.149  27.522   1.431
33256W        W  324  13.845  35.550   1.376
33257W        W  325  27.578   8.771  14.968
33258W        W  326  11.750  16.107  13.882
33259W        W  327  36.493  19.157   1.887
33260W        W  328  22.746  23.729  11.906
33261W        W  329  10.644  27.153   0.277
33262W        W  330  12.200   4.826   4.302
33263W        W  331   1.971  34.021  13.882
33264W        W  332   0.903  33.584   4.835
33265W        W  333  26.504  11.269  14.859
33266W        W  334  37.023  19.135  14.813
33267W        W  335   6.901  36.464  11.400
33268W        W  336  13.189  33.400  11.882
33269W        W  337   5.237   5.348  12.044
33270W        W  338  16.791   6.341   1.783
33271W        W  339  42.029   1.288  12.860
33272W        W  340  16.721  43.391  14.833
33273W        W  341  25.003  36.489  12.032
33274W        W  342  33.621  30.419  10.968
33275W        W  343  10.855   3.879   2.854
33276W        W  344  19.633  12.668   0.807
33277W        W  345  15.221  21.723  14.898
33278W        W  346  16.804   8.212  11.464
33279W        W  347  15.277  32.482  13.543
33280W        W  348  38.332  39.378   0.814
33281W        W  349  22.655  19.237  13.032
33282W        W  350  24.653  10.879  10.481
33283W        W  351  40.926   1.473   0.757
33284W        W  352   5.885  17.249  12.925
33285W        W  353   1.862  15.125  12.347
33286W        W  354  18.709   6.701  12.873
33287W        W  355   1.404  10.808   4.667
33288W        W  356  33.475  10.314   4.120
33289W        W  357   9.725  36.870  14.320
33290W        W  358  11.256  32.447  12.415
33291W        W  359  13.808  25.529  12.051
33292W        W  360  19.183   3.781  11.513
33293W        W  361  19.735  34.385   0.416
33294W        W  362   2.894  36.461  12.826
33295W        W  363  19.652  18.631  10.407
33296W        W  364   0.854   3.791  11.961
33297W        W  365  44.852  18.657   3.210
33298W        W  366  13.690  23.706  10.639
33299W        W  367   9.187  29.921   4.279
33300W        W  368  21.598  12.353  12.861
33301W        W  369   8.293   4.343  11.986
33302W        W  370  27.060  18.136   3.243
33303W        W  371  41.828   3.223  13.002
33304W        W  372  16.172  44.434  13.973
33305W        W  373  38.553   3.772   0.333
33306W        W  374  10.840  43.960   3.633
33307W        W  375   8.353  35.397   0.429
33308W        W  376  12.837  35.962  10.955
33309W        W  377  41.808  13.351   2.853
33310W        W  378  12.133  17.558  11.043
33311W        W  379  27.654   2.927   4.189
33312W        W  380  16.109  28.145  13.871
33313W        W  381  42.449  26.474   4.793
33314W        W  382  24.554   7.889  11.047
33315W        W  383   7.668  37.858  12.935
33316W        W  384  35.592  31.421  11.955
33317W        W  385  22.114  29.463   2.828
33318W        W  386  41.435  21.088   2.748
33319W        W  387  25.178  32.464  10.626
33320W        W  388  25.080   4.867  14.977
33321W        W  389  43.809  18.126  14.291
33322W        W  390  20.115  44.501   5.282
33323W        W  391   5.347  28.568  13.507
33324W        W  392  20.573  24.618   2.412
33325W        W  393  19.251   2.829  10.643
33326W        W  394  43.305  42.347  13.867
33327W        W  395  11.357  39.868   4.271
33328W        W  396  18.166  40.491  10.411
33329W        W  397  31.618  41.945  11.119
33330W        W  398   1.864  25.706  12.007
33331W        W  399   6.696  29.636  14.934
33332W        W  400  22.646   7.708   2.344
33333W        W  401   7.272  29.088   0.442
33334W        W  402  33.526  38.464   3.827
33335W        W  403   6.289  20.736   4.829
33336W        W  404  29.484  37.484  12.034
33337W        W  405   5.772  31.475   1.227
33338W        W  406   2.736  40.995   1.268
33339W        W  407  44.999   1.762  14.835
33340W        W  408  39.329  37.959  11.089
33341W        W  409  27.177  41.032   0.873
33342W        W  410  22.098  25.595   4.280
33343W        W  411  20.255  38.516   1.784
33344W        W  412   6.798   4.879   0.866
33345W        W  413  31.922  43.787  10.418
33346W        W  414  21.200  33.881   4.654
33347W        W  415  33.546  20.267  11.451
33348W        W  416   6.398  19.756  12.472
33349W        W  417   6.401  24.115  12.389
33350W        W  418   4.866  12.162   1.888
33351W        W  419  35.409  24.633   3.344
33352W        W  420  41.972  13.682  10.581
33353W        W  421   1.864  24.698   1.287
33354W        W  422   6.899  10.796  11.539
33355W        W  423  17.215  20.699   2.197
33356W        W  424  35.369  42.806  11.960
33357W        W  425  16.796  25.548  12.050
33358W        W  426   0.380  41.308   2.732
33359W        W  427  18.584   0.323   1.282
33360W        W  428  13.142  44.906  14.021
33361W        W  429  21.553  30.113   0.285
33362W        W  430  42.788  27.121   0.257
33363W        W  431  16.703  15.168  13.972
33364W        W  432  20.082  10.276   3.188
33365W        W  433  44.317  37.003   1.908
33366W        W  434  30.568  37.934  12.066
33367W        W  435  29.960   0.742  10.976
33368W        W  436  35.948   1.237  10.888
33369W        W  437  28.513  10.803  11.608
33370W        W  438  20.265  31.949   4.603
33371W        W  439  32.621   7.302  14.448
33372W        W  440  19.256  13.151   2.224
33373W        W  441  42.839  14.330  10.522
33374W        W  442   4.395  17.775   3.224
33375W        W  443   9.299   9.704  12.998
33376W        W  444  18.279   7.818   3.383
33377W        W  445  30.131  25.032   2.182
33378W        W  446   2.872  15.579   1.343
33379W        W  447  24.623  11.364   3.776
33380W        W  448   7.889   9.285   2.402
33381W        W  449  37.866  30.653   1.726
33382W        W  450  26.076  29.940  13.502
33383W        W  451  34.891  31.625   4.208
33384W        W  452  35.942  17.753   0.913
33385W        W  453  17.293  26.629   4.190
33386W        W  454  22.209   7.684   1.789
33387W        W  455  13.251  22.167   0.801
33388W        W  456  32.896  28.933  12.881
33389W        W  457  41.407  37.396  11.499
33390W        W  458  13.637  33.107   4.146
33391W        W  459  42.951  41.029   0.729
33392W        W  460  35.002  26.506   0.957
33393W        W  461  34.904   0.272  10.504
33394W        W  462  33.476  31.907  14.338
33395W        W  463  25.140  29.436   5.190
33396W        W  464  39.526  15.805   2.284
33397W        W  465   8.398  41.537  12.393
33398W        W  466  25.555   1.946   4.760
33399W        W  467  16.312   7.756   5.082
33400W        W  468  24.071  20.137  12.961
33401W        W  469   4.700  13.344   4.616
33402W        W  470   9.701  21.153  12.522
33403W        W  471  36.098  21.178   1.313
33404W        W  472   0.891  30.069  12.835
33405W        W  473   5.789   9.357   3.804
33406W        W  474  28.000  22.666   1.845
33407W        W  475  21.575  31.474   0.792
33408W        W  476   5.213  37.403   3.245
33409W        W  477  32.898   2.962   0.289
33410W        W  478  39.375   7.726  14.399
33411W        W  479   3.461  19.569   3.365
33412W        W  480   6.281  38.382   1.257
33413W        W  481  34.911  38.003   1.895
33414W        W  482  27.027  33.003  14.820
33415W        W  483  22.513  22.160   0.765
33416W        W  484  28.071  27.516  14.759
33417W        W  485  39.868  27.024  14.947
33418W        W  486  44.918  32.957   2.726
33419W        W  487  19.778   5.859  14.351
33420W        W  488  35.882  20.580   3.146
33421W        W  489  32.033   5.707   2.849
33422W        W  490  37.431   2.893   0.750
33423W        W  491   9.189  19.559  13.459
33424W        W  492  38.391  20.217   0.398
33425W        W  493   1.832  40.015  14.777
33426W        W  494  34.901   4.436   4.319
33427W        W  495  38.055   4.917   2.708
33428W        W  496  35.006  14.681   1.895
33429W        W  497  39.474  12.126  11.105
33430W        W  498   7.724  40.437   1.425
33431W        W  499  27.128  35.906   0.957
33432W        W  500  41.846  21.033   4.177
33433W        W  501  18.635  26.486  11.022
33434W        W  502  18.723   6.235  14.974
33435W        W  503  13.649  20.116  14.960
33436W        W  504  36.557  27.505  13.396
33437W        W  505  37.958  22.054   4.717
33438W        W  506  11.662  30.064   2.392
33439W        W  507  31.036  40.456   5.147
33440W        W  508  34.890  40.467  12.059
33441W        W  509  28.929  33.876  14.774
33442W        W  510   6.413  12.760  14.395
33443W        W  511  26.183  24.098  13.925
33444W        W  512  25.023  23.578  13.501
33445W        W  513  37.428  28.070   1.705
33446W        W  514  39.459   5.297   1.228
33447W        W  515   7.233   5.819  14.292
33448W        W  516  18.558  18.238  11.392
33449W        W  517  37.944  10.312  13.474
33450W        W  518  35.090  33.966  13.049
33451W        W  519  34.509  13.756   3.763
33452W        W  520  31.129  13.764  12.547
33453W        W  521  16.249  30.997   1.767
33454W        W  522  35.429  29.039  12.056
33455W        W  523  20.730   4.321  11.880
33456W        W  524  38.003  40.030   1.933
33457W        W  525  11.273  42.285   4.292
33458W        W  526  26.148  24.553  11.504
33459W        W  527  24.026  29.147  14.408
33460W        W  528  22.055  32.137  14.299
33461W        W  529  30.130  26.695  11.521
33462W        W  530  25.026  22.684   3.868
33463W        W  531  37.572   2.965  14.324
33464W        W  532  26.022  44.776  14.013
33465W        W  533  17.273  42.838  14.456
33466W        W  534  34.488   0.979   0.480
33467W        W  535  14.229   5.411   4.823
33468W        W  536   7.852   5.739  12.029
33469W        W  537  41.005  37.868  14.478
33470W        W  538  42.859  25.105   0.805
33471W        W  539   2.317  10.782  14.443
33472W        W  540  42.961  31.621   3.833
33473W        W  541  35.446   0.892   3.331
33474W        W  542  14.240   4.410   4.651
33475W        W  543  36.554   8.657   3.711
33476W        W  544  34.555  19.624   3.837
33477W        W  545   5.281  10.709   3.696
33478W        W  546  27.483  23.504   2.362
33479W        W  547  41.352  20.072  14.462
33480W        W  548  35.369  24.199   0.364
33481W        W  549  32.467  42.349   0.968
33482W        W  550  44.812   4.343   1.851
33483W        W  551  31.956  34.466   1.713
33484W        W  552  34.488  30.034   2.298
33485W        W  553   3.727   4.433   0.806
33486W        W  554   8.380  33.544  13.993
33487W        W  555  40.829  34.478  13.870
33488W        W  556  26.143  25.544  13.949
33489W        W  557  42.934  19.558  13.400
33490W        W  558  11.258  42.028  14.850
33491W        W  559  36.042  24.679   4.172
33492W        W  560  10.746  33.478   3.220
33493W        W  561  27.160  19.271   4.793
33494W        W  562  20.201  19.545   1.266
33495W        W  563  11.189  36.385  13.447
33496W        W  564  40.910  21.114  12.868
33497W        W  565  32.574  41.495  13.536
33498W        W  566  17.629   6.737  11.063
33499W        W  567  17.604  24.992  13.429
33500W        W  568   7.230  40.362   3.664
33501W        W  569  17.200  26.648  12.870
33502W        W  570  33.499  13.283   1.320
33503W        W  571  44.766  37.490   1.354
33504W        W  572  31.029  22.151  12.478
33505W        W  573  19.540  25.501  11.465
33506W        W  574  24.556  18.167  13.019
33507W        W  575   8.853  11.167   3.241
33508W        W  576   7.280  38.487  12.051
33509W        W  577  23.536  25.056   1.373
33510W        W  578   8.891  37.546  12.875
33511W        W  579  34.929  10.637  10.592
33512W        W  580   6.819   1.264  10.571
33513W        W  581  38.364  23.173   0.442
33514W        W  582   6.404  24.503   3.668
33515W        W  583  24.022  42.903  14.291
33516W        W  584  12.274  28.632   0.421
33517W        W  585  19.129  40.410   4.835
33518W        W  586  35.372  13.230  14.930
33519W        W  587  32.935  42.302   0.793
33520W        W  588  44.315  43.886   1.356
33521W        W  589   4.427  37.017   1.265
33522W        W  590   3.367  20.254   0.896
33523W        W  591  39.485  17.651   1.705
33524W        W  592  31.989  32.581  13.389
33525W        W  593  20.111  37.445   1.873
33526W        W  594   6.255  11.853   1.309
33527W        W  595  20.191  34.037  10.450
33528W        W  596  41.965  42.875  10.127
33529W        W  597   3.357  17.120  12.400
33530W        W  598   8.375  14.094  10.413
33531W        W  599  20.558  13.343   4.628
33532W        W  600  38.332   3.219   2.705
33533W        W  601  16.777  21.693  12.008
33534W        W  602  41.915   0.937   2.764
33535W        W  603   8.829   3.895  11.115
33536W        W  604  41.500  18.719   4.753
33537W        W  605  24.604  20.260  13.363
33538W        W  606  37.083  38.948   4.149
33539W        W  607  35.551  32.467  14.336
33540W        W  608   6.890  38.458   3.244
33541W        W  609  17.271   8.186  14.864
33542W        W  610  17.177   9.750  14.801
33543W        W  611  28.020  12.244  14.814
33544W        W  612  18.657  27.009  14.897
33545W        W  613  34.988  15.652   3.671
33546W        W  614  33.913  25.500   0.895
33547W        W  615  30.990  38.502  13.530
33548W        W  616   6.326  35.365   0.750
33549W        W  617   6.417  19.539  10.616
33550W        W  618  19.242  37.078  12.991
33551W        W  619  37.859  31.541  12.530
33552W        W  620   9.730  13.108   4.765
33553W        W  621   4.758  14.600   4.177
33554W        W  622   6.278  19.241  13.979
33555W        W  623  30.640  33.014   1.769
33556W        W  624  23.058   1.267  11.879
33557W        W  625  40.015   0.881   1.820
33558W        W  626   3.711  17.799  12.901
33559W        W  627  43.282  22.596   2.706
33560W        W  628  12.336  17.171  14.503
33561W        W  629  35.962  38.462  10.989
33562W        W  630   0.988  11.157   2.395
33563W        W  631  34.374   6.230   2.853
33564W        W  632  10.750   0.816   0.471
33565W        W  633  31.479  14.725  14.334
33566W        W  634  32.461  24.032  12.353
33567W        W  635  16.204   8.186  13.461
33568W        W  636  15.315  11.782  14.413
33569W        W  637   8.381  18.566  14.486
33570W        W  638   3.240  38.997  14.882
33571W        W  639  40.316  22.182  10.567
33572W        W  640  33.110  30.101   3.745
33573W        W  641  22.022  26.635   3.656
33574W        W  642  43.916  17.685  14.850
33575W        W  643  17.151  17.565   2.781
33576W        W  644  16.279   1.277   3.295
33577W        W  645  31.401  36.077   1.844
33578W        W  646   5.863   3.430  13.533
33579W        W  647  24.603   8.338  12.459
33580W        W  648  44.946  16.132   4.326
33581W        W  649  38.981  19.137  14.509
33582W        W  650   9.762  24.644   1.256
33583W        W  651   2.933  19.176  11.582
33584W        W  652   9.264  21.195   3.847
33585W        W  653   1.440  31.094   4.650
33586W        W  654   2.752  44.903   1.912
33587W        W  655  29.499  16.103   4.180
33588W        W  656   5.319  18.274  10.911
33589W        W  657  36.393  40.336   3.736
33590W        W  658  37.342  43.362   1.365
33591W        W  659  42.854  41.457  11.484
33592W        W  660  16.695  30.029  11.531
33593W        W  661  30.622  15.193   3.802
33594W        W  662  36.079  31.942   2.215
33595W        W  663  40.931  19.103   0.272
33596W        W  664  34.369   5.295  11.409
33597W        W  665   4.292  19.182  11.963
33598W        W  666  28.545  12.729  12.522
33599W        W  667  13.321   3.880  10.409
33600W        W  668   8.294  37.933  12.347
33601W        W  669  24.653   7.762  12.399
33602W        W  670  25.194  17.228   0.908
33603W        W  671  23.222  27.971   3.300
33604W        W  672   2.721  15.820  11.041
33605W        W  673  44.418  44.004   0.763
33606W        W  674   2.345  39.465  11.923
33607W        W  675   6.235   6.849   3.782
33608W        W  676  28.536  18.076   2.244
33609W        W  677  24.709  18.202   1.283
33610W        W  678  30.930  37.924  12.030
33611W        W  679  28.973   6.788  14.999
33612W        W  680  18.243  14.106  10.991
33613W        W  681  44.389  41.476   1.365
33614W        W  682  19.765   3.372   0.407
33615W        W  683  25.098  29.153   2.879
33616W        W  684  28.454  37.059  10.478
33617W        W  685  20.755  29.478  13.529
33618W        W  686   5.741   1.836  10.615
33619W        W  687  33.092  26.488  14.497
33620W        W  688  34.931  27.530   2.838
33621W        W  689  30.645  24.031  12.984
33622W        W  690  31.411  42.439  12.046
33623W        W  691  37.517  29.526   4.744
33624W        W  692  39.546  37.556  12.824
33625W        W  693  39.384  39.522  11.528
33626W        W  694   6.755  30.148   3.805
33627W        W  695  32.505  13.106   0.848
33628W        W  696  33.959  28.440  14.864
33629W        W  697  44.353  25.539   3.713
33630W        W  698  18.225   6.374  12.474
33631W        W  699  30.008  29.518   3.186
33632W        W  700  26.141  20.121   4.258
33633W        W  701  19.179  11.366  13.371
33634W        W  702  21.252  44.866  10.455
33635W        W  703  35.556  28.556   0.380
33636W        W  704  43.398  12.749   4.777
33637W        W  705  31.532  18.205   3.198
33638W        W  706  21.029   8.388  13.951
33639W        W  707  43.837   3.837   4.123
33640W        W  708   0.978  21.638  14.922
33641W        W  709  12.747  28.617   3.387
33642W        W  710  39.552  16.570   1.900
33643W        W  711  21.092  13.164   0.465
33644W        W  712  32.116  13.348   0.432
33645W        W  713  35.470   8.871  13.984
33646W        W  714  40.457  42.526   3.637
33647W        W  715  14.188  26.464   0.922
33648W        W  716  12.673  39.399  13.023
33649W        W  717  25.599   6.914  11.011
33650W        W  718  20.636  29.136   2.384
33651W        W  719  25.629  43.808  12.341
33652W        W  720  16.700  27.110   0.429
33653W        W  721  44.861   0.460  10.466
33654W        W  722  30.110  31.035  12.381
33655W        W  723  23.127  39.854  14.791
33656W        W  724  19.742  24.174  13.385
33657W        W  725   2.917  32.037  12.047
33658W        W  726  43.003  32.392  11.491
33659W        W  727  37.466  38.011  10.899
33660W        W  728   9.822  28.616  10.487
33661W        W  729   8.782  10.349   0.462
33662W        W  730  25.626  11.340   4.338
33663W        W  731  41.503  25.580   3.686
33664W        W  732  22.617  32.109  14.489
33665W        W  733  30.025  39.979   3.367
33666W        W  734  23.026  22.161   1.825
33667W        W  735  17.149  43.868   1.307
33668W        W  736  26.987   2.829   4.114
33669W        W  737  36.027   4.876  13.811
33670W        W  738  36.491   9.309   3.186
33671W        W  739  28.497   8.784   0.929
33672W        W  740   6.184  34.572  13.996
33673W        W  741  12.355  40.359   0.794
33674W        W  742  25.207  34.466   3.638
33675W        W  743  42.929  11.206   0.265
33676W        W  744   6.907  26.075   2.863
33677W        W  745  14.200  26.038  13.461
33678W        W  746  22.518  39.412  14.449
33679W        W  747   8.883   2.807  13.496
33680W        W  748  33.048  37.479  10.942
33681W        W  749  15.307  30.099   1.286
33682W        W  750  43.880  13.664  14.776
33683W        W  751   5.367  12.722  12.439
33684W        W  752   3.278  14.646   0.396
33685W        W  753   5.786  41.369   2.853
33686W        W  754  13.621  14.169  10.470
33687W        W  755  17.227  15.615  10.888
33688W        W  756  40.448   2.437   5.232
33689W        W  757  42.865  20.622   2.232
33690W        W  758  28.666  12.276  10.928
33691W        W  759  22.114  42.384   5.159
33692W        W  760  13.292  15.786   4.292
33693W        W  761  11.159  15.164   1.253
33694W        W  762  33.417  43.826   2.240
33695W        W  763   0.318   8.659   2.888
33696W        W  764  32.948  18.231  14.788
33697W        W  765  26.630   3.328   1.906
33698W        W  766   5.386  16.317   4.337
33699W        W  767  44.886  20.145   1.724
33700W        W  768   3.732   8.730   2.711
33701W        W  769  30.915   8.698   3.288
33702W        W  770  44.997   9.381  14.323
33703W        W  771  11.780  22.167   1.351
33704W        W  772  14.186   2.357   2.775
33705W        W  773  21.667  25.147   0.889
33706W        W  774  22.166  32.432  14.436
33707W        W  775  10.360  12.847   9.982
33708W        W  776  22.739  28.136   5.149
33709W        W  777  22.055  13.269   0.849
33710W        W  778  17.224  35.918   1.853
33711W        W  779   0.921   4.437   2.354
33712W        W  780  29.952  30.922   4.791
33713W        W  781  39.399   1.953   1.813
33714W        W  782  10.699   6.210  11.002
33715W        W  783  32.511  26.193  13.913
33716W        W  784   0.926  19.617   0.941
33717W        W  785  17.293   3.220  13.424
33718W        W  786   6.718   3.371   1.390
33719W        W  787  25.160  24.137  10.602
33720W        W  788  10.656  39.925   2.806
33721W        W  789  37.843  34.876  11.937
33722W        W  790   8.344   1.369  12.466
33723W        W  791   6.348  16.173   0.867
33724W        W  792   8.247  19.658   1.373
33725W        W  793  27.479  36.506   1.267
33726W        W  794  30.601  22.606   3.355
33727W        W  795   5.773  32.584  14.785
33728W        W  796  17.762  26.553   0.736
33729W        W  797  24.082  20.745   4.796
33730W        W  798  24.162  16.728   0.845
33731W        W  799  37.486  29.459   3.816
33732W        W  800   0.348   6.410  12.043
33733W        W  801  35.042  13.231   3.247
33734W        W  802  25.702  17.116  10.609
33735W        W  803  27.941  31.629  12.946
33736W        W  804  26.636  33.045   1.312
33737W        W  805  28.952  43.942   1.376
33738W        W  806  18.715  30.659  10.465
33739W        W  807  44.907  35.002  12.995
33740W        W  808  29.071  20.061   4.206
33741W        W  809   8.734  17.608   3.693
33742W        W  810  35.604  41.811   2.239
33743W        W  811  14.789  23.505   0.897
33744W        W  812  24.082  21.211  10.007
33745W        W  813  12.786  14.155  13.928
33746W        W  814   8.205   5.433  12.916
33747W        W  815  16.601   4.329   1.722
33748W        W  816  22.159  33.552   0.851
33749W        W  817  26.627  11.817   3.249
33750W        W  818   7.269  31.951  10.904
33751W        W  819   2.274  17.113  12.024
33752W        W  820  30.438  18.785  10.981
33753W        W  821  40.992  39.409  10.905
33754W        W  822  28.175  19.134  14.335
33755W        W  823  40.984  37.969  13.810
33756W        W  824  34.535  28.143  11.521
33757W        W  825   6.212  29.440   2.407
33758W        W  826   6.815   6.264  11.439
33759W        W  827  44.382  38.860   2.746
33760W        W  828  38.519  32.100  13.925
33761W        W  829  10.791  22.995  12.455
33762W        W  830  25.633  25.999  13.413
33763W        W  831  34.438  24.591  12.532
33764W        W  832  32.076  17.697   0.804
33765W        W  833  10.277  39.474   3.329
33766W        W  834  44.802  14.271   2.718
33767W        W  835  17.729  34.080  12.829
33768W        W  836  41.446  21.177   4.271
33769W        W  837  37.509  11.166   4.735
33770W        W  838   5.312  19.060   9.473
33771W        W  839  34.981  13.244   1.910
33772W        W  840  26.654  44.869  13.465
33773W        W  841   3.956  43.005  10.622
33774W        W  842   2.457  38.928   3.703
33775W        W  843  15.694   0.959   1.306
33776W        W  844   7.801   1.355   0.388
33777W        W  845  27.516   3.764   4.692
33778W        W  846  28.456  21.747  10.585
33779W        W  847  34.065  13.279  14.767
33780W        W  848  40.848  19.672  14.296
33781W        W  849  31.932  14.099   0.321
33782W        W  850   9.362  23.578   1.441
33783W        W  851  19.120   1.885   1.742
33784W        W  852  34.506  28.939   0.400
33785W        W  853   7.706  26.616  11.463
33786W        W  854  37.566   5.289  11.868
33787W        W  855  18.124  12.704  11.976
33788W        W  856  42.383  12.729  13.903
33789W        W  857  41.516  41.439   0.868
33790W        W  858   9.656  26.982  10.908
33791W        W  859  43.845   5.356  12.412
33792W        W  860  16.259  43.408  14.024
33793W        W  861   5.884  30.632   2.757
33794W        W  862  17.570  15.250   0.253
33795W        W  863  36.885  42.873   0.391
33796W        W  864  16.096  16.144   2.238
33797W        W  865  18.136   9.156  11.550
33798W        W  866  35.368   0.357   3.643
33799W        W  867  22.173  16.093   2.372
33800W        W  868   1.382  37.056   1.710
33801W        W  869  44.357  24.710  10.564
33802W        W  870  40.012  40.447   2.815
33803W        W  871  14.120  15.119   2.897
33804W        W  872  34.965  12.689  14.819
33805W        W  873   6.738  36.965   3.720
33806W        W  874  12.353  28.493   1.852
33807W        W  875  13.262   5.744  12.452
33808W        W  876   8.263  14.754  11.970
33809W        W  877  12.240  33.541   3.382
33810W        W  878  21.199  23.008  12.538
33811W        W  879  14.660  41.387  12.056
33812W        W  880   8.787  33.905  13.422
33813W        W  881  40.372  12.851  12.545
33814W        W  882  37.837  30.080   4.827
33815W        W  883  11.240  30.549  14.497
33816W        W  884  28.040  26.204  12.931
33817W        W  885  35.498  28.468  14.367
33818W        W  886   9.848  21.693   3.322
33819W        W  887  25.530   3.734   3.843
33820W        W  888  37.498   1.736   0.767
33821W        W  889   8.244   6.304   0.755
33822W        W  890  19.210  37.515   0.892
33823W        W  891  33.011  27.064   1.717
33824W        W  892   2.787  25.043   0.893
33825W        W  893  12.676   5.414  12.994
33826W        W  894  42.297  23.089   3.303
33827W        W  895  36.566  30.159   4.771
33828W        W  896  22.208  20.722  12.889
33829W        W  897  43.837   4.434  13.977
33830W        W  898  17.780  42.897  10.406
33831W        W  899  41.407  43.499   4.254
33832W        W  900  27.179  34.013   2.232
33833W        W  901  12.682  40.333  13.322
33834W        W  902   9.236  29.537   0.880
33835W        W  903  18.110  24.650   3.278
33836W        W  904  14.260  42.784   3.801
33837W        W  905   8.729   5.726  11.068
33838W        W  906  22.218  38.909   4.253
33839W        W  907  41.922  23.081   3.715
33840W        W  908  20.541   1.740  12.036
33841W        W  909  17.291   1.906   3.782
33842W        W  910  13.615   8.723  13.422
33843W        W  911  44.346  18.607   0.463
33844W        W  912   1.871  41.506   0.474
33845W        W  913  34.896  43.798   3.772
33846W        W  914  10.857   2.860   5.238
33847W        W  915  30.449   9.343  12.448
33848W        W  916  31.596  11.721  11.894
33849W        W  917  41.843  14.152   4.700
33850W        W  918   8.342  38.455  12.539
33851W        W  919  33.380  38.820   1.271
33852W        W  920  38.851  15.694  11.126
33853W        W  921  18.108  23.713  13.915
33854W        W  922   0.426  17.783   0.467
33855W        W  923  34.968  23.583  13.474
33856W        W  924  19.253  11.195   1.740
33857W        W  925  12.259   6.356   1.447
33858W        W  926   2.939  34.918   4.318
33859W        W  927  29.502   3.374  14.465
33860W        W  928  27.538  29.621  13.479
33861W        W  929   2.409  11.170   3.720
33862W        W  930   9.291   2.471  14.014
33863W        W  931  36.475  33.937  12.053
33864W        W  932  41.397  36.875   2.874
33865W        W  933  14.194  23.193   4.160
33866W        W  934  14.322  27.149   0.825
33867W        W  935  28.052   5.426  11.087
33868W        W  936  20.733  42.387  12.040
33869W        W  937  16.281  33.429   2.263
33870W        W  938  10.330  40.008  10.111
33871W        W  939  40.041   4.349   2.228
33872W        W  940  12.316  12.737   4.170
33873W        W  941   0.412  25.144  11.540
33874W        W  942  35.011  29.487   4.779
33875W        W  943   4.295  29.645  12.894
33876W        W  944  30.983  10.746   4.353
33877W        W  945  26.642  40.434  13.006
33878W        W  946   8.303  30.076   2.901
33879W        W  947  44.336  30.412  14.971
33880W        W  948  34.079  31.589  10.952
33881W        W  949  41.794  34.451   1.872
33882W        W  950  44.479  24.573  11.488
33883W        W  951  13.772  13.193   3.197
33884W        W  952  42.994   7.742   3.787
33885W        W  953  33.490  23.069   0.802
33886W        W  954  18.114  33.116   0.341
33887W        W  955  43.414   5.735  10.935
33888W        W  956  13.339  38.490   3.637
33889W        W  957  32.562  21.708   2.336
33890W        W  958   6.190  41.422   2.807
33891W        W  959  10.242  26.034   1.765
33892W        W  960  24.490  18.115   4.745
33893W        W  961  15.219   3.937   2.710
33894W        W  962  30.423  40.002  12.420
33895W        W  963   7.198   3.866  13.861
33896W        W  964  10.282  22.105  14.301
33897W        W  965  31.604   8.256   1.909
33898W        W  966  41.531  24.214   2.699
33899W        W  967   6.813  21.222  11.088
33900W        W  968  20.675  15.208  13.800
33901W        W  969  16.244  19.632  14.440
33902W        W  970  42.928  23.688   2.786
33903W        W  971   7.349  20.607   2.848
33904W        W  972  15.730   6.190  14.758
33905W        W  973   8.825  29.086   3.773
33906W        W  974  37.570  24.092   2.261
33907W        W  975  41.515  37.873  13.012
33908W        W  976  16.194  27.544   3.657
33909W        W  977  31.514   4.729   2.795
33910W        W  978  17.796   9.653   2.822
33911W        W  979  18.284  30.052   5.159
33912W        W  980  17.747  19.735   1.237
33913W        W  981  34.394  27.614  13.848
33914W        W  982   1.831  24.041  14.414
33915W        W  983  24.531  19.756  10.952
33916W        W  984  37.344  17.594   4.685
33917W        W  985  43.853   3.295  11.409
33918W        W  986   0.258  39.547   1.830
33919W        W  987   7.763  28.638   1.792
33920W        W  988  31.134  32.521   3.364
33921W        W  989   2.404  13.730  12.972
33922W        W  990  14.717  30.090   3.253
33923W        W  991   7.329  43.924  14.442
33924W        W  992  10.833   7.252  13.994
33925W        W  993  28.962  27.060  14.969
33926W        W  994  14.222  10.314   0.439
33927W        W  995  25.072   9.656  11.495
33928W        W  996  27.082  23.191   4.267
33929W        W  997   2.237  14.136   9.980
33930W        W  998  39.548  42.339   2.264
33931W        W  999  41.462  21.075  10.062
33932W        W 1000   1.275  22.226  11.431
33933W        W 1001  38.910  38.981   0.825
33934W        W 1002  38.854  23.700   2.358
33935W        W 1003   0.953  11.280  12.968
33936W        W 1004  26.200   5.892  12.883
33937W        W 1005  42.008   8.750  13.820
33938W        W 1006   7.877   7.300  10.450
33939W        W 1007   3.944  31.961  10.111
33940W        W 1008   8.687  20.593   0.328
33941W        W 1009  10.370  26.004   2.375
33942W        W 1010   7.180  22.220  11.389
33943W        W 1011   0.416  10.823   0.383
33944W        W 1012  27.561  38.341  12.991
33945W        W 1013  35.568  44.502  13.536
33946W        W 1014  19.637  13.345  11.499
33947W        W 1015  15.145  22.182  11.521
33948W        W 1016  40.433  17.692  10.579
33949W        W 1017  13.337  15.319  12.866
33950W        W 1018   7.902  29.550  14.951
33951W        W 1019  41.919   4.372   4.142
33952W        W 1020   5.843  18.784   0.412
33953W        W 1021  18.091  10.721  12.443
33954W        W 1022   8.884  24.541   4.313
33955W        W 1023  38.398  27.143  12.519
33956W        W 1024  36.364   2.460  14.302
33957W        W 1025  27.640  37.481   2.334
33958W        W 1026  16.749  33.525   1.295
33959W        W 1027  25.973  11.668   4.353
33960W        W 1028  42.976  23.029   0.434
33961W        W 1029  34.913   1.740  13.542
33962W        W 1030  16.794   9.753   2.251
33963W        W 1031  25.139  12.207   4.124
33964W        W 1032  14.690  42.388  14.478
33965W        W 1033  36.072  39.812  13.474
33966W        W 1034  44.377  34.458   1.231
33967W        W 1035  39.347  41.833   3.215
33968W        W 1036  23.219  32.458  11.409
33969W        W 1037   4.350  21.250   0.837
33970W        W 1038  37.917  33.885   1.828
33971W        W 1039  10.717  34.489  12.532
33972W        W 1040  20.725  25.177  12.994
33973W        W 1041  26.549   9.821   3.701
33974W        W 1042  15.671  11.272   4.798
33975W        W 1043  30.573  18.078   2.874
33976W        W 1044  13.787   2.837  13.941
33977W        W 1045  27.609   4.913   1.867
33978W        W 1046   4.723  16.146  10.494
33979W        W 1047   1.756  15.764  14.793
33980W        W 1048  34.048  28.182  13.430
33981W        W 1049  39.485  10.220  12.544
33982W        W 1050  19.123  11.187  13.863
33983W        W 1051  30.104  24.484  10.132
33984W        W 1052  14.724   1.764  13.019
33985W        W 1053  26.581   2.460   2.770
33986W        W 1054  28.970  19.674  13.467
33987W        W 1055   3.276  44.375   4.629
33988W        W 1056  11.702  15.226   1.918
33989W        W 1057  20.031  34.495  12.854
33990W        W 1058  26.987  26.551   3.318
33991W        W 1059   3.449   3.422   1.934
33992W        W 1060   3.284  40.805  13.453
33993W        W 1061  32.140  39.547   1.695
33994W        W 1062  43.833  11.634   2.867
33995W        W 1063  18.649  37.451  12.073
33996W        W 1064  30.040  38.422   2.891
33997W        W 1065  18.697  20.734  10.958
33998W        W 1066   6.351  24.718  13.017
33999W        W 1067  18.270  34.541   4.123
34000W        W 1068  30.114   5.767  14.315
34001W        W 1069   4.844   8.755   4.668
34002W        W 1070  30.922  42.513   4.829
34003W        W 1071  24.647  43.363  11.978
34004W        W 1072  20.080  35.532  12.547
34005W        W 1073  38.442  43.899  11.602
34006W        W 1074  43.318  16.135   1.272
34007W        W 1075  14.180  24.718   2.729
34008W        W 1076   0.438  33.095   3.151
34009W        W 1077  19.175  20.258   4.687
34010W        W 1078   2.814  22.729   3.652
34011W        W 1079  29.555  25.704  10.129
34012W        W 1080  41.841  11.833   0.342
34013W        W 1081  12.206  15.692   0.374
34014W        W 1082  28.179  13.303   2.314
34015W        W 1083  44.495   4.294   1.238
34016W        W 1084  12.846  18.736  12.366
34017W        W 1085  29.003  43.801  10.569
34018W        W 1086  43.792  41.901  10.887
34019W        W 1087   5.218  30.622   3.249
34020W        W 1088   5.776  15.183   0.774
34021W        W 1089  25.986  34.990   2.745
34022W        W 1090  17.634  39.879   0.332
34023W        W 1091  18.149  18.753  12.939
34024W        W 1092  44.008  28.110   4.165
34025W        W 1093   1.273  24.158   2.410
34026W        W 1094  13.108  11.242   3.336
34027W        W 1095  18.052  10.644   4.151
34028W        W 1096  21.563  15.233  14.501
34029W        W 1097  41.811  13.844   3.823
34030W        W 1098  10.644  29.084   1.264
34031W        W 1099  28.129  14.792   0.346
34032W        W 1100   4.379   6.394  12.498
34033W        W 1101  34.390  26.050  12.570
34034W        W 1102  12.749  38.491   0.777
34035W        W 1103  15.713   2.300  12.462
34036W        W 1104  43.503  17.620   0.832
34037W        W 1105  29.937  13.292   2.849
34038W        W 1106  31.456  34.573  14.838
34039W        W 1107   9.810  36.352   2.683
34040W        W 1108  43.482   6.348  10.018
34041W        W 1109  31.593   5.196  10.912
34042W        W 1110  35.408   7.875   1.399
34043W        W 1111   5.220  36.563  14.282
34044W        W 1112  16.149  35.444   4.602
34045W        W 1113  43.302  23.107  10.570
34046W        W 1114  36.526  27.099  12.477
34047W        W 1115  24.009  31.976   1.344
34048W        W 1116   2.329  26.200   0.835
34049W        W 1117  18.246  28.618   3.766
34050W        W 1118  15.733  35.403   1.417
34051W        W 1119   2.759   3.939   1.440
34052W        W 1120  26.475  36.906   4.115
34053W        W 1121  16.243  11.297  10.942
34054W        W 1122  42.387  13.815   4.784
34055W        W 1123  29.448  37.849   0.904
34056W        W 1124  37.995  10.289   0.358
34057W        W 1125  15.281   5.829  14.486
34058W        W 1126  16.091  18.142   2.732
34059W        W 1127  28.093  15.119   4.791
34060W        W 1128  18.552   6.419   0.391
34061W        W 1129   5.789   2.335   0.871
34062W        W 1130  13.685  34.380   1.895
34063W        W 1131  30.096  39.031   2.367
34064W        W 1132  44.378  34.887   5.267
34065W        W 1133  35.929  34.557   4.796
34066W        W 1134  30.109  14.143  10.507
34067W        W 1135  35.556  20.711   1.787
34068W        W 1136  35.393  39.958   2.761
34069W        W 1137  23.005  21.757  12.482
34070W        W 1138  31.146  11.842  10.933
34071W        W 1139  40.961  20.642  13.970
34072W        W 1140  27.579   3.956   0.419
34073W        W 1141   0.924   4.386  13.482
34074W        W 1142   8.344  17.144   3.248
34075W        W 1143  42.875   9.395  11.540
34076W        W 1144  32.592  28.512   2.268
34077W        W 1145  20.237  34.908   2.712
34078W        W 1146  13.175  35.551  12.420
34079W        W 1147  39.354  33.046  11.029
34080W        W 1148  25.652  38.920   1.242
34081W        W 1149  18.618  42.849  12.096
34082W        W 1150  34.427   4.287  13.847
34083W        W 1151  36.484  44.299   0.415
34084W        W 1152  20.528  30.115  14.005
34085W        W 1153  11.356  13.667   2.259
34086W        W 1154  43.785  23.127  11.578
34087W        W 1155  21.551   6.828   1.818
34088W        W 1156  38.543  44.820   4.265
34089W        W 1157  26.567  37.941   4.200
34090W        W 1158  36.463   2.802  11.404
34091W        W 1159  22.716  37.433   3.177
34092W        W 1160  15.248  40.457  14.313
34093W        W 1161  20.675  10.676   2.192
34094W        W 1162  21.685  25.700  11.446
34095W        W 1163  43.328  17.164  11.884
34096W        W 1164  10.641   2.439   4.209
34097W        W 1165  28.099  29.165  11.075
34098W        W 1166  22.999  22.724   0.299
34099W        W 1167  42.427   1.458   4.310
34100W        W 1168  38.953  42.835  13.336
34101W        W 1169  44.774  33.056  12.579
34102W        W 1170   4.932  22.130  14.482
34103W        W 1171  35.549  27.118  14.838
34104W        W 1172  13.141   4.259   3.161
34105W        W 1173  37.573  44.443   1.436
34106W        W 1174  10.145  11.828  11.087
34107W        W 1175  37.457   0.888   1.851
34108W        W 1176  43.386   2.898  12.425
34109W        W 1177   7.182  13.747   3.780
34110W        W 1178   7.683  13.252  14.875
34111W        W 1179  15.093  27.475   2.742
34112W        W 1180  36.917  43.278   4.170
34113W        W 1181   5.206  12.247  10.930
34114W        W 1182  28.537  23.540   1.696
34115W        W 1183  33.447  24.005  11.576
34116W        W 1184  31.104   4.750  12.922
34117W        W 1185  44.937  16.776   0.436
34118W        W 1186  20.203  11.251  10.640
34119W        W 1187  19.637  12.661  10.552
34120W        W 1188   6.681  12.854   2.346
34121W        W 1189  13.157  36.044  13.381
34122W        W 1190  39.860  22.630  14.445
34123W        W 1191  29.118  11.835   0.902
34124W        W 1192  28.965  17.658   2.851
34125W        W 1193  27.480  13.749  12.404
34126W        W 1194   9.658  20.619  11.995
34127W        W 1195  26.045  20.230   2.408
34128W        W 1196  20.596  42.487  10.609
34129W        W 1197  12.126  27.970  11.918
34130W        W 1198  35.926  11.301  14.282
34131W        W 1199  10.287   9.285  14.995
34132W        W 1200  40.395   9.707   1.712
34133W        W 1201  12.673  24.647  13.891
34134W        W 1202  26.001   8.762  10.533
34135W        W 1203   0.417  24.070   3.830
34136W        W 1204  12.633  10.364  13.933
34137W        W 1205   7.796  17.095  12.923
34138W        W 1206  19.675  21.202   5.188
34139W        W 1207  34.408   5.194  14.963
34140W        W 1208  40.995  44.314   3.639
34141W        W 1209  25.122   3.374  12.854
34142W        W 1210  26.987  41.401   3.836
34143W        W 1211  40.952   2.725   1.820
34144W        W 1212  44.871  44.386   2.723
34145W        W 1213  11.328  21.220   1.714
34146W        W 1214  31.533   4.404   1.220
34147W        W 1215  33.522  22.653   4.622
34148W        W 1216   3.436   5.228  10.598
34149W        W 1217   9.265  30.543   3.635
34150W        W 1218  17.664  40.318  10.512
34151W        W 1219   1.270   8.385   4.272
34152W        W 1220  17.260   8.727   1.786
34153W        W 1221  29.450   0.947  13.494
34154W        W 1222   2.249  38.942   1.757
34155W        W 1223  24.037  27.092  12.514
34156W        W 1224  36.870  36.000   0.402
34157W        W 1225  28.659  23.611   4.754
34158W        W 1226  28.638  17.742  13.954
34159W        W 1227  41.377   6.316  12.936
34160W        W 1228  26.980   9.882   4.176
34161W        W 1229  15.773  10.162  11.923
34162W        W 1230  32.123  35.440  12.848
34163W        W 1231  40.805  17.073  10.933
34164W        W 1232  44.476   9.822  13.325
34165W        W 1233   8.697   6.808   0.959
34166W        W 1234  42.906  35.421  11.596
34167W        W 1235  38.420  39.868   3.227
34168W        W 1236  14.612  28.173  14.013
34169W        W 1237  26.636  39.406   3.752
34170W        W 1238  40.356  41.852  10.412
34171W        W 1239  39.938   3.355   3.206
34172W        W 1240   6.329  40.332  14.318
34173W        W 1241  32.036  32.118   0.790
34174W        W 1242  13.272  15.122   4.188
34175W        W 1243   5.897   3.216  12.025
34176W        W 1244  42.958  27.527  10.531
34177W        W 1245  15.789  17.127   1.225
34178W        W 1246  30.093   3.436   0.766
34179W        W 1247  38.493   6.371   0.923
34180W        W 1248  25.006  44.342  13.000
34181W        W 1249  20.660  27.009  10.632
34182W        W 1250  13.244  20.112   1.393
34183W        W 1251  32.489  24.008  14.888
34184W        W 1252  23.203  11.694  14.913
34185W        W 1253   5.916  25.186   1.340
34186W        W 1254   3.938  26.114   3.748
34187W        W 1255  27.146  37.844   4.720
34188W        W 1256  24.619  14.611   0.375
34189W        W 1257   0.837  14.234  14.382
34190W        W 1258  27.179  21.021  11.070
34191W        W 1259   8.701  22.083   0.461
34192W        W 1260  19.264  35.488   3.383
34193W        W 1261  11.639  41.786  13.485
34194W        W 1262   0.901  16.669   3.865
34195W        W 1263  34.116  22.251  10.906
34196W        W 1264  26.673  17.112   5.214
34197W        W 1265  43.389  18.625   4.290
34198W        W 1266  31.613  40.801   3.708
34199W        W 1267  36.068   1.932  11.076
34200W        W 1268   6.800  19.107  11.593
34201W        W 1269  15.677  30.476   1.373
34202W        W 1270  36.901  21.757   4.745
34203W        W 1271  42.923  36.578  10.637
34204W        W 1272  27.476  13.744   4.705
34205W        W 1273  36.918  33.559  10.583
34206W        W 1274   3.349  17.627  13.918
34207W        W 1275  16.256  17.198   3.174
34208W        W 1276  44.279  36.370   0.956
34209W        W 1277  20.607  27.494   0.788
34210W        W 1278  28.950  30.479   0.408
34211W        W 1279  29.972  23.718  11.407
34212W        W 1280  39.831  36.849   4.158
34213W        W 1281  39.979  32.102   3.798
34214W        W 1282  34.039   6.282  14.500
34215W        W 1283  41.356  42.391   3.250
34216W        W 1284  21.072  31.408   3.667
34217W        W 1285  14.117   5.411   1.277
34218W        W 1286  42.486  15.241   4.220
34219W        W 1287   4.727  34.562   0.263
34220W        W 1288  25.510  15.609   4.827
34221W        W 1289  32.030  20.769  11.096
34222W        W 1290  17.222   9.168  14.485
34223W        W 1291  40.799  20.240  12.416
34224W        W 1292  39.005  18.201  11.526
34225W        W 1293  28.042  39.000   2.315
34226W        W 1294  33.973   3.384   0.421
34227W        W 1295  27.025  29.505   2.237
34228W        W 1296  23.617   4.442  13.931
34229W        W 1297  21.190   7.681   5.274
34230W        W 1298  23.215  42.516   3.274
34231W        W 1299   1.744  37.973   3.690
34232W        W 1300  40.474  31.112   2.233
34233W        W 1301  27.170  39.843  13.477
34234W        W 1302  14.155  12.721   4.779
34235W        W 1303  32.028   9.739   3.372
34236W        W 1304  24.995  10.170   2.816
34237W        W 1305   4.324  17.689  10.485
34238W        W 1306   4.832  10.698   4.704
34239W        W 1307  16.604  13.768   1.261
34240W        W 1308  25.522  15.608   4.326
34241W        W 1309   8.204   8.788   3.744
34242W        W 1310  16.787  34.005   3.377
34243W        W 1311  18.115   1.242   2.254
34244W        W 1312  33.963   9.658  13.462
34245W        W 1313  42.344   3.244  10.420
34246W        W 1314   0.334  21.695   1.730
34247W        W 1315  20.261  41.898   0.407
34248W        W 1316  10.358  40.955  11.485
34249W        W 1317  18.139  28.956   3.686
34250W        W 1318  24.054   1.471  12.379
34251W        W 1319  25.985  18.263   4.747
34252W        W 1320  22.675  16.205   0.845
34253W        W 1321   7.667   7.216  14.874
34254W        W 1322  42.015  42.504   4.599
34255W        W 1323   5.437   6.331  10.601
34256W        W 1324   3.872  16.250   2.844
34257W        W 1325  18.604  16.724   1.916
34258W        W 1326   2.397  13.121  10.559
34259W        W 1327   7.710   2.786  10.580
34260W        W 1328  22.722  38.393   0.432
34261W        W 1329  41.019  33.974   3.723
34262W        W 1330  28.461  43.326   0.450
34263W        W 1331   5.872  24.673   4.195
34264W        W 1332  40.829  27.941  11.508
34265W        W 1333  10.726   3.739  11.085
34266W        W 1334  11.857  42.455   2.277
34267W        W 1335  32.506  43.309  10.591
34268W        W 1336  25.149  14.753  10.903
34269W        W 1337  44.950   4.924  13.997
34270W        W 1338  32.013  11.290  11.879
34271W        W 1339   6.265  31.441   4.188
34272W        W 1340   1.759   5.344   0.360
34273W        W 1341   4.887  38.354   0.963
34274W        W 1342  14.156   2.472   1.860
34275W        W 1343  34.950  18.719   2.209
34276W        W 1344  27.621  27.551   0.360
34277W        W 1345  31.523  42.369   4.685
34278W        W 1346   4.936   2.874   4.230
34279W        W 1347  15.738  44.815  13.390
34280W        W 1348   7.384  42.408  11.052
34281W        W 1349  24.718   4.379  10.444
34282W        W 1350  42.448  28.552   2.705
34283W        W 1351  41.515   1.813  11.994
34284W        W 1352  44.392   8.847   3.784
34285W        W 1353   1.286  44.828  13.821
34286W        W 1354  27.492  27.688  10.963
34287W        W 1355  44.456  20.575  10.008
34288W        W 1356  20.103  35.080   4.276
34289W        W 1357   3.908  30.435   2.300
34290W        W 1358  39.992  11.663   3.313
34291W        W 1359  26.700   9.750   1.868
34292W        W 1360  10.185   9.851  14.469
34293W        W 1361  17.067   5.716   1.434
34294W        W 1362  29.499  44.377   2.223
34295W        W 1363  39.999  42.809   1.792
34296W        W 1364  38.524  40.432   3.740
34297W        W 1365  26.603  20.568  13.460
34298W        W 1366  12.272  36.930   4.830
34299W        W 1367   8.825   8.296   0.845
34300W        W 1368   1.400  43.311   1.926
34301W        W 1369  12.617  13.610  11.109
34302W        W 1370  22.662   9.749   4.201
34303W        W 1371  26.095   6.879   4.336
34304W        W 1372  16.317  44.758  13.973
34305W        W 1373   2.916   6.311   3.733
34306W        W 1374  20.096  21.257   0.798
34307W        W 1375  27.143   8.661   2.368
34308W        W 1376   1.475  43.830  14.371
34309W        W 1377  41.913  44.978  14.791
34310W        W 1378  23.020  26.196  10.969
34311W        W 1379  42.434  10.718   1.439
34312W        W 1380  19.108  35.457  12.404
34313W        W 1381   0.361   6.774   1.292
34314W        W 1382  12.354  13.628  13.435
34315W        W 1383  28.010  23.217   3.285
34316W        W 1384   1.909   6.345  13.904
34317W        W 1385  38.571  27.527   1.729
34318W        W 1386  30.042  15.588   1.373
34319W        W 1387  30.532  13.138  10.506
34320W        W 1388  25.498  11.161   4.658
34321W        W 1389  21.175  26.157   3.264
34322W        W 1390   4.364  16.106  13.433
34323W        W 1391  15.729  25.576   3.641
34324W        W 1392  17.207  18.290   5.202
34325W        W 1393  16.708  18.199  10.937
34326W        W 1394   5.213  17.113   3.703
34327W        W 1395   7.783  21.677   2.683
34328W        W 1396   5.798  44.972   3.265
34329W        W 1397  22.741  11.200  13.805
34330W        W 1398  12.686  36.471   1.415
34331W        W 1399  19.183  39.916   0.324
34332W        W 1400   4.415  40.850   1.723
34333W        W 1401  38.499  13.306  10.603
34334W        W 1402   7.767  44.307  10.978
34335W        W 1403  40.964  21.047  13.540
34336W        W 1404  28.636  32.027   2.379
34337W        W 1405  40.499  31.991  12.068
34338W        W 1406  44.933  32.587   4.752
34339W        W 1407  39.329  22.558  11.058
34340W        W 1408  33.107   2.758   4.806
34341W        W 1409  20.242  12.695   1.390
34342W        W 1410  11.803   7.894   4.354
34343W        W 1411  39.535  10.721  11.899
34344W        W 1412  35.857  25.598   1.349
34345W        W 1413  38.874  17.068  13.425
34346W        W 1414  28.086  12.717   2.414
34347W        W 1415  41.475  32.518   4.824
34348W        W 1416  21.209  33.110   3.238
34349W        W 1417  22.153  42.342  14.840
34350W        W 1418  23.164  22.143   0.786
34351W        W 1419  21.251   7.240   2.209
34352W        W 1420  40.848  30.521   2.368
34353W        W 1421  44.457  44.420  13.922
34354W        W 1422   5.292   5.830  11.574
34355W        W 1423  21.753  25.687   1.377
34356W        W 1424  22.120   3.953   1.300
34357W        W 1425  31.989  16.116   1.399
34358W        W 1426  39.519  36.095   0.440
34359W        W 1427  42.320  20.152  13.368
34360W        W 1428  35.393   2.360  14.457
34361W        W 1429  10.686  19.542  10.463
34362W        W 1430  31.912  38.942   2.877
34363W        W 1431  23.112  17.575  13.489
34364W        W 1432  41.913  10.275   5.117
34365W        W 1433  31.535  18.706  11.023
34366W        W 1434  42.895  43.787   4.835
34367W        W 1435  31.973  36.417  11.399
34368W        W 1436   0.333  40.022  10.479
34369W        W 1437   6.208  29.947   2.243
34370W        W 1438  37.473   7.789  13.970
34371W        W 1439  43.985  17.085  12.434
34372W        W 1440  21.155  44.432  12.982
34373W        W 1441  15.751  39.005   4.293
34374W        W 1442  39.330  44.409  13.031
34375W        W 1443  38.534  39.827   4.634
34376W        W 1444  16.158  19.248  14.797
34377W        W 1445  20.721   1.343  10.413
34378W        W 1446  11.748  43.789   0.821
34379W        W 1447  25.139  16.782   0.861
34380W        W 1448   4.778  18.751  11.561
34381W        W 1449  22.677  20.043   2.198
34382W        W 1450  24.006   7.854   3.332
34383W        W 1451  24.130  13.267   2.235
34384W        W 1452  33.968  14.202   0.809
34385W        W 1453  30.554  18.154   4.352
34386W        W 1454  14.175  18.098   4.759
34387W        W 1455  42.876  19.283   0.895
34388W        W 1456   6.375  31.404  14.337
34389W        W 1457   1.897  25.180   1.917
34390W        W 1458  41.857  21.077   1.367
34391W        W 1459  13.110  29.001  11.553
34392W        W 1460  10.141  24.070   5.092
34393W        W 1461  11.277   1.471   5.739
34394W        W 1462  19.669   3.454  13.446
34395W        W 1463  18.784  11.801  12.534
34396W        W 1464  31.511  34.937  10.531
34397W        W 1465  34.987  30.090  13.870
34398W        W 1466   9.767   5.439  12.343
34399W        W 1467  38.409  23.707  14.430
34400W        W 1468  32.424  44.460  12.566
34401W        W 1469  15.821   5.740  10.925
34402W        W 1470   1.461  23.628   0.733
34403W        W 1471  44.009  26.681  13.064
34404W        W 1472   6.231  40.841  12.917
34405W        W 1473  35.938  16.129   0.326
34406W        W 1474  20.703   1.400  13.516
34407W        W 1475  23.717  37.375  10.921
34408W        W 1476  10.379  18.788  12.465
34409W        W 1477  33.036  42.805   4.650
34410W        W 1478   8.321  41.536  13.900
34411W        W 1479  12.651  29.664   0.769
34412W        W 1480  17.751  16.126  13.389
34413W        W 1481  35.872  23.074   0.729
34414W        W 1482   7.880  12.615  14.865
34415W        W 1483  11.852  16.112   0.787
34416W        W 1484   2.311  40.440   2.679
34417W        W 1485  28.030  17.745  12.481
34418W        W 1486  30.005  38.989   0.736
34419W        W 1487   6.260  42.504   2.178
34420W        W 1488  29.151   4.754   0.929
34421W        W 1489  26.637   4.903   3.362
34422W        W 1490  20.270  35.875  13.336
34423W        W 1491   4.767  11.651   1.269
34424W        W 1492   0.963   5.294   3.251
34425W        W 1493  32.900  16.597  13.324
34426W        W 1494  32.909  35.578  14.427
34427W        W 1495  34.035  31.049   1.732
34428W        W 1496  14.665  28.520   0.787
34429W        W 1497  18.166  29.990   3.782
34430W        W 1498  31.517  38.348  14.294
34431W        W 1499  20.212   9.376  13.405
34432W        W 1500  36.550  24.509   1.712
34433W        W 1501  10.871  12.198  14.814
34434W        W 1502  11.324  28.128  14.415
34435W        W 1503  21.748  15.158  12.558
34436W        W 1504  13.764  25.713  13.042
34437W        W 1505  22.135  12.709   1.850
34438W        W 1506  32.427  43.810   4.598
34439W        W 1507  40.453   9.690  11.873
34440W        W 1508  29.922  40.401  10.893
34441W        W 1509   5.395   0.924  12.463
34442W        W 1510  11.284   9.806   2.282
34443W        W 1511  18.124  40.511  12.469
34444W        W 1512  40.995  15.091  13.033
34445W        W 1513  11.807   5.780  13.393
34446W        W 1514  40.957   4.750   4.273
34447W        W 1515  34.079  32.019   0.332
34448W        W 1516  15.252   3.938  11.572
34449W        W 1517  17.162  19.102  11.964
34450W        W 1518  28.037   8.227   4.636
34451W        W 1519  14.756  21.685  12.849
34452W        W 1520  37.477  42.946   1.733
34453W        W 1521  26.010   1.835  13.397
34454W        W 1522  10.807  38.539   3.706
34455W        W 1523  15.277   4.284   0.952
34456W        W 1524  44.460  21.077   2.214
34457W        W 1525   4.766  17.687   5.172
34458W        W 1526   0.371   3.837  11.070
34459W        W 1527  33.528  27.952   5.164
34460W        W 1528   4.249  43.288   4.120
34461W        W 1529  42.809   4.265   1.881
34462W        W 1530  21.145   0.321   3.334
34463W        W 1531  27.514  33.449   1.221
34464W        W 1532   4.450  35.443  13.360
34465W        W 1533  38.547  35.081  12.479
34466W        W 1534  11.295  25.478   2.699
34467W        W 1535  10.875   7.296   2.415
34468W        W 1536  23.173   3.882   2.710
34469W        W 1537  22.674   6.332   2.857
34470W        W 1538   4.397  43.966   4.234
34471W        W 1539  14.801  15.284  10.951
34472W        W 1540  30.093  20.679  13.318
34473W        W 1541  35.589  34.079   3.679
34474W        W 1542  36.985  43.958  11.002
34475W        W 1543  20.245  29.960   1.899
34476W        W 1544  11.826  44.978   1.748
34477W        W 1545   3.794   1.879   5.247
34478W        W 1546  10.292  39.876   2.364
34479W        W 1547  11.319   4.757   0.846
34480W        W 1548   3.393  17.114   4.675
34481W        W 1549   8.295  37.854  14.396
34482W        W 1550  12.190   8.399  11.930
34483W        W 1551  41.312  39.536  14.858
34484W        W 1552  39.934  15.797   9.946
34485W        W 1553  31.935  20.734   3.330
34486W        W 1554  41.963  30.653   1.846
34487W        W 1555  33.894  33.547  13.455
34488W        W 1556   4.419  40.494  13.513
34489W        W 1557  27.680  21.147  10.945
34490W        W 1558  13.123  36.935   4.711
34491W        W 1559   8.307   0.475  14.423
34492W        W 1560  44.279  22.225  11.481
34493W        W 1561  13.760  34.374  12.866
34494W        W 1562  26.499  24.641  14.362
34495W        W 1563  36.370  22.696  14.768
34496W        W 1564  33.130  19.194  12.087
34497W        W 1565  36.966   7.739   1.868
34498W        W 1566  43.438  33.388   1.434
34499W        W 1567  29.143   8.793  11.909
34500W        W 1568  27.951  15.711  14.784
34501W        W 1569  24.113  26.564  13.903
34502W        W 1570  33.999  44.814   2.881
34503W        W 1571   8.241   2.893  11.915
34504W        W 1572  28.451  14.684   2.239
34505W        W 1573  21.549  23.545  13.460
34506W        W 1574  22.087  32.607  11.929
34507W        W 1575   3.338  42.452  14.020
34508W        W 1576  15.143  15.728   3.352
34509W        W 1577  35.047  35.018  13.987
34510W        W 1578   1.783  37.457   3.370
34511W        W 1579   7.270  14.816  13.959
34512W        W 1580  21.567  13.702  14.391
34513W        W 1581  41.868  19.698  12.083
34514W        W 1582   3.298  43.832  10.596
34515W        W 1583  44.283  40.485  14.295
34516W        W 1584  35.988   0.977  12.932
34517W        W 1585   5.841  20.661   5.319
34518W        W 1586  36.869   2.225   1.742
34519W        W 1587  44.936   3.328  12.570
34520W        W 1588   4.393   0.922  14.027
34521W        W 1589  20.694  25.179  11.502
34522W        W 1590  10.287  18.140   4.828
34523W        W 1591   9.180  36.386   4.253
34524W        W 1592  30.560  37.975  12.430
34525W        W 1593   7.388   5.237  13.318
34526W        W 1594  39.017  29.553   2.403
34527W        W 1595   8.846  39.964   4.812
34528W        W 1596   5.766  43.277   0.397
34529W        W 1597  35.983  26.145   4.830
34530W        W 1598  22.216  26.663   1.314
34531W        W 1599   0.838  13.633   0.327
34532W        W 1600   5.419   2.355   3.735
34533W        W 1601  17.598  42.862   1.393
34534W        W 1602  23.517   8.655   2.270
34535W        W 1603  43.808  35.071   3.779
34536W        W 1604  14.183  28.661   4.250
34537W        W 1605  37.349  25.497  10.611
34538W        W 1606  14.296  40.438  13.025
34539W        W 1607  32.040  31.634  14.506
34540W        W 1608  27.121  42.344  14.466
34541W        W 1609   1.399  34.999  12.980
34542W        W 1610  14.334  17.739  14.394
34543W        W 1611  13.726  41.488  10.976
34544W        W 1612   5.875  29.616  12.377
34545W        W 1613  25.987  35.068  12.506
34546W        W 1614  35.971  31.629  10.439
34547W        W 1615  10.799  11.712  10.911
34548W        W 1616  28.185  24.580   0.771
34549W        W 1617  17.599  20.107   5.254
34550W        W 1618  43.941  26.462  12.094
34551W        W 1619  36.863  10.780  14.320
34552W        W 1620  25.974  10.276  12.444
34553W        W 1621  10.320   3.329   0.897
34554W        W 1622   6.745   0.761   4.769
34555W        W 1623  39.380  39.414  10.460
34556W        W 1624   2.360  20.160   4.681
34557W        W 1625  24.145  31.058  10.483
34558W        W 1626  31.028  27.071   0.758
34559W        W 1627  35.898  32.122  10.910
34560W        W 1628   1.403  21.208  11.583
34561W        W 1629   4.305  23.684  12.844
34562W        W 1630  21.684   0.930   3.741
34563W        W 1631  21.159   3.418   2.352
34564W        W 1632  13.804  17.713  12.942
34565W        W 1633  41.392  11.679  14.368
34566W        W 1634  26.540  20.257   2.755
34567W        W 1635   4.879   3.312   3.186
34568W        W 1636  24.608  44.786   2.394
34569W        W 1637  33.073  32.024   0.902
34570W        W 1638  35.465   1.410   3.244
34571W        W 1639  34.573   6.920   1.260
34572W        W 1640  19.260  30.629   0.780
34573W        W 1641  24.639   4.411  11.896
34574W        W 1642  33.968   6.365   3.354
34575W        W 1643  20.246  34.987  12.391
34576W        W 1644  36.078  13.207  14.813
34577W        W 1645  43.510  25.691  11.512
34578W        W 1646  15.138  43.472   0.909
34579W        W 1647  25.578  42.989   3.231
34580W        W 1648  11.674  27.478  13.892
34581W        W 1649  11.817  13.836  11.526
34582W        W 1650  14.135  21.087  10.454
34583W        W 1651  21.681   8.673  10.943
34584W        W 1652  22.510  28.577   4.777
34585W        W 1653  12.177  18.164  11.127
34586W        W 1654  37.348   9.223   0.475
34587W        W 1655   6.897   8.810   1.855
34588W        W 1656   8.251   4.292   3.802
34589W        W 1657  18.590  38.984  11.121
34590W        W 1658   6.814   0.383  10.980
34591W        W 1659  27.692  12.732  11.943
34592W        W 1660  12.257  29.966   2.283
34593W        W 1661   4.894   5.706  14.394
34594W        W 1662  42.982  23.499  13.803
34595W        W 1663   8.386   1.445  12.925
34596W        W 1664  23.002   4.803  14.840
34597W        W 1665  18.156  19.124   3.636
34598W        W 1666  14.209  29.470   3.668
34599W        W 1667  30.414  18.091  14.007
34600W        W 1668  25.625   1.731  10.451
34601W        W 1669  11.358  17.774   2.870
34602W        W 1670  36.841  38.554   1.738
34603W        W 1671  23.529  19.659  14.931
34604W        W 1672   8.343  34.043   3.862
34605W        W 1673  25.072  25.618  10.475
34606W        W 1674   1.805   7.398  14.765
34607W        W 1675  19.680  31.937   4.348
34608W        W 1676   9.688  35.474   2.407
34609W        W 1677  36.033  29.660  13.865
34610W        W 1678  17.567  10.319   9.966
34611W        W 1679  20.207  24.565   0.396
34612W        W 1680   8.258  23.618  12.342
34613W        W 1681  25.546  12.152   2.329
34614W        W 1682   4.352  41.816   2.709
34615W        W 1683  31.530  26.600  11.499
34616W        W 1684   6.893   5.250   3.652
34617W        W 1685  12.795  32.531   3.309
34618W        W 1686  30.095   8.808  13.373
34619W        W 1687  42.375  24.195   2.325
34620W        W 1688  38.892  25.205  14.852
34621W        W 1689   5.274  16.569   4.734
34622W        W 1690  36.408  20.168  12.472
34623W        W 1691  32.554   1.253  12.504
34624W        W 1692  42.935   4.818  13.922
34625W        W 1693   8.375  44.989  14.844
34626W        W 1694   6.211  13.831  12.045
34627W        W 1695  14.676  28.989   1.415
34628W        W 1696  35.513  11.741   2.303
34629W        W 1697  16.686  24.540   2.198
34630W        W 1698   0.969  37.997  13.489
34631W        W 1699  15.749  16.214   2.692
34632W        W 1700  36.856  39.383  10.974
34633W        W 1701  23.535  38.340   3.661
34634W        W 1702  26.995  31.625   2.386
34635W        W 1703  14.239  20.121   2.378
34636W        W 1704  32.072   7.405  11.450
34637W        W 1705  34.560  22.174  14.950
34638W        W 1706  18.145   5.724   1.234
34639W        W 1707  31.540  19.237   1.219
34640W        W 1708  10.703   5.696   0.917
34641W        W 1709  35.603  38.954  10.525
34642W        W 1710  23.680  13.224  13.460
34643W        W 1711   7.389  41.437  10.923
34644W        W 1712  26.539  33.470   3.640
34645W        W 1713  34.370  40.883  13.800
34646W        W 1714  26.183  29.028   2.211
34647W        W 1715  37.336  11.243   0.434
34648W        W 1716  11.778  34.006  14.994
34649W        W 1717  25.187  44.474  11.464
34650W        W 1718  31.508  44.457  11.964
34651W        W 1719  44.967  11.853  11.103
34652W        W 1720  44.923  43.999   0.814
34653W        W 1721  14.249  19.061  12.945
34654W        W 1722  36.453  12.255  12.966
34655W        W 1723  11.219  43.493  14.941
34656W        W 1724  22.056  27.543   3.348
34657W        W 1725   3.782   3.828   1.881
34658W        W 1726   2.428  10.235  14.312
34659W        W 1727  16.719  42.406  12.029
34660W        W 1728  36.995   2.827   3.841
34661W        W 1729   5.316  43.269   1.326
34662W        W 1730  19.599  18.166   2.228
34663W        W 1731  43.316  13.607   4.185
34664W        W 1732   8.268  16.267  14.480
34665W        W 1733   0.266  42.368   0.788
34666W        W 1734  24.994  29.038   2.211
34667W        W 1735  19.541  21.717   2.809
34668W        W 1736   0.317   7.401  10.500
34669W        W 1737   4.326  37.971  10.587
34670W        W 1738  40.927  20.617  11.513
34671W        W 1739   6.283  34.495  14.496
34672W        W 1740  13.280  37.887  12.869
34673W        W 1741  28.059  28.509  12.383
34674W        W 1742  21.222  31.992  10.564
34675W        W 1743   0.963   1.404   4.288
34676W        W 1744  42.384  41.426  12.412
34677W        W 1745  34.928  32.542   1.231
34678W        W 1746   3.370   9.721   1.709
34679W        W 1747   4.882  43.443  10.515
34680W        W 1748   6.906  32.398  12.072
34681W        W 1749  23.134   2.236  10.932
34682W        W 1750  28.562  44.390  13.971
34683W        W 1751  29.657  41.983  13.399
34684W        W 1752  21.117  19.638   2.720
34685W        W 1753  12.803  34.957   4.686
34686W        W 1754   2.746  32.954  10.477
34687W        W 1755   4.779  32.468  10.904
34688W        W 1756  11.261   0.944  12.453
34689W        W 1757  34.871  36.385   4.214
34690W        W 1758  19.123  26.197  14.831
34691W        W 1759   2.801   7.352  12.425
34692W        W 1760  29.538   9.200  12.931
34693W        W 1761  17.159  35.969  14.480
34694W        W 1762  20.252  36.534  13.945
34695W        W 1763  33.446  22.555  12.379
34696W        W 1764  16.291   1.463   2.755
34697W        W 1765   7.214  17.171   2.751
34698W        W 1766  30.457   1.312  10.531
34699W        W 1767   9.854  32.958   0.959
34700W        W 1768  36.394  27.560   4.774
34701W        W 1769  14.129   9.202  12.831
34702W        W 1770   1.789  43.418  12.857
34703W        W 1771  23.127  31.583  13.961
34704W        W 1772  32.472  33.605   0.423
34705W        W 1773   9.872  31.994   2.723
34706W        W 1774  10.662  15.200   3.807
34707W        W 1775  40.372  19.561   3.747
34708W        W 1776  14.695  18.591   1.422
34709W        W 1777  21.586  26.633   1.383
34710W        W 1778  26.208  13.182   0.443
34711W        W 1779  38.889  30.160   3.256
34712W        W 1780  40.029  27.489  11.901
34713W        W 1781  14.692  42.317   3.364
34714W        W 1782   3.788   5.290   2.774
34715W        W 1783   5.744  36.931   4.817
34716W        W 1784  14.309  29.950  10.536
34717W        W 1785  31.017  29.119   4.760
34718W        W 1786  43.878   7.210  10.950
34719W        W 1787  26.984   7.785   1.933
34720W        W 1788  22.018  21.543  13.442
34721W        W 1789  12.792  26.694  14.423
34722W        W 1790  25.020  10.317   5.221
34723W        W 1791  31.965   9.802   2.845
34724W        W 1792  31.034  42.460  11.406
34725W        W 1793  15.584  36.565  11.472
34726W        W 1794  41.896  10.384   4.189
34727W        W 1795  24.543  29.511   4.737
34728W        W 1796   7.682   7.696   2.675
34729W        W 1797   9.193  10.314   3.748
34730W        W 1798  34.993  14.105   1.781
34731W        W 1799  44.404  17.757  10.942
34732W        W 1800  34.042  10.187   2.664
34733W        W 1801  30.568   9.875  12.994
34734W        W 1802  12.762   1.363  10.638
34735W        W 1803  21.712  26.523  14.811
34736W        W 1804  38.024  15.128   0.263
34737W        W 1805  38.833  21.239  11.578
34738W        W 1806  25.054  43.879   0.418
34739W        W 1807  13.306  36.969  13.800
34740W        W 1808  41.402  19.264  14.470
34741W        W 1809  22.605   7.287   9.936
34742W        W 1810  10.200  36.581  11.087
34743W        W 1811  21.659  35.970   2.396
34744W        W 1812   4.258   7.389  13.056
34745W        W 1813  14.760   1.278  10.583
34746W        W 1814  38.409   8.702   2.680
34747W        W 1815  42.477  19.538  14.376
34748W        W 1816  40.872  32.474   0.832
34749W        W 1817  34.589  25.087  12.994
34750W        W 1818  41.010  38.560   2.772
34751W        W 1819  10.729   8.871   1.241
34752W        W 1820  18.709  32.584   1.441
34753W        W 1821  43.953   4.890   3.756
34754W        W 1822   4.262  19.069   4.695
34755W        W 1823  21.225  18.209   9.923
34756W        W 1824   4.330  23.598  13.350
34757W        W 1825  39.840  23.171   0.789
34758W        W 1826   9.736  12.662   2.856
34759W        W 1827  13.809  39.462  11.510
34760W        W 1828  10.707  38.000   1.423
34761W        W 1829  33.880  44.770   0.832
34762W        W 1830  16.643  11.324   0.349
34763W        W 1831  39.972  18.262   1.862
34764W        W 1832  30.440  27.461  10.482
34765W        W 1833   1.944   1.417  10.961
34766W        W 1834  37.413   3.297  14.861
34767W        W 1835   2.781  27.079   1.270
34768W        W 1836  11.370  44.883   4.244
34769W        W 1837  42.383  34.540  11.858
34770W        W 1838  33.570   5.884   1.323
34771W        W 1839  20.611   4.699   2.780
34772W        W 1840   9.861  43.351  12.041
34773W        W 1841  17.794  30.125   1.889
34774W        W 1842  13.844   5.871   1.722
34775W        W 1843  13.309  15.629   1.924
34776W        W 1844  29.919   3.874  12.982
34777W        W 1845  44.825  38.526   3.662
34778W        W 1846  10.156  40.823  10.923
34779W        W 1847  30.158  35.049   4.834
34780W        W 1848  10.270   1.805   0.337
34781W        W 1849  27.041  36.971  12.519
34782W        W 1850  38.356  15.311  13.424
34783W        W 1851  27.530  13.645   3.750
34784W        W 1852  38.558  40.049   0.915
34785W        W 1853  11.691  24.593  12.520
34786W        W 1854  36.389  26.547   1.434
34787W        W 1855  18.097  19.267  12.943
34788W        W 1856  44.450  29.106  10.443
34789W        W 1857   4.847   8.221  12.534
34790W        W 1858  20.607  13.186   3.687
34791W        W 1859  37.520  38.414  11.478
34792W        W 1860  16.183   0.358  13.816
34793W        W 1861  44.887  41.325  11.486
34794W        W 1862   8.832  41.005  14.883
34795W        W 1863  17.246  27.959   3.301
34796W        W 1864  26.619  11.264  12.854
34797W        W 1865  24.096  38.430  12.501
34798W        W 1866  11.784   5.896   2.204
34799W        W 1867  26.515  13.713  11.989
34800W        W 1868  35.922   9.756   1.832
34801W        W 1869  42.447  26.481  11.555
34802W        W 1870  28.959  34.102  12.850
34803W        W 1871  17.718  28.666  13.033
34804W        W 1872  37.950  18.549  11.413
34805W        W 1873   9.860  27.614  14.443
34806W        W 1874   7.686  36.880  11.434
34807W        W 1875   6.307  31.403   3.793
34808W        W 1876   6.705  22.212   4.748
34809W        W 1877  11.261   8.743   2.718
34810W        W 1878  38.515  28.941   1.810
34811W        W 1879  31.933  22.537   2.204
34812W        W 1880   2.923   6.791  10.909
34813W        W 1881  24.158   6.182  12.889
34814W        W 1882   2.893   7.735   1.403
34815W        W 1883   8.307   5.870  13.368
34816W        W 1884   4.230  23.122   0.964
34817W        W 1885  19.160  31.039  12.400
34818W        W 1886  34.452   1.377  11.470
34819W        W 1887   2.354  22.145  13.923
34820W        W 1888  30.491  10.264  13.840
34821W        W 1889   6.771   0.402  13.914
34822W        W 1890   5.757  30.657  13.916
34823W        W 1891   8.391  29.148   1.210
34824W        W 1892   2.316  38.992  14.833
34825W        W 1893   2.254  32.427   4.824
34826W        W 1894  11.808   3.711  11.530
34827W        W 1895  18.672  25.517  12.973
34828W        W 1896  43.499  15.752   2.219
34829W        W 1897  23.059  23.718   1.247
34830W        W 1898  14.314  38.829  12.873
34831W        W 1899   6.834  37.565   1.732
34832W        W 1900  21.536  37.938   2.192
34833W        W 1901  34.027  12.855   2.751
34834W        W 1902   2.450  40.903   3.259
34835W        W 1903  27.082  37.882   3.297
34836W        W 1904  15.260  28.541   1.369
34837W        W 1905  29.082  15.190   1.368
34838W        W 1906  39.998   6.721   1.243
34839W        W 1907  37.523  40.824  14.952
34840W        W 1908  24.198  11.364   1.837
34841W        W 1909  41.309   4.257   0.955
34842W        W 1910  36.399   5.735  11.393
34843W        W 1911   7.910  25.015  12.370
34844W        W 1912  34.018   0.940  12.574
34845W        W 1913   1.441  22.054  12.386
34846W        W 1914  14.132   2.353  14.316
34847W        W 1915  16.590   2.228   4.727
34848W        W 1916  23.730  15.797   3.742
34849W        W 1917  10.163   0.928  13.030
34850W        W 1918  43.960  20.040   0.878
34851W        W 1919  41.887   4.226   3.235
34852W        W 1920   9.671  22.621   0.931
34853W        W 1921  41.922  43.975   4.265
34854W        W 1922  13.846  44.823  10.977
34855W        W 1923  39.406  19.620  11.389
34856W        W 1924  22.197  25.142  10.909
34857W        W 1925  39.968   5.933   2.388
34858W        W 1926  37.051  22.033   3.846
34859W        W 1927   0.976  20.162  14.498
34860W        W 1928   2.400   5.414  12.942
34861W        W 1929  27.633  19.778  14.299
34862W        W 1930  30.648  39.459   1.724
34863W        W 1931  42.016   3.891   4.197
34864W        W 1932  28.435  25.013   0.243
34865W        W 1933  17.691  40.890   0.382
34866W        W 1934   1.402  44.934  10.500
34867W        W 1935   6.371  38.430  14.891
34868W        W 1936   8.680   8.790  10.114
34869W        W 1937  24.228  37.563   1.881
34870W        W 1938  15.257  28.064   4.267
34871W        W 1939  43.399  22.592  14.922
34872W        W 1940   7.278  17.186  10.625
34873W        W 1941  44.466  14.110   5.143
34874W        W 1942  27.120   6.922   2.406
34875W        W 1943  10.234  43.864   3.718
34876W        W 1944  37.579  27.550  10.485
34877W        W 1945  18.232  10.876  11.420
34878W        W 1946  13.323  12.792   2.379
34879W        W 1947  17.124  22.131   2.761
34880W        W 1948  19.246  28.011   3.815
34881W        W 1949  24.020  32.012  12.074
34882W        W 1950  34.534   4.878   2.331
34883W        W 1951  10.792  20.120  12.942
34884W        W 1952  26.697  29.441  13.862
34885W        W 1953  22.118  41.963  13.516
34886W        W 1954   6.281  11.749  10.073
34887W        W 1955  31.402  31.897   5.264
34888W        W 1956  17.670  39.846  13.369
34889W        W 1957  28.940  19.573   0.255
34890W        W 1958   7.348  25.073   0.876
34891W        W 1959  36.402  30.157   1.325
34892W        W 1960  41.836   0.282   0.454
34893W        W 1961  14.624  31.500   2.689
34894W        W 1962   5.873   0.344  10.599
34895W        W 1963   4.729  22.744  11.858
34896W        W 1964   3.794  29.596  13.036
34897W        W 1965  27.956   0.400   4.822
34898W        W 1966   9.698  42.983   2.341
34899W        W 1967  26.183   5.331  13.970
34900W        W 1968  24.208  19.266  10.532
34901W        W 1969  23.698  43.430   4.787
34902W        W 1970  39.376  10.780  14.764
34903W        W 1971  21.619  12.251  14.859
34904W        W 1972  25.512   6.327  14.468
34905W        W 1973  17.709  26.964  13.809
34906W        W 1974  27.992  42.961  13.034
34907W        W 1975   6.819  12.154  11.025
34908W        W 1976   5.440  26.114  12.514
34909W        W 1977  19.149   8.181  14.023
34910W        W 1978   8.894   4.739  12.069
34911W        W 1979  15.823   3.236   4.784
34912W        W 1980  44.396  16.245   2.777
34913W        W 1981  37.847  19.669  12.409
34914W        W 1982  30.500  12.316  12.448
34915W        W 1983  40.901   1.408  14.001
34916W        W 1984  35.029  10.224  10.888
34917W        W 1985  27.023   0.320   1.314
34918W        W 1986  17.590  37.964   3.664
34919W        W 1987  29.520   7.173   2.843
34920W        W 1988  31.149   7.675   1.695
34921W        W 1989  22.112  44.879   4.220
34922W        W 1990   1.353  16.233   1.228
34923W        W 1991   3.443  13.730  10.516
34924W        W 1992  42.394   3.296  12.347
34925W        W 1993  22.731  10.807   0.749
34926W        W 1994   3.947  21.703  14.349
34927W        W 1995  26.191   2.863   3.252
34928W        W 1996  16.101  15.671   1.213
34929W        W 1997  24.156   9.733   0.780
34930W        W 1998  41.368  27.464  10.596
34931W        W 1999   7.208  29.621   2.816
34932W        W 2000  40.865  17.068   1.846
34933W        W 2001  42.420  24.598  11.586
34934W        W 2002  19.271  20.083  10.085
34935W        W 2003  26.637  30.165  11.113
34936W        W 2004  20.522  11.855  11.390
34937W        W 2005  44.485  34.399  12.361
34938W        W 2006  38.859  23.550  14.000
34939W        W 2007  29.482   4.438  12.534
34940W        W 2008  43.892   0.305  10.887
34941W        W 2009  26.578  34.466  12.078
34942W        W 2010  19.754  38.973   1.788
34943W        W 2011   8.276  24.667   0.431
34944W        W 2012   1.955   4.867   4.797
34945W        W 2013  17.567  22.629   2.178
34946W        W 2014  21.601   8.354  14.994
34947W        W 2015  28.466   1.267  10.623
34948W        W 2016   0.915   2.948  14.438
34949W        W 2017  42.011  23.559  14.504
34950W        W 2018  23.035  37.444  14.947
34951W        W 2019  10.868  24.017  11.974
34952W        W 2020  10.864  11.338   2.389
34953W        W 2021  30.658  41.851  14.853
34954W        W 2022   0.866  28.581  14.981
34955W        W 2023  35.584  24.197  11.018
34956W        W 2024  35.572   4.347  10.587
34957W        W 2025  15.284  41.358   4.765
34958W        W 2026  40.906  19.625  11.526
34959W        W 2027  33.081  11.783   4.187
34960W        W 2028  41.344  24.647  13.319
34961W        W 2029  15.231  35.919   1.866
34962W        W 2030  39.829  28.532   2.262
34963W        W 2031  44.311   4.302  12.062
34964W        W 2032  30.586  23.999  14.979
34965W        W 2033  39.034  37.504   1.223
34966W        W 2034  36.880  20.217  14.789
34967W        W 2035  18.619  44.772  11.013
34968W        W 2036  17.652   2.463   0.760
34969W        W 2037  15.810   9.373   2.295
34970W        W 2038  25.702  31.562   0.744
34971W        W 2039   2.813  41.878   1.227
34972W        W 2040  35.515  18.646  13.841
34973W        W 2041  23.991  36.353  12.417
34974W        W 2042  19.236  32.958   2.769
34975W        W 2043  10.290   4.732  14.980
34976W        W 2044  28.937  35.448   0.738
34977W        W 2045  35.525   9.859   1.272
34978W        W 2046   5.351   6.700  10.513
34979W        W 2047  18.753  20.629  11.496
34980W        W 2048   1.742  21.544  12.859
34981W        W 2049   2.727   7.747   3.356
34982W        W 2050  29.472  11.630   0.916
34983W        W 2051  13.629  10.868   4.140
34984W        W 2052  25.702  28.632   2.758
34985W        W 2053   2.859  32.561  10.519
34986W        W 2054  29.426  26.198  11.411
34987W        W 2055  18.636  17.299  13.382
34988W        W 2056  42.803  14.341   0.416
34989W        W 2057  35.516  42.809   3.387
34990W        W 2058  32.578  42.869   1.435
34991W        W 2059  22.573  18.101  11.578
34992W        W 2060  24.026  35.076  14.502
34993W        W 2061  30.157  30.099  10.567
34994W        W 2062  36.519  35.977  13.046
34995W        W 2063  16.300   9.784   1.788
34996W        W 2064  14.712  11.840  10.512
34997W        W 2065  43.496  39.441   0.824
34998W        W 2066  17.090  21.737   1.832
34999W        W 2067  43.409  31.647  12.434
35000W        W 2068  27.050   0.469  12.379
35001W        W 2069  36.549  30.096  13.012
35002W        W 2070  44.328   8.194   4.785
35003W        W 2071  17.654  41.899  11.888
35004W        W 2072   0.391  41.845   0.251
35005W        W 2073  36.899  11.213   3.840
35006W        W 2074  19.758  17.569  15.000
35007W        W 2075  38.898  42.946  12.494
35008W        W 2076  34.988  12.154   2.220
35009W        W 2077  33.874  37.370   4.226
35010W        W 2078  13.663  42.995   1.434
35011W        W 2079   7.307  18.237   2.686
35012W        W 2080  16.782   0.959  13.445
35013W        W 2081  22.196  24.505   1.321
35014W        W 2082  20.183   3.712   0.446
35015W        W 2083  16.171   2.861  11.408
35016W        W 2084  31.993  21.630   4.706
35017W        W 2085  28.158   8.875  10.565
35018W        W 2086  19.638  44.448  13.469
35019W        W 2087   7.670  44.848  10.611
35020W        W 2088   1.376  28.137   3.246
35021W        W 2089  41.359  26.659  10.641
35022W        W 2090  41.503  38.828  13.491
35023W        W 2091   3.787  13.696   3.301
35024W        W 2092  36.420  21.749  13.329
35025W        W 2093  43.978  29.022  12.429
35026W        W 2094   0.422   0.381   4.334
35027W        W 2095  38.900   4.325  11.995
35028W        W 2096  32.107   8.309   4.669
35029W        W 2097  24.559  27.187   0.958
35030W        W 2098   6.339   8.761   3.774
35031W        W 2099  38.846  30.542  12.491
35032W        W 2100  39.985  31.531  13.798
35033W        W 2101  41.843   6.860  12.528
35034W        W 2102  21.535   9.227   0.453
35035W        W 2103   3.876  13.799  11.001
35036W        W 2104   1.854  28.560  12.412
35037W        W 2105  29.960  21.712   4.821
35038W        W 2106  18.660   3.723   4.742
35039W        W 2107  41.520   4.829   4.270
35040W        W 2108   1.411  34.392  11.929
35041W        W 2109  36.454  38.887   0.732
35042W        W 2110  13.288   4.432   2.289
35043W        W 2111   0.838  27.981   4.729
35044W        W 2112  18.227  12.619  10.985
35045W        W 2113  27.467  21.656   2.319
35046W        W 2114   4.932  19.666   1.699
35047W        W 2115  16.738  15.663  12.872
35048W        W 2116   4.910   6.207  11.536
35049W        W 2117  13.217  39.034   2.743
35050W        W 2118  20.155  21.203   1.249
35051W        W 2119  14.621   6.205  12.028
35052W        W 2120  31.442  12.318   0.427
35053W        W 2121  18.610   6.284   4.151
35054W        W 2122  21.675  44.275  14.927
35055W        W 2123  33.093  41.999  11.446
35056W        W 2124  27.530  43.941   4.751
35057W        W 2125  44.482  26.140   1.377
35058W        W 2126  11.746  22.200  13.539
35059W        W 2127  31.617  36.575  11.903
35060W        W 2128  21.514  18.059  10.927
35061W        W 2129  26.098  36.959  12.369
35062W        W 2130  16.143  16.581  13.541
35063W        W 2131   1.246  28.505   2.719
35064W        W 2132   8.680  10.656  14.918
35065W        W 2133  35.977  35.983  14.356
35066W        W 2134  39.893   0.816  10.488
35067W        W 2135  34.523  27.505  12.064
35068W        W 2136  32.439  29.053  13.029
35069W        W 2137   8.257  15.658  10.507
35070W        W 2138  30.985  40.489  11.460
35071W        W 2139  24.706  18.132  14.917
35072W        W 2140   0.461  32.608   9.514
35073W        W 2141  25.151  10.635  14.958
35074W        W 2142   0.932  28.669   1.258
35075W        W 2143  27.125  32.005   2.182
35076W        W 2144   5.699  24.508   0.865
35077W        W 2145  14.631  25.996   3.700
35078W        W 2146  13.835   1.749   1.816
35079W        W 2147  36.349  35.986   3.268
35080W        W 2148  12.241   5.925   3.285
35081W        W 2149   6.256  17.081  11.127
35082W        W 2150  30.589   4.713   4.245
35083W        W 2151  33.079  17.084   4.703
35084W        W 2152   6.887  29.029  13.793
35085W        W 2153  27.481  10.288   1.246
35086W        W 2154  15.329  17.686   0.753
35087W        W 2155  35.893   0.862  11.586
35088W        W 2156  27.064   4.816   1.808
35089W        W 2157  11.329  42.848  10.511
35090W        W 2158   4.205  27.548  11.375
35091W        W 2159  35.560   0.390  14.950
35092W        W 2160   3.358   6.241   1.279
35093W        W 2161   4.846   3.453  10.468
35094W        W 2162  26.680  22.024  14.940
35095W        W 2163   3.822  32.419   0.800
35096W        W 2164  33.400   7.322  14.832
35097W        W 2165  44.272  43.471   0.930
35098W        W 2166  20.596  44.457  11.855
35099W        W 2167   9.392  35.919  12.939
35100W        W 2168  21.653  42.999   4.271
35101W        W 2169  16.578  20.749  14.493
35102W        W 2170  31.614  28.155  14.510
35103W        W 2171   3.833  41.333   0.728
35104W        W 2172  13.308   8.217   1.823
35105W        W 2173  38.973  34.021   3.352
35106W        W 2174  42.806  30.493  11.083
35107W        W 2175  39.868  40.989   3.183
35108W        W 2176  22.239  38.981   0.262
35109W        W 2177   5.757  11.775  12.444
35110W        W 2178  32.956  18.293   0.784
35111W        W 2179   1.319  43.477  13.945
35112W        W 2180   9.218  17.622  14.404
35113W        W 2181  16.688  27.021   3.714
35114W        W 2182  14.749  21.053   0.329
35115W        W 2183  14.143   5.699   3.331
35116W        W 2184   8.657  34.461   2.357
35117W        W 2185  33.610  13.779   1.340
35118W        W 2186  34.035  34.080   3.742
35119W        W 2187  43.408  32.940   0.355
35120W        W 2188  11.251  10.215   0.257
35121W        W 2189   0.756  16.110   0.410
35122W        W 2190  37.548  33.098   0.443
35123W        W 2191  11.807  39.373   0.867
35124W        W 2192  32.401   2.228   2.715
35125W        W 2193   2.786   8.757   0.454
35126W        W 2194  34.612   4.331   3.316
35127W        W 2195  32.117  23.086  13.907
35128W        W 2196  38.436  29.014   2.396
35129W        W 2197  33.999  42.356   0.805
35130W        W 2198   0.766  28.505   2.203
35131W        W 2199  34.086  39.397   2.288
35132W        W 2200   3.718  13.126  14.275
35133W        W 2201  12.854  44.997  13.001
35134W        W 2202  14.661   9.386  13.534
35135W        W 2203  11.833   4.911   5.121
35136W        W 2204  28.556   9.820  10.587
35137W        W 2205  32.930  30.538  13.053
35138W        W 2206   2.439  35.414  13.950
35139W        W 2207  37.981  36.018  13.005
35140W        W 2208  11.150   7.212   1.715
35141W        W 2209  39.391  25.964  11.562
35142W        W 2210  37.491  17.203  12.884
35143W        W 2211  32.114  26.582  13.024
35144W        W 2212  30.155  41.978   0.868
35145W        W 2213  10.775  16.115   0.763
35146W        W 2214  44.331  15.578  12.072
35147W        W 2215  35.561  10.639   1.749
35148W        W 2216  11.747  33.402   2.280
35149W        W 2217  43.895  13.192  13.040
35150W        W 2218  41.808   9.872  14.963
35151W        W 2219   1.868   7.866  14.010
35152W        W 2220  38.557  29.051   0.967
35153W        W 2221  28.443  22.101   3.827
35154W        W 2222   1.308  36.514   4.788
35155W        W 2223  18.655  19.201  11.900
35156W        W 2224  32.051   1.943   3.211
35157W        W 2225  18.131  30.150  13.928
35158W        W 2226  14.316   0.797   3.191
35159W        W 2227  18.635   5.831   2.895
35160W        W 2228  43.844  13.622   1.274
35161W        W 2229  10.225  35.549  13.364
35162W        W 2230  36.397  31.041   0.801
35163W        W 2231   1.374   5.864  11.439
35164W        W 2232  38.531  40.501   1.444
35165W        W 2233  23.099  42.876   3.292
35166W        W 2234  25.475  39.908   1.330
35167W        W 2235   3.459   2.738  14.354
35168W        W 2236   9.884  16.626  11.882
35169W        W 2237   4.229  38.027   4.271
35170W        W 2238   6.735  36.401   3.641
35171W        W 2239  17.699  18.057  14.379
35172W        W 2240  25.643   7.790  12.424
35173W        W 2241  24.079   4.443   2.206
35174W        W 2242   0.320  14.742  14.381
35175W        W 2243  34.601  29.479  10.936
35176W        W 2244  35.010  19.654   0.966
35177W        W 2245  30.100  14.287   1.874
35178W        W 2246  25.073  19.724  12.526
35179W        W 2247  16.739  30.984  12.931
35180W        W 2248  12.711  16.577   1.863
35181W        W 2249   5.208  39.848   2.249
35182W        W 2250  32.543  42.344  14.849
35183W        W 2251   3.732  35.869  12.093
35184W        W 2252   0.247   1.427   0.796
35185W        W 2253  37.555  33.050   4.160
35186W        W 2254  24.223  43.377   1.216
35187W        W 2255  38.025  39.837  12.071
35188W        W 2256  24.578   5.688   4.792
35189W        W 2257  21.086  43.817  12.507
35190W        W 2258  34.406   8.762   3.175
35191W        W 2259  36.380   4.944   4.258
35192W        W 2260   5.313   9.208   2.296
35193W        W 2261   6.802  16.703  11.078
35194W        W 2262  22.510  21.184   2.348
35195W        W 2263   5.842  21.186  12.000
35196W        W 2264  22.693  13.817   2.869
35197W        W 2265  40.020  44.403   1.266
35198W        W 2266  27.678  16.163  11.399
35199W        W 2267  38.515   6.263   4.741
35200W        W 2268  36.053  15.782   0.397
35201W        W 2269  41.787  43.278   3.203
35202W        W 2270   7.857  26.540  13.873
35203W        W 2271   9.219  26.958   4.198
35204W        W 2272  28.083  29.000  10.486
35205W        W 2273  23.088  24.704   4.745
35206W        W 2274  37.467  32.441  14.291
35207W        W 2275   7.239  13.673   2.347
35208W        W 2276  33.564   1.407   3.289
35209W        W 2277  26.629  44.326   5.249
35210W        W 2278   3.238  19.058   1.881
35211W        W 2279  43.482  23.191  12.841
35212W        W 2280  26.641   5.433  13.872
35213W        W 2281  42.482  27.105   3.178
35214W        W 2282  21.570  10.311   4.348
35215W        W 2283  15.112  36.964   0.873
35216W        W 2284  41.887  34.604  12.073
35217W        W 2285  30.040   0.492   2.882
35218W        W 2286  24.689  16.220   0.407
35219W        W 2287  11.691  13.674  12.865
35220W        W 2288  21.111   7.810  13.323
35221W        W 2289  26.585  11.802   4.609
35222W        W 2290  39.813  12.848   2.331
35223W        W 2291  12.681  17.769   1.848
35224W        W 2292  22.645   0.340   3.700
35225W        W 2293  17.601   2.226   2.828
35226W        W 2294   4.373  12.217   0.435
35227W        W 2295  42.324   7.374  13.526
35228W        W 2296  28.002  20.700  14.281
35229W        W 2297  36.053  40.351  11.497
35230W        W 2298  34.587  39.532  13.444
35231W        W 2299   8.737  38.859   3.328
35232W        W 2300   8.224  16.594  10.977
35233W        W 2301  22.034   6.193  11.088
35234W        W 2302  21.079  23.066   2.889
35235W        W 2303   2.885  44.936  13.403
35236W        W 2304  27.496  16.720  10.478
35237W        W 2305  41.968  28.505  14.889
35238W        W 2306  12.649  15.297   4.254
35239W        W 2307  24.013  39.337  14.486
35240W        W 2308  17.621  33.483   2.327
35241W        W 2309  42.371  38.905   1.877
35242W        W 2310  41.307  34.596  11.446
35243W        W 2311  12.237  13.264   4.251
35244W        W 2312  39.901  43.509  12.559
35245W        W 2313   8.895   6.239  10.964
35246W        W 2314   8.336  40.855   0.951
35247W        W 2315   1.410  29.172   4.642
35248W        W 2316  34.947  23.179   1.862
35249W        W 2317  10.276   8.352   0.807
35250W        W 2318  20.146  16.149   3.257
35251W        W 2319   9.777  36.550  14.804
35252W        W 2320  20.708  42.800   0.967
35253W        W 2321  32.975   9.194  14.402
35254W        W 2322   6.742   9.654   3.733
35255W        W 2323  11.632  24.537   2.318
35256W        W 2324  17.287  36.038  13.329
35257W        W 2325  22.588  17.670   4.699
35258W        W 2326  30.467  14.775  12.393
35259W        W 2327   2.427  28.049  14.283
35260W        W 2328  22.587  38.919  13.959
35261W        W 2329   4.341  17.641  11.388
35262W        W 2330  25.507   8.249   3.300
35263W        W 2331  16.229  11.141  13.914
35264W        W 2332  44.869  18.273   0.354
35265W        W 2333  40.916  26.953   0.483
35266W        W 2334  32.619   7.368   5.151
35267W        W 2335   7.704  30.614  12.943
35268W        W 2336  42.859  22.203  12.477
35269W        W 2337  38.878  38.882  12.034
35270W        W 2338  36.026  17.260  11.933
35271W        W 2339   7.289  28.444   3.301
35272W        W 2340  40.941  21.055  12.088
35273W        W 2341  27.100  28.603   3.280
35274W        W 2342  34.419   6.375   4.660
35275W        W 2343  21.217  17.749   4.141
35276W        W 2344  33.065  12.815  12.844
35277W        W 2345  16.688  16.130  11.108
35278W        W 2346  24.492   1.888   1.421
35279W        W 2347  15.678   1.886  13.371
35280W        W 2348  16.622  35.363   1.286
35281W        W 2349  12.200  43.987   2.368
35282W        W 2350   2.340  36.082  10.991
35283W        W 2351  18.287  39.818  12.883
35284W        W 2352  15.604   5.813  14.023
35285W        W 2353  36.468  24.531  11.915
35286W        W 2354  26.168   2.246  13.810
35287W        W 2355   9.680   9.776  14.308
35288W        W 2356  28.988  14.822   4.146
35289W        W 2357  29.560   7.721  11.991
35290W        W 2358  23.565  26.206  13.982
35291W        W 2359  29.563  31.135   0.306
35292W        W 2360   8.742  16.776   4.330
35293W        W 2361  41.349  10.843   0.327
35294W        W 2362  23.551   1.731   3.292
35295W        W 2363  31.125  22.057   2.728
35296W        W 2364  15.249  26.014   0.868
35297W        W 2365   8.751  26.673  14.009
35298W        W 2366  41.305   7.688   4.802
35299W        W 2367  40.348   4.699   1.699
35300W        W 2368  24.555   2.381   1.291
35301W        W 2369   0.923  38.334   0.269
35302W        W 2370   0.315  29.482  14.455
35303W        W 2371  44.918  27.504  13.938
35304W        W 2372  32.036   1.240   4.304
35305W        W 2373  22.021  26.059  14.973
35306W        W 2374  30.562  42.883   4.240
35307W        W 2375  31.980   0.779  13.877
35308W        W 2376  30.623  42.449  11.500
35309W        W 2377  39.904  23.072  14.336
35310W        W 2378  17.073  40.335   4.132
35311W        W 2379  24.169  27.108  11.979
35312W        W 2380  18.628  11.644   2.850
35313W        W 2381  15.328  32.617  13.991
35314W        W 2382   4.886  41.517  13.401
35315W        W 2383  17.270  14.203  13.003
35316W        W 2384  29.102  16.131   0.334
35317W        W 2385  29.171  22.045  13.486
35318W        W 2386  14.590  25.969  10.448
35319W        W 2387  19.566  18.218   1.895
35320W        W 2388  28.085  27.454   0.402
35321W        W 2389  38.571  42.323  10.901
35322W        W 2390   8.339   3.772   0.768
35323W        W 2391   3.801   3.253   0.947
35324W        W 2392  42.847  39.974   2.207
35325W        W 2393  20.690  40.504  14.920
35326W        W 2394  37.408   1.430   2.706
35327W        W 2395  31.035   5.870   4.354
35328W        W 2396   8.858   7.394   4.196
35329W        W 2397  13.327  38.352   0.810
35330W        W 2398   3.912  15.715   4.179
35331W        W 2399  19.547  13.218   5.147
35332W        W 2400   9.169  36.415  11.920
35333W        W 2401  36.992  42.403   2.195
35334W        W 2402  18.189  44.825   3.827
35335W        W 2403   3.802   1.466  14.823
35336W        W 2404  25.633  44.835   4.306
35337W        W 2405  32.459  20.635  13.966
35338W        W 2406  10.809  27.115   0.768
35339W        W 2407  30.627  20.549   0.311
35340W        W 2408   5.272  12.336  14.474
35341W        W 2409  43.873  32.136  10.571
35342W        W 2410  22.242   8.848  14.839
35343W        W 2411   8.761  14.264  13.050
35344W        W 2412  24.695   4.914   2.720
35345W        W 2413   9.778  36.870   3.210
35346W        W 2414  30.942   0.461   2.294
35347W        W 2415  15.219  29.502  13.493
35348W        W 2416  12.334  28.951   3.184
35349W        W 2417  23.130  13.237   3.828
35350W        W 2418  27.663   2.796  10.520
35351W        W 2419   4.282  11.746   0.822
35352W        W 2420   2.342  10.779  13.037
35353W        W 2421  28.528  38.332   3.864
35354W        W 2422  28.977  29.012  11.991
35355W        W 2423  21.739  14.175  11.988
35356W        W 2424   8.818  17.225  13.312
35357W        W 2425  29.088  32.544  12.995
35358W        W 2426   5.251  18.638   2.345
35359W        W 2427  18.717   5.380  11.971
35360W        W 2428  21.676  21.247   3.228
35361W        W 2429  16.118  41.371   1.340
35362W        W 2430   9.850  15.794   0.270
35363W        W 2431   8.307  16.682   0.798
35364W        W 2432  33.545  38.045   2.861
35365W        W 2433  32.557   3.450  13.976
35366W        W 2434  26.598  28.159  12.533
35367W        W 2435  32.634  26.570   2.739
35368W        W 2436   0.749   6.417  10.510
35369W        W 2437  40.809  20.532   0.383
35370W        W 2438  32.142  44.294  11.553
35371W        W 2439  29.102   0.270  12.425
35372W        W 2440  16.726  19.736   3.314
35373W        W 2441  41.960  40.898  14.430
35374W        W 2442  41.440  23.683  13.341
35375W        W 2443   3.711  37.392   0.316
35376W        W 2444  12.744  41.018  11.123
35377W        W 2445   8.742   1.889   3.253
35378W        W 2446  22.150  31.640  10.551
35379W        W 2447  22.184  10.211   4.825
35380W        W 2448   4.699  28.080   3.629
35381W        W 2449  29.661  19.142   3.799
35382W        W 2450  37.359  40.533   1.779
35383W        W 2451  23.736  42.999   4.678
35384W        W 2452   0.464   9.257  13.516
35385W        W 2453   8.329  33.560   4.325
35386W        W 2454  32.024  31.592  13.847
35387W        W 2455   7.237   0.309   0.756
35388W        W 2456  19.632   9.717   3.762
35389W        W 2457  24.200  37.363  10.146
35390W        W 2458  35.604  29.430   0.953
35391W        W 2459  42.313   2.285   4.127
35392W        W 2460  13.749  42.332   0.913
35393W        W 2461  14.715  36.876   3.720
35394W        W 2462  16.279   4.926  14.829
35395W        W 2463  41.909  22.171   4.329
35396W        W 2464  18.242  41.329  14.356
35397W        W 2465   7.303  31.608   2.666
35398W        W 2466  26.175   8.369  14.340
35399W        W 2467  31.026  43.789  11.375
35400W        W 2468  31.114  26.483   9.981
35401W        W 2469  20.557  25.634   3.865
35402W        W 2470  13.824   0.920  14.809
35403W        W 2471  43.320  17.292   9.970
35404W        W 2472  23.734  25.651   4.773
35405W        W 2473   4.805  35.031  13.871
35406W        W 2474  12.185  37.390   4.235
35407W        W 2475  19.039  39.852   1.410
35408W        W 2476  44.915  36.400  13.320
35409W        W 2477  44.823  26.548   4.812
35410W        W 2478   0.826  21.667   3.841
35411W        W 2479   7.842  25.078   1.814
35412W        W 2480  19.732  34.993  14.779
35413W        W 2481  43.957  29.471   1.750
35414W        W 2482  21.097  38.996  13.879
35415W        W 2483  32.105  36.921  11.421
35416W        W 2484  27.595   0.945  13.374
35417W        W 2485  36.386  38.451  10.641
35418W        W 2486   6.825  11.644  13.015
35419W        W 2487  43.492  25.600   0.479
35420W        W 2488  41.858  34.498  11.381
35421W        W 2489  26.988   0.809  12.066
35422W        W 2490  16.080  40.939  14.361
35423W        W 2491   4.351  31.570  12.965
35424W        W 2492   6.212  13.712  10.642
35425W        W 2493  40.450   8.719   3.160
35426W        W 2494  40.026  41.447  14.849
35427W        W 2495   5.320  17.166  12.871
35428W        W 2496  27.603  19.652   0.764
35429W        W 2497  27.037  21.568  10.416
35430W        W 2498  31.403  30.091   3.164
35431W        W 2499  11.703  33.004  10.485
35432W        W 2500  23.183   8.819   1.713
35433W        W 2501  41.407  40.420  12.480
35434W        W 2502   8.240  22.052  13.051
35435W        W 2503  16.588  26.646   3.297
35436W        W 2504  29.987   0.464  10.589
35437W        W 2505  36.081  17.276   1.709
35438W        W 2506  16.572   7.675  12.995
35439W        W 2507  40.404   1.269  14.030
35440W        W 2508  32.073  26.111  12.468
35441W        W 2509  23.564  29.175  12.878
35442W        W 2510  21.145  40.908   5.683
35443W        W 2511  38.030  43.965   0.794
35444W        W 2512  37.879   0.414  10.929
35445W        W 2513  26.072  26.981   2.752
35446W        W 2514   7.247  39.843  11.127
35447W        W 2515  41.349  34.565   4.666
35448W        W 2516   8.194  30.133   3.354
35449W        W 2517  16.580   6.327  11.886
35450W        W 2518  38.366  35.518   3.742
35451W        W 2519  34.545   5.698  11.895
35452W        W 2520   6.267   7.394   3.205
35453W        W 2521   1.838  39.336  10.938
35454W        W 2522  13.111  36.549   3.333
35455W        W 2523  43.465  22.636  10.458
35456W        W 2524  37.830   0.838  13.905
35457W        W 2525   7.284   1.940  13.029
35458W        W 2526  38.972   5.742  10.900
35459W        W 2527  39.008  39.002  14.947
35460W        W 2528   6.281  18.659  11.447
35461W        W 2529  17.620   6.806   4.321
35462W        W 2530  28.537  18.548   4.228
35463W        W 2531  36.962  14.141   4.806
35464W        W 2532   4.249  34.517  13.489
35465W        W 2533   6.879  40.393  14.346
35466W        W 2534  15.725  40.511   4.300
35467W        W 2535  18.577  23.576  12.064
35468W        W 2536  34.558  29.151  12.078
35469W        W 2537   7.744  11.851  10.999
35470W        W 2538  27.120  23.626   3.693
35471W        W 2539  42.940   1.304  10.437
35472W        W 2540   5.864  37.365  10.918
35473W        W 2541  18.761   8.860  11.493
35474W        W 2542  17.572  25.709   3.772
35475W        W 2543  21.552  19.252  10.424
35476W        W 2544  18.622  40.390  14.427
35477W        W 2545  16.619  17.661  13.817
35478W        W 2546  44.922  13.290  13.980
35479W        W 2547  19.553  39.373   3.866
35480W        W 2548  15.229  24.528  12.852
35481W        W 2549  10.146  39.961  13.027
35482W        W 2550   7.826  28.003  14.789
35483W        W 2551  36.531  33.611  10.491
35484W        W 2552   6.792  27.481  14.288
35485W        W 2553  26.166  16.200   4.124
35486W        W 2554  27.080  38.010   1.747
35487W        W 2555  12.851   5.861  13.444
35488W        W 2556  10.179   4.281  13.799
35489W        W 2557  26.512  35.044  11.869
35490W        W 2558  40.347  18.758  14.338
35491W        W 2559  32.575  32.067   4.739
35492W        W 2560  25.023  26.634  13.382
35493W        W 2561  40.869   8.889   0.874
35494W        W 2562   7.902   7.266   0.960
35495W        W 2563  33.433  10.154   0.896
35496W        W 2564   1.467  36.535  13.044
35497W        W 2565  29.098  41.978  13.365
35498W        W 2566  36.024  22.583  14.986
35499W        W 2567  36.858   4.246  14.404
35500W        W 2568   6.680  25.654   2.414
35501W        W 2569  11.697  21.197  12.512
35502W        W 2570   3.397  10.870  13.532
35503W        W 2571  31.491  13.263   4.691
35504W        W 2572   9.859  16.306   4.685
35505W        W 2573  21.690  32.067   0.328
35506W        W 2574  26.593  13.762  13.531
35507W        W 2575  29.134  34.083   3.752
35508W        W 2576  15.170   1.820  14.425
35509W        W 2577   5.910  40.808  10.551
35510W        W 2578  33.933   5.806  14.962
35511W        W 2579   1.866  28.139  11.601
35512W        W 2580  20.720  24.537   2.847
35513W        W 2581   9.813  17.734  12.842
35514W        W 2582   0.954  42.304  14.425
35515W        W 2583  26.034   8.745  11.548
35516W        W 2584  14.228  14.637  14.446
35517W        W 2585  13.280  41.537   4.353
35518W        W 2586  36.915  21.244  12.005
35519W        W 2587  36.843   1.434  13.927
35520W        W 2588  40.856  30.485  10.624
35521W        W 2589  40.437  43.872  12.902
35522W        W 2590  20.261  27.487   5.088
35523W        W 2591  18.773  28.983  14.934
35524W        W 2592  25.066  29.119  13.841
35525W        W 2593  23.627   0.451   0.855
35526W        W 2594  27.527   1.902   3.831
35527W        W 2595  29.527   8.898   3.807
35528W        W 2596  17.613  27.655   0.774
35529W        W 2597  34.912  33.056   3.273
35530W        W 2598  40.907   1.373   2.377
35531W        W 2599  15.246  11.706  12.927
35532W        W 2600  39.018  19.195   0.896
35533W        W 2601  13.211   8.866  12.950
35534W        W 2602  13.747   3.745  10.414
35535W        W 2603  23.678  23.153  14.965
35536W        W 2604  25.101  18.572  10.956
35537W        W 2605   8.215  39.489  13.991
35538W        W 2606  35.935   5.294  12.951
35539W        W 2607  21.747  32.076   3.187
35540W        W 2608  18.205  21.537  13.792
35541W        W 2609   6.183  35.892   2.231
35542W        W 2610  27.647   7.742  14.959
35543W        W 2611  19.167  18.602  14.467
35544W        W 2612   9.261  41.317  12.863
35545W        W 2613  22.114  10.803   2.771
35546W        W 2614  33.401   0.335   2.329
35547W        W 2615  27.969  10.179  10.982
35548W        W 2616   4.410   6.737   4.827
35549W        W 2617   2.241  26.687  11.389
35550W        W 2618  40.497  26.665  11.552
35551W        W 2619  38.516  33.386  11.945
35552W        W 2620  11.668  19.587   3.211
35553W        W 2621  42.522  11.734   4.293
35554W        W 2622   7.882  31.431   4.738
35555W        W 2623  27.560  17.244   4.615
35556W        W 2624  29.060  42.028  11.527
35557W        W 2625  14.645  42.893   1.930
35558W        W 2626   8.673  11.745   2.721
35559W        W 2627  40.904  32.474  12.416
35560W        W 2628  28.501   2.889  12.545
35561W        W 2629  18.696  41.028  10.611
35562W        W 2630   4.919  24.053  13.906
35563W        W 2631   0.958  35.107   0.852
35564W        W 2632  23.076  25.709  11.077
35565W        W 2633  24.496  25.168  11.952
35566W        W 2634  20.559   1.932   1.756
35567W        W 2635  14.787   2.785   1.249
35568W        W 2636  41.483  33.434   4.322
35569W        W 2637   5.402  23.607   5.124
35570W        W 2638   1.402  21.572   4.700
35571W        W 2639  21.735   6.793   2.681
35572W        W 2640   4.809  15.680   3.672
35573W        W 2641  44.761  25.567  12.050
35574W        W 2642  34.433  23.607  13.047
35575W        W 2643   9.878  28.030   2.180
35576W        W 2644  10.293   2.796   3.314
35577W        W 2645  39.970   4.813  14.287
35578W        W 2646  39.326   2.907  14.988
35579W        W 2647  39.387  15.683   4.664
35580W        W 2648  40.372  13.113  13.998
35581W        W 2649   9.649  44.957  11.547
35582W        W 2650  22.102  35.544   1.435
35583W        W 2651  42.869  33.438   2.392
35584W        W 2652  26.136   2.929   3.817
35585W        W 2653   0.964  15.284  14.022
35586W        W 2654  28.607  31.122   2.256
35587W        W 2655   0.974   4.446   1.227
35588W        W 2656  33.524   6.800  12.561
35589W        W 2657   8.828  39.004   1.346
35590W        W 2658  21.119   8.867  10.580
35591W        W 2659  34.952   8.657  12.344
35592W        W 2660  33.035  41.311  11.866
35593W        W 2661   5.763   1.969   1.215
35594W        W 2662  41.371  31.414   1.291
35595W        W 2663  28.174  22.144   0.873
35596W        W 2664  27.528   4.719  11.993
35597W        W 2665   0.368   7.222   3.837
35598W        W 2666  15.234  10.197  10.497
35599W        W 2667  26.694   1.238   3.844
35600W        W 2668  34.909  27.562   3.775
35601W        W 2669  28.505  41.433   1.352
35602W        W 2670  43.871  44.410   0.739
35603W        W 2671  26.207  21.032  11.024
35604W        W 2672  29.439   1.739  13.898
35605W        W 2673  32.437  15.090  10.486
35606W        W 2674  37.969  13.220  14.449
35607W        W 2675  42.355   6.268  14.876
35608W        W 2676  38.969  22.546  13.043
35609W        W 2677  10.384  31.930   0.424
35610W        W 2678  43.430  19.704  10.440
35611W        W 2679  36.391   0.276  11.864
35612W        W 2680  33.876  11.637   3.353
35613W        W 2681  28.012  38.515   2.679
35614W        W 2682   1.308  14.668  11.611
35615W        W 2683   6.812  22.085   2.702
35616W        W 2684  35.011  21.169  13.942
35617W        W 2685  29.164  31.619  14.843
35618W        W 2686  29.943  34.447  11.525
35619W        W 2687  28.559   0.908  14.420
35620W        W 2688  19.145  31.637   2.184
35621W        W 2689   6.849   5.752  14.400
35622W        W 2690  24.091   1.862   0.300
35623W        W 2691  22.539  10.355   9.988
35624W        W 2692  36.073  17.190  10.610
35625W        W 2693  37.963  32.604  12.379
35626W        W 2694  10.383  17.143  14.391
35627W        W 2695  23.040  27.072   0.816
35628W        W 2696  29.142  18.246  10.505
35629W        W 2697  38.566  17.793  13.892
35630W        W 2698  13.777  17.099  13.934
35631W        W 2699  36.026   8.332   3.867
35632W        W 2700  43.506  44.927   0.883
35633W        W 2701  15.593  30.964  10.478
35634W        W 2702  10.149  20.599   3.652
35635W        W 2703  43.938  25.672  11.996
35636W        W 2704  29.089  19.213   3.765
35637W        W 2705  35.087  20.547  13.541
35638W        W 2706  44.840  23.713   3.703
35639W        W 2707  28.103  10.832  12.986
35640W        W 2708  33.488  14.261   1.883
35641W        W 2709  28.563  40.425   1.319
35642W        W 2710  15.150  13.170  13.962
35643W        W 2711  12.234  41.982  10.973
35644W        W 2712  20.110  41.966  14.001
35645W        W 2713  23.186  44.321  10.423
35646W        W 2714  14.629  16.278  11.936
35647W        W 2715  20.637   9.697   2.258
35648W        W 2716  38.941  20.231   2.865
35649W        W 2717   5.829  16.594   9.604
35650W        W 2718  26.027  12.728   4.726
35651W        W 2719  24.725  21.551  13.407
35652W        W 2720   2.429  23.708  14.287
35653W        W 2721   3.890  11.368   0.258
35654W        W 2722  27.627  17.234   1.864
35655W        W 2723  23.660  21.070   1.362
35656W        W 2724  18.178  44.805   2.824
35657W        W 2725   7.905  32.108  11.572
35658W        W 2726  30.075  26.566   2.903
35659W        W 2727  35.592  37.971  11.010
35660W        W 2728  19.207  26.467  12.422
35661W        W 2729  14.325  35.551  11.472
35662W        W 2730  43.775  17.765  14.369
35663W        W 2731  23.204   2.810  12.558
35664W        W 2732  16.759  44.883   2.774
35665W        W 2733  22.730  44.900   0.359
35666W        W 2734  13.785  23.508  13.891
35667W        W 2735  33.012   0.880  10.504
35668W        W 2736  38.068  30.946   1.856
35669W        W 2737   2.392  17.070   1.237
35670W        W 2738  31.102  36.418  13.468
35671W        W 2739  25.195  11.818   1.437
35672W        W 2740  10.717  19.730   4.780
35673W        W 2741  14.693  20.249   2.190
35674W        W 2742  13.740   8.741   4.161
35675W        W 2743   4.390   1.836   3.335
35676W        W 2744  41.498  19.676   2.260
35677W        W 2745  37.410  13.701   1.285
35678W        W 2746   0.334  14.179   3.284
35679W        W 2747  15.215  16.085  11.543
35680W        W 2748   2.363  17.773   2.274
35681W        W 2749  44.274  11.856   0.817
35682W        W 2750   8.210   5.845   4.793
35683W        W 2751  27.158  34.581   0.481
35684W        W 2752   2.316  19.703   2.708
35685W        W 2753  30.646  18.718   1.433
35686W        W 2754   4.874  25.193   2.191
35687W        W 2755  44.375  15.741   0.470
35688W        W 2756   6.699   8.222  11.096
35689W        W 2757  22.121   1.934   4.708
35690W        W 2758  38.876   0.950  14.820
35691W        W 2759  31.102  16.287   3.675
35692W        W 2760  30.156   4.286  14.300
35693W        W 2761  24.004  30.454  10.574
35694W        W 2762  43.404  30.937   3.156
35695W        W 2763  26.531  29.063   3.171
35696W        W 2764  24.107  35.965  14.435
35697W        W 2765  30.619   3.854   1.898
35698W        W 2766   2.276  39.944  11.422
35699W        W 2767  16.242  31.620  12.941
35700W        W 2768  17.204  11.295  14.307
35701W        W 2769   6.240  20.106  14.425
35702W        W 2770  41.502  34.877   0.245
35703W        W 2771   8.172  29.059  12.379
35704W        W 2772  14.125   7.268  10.946
35705W        W 2773  24.669  12.725  13.411
35706W        W 2774   9.839  31.089  14.422
35707W        W 2775   9.804  13.751  13.474
35708W        W 2776   1.861  23.651   0.280
35709W        W 2777  44.279   4.268   3.796
35710W        W 2778  44.431  34.415   4.631
35711W        W 2779  31.490  37.533   3.154
35712W        W 2780  41.873  16.110  13.834
35713W        W 2781  25.965  26.608  11.966
35714W        W 2782   0.422  42.901  13.429
35715W        W 2783  19.552  43.878  13.487
35716W        W 2784   5.757  33.069  10.499
35717W        W 2785  28.679   8.181   3.666
35718W        W 2786  35.064  44.325   1.233
35719W        W 2787  20.099  15.805  10.508
35720W        W 2788  17.070  24.125   5.308
35721W        W 2789   7.305  15.125  14.379
35722W        W 2790  33.402  16.688  13.510
35723W        W 2791   9.341  18.154   2.699
35724W        W 2792  22.734  11.675  11.963
35725W        W 2793   0.359  25.121   3.857
35726W        W 2794  42.448  19.052   3.853
35727W        W 2795  32.948  24.589  11.560
35728W        W 2796  44.907  27.586   1.834
35729W        W 2797  10.142   1.895   3.311
35730W        W 2798  20.589   2.937   3.317
35731W        W 2799  18.202   1.284  11.373
35732W        W 2800  15.730  42.021  13.516
35733W        W 2801  39.440  36.548  11.857
35734W        W 2802   1.274  21.115   4.243
35735W        W 2803   5.311  29.148  12.836
35736W        W 2804  33.129  27.125   0.318
35737W        W 2805  32.925  30.052  13.031
35738W        W 2806  32.068  30.068   3.646
35739W        W 2807  28.971  36.592  13.042
35740W        W 2808  26.550  44.828   3.721
35741W        W 2809  23.647  28.437  12.029
35742W        W 2810   9.740  17.166  14.984
35743W        W 2811  15.134  26.632   0.937
35744W        W 2812  36.413  29.658  14.781
35745W        W 2813  20.556  10.870   1.798
35746W        W 2814  10.161   1.821  13.400
35747W        W 2815  41.381   3.889   2.867
35748W        W 2816  40.899   1.347   1.791
35749W        W 2817   6.832   6.699   4.125
35750W        W 2818  27.447   5.814  11.042
35751W        W 2819  24.645  25.467  13.362
35752W        W 2820  22.543  21.716   0.771
35753W        W 2821  11.324  32.467  10.412
35754W        W 2822   9.359   9.186  14.451
35755W        W 2823  42.891  37.893  12.827
35756W        W 2824  41.901   7.883  10.983
35757W        W 2825   7.719  33.585   0.317
35758W        W 2826  41.310  28.533  14.022
35759W        W 2827  11.211  15.705   2.751
35760W        W 2828  29.994  25.529  14.025
35761W        W 2829  20.681  24.090   1.270
35762W        W 2830  23.515  13.350   4.753
35763W        W 2831   2.293  36.517  10.892
35764W        W 2832  15.265  17.275  13.919
35765W        W 2833   1.314  14.821   3.169
35766W        W 2834  25.046  33.479   1.735
35767W        W 2835  24.164  30.653  11.569
35768W        W 2836  43.877   5.703   3.320
35769W        W 2837  16.317  21.555  14.311
35770W        W 2838  29.132  33.017   2.361
35771W        W 2839  35.907   7.870  13.513
35772W        W 2840   7.311  20.139   4.259
35773W        W 2841  31.601  29.520  10.560
35774W        W 2842   3.731  26.700  10.994
35775W        W 2843  42.947  41.954  12.041
35776W        W 2844  21.574  42.998   0.795
35777W        W 2845  25.191  35.603   2.834
35778W        W 2846  12.260   4.360  14.511
35779W        W 2847  26.542   9.816   2.822
35780W        W 2848  29.572  29.012  13.867
35781W        W 2849  32.908  28.680   0.322
35782W        W 2850  23.061  33.586  13.989
35783W        W 2851  37.915  30.650  12.854
35784W        W 2852  20.704  33.387   2.896
35785W        W 2853  21.121  24.621  12.852
35786W        W 2854  16.233  13.302   2.828
35787W        W 2855  43.838  31.936   3.204
35788W        W 2856  33.395   5.742  12.548
35789W        W 2857  14.611  16.259   1.380
35790W        W 2858  17.170  21.650   0.763
35791W        W 2859  39.380  11.773  11.934
35792W        W 2860  11.689  28.676   0.411
35793W        W 2861   5.417   3.383   3.741
35794W        W 2862  14.259   8.391  13.031
35795W        W 2863  24.999  30.996   3.675
35796W        W 2864  42.436   7.697  11.482
35797W        W 2865   1.832   2.756   1.243
35798W        W 2866  43.404   4.726   1.912
35799W        W 2867  19.624   4.231   4.336
35800W        W 2868  37.495  16.140   3.300
35801W        W 2869  27.662  33.055  12.506
35802W        W 2870  13.658   9.168   2.284
35803W        W 2871  15.686  35.363  14.012
35804W        W 2872  35.932  29.937   1.340
35805W        W 2873  18.611  23.734   3.811
35806W        W 2874  26.624  16.114  12.536
35807W        W 2875   2.806  37.957  11.441
35808W        W 2876  25.564  22.070  11.974
35809W        W 2877  39.534  30.449  13.339
35810W        W 2878  14.786  20.763   2.198
35811W        W 2879   1.919   6.235   3.148
35812W        W 2880  10.338  20.062   0.826
35813W        W 2881  37.465  44.010  11.471
35814W        W 2882  10.151  37.556  14.455
35815W        W 2883  12.703   5.374   0.734
35816W        W 2884  14.285  36.488   2.205
35817W        W 2885  25.535  15.145  12.443
35818W        W 2886   5.838  43.871  14.315
35819W        W 2887  15.716  28.525   3.292
35820W        W 2888  42.432   7.406   1.340
35821W        W 2889  25.574  31.970   0.295
35822W        W 2890  44.885  14.621   1.867
35823W        W 2891  27.079   6.185  14.856
35824W        W 2892  40.016  20.579   3.729
35825W        W 2893  29.027  15.740  12.994
35826W        W 2894  43.015   6.190   5.149
35827W        W 2895  29.040  22.651  12.542
35828W        W 2896   7.739   2.736   1.333
35829W        W 2897  44.312   0.480   9.966
35830W        W 2898  41.345  26.158  10.409
35831W        W 2899  31.909  37.523   0.417
35832W        W 2900  43.862   4.410   4.279
35833W        W 2901  22.109  30.461   0.946
35834W        W 2902  39.819  36.461  13.039
35835W        W 2903  41.877   1.968  10.416
35836W        W 2904  39.398   2.823   1.908
35837W        W 2905  15.242   2.457  11.485
35838W        W 2906  14.787  44.917   3.379
35839W        W 2907  43.425  14.727  14.862
35840W        W 2908  20.170  32.121   1.743
35841W        W 2909  31.600   9.261  14.404
35842W        W 2910   4.217  36.013  12.423
35843W        W 2911  35.517  34.998  11.385
35844W        W 2912   2.374  38.351   3.766
35845W        W 2913   5.233  39.893   0.429
35846W        W 2914   1.439  13.205  14.939
35847W        W 2915  17.173  40.020   1.397
35848W        W 2916   9.667  22.014   2.239
35849W        W 2917  20.696  15.673  14.845
35850W        W 2918  38.992  13.237  13.832
35851W        W 2919  10.286   4.235  12.562
35852W        W 2920  29.616  29.471  12.832
35853W        W 2921  32.107  30.559   3.161
35854W        W 2922  36.443  30.498  11.397
35855W        W 2923  24.713  30.065   4.724
35856W        W 2924  21.148  23.621  14.366
35857W        W 2925  11.749   7.746   3.204
35858W        W 2926  36.531  35.496   4.617
35859W        W 2927  34.473  37.031   2.195
35860W        W 2928  18.738  14.227  11.511
35861W        W 2929  35.073  39.481  12.037
35862W        W 2930  44.444  17.605   1.836
35863W        W 2931  27.516  36.371  11.489
35864W        W 2932  42.976   4.804   4.637
35865W        W 2933   9.701  39.013  10.594
35866W        W 2934  40.923  39.947   3.169
35867W        W 2935  21.613  43.925  12.469
35868W        W 2936  30.585  24.518  12.855
35869W        W 2937  29.439   5.204  12.443
35870W        W 2938  18.630   3.955   2.404
35871W        W 2939  38.859   3.722   1.352
35872W        W 2940  27.166  30.614   4.614
35873W        W 2941  38.949  10.704  11.375
35874W        W 2942  30.643  26.027  13.876
35875W        W 2943  27.985  17.680   3.249
35876W        W 2944  12.704  42.363  13.444
35877W        W 2945  26.523  37.342   0.833
35878W        W 2946   6.774  10.182   4.114
35879W        W 2947  27.086  26.637  10.038
35880W        W 2948  42.458  12.291   4.683
35881W        W 2949  10.372  19.125   0.751
35882W        W 2950  21.039   4.795  14.971
35883W        W 2951  34.061  42.810   4.333
35884W        W 2952  26.977  29.022  14.825
35885W        W 2953  43.838  25.176   0.804
35886W        W 2954   2.249  37.068  13.791
35887W        W 2955  41.390  29.958  12.889
35888W        W 2956  41.386  37.340   0.905
35889W        W 2957  36.387   8.877   4.341
35890W        W 2958  25.106  42.443   3.667
35891W        W 2959  11.732  30.131   1.411
35892W        W 2960  24.629  41.329   4.622
35893W        W 2961  43.449  37.012   1.243
35894W        W 2962  18.244  37.072  12.443
35895W        W 2963  36.082  39.965  13.028
35896W        W 2964  28.960  35.923  14.999
35897W        W 2965  16.750  24.687  12.527
35898W        W 2966  21.074  44.957   2.201
35899W        W 2967  28.071  25.987  12.350
35900W        W 2968  22.151  14.191   0.324
35901W        W 2969  41.044  15.129  12.384
35902W        W 2970   2.923   9.764   4.703
35903W        W 2971   8.802  15.233   3.317
35904W        W 2972  23.986  15.580  14.335
35905W        W 2973  28.152   0.311  14.443
35906W        W 2974   6.779  34.118   2.292
35907W        W 2975  29.168  40.318   3.859
35908W        W 2976  28.135   4.808  14.468
35909W        W 2977  21.149  13.767  12.847
35910W        W 2978  19.143   0.758  11.862
35911W        W 2979   6.763  28.151  12.940
35912W        W 2980  28.512  32.458  10.641
35913W        W 2981  40.918  36.568  13.938
35914W        W 2982  43.448  39.876  12.424
35915W        W 2983  22.584  11.683   9.992
35916W        W 2984  17.733  35.994  11.113
35917W        W 2985   1.957   7.794  11.024
35918W        W 2986  38.869  43.452   4.327
35919W        W 2987  19.041  23.198  11.520
35920W        W 2988  29.660  24.979   2.303
35921W        W 2989   3.817  15.594  12.885
35922W        W 2990  35.027  33.037   2.270
35923W        W 2991  20.546  31.056   3.183
35924W        W 2992   9.865  20.229   4.678
35925W        W 2993  20.527  22.580  11.559
35926W        W 2994  33.461   8.333  11.028
35927W        W 2995  12.281  20.581  10.550
35928W        W 2996  36.535  15.616   4.189
35929W        W 2997  31.087  28.064  11.946
35930W        W 2998  28.674  29.433  13.964
35931W        W 2999  20.188  44.890   4.292
35932W        W 3000  15.776  13.142  14.357
35933W        W 3001  18.773   4.717  13.821
35934W        W 3002   2.730   7.759  13.372
35935W        W 3003  43.510   0.921  13.411
35936W        W 3004   6.208  34.007  11.882
35937W        W 3005  35.041  15.092   1.232
35938W        W 3006  19.162  26.622   2.354
35939W        W 3007  42.498  15.756  12.546
35940W        W 3008   1.440   8.692  11.463
35941W        W 3009   5.368  38.995  12.561
35942W        W 3010  32.060  44.314   1.799
35943W        W 3011   2.458  30.992   0.876
35944W        W 3012  32.030  41.418  14.774
35945W        W 3013  18.244  43.829   1.237
35946W        W 3014  43.883  20.561  11.038
35947W        W 3015  41.881  19.768  13.952
35948W        W 3016  25.217  18.580  11.547
35949W        W 3017   2.863  24.036   2.833
35950W        W 3018  44.362   8.800  12.085
35951W        W 3019  37.368  25.189   2.744
35952W        W 3020  43.450  12.358  13.536
35953W        W 3021  39.989  41.344   3.675
35954W        W 3022  28.971  25.181  11.386
35955W        W 3023  38.916  16.074   2.689
35956W        W 3024   8.753  41.331  14.367
35957W        W 3025  36.992  35.990  10.626
35958W        W 3026   3.299  39.950   4.729
35959W        W 3027  43.895  31.967  14.454
35960W        W 3028  27.617   7.205   1.375
35961W        W 3029  19.107  36.027  13.040
35962W        W 3030  27.948  18.242  13.875
35963W        W 3031  18.756  36.002   1.269
35964W        W 3032  36.015   5.320  12.013
35965W        W 3033  19.187  34.392  14.794
35966W        W 3034  25.986  38.945  11.004
35967W        W 3035  26.104  10.750   1.284
35968W        W 3036  18.665   3.223  14.780
35969W        W 3037   7.700  35.027   1.420
35970W        W 3038  28.155  21.170  14.378
35971W        W 3039  42.018   5.280  14.869
35972W        W 3040  19.611  38.974   2.678
35973W        W 3041   1.339  42.010   2.255
35974W        W 3042  29.067  41.513  12.360
35975W        W 3043  37.433  10.829   0.935
35976W        W 3044   7.350  20.148   0.951
35977W        W 3045  25.647  30.957   2.726
35978W        W 3046   2.303  18.050   4.755
35979W        W 3047  23.190   2.827  10.462
35980W        W 3048   5.403  34.954   3.639
35981W        W 3049   9.779  27.998  11.450
35982W        W 3050  32.394   8.708   1.736
35983W        W 3051  21.243  41.912  12.397
35984W        W 3052   5.928  37.493   0.256
35985W        W 3053   9.670  10.205  10.914
35986W        W 3054  12.639  25.512   3.244
35987W        W 3055  28.666  39.999  10.504
35988W        W 3056  18.060  26.185   2.297
35989W        W 3057  38.490  42.953  11.394
35990W        W 3058  44.861  15.174   3.374
35991W        W 3059  23.673  10.317   4.770
35992W        W 3060   5.371  22.193   1.758
35993W        W 3061  31.430  26.190   0.388
35994W        W 3062  36.906  40.431  12.533
35995W        W 3063  23.164   3.332   0.409
35996W        W 3064  10.868  26.203   4.128
35997W        W 3065  28.451  10.149  14.856
35998W        W 3066  25.515  17.646   1.739
35999W        W 3067   2.244  17.178   2.377
36000W        W 3068  30.600  32.395   1.369
36001W        W 3069   4.358   1.887   2.267
36002W        W 3070   1.797  27.482  14.330
36003W        W 3071   5.732   0.862  14.462
36004W        W 3072  15.698  34.603   1.232
36005W        W 3073  29.512  39.519   1.331
36006W        W 3074  21.244   1.978   1.258
36007W        W 3075  37.054  44.887   0.895
36008W        W 3076   8.224   2.935   0.269
36009W        W 3077  27.094  31.478   2.884
36010W        W 3078  43.995  28.104   0.475
36011W        W 3079  10.726  34.002  14.859
36012W        W 3080  32.965  35.405   0.825
36013W        W 3081  22.630  34.027  14.946
36014W        W 3082   1.257  30.159  11.046
36015W        W 3083  35.061   5.789  10.925
36016W        W 3084  25.711   4.781   2.722
36017W        W 3085   1.829   8.307  11.409
36018W        W 3086  13.200  38.486  11.989
36019W        W 3087   3.222   8.812   0.783
36020W        W 3088  16.269  36.438   0.820
36021W        W 3089  21.601   1.305   1.402
36022W        W 3090   6.428  10.799  11.448
36023W        W 3091  18.281   8.859   0.268
36024W        W 3092  23.649   0.829   3.255
36025W        W 3093  12.654  18.090   4.612
36026W        W 3094   7.380  36.937  13.489
36027W        W 3095  34.005  10.770  10.475
36028W        W 3096  34.119  28.172  10.905
36029W        W 3097  20.578   1.296  12.063
36030W        W 3098  22.523  32.445  13.341
36031W        W 3099  13.785  31.082  14.955
36032W        W 3100  41.024  43.875  11.403
36033W        W 3101  41.354   4.751  13.517
36034W        W 3102  15.639  22.152   4.296
36035W        W 3103  33.383   5.353  14.275
36036W        W 3104  36.510  18.203   0.250
36037W        W 3105  42.836  41.384   2.299
36038W        W 3106  31.048   7.391   2.757
36039W        W 3107  15.210  38.512   3.233
36040W        W 3108  34.066  43.311  10.982
36041W        W 3109  29.120   5.239   0.861
36042W        W 3110   0.474   0.313  11.017
36043W        W 3111  20.270  17.258   1.916
36044W        W 3112  39.003  39.003   4.272
36045W        W 3113  23.565   2.868   2.310
36046W        W 3114  11.863  10.287  10.913
36047W        W 3115  25.044  41.821   3.166
36048W        W 3116  23.685  17.758   2.236
36049W        W 3117  22.656  27.523  11.956
36050W        W 3118   7.212   0.888   3.369
36051W        W 3119  22.061  29.064  13.966
36052W        W 3120  13.132  18.255   3.787
36053W        W 3121   4.331  33.003  12.567
36054W        W 3122  28.004  39.459  13.851
36055W        W 3123  42.397  35.365   0.768
36056W        W 3124   7.352  16.232  13.433
36057W        W 3125  44.277  30.135   1.394
36058W        W 3126   0.754  12.333   2.677
36059W        W 3127  44.425  18.571  11.582
36060W        W 3128  22.251  24.575   2.699
36061W        W 3129   1.929   3.806  12.986
36062W        W 3130  44.763   6.391  14.276
36063W        W 3131  33.970  31.094   2.902
36064W        W 3132  42.395  22.597  12.826
36065W        W 3133  12.655  18.265   1.419
36066W        W 3134  22.035  42.426  12.008
36067W        W 3135  15.767  28.514   0.929
36068W        W 3136   8.701   7.823   4.287
36069W        W 3137  24.100  26.967   1.418
36070W        W 3138  26.644  39.004   5.093
36071W        W 3139  11.278  35.056   3.719
36072W        W 3140  29.075  37.448   1.891
36073W        W 3141  34.989  23.128   4.705
36074W        W 3142   0.866  23.207   3.783
36075W        W 3143  39.443   6.907   3.792
36076W        W 3144  33.012  18.677  14.849
36077W        W 3145  27.959   2.722   0.439
36078W        W 3146  21.607  42.471   4.131
36079W        W 3147  27.034  44.309   2.686
36080W        W 3148   1.745  39.494   4.671
36081W        W 3149  17.086  44.418   0.809
36082W        W 3150  43.863   8.232   2.692
36083W        W 3151  35.399   9.373   3.145
36084W        W 3152  15.263  12.664   3.634
36085W        W 3153   1.351  24.621   3.377
36086W        W 3154  40.434   0.395  12.927
36087W        W 3155  37.448  34.067   1.839
36088W        W 3156  26.671  39.820   1.435
36089W        W 3157   9.213  15.791  12.458
36090W        W 3158  25.528  19.143  11.514
36091W        W 3159   0.414   5.438   2.202
36092W        W 3160  25.969  20.257   0.786
36093W        W 3161  13.116  37.375  11.986
36094W        W 3162  31.504  22.147   1.361
36095W        W 3163  18.728  43.825  12.019
36096W        W 3164  20.164  30.484  13.885
36097W        W 3165  18.191  17.769  10.522
36098W        W 3166  34.414   3.768  11.127
36099W        W 3167  35.872  14.612   4.736
36100W        W 3168  42.302  20.556  12.992
36101W        W 3169  11.326  43.816  10.447
36102W        W 3170   2.822  32.086   1.314
36103W        W 3171   1.362  34.461   1.284
36104W        W 3172  28.000  12.661   5.312
36105W        W 3173  43.957  33.949   4.321
36106W        W 3174   5.870  30.488  14.338
36107W        W 3175  22.140  22.539   4.260
36108W        W 3176  25.478  27.535   1.804
36109W        W 3177   3.837  28.158  14.325
36110W        W 3178  23.996  12.724   4.639
36111W        W 3179  35.455  18.252  14.478
36112W        W 3180   1.741  31.415   1.322
36113W        W 3181  10.367  28.643  13.421
36114W        W 3182  43.309  27.668  14.879
36115W        W 3183  16.719  35.074   1.857
36116W        W 3184   6.702  29.959  14.764
36117W        W 3185  37.957   8.788   4.302
36118W        W 3186  12.178   0.248   3.868
36119W        W 3187  21.583   9.297  10.940
36120W        W 3188  30.934  34.521   0.289
36121W        W 3189  40.445  16.694  12.060
36122W        W 3190  21.710  44.808  11.883
36123W        W 3191  14.186  16.575   2.236
36124W        W 3192  35.594  18.681   3.808
36125W        W 3193  19.599  16.161  13.517
36126W        W 3194  28.657  39.361   3.817
36127W        W 3195  39.447  43.407   4.275
36128W        W 3196  39.023  18.193   9.947
36129W        W 3197  11.645   8.312  14.953
36130W        W 3198   4.819  26.509   2.771
36131W        W 3199  38.428   2.428   2.668
36132W        W 3200  13.746  30.986   4.213
36133W        W 3201  25.704  43.995   2.821
36134W        W 3202  33.961  12.171  11.105
36135W        W 3203   4.388  34.596   3.824
36136W        W 3204  20.142  42.516  12.404
36137W        W 3205  37.530  15.795  10.615
36138W        W 3206  21.542  34.094   3.678
36139W        W 3207  17.639  41.013   2.331
36140W        W 3208  43.366  28.087   1.737
36141W        W 3209  16.282   8.881  12.524
36142W        W 3210  28.981  28.466   1.341
36143W        W 3211   4.424  39.332  11.596
36144W        W 3212  27.514   4.293   0.897
36145W        W 3213  14.697  40.935   3.661
36146W        W 3214  35.585  37.010  11.948
36147W        W 3215   7.187  44.925   3.790
36148W        W 3216  43.875   4.378   0.466
36149W        W 3217  42.408  39.475  11.431
36150W        W 3218  13.349  36.982  12.942
36151W        W 3219   0.763  11.713  13.516
36152W        W 3220  40.902  31.585  11.055
36153W        W 3221   6.213  34.529  11.919
36154W        W 3222  20.207  23.198  14.910
36155W        W 3223  44.435  36.509   2.763
36156W        W 3224  34.405  27.157  12.420
36157W        W 3225  41.956   6.837   2.223
36158W        W 3226  40.549  33.976   3.233
36159W        W 3227  15.620   5.789  10.422
36160W        W 3228  28.519  20.562  13.975
36161W        W 3229  43.423  19.657   0.401
36162W        W 3230   4.880  31.129  14.344
36163W        W 3231   1.866  25.003  13.813
36164W        W 3232  14.141   0.342  14.383
36165W        W 3233   3.333   8.215   3.754
36166W        W 3234  16.657   9.261   2.871
36167W        W 3235   6.336  13.339   2.260
36168W        W 3236  24.510   7.234   2.253
36169W        W 3237   2.437  44.861  13.810
36170W        W 3238  22.656  29.121  12.058
36171W        W 3239  36.500  15.679  11.530
36172W        W 3240  42.010   1.250   1.358
36173W        W 3241  11.821   2.780   4.136
36174W        W 3242   5.323  14.106   3.674
36175W        W 3243  25.135  41.901  11.562
36176W        W 3244  31.115  25.602   0.823
36177W        W 3245  42.808  18.093   2.902
36178W        W 3246  10.182  31.579   5.302
36179W        W 3247  13.105  16.165   4.607
36180W        W 3248  36.492  21.141   9.967
36181W        W 3249   3.456  39.044   3.306
36182W        W 3250  37.987  14.170  13.448
36183W        W 3251  22.565  36.011   1.816
36184W        W 3252  44.488  29.024   1.243
36185W        W 3253  25.540  42.017   1.281
36186W        W 3254  15.213  10.668  14.996
36187W        W 3255  43.920  32.576  11.089
36188W        W 3256  11.229  44.847   3.382
36189W        W 3257  43.484  40.936  12.452
36190W        W 3258   1.911  26.567   1.304
36191W        W 3259  42.010  33.997   4.825
36192W        W 3260  43.452  19.754  11.553
36193W        W 3261  34.904  42.457   0.951
36194W        W 3262  35.588   7.361   2.851
36195W        W 3263  11.715  25.165   4.693
36196W        W 3264  44.488  44.846  12.555
36197W        W 3265  37.898  37.550   1.214
36198W        W 3266  18.102   2.408  15.000
36199W        W 3267  13.699  21.238  13.508
36200W        W 3268   4.418   9.718  13.307
36201W        W 3269  25.167   0.749   4.158
36202W        W 3270   8.766  16.644  10.609
36203W        W 3271  44.785  36.976  14.906
36204W        W 3272   3.808  17.261   1.366
36205W        W 3273  18.243  23.158  14.304
36206W        W 3274  14.183  33.430  14.992
36207W        W 3275  14.259  13.249  13.918
36208W        W 3276   7.212   1.326  10.460
36209W        W 3277  25.542   6.746  11.516
36210W        W 3278  20.170  16.764   0.896
36211W        W 3279  14.762  27.142   3.678
36212W        W 3280  11.364  29.135  12.467
36213W        W 3281  31.608  38.446   3.869
36214W        W 3282  18.566   0.476  13.011
36215W        W 3283  34.514   1.301  10.482
36216W        W 3284   8.780   1.823  14.915
36217W        W 3285  21.530  27.184   2.275
36218W        W 3286  36.593  43.420  12.927
36219W        W 3287  33.118  13.720  12.068
36220W        W 3288  18.745  17.568  11.378
36221W        W 3289  34.980  18.683  11.084
36222W        W 3290  15.117  17.107  12.361
36223W        W 3291  24.115   0.787   1.430
36224W        W 3292  35.386  19.542   4.167
36225W        W 3293  15.726   7.279  11.554
36226W        W 3294  19.593  28.524   1.842
36227W        W 3295   1.422  20.739   3.242
36228W        W 3296   3.938  12.141  10.552
36229W        W 3297  39.315  37.002   4.664
36230W        W 3298  37.059  29.169   1.882
36231W        W 3299  30.541  17.114  10.507
36232W        W 3300  29.012  41.026   0.477
36233W        W 3301  37.006  39.993   2.259
36234W        W 3302  35.598  31.460  13.325
36235W        W 3303  36.495  34.963   2.250
36236W        W 3304   0.468  19.243  13.423
36237W        W 3305  34.965  13.109   2.742
36238W        W 3306   3.360  41.435   2.246
36239W        W 3307  32.979  39.909   0.961
36240W        W 3308  24.721  44.435  13.845
36241W        W 3309  35.968  42.011  11.988
36242W        W 3310  37.514  22.655  12.028
36243W        W 3311  31.613  34.484  14.371
36244W        W 3312   4.277  41.990   1.285
36245W        W 3313  30.577  14.778  10.085
36246W        W 3314  23.113  41.293  14.953
36247W        W 3315  18.142  11.779  11.010
36248W        W 3316  32.610   3.714   1.709
36249W        W 3317   2.310  19.076   2.331
36250W        W 3318   5.861  29.967   4.721
36251W        W 3319  24.510   7.682   1.332
36252W        W 3320  36.426  38.884   2.357
36253W        W 3321   3.746  32.907  12.096
36254W        W 3322  36.525  37.050  13.995
36255W        W 3323  44.911  11.184  12.443
36256W        W 3324  23.998   5.369  11.438
36257W        W 3325   5.808   1.272  10.486
36258W        W 3326  39.022  24.493   4.180
36259W        W 3327   1.362  38.337  11.999
36260W        W 3328  30.149   4.409  10.509
36261W        W 3329   0.953  16.313  13.055
36262W        W 3330  17.680  32.427   4.770
36263W        W 3331   8.702  28.110   2.829
36264W        W 3332  16.575  14.772   0.478
36265W        W 3333   2.232  41.357   5.120
36266W        W 3334   9.812  28.503  13.384
36267W        W 3335  19.039  29.482  14.819
36268W        W 3336  25.537  17.130  12.485
36269W        W 3337  44.949  36.053  13.429
36270W        W 3338  41.947  34.981   4.196
36271W        W 3339  33.900  37.835   4.212
36272W        W 3340  35.927   2.304   3.369
36273W        W 3341  32.926   7.335   1.318
36274W        W 3342   8.769  40.546  11.529
36275W        W 3343  21.069  25.613   2.329
36276W        W 3344  19.671  13.709  14.804
36277W        W 3345  25.478   7.245  11.948
36278W        W 3346  44.996  12.171   2.776
36279W        W 3347  14.253  36.352   0.472
36280W        W 3348   7.415  23.124   3.212
36281W        W 3349  41.901  12.787  10.950
36282W        W 3350   4.379  22.697   4.220
36283W        W 3351   2.306  18.159  12.850
36284W        W 3352  14.324  37.876  10.635
36285W        W 3353   4.403  44.759  14.505
36286W        W 3354  32.946   4.305  11.457
36287W        W 3355  15.234  11.855   0.745
36288W        W 3356  43.272  20.247  10.592
36289W        W 3357   6.780  20.099  11.565
36290W        W 3358  21.202  37.448   0.896
36291W        W 3359  17.219  35.497  10.903
36292W        W 3360  22.648  32.439   2.893
36293W        W 3361  43.274  16.659   4.249
36294W        W 3362  32.487  41.877  14.367
36295W        W 3363  34.426   3.275  13.313
36296W        W 3364   5.692  37.360  11.406
36297W        W 3365  42.860   7.738   1.812
36298W        W 3366  44.427   0.291   2.726
36299W        W 3367  20.241  19.158  11.868
36300W        W 3368  40.394  28.163  13.477
36301W        W 3369  27.954  36.509   4.814
36302W        W 3370  33.471   0.446   2.705
36303W        W 3371  27.574   7.667   1.824
36304W        W 3372  34.420   9.885   4.802
36305W        W 3373   2.926  27.643   4.183
36306W        W 3374  40.408  28.980  13.864
36307W        W 3375  10.652   7.846  12.457
36308W        W 3376   2.410  40.506   3.759
36309W        W 3377  26.183  28.634   4.270
36310W        W 3378   6.244  12.260   2.418
36311W        W 3379  28.101  34.395  12.966
36312W        W 3380  16.583   4.736  11.436
36313W        W 3381  43.289  35.955   5.217
36314W        W 3382   0.763  33.911  10.577
36315W        W 3383  28.495  20.529  14.929
36316W        W 3384  19.605  20.201  12.384
36317W        W 3385  19.679  17.578  14.455
36318W        W 3386  19.775   0.285   1.322
36319W        W 3387  43.794  39.535   0.932
36320W        W 3388   5.725  18.591  11.060
36321W        W 3389  22.238  38.372  10.480
36322W        W 3390  29.486  24.586   1.893
36323W        W 3391  20.223  36.457   0.436
36324W        W 3392  35.051  33.562   1.381
36325W        W 3393  16.598  34.448  14.776
36326W        W 3394  25.698   4.297  12.955
36327W        W 3395  16.134  26.516  12.545
36328W        W 3396  10.175  18.628  10.973
36329W        W 3397  18.167  32.009   2.745
36330W        W 3398  16.177  25.974  13.987
36331W        W 3399  38.453   0.351  12.026
36332W        W 3400  22.171   8.729  13.988
36333W        W 3401  19.551  44.434   9.971
36334W        W 3402  41.982  37.845   4.240
36335W        W 3403  10.722  19.676   1.788
36336W        W 3404  17.272  38.912   4.695
36337W        W 3405  37.030   3.721   0.387
36338W        W 3406  11.778  35.985   4.652
36339W        W 3407  27.120  20.567  13.043
36340W        W 3408  35.050  12.275  12.081
36341W        W 3409  40.934  28.134  11.023
36342W        W 3410  30.449  34.483   2.801
36343W        W 3411  32.100  31.961   5.300
36344W        W 3412  28.180  16.573   4.155
36345W        W 3413  34.074  24.076   0.946
36346W        W 3414  44.760  36.018   2.398
36347W        W 3415  37.886  17.669  14.007
36348W        W 3416  39.445  25.699   2.696
36349W        W 3417  27.009  16.670   4.293
36350W        W 3418  17.568  10.364  13.949
36351W        W 3419  35.050  32.572   4.810
36352W        W 3420  43.493  21.690   4.642
36353W        W 3421  30.981   1.974  12.447
36354W        W 3422  41.455   0.822  12.392
36355W        W 3423   5.297  26.565  10.622
36356W        W 3424  34.501  26.004  14.351
36357W        W 3425   3.779  41.316   0.279
36358W        W 3426   1.823  24.663  12.846
36359W        W 3427  16.729  34.451  10.585
36360W        W 3428  27.586   0.806  14.367
36361W        W 3429   1.473  44.979   1.370
36362W        W 3430  35.902   7.281   0.244
36363W        W 3431  32.512  40.403  13.417
36364W        W 3432   5.749  43.881  11.947
36365W        W 3433  12.284  14.115  13.823
36366W        W 3434  31.091   2.375  14.515
36367W        W 3435  11.153  38.072  12.538
36368W        W 3436  41.416  29.982  13.793
36369W        W 3437  15.694   8.888   2.414
36370W        W 3438   5.420  42.298  12.493
36371W        W 3439  35.434  31.068  10.414
36372W        W 3440  29.573   0.281  14.497
36373W        W 3441  31.146  26.485  14.984
36374W        W 3442  15.704   7.705   1.810
36375W        W 3443  35.362  26.086  12.951
36376W        W 3444  15.638  40.983   3.687
36377W        W 3445  19.152  25.676   1.352
36378W        W 3446  20.571  11.866   2.326
36379W        W 3447   8.262  19.096  13.454
36380W        W 3448  10.638  31.530   3.368
36381W        W 3449   9.644  24.223   4.177
36382W        W 3450  32.978  30.418  10.430
36383W        W 3451  43.967  23.733   3.382
36384W        W 3452  29.508  36.085   2.267
36385W        W 3453  13.668  36.408   3.342
36386W        W 3454  40.385  38.069   1.409
36387W        W 3455   6.812  26.068   0.942
36388W        W 3456  27.940   0.913   4.186
36389W        W 3457  32.527   1.977   5.134
36390W        W 3458  31.966  31.938   0.283
36391W        W 3459  31.943  26.042   1.729
36392W        W 3460   2.292  12.308  10.919
36393W        W 3461  34.411  29.919  12.045
36394W        W 3462   0.812  27.002   3.855
36395W        W 3463  36.844  12.715  12.914
36396W        W 3464  37.014  40.841   1.702
36397W        W 3465  23.655  35.460  10.416
36398W        W 3466   4.432   3.712  11.613
36399W        W 3467  40.533  26.573   2.672
36400W        W 3468  27.527  40.814   3.680
36401W        W 3469   9.702  18.631  14.413
36402W        W 3470  42.862  20.533   4.122
36403W        W 3471  41.832  32.080   4.141
36404W        W 3472   8.261   8.239  13.375
36405W        W 3473   0.777   0.797   0.792
36406W        W 3474  16.287   5.350   0.763
36407W        W 3475  39.497  23.510   1.415
36408W        W 3476   5.293  43.848  11.607
36409W        W 3477  21.225  32.071   0.268
36410W        W 3478  21.204  13.217  14.484
36411W        W 3479  20.193  43.489   2.347
36412W        W 3480   5.750   3.445   2.286
36413W        W 3481  40.942  15.661  10.942
36414W        W 3482  32.634  20.233  11.068
36415W        W 3483  32.936   7.805   4.353
36416W        W 3484  30.149   3.361  12.448
36417W        W 3485  17.134  44.002  13.951
36418W        W 3486   8.669  25.148   4.254
36419W        W 3487  36.915  38.979  10.944
36420W        W 3488  40.498  17.783   1.272
36421W        W 3489  23.694   7.839   1.776
36422W        W 3490  13.292  16.192  11.859
36423W        W 3491  16.691  42.961  11.411
36424W        W 3492   9.866  13.219   2.239
36425W        W 3493  21.199   3.403   3.217
36426W        W 3494  31.606  31.962  12.030
36427W        W 3495  10.188  14.234   3.153
36428W        W 3496   2.311  25.196   1.310
36429W        W 3497  10.179  17.664  12.864
36430W        W 3498  14.237  10.770  14.844
36431W        W 3499   2.259  21.547   3.865
36432W        W 3500  27.999  42.418   1.236
36433W        W 3501  10.829   7.269   4.346
36434W        W 3502  16.107   9.222  14.830
36435W        W 3503  28.023  28.016  13.831
36436W        W 3504  40.033  26.101  11.388
36437W        W 3505  18.651  26.490  14.801
36438W        W 3506   8.229   9.281  12.415
36439W        W 3507  29.067  40.404  11.448
36440W        W 3508  25.084   9.828  11.967
36441W        W 3509   2.341  23.576  13.973
36442W        W 3510  26.521  16.292  13.791
36443W        W 3511  26.591   0.345  10.538
36444W        W 3512   2.273  39.524  10.897
36445W        W 3513  36.978  41.841   1.434
36446W        W 3514  15.127  19.150   2.280
36447W        W 3515  42.991  14.312   0.766
36448W        W 3516   0.943  29.661   3.674
36449W        W 3517  38.006  44.379  14.318
36450W        W 3518  12.845  40.849   3.374
36451W        W 3519   6.867  22.529   3.235
36452W        W 3520   0.318  20.147   1.863
36453W        W 3521  22.608  25.979  11.066
36454W        W 3522   8.300  35.865   4.149
36455W        W 3523  19.603  26.194   3.698
36456W        W 3524  18.117   0.448  14.016
36457W        W 3525  30.979  16.663  10.918
36458W        W 3526   6.845   0.967  13.332
36459W        W 3527  26.980  10.794   2.351
36460W        W 3528  15.682   5.719  14.856
36461W        W 3529  17.649  29.984  12.834
36462W        W 3530  26.510   1.301   1.379
36463W        W 3531  18.060  22.221   3.665
36464W        W 3532   4.253  43.417  10.951
36465W        W 3533  42.462   3.829   0.737
36466W        W 3534  16.748  28.162  13.835
36467W        W 3535   3.222  29.065   3.313
36468W        W 3536  44.425  26.076  10.907
36469W        W 3537  24.603   1.294   4.762
36470W        W 3538  23.621  38.825   4.225
36471W        W 3539  22.997  20.203  14.892
36472W        W 3540  16.665  34.458  13.419
36473W        W 3541  23.540  32.603  14.361
36474W        W 3542   5.321  15.642   4.631
36475W        W 3543  33.929  21.563   3.235
36476W        W 3544  28.594  43.455   3.321
36477W        W 3545  31.525   4.844   4.812
36478W        W 3546  29.103  25.680   3.294
36479W        W 3547  29.073   4.876  12.970
36480W        W 3548  33.508  36.915  13.035
36481W        W 3549  35.970  29.518   2.799
36482W        W 3550   8.215  39.039  14.334
36483W        W 3551   5.712  21.624   4.820
36484W        W 3552  40.514  17.592   0.842
36485W        W 3553  17.555  20.531  11.495
36486W        W 3554  29.940  43.917   0.881
36487W        W 3555   5.755   2.249   4.146
36488W        W 3556  37.929   9.867  13.027
36489W        W 3557  44.756  14.265   0.892
36490W        W 3558  29.928  35.445   0.440
36491W        W 3559  38.824  15.193  10.569
36492W        W 3560  19.191  29.148   4.259
36493W        W 3561  19.170  24.684   3.148
36494W        W 3562  19.555  43.984  14.854
36495W        W 3563  35.855  17.287   3.791
36496W        W 3564   8.895  39.449  14.955
36497W        W 3565   1.297  44.914   0.821
36498W        W 3566  22.141  24.045   3.249
36499W        W 3567  40.521  11.695   4.661
36500W        W 3568  35.940   0.870   5.289
36501W        W 3569   6.805   6.285  13.526
36502W        W 3570  37.954  24.226   0.921
36503W        W 3571   8.719  41.963   0.842
36504W        W 3572   2.952  28.572   1.925
36505W        W 3573  34.992   2.327   2.241
36506W        W 3574  22.091   0.263  14.294
36507W        W 3575  33.601  40.360   4.253
36508W        W 3576  39.030  26.113  11.512
36509W        W 3577  23.560   7.402   4.216
36510W        W 3578  24.216  28.016   3.772
36511W        W 3579   8.351   7.805  13.494
36512W        W 3580  38.484   0.887  14.866
36513W        W 3581  21.246  42.856   0.442
36514W        W 3582  21.713  23.629   3.222
36515W        W 3583  23.032  19.542  14.004
36516W        W 3584  29.083   2.339  14.814
36517W        W 3585  16.174  18.188   0.762
36518W        W 3586   0.839  15.259  14.465
36519W        W 3587  26.579   5.934   3.818
36520W        W 3588   8.195  35.386  14.786
36521W        W 3589  32.566  44.296   4.167
36522W        W 3590  15.210   5.841  12.404
36523W        W 3591  16.223  19.124  11.018
36524W        W 3592   2.257  26.206  13.511
36525W        W 3593   9.676   6.762  10.951
36526W        W 3594  26.502  22.692  11.494
36527W        W 3595  27.635  42.430   4.607
36528W        W 3596  11.341  26.183  11.051
36529W        W 3597  25.640  27.643  13.955
36530W        W 3598   0.918   2.861  13.449
36531W        W 3599  31.417   4.800  10.996
36532W        W 3600  18.771   7.398  11.915
36533W        W 3601   2.925   7.309   3.857
36534W        W 3602  30.061  20.723  11.481
36535W        W 3603  37.466   7.181   1.722
36536W        W 3604   0.749  34.063  11.918
36537W        W 3605  23.991  29.054   1.251
36538W        W 3606  30.524   9.688   3.238
36539W        W 3607  43.835   7.201  12.539
36540W        W 3608  15.773  38.071  10.551
36541W        W 3609  30.491  25.509  11.479
36542W        W 3610  15.741  44.954  10.469
36543W        W 3611  28.947  28.445  10.580
36544W        W 3612  11.783  13.206   2.756
36545W        W 3613  16.700  43.461  13.523
36546W        W 3614  20.128  43.923  12.944
36547W        W 3615  44.462  44.953   1.830
36548W        W 3616  15.243   4.208  10.928
36549W        W 3617  15.199  31.646  12.489
36550W        W 3618   1.762  27.527   1.351
36551W        W 3619  39.526  26.046   4.827
36552W        W 3620  23.046  10.749  13.843
36553W        W 3621   1.361  34.540  13.491
36554W        W 3622  18.765  30.130   5.121
36555W        W 3623  19.754  23.642  10.988
36556W        W 3624  20.548   0.379   0.276
36557W        W 3625  14.592  25.040  14.973
36558W        W 3626  23.111  15.099  10.595
36559W        W 3627  10.786  36.559   0.253
36560W        W 3628  20.217  37.054  13.542
36561W        W 3629  41.873   5.777   4.744
36562W        W 3630   2.421  12.211  14.995
36563W        W 3631  24.227   1.415   4.280
36564W        W 3632  23.184   4.332  12.061
36565W        W 3633  44.985   8.789  11.466
36566W        W 3634  31.551  22.576  13.026
36567W        W 3635  41.501  13.671   4.746
36568W        W 3636  28.582  41.936  12.021
36569W        W 3637  27.685  22.634  12.948
36570W        W 3638   1.272   9.200  11.901
36571W        W 3639  26.554  19.112  13.530
36572W        W 3640  33.589  15.083  12.017
36573W        W 3641  31.436  27.019   1.396
36574W        W 3642   8.308  22.218  12.499
36575W        W 3643  43.018  11.815  14.450
36576W        W 3644  11.720  32.591  12.363
36577W        W 3645  14.680  34.999  14.491
36578W        W 3646   2.347  37.081  12.437
36579W        W 3647  16.284  19.555   3.269
36580W        W 3648  35.493   3.297  12.050
36581W        W 3649  29.963   4.857   3.180
36582W        W 3650  14.273  37.348  13.440
36583W        W 3651   1.741  27.473   4.779
36584W        W 3652  44.880  36.487   4.144
36585W        W 3653  43.968   2.251  11.127
36586W        W 3654   2.300  12.130  12.362
36587W        W 3655   8.806   5.244   2.823
36588W        W 3656  39.035   0.282   0.333
36589W        W 3657   5.358   7.679   0.396
36590W        W 3658  10.236  38.372  10.953
36591W        W 3659  21.728   3.453   2.305
36592W        W 3660  16.295  17.724   1.217
36593W        W 3661  30.541  24.633   3.784
36594W        W 3662  37.553  17.591   3.288
36595W        W 3663  33.572  36.064   0.924
36596W        W 3664  38.440  27.619  13.841
36597W        W 3665  16.744  30.418  11.456
36598W        W 3666  21.231  28.456  14.031
36599W        W 3667   3.448   0.955  10.512
36600W        W 3668  30.654  19.200  10.579
36601W        W 3669   0.901  10.166  12.058
36602W        W 3670   9.190  33.461  10.133
36603W        W 3671  35.447  33.391  14.867
36604W        W 3672   0.338  12.222  14.014
36605W        W 3673   6.704  19.767  12.908
36606W        W 3674  44.766  20.530  11.086
36607W        W 3675  12.216  13.676   2.294
36608W        W 3676  24.539  31.551  12.861
36609W        W 3677  40.451  36.077  11.574
36610W        W 3678  35.377  16.651  13.942
36611W        W 3679  21.094  11.784  13.885
36612W        W 3680  36.085  38.053   0.265
36613W        W 3681  28.072  39.412  10.939
36614W        W 3682  17.633  14.212  13.844
36615W        W 3683  27.049  11.758  12.861
36616W        W 3684  42.893  34.601   1.394
36617W        W 3685  26.485  42.489   4.723
36618W        W 3686  33.464  21.159  10.460
36619W        W 3687  16.739   0.975  10.568
36620W        W 3688  29.602  26.145   4.303
36621W        W 3689  40.515   4.305   3.357
36622W        W 3690  31.628  26.125   0.874
36623W        W 3691  44.315   7.901  14.785
36624W        W 3692  44.918  41.995   2.893
36625W        W 3693  34.885  30.601  12.895
36626W        W 3694  31.093   7.796  14.824
36627W        W 3695  21.733  27.597   1.438
36628W        W 3696  15.273  13.746  14.376
36629W        W 3697  26.982  12.705  10.931
36630W        W 3698  38.502  35.030   2.773
36631W        W 3699  12.660  15.688   0.243
36632W        W 3700  35.471   6.763   3.776
36633W        W 3701   6.708  13.808  11.552
36634W        W 3702  26.503   7.251   1.826
36635W        W 3703  43.995  43.947  10.888
36636W        W 3704  35.450   3.741   1.379
36637W        W 3705  10.704   4.938   2.281
36638W        W 3706  14.173   2.331  14.802
36639W        W 3707   0.948  34.407  11.865
36640W        W 3708  27.532   8.231  10.624
36641W        W 3709  31.451  14.230  14.515
36642W        W 3710  11.652  28.023  10.913
36643W        W 3711  43.814  14.688   4.731
36644W        W 3712   6.294  32.577   2.226
36645W        W 3713  38.046  40.429  14.844
36646W        W 3714  31.534  30.020   4.216
36647W        W 3715  22.154  10.833  11.019
36648W        W 3716  27.145  11.331  13.835
36649W        W 3717   7.667  32.030   4.790
36650W        W 3718  13.119  13.703   3.815
36651W        W 3719  32.140   6.401  13.820
36652W        W 3720   0.480  12.133   3.370
36653W        W 3721   1.395   2.911  11.522
36654W        W 3722   9.850  40.324  12.083
36655W        W 3723  11.186  15.232  13.958
36656W        W 3724   7.808  36.386  10.940
36657W        W 3725  21.223   7.750   2.858
36658W        W 3726  13.624  23.129   2.849
36659W        W 3727  42.984   1.854  11.598
36660W        W 3728  22.695  29.607   1.859
36661W        W 3729   9.674  26.636   2.413
36662W        W 3730   4.828  23.533   1.283
36663W        W 3731  21.641  12.729  12.543
36664W        W 3732   6.182  36.053  10.917
36665W        W 3733  15.655  33.076   3.768
36666W        W 3734  15.262  34.947  10.947
36667W        W 3735  35.400  10.354   3.830
36668W        W 3736   5.217   1.430  12.414
36669W        W 3737  24.991  13.108   2.683
36670W        W 3738  26.542  30.579  13.844
36671W        W 3739   7.694  42.890  10.096
36672W        W 3740   6.919   6.329  14.289
36673W        W 3741  32.405  36.439  13.413
36674W        W 3742   4.325  20.165   3.273
36675W        W 3743  41.814  38.943  11.962
36676W        W 3744  40.862  35.559  14.824
36677W        W 3745  34.406  30.524   3.816
36678W        W 3746  13.680  22.564  12.032
36679W        W 3747   3.343   8.378  12.917
36680W        W 3748  40.898  23.118  12.035
36681W        W 3749   0.860  31.622   2.742
36682W        W 3750  14.799  21.737   5.142
36683W        W 3751  27.683   2.933  13.852
36684W        W 3752  26.638  13.218  10.607
36685W        W 3753  29.655   3.862  13.950
36686W        W 3754  25.480  23.128   3.285
36687W        W 3755  20.056   3.786   1.924
36688W        W 3756  31.002  16.793  12.881
36689W        W 3757  32.892  17.231   2.714
36690W        W 3758   2.228  31.078  11.441
36691W        W 3759  10.673  19.178   0.828
36692W        W 3760  10.754   7.318   3.290
36693W        W 3761   2.811  28.147   2.418
36694W        W 3762  37.520  14.668  14.941
36695W        W 3763  35.579   0.842  12.507
36696W        W 3764   6.345   7.237   4.715
36697W        W 3765   5.297  22.106  11.109
36698W        W 3766   8.729  41.998  12.090
36699W        W 3767  26.664  22.012  10.077
36700W        W 3768   9.285  29.502   0.328
36701W        W 3769  10.871  40.515   0.926
36702W        W 3770  37.055   2.350   3.756
36703W        W 3771  11.305  15.805   0.854
36704W        W 3772   0.323  13.141  11.887
36705W        W 3773  35.376  41.485   3.748
36706W        W 3774  22.080  17.206   2.856
36707W        W 3775  36.373   8.336  11.433
36708W        W 3776  33.048  27.048   3.268
36709W        W 3777  15.730  30.490  11.558
36710W        W 3778   0.949   8.310   0.781
36711W        W 3779  33.938   1.976  11.559
36712W        W 3780  38.509  19.698  11.449
36713W        W 3781  33.058  29.936  11.463
36714W        W 3782   4.822  31.099  12.921
36715W        W 3783  18.673   4.847  13.426
36716W        W 3784  13.216   0.400   1.374
36717W        W 3785  43.009   5.397   3.733
36718W        W 3786  27.949  14.650  11.504
36719W        W 3787   7.686  34.915   4.228
36720W        W 3788  22.141   7.217  11.075
36721W        W 3789   9.648  26.999   2.872
36722W        W 3790   4.367  38.037   3.712
36723W        W 3791  12.328  24.545  11.083
36724W        W 3792  11.675  16.148  11.058
36725W        W 3793  36.390   4.776   2.404
36726W        W 3794  15.125  19.108  14.971
36727W        W 3795  13.833  35.531   2.837
36728W        W 3796  29.118  35.095   9.931
36729W        W 3797  19.551  18.735   4.146
36730W        W 3798  12.216  10.353   4.815
36731W        W 3799  44.966  43.010  13.842
36732W        W 3800  25.610   1.283  12.489
36733W        W 3801  37.399  23.650   1.702
36734W        W 3802  31.410  11.725   1.342
36735W        W 3803  34.428  21.613   3.337
36736W        W 3804  25.487  35.413   2.322
36737W        W 3805  13.268  39.891  11.419
36738W        W 3806  11.713  44.815   2.226
36739W        W 3807  28.616   8.258   3.338
36740W        W 3808  32.992  38.559  11.979
36741W        W 3809  11.625   2.243   3.644
36742W        W 3810  14.106  18.766   4.784
36743W        W 3811  30.950  34.380   2.203
36744W        W 3812  26.527   9.291  14.958
36745W        W 3813  14.702  37.864   4.730
36746W        W 3814  38.537  30.013   3.840
36747W        W 3815  34.598  40.460   2.703
36748W        W 3816  39.024  21.549  14.347
36749W        W 3817   7.236   7.277   1.771
36750W        W 3818  29.559   7.353  11.970
36751W        W 3819  27.114  33.565  13.990
36752W        W 3820  19.569  15.628   0.831
36753W        W 3821  27.616  32.985   2.346
36754W        W 3822   4.945  12.662   2.312
36755W        W 3823   1.849  23.057   2.343
36756W        W 3824  25.469  35.949  14.954
36757W        W 3825   4.752  33.380  13.462
36758W        W 3826   7.258  37.458   1.211
36759W        W 3827   5.695  31.408  13.355
36760W        W 3828  23.060  30.150   0.948
36761W        W 3829  10.225   8.336  14.431
36762W        W 3830  27.017   5.756   3.208
36763W        W 3831  40.391  32.431  13.891
36764W        W 3832  44.302  28.573   2.760
36765W        W 3833  14.320  44.335  12.994
36766W        W 3834   6.757  12.253  12.034
36767W        W 3835  11.665  40.374  13.422
36768W        W 3836  26.063  28.631  14.350
36769W        W 3837   3.819  10.382  14.851
36770W        W 3838   7.830   6.254   1.226
36771W        W 3839   0.953   0.486   3.859
36772W        W 3840  11.194  30.959  11.935
36773W        W 3841  23.710  24.007  12.576
36774W        W 3842  38.042  13.166  12.940
36775W        W 3843  22.149  43.329  14.984
36776W        W 3844  30.135  13.770  13.998
36777W        W 3845   9.250  20.061  13.493
36778W        W 3846  38.056  14.096   1.864
36779W        W 3847  37.345  23.660  12.467
36780W        W 3848  15.720  40.527  11.932
36781W        W 3849  14.593  39.519   1.925
36782W        W 3850  42.906  28.626  11.081
36783W        W 3851  22.500  14.713   3.368
36784W        W 3852  32.631  12.786  12.561
36785W        W 3853  21.229  34.615   3.312
36786W        W 3854  20.191  38.383  12.968
36787W        W 3855  22.535  38.493  12.872
36788W        W 3856   3.292  19.179  11.537
36789W        W 3857  18.770  10.305   2.227
36790W        W 3858   8.379  23.607   1.699
36791W        W 3859  18.199  21.545  13.021
36792W        W 3860  40.027   9.211  14.983
36793W        W 3861  34.506  18.708  13.469
36794W        W 3862  41.798  12.802  12.954
36795W        W 3863   6.867  36.885   2.288
36796W        W 3864  29.461  28.534  11.026
36797W        W 3865  19.231  23.002  12.065
36798W        W 3866  38.026  42.345   0.882
36799W        W 3867  23.589   9.385   1.897
36800W        W 3868  13.320  21.249  13.513
36801W        W 3869  19.646  20.607   0.450
36802W        W 3870  28.576  35.575   3.801
36803W        W 3871   4.804   6.778  10.534
36804W        W 3872  27.173  12.709   3.225
36805W        W 3873  30.535   9.844  14.857
36806W        W 3874   0.871   3.807  10.607
36807W        W 3875  13.675   1.947  12.546
36808W        W 3876  43.441  27.156  11.946
36809W        W 3877  17.791  35.097  11.990
36810W        W 3878  43.425  43.908  11.478
36811W        W 3879  15.219  30.623  10.411
36812W        W 3880  41.386  27.573   3.345
36813W        W 3881  42.979  11.339   3.261
36814W        W 3882  36.848  31.527   0.279
36815W        W 3883  12.254  17.213   4.772
36816W        W 3884  39.816  34.884   3.224
36817W        W 3885  44.306   0.841  13.857
36818W        W 3886  39.905  44.371   1.769
36819W        W 3887   5.932  26.595   1.750
36820W        W 3888  20.608  42.300   0.353
36821W        W 3889   7.864   8.228   3.232
36822W        W 3890   9.353  33.605   1.241
36823W        W 3891  31.588   0.404  12.343
36824W        W 3892  38.481  33.082  14.300
36825W        W 3893   8.320  39.866   4.199
36826W        W 3894  41.378  25.614   4.262
36827W        W 3895  13.275  28.593   4.721
36828W        W 3896   8.204  20.758  12.037
36829W        W 3897  25.995  36.393   1.340
36830W        W 3898  14.785  42.891   0.252
36831W        W 3899  17.192   2.372   2.346
36832W        W 3900  27.534  36.387   0.242
36833W        W 3901  40.953   8.868   0.324
36834W        W 3902   6.830  39.548   0.959
36835W        W 3903  26.515  10.260   0.300
36836W        W 3904  31.917  30.578  14.409
36837W        W 3905  44.466  29.023  11.901
36838W        W 3906  11.681  11.281  11.594
36839W        W 3907  44.412   8.358   0.397
36840W        W 3908  44.901  16.145   2.286
36841W        W 3909  31.081  35.052  10.001
36842W        W 3910   3.406  26.511  12.957
36843W        W 3911  15.186  29.438   1.748
36844W        W 3912  32.900  33.438  12.031
36845W        W 3913   8.192  30.160  13.324
36846W        W 3914  16.225  29.484   1.827
36847W        W 3915  20.719  39.937   3.279
36848W        W 3916   6.679  30.946  12.989
36849W        W 3917  33.980  27.962   2.883
36850W        W 3918  30.962   2.401   0.830
36851W        W 3919  31.487  25.713  13.321
36852W        W 3920  26.692   6.753   4.655
36853W        W 3921   5.854  43.765  14.953
36854W        W 3922  42.457  36.914   1.411
36855W        W 3923  43.350  35.014   0.470
36856W        W 3924  12.329   5.727  11.601
36857W        W 3925   1.757   3.769  11.036
36858W        W 3926  21.671  30.058  12.031
36859W        W 3927   8.891   0.900   3.676
36860W        W 3928  27.501  35.440  14.985
36861W        W 3929  40.811  44.345  10.888
36862W        W 3930  26.679  17.169  14.338
36863W        W 3931   6.859  11.209  14.479
36864W        W 3932   3.350  30.032   1.736
36865W        W 3933  19.187   7.769   3.199
36866W        W 3934  22.648   9.387  14.442
36867W        W 3935  39.551   0.261   3.780
36868W        W 3936  37.510   5.192  11.098
36869W        W 3937   3.449   4.270  11.415
36870W        W 3938  41.374   9.827   3.203
36871W        W 3939  22.527  18.138   2.882
36872W        W 3940   3.738  29.476  11.480
36873W        W 3941   9.157  36.954  11.956
36874W        W 3942  19.121  37.920   1.919
36875W        W 3943  29.601  39.031  14.366
36876W        W 3944  32.996  22.616   1.242
36877W        W 3945  21.207  40.427   3.751
36878W        W 3946  32.549  15.653   0.747
36879W        W 3947  15.658  26.640  13.499
36880W        W 3948  41.950  19.246   2.197
36881W        W 3949  43.924  14.276   3.216
36882W        W 3950   1.748  35.898   5.222
36883W        W 3951  15.660  36.909  10.136
36884W        W 3952  11.831  12.330  12.992
36885W        W 3953  31.408  35.544   4.130
36886W        W 3954  44.312  16.280  13.001
36887W        W 3955  22.139  36.446  12.899
36888W        W 3956   8.854  32.393  12.519
36889W        W 3957  25.038  13.115  10.555
36890W        W 3958  26.567  33.879  11.529
36891W        W 3959   3.944   3.250   5.204
36892W        W 3960  22.745   0.794   2.379
36893W        W 3961  34.379  15.173  14.849
36894W        W 3962  33.566   0.456  12.073
36895W        W 3963  38.567  21.716   4.256
36896W        W 3964  19.241  35.491  11.446
36897W        W 3965   4.873  42.470   1.390
36898W        W 3966  29.589  32.929   1.296
36899W        W 3967  32.932  17.609  14.863
36900W        W 3968  18.281  13.626  14.406
36901W        W 3969  31.528  28.973  13.893
36902W        W 3970   2.920  12.728   1.254
36903W        W 3971  22.551  15.745   0.759
36904W        W 3972  20.239  20.707   3.321
36905W        W 3973   3.864   4.401   1.931
36906W        W 3974  14.768  19.743   0.836
36907W        W 3975   0.315  37.487  13.482
36908W        W 3976  18.276   3.405   0.872
36909W        W 3977  24.675  29.131  10.507
36910W        W 3978  21.603  24.518   4.155
36911W        W 3979  40.910  44.325   4.755
36912W        W 3980  24.566  14.280  13.041
36913W        W 3981  39.909  33.074   1.884
36914W        W 3982  33.557  24.052   0.843
36915W        W 3983  12.693  23.135  14.309
36916W        W 3984  16.801  39.946  10.555
36917W        W 3985  18.698  30.974  14.354
36918W        W 3986  23.031  16.172  14.284
36919W        W 3987  37.507  10.728   2.316
36920W        W 3988  26.041   1.789   2.386
36921W        W 3989  39.809  29.140   2.798
36922W        W 3990  22.517  37.530  11.434
36923W        W 3991  34.404  27.461   1.747
36924W        W 3992  30.107  13.229   1.865
36925W        W 3993   1.970  21.644   4.255
36926W        W 3994   4.901  13.696   4.691
36927W        W 3995  24.140  15.241  12.975
36928W        W 3996  39.524  44.460   2.360
36929W        W 3997  33.441  20.029  13.870
36930W        W 3998  44.379  18.660   5.191
36931W        W 3999   0.830  27.655   2.238
36932W        W 4000  33.006  22.559  14.929
36933W        W 4001  39.329  35.041  13.337
36934W        W 4002  39.055  40.824  11.530
36935W        W 4003  23.527  41.942   4.678
36936W        W 4004  21.221  25.531  14.790
36937W        W 4005   8.676  37.461   1.240
36938W        W 4006  21.613  40.814   5.302
36939W        W 4007  17.689  30.034   3.189
36940W        W 4008   6.353  26.624  12.935
36941W        W 4009  30.577  44.877   1.797
36942W        W 4010   7.734  19.195   9.677
36943W        W 4011   7.758  42.900  11.597
36944W        W 4012  32.886  19.060   0.743
36945W        W 4013  33.949  32.392  11.943
36946W        W 4014  18.286  43.515   1.798
36947W        W 4015  26.074  13.723   3.645
36948W        W 4016  39.865  23.671  10.888
36949W        W 4017  20.562  28.968  10.629
36950W        W 4018  32.076  27.181   1.806
36951W        W 4019  30.558  16.075   2.811
36952W        W 4020  34.916  25.486   2.792
36953W        W 4021  13.348  32.634   3.202
36954W        W 4022   1.890   4.308   1.815
36955W        W 4023  16.210  41.849   2.368
36956W        W 4024  21.604  32.413   0.411
36957W        W 4025  28.935  38.564   2.778
36958W        W 4026  18.564  24.716  14.967
36959W        W 4027  39.983   8.822  13.525
36960W        W 4028  22.637  11.191   4.129
36961W        W 4029  26.067   8.317  14.868
36962W        W 4030  39.895  24.201  11.097
36963W        W 4031  30.923   5.692   0.321
36964W        W 4032  24.587   7.239   0.415
36965W        W 4033  33.953  41.968  10.571
36966W        W 4034  11.132  19.545   2.692
36967W        W 4035   3.889  44.405   4.814
36968W        W 4036  27.143  27.966   0.298
36969W        W 4037  12.713  44.484   0.898
36970W        W 4038  38.465  42.014   4.210
36971W        W 4039  28.101  12.851  11.587
36972W        W 4040  36.096  41.357   1.354
36973W        W 4041  17.237  15.190   1.297
36974W        W 4042   3.879  32.450  14.330
36975W        W 4043  35.366  30.154  14.359
36976W        W 4044  22.057   5.344   0.930
36977W        W 4045  33.427  15.213   0.449
36978W        W 4046  42.428  27.178  13.359
36979W        W 4047  26.145   3.347  12.009
36980W        W 4048  24.052  43.459   2.206
36981W        W 4049  42.791  39.944  10.957
36982W        W 4050  26.481  11.218  14.031
36983W        W 4051  38.930  10.872  12.907
36984W        W 4052   7.817   7.269   4.712
36985W        W 4053  17.227  14.182  14.882
36986W        W 4054  20.749  27.474   4.355
36987W        W 4055   6.810   1.337   1.759
36988W        W 4056  26.609  19.588  12.056
36989W        W 4057  16.801  39.448   4.324
36990W        W 4058  39.320  34.009   2.227
36991W        W 4059  30.117  33.082   1.929
36992W        W 4060  22.009  20.532   1.356
36993W        W 4061   7.264  37.863   2.252
36994W        W 4062   9.836  15.315   2.411
36995W        W 4063  16.734  16.668  13.811
36996W        W 4064  20.631  44.832  10.629
36997W        W 4065  40.459  17.226  13.033
36998W        W 4066   5.323  33.049   1.778
36999W        W 4067  23.132   8.844   4.704
37000W        W 4068  37.011   9.865  12.872
37001W        W 4069  25.003  27.606  12.836
37002W        W 4070  17.570  35.576  12.865
37003W        W 4071  28.975  39.856   0.356
37004W        W 4072  38.378  40.943   3.376
37005W        W 4073  40.927   2.270  14.917
37006W        W 4074  40.470  32.011   5.154
37007W        W 4075  37.856   2.792   0.374
37008W        W 4076  27.619  21.168  13.959
37009W        W 4077  15.580  43.839  11.058
37010W        W 4078  35.432   2.416  13.418
37011W        W 4079  36.049  41.398   0.802
37012W        W 4080  22.237  25.036   3.656
37013W        W 4081  44.884   8.213  11.397
37014W        W 4082   5.397  16.736   3.200
37015W        W 4083  13.298  22.129   3.192
37016W        W 4084  33.624  25.687   2.736
37017W        W 4085  24.687  28.990   3.325
37018W        W 4086  21.179  12.833   9.957
37019W        W 4087  16.793  30.536  12.866
37020W        W 4088  29.586  29.092  11.091
37021W        W 4089  24.010  37.360   2.361
37022W        W 4090  13.272  28.585  11.519
37023W        W 4091  21.093  10.840   4.632
37024W        W 4092   1.309  20.222  12.914
37025W        W 4093  16.245  19.654  11.872
37026W        W 4094  32.948  40.510   4.617
37027W        W 4095  31.931  20.765   3.797
37028W        W 4096  32.505  25.023  12.044
37029W        W 4097  39.512  35.027  14.927
37030W        W 4098  34.095  15.253  11.957
37031W        W 4099   0.367   3.904   2.829
37032W        W 4100  15.109  29.494   4.286
37033W        W 4101  20.709  26.134  12.453
37034W        W 4102  10.267  11.210   1.335
37035W        W 4103  40.397  21.039  13.035
37036W        W 4104  37.387   7.395  10.071
37037W        W 4105  27.057   8.393   1.834
37038W        W 4106  15.731  41.807  10.519
37039W        W 4107  28.455   9.262  12.483
37040W        W 4108  24.175  34.424   2.854
37041W        W 4109  25.628  42.999   0.898
37042W        W 4110  30.443   0.948  13.937
37043W        W 4111  32.018  36.948   0.893
37044W        W 4112  14.169  18.692  11.540
37045W        W 4113  11.276  42.838  13.524
37046W        W 4114  11.128   0.782  11.556
37047W        W 4115  17.704  16.652  13.442
37048W        W 4116  36.990   6.709   2.283
37049W        W 4117  29.598  32.483  12.931
37050W        W 4118  17.116  15.787   3.164
37051W        W 4119  43.491   3.906  13.405
37052W        W 4120  14.648  40.350   1.340
37053W        W 4121  15.134  21.088   1.725
37054W        W 4122  41.419  28.455  12.446
37055W        W 4123   4.435  12.635   1.778
37056W        W 4124  28.165  25.492  10.530
37057W        W 4125   9.858  31.077   0.323
37058W        W 4126  21.219  10.847   0.474
37059W        W 4127  10.735  26.630   0.849
37060W        W 4128  18.777  38.931   2.799
37061W        W 4129   2.253  43.821  14.481
37062W        W 4130  36.459  17.249   1.822
37063W        W 4131  22.201  36.962  13.309
37064W        W 4132   9.289   2.882   2.369
37065W        W 4133  32.482   7.686  10.971
37066W        W 4134   3.338   9.877  10.537
37067W        W 4135   1.360  16.196  11.116
37068W        W 4136  31.576  37.974  12.018
37069W        W 4137  34.948   3.793   1.398
37070W        W 4138  42.491  42.021   1.444
37071W        W 4139  24.054   7.180   2.396
37072W        W 4140  12.272  16.217  11.945
37073W        W 4141  31.008   6.377  13.506
37074W        W 4142  40.355  14.333  10.138
37075W        W 4143   9.667   9.881   3.236
37076W        W 4144   3.730  39.916   1.243
37077W        W 4145  17.161  13.217  13.436
37078W        W 4146  19.752   6.228  14.308
37079W        W 4147  30.114  44.778  14.471
37080W        W 4148  11.227   1.867  12.870
37081W        W 4149  13.237   6.705   1.251
37082W        W 4150   8.864  25.011  11.567
37083W        W 4151  35.435   3.776  11.961
37084W        W 4152  24.670  44.834  10.641
37085W        W 4153  13.754   1.411   3.722
37086W        W 4154  35.873  32.094   3.266
37087W        W 4155  14.212   8.185  11.004
37088W        W 4156  11.206  44.884  14.963
37089W        W 4157   1.735   7.180   1.415
37090W        W 4158   8.734   4.930  11.496
37091W        W 4159  38.549  27.100  13.545
37092W        W 4160   2.306   9.326  13.320
37093W        W 4161  35.042  31.414  10.443
37094W        W 4162  14.127  22.570  13.387
37095W        W 4163  30.521   6.325   1.797
37096W        W 4164   8.794  44.848  13.426
37097W        W 4165  11.861   7.888  12.543
37098W        W 4166  44.000  29.048   3.666
37099W        W 4167  14.751  25.072   4.668
37100W        W 4168  14.306  18.157   2.847
37101W        W 4169  37.905  34.944   4.116
37102W        W 4170  33.502  22.685  12.838
37103W        W 4171  12.622  21.135  13.464
37104W        W 4172  34.991  28.128   0.746
37105W        W 4173  16.300  22.233   2.214
37106W        W 4174  23.507   8.322   4.140
37107W        W 4175  30.530  37.433   4.821
37108W        W 4176   7.301   1.882   1.354
37109W        W 4177  12.688   9.245   4.775
37110W        W 4178  28.471  39.342  13.439
37111W        W 4179  25.027  26.632   1.835
37112W        W 4180  39.991   4.260   3.172
37113W        W 4181  19.069   3.891  14.426
37114W        W 4182  16.223  44.921   0.851
37115W        W 4183  43.784   2.737   0.382
37116W        W 4184  25.658  38.380  13.864
37117W        W 4185   2.873  33.980  13.402
37118W        W 4186  39.330  37.055  10.897
37119W        W 4187  22.114   8.192  14.960
37120W        W 4188  31.468  35.523  13.531
37121W        W 4189   8.173  19.201   0.957
37122W        W 4190   1.938  23.659  12.054
37123W        W 4191  18.772  13.311  14.420
37124W        W 4192  21.586  13.265   3.692
37125W        W 4193  23.010  44.005   1.927
37126W        W 4194  41.916  13.310  14.300
37127W        W 4195  12.260   7.801   0.960
37128W        W 4196   1.385  23.524  13.883
37129W        W 4197  17.687  21.206  11.530
37130W        W 4198  13.211  18.787   4.180
37131W        W 4199  39.429  17.193  14.408
37132W        W 4200   4.319  18.145  13.846
37133W        W 4201  23.998  26.205  13.315
37134W        W 4202   6.409  40.388  10.583
37135W        W 4203  17.562   6.918   1.730
37136W        W 4204   7.239   8.254  12.393
37137W        W 4205   4.371  39.315   4.155
37138W        W 4206  17.592  32.433   4.301
37139W        W 4207  35.530  30.441  13.542
37140W        W 4208   5.387  15.806   3.668
37141W        W 4209  15.618  25.575  11.058
37142W        W 4210  41.358   1.408   0.315
37143W        W 4211  36.489  12.705   0.811
37144W        W 4212  31.537  25.498   0.377
37145W        W 4213  12.752  30.480   4.142
37146W        W 4214  29.567  18.737  12.374
37147W        W 4215  33.425   5.273  10.582
37148W        W 4216  29.081  15.648  11.559
37149W        W 4217  31.484  42.807  10.921
37150W        W 4218  22.148   1.926   1.702
37151W        W 4219  33.990   7.311  11.455
37152W        W 4220   5.416   0.389   2.244
37153W        W 4221   7.172  12.239  13.343
37154W        W 4222  22.017  30.007   3.780
37155W        W 4223  21.583  44.336  10.608
37156W        W 4224  32.562  23.006   2.903
37157W        W 4225  21.072  40.414  13.384
37158W        W 4226  32.559  10.783   3.641
37159W        W 4227   8.764   6.206   3.268
37160W        W 4228   8.384  38.412  14.318
37161W        W 4229  42.519  42.344   1.378
37162W        W 4230  29.610  37.044  12.359
37163W        W 4231  17.559  14.255   3.729
37164W        W 4232  35.895  14.699   3.858
37165W        W 4233  35.978  37.909   4.140
37166W        W 4234  31.543  24.978   2.413
37167W        W 4235  35.430  21.754  10.561
37168W        W 4236  10.141  43.824   1.234
37169W        W 4237   7.788  14.729  11.438
37170W        W 4238  40.852  16.099   2.858
37171W        W 4239  20.540  25.601  10.613
37172W        W 4240  16.193  35.071  11.887
37173W        W 4241   6.231   1.324  13.883
37174W        W 4242  24.517   0.325   3.677
37175W        W 4243  34.389   4.306  14.396
37176W        W 4244   8.718   1.327  13.430
37177W        W 4245  17.135  26.016   1.237
37178W        W 4246  14.170  31.975  14.801
37179W        W 4247  24.201  20.105  14.995
37180W        W 4248   4.426  35.020   1.387
37181W        W 4249  41.489  20.209  14.813
37182W        W 4250  40.913  11.836   0.294
37183W        W 4251   9.390  28.180   4.145
37184W        W 4252  20.627  15.726  12.555
37185W        W 4253   2.894   6.182   4.199
37186W        W 4254  20.033  31.415   4.162
37187W        W 4255  27.536  34.498  10.017
37188W        W 4256  27.639  24.011   4.631
37189W        W 4257  36.889  17.559  11.458
37190W        W 4258  42.338  22.139   3.766
37191W        W 4259  36.947   5.902  10.965
37192W        W 4260  39.359  30.146   3.232
37193W        W 4261   0.809  19.656  10.612
37194W        W 4262  17.575   8.730   2.293
37195W        W 4263  15.728  28.182  11.507
37196W        W 4264   2.793   7.905   4.298
37197W        W 4265   2.850  28.008  10.964
37198W        W 4266   6.695  33.431   2.685
37199W        W 4267  16.306  29.965   3.164
37200W        W 4268   9.662  44.875  14.005
37201W        W 4269  11.208  38.986   1.257
37202W        W 4270  44.920   3.342   0.378
37203W        W 4271  36.898  12.641   0.851
37204W        W 4272  11.689   3.448   4.119
37205W        W 4273  22.742  12.714   1.793
37206W        W 4274  20.579  14.102  12.075
37207W        W 4275  19.725  13.746  12.050
37208W        W 4276  37.832  29.554  14.032
37209W        W 4277  11.842  19.171  14.978
37210W        W 4278  31.478  39.428   3.796
37211W        W 4279  42.294   8.756  13.543
37212W        W 4280  37.441  29.665  14.449
37213W        W 4281   3.789   0.974   2.744
37214W        W 4282   2.932   8.173  13.809
37215W        W 4283  34.445  15.584  13.424
37216W        W 4284  34.393  29.474   3.315
37217W        W 4285  24.624  22.563  14.374
37218W        W 4286   1.416  32.484  11.539
37219W        W 4287  19.057  18.557  11.508
37220W        W 4288  12.182  40.963   0.369
37221W        W 4289   4.836  43.985   3.797
37222W        W 4290   9.856  39.847  11.511
37223W        W 4291  18.742  27.176   0.867
37224W        W 4292  12.302   2.779   4.834
37225W        W 4293  44.885   2.450  13.485
37226W        W 4294  10.696  36.095   4.836
37227W        W 4295  25.991  39.879  14.838
37228W        W 4296   1.808  11.717  12.409
37229W        W 4297  22.723  37.837   1.404
37230W        W 4298  17.068  44.386  13.503
37231W        W 4299  28.467  38.065   4.282
37232W        W 4300  27.619  23.620   3.310
37233W        W 4301  11.168  11.642  14.869
37234W        W 4302  17.227   9.753   1.270
37235W        W 4303  17.197  22.134  13.452
37236W        W 4304  13.718  31.446   0.266
37237W        W 4305  36.060  30.574   0.746
37238W        W 4306   5.333  22.581   2.275
37239W        W 4307  23.112  32.469   3.338
37240W        W 4308  17.717  40.461  14.900
37241W        W 4309   2.433  10.759  12.403
37242W        W 4310   1.308  20.274   3.292
37243W        W 4311  39.356  22.614   2.858
37244W        W 4312  38.893  30.015  14.467
37245W        W 4313   7.774  17.235   3.216
37246W        W 4314  11.627  31.566  13.861
37247W        W 4315  13.777  32.123  11.866
37248W        W 4316  11.134  24.058  14.885
37249W        W 4317  41.043  41.949  10.428
37250W        W 4318  29.054  19.077   0.418
37251W        W 4319  19.761   4.372   0.371
37252W        W 4320  35.081   7.330   0.286
37253W        W 4321  36.068  36.028   4.290
37254W        W 4322  32.112  42.941   0.441
37255W        W 4323  29.449  32.911   0.475
37256W        W 4324  17.184   7.347  13.544
37257W        W 4325  14.143  17.725   4.733
37258W        W 4326  31.950  38.866   4.631
37259W        W 4327  35.022  39.922   4.158
37260W        W 4328  11.215  29.130  13.395
37261W        W 4329   8.390  27.964  10.952
37262W        W 4330  25.137  24.568  10.595
37263W        W 4331  24.488  35.574  10.984
37264W        W 4332   2.948  36.365  12.389
37265W        W 4333  38.477  42.999  13.059
37266W        W 4334  18.631  21.031   0.340
37267W        W 4335  13.276  12.797  13.388
37268W        W 4336  44.944  29.489  11.497
37269W        W 4337  11.784  28.996   0.923
37270W        W 4338  38.839   3.889  11.580
37271W        W 4339  23.147  28.989  12.445
37272W        W 4340  11.759   3.814   3.329
37273W        W 4341  16.239  41.865  13.423
37274W        W 4342  44.815  15.671  14.366
37275W        W 4343  15.291  13.698   1.311
37276W        W 4344  38.951  25.663  13.488
37277W        W 4345  24.219  21.657   0.775
37278W        W 4346  38.049  31.013   0.821
37279W        W 4347  43.421  40.866  10.518
37280W        W 4348  21.695  12.282  13.337
37281W        W 4349   5.205  42.406   2.731
37282W        W 4350  42.453   8.803  10.927
37283W        W 4351   8.384  23.725   2.815
37284W        W 4352  22.178   8.362   2.349
37285W        W 4353  37.471  36.415   3.807
37286W        W 4354  37.489  19.076  12.372
37287W        W 4355  32.963  31.450   0.360
37288W        W 4356  16.133  17.276  12.093
37289W        W 4357  24.033  28.034  11.120
37290W        W 4358  23.665  22.085   1.887
37291W        W 4359  39.004  32.079  10.488
37292W        W 4360  12.255  26.674  13.858
37293W        W 4361  41.518  12.315  14.453
37294W        W 4362  14.683   2.421   4.282
37295W        W 4363  36.926  18.718   3.264
37296W        W 4364  37.889  34.419   3.668
37297W        W 4365  36.929   5.887  10.515
37298W        W 4366  40.835  33.621  11.073
37299W        W 4367   5.199  12.301  10.434
37300W        W 4368  39.389   7.670  11.500
37301W        W 4369  43.416  40.039   2.417
37302W        W 4370  26.101  24.206  12.923
37303W        W 4371  31.458   3.328  13.496
37304W        W 4372  30.110   4.910  14.929
37305W        W 4373   3.895  26.481   3.159
37306W        W 4374  38.062   5.375   4.692
37307W        W 4375  18.258   9.295   3.204
37308W        W 4376  39.447  24.041   3.277
37309W        W 4377  12.643  13.799   3.858
37310W        W 4378  16.688  28.666   2.181
37311W        W 4379  19.598  31.075  14.354
37312W        W 4380   0.331  29.929  14.484
37313W        W 4381   8.738  17.145  12.474
37314W        W 4382  31.916   2.334  14.363
37315W        W 4383   8.850  21.512   2.711
37316W        W 4384  15.620  36.967   1.922
37317W        W 4385  37.934  42.920   1.379
37318W        W 4386  27.189  33.550  11.069
37319W        W 4387  24.000  14.611  12.460
37320W        W 4388   2.425  26.575   3.860
37321W        W 4389  13.691   8.686  14.456
37322W        W 4390  13.651   0.395  12.436
37323W        W 4391  36.939  16.294  13.372
37324W        W 4392   9.198   2.816  13.823
37325W        W 4393   7.682  23.715   9.927
37326W        W 4394  28.490   0.354  12.441
37327W        W 4395  35.871  38.569  12.460
37328W        W 4396   2.394  13.146  11.119
37329W        W 4397  10.264  10.376  10.490
37330W        W 4398  19.638   8.893  11.437
37331W        W 4399   4.710   6.269  12.027
37332W        W 4400  44.957  15.598  11.390
37333W        W 4401  19.076  19.749  13.452
37334W        W 4402   3.293  37.338  11.604
37335W        W 4403  40.538  23.999   5.221
37336W        W 4404  41.807  28.978  13.341
37337W        W 4405  41.411  13.840  10.442
37338W        W 4406  37.975  41.988  13.874
37339W        W 4407  14.815  37.400   2.862
37340W        W 4408   3.225  23.031  10.517
37341W        W 4409  44.800  32.131  14.315
37342W        W 4410  11.213  15.586  10.003
37343W        W 4411  14.778  10.384   4.734
37344W        W 4412  22.544  29.502  10.419
37345W        W 4413  39.491  14.142   3.198
37346W        W 4414  20.259  42.939   0.293
37347W        W 4415  39.052  36.483  13.350
37348W        W 4416   2.734  31.469  14.780
37349W        W 4417  19.267  23.094   0.881
37350W        W 4418  35.945  22.569  13.468
37351W        W 4419  36.428   2.922  12.494
37352W        W 4420  21.102  20.071   4.139
37353W        W 4421  25.607  33.879  13.988
37354W        W 4422  12.828  17.213  13.008
37355W        W 4423  12.669  35.402  11.892
37356W        W 4424  39.029  18.672  13.395
37357W        W 4425   4.264  43.339  12.998
37358W        W 4426  24.503  32.919   2.849
37359W        W 4427  23.072   7.340   4.268
37360W        W 4428  24.654  35.858   3.842
37361W        W 4429  43.339   6.703  12.088
37362W        W 4430  39.957   7.369  11.497
37363W        W 4431  14.286  33.583   4.185
37364W        W 4432  10.788  21.260   2.775
37365W        W 4433   5.697  25.591   2.384
37366W        W 4434  37.047  20.051  10.407
37367W        W 4435   0.425  42.835  14.867
37368W        W 4436  40.920  36.847  10.981
37369W        W 4437   3.425  25.125  10.039
37370W        W 4438  34.613  41.352   2.885
37371W        W 4439  11.243   1.360  11.858
37372W        W 4440  29.441  32.454  11.095
37373W        W 4441  13.799  26.496   0.343
37374W        W 4442   8.675  44.865  14.323
37375W        W 4443  43.838  15.673  10.527
37376W        W 4444  20.238   0.920  13.532
37377W        W 4445   7.738  36.484   1.268
37378W        W 4446  37.370   8.364  13.897
37379W        W 4447  26.527  26.529   4.665
37380W        W 4448   1.259  22.692  10.461
37381W        W 4449  26.954   2.746  14.903
37382W        W 4450   5.819  43.844  13.809
37383W        W 4451   0.268  35.419   1.389
37384W        W 4452   5.333  14.686   1.246
37385W        W 4453  29.524  26.702   5.159
37386W        W 4454  14.131  39.809   3.793
37387W        W 4455  15.180  33.477  13.950
37388W        W 4456  30.626   9.674  13.442
37389W        W 4457  23.661   8.222  12.088
37390W        W 4458  17.710  25.650  14.896
37391W        W 4459  42.991  10.218   3.179
37392W        W 4460  30.162  14.809  11.576
37393W        W 4461  27.607  21.199   1.898
37394W        W 4462  11.664  17.252   2.280
37395W        W 4463   5.814   5.202  13.962
37396W        W 4464   9.163  40.975  12.575
37397W        W 4465  11.728  31.047  14.279
37398W        W 4466  36.086  34.914  12.002
37399W        W 4467   0.743  44.805   3.364
37400W        W 4468  42.493  29.056   0.462
37401W        W 4469  33.952  12.708  11.415
37402W        W 4470   9.157  25.504   3.785
37403W        W 4471   6.272  19.562  12.985
37404W        W 4472   6.356  35.444  12.494
37405W        W 4473  33.968  42.285   4.778
37406W        W 4474  39.915  13.310   3.299
37407W        W 4475  42.877  14.732  14.281
37408W        W 4476   9.319  20.039   0.931
37409W        W 4477  32.046  36.388  13.853
37410W        W 4478  14.717  33.481   1.298
37411W        W 4479  25.621  11.167  12.980
37412W        W 4480   3.895  31.405   4.283
37413W        W 4481  34.418  24.669  10.492
37414W        W 4482  42.290   4.770  11.451
37415W        W 4483  29.021  33.567   4.662
37416W        W 4484  35.992  18.760   1.858
37417W        W 4485  23.705  43.852   3.303
37418W        W 4486  22.629  28.445  10.126
37419W        W 4487  35.074  34.561   3.289
37420W        W 4488  20.606  23.022  11.981
37421W        W 4489  27.463  29.575   3.152
37422W        W 4490  26.022   6.247   0.474
37423W        W 4491  15.211  25.640   1.849
37424W        W 4492  42.387  23.699   2.744
37425W        W 4493  37.021  23.152   3.783
37426W        W 4494  16.297  13.808  12.985
37427W        W 4495  16.799   5.281  12.830
37428W        W 4496  25.072   6.371   1.392
37429W        W 4497  19.082   4.888   4.120
37430W        W 4498  22.130  29.144   2.702
37431W        W 4499  25.512  14.114   4.320
37432W        W 4500   3.281  33.101  11.942
37433W        W 4501   5.252  23.702   1.814
37434W        W 4502  37.566  44.783   0.800
37435W        W 4503   5.201  15.137  12.973
37436W        W 4504   6.185  44.818  10.417
37437W        W 4505   8.689  23.085  11.503
37438W        W 4506  27.662  35.476   0.768
37439W        W 4507   4.943   9.758   3.655
37440W        W 4508   0.796  24.075  12.345
37441W        W 4509  17.152   1.735   2.332
37442W        W 4510  28.182  32.544  11.858
37443W        W 4511  36.900  40.537   4.615
37444W        W 4512  28.558  27.477   2.809
37445W        W 4513   7.325  28.992  14.462
37446W        W 4514  21.023  36.465   5.125
37447W        W 4515  33.959  13.301   2.682
37448W        W 4516   9.239  44.457   3.238
37449W        W 4517   4.779  25.116  11.496
37450W        W 4518  34.559  31.091   0.363
37451W        W 4519  42.909  25.515  11.124
37452W        W 4520  41.515  27.958  11.472
37453W        W 4521  42.467   8.814   2.822
37454W        W 4522  43.302  33.463   3.285
37455W        W 4523  17.178  17.125   5.201
37456W        W 4524  34.499  32.467  11.019
37457W        W 4525  17.761  23.721  13.327
37458W        W 4526   1.356  41.937  14.771
37459W        W 4527   7.275  13.108   3.362
37460W        W 4528  11.729  32.048  12.492
37461W        W 4529  13.837  20.547  14.022
37462W        W 4530  13.161   4.856  12.453
37463W        W 4531  28.015   1.425  10.445
37464W        W 4532  19.693   8.857  13.421
37465W        W 4533  40.936  26.516  10.569
37466W        W 4534  44.893  34.512  12.046
37467W        W 4535  23.705  30.955  10.628
37468W        W 4536  33.407  40.383  13.496
37469W        W 4537  25.597  17.752   2.296
37470W        W 4538   4.359  44.831   2.801
37471W        W 4539   8.315  19.152   0.378
37472W        W 4540   4.801  42.852   1.699
37473W        W 4541  25.064  19.093  11.422
37474W        W 4542  14.327  35.997   1.393
37475W        W 4543  19.772   3.953   0.302
37476W        W 4544  20.541  19.079  13.849
37477W        W 4545  30.915  28.128  13.064
37478W        W 4546  36.501  26.099  13.526
37479W        W 4547  24.005   2.258  14.813
37480W        W 4548  11.861   7.251   4.766
37481W        W 4549  25.085   2.291  14.803
37482W        W 4550  36.857  13.649   3.239
37483W        W 4551  41.507   8.259  12.939
37484W        W 4552  37.880  20.263   4.275
37485W        W 4553  11.829  19.126  12.917
37486W        W 4554  36.561  14.625  13.958
37487W        W 4555  42.945  19.581  10.149
37488W        W 4556  28.130  29.995   4.835
37489W        W 4557  33.900  10.773  10.999
37490W        W 4558  42.385  39.050   4.802
37491W        W 4559  22.729  26.532   3.263
37492W        W 4560  15.730  31.145   2.761
37493W        W 4561  31.591  39.896  12.391
37494W        W 4562  44.754  26.072   4.654
37495W        W 4563   3.817  25.102   2.312
37496W        W 4564  24.103  16.688   3.690
37497W        W 4565  44.822  15.314  12.848
37498W        W 4566  21.039  10.814  11.869
37499W        W 4567  20.562  39.825   3.701
37500W        W 4568  33.439  37.381   2.725
37501W        W 4569   6.418  19.738   3.864
37502W        W 4570  11.261   9.775   0.274
37503W        W 4571  44.811  21.675   2.379
37504W        W 4572  30.580  18.268   4.815
37505W        W 4573   1.477  44.761   0.459
37506W        W 4574  30.109  44.816  12.013
37507W        W 4575  19.248  23.150  12.374
37508W        W 4576  43.432  15.267  13.504
37509W        W 4577   0.808  32.963   1.282
37510W        W 4578  22.234  36.013   1.307
37511W        W 4579  29.025  40.827  11.855
37512W        W 4580  24.645  25.129   4.700
37513W        W 4581  29.483  31.007   4.704
37514W        W 4582  44.432  23.624   3.685
37515W        W 4583   4.835  37.899  13.545
37516W        W 4584  16.770  30.069   2.677
37517W        W 4585   9.811  39.318  10.622
37518W        W 4586  12.302  39.494   4.144
37519W        W 4587  40.327  38.850   4.272
37520W        W 4588  35.566  22.603  12.363
37521W        W 4589   0.454  42.795   0.882
37522W        W 4590   2.417  29.076  13.364
37523W        W 4591  24.147  36.000   3.239
37524W        W 4592  29.022   7.298   1.272
37525W        W 4593  26.486  23.681   3.222
37526W        W 4594   4.264  40.529  10.541
37527W        W 4595  16.138  30.540   4.703
37528W        W 4596   1.297  17.273  13.467
37529W        W 4597  16.708  22.013   3.298
37530W        W 4598  21.023  20.545   4.122
37531W        W 4599  10.359   2.868   2.798
37532W        W 4600  30.627  15.677   2.828
37533W        W 4601  28.577  40.518   3.185
37534W        W 4602  27.007   5.738   1.729
37535W        W 4603  39.854   3.765  14.442
37536W        W 4604   4.376   3.407  10.641
37537W        W 4605   8.783   7.808  11.570
37538W        W 4606  42.451   5.793  10.428
37539W        W 4607   6.763   3.773   1.298
37540W        W 4608  41.479  18.741   0.833
37541W        W 4609  27.948  43.339   4.698
37542W        W 4610  37.979  27.649  12.491
37543W        W 4611  30.440  37.081  10.487
37544W        W 4612  29.510  15.155  12.474
37545W        W 4613   7.762  30.990   4.325
37546W        W 4614  35.004   8.715   0.924
37547W        W 4615   8.799  21.625  14.425
37548W        W 4616  29.559  25.632  11.588
37549W        W 4617  26.045  35.491   1.227
37550W        W 4618  19.093  40.426   2.190
37551W        W 4619  22.530  26.974  10.545
37552W        W 4620  28.531  42.525   4.143
37553W        W 4621  30.545   9.277   3.803
37554W        W 4622   5.268  23.513   0.960
37555W        W 4623  25.625  44.773  13.918
37556W        W 4624  11.709  33.013   4.347
37557W        W 4625  18.110  23.490  12.373
37558W        W 4626  29.504  19.568  13.043
37559W        W 4627  33.055  28.442   1.311
37560W        W 4628  28.524  22.045   3.382
37561W        W 4629  32.562  39.857  14.430
37562W        W 4630  20.256  44.487   2.384
37563W        W 4631  34.514   3.274   4.767
37564W        W 4632  29.107  15.636   3.299
37565W        W 4633  12.146  15.216   2.395
37566W        W 4634  17.189  36.592   4.661
37567W        W 4635  34.586  21.180   4.652
37568W        W 4636  24.017  19.265   0.751
37569W        W 4637  22.619   7.765   2.817
37570W        W 4638  36.371   0.794  10.974
37571W        W 4639  27.054  38.374   4.332
37572W        W 4640  26.642  12.314  12.561
37573W        W 4641   5.693  40.391   3.787
37574W        W 4642  25.163  44.483  14.394
37575W        W 4643  27.522  13.217   3.746
37576W        W 4644   3.356  30.497  12.428
37577W        W 4645   0.491  11.669   1.450
37578W        W 4646  40.001  28.485   0.338
37579W        W 4647  34.562  24.531  14.399
37580W        W 4648  37.337  28.517   3.673
37581W        W 4649   0.776  24.501   3.203
37582W        W 4650  42.996  15.320   3.849
37583W        W 4651  29.665  31.540   5.238
37584W        W 4652   7.688  18.649   1.842
37585W        W 4653   5.233  16.761  10.602
37586W        W 4654  23.140  42.823  13.815
37587W        W 4655  26.143  37.993   0.467
37588W        W 4656   1.957  17.780   4.149
37589W        W 4657  11.838  20.696  13.917
37590W        W 4658  43.289  11.844  14.980
37591W        W 4659  15.786   9.749  11.444
37592W        W 4660  34.002  28.026  13.059
37593W        W 4661   9.687  13.179   0.761
37594W        W 4662  16.668  36.889  12.371
37595W        W 4663  23.161   6.416   2.901
37596W        W 4664  19.709  41.836   4.229
37597W        W 4665  14.704  13.175  10.468
37598W        W 4666   0.946  24.988   1.251
37599W        W 4667   1.309  34.876  10.422
37600W        W 4668   6.865   8.211  11.862
37601W        W 4669   8.737  22.708   0.405
37602W        W 4670  44.491  29.023   1.712
37603W        W 4671   4.262   0.292  10.548
37604W        W 4672  22.656  32.050   2.856
37605W        W 4673  13.794  20.708  14.839
37606W        W 4674  12.358  39.875  12.902
37607W        W 4675  38.960  33.997   1.328
37608W        W 4676  35.454  17.211   2.382
37609W        W 4677  18.779  17.128  11.909
37610W        W 4678  35.894   2.440   3.843
37611W        W 4679  37.395   1.386  10.433
37612W        W 4680  28.010  44.887  11.395
37613W        W 4681   7.365  21.217  13.904
37614W        W 4682  21.124  36.021  12.468
37615W        W 4683  16.289  12.326   3.160
37616W        W 4684   2.277  19.145  12.518
37617W        W 4685  27.165  21.598  10.900
37618W        W 4686   3.743  24.605  11.474
37619W        W 4687   0.484  26.694   4.240
37620W        W 4688  20.592  16.759  13.952
37621W        W 4689  25.990  29.493   0.776
37622W        W 4690  30.090   2.945   3.807
37623W        W 4691  18.246  28.486   2.674
37624W        W 4692  27.191   7.797   3.309
37625W        W 4693  18.250   8.274   3.234
37626W        W 4694  44.364  33.018  10.902
37627W        W 4695  44.385  28.562   1.296
37628W        W 4696   2.364  44.352  14.347
37629W        W 4697  18.728  11.855  14.904
37630W        W 4698   4.234   6.385   2.876
37631W        W 4699  44.375  38.075   0.450
37632W        W 4700  26.015  17.738  14.282
37633W        W 4701   0.322  13.111  14.280
37634W        W 4702  41.865   6.224   1.248
37635W        W 4703  21.546   7.819  10.617
37636W        W 4704  22.046  43.345   1.293
37637W        W 4705  15.642  40.343  14.945
37638W        W 4706   0.447  24.586   2.805
37639W        W 4707  23.208   5.382  14.886
37640W        W 4708  32.976  31.080  12.866
37641W        W 4709  33.084  10.198  12.525
37642W        W 4710  23.597  35.858   3.860
37643W        W 4711  26.699  11.719  11.959
37644W        W 4712   0.371  28.679   1.277
37645W        W 4713  39.959   0.431   1.706
37646W        W 4714  33.931   0.409   4.619
37647W        W 4715  43.817  15.740  14.005
37648W        W 4716  29.025  36.879   1.348
37649W        W 4717  24.689  38.906   4.811
37650W        W 4718  11.797  42.934   1.404
37651W        W 4719   3.722  14.821   1.843
37652W        W 4720   5.888  28.545   4.264
37653W        W 4721  16.721  25.096   0.270
37654W        W 4722  14.137  19.538   2.726
37655W        W 4723   5.725   0.916   4.345
37656W        W 4724  29.502  40.893  13.064
37657W        W 4725   0.972  31.474  12.556
37658W        W 4726   1.243  23.576   3.663
37659W        W 4727  36.949  12.300   2.306
37660W        W 4728  17.679  39.994  10.948
37661W        W 4729   1.360  41.844   0.897
37662W        W 4730  11.734  39.329  14.429
37663W        W 4731  43.386  41.346  11.463
37664W        W 4732   1.395   1.753  14.002
37665W        W 4733  41.486  25.611  10.536
37666W        W 4734   6.220  44.333   3.667
37667W        W 4735  21.068  38.017  12.416
37668W        W 4736   5.209  11.312   4.751
37669W        W 4737  30.924  13.698  14.480
37670W        W 4738  14.124   7.890   4.735
37671W        W 4739  27.025   1.287  13.419
37672W        W 4740  14.292  17.160   4.656
37673W        W 4741  36.854  14.726  12.062
37674W        W 4742   7.700  25.645   0.751
37675W        W 4743  40.911  33.587  13.796
37676W        W 4744  22.585  31.128  14.839
37677W        W 4745  29.428  10.839   4.716
37678W        W 4746  28.504  17.105  11.865
37679W        W 4747  24.510   7.904  14.857
37680W        W 4748  33.918   5.357   4.272
37681W        W 4749  21.722  32.629   3.380
37682W        W 4750  44.299   2.937  14.839
37683W        W 4751   8.713   4.390  13.360
37684W        W 4752   6.687   3.942   2.901
37685W        W 4753  15.312  19.661   5.225
37686W        W 4754  33.588   5.352   1.793
37687W        W 4755  29.068  27.984  14.488
37688W        W 4756  10.140   3.264  14.912
37689W        W 4757  14.663  39.861   2.237
37690W        W 4758  36.360  27.578  13.052
37691W        W 4759  15.084   0.348   0.445
37692W        W 4760  14.677  17.637  14.279
37693W        W 4761  12.166  41.969  14.024
37694W        W 4762  10.778  16.157   4.713
37695W        W 4763  16.172  16.633  14.942
37696W        W 4764   0.945  33.006  10.615
37697W        W 4765  11.167  28.009   4.792
37698W        W 4766  44.259   4.259   4.616
37699W        W 4767  22.213  10.754  12.543
37700W        W 4768   3.319  14.143  10.946
37701W        W 4769  18.632  26.992  11.979
37702W        W 4770  18.295  27.684   1.841
37703W        W 4771  33.034  27.111  13.324
37704W        W 4772  15.199  28.021   1.751
37705W        W 4773  12.283  20.075  13.435
37706W        W 4774  18.291   8.871   0.744
37707W        W 4775  36.013  40.348   0.919
37708W        W 4776   1.868  33.953  13.475
37709W        W 4777  11.327  30.650   3.773
37710W        W 4778  28.116  33.884   0.945
37711W        W 4779  29.100   2.847  12.452
37712W        W 4780  14.249   8.845  14.385
37713W        W 4781  11.689  41.822  14.904
37714W        W 4782  39.023  33.398  14.789
37715W        W 4783  22.536   6.243   2.402
37716W        W 4784  18.774  42.900   4.806
37717W        W 4785  22.678  19.609  11.543
37718W        W 4786   6.420  36.436   1.874
37719W        W 4787   8.177  17.782  11.540
37720W        W 4788  25.127   4.798  10.900
37721W        W 4789   1.891   3.763   1.339
37722W        W 4790  35.479  43.920  14.901
37723W        W 4791  11.262   8.820   9.947
37724W        W 4792  11.202  32.140  12.558
37725W        W 4793   1.972   0.321  13.327
37726W        W 4794   1.400  10.227   0.892
37727W        W 4795  35.464  32.637  11.456
37728W        W 4796  37.835  36.872  12.390
37729W        W 4797  24.024  38.028  12.567
37730W        W 4798  15.280  27.151   1.709
37731W        W 4799  31.138  31.575  11.498
37732W        W 4800  42.429  44.844  12.840
37733W        W 4801  16.318  36.843  11.467
37734W        W 4802   9.846  14.835   2.836
37735W        W 4803   9.313   4.446   4.659
37736W        W 4804  24.226   4.214  14.402
37737W        W 4805  29.466  20.256   2.891
37738W        W 4806  15.112  25.511   2.788
37739W        W 4807  20.598  28.169   4.119
37740W        W 4808  14.229  11.677  10.640
37741W        W 4809  20.117  29.080  11.053
37742W        W 4810  22.675  15.157  12.561
37743W        W 4811  23.584  12.286   3.215
37744W        W 4812  35.478  15.670  13.512
37745W        W 4813  39.560  42.433   3.147
37746W        W 4814  17.657  30.988   0.326
37747W        W 4815   9.670   5.262   2.204
37748W        W 4816   3.246  18.155  13.876
37749W        W 4817  14.278   9.712   9.999
37750W        W 4818  20.649  44.009   2.301
37751W        W 4819  27.120  27.180   1.330
37752W        W 4820   7.219  30.142   2.403
37753W        W 4821  41.327  17.258   2.395
37754W        W 4822  23.018  35.876  12.089
37755W        W 4823  25.578  19.544  12.941
37756W        W 4824  30.017  40.853  10.411
37757W        W 4825  43.345  17.798   3.250
37758W        W 4826  24.020  33.936   4.292
37759W        W 4827  12.127  20.718   1.385
37760W        W 4828  38.908  29.120   1.878
37761W        W 4829   6.185  37.080  14.365
37762W        W 4830  22.159  14.818  14.345
37763W        W 4831  44.366  29.008   2.674
37764W        W 4832   6.704  21.174  12.062
37765W        W 4833  28.590  33.957   1.394
37766W        W 4834  19.221  36.400  11.602
37767W        W 4835  29.942  14.658   4.296
37768W        W 4836   2.723  19.656  11.555
37769W        W 4837  32.524  11.302  10.404
37770W        W 4838   0.822  13.718   4.337
37771W        W 4839  12.126  31.099  12.910
37772W        W 4840  32.485   4.876  10.491
37773W        W 4841  12.747  31.073  13.405
37774W        W 4842  10.728  40.920   2.691
37775W        W 4843  41.383  27.640   1.875
37776W        W 4844   5.365  27.187   1.697
37777W        W 4845  24.494  37.384  14.954
37778W        W 4846  28.109  37.046  10.502
37779W        W 4847   9.228  19.180   1.403
37780W        W 4848  40.931   6.420   2.866
37781W        W 4849   0.905   8.665  12.566
37782W        W 4850  10.302  40.417   4.139
37783W        W 4851  22.571  32.431  10.557
37784W        W 4852  27.019  17.658   3.673
37785W        W 4853  17.254  25.099   1.802
37786W        W 4854  32.139   3.775  12.579
37787W        W 4855  34.418  25.087  11.451
37788W        W 4856  24.973  20.711  12.972
37789W        W 4857   8.280  33.497   1.712
37790W        W 4858  32.628   4.400   1.442
37791W        W 4859  33.071  34.946  14.797
37792W        W 4860  32.906  32.933   1.409
37793W        W 4861  19.718  22.699  10.460
37794W        W 4862  25.630  34.440   4.163
37795W        W 4863  15.207   4.925  12.365
37796W        W 4864  36.560  22.596  12.827
37797W        W 4865   0.289  33.081  12.553
37798W        W 4866  39.407  19.664   3.721
37799W        W 4867  43.456   1.796  12.084
37800W        W 4868  23.016  43.871   0.790
37801W        W 4869  29.986  11.780  14.485
37802W        W 4870  33.995  12.144  14.972
37803W        W 4871  28.596  42.031   0.852
37804W        W 4872  28.601  40.812  11.036
37805W        W 4873  15.664  40.391  11.011
37806W        W 4874  21.533   2.358   2.747
37807W        W 4875  44.858  43.378   1.229
37808W        W 4876  35.080  40.812   0.741
37809W        W 4877   3.786   8.400   2.689
37810W        W 4878  22.741  31.924  12.490
37811W        W 4879  39.373  38.902   2.288
37812W        W 4880  14.100  33.043   2.336
37813W        W 4881  36.404  29.002  10.408
37814W        W 4882  15.582  11.365   3.799
37815W        W 4883  14.797  17.657  13.364
37816W        W 4884  11.228  37.001  14.333
37817W        W 4885  16.296   5.849   0.447
37818W        W 4886  27.670   7.315  12.957
37819W        W 4887  12.197  39.541   2.216
37820W        W 4888  15.665  35.955   5.168
37821W        W 4889   6.708   7.828   1.347
37822W        W 4890  17.586  31.402   0.424
37823W        W 4891  10.366  14.618   0.262
37824W        W 4892  19.706   5.298  13.329
37825W        W 4893  19.120   9.253  10.471
37826W        W 4894  27.566  25.535  11.549
37827W        W 4895  14.765  24.573  12.863
37828W        W 4896   5.703   5.688  11.516
37829W        W 4897  16.091  32.907  14.343
37830W        W 4898  24.515  20.202  12.417
37831W        W 4899  25.660   9.819   2.252
37832W        W 4900  23.026  33.592  10.643
37833W        W 4901  43.270   3.221   0.389
37834W        W 4902   6.206   4.851  10.546
37835W        W 4903  13.679  30.931   4.747
37836W        W 4904  30.114  35.476   2.199
37837W        W 4905   2.382  27.566  14.352
37838W        W 4906  33.571  19.630   4.709
37839W        W 4907  42.398  28.658  12.874
37840W        W 4908  16.165  32.927   0.363
37841W        W 4909  39.323   3.879  11.463
37842W        W 4910   3.794  16.248  10.590
37843W        W 4911  38.348  21.724   0.729
37844W        W 4912  28.174   1.967   3.808
37845W        W 4913  18.565  22.658   0.405
37846W        W 4914   4.428  24.119  14.916
37847W        W 4915  43.934  42.845   2.412
37848W        W 4916  15.788  10.713   0.311
37849W        W 4917  42.518   1.903  11.377
37850W        W 4918   0.318  37.897  11.919
37851W        W 4919   4.754   3.874  11.005
37852W        W 4920  42.438   1.734   0.426
37853W        W 4921  13.664  44.444   1.259
37854W        W 4922  23.081  31.941  12.971
37855W        W 4923  38.458  25.047   1.872
37856W        W 4924  17.162  23.722  14.359
37857W        W 4925  41.305  32.582  14.479
37858W        W 4926  26.661  17.123  11.390
37859W        W 4927  44.822  25.965  10.475
37860W        W 4928  40.450  14.106   3.224
37861W        W 4929  18.127  13.270  10.556
37862W        W 4930   6.756  37.075   4.810
37863W        W 4931  24.038  21.112   0.376
37864W        W 4932  36.531   3.430  10.953
37865W        W 4933   9.710  42.843  14.438
37866W        W 4934  40.459  30.931   0.869
37867W        W 4935   7.890  21.660   3.855
37868W        W 4936  10.879   1.961  11.941
37869W        W 4937  35.941  39.906  11.953
37870W        W 4938  14.659  30.426  11.558
37871W        W 4939  31.945  21.090  13.384
37872W        W 4940  38.056   4.403  12.938
37873W        W 4941  25.495  20.185   3.750
37874W        W 4942  30.530  17.230   4.252
37875W        W 4943  21.575   5.243   3.295
37876W        W 4944  41.366  15.626   4.273
37877W        W 4945  16.312  16.189   3.781
37878W        W 4946   2.313  15.578   0.442
37879W        W 4947  22.100  43.875  11.079
37880W        W 4948   4.922  27.176   3.303
37881W        W 4949  27.650   9.803  13.909
37882W        W 4950  40.959  39.007   4.250
37883W        W 4951  24.571   3.362  13.825
37884W        W 4952   0.435   9.786   4.601
37885W        W 4953  17.260  25.027  10.915
37886W        W 4954  24.181  26.467   2.251
37887W        W 4955  43.837   4.374  13.031
37888W        W 4956  26.471  10.304   3.794
37889W        W 4957  37.017  24.551   3.364
37890W        W 4958   5.794  26.593  12.073
37891W        W 4959  33.885  27.069   1.700
37892W        W 4960   9.755  24.487   2.687
37893W        W 4961  27.517  13.332   2.832
37894W        W 4962  33.551   7.310   3.739
37895W        W 4963  44.957  33.080   1.331
37896W        W 4964   4.322  26.154  11.027
37897W        W 4965  23.665  15.765  13.435
37898W        W 4966  22.727  31.579  10.516
37899W        W 4967  24.721  38.030   3.246
37900W        W 4968  13.207  27.560  14.497
37901W        W 4969  28.032   9.171   2.282
37902W        W 4970   9.172  14.778  14.329
37903W        W 4971  30.488  40.847  13.821
37904W        W 4972  26.966  37.528  14.395
37905W        W 4973   6.328  29.473   0.480
37906W        W 4974  25.193  39.982  12.482
37907W        W 4975  37.998  26.958   2.180
37908W        W 4976  28.463  18.241  13.457
37909W        W 4977   0.469  11.635  12.860
37910W        W 4978   3.342  40.932   0.796
37911W        W 4979  28.675  26.680   2.300
37912W        W 4980   1.312  21.142  11.022
37913W        W 4981  35.517   3.780  13.055
37914W        W 4982   2.823   5.387  10.901
37915W        W 4983  43.452  40.530   2.840
37916W        W 4984  15.790  34.923   0.925
37917W        W 4985  33.930  32.017  12.370
37918W        W 4986  41.340  29.557  14.440
37919W        W 4987  38.543  12.780   0.879
37920W        W 4988  13.346   3.779  13.440
37921W        W 4989  22.242   3.722  13.328
37922W        W 4990  42.508  39.521  14.411
37923W        W 4991   1.321  10.807  11.525
37924W        W 4992  44.491  38.553  12.968
37925W        W 4993   0.491  36.560   4.681
37926W        W 4994   8.661  36.927  12.528
37927W        W 4995  10.808  26.651  10.419
37928W        W 4996   0.876   3.368   3.243
37929W        W 4997  22.076  30.159  12.944
37930W        W 4998  25.168  42.466   1.760
37931W        W 4999  12.741  35.015   3.636
37932W        W 5000  23.183  16.570  14.885
37933W        W 5001  40.528   5.923   0.883
37934W        W 5002   9.347  30.555   1.210
37935W        W 5003  32.123   9.800  14.450
37936W        W 5004  13.724  24.708  10.508
37937W        W 5005  44.381  44.939   2.724
37938W        W 5006  14.791  43.353  14.937
37939W        W 5007  18.229  34.110  14.899
37940W        W 5008  40.925  25.654   3.167
37941W        W 5009  37.510  12.650  13.010
37942W        W 5010  37.378  24.631  10.519
37943W        W 5011  41.478  22.041   4.780
37944W        W 5012  30.506  40.007  12.954
37945W        W 5013  37.997  19.238   0.472
37946W        W 5014   5.858  13.223   4.247
37947W        W 5015  27.557  22.627  14.512
37948W        W 5016  15.684  33.396   3.710
37949W        W 5017   5.910   5.707  14.355
37950W        W 5018  33.046  31.934   0.268
37951W        W 5019  17.672  31.615  14.312
37952W        W 5020  43.016   6.728   1.887
37953W        W 5021  38.467  34.418  10.941
37954W        W 5022  25.548  27.056   0.468
37955W        W 5023  10.301  43.322   1.409
37956W        W 5024  22.018  32.952  12.869
37957W        W 5025  17.796  10.166   1.698
37958W        W 5026  43.510  25.711   3.781
37959W        W 5027  12.325   1.396  10.921
37960W        W 5028   4.934  30.080   4.629
37961W        W 5029  19.616   0.338  10.118
37962W        W 5030  12.611  34.077   2.728
37963W        W 5031  25.530  40.807  11.416
37964W        W 5032  27.053  19.145   1.907
37965W        W 5033   1.291  28.586  11.017
37966W        W 5034  30.648  12.838   2.832
37967W        W 5035  39.490  30.598   4.174
37968W        W 5036  42.920  35.858   3.847
37969W        W 5037  21.163  11.697  12.092
37970W        W 5038  30.429  42.308  12.467
37971W        W 5039  22.055  44.275   0.952
37972W        W 5040  36.059  34.025   3.159
37973W        W 5041  18.663  33.517  13.371
37974W        W 5042  30.007  17.101  12.344
37975W        W 5043  23.112  36.972   4.169
37976W        W 5044  41.032   4.310  13.968
37977W        W 5045   2.954   2.415  12.846
37978W        W 5046  26.110  32.902  11.501
37979W        W 5047  19.103  25.527   1.920
37980W        W 5048   8.665   6.393   2.720
37981W        W 5049  26.636  35.862   0.435
37982W        W 5050  34.550   7.369   3.762
37983W        W 5051  28.137  20.195  14.477
37984W        W 5052  20.727  32.608   1.309
37985W        W 5053  26.149  18.639  11.980
37986W        W 5054   7.912  36.944  14.394
37987W        W 5055  13.156  43.413  11.070
37988W        W 5056  18.711  40.440  12.359
37989W        W 5057  42.351  40.908  10.522
37990W        W 5058  31.039  22.208  11.029
37991W        W 5059   8.211  39.447  12.520
37992W        W 5060  30.642  18.693   0.456
37993W        W 5061  12.175  22.141   1.261
37994W        W 5062  23.563  15.684  14.796
37995W        W 5063  14.196  42.984  12.346
37996W        W 5064  31.447  33.441  13.377
37997W        W 5065  14.744   1.410  11.453
37998W        W 5066  27.125   3.889   3.365
37999W        W 5067  41.841   4.312   2.672
38000W        W 5068  10.752   7.211  10.641
38001W        W 5069  28.049  27.656  11.392
38002W        W 5070   7.888  13.189  12.923
38003W        W 5071  44.297  23.634   4.616
38004W        W 5072   5.345  25.581  10.478
38005W        W 5073   5.281  17.163  13.892
38006W        W 5074  16.677  10.793  14.328
38007W        W 5075   7.317  12.810  13.462
38008W        W 5076  39.372   8.818  10.605
38009W        W 5077   0.350   8.195  13.980
38010W        W 5078  26.494  41.918  10.459
38011W        W 5079  30.653  32.553  10.992
38012W        W 5080  37.366  31.939   2.385
38013W        W 5081  30.982  11.169  12.919
38014W        W 5082  28.028  40.508   2.882
38015W        W 5083   6.893   7.220   2.386
38016W        W 5084  12.792  28.174  14.023
38017W        W 5085  27.149  21.077  12.559
38018W        W 5086  14.279   8.208   1.806
38019W        W 5087  26.181  29.667  10.999
38020W        W 5088  18.172  14.594   2.677
38021W        W 5089  19.227  19.266  14.369
38022W        W 5090  28.030  23.041  10.551
38023W        W 5091   1.446   3.732  14.862
38024W        W 5092  21.077  20.729   2.871
38025W        W 5093  24.499  36.005  14.342
38026W        W 5094  25.524  13.697  11.907
38027W        W 5095   2.852  36.347   2.881
38028W        W 5096  13.306   8.701  14.921
38029W        W 5097  16.179   0.972   2.728
38030W        W 5098  31.024  28.064  14.372
38031W        W 5099  26.060  33.939   4.183
38032W        W 5100  23.668  33.045   1.838
38033W        W 5101  29.927  14.283   2.883
38034W        W 5102  33.892  42.877  13.460
38035W        W 5103  33.886   7.818   2.228
38036W        W 5104  38.462  41.815   0.832
38037W        W 5105  44.462   1.444   4.242
38038W        W 5106  20.210  17.223  14.771
38039W        W 5107  14.698  29.967   4.151
38040W        W 5108  12.782  11.683  14.002
38041W        W 5109  22.664   0.278  11.996
38042W        W 5110  17.621  20.642   1.725
38043W        W 5111  25.566  18.772  10.583
38044W        W 5112  25.032  27.145   2.736
38045W        W 5113   5.235   5.839  12.365
38046W        W 5114   4.445  40.338   0.271
38047W        W 5115  19.191  33.615   0.866
38048W        W 5116   1.936  11.838  13.943
38049W        W 5117  35.398  28.030  13.954
38050W        W 5118  36.897   0.487  12.941
38051W        W 5119  43.474  35.546   2.867
38052W        W 5120  13.672  14.607   0.420
38053W        W 5121  28.674  24.522  14.310
38054W        W 5122  10.820  37.973   2.902
38055W        W 5123  33.610  18.755   2.842
38056W        W 5124  11.806   8.800   1.442
38057W        W 5125  11.743  16.183   1.741
38058W        W 5126   6.851  36.945  11.509
38059W        W 5127  11.236  13.226  12.995
38060W        W 5128  43.864  42.493   1.830
38061W        W 5129  37.035  43.792   1.891
38062W        W 5130   3.334   9.341   5.256
38063W        W 5131  14.143   4.711  12.542
38064W        W 5132  15.605   4.274  12.494
38065W        W 5133   4.219  28.593   3.659
38066W        W 5134  22.737  33.469   0.451
38067W        W 5135   9.312  40.838   3.730
38068W        W 5136  32.406  15.696   3.685
38069W        W 5137  18.721  44.477  12.525
38070W        W 5138  22.510  30.163  14.993
38071W        W 5139  35.576   5.284   0.410
38072W        W 5140  44.944  22.543   1.339
38073W        W 5141  27.945  18.198  12.060
38074W        W 5142  36.414  33.597   3.240
38075W        W 5143  27.029  37.031  11.413
38076W        W 5144   7.240  30.100  11.963
38077W        W 5145  12.220  42.526  10.978
38078W        W 5146  23.075   6.282  11.881
38079W        W 5147  15.776   9.771   1.848
38080W        W 5148  11.845   8.289   3.790
38081W        W 5149  41.948  35.512  12.359
38082W        W 5150  35.068  39.501   0.877
38083W        W 5151  27.019  33.400   2.698
38084W        W 5152  12.301  10.853   1.859
38085W        W 5153  28.521   0.377   2.718
38086W        W 5154  24.989   6.773   0.409
38087W        W 5155  11.337  28.109   4.246
38088W        W 5156  13.690  11.684  12.544
38089W        W 5157  33.013  30.598   3.865
38090W        W 5158  28.019  39.388  10.566
38091W        W 5159  44.850  20.184  14.850
38092W        W 5160  40.036   2.390  12.057
38093W        W 5161  11.730  38.325   4.195
38094W        W 5162   3.318  30.028  13.822
38095W        W 5163  11.347  28.578   1.271
38096W        W 5164   8.314  16.238   2.747
38097W        W 5165  37.965  41.930  13.507
38098W        W 5166  43.503   4.836   3.359
38099W        W 5167   6.901  14.683  13.869
38100W        W 5168   6.358  44.773  12.050
38101W        W 5169  15.184  27.144  13.908
38102W        W 5170  25.569   6.799  10.601
38103W        W 5171  39.059  12.764  12.962
38104W        W 5172  27.650   9.364   0.302
38105W        W 5173  10.286   0.864  14.828
38106W        W 5174  27.010   4.219  12.077
38107W        W 5175  27.972  31.150  12.390
38108W        W 5176  11.246   5.234  13.342
38109W        W 5177  18.642   9.755  13.862
38110W        W 5178  30.964  34.079  12.850
38111W        W 5179  23.707  26.146  12.440
38112W        W 5180  26.500   7.345  10.445
38113W        W 5181   6.730  30.915   2.345
38114W        W 5182   7.724  23.185   0.245
38115W        W 5183  17.230  38.511   0.748
38116W        W 5184  35.561  24.548  10.429
38117W        W 5185   6.336  32.459  11.111
38118W        W 5186  16.168  29.550  13.880
38119W        W 5187  37.908  40.400   2.366
38120W        W 5188  37.420  28.539  12.077
38121W        W 5189  23.682  44.871   2.254
38122W        W 5190  12.819   6.764   1.287
38123W        W 5191  31.031  40.343  14.311
38124W        W 5192  44.799  40.916  11.470
38125W        W 5193  13.251  17.765   0.766
38126W        W 5194  35.905  41.418  13.993
38127W        W 5195   3.843  38.978  14.394
38128W        W 5196  44.985  43.932  11.470
38129W        W 5197  40.548  40.995  13.886
38130W        W 5198  44.011  15.312   4.173
38131W        W 5199  17.119  32.522   4.332
38132W        W 5200  15.226  22.173  14.293
38133W        W 5201   6.337  28.589  10.957
38134W        W 5202  29.100  44.262   4.796
38135W        W 5203  14.110   3.422   3.698
38136W        W 5204  31.027  28.544  10.633
38137W        W 5205   2.850  40.890  14.387
38138W        W 5206  27.452   7.735  13.456
38139W        W 5207   1.745  27.099  11.128
38140W        W 5208  37.339  10.673   3.257
38141W        W 5209  15.799   9.227   1.237
38142W        W 5210  39.999   1.959  10.494
38143W        W 5211  20.582  40.485  12.899
38144W        W 5212  44.838  14.131  13.442
38145W        W 5213   5.312  23.653  14.391
38146W        W 5214  30.521  43.467   4.130
38147W        W 5215  27.056  21.520   4.171
38148W        W 5216   4.351  37.839  14.936
38149W        W 5217  40.044   4.363  10.629
38150W        W 5218  22.132   4.799  14.304
38151W        W 5219  26.129  20.701   0.803
38152W        W 5220   8.799  28.513   2.776
38153W        W 5221  27.101   5.236  14.969
38154W        W 5222  11.298  37.982   0.887
38155W        W 5223  26.035  27.601   1.443
38156W        W 5224   6.787  11.745  12.080
38157W        W 5225   4.230   3.715  12.856
38158W        W 5226  20.064   9.215  14.296
38159W        W 5227  27.689  38.945  11.891
38160W        W 5228  39.320  37.834   1.908
38161W        W 5229   5.395  44.375  12.469
38162W        W 5230   6.370   2.235   1.357
38163W        W 5231  16.682  35.411   4.318
38164W        W 5232   0.815  29.545  10.932
38165W        W 5233  33.404  39.861   2.834
38166W        W 5234  43.977  17.120   1.763
38167W        W 5235  15.642  28.148   1.397
38168W        W 5236  17.674  14.756   3.208
38169W        W 5237  36.868  31.104  13.461
38170W        W 5238   5.749   9.247  11.540
38171W        W 5239  13.216  16.776  12.986
38172W        W 5240  40.037  28.509  12.080
38173W        W 5241  22.093   9.685   2.857
38174W        W 5242  10.286  30.559  11.006
38175W        W 5243  32.947  26.676  11.011
38176W        W 5244  39.939  42.389  11.865
38177W        W 5245  16.584  17.574   2.218
38178W        W 5246   1.342  37.448  13.898
38179W        W 5247   0.298   3.722  13.852
38180W        W 5248  13.799  25.979  11.488
38181W        W 5249  25.175  36.486   2.402
38182W        W 5250  24.510  17.587   4.779
38183W        W 5251  35.396  26.150  13.526
38184W        W 5252  29.428   1.770   5.245
38185W        W 5253  42.892  22.071  14.026
38186W        W 5254  30.618   5.281  12.023
38187W        W 5255  22.701  22.115   3.306
38188W        W 5256  36.853  36.407   0.317
38189W        W 5257  22.201  34.491  14.936
38190W        W 5258  42.309  12.231  10.512
38191W        W 5259  15.609   1.912  13.983
38192W        W 5260  12.659  15.258  12.493
38193W        W 5261  13.243  10.726  11.429
38194W        W 5262   3.890  18.703  14.854
38195W        W 5263  35.541   3.240   2.314
38196W        W 5264  43.913   5.836  13.917
38197W        W 5265  27.195  26.603  13.031
38198W        W 5266  32.480  20.104  13.430
38199W        W 5267  11.313   7.210  13.886
38200W        W 5268  19.133   4.911  13.975
38201W        W 5269  21.624   2.848  13.957
38202W        W 5270  39.842   4.745  11.523
38203W        W 5271  38.476  28.496   3.200
38204W        W 5272   8.229  24.522   1.699
38205W        W 5273  44.954  31.977   2.791
38206W        W 5274  43.858  11.856  14.446
38207W        W 5275  44.455  38.453   2.219
38208W        W 5276  35.050  36.097  13.525
38209W        W 5277   9.867  44.910  14.323
38210W        W 5278  43.365  23.161   0.295
38211W        W 5279   1.770  19.055   0.760
38212W        W 5280  41.035  24.659  12.403
38213W        W 5281   6.884  44.412   3.717
38214W        W 5282   4.306   4.417   2.828
38215W        W 5283  39.397   9.671   1.754
38216W        W 5284  17.570  24.658  11.050
38217W        W 5285  44.292  40.804  14.515
38218W        W 5286  12.755  16.106   2.341
38219W        W 5287  30.096  17.242  10.056
38220W        W 5288   5.900  41.503  13.454
38221W        W 5289  44.276   8.222  12.481
38222W        W 5290  32.574  35.408  11.420
38223W        W 5291  43.478  33.106  14.762
38224W        W 5292  25.670   9.217  13.979
38225W        W 5293  25.003   0.797   5.208
38226W        W 5294  42.025   4.274  13.994
38227W        W 5295  17.112  39.847   4.223
38228W        W 5296  42.498  35.548   1.366
38229W        W 5297  14.772  33.877  13.522
38230W        W 5298  30.657  13.832  11.037
38231W        W 5299  27.171   0.464   2.884
38232W        W 5300  18.075  16.651   1.375
38233W        W 5301  30.150  15.823   4.790
38234W        W 5302   7.886  25.046  11.557
38235W        W 5303  15.790  36.019  11.128
38236W        W 5304  24.103  22.561   1.783
38237W        W 5305  42.925  36.391  13.006
38238W        W 5306  22.173  15.748   1.801
38239W        W 5307  29.014  26.171  14.763
38240W        W 5308  41.351  30.494  12.889
38241W        W 5309  33.625  36.900   4.243
38242W        W 5310  18.084  18.623   0.777
38243W        W 5311   2.772  29.147   0.382
38244W        W 5312  15.703  27.082   2.704
38245W        W 5313  37.047   7.676  11.054
38246W        W 5314  15.602  28.611  13.456
38247W        W 5315   9.662  44.992   0.395
38248W        W 5316  38.429   3.722   4.705
38249W        W 5317  34.581  42.388  13.807
38250W        W 5318  43.910  22.527   0.839
38251W        W 5319  28.663  16.245   1.887
38252W        W 5320   3.428   4.431   4.189
38253W        W 5321  29.667  43.274   4.202
38254W        W 5322  33.892  29.665   3.839
38255W        W 5323  26.092  10.868  10.566
38256W        W 5324  28.543  27.683   0.269
38257W        W 5325  43.493  17.607   2.699
38258W        W 5326   7.726  36.495  14.285
38259W        W 5327  30.417  21.222   0.251
38260W        W 5328  35.523  39.357  11.489
38261W        W 5329   2.833  36.456  10.429
38262W        W 5330  42.776  24.630  14.945
38263W        W 5331  20.557   7.864  12.443
38264W        W 5332  30.626  24.562   0.426
38265W        W 5333   2.229  11.707   3.385
38266W        W 5334   7.367  37.058  14.009
38267W        W 5335   2.816  37.942   3.659
38268W        W 5336  24.132  29.560   1.698
38269W        W 5337  26.052   7.793   1.276
38270W        W 5338  27.641  32.491  11.610
38271W        W 5339  24.580  30.442   1.806
38272W        W 5340  37.002   7.348  14.968
38273W        W 5341   2.833  26.514  11.009
38274W        W 5342  11.219  43.460   0.311
38275W        W 5343  32.112  36.972  12.996
38276W        W 5344  42.855  21.244  11.129
38277W        W 5345   9.174   4.713  14.302
38278W        W 5346  22.502   8.758  10.499
38279W        W 5347  17.062   5.374  13.535
38280W        W 5348  31.902  41.364  14.364
38281W        W 5349   4.236   0.374   1.896
38282W        W 5350  24.079  43.345   0.359
38283W        W 5351  43.296  31.082  13.417
38284W        W 5352  29.011  26.045   4.806
38285W        W 5353   2.301  28.546  14.880
38286W        W 5354  27.122  28.077   2.767
38287W        W 5355  39.501  17.247   3.229
38288W        W 5356  14.819  20.188   3.336
38289W        W 5357  32.979   6.219   2.369
38290W        W 5358  42.427  23.512   4.310
38291W        W 5359  38.983  39.964  12.978
38292W        W 5360  16.667  24.187   5.305
38293W        W 5361   9.759   2.438  13.454
38294W        W 5362  22.218   5.842  11.943
38295W        W 5363  27.033  42.996   4.243
38296W        W 5364  21.185  34.604   4.159
38297W        W 5365  24.176  38.006  11.499
38298W        W 5366  34.978   8.197   3.321
38299W        W 5367  43.509   5.360  12.362
38300W        W 5368  29.585  17.280   2.290
38301W        W 5369  19.654  33.402   2.804
38302W        W 5370  34.004  29.016  10.541
38303W        W 5371  16.591   4.855   4.265
38304W        W 5372  29.513  37.500   4.792
38305W        W 5373  22.062   8.682   2.706
38306W        W 5374   5.221  24.120  11.037
38307W        W 5375   9.234  27.084  13.522
38308W        W 5376  11.773  16.217  11.904
38309W        W 5377  41.325  12.189  12.368
38310W        W 5378  44.458  28.626  11.000
38311W        W 5379  23.228  37.423  13.973
38312W        W 5380  37.542   9.743   3.170
38313W        W 5381  28.434   1.974   0.320
38314W        W 5382  44.810   8.695  14.008
38315W        W 5383  39.000  19.663  13.898
38316W        W 5384  25.645  42.291  13.866
38317W        W 5385   8.793  10.793  13.511
38318W        W 5386  25.642  38.933   2.307
38319W        W 5387  20.696  29.498  11.418
38320W        W 5388   3.841   7.200  11.997
38321W        W 5389  40.014  38.849   0.801
38322W        W 5390  37.989  34.439  11.045
38323W        W 5391   9.854  41.820  12.475
38324W        W 5392  22.119  37.848  14.864
38325W        W 5393  33.053   9.810  10.612
38326W        W 5394  26.683  22.547  12.984
38327W        W 5395  41.859  14.242   9.927
38328W        W 5396  13.328  22.500  10.480
38329W        W 5397  26.550   0.279   3.362
38330W        W 5398  18.076  29.557   4.127
38331W        W 5399   2.300  31.896  14.913
38332W        W 5400  24.066  18.560  12.006
38333W        W 5401  41.799  11.295   2.847
38334W        W 5402  24.640  10.300  14.348
38335W        W 5403   6.277  21.151  14.853
38336W        W 5404  39.895  16.722  10.561
38337W        W 5405  22.181  44.349   2.178
38338W        W 5406   8.364  28.448  10.993
38339W        W 5407  34.491  43.902  14.434
38340W        W 5408  27.160  34.968   4.137
38341W        W 5409  39.480   3.369  13.827
38342W        W 5410  28.525   0.440   4.330
38343W        W 5411  41.445   4.385   0.280
38344W        W 5412  22.144  38.450  11.936
38345W        W 5413   9.206   8.710  11.566
38346W        W 5414  16.177  14.315   3.745
38347W        W 5415  33.118  44.459   0.951
38348W        W 5416  42.501  18.637  11.423
38349W        W 5417  41.956  36.063  12.423
38350W        W 5418  17.290  26.643  10.103
38351W        W 5419  11.643  17.209  12.527
38352W        W 5420  16.191  31.646  12.503
38353W        W 5421  26.583  34.385   5.225
38354W        W 5422  10.372  41.361  11.582
38355W        W 5423  20.562   9.869  14.938
38356W        W 5424   5.710   7.832   2.337
38357W        W 5425  14.327  17.064   1.695
38358W        W 5426   9.818  35.386   4.780
38359W        W 5427  10.665  39.354   0.819
38360W        W 5428  24.639  37.557  13.547
38361W        W 5429   0.258  40.306  14.868
38362W        W 5430  12.777   9.270  12.568
38363W        W 5431   6.763   4.722   4.614
38364W        W 5432  11.660  42.986  10.055
38365W        W 5433  24.156  19.069  10.926
38366W        W 5434  41.949  31.053   4.685
38367W        W 5435  24.669  33.090  14.283
38368W        W 5436  44.987  22.215  12.824
38369W        W 5437  22.686  12.306  11.970
38370W        W 5438  26.599   3.392   2.728
38371W        W 5439   2.250  31.979  12.002
38372W        W 5440  16.230   8.305   3.328
38373W        W 5441  23.236  24.160   1.931
38374W        W 5442  27.600  26.052  12.894
38375W        W 5443   3.347  12.130  14.403
38376W        W 5444   8.841  18.158   3.737
38377W        W 5445  13.686  43.297  11.587
38378W        W 5446  33.430   4.383  10.989
38379W        W 5447  40.832  27.176   2.887
38380W        W 5448  28.095  43.774  12.947
38381W        W 5449  17.211  16.251  12.038
38382W        W 5450  10.829   8.366  11.454
38383W        W 5451   4.389  22.616  13.008
38384W        W 5452  10.676  28.087   0.741
38385W        W 5453  34.086  34.043   4.620
38386W        W 5454  22.052  14.597   2.194
38387W        W 5455  30.470  26.526   0.791
38388W        W 5456  39.823  27.174  12.018
38389W        W 5457  23.730  17.177  10.909
38390W        W 5458  35.475  11.628   3.679
38391W        W 5459  33.996  36.555   2.389
38392W        W 5460  27.940  14.324  12.922
38393W        W 5461  21.077   9.666   3.783
38394W        W 5462  30.151  42.382   4.201
38395W        W 5463  39.989   7.834   1.216
38396W        W 5464   5.193  19.733   0.264
38397W        W 5465  33.904  27.638  13.325
38398W        W 5466  18.574  18.285  12.441
38399W        W 5467  12.649  30.431  11.869
38400W        W 5468  29.932  10.275  13.978
38401W        W 5469   4.342  41.819  12.000
38402W        W 5470  40.913  36.917  13.875
38403W        W 5471   2.856  43.896   1.237
38404W        W 5472  20.550  33.079   1.846
38405W        W 5473  42.412  22.597   0.880
38406W        W 5474  42.369  29.074   2.760
38407W        W 5475   2.722  26.007   0.312
38408W        W 5476   2.769  44.269  14.394
38409W        W 5477   4.269   4.791  11.859
38410W        W 5478   2.794  37.035  10.595
38411W        W 5479   4.757  23.598   4.154
38412W        W 5480   4.302  39.963  14.976
38413W        W 5481   8.303  43.419   1.289
38414W        W 5482  40.895   6.780   3.169
38415W        W 5483  40.990  28.136   1.372
38416W        W 5484   0.317  25.607   2.825
38417W        W 5485  16.152   6.749   3.191
38418W        W 5486   3.244  18.221   3.326
38419W        W 5487  43.808  38.022   1.906
38420W        W 5488  25.968  19.738   1.739
38421W        W 5489  27.681  41.929   0.938
38422W        W 5490  42.321  15.155  13.425
38423W        W 5491  44.361  34.529   0.410
38424W        W 5492  43.447  26.155   2.357
38425W        W 5493  23.615  44.390  12.012
38426W        W 5494  26.529   2.795   0.242
38427W        W 5495  15.644  14.623  12.396
38428W        W 5496   8.386  21.685  14.896
38429W        W 5497  28.094  28.017   3.740
38430W        W 5498  44.321   1.297   3.285
38431W        W 5499  28.119  21.632   3.183
38432W        W 5500  27.034  37.855   0.282
38433W        W 5501   2.923  18.119   2.799
38434W        W 5502  22.122  18.698  10.407
38435W        W 5503   8.165  17.694   2.190
38436W        W 5504  24.687  27.089  12.519
38437W        W 5505  43.854  19.155  10.608
38438W        W 5506  40.986  30.931   4.283
38439W        W 5507  19.243  31.563  10.973
38440W        W 5508  35.366  25.586   2.275
38441W        W 5509  22.651  36.512  14.341
38442W        W 5510   3.273  24.607  10.640
38443W        W 5511   4.861  20.273  13.344
38444W        W 5512  28.933   9.823   4.746
38445W        W 5513  29.628  25.155  14.392
38446W        W 5514  22.099  20.694  11.535
38447W        W 5515  21.131  35.378  12.510
38448W        W 5516   8.754  26.663  14.958
38449W        W 5517  14.810   6.899  12.364
38450W        W 5518  42.853  43.325   4.296
38451W        W 5519  15.670  19.116   5.750
38452W        W 5520  20.103   0.443  12.557
38453W        W 5521  15.695  28.063  11.920
38454W        W 5522  18.769  22.573  10.119
38455W        W 5523  34.116   9.889   4.269
38456W        W 5524  24.486  40.053  14.820
38457W        W 5525  25.167  30.129   4.601
38458W        W 5526  41.353  21.632  11.113
38459W        W 5527  33.953  38.960  12.360
38460W        W 5528   8.304  14.660  12.458
38461W        W 5529   4.243   1.316   3.316
38462W        W 5530  33.407  38.033   4.691
38463W        W 5531  33.105  13.610   2.266
38464W        W 5532  30.534  26.694  13.820
38465W        W 5533  40.019  21.081  14.973
38466W        W 5534  19.105  41.478   0.261
38467W        W 5535  18.762  43.008  11.035
38468W        W 5536   9.182  33.026   1.914
38469W        W 5537  12.831  26.148   2.317
38470W        W 5538   8.839   9.380   2.897
38471W        W 5539  29.446  15.716  11.988
38472W        W 5540  31.410   6.913   2.216
38473W        W 5541  33.921   8.828  11.543
38474W        W 5542  14.720   8.675   2.417
38475W        W 5543   5.840  10.645  10.469
38476W        W 5544  17.641  34.876   1.761
38477W        W 5545   5.879  39.914   0.916
38478W        W 5546  40.872   3.427   0.317
38479W        W 5547  26.188  12.695  10.564
38480W        W 5548  43.019   0.744   1.372
38481W        W 5549   5.372  17.290  13.473
38482W        W 5550  44.976  35.519  12.553
38483W        W 5551  25.683   9.306  12.836
38484W        W 5552  36.065  21.530  12.864
38485W        W 5553  22.704  35.938  11.891
38486W        W 5554  10.821   6.686   4.662
38487W        W 5555   4.712  21.721   0.813
38488W        W 5556  10.817  13.737   2.896
38489W        W 5557  44.338  30.049   2.372
38490W        W 5558  29.466  18.225   4.621
38491W        W 5559  18.067   9.222   0.439
38492W        W 5560  11.727   9.287   2.408
38493W        W 5561   9.843  41.320  11.880
38494W        W 5562   4.348  41.317  10.939
38495W        W 5563  40.433  14.689   4.691
38496W        W 5564   3.831   7.703   3.650
38497W        W 5565  24.668  10.826   4.745
38498W        W 5566  36.852  32.099  12.956
38499W        W 5567   6.414  18.681  12.063
38500W        W 5568   4.940  22.672   0.249
38501W        W 5569   3.902  44.863  11.438
38502W        W 5570  23.630  31.014  14.840
38503W        W 5571  44.492   4.880  11.450
38504W        W 5572   3.259  32.395   3.158
38505W        W 5573  23.201  20.197   3.735
38506W        W 5574  16.109  37.054  10.907
38507W        W 5575   4.346  27.491   2.275
38508W        W 5576  10.645  39.429   2.804
38509W        W 5577  17.755   7.287   2.788
38510W        W 5578  12.685  25.192  12.501
38511W        W 5579  24.989  21.750   2.865
38512W        W 5580  26.976  19.773  11.567
38513W        W 5581   5.350   8.214  10.499
38514W        W 5582   5.403  10.635   3.282
38515W        W 5583  41.337  12.766  12.422
38516W        W 5584  34.487  40.018  11.461
38517W        W 5585  35.447  15.108  10.488
38518W        W 5586   3.417  38.359   2.333
38519W        W 5587  28.624  28.497   2.881
38520W        W 5588  35.537  22.209   0.466
38521W        W 5589  26.080  44.888   4.771
38522W        W 5590   1.909  11.710  14.451
38523W        W 5591  15.224  43.435   3.817
38524W        W 5592   2.432  25.104  10.481
38525W        W 5593  25.022   2.726   4.650
38526W        W 5594   1.885   5.807  14.868
38527W        W 5595  16.238  34.566   2.286
38528W        W 5596  44.503  37.346   2.353
38529W        W 5597  15.185   1.403  12.998
38530W        W 5598  41.798  37.528   4.829
38531W        W 5599  26.582  42.788   1.927
38532W        W 5600  20.269  14.149   3.287
38533W        W 5601  23.735  29.060  14.948
38534W        W 5602  40.923   7.362  10.924
38535W        W 5603  43.295  20.117  12.883
38536W        W 5604  34.604  15.670  14.978
38537W        W 5605  30.010   2.894  12.436
38538W        W 5606   4.240  22.633  12.475
38539W        W 5607   3.896  12.851   1.380
38540W        W 5608   0.248  28.564  11.993
38541W        W 5609   9.267  36.865   4.828
38542W        W 5610  24.210  34.976  13.902
38543W        W 5611  23.536   2.338  14.902
38544W        W 5612  30.463  12.202   1.383
38545W        W 5613  35.452  35.965   4.698
38546W        W 5614  35.089   0.816  14.908
38547W        W 5615  32.603  20.681  10.988
38548W        W 5616  43.472  25.086  12.063
38549W        W 5617  12.286   6.245  13.018
38550W        W 5618  29.501  21.573  11.434
38551W        W 5619   0.400  42.395   2.262
38552W        W 5620  34.449  36.578   4.767
38553W        W 5621  43.434  29.955   4.185
38554W        W 5622   7.321  26.498   1.292
38555W        W 5623   9.382   2.450   4.313
38556W        W 5624   1.349  36.062  10.604
38557W        W 5625  10.780  31.002  11.077
38558W        W 5626   9.333   1.461  14.318
38559W        W 5627  38.360   0.435   1.295
38560W        W 5628  19.550  18.173  11.991
38561W        W 5629  18.249  19.237  11.870
38562W        W 5630  19.166  10.151   1.376
38563W        W 5631   1.297   2.932   4.165
38564W        W 5632   6.223  43.378  11.381
38565W        W 5633  28.071  32.066  13.827
38566W        W 5634  29.633   2.430  13.477
38567W        W 5635  33.397  41.481   0.391
38568W        W 5636  17.585  12.749   4.698
38569W        W 5637  14.717  17.781   2.418
38570W        W 5638  11.828  15.292   0.855
38571W        W 5639  27.071  43.481  12.036
38572W        W 5640  36.367  10.202   4.174
38573W        W 5641  31.031  28.455   0.323
38574W        W 5642  18.578   0.305   1.920
38575W        W 5643  42.866  11.640   5.190
38576W        W 5644  10.773  29.641   0.842
38577W        W 5645  43.879  33.410  10.415
38578W        W 5646  37.905   3.761  12.867
38579W        W 5647  44.957   1.448  13.308
38580W        W 5648  44.924  16.226  10.561
38581W        W 5649  25.200  19.722   0.956
38582W        W 5650   5.828   6.312  11.073
38583W        W 5651  35.470  15.161   2.374
38584W        W 5652  29.176  39.335   4.325
38585W        W 5653  10.356  44.464  14.893
38586W        W 5654  32.982   0.300  12.346
38587W        W 5655  40.387   8.354  11.896
38588W        W 5656   4.324  28.048  14.451
38589W        W 5657  43.437  13.337  12.833
38590W        W 5658  38.054  40.473   4.645
38591W        W 5659  23.690  40.848  13.423
38592W        W 5660  30.621   9.335   5.258
38593W        W 5661   4.941  31.112   4.599
38594W        W 5662  33.433  43.939  10.405
38595W        W 5663  40.368   8.677   5.192
38596W        W 5664  26.497  23.193  12.556
38597W        W 5665  23.192  17.098   0.375
38598W        W 5666  41.881  26.178   3.817
38599W        W 5667  19.162  10.338   2.712
38600W        W 5668  19.253  11.693   4.215
38601W        W 5669  41.425  13.187  12.562
38602W        W 5670   0.860  39.988  14.919
38603W        W 5671   8.168   8.310   2.217
38604W        W 5672  15.191  44.995  14.319
38605W        W 5673  35.396  23.240  12.836
38606W        W 5674  24.682  37.030  13.823
38607W        W 5675   3.850   0.786   4.745
38608W        W 5676   8.790  42.795   2.232
38609W        W 5677  42.788  40.426   0.334
38610W        W 5678  35.390  17.680  12.542
38611W        W 5679  14.607  14.168   1.737
38612W        W 5680   2.441  29.510  13.389
38613W        W 5681  29.631   3.303  14.001
38614W        W 5682  23.698  33.587  12.530
38615W        W 5683   4.913  23.125  14.387
38616W        W 5684  23.578   0.345   2.868
38617W        W 5685  42.023  40.377   4.205
38618W        W 5686  20.038  19.257  14.927
38619W        W 5687   0.302  30.945   1.818
38620W        W 5688  27.091  29.539   4.784
38621W        W 5689  23.056  16.616  14.407
38622W        W 5690  33.998   9.648  11.506
38623W        W 5691  17.758  19.205   1.884
38624W        W 5692  28.099  15.738   1.760
38625W        W 5693   6.272  24.152  11.904
38626W        W 5694  43.399  25.160   2.244
38627W        W 5695  24.140  25.060  12.977
38628W        W 5696  24.127   6.410   0.856
38629W        W 5697  15.266   2.776   1.221
38630W        W 5698  32.121  39.982  12.924
38631W        W 5699  34.575  16.813   2.297
38632W        W 5700  31.599   6.315  12.893
38633W        W 5701  28.486  12.123   1.252
38634W        W 5702  40.475  30.616   1.834
38635W        W 5703  16.113  41.310  11.021
38636W        W 5704   1.914   8.365  13.478
38637W        W 5705  21.026  23.189  11.514
38638W        W 5706  41.454  41.812   2.747
38639W        W 5707   6.182  18.741   4.330
38640W        W 5708  31.586   3.786  13.922
38641W        W 5709   8.256   7.220   0.755
38642W        W 5710   4.742  44.368  11.882
38643W        W 5711  10.708  11.144   0.439
38644W        W 5712  21.095  26.554   3.350
38645W        W 5713  13.737  34.551  11.027
38646W        W 5714  11.285   5.791  11.556
38647W        W 5715  44.805  19.054  11.532
38648W        W 5716  16.264  39.545   1.701
38649W        W 5717  22.713  22.154   1.342
38650W        W 5718  33.993  33.469   1.905
38651W        W 5719  29.140  21.620  14.372
38652W        W 5720  13.789  24.549   4.206
38653W        W 5721  11.646  44.477  12.849
38654W        W 5722  13.834  26.060   3.156
38655W        W 5723  34.119  38.536   4.662
38656W        W 5724  37.562  23.138   2.313
38657W        W 5725   6.304   7.389  14.391
38658W        W 5726  19.283  18.601  10.408
38659W        W 5727  32.521  35.368   4.336
38660W        W 5728  44.757  37.528   1.820
38661W        W 5729  27.628  15.810  10.419
38662W        W 5730  21.721  29.076   1.800
38663W        W 5731   7.387   9.729  10.907
38664W        W 5732  22.584   0.465   2.247
38665W        W 5733   6.226   1.959   4.181
38666W        W 5734  32.454  44.405  10.519
38667W        W 5735  33.088   0.924   1.761
38668W        W 5736   8.202   7.334  11.537
38669W        W 5737  17.235  26.571  12.496
38670W        W 5738  14.329  26.579  10.996
38671W        W 5739   1.264  21.528  14.427
38672W        W 5740   4.780  30.576  14.855
38673W        W 5741  26.061  35.398  12.884
38674W        W 5742  20.731  19.084   3.371
38675W        W 5743  17.147  32.560  11.423
38676W        W 5744  15.787  40.980   4.175
38677W        W 5745  40.920  33.602  14.989
38678W        W 5746  15.189  17.612   4.607
38679W        W 5747  35.388   0.458  14.029
38680W        W 5748   1.371   2.950  14.285
38681W        W 5749  33.056  11.335  14.937
38682W        W 5750   0.911  39.845   1.726
38683W        W 5751  40.999  16.271  10.420
38684W        W 5752  13.670  27.953  12.849
38685W        W 5753  19.615  12.251   0.891
38686W        W 5754  44.997  41.806   0.255
38687W        W 5755  37.845  32.478  13.384
38688W        W 5756  17.798  26.015   1.254
38689W        W 5757   4.754  25.984   1.422
38690W        W 5758   9.326  16.772   4.785
38691W        W 5759  34.040  22.569  11.035
38692W        W 5760   6.271   0.807  11.984
38693W        W 5761  35.873  37.068   3.869
38694W        W 5762  21.066  41.372   2.782
38695W        W 5763   5.777  37.955   4.780
38696W        W 5764  41.907  11.290   0.334
38697W        W 5765  14.256  25.550  12.892
38698W        W 5766  14.299  11.222   2.394
38699W        W 5767  36.507  36.908   1.221
38700W        W 5768  17.682  19.542  11.053
38701W        W 5769  40.981  16.678  13.870
38702W        W 5770  26.988   0.778   4.785
38703W        W 5771  32.990  38.540   0.267
38704W        W 5772  41.355  22.013   1.799
38705W        W 5773   9.394   3.947   1.257
38706W        W 5774  27.570   3.457   3.169
38707W        W 5775  42.950  39.831  14.831
38708W        W 5776  17.273  39.917  14.996
38709W        W 5777   8.181  31.566  10.925
38710W        W 5778   4.429  16.596   9.640
38711W        W 5779  31.634   6.252  13.812
38712W        W 5780   0.877  31.554  14.321
38713W        W 5781  37.857  16.151   2.340
38714W        W 5782   9.827  43.478  11.071
38715W        W 5783  17.587  27.037  10.510
38716W        W 5784   0.792   1.949  11.998
38717W        W 5785   9.162  21.663  12.509
38718W        W 5786  21.681   4.756  13.907
38719W        W 5787   6.343   3.314   2.896
38720W        W 5788  27.071   5.195  11.425
38721W        W 5789   7.226   5.751   3.781
38722W        W 5790   0.401  44.394  13.804
38723W        W 5791   9.655  27.037  14.780
38724W        W 5792  43.364  22.198  10.943
38725W        W 5793  12.725  13.204  13.053
38726W        W 5794  19.754  31.905   0.817
38727W        W 5795  39.045  33.426   1.924
38728W        W 5796  22.704  34.597   4.771
38729W        W 5797  35.052  31.960   3.669
38730W        W 5798  14.136  42.519   2.885
38731W        W 5799  13.734  39.909  11.042
38732W        W 5800  24.544  19.121   0.329
38733W        W 5801   1.973   6.891  13.821
38734W        W 5802  41.846  32.050  13.970
38735W        W 5803   9.868  38.987   3.343
38736W        W 5804   3.400  12.175   4.604
38737W        W 5805   4.709  34.552  12.459
38738W        W 5806  32.142   6.687   1.283
38739W        W 5807  28.172  27.078  10.565
38740W        W 5808  13.828  33.109   3.709
38741W        W 5809   3.809  32.475  10.550
38742W        W 5810  39.369  43.383  12.558
38743W        W 5811  23.579  32.487   0.268
38744W        W 5812  16.293  25.075   2.676
38745W        W 5813  44.764  16.693   1.803
38746W        W 5814  31.502   6.767   3.312
38747W        W 5815  39.541   0.491   1.874
38748W        W 5816   2.441   6.777  10.912
38749W        W 5817  44.295   7.177   0.338
38750W        W 5818   0.397  10.370   1.321
38751W        W 5819   8.216  20.173  10.441
38752W        W 5820  19.238  43.420  12.031
38753W        W 5821  17.629  28.434   4.213
38754W        W 5822  20.254  39.936   1.823
38755W        W 5823   6.789  24.038  14.514
38756W        W 5824  25.157  32.480   2.250
38757W        W 5825  29.055  35.953   1.377
38758W        W 5826  21.083  44.797   4.733
38759W        W 5827  11.212  44.362   3.690
38760W        W 5828   7.176  44.329   0.747
38761W        W 5829  40.436  18.131  10.936
38762W        W 5830  42.783   7.372   9.961
38763W        W 5831  37.508  14.329  14.336
38764W        W 5832  30.030  22.165  12.414
38765W        W 5833   2.904  13.696   2.690
38766W        W 5834  37.491  36.940   3.768
38767W        W 5835   2.338  34.038   2.845
38768W        W 5836  14.239  40.320  13.536
38769W        W 5837  23.048   2.889  11.463
38770W        W 5838   9.191  17.207   0.264
38771W        W 5839  39.372  31.062   0.748
38772W        W 5840  38.488  10.209  13.872
38773W        W 5841  27.112   3.368   4.280
38774W        W 5842   9.162  13.349   1.929
38775W        W 5843  41.315  18.134   1.856
38776W        W 5844  25.031  22.664  13.935
38777W        W 5845  37.558  27.637   1.301
38778W        W 5846  20.614   9.842  11.021
38779W        W 5847   9.789  17.063   1.265
38780W        W 5848  29.561   0.742   1.779
38781W        W 5849  39.394  32.625   0.313
38782W        W 5850  40.321  23.022  13.812
38783W        W 5851  27.521  27.113   0.777
38784W        W 5852   3.919  18.171  14.436
38785W        W 5853  33.455   4.246   3.279
38786W        W 5854  25.506   7.726  11.968
38787W        W 5855   1.792  14.677   3.664
38788W        W 5856  25.693  13.768  14.821
38789W        W 5857   8.391  37.886   3.276
38790W        W 5858  10.878  38.407  10.531
38791W        W 5859  13.754  18.098  10.500
38792W        W 5860  18.148  42.374   1.887
38793W        W 5861  38.864  34.536  10.140
38794W        W 5862  10.689  10.704  14.977
38795W        W 5863  37.341  26.480  10.530
38796W        W 5864  19.625  39.066   9.533
38797W        W 5865   3.221  35.535  12.904
38798W        W 5866  18.585   1.960   3.811
38799W        W 5867  36.498  25.693   4.717
38800W        W 5868  29.445  17.301  14.301
38801W        W 5869   4.295  30.572  13.908
38802W        W 5870  36.082  40.448  14.373
38803W        W 5871   9.335  38.454   4.327
38804W        W 5872  11.315   4.747   1.889
38805W        W 5873  12.759  39.485  14.288
38806W        W 5874  37.006  26.469  14.284
38807W        W 5875  40.378  28.644  14.491
38808W        W 5876  10.341  20.246   4.654
38809W        W 5877  25.515  28.975   3.809
38810W        W 5878  15.592  23.709  11.980
38811W        W 5879  27.625   0.337  14.409
38812W        W 5880  36.351   4.411   1.701
38813W        W 5881   1.961   0.316  10.574
38814W        W 5882   9.261  35.033   2.217
38815W        W 5883  23.540  41.481  13.062
38816W        W 5884   0.841  37.028   4.743
38817W        W 5885  41.366  30.110   0.806
38818W        W 5886  25.007  40.546   5.318
38819W        W 5887   7.904  34.033   3.330
38820W        W 5888  15.796   5.300  12.943
38821W        W 5889  10.307   1.411   1.232
38822W        W 5890  14.625  10.704   3.660
38823W        W 5891  10.203  42.457   1.263
38824W        W 5892  37.925  38.441  14.364
38825W        W 5893  15.241  28.944   2.866
38826W        W 5894  20.229  12.840  12.831
38827W        W 5895  19.613   0.939   2.371
38828W        W 5896   1.360   1.918   3.760
38829W        W 5897  36.592  12.789  13.863
38830W        W 5898   5.193  40.359   1.296
38831W        W 5899  25.024  10.760  13.460
38832W        W 5900  17.180   1.278  14.911
38833W        W 5901  35.002   9.720   0.370
38834W        W 5902  22.662  27.600  10.414
38835W        W 5903  24.029  19.089  12.425
38836W        W 5904  37.937   5.245  14.022
38837W        W 5905  40.324  17.178  12.006
38838W        W 5906   8.793  18.252  11.063
38839W        W 5907   2.339  12.620   1.265
38840W        W 5908  15.181   7.355  10.442
38841W        W 5909  20.100  40.480  12.486
38842W        W 5910   3.310  40.499  14.488
38843W        W 5911  19.726  18.623  11.873
38844W        W 5912   4.819  11.337  11.477
38845W        W 5913  38.828  21.128   5.189
38846W        W 5914   8.320  41.968  14.948
38847W        W 5915  11.795  16.179   3.831
38848W        W 5916  35.587  22.997   0.271
38849W        W 5917  27.084  18.146   4.665
38850W        W 5918  27.969  17.653   0.942
38851W        W 5919  41.919  42.965  10.939
38852W        W 5920   8.375  15.654   3.863
38853W        W 5921  40.469  24.120  14.306
38854W        W 5922   0.360  34.407   0.439
38855W        W 5923  14.125  36.056   4.158
38856W        W 5924   8.749  19.618   0.318
38857W        W 5925  27.511  18.615  14.900
38858W        W 5926  21.681  41.443   1.706
38859W        W 5927  43.774  26.987   2.314
38860W        W 5928  25.097   4.808  13.818
38861W        W 5929  31.077   0.415   0.387
38862W        W 5930  26.613  25.971   0.800
38863W        W 5931  42.505   5.804  14.473
38864W        W 5932  12.813  16.236  14.791
38865W        W 5933  25.127  16.649   4.830
38866W        W 5934  40.848  33.996  11.982
38867W        W 5935  20.734  28.090   2.369
38868W        W 5936  20.704   2.415   3.168
38869W        W 5937   1.396  35.437  13.461
38870W        W 5938  32.484   0.798  12.979
38871W        W 5939  27.974  27.062   3.649
38872W        W 5940   0.265  42.435   3.745
38873W        W 5941  15.632  34.052  13.333
38874W        W 5942  26.984  38.402   1.780
38875W        W 5943  33.417  15.127   3.254
38876W        W 5944  14.166  14.179  13.495
38877W        W 5945  34.046   1.872   3.380
38878W        W 5946   3.388   4.382   2.205
38879W        W 5947  24.691  26.002  13.518
38880W        W 5948  31.021  23.684   1.272
38881W        W 5949   9.348  12.712   0.877
38882W        W 5950  14.338  11.797  14.849
38883W        W 5951  23.640  36.438   3.764
38884W        W 5952  35.501   9.885   0.459
38885W        W 5953  38.479   9.775   2.283
38886W        W 5954  28.183  11.637  14.344
38887W        W 5955  43.843  24.204   4.829
38888W        W 5956  18.120  21.618   0.416
38889W        W 5957   0.357  17.067   3.692
38890W        W 5958  19.688  22.689  13.942
38891W        W 5959   4.874  11.761   3.737
38892W        W 5960  36.977  23.601   4.658
38893W        W 5961   6.732  13.711   1.316
38894W        W 5962   3.420  25.543  10.642
38895W        W 5963  17.744   8.253   0.458
38896W        W 5964   7.763   2.764  13.460
38897W        W 5965  23.549  24.596  12.937
38898W        W 5966  43.468   3.355   2.815
38899W        W 5967  42.855  13.640   3.638
38900W        W 5968  14.595  32.962  12.869
38901W        W 5969   0.959  18.679  13.809
38902W        W 5970  37.448  35.974   3.631
38903W        W 5971  20.607  19.223  14.402
38904W        W 5972  22.520  15.325  13.871
38905W        W 5973  24.559  32.544   4.674
38906W        W 5974  29.434  12.718   4.309
38907W        W 5975  16.124  14.627   1.441
38908W        W 5976  14.260   9.702   5.207
38909W        W 5977  16.285  41.044   4.832
38910W        W 5978  21.068  25.709   3.355
38911W        W 5979  42.004  36.436  14.300
38912W        W 5980  37.435  12.789   0.931
38913W        W 5981  18.079  36.907   1.333
38914W        W 5982  11.322  38.009  13.053
38915W        W 5983  30.011   3.434   2.751
38916W        W 5984   5.835  18.241   3.671
38917W        W 5985  37.879   9.284   4.161
38918W        W 5986  34.077  30.145  12.855
38919W        W 5987  42.783  43.921  11.875
38920W        W 5988  12.661  28.016  12.828
38921W        W 5989  16.776  24.137  14.823
38922W        W 5990  11.817  13.684  14.419
38923W        W 5991  40.020  11.257   3.705
38924W        W 5992  43.970  24.205  12.853
38925W        W 5993  12.141   9.203  14.811
38926W        W 5994  17.685  26.512   2.768
38927W        W 5995  40.448  34.417  14.335
38928W        W 5996  39.053  36.931  12.891
38929W        W 5997   6.381  44.303  11.478
38930W        W 5998  39.027   5.415   4.259
38931W        W 5999  17.791   8.735   0.297
38932W        W 6000  15.227  24.504  11.590
38933W        W 6001   7.890  14.230  14.839
38934W        W 6002  23.544  36.416   2.783
38935W        W 6003   0.925  21.548   1.318
38936W        W 6004  13.711   9.359   0.843
38937W        W 6005   7.345  27.984  11.472
38938W        W 6006  29.960  25.518   3.319
38939W        W 6007   1.306  19.672   4.746
38940W        W 6008   5.239  16.072   1.749
38941W        W 6009   5.417  32.051   3.215
38942W        W 6010   8.392  15.141   3.863
38943W        W 6011  23.668  25.518  14.844
38944W        W 6012  43.764  42.485   0.484
38945W        W 6013  20.609  43.890   4.606
38946W        W 6014  19.569  29.436  12.832
38947W        W 6015  41.408   8.791  13.495
38948W        W 6016  24.129  23.495  14.012
38949W        W 6017  25.149  40.412   1.403
38950W        W 6018  27.618  38.975   2.279
38951W        W 6019   8.372  17.272   4.686
38952W        W 6020  13.709  15.108  11.993
38953W        W 6021  21.677  31.989   2.885
38954W        W 6022  10.750  34.487  10.990
38955W        W 6023  21.755  34.526  14.836
38956W        W 6024   6.230  17.133   1.709
38957W        W 6025  32.968   3.233   2.417
38958W        W 6026  43.011  30.641  13.461
38959W        W 6027  24.717  25.648  12.093
38960W        W 6028  22.595   8.281  12.081
38961W        W 6029   5.258  25.649  10.968
38962W        W 6030  35.594  42.785  10.424
38963W        W 6031  15.819   6.680   1.843
38964W        W 6032  38.349  14.319   1.880
38965W        W 6033  29.160  33.536  12.849
38966W        W 6034  21.631  25.625  14.397
38967W        W 6035  37.388   1.892   2.266
38968W        W 6036  17.697  11.310  13.344
38969W        W 6037  11.831  43.285  13.914
38970W        W 6038  17.176  15.623  13.807
38971W        W 6039  23.546  20.160   2.212
38972W        W 6040   8.369  10.332  13.835
38973W        W 6041  25.085  32.572  12.901
38974W        W 6042  35.011  30.511   0.935
38975W        W 6043  10.370   4.879  12.026
38976W        W 6044  21.096   5.767   4.827
38977W        W 6045   1.372  33.123  11.123
38978W        W 6046  38.841  10.372   1.862
38979W        W 6047   3.320  19.537  14.372
38980W        W 6048  32.415  18.153   4.760
38981W        W 6049  30.082  38.010   2.379
38982W        W 6050  24.633  41.456  14.833
38983W        W 6051  13.176   7.234   1.800
38984W        W 6052  32.124  39.348  14.509
38985W        W 6053  25.088  40.461  12.446
38986W        W 6054   5.843   1.952  12.070
38987W        W 6055  25.678  13.145   0.373
38988W        W 6056  26.676  42.889   2.886
38989W        W 6057  40.479  10.253  10.159
38990W        W 6058  39.487   1.331  10.498
38991W        W 6059  36.491  33.955   2.201
38992W        W 6060   7.855  26.173  14.494
38993W        W 6061  40.511  36.984  10.460
38994W        W 6062   2.398  20.067  11.570
38995W        W 6063  14.183  37.473   1.851
38996W        W 6064  22.091  41.366  10.993
38997W        W 6065  16.616  39.873   3.694
38998W        W 6066   2.757  32.893   2.745
38999W        W 6067  26.145  28.584  11.452
39000W        W 6068  21.712  42.975  13.815
39001W        W 6069  24.048  10.184   4.156
39002W        W 6070  36.550  31.422  11.484
39003W        W 6071   8.387  44.849  11.554
39004W        W 6072  33.933  33.079   0.480
39005W        W 6073   5.279  27.458  14.859
39006W        W 6074  12.211  21.130  10.912
39007W        W 6075  26.558  39.990   2.853
39008W        W 6076  25.644  25.181   3.296
39009W        W 6077  37.893  14.265   5.135
39010W        W 6078   2.858  14.105  11.445
39011W        W 6079  27.567  40.870   4.735
39012W        W 6080  38.449   3.790  10.561
39013W        W 6081  40.336  20.597  12.501
39014W        W 6082  21.152  37.893   2.225
39015W        W 6083  11.642  15.726   3.199
39016W        W 6084   1.337   2.461   1.837
39017W        W 6085  42.859  26.658  10.568
39018W        W 6086  32.420  34.609  12.021
39019W        W 6087  40.482  43.304  13.854
39020W        W 6088   4.747   8.186   3.220
39021W        W 6089  20.273  14.716  11.448
39022W        W 6090  37.373   3.873   2.300
39023W        W 6091   0.969  26.977  13.346
39024W        W 6092   1.354   1.464  11.529
39025W        W 6093  27.498  37.416  10.492
39026W        W 6094  27.000  18.625  11.460
39027W        W 6095  41.014   5.357  11.983
39028W        W 6096   5.199  16.714   1.782
39029W        W 6097  16.185  11.274   3.773
39030W        W 6098   8.686  10.750   2.674
39031W        W 6099  11.774  23.132  14.803
39032W        W 6100  41.976  25.067  13.806
39033W        W 6101  43.807  17.757   1.332
39034W        W 6102  15.760   1.777   3.354
39035W        W 6103  18.564  29.467  12.403
39036W        W 6104  12.286   2.353  11.029
39037W        W 6105  13.654  38.490  12.870
39038W        W 6106  37.068  10.741  12.944
39039W        W 6107   1.267   7.760  14.935
39040W        W 6108  24.146  38.984  11.982
39041W        W 6109  13.756  37.968  14.312
39042W        W 6110   5.726  38.529  13.491
39043W        W 6111  13.641  26.486   2.285
39044W        W 6112   8.190  22.064   1.825
39045W        W 6113  15.214   6.371  13.889
39046W        W 6114  41.845  30.590   4.127
39047W        W 6115  11.317   7.312   2.323
39048W        W 6116  17.096  27.028   3.198
39049W        W 6117   8.856  20.541  14.002
39050W        W 6118  25.484  43.348   1.752
39051W        W 6119  33.569  39.937   9.939
39052W        W 6120  43.329  24.630  14.789
39053W        W 6121   2.912  12.675  13.410
39054W        W 6122  34.955  42.020   1.384
39055W        W 6123  36.478  40.995  12.989
39056W        W 6124   7.222  19.624   1.837
39057W        W 6125  42.470  30.497  11.055
39058W        W 6126  32.962  13.655  10.527
39059W        W 6127  42.300  10.797   1.841
39060W        W 6128  24.063  38.069   3.307
39061W        W 6129   6.249  44.858   4.301
39062W        W 6130  26.594  30.160  13.448
39063W        W 6131  36.893  13.836   1.726
39064W        W 6132  43.951  30.093   0.882
39065W        W 6133  38.516  13.746   4.121
39066W        W 6134  12.164  37.967  12.393
39067W        W 6135  28.998  37.006  11.891
39068W        W 6136  15.170  36.071  12.094
39069W        W 6137  22.198  28.665  13.446
39070W        W 6138  35.104  18.780   0.457
39071W        W 6139   5.374   8.882  12.006
39072W        W 6140  43.471  42.006  11.388
39073W        W 6141  23.998   9.379  11.602
39074W        W 6142   7.221  10.207  14.840
39075W        W 6143   1.448  23.659  11.576
39076W        W 6144   0.331   2.842   3.296
39077W        W 6145  41.331  17.095  10.427
39078W        W 6146  42.472  13.225  12.976
39079W        W 6147  38.493  26.047   4.182
39080W        W 6148  18.061  39.386  14.949
39081W        W 6149  36.369   1.907  12.388
39082W        W 6150  34.476  14.276   4.601
39083W        W 6151  14.797  35.388   0.808
39084W        W 6152   0.349  32.062   4.210
39085W        W 6153  34.882  37.348   1.930
39086W        W 6154  33.449  20.172   3.820
39087W        W 6155  27.986   3.871   4.708
39088W        W 6156   9.205  10.145   0.873
39089W        W 6157  33.946  25.480  11.084
39090W        W 6158  14.626   7.879   1.717
39091W        W 6159   5.826   5.293  13.499
39092W        W 6160  16.263   5.751  14.281
39093W        W 6161  38.995   0.413  12.489
39094W        W 6162  21.524  27.008  14.435
39095W        W 6163  20.262  20.098   4.211
39096W        W 6164   8.229  19.092   4.338
39097W        W 6165  35.051  34.385  13.447
39098W        W 6166  14.234  25.203  10.609
39099W        W 6167  25.175   5.226  12.518
39100W        W 6168  25.014  11.353  12.881
39101W        W 6169  32.915  28.488   2.265
39102W        W 6170  42.469  41.470  12.850
39103W        W 6171  34.589   9.185   1.768
39104W        W 6172   0.306  36.946  14.860
39105W        W 6173   7.839  12.784   3.147
39106W        W 6174  36.472   7.341  12.861
39107W        W 6175  34.555   5.882   3.240
39108W        W 6176  21.613  11.287   3.857
39109W        W 6177  10.146  15.634   1.879
39110W        W 6178  23.050  11.816   4.817
39111W        W 6179   1.365  22.563  12.873
39112W        W 6180  14.095  39.544   2.871
39113W        W 6181  39.412  13.678  11.862
39114W        W 6182   2.741   5.787   4.702
39115W        W 6183  22.104  44.402  11.100
39116W        W 6184  43.366  14.276   2.192
39117W        W 6185   5.756  44.491  13.902
39118W        W 6186  40.959  30.519  12.835
39119W        W 6187   2.850  30.091   0.923
39120W        W 6188  42.421   3.425   2.716
39121W        W 6189  44.441  14.821   4.725
39122W        W 6190  22.632   9.819  11.015
39123W        W 6191  27.051  34.975   1.881
39124W        W 6192  17.642   7.232  10.578
39125W        W 6193  27.534  11.738  13.986
39126W        W 6194  24.209  13.699   4.802
39127W        W 6195  23.502  37.010   4.689
39128W        W 6196  29.462  42.281   3.687
39129W        W 6197  23.656   3.383   0.745
39130W        W 6198  37.865  17.204   3.265
39131W        W 6199  28.600   4.265   3.257
39132W        W 6200   2.883  39.819  10.493
39133W        W 6201  30.523  35.560   4.621
39134W        W 6202  12.710  34.429   2.404
39135W        W 6203  11.223  26.539   1.902
39136W        W 6204  22.557  18.154  12.925
39137W        W 6205  40.474   7.291   4.678
39138W        W 6206  34.909  40.042  11.385
39139W        W 6207  26.044  12.751   1.755
39140W        W 6208  10.142  40.403  13.390
39141W        W 6209  39.817  38.397   3.175
39142W        W 6210  32.534  23.040   1.777
39143W        W 6211  31.587  19.608   1.328
39144W        W 6212  43.277  18.112  11.575
39145W        W 6213   0.973   8.819  13.873
39146W        W 6214  40.870   6.778   4.198
39147W        W 6215  16.266  34.408   4.734
39148W        W 6216  17.104  38.457  14.393
39149W        W 6217  35.598  21.591  14.362
39150W        W 6218  39.840  42.865  11.456
39151W        W 6219   8.847   7.360  12.905
39152W        W 6220  10.297   1.803  11.900
39153W        W 6221  18.210  13.266  11.113
39154W        W 6222  17.202  11.625  10.953
39155W        W 6223  41.798   2.908   3.341
39156W        W 6224  39.332  30.417  11.581
39157W        W 6225   2.903  13.717  12.404
39158W        W 6226  28.656   0.870   2.826
39159W        W 6227  42.326  16.803   2.746
39160W        W 6228  44.906  15.149   1.446
39161W        W 6229  39.442  44.298  13.494
39162W        W 6230  15.313  39.555   4.125
39163W        W 6231  26.964  28.062   4.274
39164W        W 6232  13.675   5.895   4.286
39165W        W 6233   1.971  15.243   4.762
39166W        W 6234  44.492  18.134   1.283
39167W        W 6235  27.450  28.952  14.854
39168W        W 6236  24.180   0.364  13.499
39169W        W 6237   5.356  42.979  12.887
39170W        W 6238  15.718  36.501  13.526
39171W        W 6239  16.673  31.463  12.908
39172W        W 6240  34.401   6.719   0.418
39173W        W 6241   1.250  37.481  12.420
39174W        W 6242  21.526   8.262   1.281
39175W        W 6243  35.385  36.872  11.093
39176W        W 6244   5.319  20.081  13.895
39177W        W 6245  42.908  36.486  13.896
39178W        W 6246   0.373  15.295   1.443
39179W        W 6247  13.159   9.219  14.438
39180W        W 6248  17.241   9.368   2.817
39181W        W 6249  34.429  41.884  10.977
39182W        W 6250   9.273  23.572  11.920
39183W        W 6251   4.870  44.891  10.630
39184W        W 6252  43.021   7.826   4.776
39185W        W 6253  37.423  31.128   4.641
39186W        W 6254  11.688   4.902   1.834
39187W        W 6255  43.792   3.736   1.371
39188W        W 6256  31.402  16.728  11.052
39189W        W 6257  42.359  29.666  10.933
39190W        W 6258  35.864  34.607  10.950
39191W        W 6259  36.563  11.281   1.429
39192W        W 6260  43.958  37.925   4.610
39193W        W 6261  27.076   2.445   2.764
39194W        W 6262   5.240  42.339  13.053
39195W        W 6263  22.531   1.829  12.395
39196W        W 6264  33.955  23.536  12.080
39197W        W 6265   1.909  11.777  11.493
39198W        W 6266   8.675  43.986   2.369
39199W        W 6267  10.224  41.385  12.864
39200W        W 6268  37.997  15.324   0.747
39201W        W 6269  43.866  32.538  12.974
39202W        W 6270  10.183  21.580   3.637
39203W        W 6271   8.829  28.637  11.420
39204W        W 6272  14.600  19.612  14.771
39205W        W 6273   9.390  21.074   4.258
39206W        W 6274  25.218  20.168  12.460
39207W        W 6275   9.699  22.638   1.925
39208W        W 6276  23.688  24.162   1.784
39209W        W 6277  41.496  23.004  14.978
39210W        W 6278  43.287  20.047   3.689
39211W        W 6279  10.698  12.137  12.095
39212W        W 6280  10.364  36.972   3.769
39213W        W 6281  18.121   4.842   4.653
39214W        W 6282  24.643  36.421  12.404
39215W        W 6283  23.586   2.837  13.404
39216W        W 6284  42.431  33.396   2.787
39217W        W 6285  39.953   6.359  14.001
39218W        W 6286  13.293  35.918  10.590
39219W        W 6287   3.414  19.648  12.500
39220W        W 6288  29.633   3.353  10.959
39221W        W 6289  11.304  16.202  13.542
39222W        W 6290  16.658  12.827  14.445
39223W        W 6291   5.867  20.161  14.860
39224W        W 6292  27.185   6.736  10.477
39225W        W 6293   9.184   4.225  13.326
39226W        W 6294  40.415  19.632  10.501
39227W        W 6295  44.280  17.666   2.749
39228W        W 6296  11.192  14.254  13.530
39229W        W 6297  30.572  23.539  12.480
39230W        W 6298  12.306   7.714   2.334
39231W        W 6299  31.510  13.687   5.311
39232W        W 6300  18.084  26.688   2.840
39233W        W 6301   5.371   8.805  12.982
39234W        W 6302  17.563  42.953   4.720
39235W        W 6303  14.817  35.926  11.608
39236W        W 6304  37.832  36.018   3.150
39237W        W 6305   8.209  29.426  11.575
39238W        W 6306  39.908  14.313  14.847
39239W        W 6307  34.578  44.895  12.028
39240W        W 6308   4.768  42.929  12.049
39241W        W 6309  27.108   8.249  12.403
39242W        W 6310  13.827  29.952  12.025
39243W        W 6311  30.038  41.338  10.444
39244W        W 6312  17.206   7.372  14.393
39245W        W 6313  15.318  10.714  12.861
39246W        W 6314  19.689  14.595   0.820
39247W        W 6315  39.907   0.790  11.579
39248W        W 6316  12.731   0.789  12.479
39249W        W 6317  32.057   2.310   2.850
39250W        W 6318  22.611  33.065   4.620
39251W        W 6319  12.751  36.561  11.991
39252W        W 6320  23.521   2.285  10.549
39253W        W 6321   8.758  43.505  12.545
39254W        W 6322  27.135  36.531   1.438
39255W        W 6323  33.480  29.569  11.414
39256W        W 6324  38.953  25.573  14.864
39257W        W 6325   3.414  12.278  12.097
39258W        W 6326  38.869  10.375  12.481
39259W        W 6327  29.616  19.698   5.146
39260W        W 6328  19.602  31.585   4.764
39261W        W 6329  16.760   3.736  14.019
39262W        W 6330  34.573   6.411   1.895
39263W        W 6331  27.173  23.033  13.008
39264W        W 6332  21.144  39.377  11.907
39265W        W 6333   4.430  23.121   1.257
39266W        W 6334   0.309  38.022   1.442
39267W        W 6335  13.646   1.906   1.422
39268W        W 6336   1.817   1.908   2.706
39269W        W 6337   2.445  31.637  11.908
39270W        W 6338  25.484   9.687   1.771
39271W        W 6339   9.187  11.629  12.466
39272W        W 6340  25.580   9.212  12.570
39273W        W 6341  10.349  20.579  11.384
39274W        W 6342  32.095  26.027  11.374
39275W        W 6343  43.877  11.818  13.536
39276W        W 6344  35.483  37.439   4.663
39277W        W 6345  17.077  29.923  12.892
39278W        W 6346  41.508   8.834  11.948
39279W        W 6347  41.801  14.157  11.916
39280W        W 6348   7.313  13.711  11.595
39281W        W 6349  23.067  41.308   4.306
39282W        W 6350  13.173   7.239   3.802
39283W        W 6351  32.957  15.808  10.483
39284W        W 6352  31.616  17.093  13.061
39285W        W 6353   2.885  36.010  12.431
39286W        W 6354  10.848  44.830  12.858
39287W        W 6355  12.615  22.543   0.950
39288W        W 6356  38.420   9.372   3.265
39289W        W 6357  17.072   6.871  13.311
39290W        W 6358  44.491   4.334   0.861
39291W        W 6359  15.192  34.083  10.984
39292W        W 6360  10.661  13.282   2.831
39293W        W 6361  37.966  19.273  13.797
39294W        W 6362  29.471  33.131  11.041
39295W        W 6363   8.177  41.477   2.861
39296W        W 6364  14.639   7.176   1.304
39297W        W 6365  38.489  44.784   0.832
39298W        W 6366  22.067   8.813   3.780
39299W        W 6367  12.843  17.154   2.230
39300W        W 6368   8.227   8.771   0.315
39301W        W 6369  11.263   8.255   2.781
39302W        W 6370   9.766   4.705  13.799
39303W        W 6371  17.719  19.269  13.056
39304W        W 6372  42.489  34.967   3.826
39305W        W 6373   7.415  22.698  10.514
39306W        W 6374  16.661  29.538   2.270
39307W        W 6375  41.435  42.834   0.964
39308W        W 6376   7.254  30.156  10.490
39309W        W 6377   8.312  13.143  10.503
39310W        W 6378  31.054  33.481   4.345
39311W        W 6379  12.350  14.802  13.461
39312W        W 6380   9.727  10.860   2.879
39313W        W 6381  27.511  27.469  12.831
39314W        W 6382  26.567  23.233   0.372
39315W        W 6383  41.449  14.615   4.777
39316W        W 6384   7.411   5.375   3.729
39317W        W 6385  36.946  27.475   3.309
39318W        W 6386   3.892  30.575  14.907
39319W        W 6387   9.343  15.289   4.321
39320W        W 6388  31.611  19.263   2.764
39321W        W 6389  29.065   1.284   0.865
39322W        W 6390  41.445   9.332   4.651
39323W        W 6391  39.435  26.560  13.310
39324W        W 6392  17.604   9.305   4.347
39325W        W 6393  39.360   9.883  11.590
39326W        W 6394  19.067  26.568   0.837
39327W        W 6395  18.270  12.243  10.429
39328W        W 6396  20.567   9.351   1.907
39329W        W 6397  42.961  37.052  12.484
39330W        W 6398  23.650  26.481   3.267
39331W        W 6399   9.175  26.521   2.372
39332W        W 6400  23.012   7.227   1.361
39333W        W 6401  35.031  41.472   2.662
39334W        W 6402  25.588   8.322  14.512
39335W        W 6403  18.126  26.167  11.881
39336W        W 6404  11.237   5.412  14.372
39337W        W 6405  36.535   5.832   1.854
39338W        W 6406  10.315  27.455   3.834
39339W        W 6407  32.620  30.413  11.456
39340W        W 6408  23.195   4.904   4.721
39341W        W 6409  23.596  40.822  12.456
39342W        W 6410   6.808   2.778   2.832
39343W        W 6411  33.950  39.965  11.420
39344W        W 6412   6.213  30.943   0.958
39345W        W 6413   5.724  14.775   2.279
39346W        W 6414  12.638  26.120  14.015
39347W        W 6415   8.366  35.980   0.384
39348W        W 6416  26.561   0.743   4.785
39349W        W 6417   6.801  27.167   1.249
39350W        W 6418  20.631  13.133   4.214
39351W        W 6419  34.469  37.078  13.441
39352W        W 6420  23.545   6.414   4.703
39353W        W 6421  44.473  43.510   2.779
39354W        W 6422   0.324  10.637   2.263
39355W        W 6423  22.601  17.582   1.823
39356W        W 6424  15.687   1.947   4.816
39357W        W 6425   8.788   6.868   4.198
39358W        W 6426  41.039  38.555  12.439
39359W        W 6427  13.217  32.045  12.548
39360W        W 6428  31.947  22.684   1.917
39361W        W 6429  44.298  31.941  14.334
39362W        W 6430   7.356  26.634  11.886
39363W        W 6431   4.741  16.071   0.771
39364W        W 6432  35.007  10.724   0.825
39365W        W 6433   9.719  34.994  13.853
39366W        W 6434   6.896  40.452   1.701
39367W        W 6435  10.765  44.858   0.831
39368W        W 6436  37.347  39.351  13.479
39369W        W 6437  39.423  19.171   4.203
39370W        W 6438  39.898  30.472   3.745
39371W        W 6439  10.860  30.913   3.212
39372W        W 6440  38.353  32.964  10.890
39373W        W 6441  29.073  20.572  14.889
39374W        W 6442  37.906  28.033  13.858
39375W        W 6443  42.446  14.649  13.408
39376W        W 6444  32.060   6.687   2.297
39377W        W 6445  33.891  17.604  11.402
39378W        W 6446  25.714  21.527  11.861
39379W        W 6447   5.370   4.324  12.531
39380W        W 6448  15.669  32.621  12.510
39381W        W 6449  16.783  43.379  11.074
39382W        W 6450  16.747  23.500   3.687
39383W        W 6451   9.239  24.218   4.796
39384W        W 6452  38.499   1.377   3.856
39385W        W 6453   2.422   7.400   3.647
39386W        W 6454  26.979   2.454   3.667
39387W        W 6455   9.315  22.147  11.372
39388W        W 6456  14.309  12.327   4.187
39389W        W 6457  38.023  27.645  13.371
39390W        W 6458  25.587   1.786   4.203
39391W        W 6459  30.063  12.659   0.841
39392W        W 6460  24.189  25.470   0.875
39393W        W 6461  32.594  12.142  13.412
39394W        W 6462  18.664  14.654  14.860
39395W        W 6463  33.081  40.006  10.602
39396W        W 6464  40.961   9.326   2.223
39397W        W 6465  40.898  31.609   3.678
39398W        W 6466   3.837  42.342   0.889
39399W        W 6467  14.645  42.454   2.705
39400W        W 6468  24.550  29.458   4.166
39401W        W 6469  17.755  34.959   1.370
39402W        W 6470  20.621  20.099  14.983
39403W        W 6471  28.664  12.236  12.572
39404W        W 6472   2.752  21.238   2.399
39405W        W 6473  29.071  33.448  10.442
39406W        W 6474  13.110  30.990   1.210
39407W        W 6475  18.058  28.036   5.789
39408W        W 6476  12.643  21.632   4.317
39409W        W 6477   1.244  32.936  12.001
39410W        W 6478  22.745   0.747  12.945
39411W        W 6479  40.950  33.922  11.040
39412W        W 6480  41.912  26.696   0.271
39413W        W 6481  13.124   3.790  12.960
39414W        W 6482  12.644  13.845   3.233
39415W        W 6483  41.809  19.679   0.435
39416W        W 6484  44.832   1.899  10.416
39417W        W 6485  36.966  24.059  13.834
39418W        W 6486  24.609   7.729  13.826
39419W        W 6487   9.270  27.611  12.955
39420W        W 6488  19.053  22.232   1.366
39421W        W 6489  28.088  38.544   1.825
39422W        W 6490  35.007   5.221  13.512
39423W        W 6491  28.049   4.843  10.483
39424W        W 6492   4.867  12.741  12.922
39425W        W 6493   2.904  42.316  12.005
39426W        W 6494  27.160  35.037   0.942
39427W        W 6495   0.865  12.321  12.979
39428W        W 6496   5.380  12.774  11.866
39429W        W 6497  11.166   0.457  10.525
39430W        W 6498  22.665  26.999   2.896
39431W        W 6499  38.008  19.703  14.879
39432W        W 6500  13.758  16.141   0.771
39433W        W 6501   2.262  17.576   1.307
39434W        W 6502  22.157  21.134  12.825
39435W        W 6503  33.976  22.124  11.871
39436W        W 6504  33.527  38.535  12.359
39437W        W 6505  12.728  10.219  11.114
39438W        W 6506  27.596  28.113  10.542
39439W        W 6507  44.866   4.896   2.768
39440W        W 6508  29.537   5.750  11.591
39441W        W 6509  10.872  25.118   0.807
39442W        W 6510  29.499  30.630  13.423
39443W        W 6511   4.260  27.613   4.313
39444W        W 6512   4.388  15.611  11.557
39445W        W 6513  40.314  27.041   0.908
39446W        W 6514   4.334  18.786   4.130
39447W        W 6515  44.393   7.753   1.213
39448W        W 6516  39.892   0.392  11.885
39449W        W 6517  30.109  25.174   0.746
39450W        W 6518  21.644  11.756   0.805
39451W        W 6519  19.211  30.987   0.445
39452W        W 6520   8.273  36.924  12.379
39453W        W 6521  43.922  30.597  12.458
39454W        W 6522  37.034  10.192   2.178
39455W        W 6523   8.361  19.692   3.633
39456W        W 6524  21.027  13.622  14.984
39457W        W 6525  30.020  22.677   4.602
39458W        W 6526  29.449  18.570   3.648
39459W        W 6527  33.444  23.005  10.909
39460W        W 6528  43.953  36.409   4.823
39461W        W 6529  35.043   5.860   3.654
39462W        W 6530  34.514  29.573  13.450
39463W        W 6531  42.281   4.436  10.902
39464W        W 6532  40.311  15.254  11.562
39465W        W 6533   7.305  44.875  14.374
39466W        W 6534  42.979   6.853   3.809
39467W        W 6535  42.461  15.659   3.683
39468W        W 6536  15.277  43.765   0.833
39469W        W 6537  17.262  21.177  14.811
39470W        W 6538  14.143  18.549  12.896
39471W        W 6539  10.186  30.518  14.437
39472W        W 6540  40.389  25.626   1.871
39473W        W 6541  10.181  36.990  12.045
39474W        W 6542   5.732  44.434   2.256
39475W        W 6543  35.462  35.364   4.165
39476W        W 6544  39.497  22.675   3.781
39477W        W 6545  19.565  43.456   2.849
39478W        W 6546  26.690  38.551   1.339
39479W        W 6547   7.216  26.084   2.347
39480W        W 6548  34.608  31.041  14.426
39481W        W 6549  12.130  14.153   0.360
39482W        W 6550  28.107  40.848   1.361
39483W        W 6551  12.202  44.890  11.582
39484W        W 6552  16.105  21.678   1.803
39485W        W 6553  32.971  12.776  10.908
39486W        W 6554  17.694  10.245   2.683
39487W        W 6555  20.665  29.588   1.250
39488W        W 6556   0.865  10.772  14.446
39489W        W 6557  24.518   3.324  10.938
39490W        W 6558  34.469  19.217  13.543
39491W        W 6559  35.380   3.745  10.934
39492W        W 6560  39.033  11.685  14.009
39493W        W 6561   6.384  19.563   0.755
39494W        W 6562  40.497  36.066  13.811
39495W        W 6563  25.203  28.644   3.334
39496W        W 6564  28.573  38.033  14.371
39497W        W 6565  23.620   4.362  14.770
39498W        W 6566  12.823   5.293  13.969
39499W        W 6567   8.656  22.207  14.029
39500W        W 6568  18.640  43.425   2.296
39501W        W 6569   6.782  19.062   3.780
39502W        W 6570  17.122  25.588   0.294
39503W        W 6571  41.325  16.808   2.674
39504W        W 6572  10.728  26.696   4.255
39505W        W 6573   0.415   6.701   0.880
39506W        W 6574  39.466  13.753   1.869
39507W        W 6575  38.440  36.920   4.135
39508W        W 6576  34.409  22.017   4.335
39509W        W 6577  18.172  17.736   1.854
39510W        W 6578  28.652  25.024  11.893
39511W        W 6579  42.328  15.647  13.008
39512W        W 6580  10.686  16.187   1.798
39513W        W 6581  44.472  34.895  14.845
39514W        W 6582  32.936   1.318  14.317
39515W        W 6583  25.491  30.145  10.556
39516W        W 6584  21.688  10.340  13.453
39517W        W 6585  35.967  29.967  11.065
39518W        W 6586  29.650  34.370  14.798
39519W        W 6587  10.209  10.340  12.856
39520W        W 6588   6.829   6.182  14.901
39521W        W 6589  39.552  33.119  13.458
39522W        W 6590  33.563  23.081  14.502
39523W        W 6591   8.220   7.376   2.666
39524W        W 6592  36.900  41.994   2.284
39525W        W 6593  33.495  20.251   4.627
39526W        W 6594  28.032  27.986  11.068
39527W        W 6595  43.779  17.598   0.414
39528W        W 6596  14.675  39.893  10.971
39529W        W 6597  38.477  30.032  11.007
39530W        W 6598   4.359  37.920   0.457
39531W        W 6599   9.308  17.694  13.389
39532W        W 6600  13.291  44.344   5.114
39533W        W 6601  37.024   8.806  11.433
39534W        W 6602   6.425  15.595   1.412
39535W        W 6603   2.915  44.266   2.675
39536W        W 6604  27.651  37.354   1.309
39537W        W 6605  30.115  20.134   3.798
39538W        W 6606  31.130  12.218   2.281
39539W        W 6607  40.863   5.902  13.923
39540W        W 6608  43.946   1.774  13.530
39541W        W 6609  26.517  11.269  10.448
39542W        W 6610   3.866   6.196  12.952
39543W        W 6611  16.728  12.620  11.113
39544W        W 6612   4.922   2.239   0.293
39545W        W 6613   9.222  36.450   0.311
39546W        W 6614  31.459  30.930   3.843
39547W        W 6615  15.327  37.429  14.369
39548W        W 6616  17.564  35.986   1.741
39549W        W 6617  22.043  36.580  11.500
39550W        W 6618  36.958   5.212   0.828
39551W        W 6619   7.672  26.990  13.947
39552W        W 6620  34.513  14.760   2.804
39553W        W 6621  21.527  43.379   0.904
39554W        W 6622  20.138   9.260  14.003
39555W        W 6623  30.072  29.615   0.792
39556W        W 6624  24.565  18.554   0.423
39557W        W 6625  13.294  15.130   1.414
39558W        W 6626  44.809  28.081  13.348
39559W        W 6627  39.484  22.648   0.753
39560W        W 6628  44.403  25.507  12.526
39561W        W 6629  31.133   9.651  14.299
39562W        W 6630  18.727  15.121   4.829
39563W        W 6631  14.616  27.465  12.895
39564W        W 6632  20.253  17.105   2.368
39565W        W 6633  26.991  33.954   1.773
39566W        W 6634  20.196  44.407   3.672
39567W        W 6635   1.903  12.202  14.418
39568W        W 6636  20.580  19.687  12.348
39569W        W 6637  26.570  43.350  13.320
39570W        W 6638   3.260  13.768  14.487
39571W        W 6639  11.674   7.193   4.117
39572W        W 6640   6.336  10.181  11.086
39573W        W 6641  15.762  34.914  12.094
39574W        W 6642   3.821  27.148   4.355
39575W        W 6643  14.811  23.190  10.620
39576W        W 6644  43.768  14.306   0.246
39577W        W 6645   1.320  36.890  11.934
39578W        W 6646  23.124   7.404  14.462
39579W        W 6647  34.989  18.630   4.839
39580W        W 6648  44.288  41.492   3.268
39581W        W 6649  36.384  29.169   4.811
39582W        W 6650   4.343  11.732  10.405
39583W        W 6651  21.168  21.094   3.663
39584W        W 6652  13.827   5.413  12.880
39585W        W 6653  37.404  35.503   3.725
39586W        W 6654  21.740  12.703   4.131
39587W        W 6655  41.953  33.560   3.372
39588W        W 6656  23.613  40.816   3.147
39589W        W 6657  40.977  43.502  13.359
39590W        W 6658  14.288   3.299   0.738
39591W        W 6659  23.143  18.146  13.431
39592W        W 6660  33.035  38.463   1.267
39593W        W 6661  22.631  26.552  14.839
39594W        W 6662  39.048  11.259  13.408
39595W        W 6663  26.529   3.341  14.396
39596W        W 6664  23.197  33.615   2.334
39597W        W 6665  17.235   7.688  11.528
39598W        W 6666  28.645  43.989   4.742
39599W        W 6667  22.040  25.134   0.910
39600W        W 6668  24.660  41.353   3.717
39601W        W 6669  30.128  33.446  14.512
39602W        W 6670  23.088  22.041   3.833
39603W        W 6671  14.114   5.402   0.923
39604W        W 6672  28.118  29.510   1.699
39605W        W 6673   4.818   1.935   3.687
39606W        W 6674  33.569  33.561   3.211
39607W        W 6675  39.957  37.399  10.589
39608W        W 6676  11.190  13.269   3.846
39609W        W 6677   2.232   6.326  11.092
39610W        W 6678  16.741   4.326   3.809
39611W        W 6679  31.991  42.939  12.909
39612W        W 6680  27.515  29.961  10.986
39613W        W 6681  13.720  39.535   1.796
39614W        W 6682  35.054  31.937   4.121
39615W        W 6683   7.698  38.857   1.807
39616W        W 6684  42.032   8.827   0.327
39617W        W 6685  27.180  35.592  10.476
39618W        W 6686  20.526  44.267   2.227
39619W        W 6687   7.846  42.509   3.689
39620W        W 6688  16.636  13.750  10.574
39621W        W 6689  44.292  19.652  14.444
39622W        W 6690  34.936  41.808  14.278
39623W        W 6691  43.357  42.850  11.069
39624W        W 6692   0.971  23.140   2.357
39625W        W 6693  43.900  40.878  13.940
39626W        W 6694   5.913  16.250  14.859
39627W        W 6695  43.829  36.944   1.351
39628W        W 6696  31.619   3.256  11.396
39629W        W 6697   1.476  22.083   3.214
39630W        W 6698  27.958  44.275   5.228
39631W        W 6699   7.266  16.792  10.607
39632W        W 6700  43.001   6.301  11.584
39633W        W 6701   2.385  32.031   1.900
39634W        W 6702  13.181   6.687  13.423
39635W        W 6703  11.629  25.532   0.961
39636W        W 6704  24.700  29.954  12.533
39637W        W 6705  23.699  34.947   2.778
39638W        W 6706  33.537  24.591   9.964
39639W        W 6707   9.388  43.930  12.895
39640W        W 6708  22.646  19.115  12.005
39641W        W 6709  36.918  22.616  12.390
39642W        W 6710  18.108  16.755   3.257
39643W        W 6711  13.841  11.247  11.127
39644W        W 6712  17.109  26.465   0.785
39645W        W 6713  30.028  14.217  13.387
39646W        W 6714   5.414  23.648  13.020
39647W        W 6715  40.011  42.965   2.182
39648W        W 6716   5.723  40.968  12.892
39649W        W 6717  22.747  27.126  14.488
39650W        W 6718  39.808   6.420   1.312
39651W        W 6719  30.557   3.250  14.482
39652W        W 6720  37.549  23.144   4.645
39653W        W 6721   1.957  34.055  10.917
39654W        W 6722  23.710  33.989  11.535
39655W        W 6723  29.532  37.927  14.768
39656W        W 6724  36.384  14.711   2.403
39657W        W 6725  13.167  16.764  14.977
39658W        W 6726  32.957  41.497  11.112
39659W        W 6727  25.176  44.454  13.902
39660W        W 6728   5.302  36.850   2.178
39661W        W 6729   7.200   6.340   0.937
39662W        W 6730  18.631   0.966  13.844
39663W        W 6731  42.513   5.378   3.267
39664W        W 6732  40.345  39.896   2.754
39665W        W 6733  18.162  22.165  12.401
39666W        W 6734  44.834   2.828  10.556
39667W        W 6735  28.646  42.958   2.306
39668W        W 6736  42.905  28.614   4.635
39669W        W 6737  11.360  16.766  13.398
39670W        W 6738  40.956  38.829  13.028
39671W        W 6739  10.726  27.448  12.499
39672W        W 6740  37.425   0.948   2.771
39673W        W 6741   5.724  35.492  13.827
39674W        W 6742  39.032  12.180  11.974
39675W        W 6743  39.903  10.350  14.843
39676W        W 6744  41.886  21.662   3.374
39677W        W 6745  28.532  35.040  14.361
39678W        W 6746  42.883  36.848  13.914
39679W        W 6747  37.411   2.957  10.625
39680W        W 6748  44.926  41.029   4.235
39681W        W 6749   9.296  20.744  11.488
39682W        W 6750  35.500  43.908   0.879
39683W        W 6751  11.665  26.140   4.140
39684W        W 6752  19.708  31.582   2.750
39685W        W 6753  32.577  43.863   4.162
39686W        W 6754  42.375  41.475  11.402
39687W        W 6755  29.505  26.132   1.351
39688W        W 6756  19.192   1.315   1.437
39689W        W 6757  12.773  39.901   1.270
39690W        W 6758  44.922  19.102   4.792
39691W        W 6759  14.139  19.188   3.701
39692W        W 6760  19.080  30.539   0.276
39693W        W 6761  10.339  27.050   0.893
39694W        W 6762  14.169  25.028   2.370
39695W        W 6763  39.926   7.849   4.752
39696W        W 6764  12.686  39.053   2.753
39697W        W 6765  28.576  15.735  10.576
39698W        W 6766  20.097  42.942   5.316
39699W        W 6767  19.272  43.399  13.986
39700W        W 6768  42.964  31.063  10.438
39701W        W 6769  42.360  21.555   2.868
39702W        W 6770  20.079  37.478   4.297
39703W        W 6771   6.767  13.304   4.293
39704W        W 6772  24.681   9.750   4.694
39705W        W 6773  32.495  26.035  13.451
39706W        W 6774  43.863  18.655   2.278
39707W        W 6775  40.937  25.472  11.518
39708W        W 6776   8.855  44.312  10.641
39709W        W 6777  29.611  14.663  12.828
39710W        W 6778  26.037   3.237   3.772
39711W        W 6779  10.223  44.992  12.415
39712W        W 6780   4.311  10.279  11.551
39713W        W 6781  13.767   3.866  11.475
39714W        W 6782  37.558  34.519   2.188
39715W        W 6783  15.169  26.001  11.506
39716W        W 6784  44.496   8.881   0.839
39717W        W 6785   1.735  33.507  11.971
39718W        W 6786   3.892  22.546  12.986
39719W        W 6787  34.385  24.676   1.418
39720W        W 6788  44.760  18.295  13.963
39721W        W 6789  44.430   3.449   4.332
39722W        W 6790  13.808  20.053   4.688
39723W        W 6791  31.988  34.525   0.782
39724W        W 6792  25.103  11.644  14.777
39725W        W 6793   0.332  16.131  13.455
39726W        W 6794  11.175  11.373   0.755
39727W        W 6795   6.227  10.258   2.828
39728W        W 6796  39.460  15.133  13.802
39729W        W 6797   7.204  12.702   2.278
39730W        W 6798   9.288  37.891  14.295
39731W        W 6799  41.327  30.627   4.776
39732W        W 6800  17.626  38.530  12.058
39733W        W 6801  44.492   5.247  12.031
39734W        W 6802  43.999  31.072  10.951
39735W        W 6803  42.515   5.384  12.861
39736W        W 6804  35.388  34.115  12.913
39737W        W 6805  22.096   3.215   2.846
39738W        W 6806  10.704   1.942  11.125
39739W        W 6807  34.467  41.887  11.518
39740W        W 6808  25.157  41.043  11.400
39741W        W 6809  31.027  27.166   1.378
39742W        W 6810  26.116  41.535   0.272
39743W        W 6811   4.249  25.214   1.733
39744W        W 6812  19.565  25.489  14.412
39745W        W 6813  18.700  39.041   2.321
39746W        W 6814  32.121  38.861  13.431
39747W        W 6815  14.130  26.538  14.342
39748W        W 6816  44.780  18.255  14.946
39749W        W 6817  43.327  43.374  13.951
39750W        W 6818  11.696   1.455   2.213
39751W        W 6819  23.629   9.707   2.769
39752W        W 6820  34.075  33.126  11.457
39753W        W 6821  38.854  39.455  14.791
39754W        W 6822  26.554  33.079  13.892
39755W        W 6823  36.542  40.843  12.053
39756W        W 6824  17.277  13.147  12.948
39757W        W 6825  20.222  38.346  13.544
39758W        W 6826  27.066  30.973   3.254
39759W        W 6827   9.384  19.042   3.676
39760W        W 6828  23.578  24.557  14.999
39761W        W 6829  44.934  32.522  14.773
39762W        W 6830  19.660  25.497   1.745
39763W        W 6831  11.729  10.271  13.796
39764W        W 6832   9.824  38.341  10.469
39765W        W 6833  12.836  44.767   0.324
39766W        W 6834  34.984  14.786  11.376
39767W        W 6835  15.193  32.928   2.201
39768W        W 6836   6.686   7.217  14.442
39769W        W 6837   3.775  16.774  10.457
39770W        W 6838   1.423  38.518  10.982
39771W        W 6839  21.756  34.421  11.567
39772W        W 6840  32.395  31.906  11.011
39773W        W 6841  42.490  19.552  10.463
39774W        W 6842  11.826  29.997   0.459
39775W        W 6843  41.041  41.957  10.918
39776W        W 6844   9.220   0.862  10.540
39777W        W 6845  20.266  24.055   0.823
39778W        W 6846  32.560  11.232  13.835
39779W        W 6847  19.040  32.906  13.828
39780W        W 6848  41.991   5.366   0.396
39781W        W 6849  42.978  23.029  13.342
39782W        W 6850  19.243  10.328  12.461
39783W        W 6851  17.175  17.739   1.405
39784W        W 6852  29.442  13.154   2.864
39785W        W 6853  27.478  18.686   0.460
39786W        W 6854  33.095  37.524  12.487
39787W        W 6855  34.890  10.297   4.828
39788W        W 6856   9.752  13.832   4.175
39789W        W 6857  34.119  33.019  10.519
39790W        W 6858  14.819  15.756   2.399
39791W        W 6859  31.420  17.567  13.338
39792W        W 6860  33.127  37.066   3.329
39793W        W 6861  37.970   7.253   1.366
39794W        W 6862  44.839   5.720   1.444
39795W        W 6863  29.425  27.144   1.851
39796W        W 6864  33.410  10.162   2.281
39797W        W 6865  34.523  32.443   3.702
39798W        W 6866  23.715  10.777   0.727
39799W        W 6867  10.803   8.762  12.963
39800W        W 6868  25.026  43.437   2.818
39801W        W 6869   4.905   3.369  10.003
39802W        W 6870  43.828  36.358  11.415
39803W        W 6871  39.402   0.945  13.962
39804W        W 6872   2.871  41.905  14.792
39805W        W 6873   5.302  30.649   0.435
39806W        W 6874  35.560  22.637  14.432
39807W        W 6875   0.328  12.161  14.983
39808W        W 6876  26.691   8.230  13.883
39809W        W 6877  17.719  40.014   2.694
39810W        W 6878  35.872  14.183   1.295
39811W        W 6879   6.405  23.147   3.163
39812W        W 6880  28.541  17.286  14.997
39813W        W 6881  13.266   6.229  12.494
39814W        W 6882  15.243   8.223   1.929
39815W        W 6883   9.272   8.302  11.600
39816W        W 6884  16.667  34.968   4.680
39817W        W 6885  36.014  38.890  13.337
39818W        W 6886  28.045   7.793   3.302
39819W        W 6887   4.308  12.758  14.509
39820W        W 6888   4.889  17.172   3.375
39821W        W 6889  14.800   9.377   3.681
39822W        W 6890   0.308  32.894  14.286
39823W        W 6891  18.608   6.369   0.873
39824W        W 6892  27.478  37.452   5.201
39825W        W 6893  24.077   8.756  10.024
39826W        W 6894  43.977  10.327   1.833
39827W        W 6895  22.675  15.817   0.368
39828W        W 6896  37.366  41.793  13.441
39829W        W 6897   9.236  39.363   2.712
39830W        W 6898   5.754   7.812  12.097
39831W        W 6899  32.511   5.342   2.723
39832W        W 6900  17.717  32.006   4.755
39833W        W 6901  38.008  40.307  13.818
39834W        W 6902   0.302   5.280  11.416
39835W        W 6903  34.375  27.689  13.454
39836W        W 6904  22.207  21.149  12.097
39837W        W 6905  34.394  33.412   4.761
39838W        W 6906  28.644  15.625   1.328
39839W        W 6907   5.269  44.896   3.360
39840W        W 6908  17.626  42.325   1.890
39841W        W 6909  44.488  41.291  10.449
39842W        W 6910  10.367  33.987  12.497
39843W        W 6911  34.930  13.652   4.206
39844W        W 6912  41.951   1.779  10.981
39845W        W 6913  38.906   6.378  11.944
39846W        W 6914  28.620   5.819   1.909
39847W        W 6915  16.790  20.200   1.289
39848W        W 6916   3.399  25.673  14.857
39849W        W 6917   6.374  31.576  13.792
39850W        W 6918  36.404  34.096   0.255
39851W        W 6919  19.084  17.682   4.154
39852W        W 6920   5.317  29.651  11.592
39853W        W 6921  16.635   1.482  11.096
39854W        W 6922  35.581  12.360  13.450
39855W        W 6923   3.300  16.265   4.329
39856W        W 6924   7.410  31.953   1.420
39857W        W 6925  29.034  16.304   4.208
39858W        W 6926  25.988  32.110   2.203
39859W        W 6927  18.273  42.504  13.035
39860W        W 6928   3.332  16.245  14.900
39861W        W 6929  29.436   9.358  12.059
39862W        W 6930  13.240  12.728  12.471
39863W        W 6931  35.950  11.300   3.361
39864W        W 6932  41.318  28.506  13.469
39865W        W 6933  37.497  12.632  13.340
39866W        W 6934  12.789   5.299  13.477
39867W        W 6935  16.277  33.049   2.674
39868W        W 6936  20.187  13.334  12.412
39869W        W 6937  26.103   8.890   2.339
39870W        W 6938  19.667  13.619  13.005
39871W        W 6939  24.142  38.435  11.595
39872W        W 6940  26.661  31.467   3.202
39873W        W 6941  17.084  37.351   1.294
39874W        W 6942  31.996  35.887  13.418
39875W        W 6943  40.907  21.220  14.011
39876W        W 6944  37.928  41.519  14.019
39877W        W 6945  39.901  14.188   5.113
39878W        W 6946  38.049  18.598   1.236
39879W        W 6947  24.581  10.874   0.736
39880W        W 6948  29.174  44.982   1.748
39881W        W 6949   8.227  33.513   3.740
39882W        W 6950  23.628  38.420   2.360
39883W        W 6951  37.004  33.922   0.289
39884W        W 6952  14.774  43.363  11.098
39885W        W 6953  32.426  43.516   2.267
39886W        W 6954  34.106  10.341  10.530
39887W        W 6955  31.433  23.123   5.280
39888W        W 6956  36.421  43.292  10.999
39889W        W 6957  14.285  32.000   2.872
39890W        W 6958  26.979  39.435  10.447
39891W        W 6959  27.967  33.948   2.782
39892W        W 6960  18.780  17.576  12.917
39893W        W 6961   2.352  26.541   1.272
39894W        W 6962  37.947   7.825   1.803
39895W        W 6963  12.810  36.404   2.708
39896W        W 6964  16.184  21.183   0.834
39897W        W 6965   2.375  35.451   3.289
39898W        W 6966  24.620  38.481   2.866
39899W        W 6967  25.587   6.220  13.057
39900W        W 6968  34.900   3.381  12.056
39901W        W 6969  20.182  14.644   2.255
39902W        W 6970   1.881  31.566   1.706
39903W        W 6971   6.201  21.743  14.971
39904W        W 6972  39.450   4.854  11.978
39905W        W 6973  10.821  16.111   2.797
39906W        W 6974  37.538  35.871   3.181
39907W        W 6975  17.737   8.313   3.376
39908W        W 6976   3.744   6.227  10.525
39909W        W 6977   2.880  25.530  13.452
39910W        W 6978  11.158  33.030   0.736
39911W        W 6979  27.102  34.539   2.405
39912W        W 6980  44.771  13.787   2.304
39913W        W 6981  20.271  36.984  13.819
39914W        W 6982  28.673  30.120   0.465
39915W        W 6983  21.649   7.668   0.859
39916W        W 6984   3.870  33.082  10.442
39917W        W 6985   0.803  41.887   1.735
39918W        W 6986  22.731  18.739  13.537
39919W        W 6987  25.711  38.821  14.442
39920W        W 6988  28.476   6.423  14.863
39921W        W 6989  37.365  28.567  11.612
39922W        W 6990  24.661  38.454   4.300
39923W        W 6991  23.167  11.158  12.966
39924W        W 6992   1.804   4.863  12.385
39925W        W 6993   8.870   2.458   3.730
39926W        W 6994  44.397   5.751  11.436
39927W        W 6995  30.017  28.092   4.784
39928W        W 6996  10.220   8.347   0.466
39929W        W 6997   7.311  20.577  13.897
39930W        W 6998   4.257   1.925   2.772
39931W        W 6999   5.343   5.407   4.187
39932W        W 7000  35.884  15.816   2.854
39933W        W 7001  27.684  15.736   3.346
39934W        W 7002  15.193  41.031  10.484
39935W        W 7003  30.433  21.574   4.326
39936W        W 7004   0.319  38.976  12.344
39937W        W 7005   3.804  17.580   1.740
39938W        W 7006  37.360  22.547  11.603
39939W        W 7007  21.586   9.371  13.359
39940W        W 7008  34.043  14.335   2.231
39941W        W 7009  19.583   7.388  13.431
39942W        W 7010  20.264  42.409  11.880
39943W        W 7011   8.247  40.936   2.848
39944W        W 7012  30.934  26.014   0.362
39945W        W 7013  13.745  40.846   2.711
39946W        W 7014  18.653  38.382   2.685
39947W        W 7015   0.881  39.839   1.235
39948W        W 7016  25.985  25.068   3.719
39949W        W 7017  34.441  44.365   4.750
39950W        W 7018  25.143   0.447  12.519
39951W        W 7019   0.758  24.568  11.546
39952W        W 7020  31.908  22.702  10.999
39953W        W 7021  14.206  37.506   4.195
39954W        W 7022  11.839  39.929  11.912
39955W        W 7023  41.341  19.628  11.100
39956W        W 7024  18.568  38.064   1.856
39957W        W 7025  23.113  27.990  13.970
39958W        W 7026  41.843  32.061  13.059
39959W        W 7027  15.181  21.597   2.313
39960W        W 7028  20.163  25.090   5.161
39961W        W 7029  27.586  31.503  13.984
39962W        W 7030  43.766  24.677  11.870
39963W        W 7031  36.084  18.760  10.925
39964W        W 7032  37.856  11.738   4.662
39965W        W 7033  26.125   3.256   4.305
39966W        W 7034  18.750  22.589  10.978
39967W        W 7035   4.353  28.158  12.488
39968W        W 7036  21.088  31.992  12.849
39969W        W 7037   2.348  28.568   4.144
39970W        W 7038  11.138   8.822   1.859
39971W        W 7039  22.707   1.478   4.750
39972W        W 7040  12.283  37.512  13.808
39973W        W 7041  41.858  27.530   0.352
39974W        W 7042  42.493  38.917  13.922
39975W        W 7043  12.793  38.055   1.758
39976W        W 7044  14.785   1.443   2.366
39977W        W 7045  11.206  36.593   1.930
39978W        W 7046   4.875  25.205   2.701
39979W        W 7047  21.261  39.333  12.395
39980W        W 7048  23.705  37.534   4.220
39981W        W 7049  21.052  40.825  10.461
39982W        W 7050  27.152  20.235  10.460
39983W        W 7051  42.800   8.244  11.109
39984W        W 7052  12.639  34.498   3.192
39985W        W 7053  23.227  35.878  10.908
39986W        W 7054   4.344   0.893   4.157
39987W        W 7055  25.503   2.790  14.323
39988W        W 7056   0.372  26.630   2.368
39989W        W 7057  22.586  12.643   4.725
39990W        W 7058  16.093  35.052  10.567
39991W        W 7059  25.607  14.147  10.073
39992W        W 7060  22.679  15.720  10.108
39993W        W 7061  16.100  22.035  11.517
39994W        W 7062  28.627  36.496  13.043
39995W        W 7063   8.757  42.474   4.686
39996W        W 7064   7.685  10.675  10.451
39997W        W 7065  23.149   2.962   0.771
39998W        W 7066  28.071   6.379  11.610
39999W        W 7067   6.892  31.952  12.959
40000W        W 7068   3.270  36.475  14.935
40001W        W 7069   6.362  34.531   1.860
40002W        W 7070  34.061  34.591   4.340
40003W        W 7071   2.342   7.822   0.808
40004W        W 7072  30.497  10.171   3.279
40005W        W 7073  36.396   3.811   1.908
40006W        W 7074  29.515  34.056  14.943
40007W        W 7075  38.860  34.027  11.856
40008W        W 7076  44.307  22.727  10.529
40009W        W 7077  41.791  33.971   0.302
40010W        W 7078  33.390   3.840   0.921
40011W        W 7079  15.213  42.781   4.697
40012W        W 7080  23.610  25.675   2.202
40013W        W 7081   4.327  18.073  12.894
40014W        W 7082  17.703  37.958   0.363
40015W        W 7083  33.446  21.540  14.983
40016W        W 7084   8.221   2.829  14.439
40017W        W 7085  10.641   8.847   4.242
40018W        W 7086  27.956   6.812   1.787
40019W        W 7087   9.879  13.271  11.554
40020W        W 7088  21.042  31.495  13.833
40021W        W 7089  30.066  17.268  13.938
40022W        W 7090  12.828  28.140   0.928
40023W        W 7091  23.214   6.917  11.023
40024W        W 7092  42.887  13.728  14.921
40025W        W 7093   8.900  17.203  11.028
40026W        W 7094   3.753  39.508   0.332
40027W        W 7095  19.140   5.429   2.208
40028W        W 7096  16.234  10.857  14.015
40029W        W 7097  11.655  44.774  13.871
40030W        W 7098   6.376  29.573  14.032
40031W        W 7099  32.918  44.889   0.835
40032W        W 7100  24.679   6.722  11.041
40033W        W 7101  11.702  36.361  13.794
40034W        W 7102  39.391  28.954  14.430
40035W        W 7103  37.908  23.551   4.691
40036W        W 7104  43.460   6.774   4.726
40037W        W 7105  13.691  13.690  13.024
40038W        W 7106   6.864  11.334   1.891
40039W        W 7107  43.805  16.095  12.551
40040W        W 7108  11.719   8.886  11.892
40041W        W 7109  16.640  30.922   3.220
40042W        W 7110  43.886  32.424   4.292
40043W        W 7111  16.753   3.917  13.440
40044W        W 7112  14.321  10.164  14.848
40045W        W 7113  42.832   3.388  12.349
40046W        W 7114  38.546  15.230   1.908
40047W        W 7115  41.802  14.672   0.359
40048W        W 7116   4.839   6.762  11.862
40049W        W 7117  43.338  16.248   3.853
40050W        W 7118  38.442   1.888   3.376
40051W        W 7119  20.184   0.832  10.964
40052W        W 7120  25.209  25.552   3.360
40053W        W 7121   2.877  16.099   2.395
40054W        W 7122   8.728  39.915  12.552
40055W        W 7123  27.986  44.930  11.040
40056W        W 7124  32.396  15.632   1.414
40057W        W 7125  16.648  24.193   3.380
40058W        W 7126  17.282  26.571  13.970
40059W        W 7127  24.151  16.203   1.810
40060W        W 7128  19.600  18.582  14.871
40061W        W 7129  20.127  40.945  10.448
40062W        W 7130  26.986  43.271  10.532
40063W        W 7131  15.620  26.189  13.387
40064W        W 7132  16.102  33.600   9.951
40065W        W 7133   9.710  44.773  11.891
40066W        W 7134  14.627  12.332  11.398
40067W        W 7135  20.563  29.517  12.877
40068W        W 7136   6.369  18.259  13.806
40069W        W 7137  16.651  22.629  10.407
40070W        W 7138  42.326  14.646   3.344
40071W        W 7139  19.665  43.864   1.390
40072W        W 7140  16.113  12.232  13.950
40073W        W 7141  35.093  17.682   3.797
40074W        W 7142  20.527  19.704  13.037
40075W        W 7143  21.050  42.346   1.759
40076W        W 7144  35.995   7.740  12.498
40077W        W 7145  10.209  42.991   3.318
40078W        W 7146  34.492  29.438   4.243
40079W        W 7147  39.510  35.383   0.399
40080W        W 7148  37.887  17.733  12.506
40081W        W 7149  22.094   8.680  12.991
40082W        W 7150  25.089  10.778  13.847
40083W        W 7151  10.218  25.064  14.793
40084W        W 7152  27.017   6.370  12.864
40085W        W 7153  19.694   0.334   2.406
40086W        W 7154  40.934   6.920  10.635
40087W        W 7155  28.185  28.000   2.672
40088W        W 7156  31.520  11.706   3.162
40089W        W 7157  36.857  39.032  12.827
40090W        W 7158  14.637  22.530   1.264
40091W        W 7159   2.780  29.174  14.446
40092W        W 7160  40.415  19.069   4.619
40093W        W 7161  12.133   7.860  11.046
40094W        W 7162  30.925  34.030   0.807
40095W        W 7163  42.026  30.450  11.898
40096W        W 7164  39.936  20.546   0.840
40097W        W 7165  15.685  40.488   1.388
40098W        W 7166   0.387  38.914   2.417
40099W        W 7167   2.762  39.541  11.070
40100W        W 7168   2.823   2.255  11.023
40101W        W 7169  23.132  37.337  10.634
40102W        W 7170  31.939  11.864  11.596
40103W        W 7171   1.243  15.298  11.510
40104W        W 7172   7.273  33.028   4.274
40105W        W 7173  27.528   5.781   3.745
40106W        W 7174  16.225   6.389   3.300
40107W        W 7175  40.389  33.085  12.429
40108W        W 7176  40.037  43.804   1.285
40109W        W 7177  37.025  27.570  10.986
40110W        W 7178  15.127  19.109   2.898
40111W        W 7179  21.580   1.828   2.836
40112W        W 7180   5.244  37.577   2.196
40113W        W 7181   9.286  33.077  14.422
40114W        W 7182  14.794   7.692   0.757
40115W        W 7183  21.581  43.382   1.264
40116W        W 7184  36.879  33.605   9.932
40117W        W 7185   4.917  17.241  14.822
40118W        W 7186  16.604  26.557  11.398
40119W        W 7187  41.313  32.558   4.294
40120W        W 7188  26.670   7.378  14.907
40121W        W 7189  17.577  35.866  11.869
40122W        W 7190  10.265  41.800  12.052
40123W        W 7191  34.897  41.041   0.356
40124W        W 7192  23.166   9.195  12.074
40125W        W 7193   1.759   0.914   0.247
40126W        W 7194  44.324   2.832   3.634
40127W        W 7195  43.868  37.040   3.747
40128W        W 7196  41.361   5.293   3.231
40129W        W 7197  32.533   7.787  12.532
40130W        W 7198   5.283  31.518   4.148
40131W        W 7199  38.850  20.643   4.745
40132W        W 7200  10.638  11.662   2.360
40133W        W 7201  44.361  42.939  14.787
40134W        W 7202  44.292  41.015   1.833
40135W        W 7203  27.474  42.469   3.307
40136W        W 7204  24.090  34.437   4.216
40137W        W 7205  30.122  17.264   3.217
40138W        W 7206   3.741  25.629   1.757
40139W        W 7207  41.803  33.409  13.317
40140W        W 7208  23.544  32.993   3.741
40141W        W 7209  15.189  16.235   1.848
40142W        W 7210  38.823  14.784  11.409
40143W        W 7211   6.191  21.528   4.721
40144W        W 7212  17.698  41.948  10.964
40145W        W 7213   7.224  25.009  12.930
40146W        W 7214   0.315   3.744   0.867
40147W        W 7215  10.177  37.528   2.216
40148W        W 7216  30.501   7.263   2.324
40149W        W 7217  20.086  17.165   2.751
40150W        W 7218   0.422  25.095   0.808
40151W        W 7219   6.691   9.275  13.459
40152W        W 7220  19.176   3.251  12.933
40153W        W 7221  40.344  39.984   0.770
40154W        W 7222  23.683   9.864   4.142
40155W        W 7223  36.892   0.403  12.001
40156W        W 7224  23.647  32.984  14.330
40157W        W 7225  38.518  27.574   0.243
40158W        W 7226  24.572  40.827   3.838
40159W        W 7227  15.609  20.535  14.766
40160W        W 7228  41.912  19.585  11.018
40161W        W 7229   1.752  19.776  10.475
40162W        W 7230  34.934  21.611  13.896
40163W        W 7231  39.013  29.480  13.388
40164W        W 7232  25.695  24.630  14.379
40165W        W 7233   2.354  20.204  12.082
40166W        W 7234   2.264  18.644  12.960
40167W        W 7235  13.220  10.841  13.851
40168W        W 7236   3.750  26.171  10.979
40169W        W 7237   4.764  14.310  11.987
40170W        W 7238  19.646  23.692   3.312
40171W        W 7239  41.518  19.143  12.361
40172W        W 7240  38.335   5.426  11.037
40173W        W 7241   2.366   1.950  14.839
40174W        W 7242  42.430  11.808   2.200
40175W        W 7243  33.993   4.300   0.280
40176W        W 7244  19.648  18.063   3.795
40177W        W 7245  19.657  16.295  11.928
40178W        W 7246   1.318  25.585  13.389
40179W        W 7247  14.663   8.248  14.782
40180W        W 7248  37.410  16.263   4.760
40181W        W 7249   6.198   3.818   2.413
40182W        W 7250   8.306   4.261   1.359
40183W        W 7251  20.664  29.992   1.776
40184W        W 7252  40.896  40.391  13.822
40185W        W 7253  27.962  22.668  11.600
40186W        W 7254  39.919  10.164   4.680
40187W        W 7255  29.669  26.462  13.982
40188W        W 7256  41.943  25.011  10.631
40189W        W 7257  40.966   7.268  13.031
40190W        W 7258  14.687  31.137   0.468
40191W        W 7259   0.275   7.347  11.053
40192W        W 7260  15.089  31.899  10.465
40193W        W 7261  37.843  29.083   2.677
40194W        W 7262   2.227  16.102  14.280
40195W        W 7263  26.190  20.092   3.361
40196W        W 7264   8.170   5.260   4.283
40197W        W 7265  43.466  12.802  13.906
40198W        W 7266  12.709  32.451   4.323
40199W        W 7267  31.498  44.769  13.434
40200W        W 7268  17.170  23.709  11.514
40201W        W 7269  20.624  15.115   2.395
40202W        W 7270  23.166  20.245   1.697
40203W        W 7271  35.971  36.514   0.927
40204W        W 7272  22.095  41.789  11.883
40205W        W 7273  29.604   6.746  12.559
40206W        W 7274  27.454   0.937   0.967
40207W        W 7275  33.086  44.925   4.333
40208W        W 7276  31.481  24.716   0.349
40209W        W 7277  28.512  21.732   1.245
40210W        W 7278   4.234   7.329   4.816
40211W        W 7279  21.543   8.247   2.738
40212W        W 7280  10.831   3.347  11.087
40213W        W 7281  36.372  39.473   1.279
40214W        W 7282   4.940  44.948   0.327
40215W        W 7283  11.728  28.440   1.774
40216W        W 7284  17.736  27.466  14.020
40217W        W 7285  25.692  31.586   3.841
40218W        W 7286   9.860  35.067   4.233
40219W        W 7287  17.267   9.688   4.127
40220W        W 7288  18.610  24.044  14.424
40221W        W 7289  36.975  25.696   4.615
40222W        W 7290  10.733   0.743   4.115
40223W        W 7291  37.553  25.076   3.864
40224W        W 7292  28.635  26.474  11.535
40225W        W 7293  16.109  44.949   4.113
40226W        W 7294  23.009  22.074  11.125
40227W        W 7295  32.596   0.794  14.472
40228W        W 7296  13.311  42.981   3.751
40229W        W 7297  10.308  22.196   1.428
40230W        W 7298   8.746  36.568   4.737
40231W        W 7299   6.894  31.107   1.269
40232W        W 7300  35.026   4.246  12.837
40233W        W 7301  32.533  29.517   2.224
40234W        W 7302  37.913  14.746  11.000
40235W        W 7303  15.702  20.076  13.794
40236W        W 7304  29.154  30.598   1.776
40237W        W 7305   5.822  24.514  14.941
40238W        W 7306  42.992  19.120  12.525
40239W        W 7307  32.136  29.641  14.963
40240W        W 7308  42.430  30.523   2.402
40241W        W 7309  10.656   5.836  14.807
40242W        W 7310  35.503  31.073  12.071
40243W        W 7311   1.972  42.338   2.219
40244W        W 7312  12.266  42.341   4.769
40245W        W 7313  19.215  35.558  13.323
40246W        W 7314  40.040  17.794  14.029
40247W        W 7315   0.792  29.007  12.542
40248W        W 7316  10.649  31.638   2.767
40249W        W 7317  20.728  30.962   1.777
40250W        W 7318  22.657  28.177   2.874
40251W        W 7319   6.770  21.066   0.955
40252W        W 7320   8.283   0.474  10.484
40253W        W 7321  26.563   3.310  13.407
40254W        W 7322  24.043  23.607  11.408
40255W        W 7323  41.532  35.924   3.777
40256W        W 7324  25.107  25.123   1.750
40257W        W 7325   5.713  31.421   2.773
40258W        W 7326   5.877  30.511  11.527
40259W        W 7327  15.257  36.549   3.814
40260W        W 7328  10.653  16.182  10.622
40261W        W 7329  24.981   4.877  12.031
40262W        W 7330   1.781  29.437  12.563
40263W        W 7331   9.745  34.099   1.248
40264W        W 7332   9.825  20.185   4.291
40265W        W 7333  31.632  27.986   0.251
40266W        W 7334  44.462  24.690  12.823
40267W        W 7335  31.432  27.554  10.422
40268W        W 7336   1.390  20.740   0.357
40269W        W 7337   4.395  13.130   2.775
40270W        W 7338  40.402   9.731  13.366
40271W        W 7339   7.762  43.362   4.702
40272W        W 7340   1.292  44.262   4.350
40273W        W 7341  43.858  41.827  13.905
40274W        W 7342  29.459  19.636  11.599
40275W        W 7343  17.103  21.229  11.922
40276W        W 7344  37.522   9.326  13.893
40277W        W 7345  29.456  36.377  10.083
40278W        W 7346   5.695  19.609  11.923
40279W        W 7347   3.733   0.947   3.677
40280W        W 7348  43.476  42.830  12.377
40281W        W 7349  38.008  12.800   2.898
40282W        W 7350   1.974  40.907  11.919
40283W        W 7351  17.258  16.124  14.392
40284W        W 7352  19.187  37.936   4.188
40285W        W 7353  10.856   9.827   4.765
40286W        W 7354  33.474  21.244  10.047
40287W        W 7355  34.905  13.335  11.584
40288W        W 7356   9.817  34.448  13.954
40289W        W 7357   0.406  20.251  14.381
40290W        W 7358  13.243  44.445   2.346
40291W        W 7359   2.239  37.341   2.327
40292W        W 7360  33.479  16.699   2.188
40293W        W 7361  26.081  21.586  12.348
40294W        W 7362  19.736  43.829   2.280
40295W        W 7363   3.803  15.646   9.996
40296W        W 7364  14.169   8.788  13.814
40297W        W 7365  35.453   3.869   0.342
40298W        W 7366  43.821   8.752  10.626
40299W        W 7367  13.777  36.096  13.990
40300W        W 7368  27.111  34.984  14.809
40301W        W 7369  20.739  12.273  13.548
40302W        W 7370   9.690  27.472   4.351
40303W        W 7371   7.271  16.252  13.971
40304W        W 7372  28.137   0.337  11.899
40305W        W 7373  15.681  26.177  10.931
40306W        W 7374  38.919  28.624   1.374
40307W        W 7375  42.848  38.939  11.917
40308W        W 7376  33.055   5.814  10.967
40309W        W 7377  27.609  18.249   4.653
40310W        W 7378  44.366  16.802   9.927
40311W        W 7379  10.757  33.406   2.331
40312W        W 7380  39.988   5.873   3.732
40313W        W 7381  28.990  28.537   1.719
40314W        W 7382  37.923   2.340  13.920
40315W        W 7383  29.577   7.257   4.270
40316W        W 7384  40.962  29.004   3.209
40317W        W 7385  22.723  37.867   0.802
40318W        W 7386  34.906  40.463   3.871
40319W        W 7387   7.363  25.533  14.992
40320W        W 7388   0.389   0.809  13.827
40321W        W 7389  21.231  32.515   4.630
40322W        W 7390  11.312  31.623  13.942
40323W        W 7391   9.387  42.779  10.901
40324W        W 7392  36.503   4.782  13.982
40325W        W 7393  29.483   0.977  11.864
40326W        W 7394  40.430  26.070  13.389
40327W        W 7395  38.433   9.328   2.866
40328W        W 7396  17.134   8.343  10.929
40329W        W 7397   2.299   6.199  13.867
40330W        W 7398  27.591  33.421   3.167
40331W        W 7399   7.234   9.365  11.942
40332W        W 7400   0.748  21.204   5.279
40333W        W 7401  44.297  28.038   0.921
40334W        W 7402  43.502  11.669   1.269
40335W        W 7403   7.839  33.404   4.833
40336W        W 7404  11.251  43.771  11.534
40337W        W 7405  30.461  29.660  13.521
40338W        W 7406   9.370  28.519  12.389
40339W        W 7407  34.958  38.537   0.262
40340W        W 7408  15.789   2.729  11.475
40341W        W 7409  13.610  14.200   0.740
40342W        W 7410   5.848  32.634   0.424
40343W        W 7411  10.318   3.326   1.306
40344W        W 7412  16.768  37.067   1.397
40345W        W 7413  38.350   3.360   1.760
40346W        W 7414   7.350  13.708   3.161
40347W        W 7415  29.453  30.599  11.957
40348W        W 7416  15.253  20.176  14.817
40349W        W 7417  21.176  34.103  14.993
40350W        W 7418   0.272  16.717  11.064
40351W        W 7419  18.628  41.324   4.832
40352W        W 7420  13.309  15.778  13.895
40353W        W 7421  38.366   4.923   0.948
40354W        W 7422  19.674   3.847  10.912
40355W        W 7423  21.689  23.657  14.889
40356W        W 7424  24.154  15.191  10.560
40357W        W 7425   0.933  42.837  11.971
40358W        W 7426  39.024   9.367  12.441
40359W        W 7427  30.042  44.846  11.120
40360W        W 7428  33.531  21.109   4.258
40361W        W 7429  23.149  33.454   3.798
40362W        W 7430  20.199  39.998  14.281
40363W        W 7431  18.761  24.661   4.807
40364W        W 7432  16.228  34.063  11.418
40365W        W 7433  24.057  20.742   3.235
40366W        W 7434  34.120  27.689  14.331
40367W        W 7435  11.714  25.186  11.468
40368W        W 7436  13.639   2.871  10.475
40369W        W 7437  22.085  10.805   3.242
40370W        W 7438  35.389  31.122   0.275
40371W        W 7439   4.790   6.744   1.833
40372W        W 7440  26.543   0.254   4.762
40373W        W 7441  12.142  11.697   0.456
40374W        W 7442   7.700  38.330   1.405
40375W        W 7443  43.506  35.041   3.263
40376W        W 7444  25.485  33.111  11.868
40377W        W 7445  25.556  27.048   2.892
40378W        W 7446  36.946  41.425  12.553
40379W        W 7447   2.752  22.689   4.344
40380W        W 7448  23.990   9.366   2.759
40381W        W 7449  26.117  30.494  12.386
40382W        W 7450  30.494  20.678  10.493
40383W        W 7451   3.344   2.452  12.548
40384W        W 7452   2.785  26.695  12.008
40385W        W 7453  32.120  12.668  14.953
40386W        W 7454  27.088  29.030  12.934
40387W        W 7455  15.324  36.403  10.567
40388W        W 7456  23.621  20.711   2.405
40389W        W 7457  23.583  29.049  13.310
40390W        W 7458  26.133  43.982  12.897
40391W        W 7459  38.399  24.027   4.290
40392W        W 7460   4.784  16.157   2.242
40393W        W 7461  41.868  11.660   4.779
40394W        W 7462  22.031  11.279   0.833
40395W        W 7463  12.154  17.154  14.989
40396W        W 7464  41.844  22.657  14.938
40397W        W 7465  44.907  43.914  14.397
40398W        W 7466  11.632  35.447  13.466
40399W        W 7467  41.538  17.571   2.743
40400W        W 7468   7.233  38.534   3.763
40401W        W 7469  12.268   5.273   3.236
40402W        W 7470  14.757  15.608  11.440
40403W        W 7471   6.385  31.121   1.906
40404W        W 7472  13.264  15.585   5.179
40405W        W 7473  41.358   6.413   3.635
40406W        W 7474   7.400  35.379   2.857
40407W        W 7475  38.527  24.496  13.382
40408W        W 7476  30.912  41.897  13.874
40409W        W 7477  19.543  23.028   2.255
40410W        W 7478   0.280  44.875   4.624
40411W        W 7479   1.364  17.657  10.928
40412W        W 7480  19.137   2.862  12.057
40413W        W 7481   3.413  29.078   3.688
40414W        W 7482   1.834  20.055  13.037
40415W        W 7483   6.832  16.740   4.800
40416W        W 7484  10.192  41.299  14.950
40417W        W 7485  28.169  27.554   2.817
40418W        W 7486   9.874  18.573  14.905
40419W        W 7487  27.563  17.086   3.212
40420W        W 7488  38.859  41.466   5.310
40421W        W 7489   7.669  20.260  13.969
40422W        W 7490  33.103  32.472   0.463
40423W        W 7491  12.226   9.224  11.109
40424W        W 7492  36.959  19.535   1.775
40425W        W 7493  37.553  23.532  11.885
40426W        W 7494  37.341  38.532  13.032
40427W        W 7495  31.923  11.714   2.706
40428W        W 7496  43.842  13.769   3.734
40429W        W 7497  14.695  36.855   0.468
40430W        W 7498  13.329  28.028  10.434
40431W        W 7499   0.400  21.542  14.466
40432W        W 7500  44.938  17.122   3.706
40433W        W 7501  26.952  36.368  11.613
40434W        W 7502  29.503  25.979  14.785
40435W        W 7503  32.435  44.481   1.425
40436W        W 7504  26.160  13.343  12.862
40437W        W 7505  31.124  38.011   0.441
40438W        W 7506  41.403  43.494  14.470
40439W        W 7507  10.184  14.171   1.798
40440W        W 7508   6.316  10.853   3.818
40441W        W 7509  42.323  36.077   1.218
40442W        W 7510  10.185  36.005  14.393
40443W        W 7511  42.981  43.380   3.663
40444W        W 7512  42.874   1.305  12.446
40445W        W 7513   6.336  20.723  12.056
40446W        W 7514  43.414  28.477   0.349
40447W        W 7515  30.604   4.366  12.438
40448W        W 7516  37.999  19.050  11.593
40449W        W 7517  40.323   5.215   1.306
40450W        W 7518  44.321   8.675  13.367
40451W        W 7519  26.647  34.432   2.842
40452W        W 7520  37.910   4.897  13.906
40453W        W 7521   6.386  42.895   3.191
40454W        W 7522  32.571  29.670   0.357
40455W        W 7523  43.941   7.833  13.429
40456W        W 7524  21.686   1.857  12.536
40457W        W 7525  19.181  34.432  13.547
40458W        W 7526  27.579  31.632   3.178
40459W        W 7527  24.541  12.235   2.267
40460W        W 7528  12.738  34.962  12.888
40461W        W 7529  30.919  26.062  13.829
40462W        W 7530  23.198  36.365  12.840
40463W        W 7531   3.390  23.725   4.276
40464W        W 7532  43.480  41.374   0.807
40465W        W 7533  36.558  30.976   1.896
40466W        W 7534  10.664  10.643  13.875
40467W        W 7535   5.264  19.066   1.846
40468W        W 7536  16.701  16.104  12.032
40469W        W 7537  44.484   3.730  12.900
40470W        W 7538   2.739  11.777   4.229
40471W        W 7539   9.321  17.642   0.735
40472W        W 7540  35.101   9.343   4.321
40473W        W 7541  14.307  24.690  12.574
40474W        W 7542  23.046  16.721   1.719
40475W        W 7543  13.180  24.181  12.892
40476W        W 7544  20.529  10.845  14.323
40477W        W 7545  12.278  26.147  12.880
40478W        W 7546   8.167  22.701   1.241
40479W        W 7547  10.792  29.605   2.416
40480W        W 7548  35.075   2.823   4.705
40481W        W 7549  21.121  21.595   2.299
40482W        W 7550  16.688  42.873  10.974
40483W        W 7551   7.753  35.855   5.087
40484W        W 7552  40.909  37.872   4.677
40485W        W 7553  36.011  25.566  10.889
40486W        W 7554  37.929  22.238   3.661
40487W        W 7555  12.631  32.138   2.337
40488W        W 7556   3.306   4.823   4.347
40489W        W 7557  22.648  38.550   1.792
40490W        W 7558  12.213  30.118   4.738
40491W        W 7559  11.188  22.088  14.516
40492W        W 7560   9.838  14.697   1.420
40493W        W 7561  25.150  19.075  13.830
40494W        W 7562   1.339  30.085   0.835
40495W        W 7563  40.836  23.214   3.158
40496W        W 7564  37.871  24.641   0.805
40497W        W 7565  33.625  20.133   4.235
40498W        W 7566   0.749  27.459   1.293
40499W        W 7567  15.759  38.921  10.076
40500W        W 7568  14.672  23.507   1.820
40501W        W 7569   0.270  28.178   1.928
40502W        W 7570  35.549  23.646   4.683
40503W        W 7571  18.627  16.286  13.391
40504W        W 7572  31.034  32.116  11.072
40505W        W 7573  20.681  11.865  14.931
40506W        W 7574  29.097  43.472  14.842
40507W        W 7575   0.397  40.820  14.276
40508W        W 7576  15.266  10.665  11.026
40509W        W 7577  22.087   7.406  13.367
40510W        W 7578   3.788  15.737  12.077
40511W        W 7579  27.563  30.586  10.938
40512W        W 7580   5.438  14.774  12.913
40513W        W 7581   4.229  38.826  10.591
40514W        W 7582  15.658  24.015   1.761
40515W        W 7583  41.300  29.507  12.984
40516W        W 7584  18.061  37.952  10.555
40517W        W 7585  31.911   7.685  11.518
40518W        W 7586  12.792  39.946  13.034
40519W        W 7587  38.036   5.860  13.978
40520W        W 7588  22.523  42.490  10.515
40521W        W 7589  12.842  22.037  10.543
40522W        W 7590  27.991   5.406  12.023
40523W        W 7591  42.386  16.789   3.657
40524W        W 7592  28.667  40.305  10.955
40525W        W 7593  14.186  38.447  11.057
40526W        W 7594  28.090  25.642   3.268
40527W        W 7595  19.697  14.314  13.827
40528W        W 7596  33.011  24.065  12.374
40529W        W 7597   0.253  20.590  10.603
40530W        W 7598  23.027  39.504   4.169
40531W        W 7599   3.283  15.611  12.884
40532W        W 7600  37.905  15.294  14.887
40533W        W 7601  32.995  37.989  12.549
40534W        W 7602   4.741  17.140   5.099
40535W        W 7603  15.117  21.234   2.332
40536W        W 7604  18.591  22.584  14.905
40537W        W 7605   6.907  34.407   4.751
40538W        W 7606  36.517  27.165  12.012
40539W        W 7607  14.238  17.781  11.911
40540W        W 7608  40.847  39.488   2.251
40541W        W 7609  10.844   3.453   0.888
40542W        W 7610  35.422  14.817   2.820
40543W        W 7611  28.448  19.646   4.620
40544W        W 7612  22.118   3.416   3.737
40545W        W 7613  30.057  13.136   5.654
40546W        W 7614  28.655  19.754   2.311
40547W        W 7615  14.331   1.445   1.761
40548W        W 7616  42.290  44.324   0.907
40549W        W 7617  18.614  40.371  13.055
40550W        W 7618   1.453  42.480   4.255
40551W        W 7619  42.817  42.953  10.065
40552W        W 7620   3.215  30.066  11.408
40553W        W 7621  16.567  18.164   3.814
40554W        W 7622  10.310   7.179  12.850
40555W        W 7623  19.269  28.509  11.439
40556W        W 7624   0.387  32.492   0.875
40557W        W 7625  32.405  22.545   4.813
40558W        W 7626  18.241  19.724   0.909
40559W        W 7627  44.998  14.252   1.225
40560W        W 7628  34.447  17.789  12.507
40561W        W 7629  12.634  29.137  11.586
40562W        W 7630  34.975  30.556   3.698
40563W        W 7631  31.092  43.814   0.735
40564W        W 7632  15.728  23.168  14.916
40565W        W 7633   4.411  28.595  11.928
40566W        W 7634  15.766  41.808  11.946
40567W        W 7635   8.856  32.628   0.343
40568W        W 7636  28.523   9.874  11.399
40569W        W 7637  36.530  34.112  14.404
40570W        W 7638  15.315  25.086   3.293
40571W        W 7639  39.945  22.699  11.566
40572W        W 7640  24.200  38.482  14.411
40573W        W 7641  36.064  21.754  10.939
40574W        W 7642  42.905  34.074  10.613
40575W        W 7643   3.412   8.200   2.316
40576W        W 7644  12.746  37.353   4.315
40577W        W 7645  37.925  21.723   0.328
40578W        W 7646  37.352   7.862   2.669
40579W        W 7647  41.397  32.492   3.745
40580W        W 7648   4.798   9.685   2.207
40581W        W 7649   8.202  26.668  13.905
40582W        W 7650   8.727   1.959   4.618
40583W        W 7651  34.922  19.206  12.951
40584W        W 7652  14.282  22.518  12.912
40585W        W 7653  26.097   6.750  12.480
40586W        W 7654  10.171  15.115  11.906
40587W        W 7655   1.850  41.452  12.062
40588W        W 7656  25.174  37.572  13.917
40589W        W 7657  24.072  38.892   9.946
40590W        W 7658  16.164   7.838  12.998
40591W        W 7659  40.377  28.532   4.157
40592W        W 7660  19.257  18.546   2.844
40593W        W 7661  43.309  33.109  10.501
40594W        W 7662  40.322  28.527  10.419
40595W        W 7663   5.737   3.432   4.134
40596W        W 7664  28.091   8.727  13.424
40597W        W 7665  24.561  35.058  14.886
40598W        W 7666  18.211  23.164   1.217
40599W        W 7667  10.828  19.690  13.522
40600W        W 7668   3.725  24.506   4.829
40601W        W 7669  29.461  26.482  13.460
40602W        W 7670  12.629  17.283   1.845
40603W        W 7671  27.549   1.904   2.358
40604W        W 7672  42.439  42.923  12.935
40605W        W 7673  26.544  27.031   0.797
40606W        W 7674   9.292  41.948  14.880
40607W        W 7675   2.906  29.570  11.412
40608W        W 7676  44.342  40.377   0.796
40609W        W 7677   9.170   9.302  11.457
40610W        W 7678  19.195  44.886  14.464
40611W        W 7679  32.635  27.460   9.603
40612W        W 7680   6.276  35.440   1.229
40613W        W 7681  34.975  42.423   3.689
40614W        W 7682  10.703   9.388   4.129
40615W        W 7683  44.462  23.604   3.372
40616W        W 7684  20.060  42.932  14.767
40617W        W 7685  30.534  35.989   1.230
40618W        W 7686  11.644  18.655   0.388
40619W        W 7687  19.603  33.563  11.096
40620W        W 7688   1.936  36.399  11.563
40621W        W 7689   9.762  37.895  10.927
40622W        W 7690  39.037   7.891   3.813
40623W        W 7691  39.489   9.182   3.251
40624W        W 7692  29.491   5.381   2.734
40625W        W 7693  33.970  35.365   0.845
40626W        W 7694  15.108  38.472   2.840
40627W        W 7695  21.096   3.844   4.748
40628W        W 7696  30.958  38.530  14.775
40629W        W 7697   3.413  29.148   2.310
40630W        W 7698  18.662  23.688   2.864
40631W        W 7699  25.483  11.658  12.514
40632W        W 7700  10.173  25.168  11.995
40633W        W 7701  21.149  29.048  14.469
40634W        W 7702  33.505   2.263  10.935
40635W        W 7703  33.949  25.057  12.540
40636W        W 7704  17.299   6.916  11.855
40637W        W 7705  25.615  42.290  10.493
40638W        W 7706  32.546  14.223  13.977
40639W        W 7707   7.866  38.400  14.373
40640W        W 7708   1.343  24.038  14.989
40641W        W 7709  12.199  28.620  11.476
40642W        W 7710   7.270  35.995  12.339
40643W        W 7711  28.025  16.166  11.450
40644W        W 7712  37.560  41.343   3.386
40645W        W 7713  24.208  41.304   9.946
40646W        W 7714   3.710  18.090   9.954
40647W        W 7715  23.210  15.276  14.998
40648W        W 7716  28.646   6.267  13.338
40649W        W 7717  29.119  12.694   2.692
40650W        W 7718  40.417  21.054  14.905
40651W        W 7719   4.215   3.270  14.366
40652W        W 7720  41.474  30.550  10.412
40653W        W 7721  10.872  43.336   1.353
40654W        W 7722   9.315  10.793  12.968
40655W        W 7723  29.433  34.484  12.447
40656W        W 7724  18.572  17.606  14.903
40657W        W 7725  23.083   5.875  13.312
40658W        W 7726  21.110  40.470  11.557
40659W        W 7727  25.093   8.180   0.408
40660W        W 7728   2.319  28.947   0.343
40661W        W 7729  30.097  15.783  12.555
40662W        W 7730  36.958  23.648   1.242
40663W        W 7731  36.540  24.138   1.371
40664W        W 7732  14.749  41.923  14.835
40665W        W 7733  19.686  11.188   2.845
40666W        W 7734  28.486  10.180   3.230
40667W        W 7735  21.678  37.364   5.228
40668W        W 7736  22.549  12.798  14.334
40669W        W 7737  31.403  43.879   0.812
40670W        W 7738  19.622  27.102   4.783
40671W        W 7739   8.878  38.398  14.973
40672W        W 7740   4.231  24.226   1.752
40673W        W 7741  21.621  17.273   1.727
40674W        W 7742  32.124  20.618  13.944
40675W        W 7743  40.981  32.560   1.758
40676W        W 7744  17.786  15.724   3.774
40677W        W 7745  17.775  24.542  12.369
40678W        W 7746  37.451  10.368   1.911
40679W        W 7747  41.310  44.844  11.986
40680W        W 7748  11.243  37.957   1.884
40681W        W 7749  43.450  31.985   2.689
40682W        W 7750  38.363  33.477   2.185
40683W        W 7751   5.893  17.643  13.355
40684W        W 7752   7.898   2.734  12.551
40685W        W 7753  35.444  12.850  11.488
40686W        W 7754  12.348  23.076  12.411
40687W        W 7755  18.276  32.520  12.570
40688W        W 7756  17.063  15.122  11.923
40689W        W 7757   9.317  25.966  12.500
40690W        W 7758   2.318  41.788   4.350
40691W        W 7759  20.705  44.756   1.715
40692W        W 7760  31.497   8.777   1.797
40693W        W 7761   5.246  17.783  11.494
40694W        W 7762  28.487  28.146   0.897
40695W        W 7763  10.329  26.688  13.353
40696W        W 7764  30.652  34.973  13.453
40697W        W 7765   9.798  38.838   0.393
40698W        W 7766  39.977   2.265  10.552
40699W        W 7767  23.220  17.676   0.399
40700W        W 7768  43.486  32.622  12.069
40701W        W 7769  33.953  13.729  14.892
40702W        W 7770  15.612   8.254  13.826
40703W        W 7771  44.497  36.504   2.413
40704W        W 7772   4.365  43.924   3.866
40705W        W 7773   3.353  40.053  13.811
40706W        W 7774  16.625  44.320   0.253
40707W        W 7775  25.541   6.245   4.237
40708W        W 7776  34.536   0.351   4.760
40709W        W 7777  44.435   7.377   3.241
40710W        W 7778  16.202  39.861  11.472
40711W        W 7779  31.027  34.406   0.911
40712W        W 7780  20.138   9.872  14.416
40713W        W 7781  16.806  20.657  11.513
40714W        W 7782  42.018   3.922   1.280
40715W        W 7783   7.240  26.007   3.155
40716W        W 7784   2.313   4.826   2.314
40717W        W 7785  25.975  18.284  11.408
40718W        W 7786   3.767  28.467  14.503
40719W        W 7787  18.100   6.223   4.671
40720W        W 7788  27.023   3.450  14.877
40721W        W 7789   5.760  43.463   3.755
40722W        W 7790   6.399  16.124  11.022
40723W        W 7791  21.606  38.398  14.433
40724W        W 7792  10.368  37.023  13.434
40725W        W 7793  16.771   4.268  12.090
40726W        W 7794  38.880  27.021  14.362
40727W        W 7795   2.787  36.419  13.959
40728W        W 7796   0.344  24.709  14.415
40729W        W 7797  15.657   7.841   0.860
40730W        W 7798   6.391  35.379  14.969
40731W        W 7799   6.265  12.696   1.826
40732W        W 7800  13.124  12.731   1.303
40733W        W 7801   2.766  28.166   3.728
40734W        W 7802  18.078  32.118  12.358
40735W        W 7803  29.927   2.778   2.272
40736W        W 7804  30.436  11.662  14.941
40737W        W 7805  41.915   3.433   1.807
40738W        W 7806  14.257  31.421  12.906
40739W        W 7807  19.065  24.034  11.032
40740W        W 7808  22.572  24.586  13.003
40741W        W 7809  23.063  32.602   1.812
40742W        W 7810  20.116  24.696  11.560
40743W        W 7811  20.641  39.450  14.954
40744W        W 7812   3.832  42.788   3.717
40745W        W 7813  13.682  42.010  11.927
40746W        W 7814   3.742   8.831   0.281
40747W        W 7815  37.072  34.563   3.758
40748W        W 7816  30.952  33.104   3.716
40749W        W 7817  37.955  24.162   2.699
40750W        W 7818  29.541  15.158   1.769
40751W        W 7819  42.830  41.975  11.101
40752W        W 7820  17.798  22.640   3.815
40753W        W 7821  38.532  12.242   2.756
40754W        W 7822  44.946   4.409  12.579
40755W        W 7823   9.238  25.094  11.427
40756W        W 7824  35.091  13.242  12.980
40757W        W 7825  43.922  37.086   0.443
40758W        W 7826  10.840   1.359   4.300
40759W        W 7827  20.585  18.114   3.195
40760W        W 7828   4.788   3.362   5.198
40761W        W 7829  35.021  28.492  12.501
40762W        W 7830  39.940  24.657  11.013
40763W        W 7831   7.270   8.395   2.702
40764W        W 7832  17.097  33.070   0.845
40765W        W 7833  29.614  36.359   4.339
40766W        W 7834  33.436  24.718   1.333
40767W        W 7835  18.236  35.375  13.378
40768W        W 7836  18.158  37.955  13.990
40769W        W 7837   2.782  14.734  12.372
40770W        W 7838   2.364  13.658  10.495
40771W        W 7839  19.594   4.865  11.886
40772W        W 7840  28.938  34.948   3.181
40773W        W 7841  23.593   9.802  14.414
40774W        W 7842  36.575  31.962   3.282
40775W        W 7843  41.320   7.887   1.234
40776W        W 7844  20.145  29.070   3.264
40777W        W 7845  18.585  10.314  13.445
40778W        W 7846  22.065  21.690   2.724
40779W        W 7847  10.343  26.671   5.159
40780W        W 7848   2.343  35.470  12.537
40781W        W 7849  20.203  36.406   4.621
40782W        W 7850  31.006   8.784  13.440
40783W        W 7851  24.193  23.156  10.442
40784W        W 7852  18.723  24.156   4.775
40785W        W 7853  15.680  43.355  10.408
40786W        W 7854  19.590   6.716  12.962
40787W        W 7855   8.247  40.852   1.444
40788W        W 7856  17.162  38.362   2.320
40789W        W 7857  44.822  32.008   4.300
40790W        W 7858  23.554  12.183  12.398
40791W        W 7859   7.669  19.541   0.468
40792W        W 7860   7.353  40.546  11.889
40793W        W 7861  13.228  28.544   4.126
40794W        W 7862  26.018  19.046   0.396
40795W        W 7863  42.375  25.007  13.030
40796W        W 7864  31.469  32.559  12.450
40797W        W 7865   0.329   3.383   0.357
40798W        W 7866  32.637   7.746  14.833
40799W        W 7867  33.915  44.431   3.179
40800W        W 7868   3.368  20.150   0.426
40801W        W 7869  44.775  28.066  11.969
40802W        W 7870  28.586  21.634   3.314
40803W        W 7871  31.490   6.873  13.536
40804W        W 7872  11.770   7.408  12.874
40805W        W 7873  40.394  14.750  11.127
40806W        W 7874   6.303  38.556  11.915
40807W        W 7875  40.334  22.648  14.862
40808W        W 7876  26.569  23.697   0.841
40809W        W 7877  39.867  20.685   0.386
40810W        W 7878  37.361  35.076   4.734
40811W        W 7879  15.222  42.981  11.393
40812W        W 7880  33.433   9.169  12.513
40813W        W 7881  30.014  44.840  11.591
40814W        W 7882   2.443  44.930  12.954
40815W        W 7883  36.547  39.878  14.280
40816W        W 7884  41.960  34.558   4.759
40817W        W 7885  44.957  36.438  14.297
40818W        W 7886  28.037  38.484   3.812
40819W        W 7887  39.954  20.534  12.575
40820W        W 7888  37.034  16.242   0.746
40821W        W 7889  34.478  13.715  13.482
40822W        W 7890   6.686  37.845  12.846
40823W        W 7891  44.911  30.551  10.606
40824W        W 7892  21.163  16.098  10.491
40825W        W 7893  26.531   3.774  14.955
40826W        W 7894  33.468  20.744  14.922
40827W        W 7895  19.588  40.517  11.949
40828W        W 7896  20.040  25.146  13.490
40829W        W 7897  34.945  25.600   1.360
40830W        W 7898  42.783  28.469   3.361
40831W        W 7899  15.617  41.910  10.905
40832W        W 7900  28.650  44.002  12.022
40833W        W 7901   6.862  22.563   4.822
40834W        W 7902  26.657  23.205  10.551
40835W        W 7903  40.340  39.421   0.471
40836W        W 7904  43.274  40.318  11.519
40837W        W 7905  43.382  19.086  11.891
40838W        W 7906  19.118  20.184   2.681
40839W        W 7907  20.177  30.042  12.001
40840W        W 7908  28.964   3.244   3.317
40841W        W 7909  26.593  21.575   0.897
40842W        W 7910  14.210  36.395  14.378
40843W        W 7911   1.464  31.038   1.790
40844W        W 7912  15.289  31.457  13.841
40845W        W 7913  19.083  19.777   4.157
40846W        W 7914  24.722  29.461  12.442
40847W        W 7915  28.933  41.941  11.063
40848W        W 7916  13.780  41.484   2.314
40849W        W 7917  17.171  37.360   4.755
40850W        W 7918   8.791   2.881   0.469
40851W        W 7919  24.125  33.420   9.967
40852W        W 7920  25.015  13.350   4.283
40853W        W 7921   0.487  42.486   0.403
40854W        W 7922  31.578  28.463  10.477
40855W        W 7923  23.620  41.972   2.292
40856W        W 7924  43.792   5.912   4.597
40857W        W 7925  40.983  41.521  11.969
40858W        W 7926  42.936  43.437  11.374
40859W        W 7927  40.995  25.486   2.401
40860W        W 7928  24.536   5.745   0.832
40861W        W 7929  14.334   2.422  11.568
40862W        W 7930   0.874  37.048  14.343
40863W        W 7931  27.051  37.969  10.559
40864W        W 7932  16.257  30.619  10.436
40865W        W 7933  36.864   2.846   4.600
40866W        W 7934  39.864  40.901  13.845
40867W        W 7935  34.955  27.969   0.371
40868W        W 7936  32.549  30.912   2.890
40869W        W 7937  24.547  26.457   4.675
40870W        W 7938   7.781  41.796   1.421
40871W        W 7939   3.931  42.987   2.691
40872W        W 7940   3.909   7.840  10.942
40873W        W 7941  33.935  10.313  12.495
40874W        W 7942  16.263  17.751  13.990
40875W        W 7943  29.952   1.448  11.067
40876W        W 7944  37.979  25.213  10.582
40877W        W 7945  42.921  15.161   0.751
40878W        W 7946  43.775  20.564  14.485
40879W        W 7947  20.229  43.008   2.197
40880W        W 7948  30.109  11.132   1.255
40881W        W 7949   8.216  32.431   2.209
40882W        W 7950   4.790  12.141   1.408
40883W        W 7951  11.856  31.586   3.639
40884W        W 7952   7.826  39.442  13.468
40885W        W 7953  32.598   7.250   4.268
40886W        W 7954  34.547  22.083   1.330
40887W        W 7955  11.303  15.617  12.027
40888W        W 7956  41.964  12.333  13.828
40889W        W 7957  24.688   5.264   2.773
40890W        W 7958  22.537  11.280  12.516
40891W        W 7959  13.247   0.812  11.999
40892W        W 7960  40.355   8.285   4.765
40893W        W 7961   4.394  39.324  11.106
40894W        W 7962  44.337  16.264  14.326
40895W        W 7963  20.176  28.679  10.551
40896W        W 7964   2.754  20.649   2.732
40897W        W 7965  42.817   0.931  11.610
40898W        W 7966  21.709  34.873   3.785
40899W        W 7967  41.399  30.634   0.836
40900W        W 7968  34.940  36.059  14.462
40901W        W 7969  15.329  28.957  14.456
40902W        W 7970  11.214  25.195  13.465
40903W        W 7971   4.752   6.776  12.998
40904W        W 7972  31.932  44.985   4.708
40905W        W 7973  13.652  23.215  14.404
40906W        W 7974   6.374  33.554   1.793
40907W        W 7975   2.266  13.106  13.309
40908W        W 7976   3.267  31.558  11.059
40909W        W 7977   1.946  15.282   4.311
40910W        W 7978  38.410   6.220   1.284
40911W        W 7979  40.421   9.239  11.541
40912W        W 7980  30.482  43.356  12.444
40913W        W 7981  18.069   0.352  13.456
40914W        W 7982  33.921   9.793   2.853
40915W        W 7983  20.101  29.997   5.155
40916W        W 7984  15.792  18.247  14.863
40917W        W 7985  29.161  10.324   4.312
40918W        W 7986  17.781   2.310  11.092
40919W        W 7987  16.794  33.502   0.479
40920W        W 7988  41.846  10.303  11.068
40921W        W 7989  24.585  10.244   4.722
40922W        W 7990  26.953  12.613   1.729
40923W        W 7991   3.461  27.151   2.357
40924W        W 7992  11.200   6.916   3.312
40925W        W 7993  19.641  35.472  14.459
40926W        W 7994   2.422  24.996   3.219
40927W        W 7995  10.347  35.954   4.754
40928W        W 7996  42.443   1.776   0.957
40929W        W 7997  24.092  17.606  10.978
40930W        W 7998  40.962  14.108  12.428
40931W        W 7999  34.039  15.730   0.965
40932W        W 8000  42.299  16.075   4.210
40933W        W 8001  29.153  32.017  13.392
40934W        W 8002  11.266  17.302  10.933
40935W        W 8003  39.054  44.321   3.319
40936W        W 8004   4.388  20.106   0.465
40937W        W 8005  16.158   4.883   3.301
40938W        W 8006  23.631   2.838   1.773
40939W        W 8007  37.077  19.556  12.049
40940W        W 8008  11.753  26.514   3.688
40941W        W 8009   6.863  27.118  11.077
40942W        W 8010  16.807  32.068   0.816
40943W        W 8011  14.257   8.310  14.398
40944W        W 8012   0.764  43.976  11.598
40945W        W 8013  40.549  19.105  13.814
40946W        W 8014  15.293  24.595   2.768
40947W        W 8015  26.108   5.262   1.266
40948W        W 8016  39.552  42.913  12.055
40949W        W 8017   0.442  24.598   1.391
40950W        W 8018  42.415  34.924   4.326
40951W        W 8019  35.956  10.791   1.435
40952W        W 8020  13.132   7.857  12.839
40953W        W 8021  16.725  34.880   1.226
40954W        W 8022   6.277   6.803   1.923
40955W        W 8023  21.063  26.613   2.857
40956W        W 8024  27.139  20.112   0.275
40957W        W 8025  39.453  17.704   3.382
40958W        W 8026  26.490  14.782  11.926
40959W        W 8027  35.590  39.051   1.303
40960W        W 8028   5.862  37.844  11.921
40961W        W 8029   4.350  43.423  14.358
40962W        W 8030  25.108   6.837  12.883
40963W        W 8031  35.073  31.995  14.991
40964W        W 8032  27.025  16.215   0.958
40965W        W 8033  22.227   9.235  13.876
40966W        W 8034  11.367  17.750   1.777
40967W        W 8035  23.109  34.444  11.013
40968W        W 8036  12.681  20.221   4.256
40969W        W 8037  11.258  18.750   4.166
40970W        W 8038   3.857   0.337   0.865
40971W        W 8039  18.652  25.563  11.068
40972W        W 8040  15.737  33.496  13.520
40973W        W 8041   2.331   9.839   0.761
40974W        W 8042   2.907  19.215   4.338
40975W        W 8043  10.294  23.667  14.931
40976W        W 8044  15.259  22.665  13.849
40977W        W 8045  24.160  18.583  14.488
40978W        W 8046   0.857  10.728   3.358
40979W        W 8047  17.555  27.033   4.637
40980W        W 8048  11.773  26.199  13.851
40981W        W 8049  12.643   2.240   3.688
40982W        W 8050  44.807  21.749   4.346
40983W        W 8051  30.536  15.154  13.939
40984W        W 8052  43.344  15.811  14.827
40985W        W 8053  37.416   8.326   1.410
40986W        W 8054   9.196  43.766   3.356
40987W        W 8055  31.014   1.437  11.389
40988W        W 8056  19.686  10.809   4.306
40989W        W 8057   9.762  38.404  11.953
40990W        W 8058  35.400  23.652  13.909
40991W        W 8059   9.239   1.304  11.602
40992W        W 8060  19.226  38.543   2.310
40993W        W 8061  14.311  38.845  11.414
40994W        W 8062   6.319  14.724   0.470
40995W        W 8063  42.811  31.951   1.871
40996W        W 8064  38.997  29.959  12.367
40997W        W 8065  31.631  17.584   4.717
40998W        W 8066  16.577   3.843   1.234
40999W        W 8067  41.524  18.117  13.517
41000W        W 8068  41.884  12.804   0.787
41001W        W 8069  44.873   8.706  13.390
41002W        W 8070  27.993   0.333  10.604
41003W        W 8071  26.701   9.682  14.790
41004W        W 8072  11.846   9.374  13.007
41005W        W 8073  32.431   4.835  13.830
41006W        W 8074   3.907   5.928  14.316
41007W        W 8075  30.648   4.260  14.975
41008W        W 8076  16.762  38.033  13.901
41009W        W 8077  18.562  14.624  14.406
41010W        W 8078  14.247  43.780  12.921
41011W        W 8079  19.201  39.339  13.527
41012W        W 8080  41.392  11.815   3.631
41013W        W 8081  36.356  19.635  12.534
41014W        W 8082  34.117   5.334  13.391
41015W        W 8083   3.355  44.332  11.519
41016W        W 8084  33.021  22.057  13.015
41017W        W 8085  43.990   9.211  14.293
41018W        W 8086   1.749  16.295  12.951
41019W        W 8087  30.910  22.109   1.789
41020W        W 8088  17.158  12.326  11.863
41021W        W 8089   6.907  36.032   3.803
41022W        W 8090  23.191  25.482  13.007
41023W        W 8091   3.932  20.099  13.436
41024W        W 8092  25.471  11.208  11.902
41025W        W 8093  31.575  25.508   2.736
41026W        W 8094   1.252  26.169   0.304
41027W        W 8095  16.619   0.868  12.532
41028W        W 8096   6.189  17.736   1.792
41029W        W 8097  10.342  27.513  13.484
41030W        W 8098   4.441  17.169  12.483
41031W        W 8099  37.994  36.416  14.381
41032W        W 8100  40.418   0.768  13.516
41033W        W 8101  17.773  22.109  11.589
41034W        W 8102  13.813   1.251   2.792
41035W        W 8103  41.866  40.460  13.988
41036W        W 8104  33.107  36.863   0.282
41037W        W 8105  10.298  38.995  13.021
41038W        W 8106  14.273   5.418   0.258
41039W        W 8107  30.623  33.423  14.377
41040W        W 8108  29.153  11.346  14.385
41041W        W 8109  41.954   5.328  13.352
41042W        W 8110  19.121   5.741  10.544
41043W        W 8111   6.369  29.448  12.900
41044W        W 8112   2.438   9.675   2.889
41045W        W 8113  40.937  13.240  13.964
41046W        W 8114  41.410  27.600   2.844
41047W        W 8115  41.866  37.569  14.434
41048W        W 8116  33.447  21.521   1.322
41049W        W 8117  24.556  42.345   2.276
41050W        W 8118   1.355  16.208  11.577
41051W        W 8119  38.063  44.312  14.984
41052W        W 8120   2.913  28.140  11.475
41053W        W 8121   9.294  40.506  12.055
41054W        W 8122  10.215   0.914   2.795
41055W        W 8123  44.880  21.261  10.520
41056W        W 8124  18.172  43.344  10.497
41057W        W 8125   9.798  33.988  12.937
41058W        W 8126  42.408  32.452  13.451
41059W        W 8127  26.170  26.458   1.825
41060W        W 8128  35.982  15.160  14.955
41061W        W 8129   7.300  32.392   2.698
41062W        W 8130  30.628  40.347   1.389
41063W        W 8131  42.922  18.766   0.868
41064W        W 8132  25.163  27.172   0.891
41065W        W 8133  44.497   6.346  12.063
41066W        W 8134  42.019  38.915  14.289
41067W        W 8135  16.086  10.853   3.157
41068W        W 8136  36.407  38.368  11.061
41069W        W 8137   7.818  26.020  11.434
41070W        W 8138  14.277  38.877  12.081
41071W        W 8139   0.803  24.166  10.995
41072W        W 8140  21.533  27.071  11.951
41073W        W 8141   2.794  37.941   4.279
41074W        W 8142  18.216  17.185   3.787
41075W        W 8143  11.205  13.754  13.457
41076W        W 8144  42.843  41.944   5.173
41077W        W 8145  37.548   7.385  10.891
41078W        W 8146  22.522  12.838  10.986
41079W        W 8147  39.377   7.683  12.923
41080W        W 8148  23.039  33.522  14.313
41081W        W 8149  43.803   5.337   4.641
41082W        W 8150  34.077  32.432   4.290
41083W        W 8151  33.123   4.216   3.634
41084W        W 8152  23.223  16.155  13.364
41085W        W 8153  41.917   6.271   0.818
41086W        W 8154  20.755  26.992   1.801
41087W        W 8155  10.197  31.034  14.783
41088W        W 8156  14.820  11.851   9.996
41089W        W 8157  22.671   2.793   4.725
41090W        W 8158  28.614  17.229   1.753
41091W        W 8159  33.883  43.374   2.799
41092W        W 8160  23.536  29.482   3.156
41093W        W 8161  29.012   2.231   3.150
41094W        W 8162  29.070  20.078   3.816
41095W        W 8163  31.424   2.947  13.367
41096W        W 8164  31.622   4.382   1.719
41097W        W 8165  32.491  13.636   2.881
41098W        W 8166  17.683  15.325  10.957
41099W        W 8167  27.466  41.433   4.249
41100W        W 8168  19.559  17.280   1.290
41101W        W 8169  40.896  44.849   2.382
41102W        W 8170  21.146  26.074  10.467
41103W        W 8171  42.000  19.189   1.449
41104W        W 8172  23.688  37.445  13.962
41105W        W 8173  38.972  31.472   1.886
41106W        W 8174  43.885  18.665   1.883
41107W        W 8175   2.814  10.139   4.180
41108W        W 8176  44.270   5.700  13.372
41109W        W 8177  25.536  18.133   3.289
41110W        W 8178  27.005  10.727   4.150
41111W        W 8179  42.908  10.799  14.469
41112W        W 8180  42.525   9.810   2.695
41113W        W 8181  16.727   3.449   0.743
41114W        W 8182  39.550  40.939   3.729
41115W        W 8183  40.050  22.510  12.392
41116W        W 8184   2.804  23.697  14.772
41117W        W 8185  36.401  14.247   1.892
41118W        W 8186  42.409   1.376   0.747
41119W        W 8187  27.581  35.923  11.875
41120W        W 8188   7.713   1.394   3.813
41121W        W 8189  33.947  14.602  11.081
41122W        W 8190  30.562  33.091  12.996
41123W        W 8191  42.500  12.634  14.287
41124W        W 8192  12.633  44.845   9.487
41125W        W 8193  17.667  26.009   0.432
41126W        W 8194   1.833  27.522   3.703
41127W        W 8195  32.999  21.133  13.905
41128W        W 8196   2.296   8.778  13.307
41129W        W 8197  12.633  41.352  11.936
41130W        W 8198  24.677  24.018  11.963
41131W        W 8199  30.554  26.983   3.664
41132W        W 8200  15.600  12.781   2.874
41133W        W 8201  11.172   3.431   4.786
41134W        W 8202  33.538  26.956   0.458
41135W        W 8203   3.796   5.733   4.827
41136W        W 8204  25.140  38.059  11.487
41137W        W 8205  44.968   4.304   3.333
41138W        W 8206  44.343   9.804   3.819
41139W        W 8207  15.717   4.405  10.548
41140W        W 8208   0.250  33.052   4.326
41141W        W 8209  28.531  23.644   1.341
41142W        W 8210  24.595  23.700   0.941
41143W        W 8211  14.265   5.249   2.790
41144W        W 8212  15.087  31.554   4.167
41145W        W 8213  35.007  36.477   4.751
41146W        W 8214  44.487  22.103   0.266
41147W        W 8215  44.930  33.972   3.653
41148W        W 8216  29.103  11.711  11.860
41149W        W 8217  41.428   5.833   4.693
41150W        W 8218  26.001  38.945  14.304
41151W        W 8219  36.364  43.996  11.554
41152W        W 8220   5.283  42.433  14.498
41153W        W 8221  37.958   2.911  12.085
41154W        W 8222  26.590  39.028  13.539
41155W        W 8223  18.608  29.423  10.964
41156W        W 8224  21.207  41.440  12.996
41157W        W 8225  28.963  22.245   1.707
41158W        W 8226   0.976  35.548  11.498
41159W        W 8227   7.885   7.675  12.401
41160W        W 8228  27.594  29.535   3.736
41161W        W 8229  43.506  44.947   2.668
41162W        W 8230   0.329  35.586   4.749
41163W        W 8231  31.455  22.122   4.150
41164W        W 8232  17.780   9.808   5.147
41165W        W 8233  44.858   2.729   0.413
41166W        W 8234  36.399  19.161   4.195
41167W        W 8235  44.396  18.219   2.797
41168W        W 8236  16.799  20.053  14.470
41169W        W 8237   1.933  42.809   3.675
41170W        W 8238  28.046   1.349  10.131
41171W        W 8239  36.567  35.424  10.967
41172W        W 8240  21.208   9.825   4.151
41173W        W 8241  31.453  14.833   2.768
41174W        W 8242  16.157  11.767  14.969
41175W        W 8243   2.465  28.578   3.337
41176W        W 8244  29.136   0.270  14.759
41177W        W 8245  10.369  31.585  11.880
41178W        W 8246  12.626  25.677   0.904
41179W        W 8247  22.611  28.153  13.332
41180W        W 8248  25.047  14.750   3.249
41181W        W 8249  43.800   5.404   1.356
41182W        W 8250   9.174   0.911   0.259
41183W        W 8251  12.211   6.802  13.412
41184W        W 8252  32.060  44.940   2.205
41185W        W 8253   7.747  14.288   1.721
41186W        W 8254   4.273  27.498  13.925
41187W        W 8255  11.192  21.628   2.381
41188W        W 8256  19.058   8.660   4.752
41189W        W 8257  25.164  21.199   1.832
41190W        W 8258  28.541  18.676   2.353
41191W        W 8259  33.047   9.245   3.177
41192W        W 8260  44.348   9.250   2.416
41193W        W 8261  44.467  40.909   2.203
41194W        W 8262  33.885   3.885   2.833
41195W        W 8263  38.971  22.511   5.263
41196W        W 8264  10.845   4.342  14.931
41197W        W 8265  20.570  10.743   3.275
41198W        W 8266   9.741  12.312  13.792
41199W        W 8267  25.048  17.206   0.258
41200W        W 8268  43.503   1.786   2.725
41201W        W 8269  36.490  10.309  12.508
41202W        W 8270  38.501  18.095   3.188
41203W        W 8271  39.953  34.419  14.397
41204W        W 8272  30.087  36.576   4.761
41205W        W 8273   7.415  25.128   3.796
41206W        W 8274  35.877   5.837   4.293
41207W        W 8275  43.312  10.684  13.027
41208W        W 8276  28.618  16.592   3.279
41209W        W 8277   7.736  42.944   3.179
41210W        W 8278  21.539  13.188   0.812
41211W        W 8279  14.798  36.989  12.881
41212W        W 8280  26.615  28.003   2.369
41213W        W 8281   1.732   5.838   0.343
41214W        W 8282  18.670  12.254  11.119
41215W        W 8283  33.396  24.710   3.766
41216W        W 8284  35.439  15.679  11.430
41217W        W 8285  39.939  36.085  12.883
41218W        W 8286  42.286  38.418   1.716
41219W        W 8287  35.014  42.423   4.259
41220W        W 8288   6.187  36.574   4.307
41221W        W 8289   5.798  41.878   4.267
41222W        W 8290  32.606  22.173   2.240
41223W        W 8291  34.561  40.342  14.396
41224W        W 8292  28.559  33.107   2.883
41225W        W 8293  11.339  19.051  13.383
41226W        W 8294  24.145  29.510  14.461
41227W        W 8295   8.297  21.620  14.488
41228W        W 8296  21.523  29.087  12.516
41229W        W 8297   7.804  11.135  14.294
41230W        W 8298   9.673  42.289   0.757
41231W        W 8299  12.800  19.150  13.336
41232W        W 8300  18.724   0.804   1.862
41233W        W 8301  26.594  30.919   2.880
41234W        W 8302  23.064  20.570   3.797
41235W        W 8303  15.660  15.735  14.486
41236W        W 8304   5.266   5.871  12.090
41237W        W 8305  33.087   1.854   3.744
41238W        W 8306  19.701  14.631  14.008
41239W        W 8307  22.517  39.055  10.045
41240W        W 8308   0.752  13.633  10.957
41241W        W 8309  27.584  41.513  12.368
41242W        W 8310  10.328  25.219  12.962
41243W        W 8311   6.210  37.458  12.899
41244W        W 8312   5.783  17.564  11.007
41245W        W 8313  22.132   0.843  12.980
41246W        W 8314  30.972  38.856   1.759
41247W        W 8315  22.695  35.872   4.343
41248W        W 8316  30.640  31.921  13.939
41249W        W 8317   0.786   6.266   1.809
41250W        W 8318  22.656   2.883  13.043
41251W        W 8319  33.916  43.465  13.471
41252W        W 8320  42.447  14.657   0.789
41253W        W 8321  16.263  11.817  13.935
41254W        W 8322  10.356   6.706  13.813
41255W        W 8323  18.674  26.533  12.378
41256W        W 8324  24.544   5.835  13.982
41257W        W 8325  31.578  40.835  10.442
41258W        W 8326  16.316   7.369  11.569
41259W        W 8327   6.294  43.794  14.951
41260W        W 8328  33.959  25.072   1.222
41261W        W 8329  18.761   8.337  14.897
41262W        W 8330  23.493  13.817  14.365
41263W        W 8331   9.821  19.138  10.543
41264W        W 8332  21.087  32.630  11.431
41265W        W 8333   4.215  22.581  10.614
41266W        W 8334  17.070  41.307   1.733
41267W        W 8335  39.976  21.263  12.941
41268W        W 8336   2.753  34.615   3.670
41269W        W 8337  30.021  37.469   4.655
41270W        W 8338   0.979  15.615  10.604
41271W        W 8339  28.620  28.079   4.292
41272W        W 8340   2.359  32.006   3.206
41273W        W 8341  23.626  26.567  11.073
41274W        W 8342  23.498  38.845  14.280
41275W        W 8343  37.924  44.790  12.062
41276W        W 8344  32.441  43.901   1.306
41277W        W 8345  22.653  36.416   4.293
41278W        W 8346  19.141  33.976  10.997
41279W        W 8347  22.696  15.616  13.829
41280W        W 8348  22.082  35.545   0.466
41281W        W 8349   9.286   9.881  11.905
41282W        W 8350  39.979  23.028   0.350
41283W        W 8351   3.829  44.892   0.316
41284W        W 8352  21.242  21.121  11.388
41285W        W 8353  33.980   1.867   2.325
41286W        W 8354  43.893  16.281  14.871
41287W        W 8355  39.412  39.812   1.815
41288W        W 8356  38.047  21.203  13.861
41289W        W 8357   5.372  35.056   1.436
41290W        W 8358  43.397   4.207   1.305
41291W        W 8359  27.571  19.240   2.766
41292W        W 8360  35.037  25.126   2.864
41293W        W 8361   2.368   0.761   0.464
41294W        W 8362  41.322  16.122   2.724
41295W        W 8363  36.870  13.157   2.392
41296W        W 8364  30.499  12.785  10.097
41297W        W 8365  22.044  24.174   2.702
41298W        W 8366  13.161  37.572  12.456
41299W        W 8367  41.316  44.343   2.290
41300W        W 8368  39.508   2.901   0.343
41301W        W 8369  20.232  21.171   3.149
41302W        W 8370  32.612  43.820  12.977
41303W        W 8371  33.944   3.327   2.203
41304W        W 8372  13.729   2.232   2.802
41305W        W 8373   9.394  22.649   3.646
41306W        W 8374   5.857  14.687  10.449
41307W        W 8375  35.888   3.227  12.419
41308W        W 8376   4.761  17.757   3.828
41309W        W 8377  43.474  30.428   1.353
41310W        W 8378  42.512  13.339   0.821
41311W        W 8379   2.293  21.254  11.962
41312W        W 8380   8.257  30.125  14.763
41313W        W 8381   9.217  15.174  11.448
41314W        W 8382  19.250   0.260  11.875
41315W        W 8383  43.802  44.905  10.917
41316W        W 8384  30.070  38.437   4.237
41317W        W 8385   0.383   3.953  10.565
41318W        W 8386  36.950  37.983   0.441
41319W        W 8387  27.682   8.341  11.015
41320W        W 8388  44.785  43.310   0.384
41321W        W 8389   4.800  12.355  11.537
41322W        W 8390   3.345  31.936  11.099
41323W        W 8391  29.637   0.380  10.559
41324W        W 8392  37.001  17.760   1.296
41325W        W 8393  42.448  21.140   0.936
41326W        W 8394  26.107  15.667   0.907
41327W        W 8395   5.800  39.356   4.244
41328W        W 8396  29.589  31.067   2.296
41329W        W 8397  38.449  15.685  14.004
41330W        W 8398   5.351   9.385  13.338
41331W        W 8399  14.622  15.234   0.952
41332W        W 8400  12.230  37.379  13.333
41333W        W 8401  36.447   9.778  11.084
41334W        W 8402   8.276  19.619   4.308
41335W        W 8403  29.008   8.250  11.064
41336W        W 8404  38.959  33.964   3.841
41337W        W 8405   5.742  25.076   0.329
41338W        W 8406  31.016   8.319  13.404
41339W        W 8407  40.523  28.010   0.378
41340W        W 8408   9.333  40.819  11.024
41341W        W 8409  31.088   7.220  14.383
41342W        W 8410  11.246  19.065   3.236
41343W        W 8411  27.069  12.281  13.992
41344W        W 8412  35.532  23.120  11.492
41345W        W 8413  14.193  31.927   4.162
41346W        W 8414  25.679  33.527  10.124
41347W        W 8415  13.342  37.513  13.442
41348W        W 8416  42.319  11.713   0.840
41349W        W 8417  23.139  30.509  14.760
41350W        W 8418  22.688  15.102   1.931
41351W        W 8419  23.617  35.516  12.934
41352W        W 8420  37.429   3.298   3.232
41353W        W 8421   4.851  16.593  12.948
41354W        W 8422  44.418  39.056  13.527
41355W        W 8423  39.833  11.362  12.035
41356W        W 8424  16.633   8.222   3.329
41357W        W 8425  18.131  26.667   3.349
41358W        W 8426  14.323  28.479  10.950
41359W        W 8427   1.803   6.766   0.808
41360W        W 8428  25.055   3.853   4.655
41361W        W 8429  30.079  27.065   2.885
41362W        W 8430   0.827  35.401   5.094
41363W        W 8431  20.713  38.568   5.220
41364W        W 8432  39.354  29.083   2.691
41365W        W 8433  30.989  20.595  11.601
41366W        W 8434  35.951  29.024  11.949
41367W        W 8435  37.523  12.625   4.209
41368W        W 8436  29.468   3.404  10.462
41369W        W 8437  24.534   7.242   3.343
41370W        W 8438  25.686  27.995  14.508
41371W        W 8439  17.206  31.635  13.935
41372W        W 8440   9.837  16.287  12.451
41373W        W 8441  15.174   2.454  11.881
41374W        W 8442  38.441  14.672  11.015
41375W        W 8443  32.449  41.457  14.318
41376W        W 8444  17.248  44.968   3.711
41377W        W 8445  19.136  16.755   0.413
41378W        W 8446  35.955  23.601   3.725
41379W        W 8447   0.279  40.850  14.935
41380W        W 8448  32.916  21.545  10.420
41381W        W 8449  28.153  33.123  12.860
41382W        W 8450  37.412   8.696  13.973
41383W        W 8451  37.496  35.574   0.788
41384W        W 8452  44.344  40.971   3.714
41385W        W 8453  16.307  43.479  14.326
41386W        W 8454  38.036  26.068  14.405
41387W        W 8455   3.951  42.981  13.058
41388W        W 8456   4.245  36.990   0.418
41389W        W 8457  14.812  20.223   1.787
41390W        W 8458  41.831  36.355  13.528
41391W        W 8459  20.669  14.187   1.310
41392W        W 8460   3.801   9.780   4.202
41393W        W 8461  33.560   2.805  11.592
41394W        W 8462  36.584  11.365   4.292
41395W        W 8463  36.457  40.336  14.979
41396W        W 8464  33.428  41.372   3.636
41397W        W 8465   7.367  39.481   0.473
41398W        W 8466  42.948  33.017  13.378
41399W        W 8467   7.739  26.634   2.859
41400W        W 8468  38.355  13.217  13.931
41401W        W 8469  32.133  38.075   4.282
41402W        W 8470   9.792  17.653   1.899
41403W        W 8471  25.682  22.668  12.543
41404W        W 8472  22.179  28.460  14.381
41405W        W 8473  10.832  15.325   0.735
41406W        W 8474   3.233  32.486  10.458
41407W        W 8475   7.778  19.200   1.756
41408W        W 8476   2.472  12.648  11.379
41409W        W 8477  20.752   9.326  12.916
41410W        W 8478  44.993   5.844  13.526
41411W        W 8479  14.782   7.173   4.189
41412W        W 8480   3.928  29.593  14.478
41413W        W 8481  22.139   8.343   4.824
41414W        W 8482  18.661  19.253   3.702
41415W        W 8483  18.718  12.200  14.884
41416W        W 8484  42.431  40.474  13.846
41417W        W 8485  35.858  10.791   3.328
41418W        W 8486  30.980  23.041  13.816
41419W        W 8487  39.373  38.845   3.168
41420W        W 8488   3.822  31.940  12.871
41421W        W 8489  44.002  10.831   2.290
41422W        W 8490  32.136  37.569  10.016
41423W        W 8491  28.936  13.336  13.028
41424W        W 8492   1.315  16.787  11.128
41425W        W 8493  30.935  26.497   1.744
41426W        W 8494  22.015  26.025  11.963
41427W        W 8495  10.857   0.476  10.645
41428W        W 8496  38.569   3.414   1.304
41429W        W 8497  12.168  24.530  14.953
41430W        W 8498  43.315  24.107  12.353
41431W        W 8499  11.195   9.215  10.990
41432W        W 8500   4.214  30.520  14.981
41433W        W 8501   6.334   6.417   1.883
41434W        W 8502  36.458  31.539  13.856
41435W        W 8503   4.207  23.729   3.366
41436W        W 8504  40.954  31.605   1.927
41437W        W 8505  15.287  20.748  13.371
41438W        W 8506  40.884  33.485  12.531
41439W        W 8507  12.138  37.451  11.960
41440W        W 8508  18.781  26.468  11.868
41441W        W 8509  20.188  36.937  12.454
41442W        W 8510  26.179  32.562   3.733
41443W        W 8511  41.906   4.855   1.448
41444W        W 8512  19.059  13.810   1.439
41445W        W 8513  17.743  24.662  11.592
41446W        W 8514  42.343   9.799   0.741
41447W        W 8515   4.895  24.070   0.770
41448W        W 8516  27.195  39.356  12.904
41449W        W 8517  36.854   2.890  13.867
41450W        W 8518  27.587  25.655  13.838
41451W        W 8519  27.979   7.815   3.774
41452W        W 8520  22.066  28.607   0.911
41453W        W 8521   9.786   4.411  11.128
41454W        W 8522   8.217  27.460   1.862
41455W        W 8523  38.957  20.056   3.673
41456W        W 8524  18.089   4.855   0.331
41457W        W 8525  29.020  20.129   4.836
41458W        W 8526  39.883   4.399   0.420
41459W        W 8527  12.666  30.482  14.994
41460W        W 8528  11.790  12.276   4.782
41461W        W 8529  26.997  14.147   4.807
41462W        W 8530  33.948   6.418  12.523
41463W        W 8531  26.458  13.614   3.679
41464W        W 8532  31.538   6.778   4.235
41465W        W 8533  44.419  39.486  12.431
41466W        W 8534  14.335  36.543  12.577
41467W        W 8535  25.032  24.087   5.184
41468W        W 8536  15.201  12.840  14.973
41469W        W 8537   3.304  15.321   4.616
41470W        W 8538   9.280  20.765  14.858
41471W        W 8539  26.989   5.397  12.444
41472W        W 8540  27.184  40.838   3.304
41473W        W 8541  22.092  27.015  12.557
41474W        W 8542   9.243  22.531   3.187
41475W        W 8543  20.133   9.721   4.648
41476W        W 8544   8.319   7.832   4.606
41477W        W 8545  11.860  36.011  12.976
41478W        W 8546   0.972  38.516  11.416
41479W        W 8547  38.932  12.254   1.754
41480W        W 8548   6.711  37.855   4.153
41481W        W 8549  32.630  26.183   0.886
41482W        W 8550  30.916  28.477   2.668
41483W        W 8551   7.910   9.160  10.932
41484W        W 8552  31.041   6.286  13.987
41485W        W 8553  26.196   4.369   2.394
41486W        W 8554  29.541  44.317  10.574
41487W        W 8555  22.093  20.607   4.114
41488W        W 8556  15.309  12.199   4.285
41489W        W 8557  42.901   7.771  13.413
41490W        W 8558  28.450   0.970  11.517
41491W        W 8559  19.752  12.702   3.706
41492W        W 8560  31.030   0.878   3.847
41493W        W 8561  23.517  32.089  14.854
41494W        W 8562  30.434  17.582  14.904
41495W        W 8563  35.866  34.891   0.895
41496W        W 8564  28.571  21.692  11.559
41497W        W 8565  21.643  12.805   4.663
41498W        W 8566  22.144  16.618  14.918
41499W        W 8567   9.858  39.455  11.468
41500W        W 8568  31.006  21.746  14.899
41501W        W 8569  26.044  25.546  11.519
41502W        W 8570   3.869   5.781   1.870
41503W        W 8571  32.406  23.552  13.833
41504W        W 8572  40.858  15.687  11.971
41505W        W 8573  38.888   0.786   0.946
41506W        W 8574  12.751  15.679   2.368
41507W        W 8575  29.976  25.034  11.921
41508W        W 8576   1.970  44.997  14.315
41509W        W 8577  24.700   9.281  11.514
41510W        W 8578   5.745  29.025   1.705
41511W        W 8579   1.435   8.765   1.868
41512W        W 8580  28.004  17.783   2.226
41513W        W 8581  28.002   0.783   9.988
41514W        W 8582  10.658  12.644  12.831
41515W        W 8583  12.128  37.509  11.554
41516W        W 8584  26.166  15.643   3.670
41517W        W 8585  10.752  39.429  12.459
41518W        W 8586  25.494  17.615  13.534
41519W        W 8587  14.699  36.430   3.163
41520W        W 8588  29.473   2.904   2.694
41521W        W 8589   3.331  31.428  14.905
41522W        W 8590  11.290  25.114   3.637
41523W        W 8591  21.160  27.499   3.693
41524W        W 8592   9.289  11.371  12.423
41525W        W 8593  17.713  31.437   2.251
41526W        W 8594  14.703  35.968  14.011
41527W        W 8595  23.040  42.361  12.507
41528W        W 8596   9.322  16.257   3.760
41529W        W 8597  43.465  30.011   2.317
41530W        W 8598   6.220  18.603  11.086
41531W        W 8599  27.621  25.098  14.835
41532W        W 8600  30.911   1.938  14.451
41533W        W 8601  39.426   3.809   1.765
41534W        W 8602  20.717   1.345   1.850
41535W        W 8603  39.481  32.557  14.975
41536W        W 8604  36.935  13.604  14.497
41537W        W 8605  37.526  33.600  10.563
41538W        W 8606  35.557  31.983   4.339
41539W        W 8607  17.590  21.518   1.328
41540W        W 8608  40.903   8.656  14.472
41541W        W 8609  10.350  32.044   2.722
41542W        W 8610  36.431  30.477   2.685
41543W        W 8611  37.342  21.616  12.440
41544W        W 8612  33.409   6.707   3.842
41545W        W 8613  35.480   0.769  13.468
41546W        W 8614  40.827  33.094  14.427
41547W        W 8615   7.691  27.538  11.875
41548W        W 8616   0.952   1.379  14.469
41549W        W 8617  39.990   4.864   4.641
41550W        W 8618  38.390  39.488   2.812
41551W        W 8619  28.136  33.980  13.481
41552W        W 8620  11.202  44.499  14.021
41553W        W 8621  20.594   1.274   4.650
41554W        W 8622  15.591  20.533   1.887
41555W        W 8623  30.015  40.518   3.328
41556W        W 8624  38.829  20.533   1.291
41557W        W 8625  28.070  11.732  10.097
41558W        W 8626  24.694  42.453  10.447
41559W        W 8627  13.299  14.815   4.245
41560W        W 8628  22.225  33.063  10.619
41561W        W 8629  19.590   6.688  13.336
41562W        W 8630  41.357  16.186  12.534
41563W        W 8631   4.381   5.354  11.476
41564W        W 8632  15.251   5.298   3.763
41565W        W 8633   1.478   2.318   1.219
41566W        W 8634  20.152   6.879  12.026
41567W        W 8635   5.771  25.067  11.450
41568W        W 8636   2.251   5.805  12.860
41569W        W 8637  27.193  25.976   3.322
41570W        W 8638  18.679   6.321   5.165
41571W        W 8639  16.099   6.794   4.636
41572W        W 8640  41.485  31.101   1.211
41573W        W 8641  13.649  18.629  11.069
41574W        W 8642   7.701  30.502  11.111
41575W        W 8643  37.839  13.204   0.965
41576W        W 8644  20.168  20.102   4.698
41577W        W 8645   8.260   5.361  11.510
41578W        W 8646  22.731   0.418  12.555
41579W        W 8647  25.644  44.457  10.043
41580W        W 8648  43.423   1.259   4.341
41581W        W 8649  38.439  16.765  12.941
41582W        W 8650   2.791  20.695  13.381
41583W        W 8651  25.980   4.861   0.451
41584W        W 8652  33.904  17.556  11.040
41585W        W 8653   1.341   0.855   0.866
41586W        W 8654  44.366  23.694   0.479
41587W        W 8655  14.668  34.400   3.317
41588W        W 8656  22.707  10.164   5.123
41589W        W 8657  21.720  12.352  11.984
41590W        W 8658   3.899  23.729   3.697
41591W        W 8659  17.779  19.712   4.339
41592W        W 8660  10.844  12.659   5.272
41593W        W 8661  39.554   6.880  13.320
41594W        W 8662  14.313  44.784  14.758
41595W        W 8663  30.448   4.367  11.061
41596W        W 8664  33.069  41.432   3.698
41597W        W 8665  33.881  31.955  14.346
41598W        W 8666  13.178  10.220  11.984
41599W        W 8667  21.179   7.184   1.375
41600W        W 8668  31.474  35.566   0.746
41601W        W 8669   6.364   4.426  11.877
41602W        W 8670  14.156  26.606   0.435
41603W        W 8671  37.477  39.953  13.410
41604W        W 8672   6.375  12.173  14.410
41605W        W 8673   4.715   7.670  11.605
41606W        W 8674  32.899  11.677   0.874
41607W        W 8675   2.730  39.830   4.327
41608W        W 8676  41.411  34.954   2.854
41609W        W 8677   8.853  34.424   4.626
41610W        W 8678  11.651  38.892   0.479
41611W        W 8679  22.090  30.143   4.812
41612W        W 8680   3.950  36.085   4.651
41613W        W 8681  19.184  17.275  13.902
41614W        W 8682  11.293   8.748   3.340
41615W        W 8683  15.599  40.870  10.639
41616W        W 8684   1.820  15.184   1.904
41617W        W 8685  20.706  17.695  10.906
41618W        W 8686  15.614  14.253   2.291
41619W        W 8687  30.086   5.267  13.501
41620W        W 8688  32.426  44.356   0.804
41621W        W 8689  31.525  38.011  10.405
41622W        W 8690  27.153  38.905  10.143
41623W        W 8691  32.032  42.395  13.812
41624W        W 8692  44.268  20.169  12.086
41625W        W 8693  14.776  14.671   4.343
41626W        W 8694  18.690  20.255  11.448
41627W        W 8695  33.112   4.932   1.871
41628W        W 8696  42.526   0.862  12.038
41629W        W 8697  29.919   8.690   4.226
41630W        W 8698   0.430  44.330   2.900
41631W        W 8699  12.634  24.199  11.887
41632W        W 8700  21.542  44.372  13.036
41633W        W 8701  34.522  41.473  14.464
41634W        W 8702  13.694  36.054   2.282
41635W        W 8703  41.904  29.175   4.824
41636W        W 8704  31.646  44.398   1.881
41637W        W 8705  26.958   3.255   2.269
41638W        W 8706  40.311  18.244   0.253
41639W        W 8707  23.991  33.975  11.031
41640W        W 8708  18.251   7.873   0.334
41641W        W 8709  44.472  31.075   1.744
41642W        W 8710  22.611  23.167   2.673
41643W        W 8711   1.909  20.589   0.946
41644W        W 8712  35.018   8.704  12.849
41645W        W 8713  11.175  11.853  11.976
41646W        W 8714   9.224  41.500   4.690
41647W        W 8715  24.595  38.909   0.893
41648W        W 8716  41.015  35.407   2.898
41649W        W 8717  23.564   0.943  13.875
41650W        W 8718  28.580   2.323   3.653
41651W        W 8719  34.387  42.329  10.483
41652W        W 8720   1.437  12.338   3.229
41653W        W 8721  23.659   9.858   2.353
41654W        W 8722  30.517   1.965  14.926
41655W        W 8723   2.905   8.290   4.334
41656W        W 8724  24.557  33.542   0.454
41657W        W 8725   3.291  14.693   5.237
41658W        W 8726  20.161  36.418   3.327
41659W        W 8727  37.336  37.451  14.809
41660W        W 8728  23.218  25.659   4.678
41661W        W 8729  28.046  17.295  12.029
41662W        W 8730  42.368  33.529  10.580
41663W        W 8731   2.764  25.204  10.969
41664W        W 8732  25.183  23.643  12.996
41665W        W 8733  44.306  23.153  13.996
41666W        W 8734   4.739  42.449  10.092
41667W        W 8735  18.094  35.468  12.983
41668W        W 8736  35.434   9.838  10.584
41669W        W 8737  37.512  31.455   9.938
41670W        W 8738  35.884  34.397  11.864
41671W        W 8739  13.758  31.507   3.687
41672W        W 8740  23.081  16.588  11.528
41673W        W 8741  25.555   3.358   1.222
41674W        W 8742  25.588  39.538   1.438
41675W        W 8743   3.418  35.020  14.448
41676W        W 8744  40.868   2.242   4.330
41677W        W 8745  44.467   5.433   4.155
41678W        W 8746   4.772  11.749  11.042
41679W        W 8747  36.867  19.648   3.719
41680W        W 8748   1.978  19.059  14.433
41681W        W 8749  16.153  20.251   1.361
41682W        W 8750  24.527  43.845   4.300
41683W        W 8751  31.956  13.226  10.890
41684W        W 8752  10.825  37.945  11.479
41685W        W 8753  32.559  17.748   0.849
41686W        W 8754  28.498  15.733   4.263
41687W        W 8755   5.196   8.234  11.950
41688W        W 8756  33.527  22.217   0.278
41689W        W 8757  25.207  30.424   1.364
41690W        W 8758  14.209   1.386   1.355
41691W        W 8759  43.308   1.753  11.032
41692W        W 8760  23.138  26.082   2.850
41693W        W 8761  40.853  31.407  12.370
41694W        W 8762  43.344  28.126  10.059
41695W        W 8763   2.928   8.188  14.877
41696W        W 8764   4.222  18.701   0.933
41697W        W 8765  44.998  35.442   1.321
41698W        W 8766  26.091  16.281  11.863
41699W        W 8767  14.270  15.691   5.082
41700W        W 8768  42.346   5.421  10.475
41701W        W 8769  43.942  40.833  12.434
41702W        W 8770  23.208  33.008  10.521
41703W        W 8771  18.621  32.101  14.450
41704W        W 8772  28.082  23.541   4.746
41705W        W 8773  14.821   4.732   4.764
41706W        W 8774   2.911   7.681  11.498
41707W        W 8775   5.722  43.993   2.375
41708W        W 8776  14.825  33.021  13.420
41709W        W 8777  44.419  21.061   4.302
41710W        W 8778   1.254  31.132  14.793
41711W        W 8779  10.238  43.444  10.584
41712W        W 8780  15.113  36.422   1.227
41713W        W 8781  21.207  42.417  13.047
41714W        W 8782   3.334  13.109  13.017
41715W        W 8783  25.552   3.216  10.637
41716W        W 8784  20.583   8.252  14.379
41717W        W 8785  14.827  44.433  13.315
41718W        W 8786  27.064  16.088  14.430
41719W        W 8787  44.294  39.056   4.113
41720W        W 8788  43.847   6.274   0.295
41721W        W 8789  26.666  42.374  12.042
41722W        W 8790   2.783  20.699   0.305
41723W        W 8791  35.922  35.599   2.242
41724W        W 8792  18.682  34.520   1.829
41725W        W 8793  29.610  44.844   4.317
41726W        W 8794  29.958   5.713   4.739
41727W        W 8795   7.173  42.003  11.913
41728W        W 8796  30.967  40.508   4.653
41729W        W 8797   2.837  41.312   2.879
41730W        W 8798   8.236  12.801   3.299
41731W        W 8799  12.686  17.676  12.395
41732W        W 8800   3.398   8.659   1.440
41733W        W 8801  25.138  27.487   0.765
41734W        W 8802   8.659  16.213  14.850
41735W        W 8803  39.404  22.071   3.378
41736W        W 8804  36.592  15.110   1.835
41737W        W 8805   5.296  28.560   3.286
41738W        W 8806  20.619  15.663  11.498
41739W        W 8807  34.887  42.895   4.794
41740W        W 8808  22.998  39.915   1.415
41741W        W 8809  28.002   2.404  10.023
41742W        W 8810  29.539  38.905   4.320
41743W        W 8811   4.803  18.178   3.254
41744W        W 8812  32.588  34.108  13.051
41745W        W 8813  11.863  33.553   2.682
41746W        W 8814  32.441  33.523   3.838
41747W        W 8815  32.527  26.567   3.732
41748W        W 8816  23.494  16.246   3.174
41749W        W 8817  28.484  17.246   3.683
41750W        W 8818  29.943  37.452  14.334
41751W        W 8819   8.163  37.372   4.711
41752W        W 8820  40.819  36.955   2.239
41753W        W 8821   9.258  18.260  10.997
41754W        W 8822  16.791  24.184   0.286
41755W        W 8823  22.019  37.458  11.086
41756W        W 8824  44.392  16.309   1.444
41757W        W 8825  18.213  11.737  11.975
41758W        W 8826  29.638  15.616   5.254
41759W        W 8827  14.152  29.946  14.867
41760W        W 8828   6.346  41.389   1.317
41761W        W 8829   1.242  30.993  13.997
41762W        W 8830  29.469  12.280   0.390
41763W        W 8831  23.704  12.854   4.606
41764W        W 8832   6.898   3.269   3.839
41765W        W 8833  35.054  26.521  14.786
41766W        W 8834  28.186  42.929   2.195
41767W        W 8835   5.226   8.221   2.874
41768W        W 8836  25.654   0.981   1.907
41769W        W 8837  37.896   1.382   0.434
41770W        W 8838  17.789  18.283   0.331
41771W        W 8839  18.150  39.020   2.873
41772W        W 8840  40.031  13.291   1.698
41773W        W 8841  14.116  16.125   0.347
41774W        W 8842   8.780  43.964  11.123
41775W        W 8843  16.685  40.417   1.410
41776W        W 8844  33.099  26.523  13.391
41777W        W 8845  40.899  28.972   2.245
41778W        W 8846  24.607  30.984   2.833
41779W        W 8847  11.779  29.666  10.991
41780W        W 8848  11.712  11.370   2.834
41781W        W 8849  20.167  32.047  12.499
41782W        W 8850  44.390   4.433   1.772
41783W        W 8851  32.570  40.878  14.790
41784W        W 8852   0.847  31.425   1.450
41785W        W 8853   5.398  24.506   0.389
41786W        W 8854  26.536  42.912   4.262
41787W        W 8855  11.280  11.185   0.434
41788W        W 8856  24.067  26.196  11.408
41789W        W 8857  34.499  25.522   4.216
41790W        W 8858  11.829  26.954  10.025
41791W        W 8859  36.092  33.477  11.526
41792W        W 8860  19.695  29.484   3.369
41793W        W 8861   6.861  42.286   1.762
41794W        W 8862  40.854  26.641   4.830
41795W        W 8863  23.604   1.397  14.967
41796W        W 8864  39.817   2.378   1.723
41797W        W 8865  36.091  11.757  10.437
41798W        W 8866   3.391   2.907  10.972
41799W        W 8867  37.568  42.299  14.293
41800W        W 8868  26.486  36.536  10.475
41801W        W 8869  41.507  34.500  12.424
41802W        W 8870  42.922  10.151   5.295
41803W        W 8871  19.050  19.539  12.827
41804W        W 8872  34.940   3.411   2.827
41805W        W 8873   3.900  35.502   4.672
41806W        W 8874   4.932  23.626  10.975
41807W        W 8875  29.943  23.167  13.899
41808W        W 8876  21.708   2.310   1.440
41809W        W 8877  33.593  11.272  13.875
41810W        W 8878  36.441   6.680   2.893
41811W        W 8879  27.609  44.310   1.265
41812W        W 8880   4.401   7.324  11.977
41813W        W 8881  15.201  26.463   3.230
41814W        W 8882   2.326  11.246   1.298
41815W        W 8883   9.694  30.015   1.269
41816W        W 8884  31.981  24.046  10.508
41817W        W 8885  40.360  29.509  14.442
41818W        W 8886  36.014  43.786   2.193
41819W        W 8887  40.868   3.442  10.577
41820W        W 8888   3.897   7.851  11.972
41821W        W 8889  43.986  40.002   1.308
41822W        W 8890  37.869  40.818   2.896
41823W        W 8891  28.054   4.378   0.278
41824W        W 8892   6.319  17.768  10.920
41825W        W 8893  11.738  22.154   4.629
41826W        W 8894  33.470  13.841   4.288
41827W        W 8895  10.729  10.220  13.061
41828W        W 8896  18.690  39.316   1.789
41829W        W 8897  32.101  36.920   3.722
41830W        W 8898  26.631  25.962  12.988
41831W        W 8899   8.688  12.691  14.008
41832W        W 8900  11.748  11.262  13.798
41833W        W 8901  40.442  23.606   1.893
41834W        W 8902  13.315  10.684   3.705
41835W        W 8903   9.244  28.635   2.347
41836W        W 8904  21.149  29.540   3.670
41837W        W 8905  12.820  15.150  11.390
41838W        W 8906   5.715   2.405   4.730
41839W        W 8907  44.769   2.268   2.417
41840W        W 8908  38.970   7.825  13.876
41841W        W 8909  41.407  17.664  10.997
41842W        W 8910  40.486  25.530  14.350
41843W        W 8911  32.393  11.809  10.565
41844W        W 8912  18.192  34.446   3.268
41845W        W 8913  30.435   9.773  14.482
41846W        W 8914  34.387  30.557   3.195
41847W        W 8915   5.809  20.184   5.320
41848W        W 8916  22.118   7.381  14.920
41849W        W 8917  23.513  25.639  11.102
41850W        W 8918  35.482   7.180   4.668
41851W        W 8919   3.744  39.889   4.282
41852W        W 8920  38.017  40.387  11.114
41853W        W 8921  31.570   7.717   0.353
41854W        W 8922   8.690  11.162   0.858
41855W        W 8923  34.480  21.097  12.521
41856W        W 8924  37.406  23.012   3.149
41857W        W 8925  35.024  37.434  13.020
41858W        W 8926  13.297  17.686  11.989
41859W        W 8927  13.184  30.484  13.349
41860W        W 8928  23.595  23.991  10.524
41861W        W 8929  14.319   5.687   3.749
41862W        W 8930  21.605  36.464   4.177
41863W        W 8931   9.866   4.892   3.182
41864W        W 8932  10.724  31.919   1.930
41865W        W 8933   1.257  41.851  12.406
41866W        W 8934   5.758  10.726  14.313
41867W        W 8935  31.573  12.329   4.141
41868W        W 8936   8.375  30.492  11.045
41869W        W 8937  18.754  12.769  14.356
41870W        W 8938   3.930  11.226   0.944
41871W        W 8939  13.603  27.678  14.947
41872W        W 8940  17.584  19.687   2.751
41873W        W 8941   9.200  41.017  13.487
41874W        W 8942  28.478  34.088   4.307
41875W        W 8943  12.179   9.735   1.889
41876W        W 8944   7.697   6.769   2.180
41877W        W 8945  16.785  43.890  12.534
41878W        W 8946  22.517  43.368  12.089
41879W        W 8947  40.385  36.567   3.702
41880W        W 8948   5.932   6.796   1.751
41881W        W 8949  37.532  18.229   0.416
41882W        W 8950  39.387  31.997  10.555
41883W        W 8951  40.385  16.267   1.369
41884W        W 8952  43.905  42.942  11.479
41885W        W 8953  33.483  17.141   0.809
41886W        W 8954  20.060  10.659  11.379
41887W        W 8955   3.376  21.246   1.371
41888W        W 8956  38.053   0.462   2.723
41889W        W 8957  42.323   7.741   4.272
41890W        W 8958  14.194  33.958   1.350
41891W        W 8959  43.801  24.102   0.409
41892W        W 8960   1.737  28.119   1.303
41893W        W 8961  26.013  22.744  14.890
41894W        W 8962  38.924  31.463  11.513
41895W        W 8963   2.252   8.255   2.777
41896W        W 8964  27.614  11.843   4.331
41897W        W 8965   1.776  17.078   4.657
41898W        W 8966   6.786   2.236   3.780
41899W        W 8967   1.330  26.127  13.342
41900W        W 8968  24.638  10.300   0.412
41901W        W 8969   5.697  19.637   1.913
41902W        W 8970   6.240   2.381   0.904
41903W        W 8971  14.196   0.798   4.685
41904W        W 8972  24.046  10.870  13.808
41905W        W 8973  15.738  32.593  10.611
41906W        W 8974  28.663  15.152   0.894
41907W        W 8975  42.297  38.510  14.482
41908W        W 8976  20.679   5.409   1.331
41909W        W 8977  18.116  37.415  13.519
41910W        W 8978   8.724  24.188   1.802
41911W        W 8979   0.821  23.025   1.366
41912W        W 8980   7.896  29.520   0.924
41913W        W 8981   2.888  18.105  12.045
41914W        W 8982  12.202  36.538  11.509
41915W        W 8983  11.632  19.054   1.757
41916W        W 8984  36.883  33.507  10.937
41917W        W 8985  26.107   7.337   1.259
41918W        W 8986  11.310  38.359   2.217
41919W        W 8987  11.205  33.620   0.262
41920W        W 8988  26.015  16.683   3.726
41921W        W 8989  12.845  16.583   3.269
41922W        W 8990  44.996   2.338   1.353
41923W        W 8991  25.679  19.143  10.503
41924W        W 8992  25.677  13.845   2.773
41925W        W 8993   1.404  40.392  12.011
41926W        W 8994  26.168  18.732  13.335
41927W        W 8995  22.009  20.030   2.313
41928W        W 8996  30.139  37.397   4.340
41929W        W 8997  26.679  38.982   0.282
41930W        W 8998  30.574  42.361  12.042
41931W        W 8999   6.704  40.802   3.817
41932W        W 9000  42.335  35.575  11.449
41933W        W 9001  21.703   0.947   2.902
41934W        W 9002   9.885  18.185   1.363
41935W        W 9003  25.664  38.433  10.514
41936W        W 9004   2.238  42.512  13.977
41937W        W 9005  21.039  18.785  13.423
41938W        W 9006  36.547  29.089  12.897
41939W        W 9007  39.904  17.677  11.580
41940W        W 9008  41.038  39.958   2.824
41941W        W 9009  39.038  20.130   0.427
41942W        W 9010  31.543   1.296  13.316
41943W        W 9011  28.083  29.464   1.448
41944W        W 9012  21.185  12.151   2.187
41945W        W 9013  40.315  40.392   4.177
41946W        W 9014  16.749  29.597  12.946
41947W        W 9015  29.082  16.301  14.777
41948W        W 9016  10.837  18.086  10.943
41949W        W 9017  19.214  21.017   2.308
41950W        W 9018  32.620  37.068  13.396
41951W        W 9019  23.498  44.806  14.495
41952W        W 9020  38.332  43.768  13.546
41953W        W 9021  10.258  24.031  12.411
41954W        W 9022  42.319  25.983   1.305
41955W        W 9023  30.109  43.479   4.826
41956W        W 9024  37.552  39.408   0.744
41957W        W 9025  32.990  35.541  14.853
41958W        W 9026  43.779  34.404  14.929
41959W        W 9027  34.458   0.459   2.709
41960W        W 9028  33.017   8.179   4.680
41961W        W 9029  29.146  24.522  11.021
41962W        W 9030  24.053   4.250   3.360
41963W        W 9031   3.847  22.106   0.298
41964W        W 9032  29.131  44.495  11.074
41965W        W 9033  30.994  16.307  10.980
41966W        W 9034  44.475  15.640   2.704
41967W        W 9035  39.994  29.954  11.959
41968W        W 9036  14.593   4.881   2.274
41969W        W 9037  18.113  17.640  11.093
41970W        W 9038  17.146  23.110   3.661
41971W        W 9039   1.262  10.678   0.243
41972W        W 9040  22.740  42.807   0.472
41973W        W 9041  26.631  40.837  12.399
41974W        W 9042  13.152  43.294   1.240
41975W        W 9043   7.881  38.007   2.328
41976W        W 9044  41.352  34.385  11.895
41977W        W 9045  29.143  28.161   4.307
41978W        W 9046  43.325  15.689  13.994
41979W        W 9047   0.833  28.996   3.748
41980W        W 9048   4.275  44.794  10.471
41981W        W 9049  39.926   4.260  11.438
41982W        W 9050  39.473  33.909  12.858
41983W        W 9051  39.549  19.743  14.848
41984W        W 9052  38.944  27.121   3.184
41985W        W 9053  29.646  26.951  11.936
41986W        W 9054   0.340  21.699  13.024
41987W        W 9055  39.903  16.130   4.705
41988W        W 9056  38.908  36.895   1.251
41989W        W 9057  33.445  19.706   3.333
41990W        W 9058  20.262  20.256   2.677
41991W        W 9059  23.130  31.133  14.301
41992W        W 9060  32.000  24.625  14.997
41993W        W 9061  42.808  34.592   4.686
41994W        W 9062  44.279   0.261   3.195
41995W        W 9063  13.153  19.709  10.494
41996W        W 9064  20.173  43.371   3.190
41997W        W 9065  32.456  21.181   2.411
41998W        W 9066  44.810  42.424   4.259
41999W        W 9067  20.621  14.615  10.464
42000W        W 9068  17.715  10.641  12.531
42001W        W 9069  44.339  31.502  12.507
42002W        W 9070  41.332  27.098   1.225
42003W        W 9071  13.684  15.182  12.831
42004W        W 9072  38.946  31.999   4.267
42005W        W 9073  13.120  18.130   2.859
42006W        W 9074  23.698   7.293  13.346
42007W        W 9075  22.085   5.727   4.154
42008W        W 9076   3.736  17.298  11.405
42009W        W 9077  27.539  13.294  13.875
42010W        W 9078  17.078  24.526  14.878
42011W        W 9079   7.239  40.506   4.730
42012W        W 9080  38.848  26.553  14.394
42013W        W 9081  38.554  37.491   0.273
42014W        W 9082   8.725   7.333  14.901
42015W        W 9083  36.543   9.394   0.849
42016W        W 9084  22.580  10.251   1.440
42017W        W 9085  15.322   7.307   3.780
42018W        W 9086  30.641  32.398   4.715
42019W        W 9087  21.711  29.153   2.801
42020W        W 9088  14.830  34.491  10.958
42021W        W 9089  33.523  22.224  14.822
42022W        W 9090  19.150   7.343   4.773
42023W        W 9091  17.595   0.443   2.188
42024W        W 9092  34.876  34.866  11.925
42025W        W 9093  28.544  22.746   1.230
42026W        W 9094  21.730   0.953   1.850
42027W        W 9095  40.517  41.394  14.322
42028W        W 9096  10.160  13.752   2.794
42029W        W 9097  33.548  42.854  13.974
42030W        W 9098  17.300   9.815   4.670
42031W        W 9099  29.028  33.968  13.889
42032W        W 9100   4.431   2.723  13.331
42033W        W 9101  13.730  40.495  14.340
42034W        W 9102  20.098  25.554   1.306
42035W        W 9103   8.192  32.932  13.452
42036W        W 9104  27.140  15.170  11.030
42037W        W 9105   8.217  35.098  11.000
42038W        W 9106  23.724  14.613   4.194
42039W        W 9107  39.524  35.054  14.359
42040W        W 9108  32.074  30.428   1.882
42041W        W 9109  28.596  33.416  11.869
42042W        W 9110  20.073  26.614  11.603
42043W        W 9111  18.267  28.930  10.588
42044W        W 9112  10.220  24.562   0.939
42045W        W 9113   7.290   6.748   1.448
42046W        W 9114  18.716  39.491  10.611
42047W        W 9115  26.550  40.934  13.469
42048W        W 9116  13.799  42.525   2.731
42049W        W 9117   8.260  28.450  13.841
42050W        W 9118  40.939  26.004   2.307
42051W        W 9119  21.112  11.852   3.236
42052W        W 9120  19.235   6.832   3.345
42053W        W 9121   0.287  19.599  14.304
42054W        W 9122  39.352  12.337   2.677
42055W        W 9123  38.939  19.554  11.410
42056W        W 9124  18.689  25.066  10.050
42057W        W 9125   4.391   1.819   3.856
42058W        W 9126   9.341  42.780   2.808
42059W        W 9127  18.117   9.165   2.823
42060W        W 9128  28.627   6.416   3.841
42061W        W 9129   0.811  15.268   4.243
42062W        W 9130  13.138   8.810   0.331
42063W        W 9131   8.383  29.931  11.007
42064W        W 9132  36.929  31.123   3.720
42065W        W 9133  18.672  34.398   4.328
42066W        W 9134   7.768  17.765   1.294
42067W        W 9135  27.094  37.527  12.969
42068W        W 9136  44.876  43.841  11.926
42069W        W 9137  30.162  17.234   4.794
42070W        W 9138  10.663  24.149  14.860
42071W        W 9139  16.685   4.261  12.427
42072W        W 9140  10.371  31.433  10.975
42073W        W 9141   8.840   4.445   4.813
42074W        W 9142  19.069  30.935  11.552
42075W        W 9143  10.337  30.128  11.539
42076W        W 9144   1.777   8.360   4.782
42077W        W 9145   3.783   4.279   0.308
42078W        W 9146  32.508  43.461  13.909
42079W        W 9147   3.885  36.992  11.125
42080W        W 9148  13.736  18.619   4.778
42081W        W 9149  27.670   8.225   4.281
42082W        W 9150   2.927  41.464  13.037
42083W        W 9151  11.334  28.532  12.077
42084W        W 9152  36.049  17.260   0.265
42085W        W 9153  39.367  40.014  12.403
42086W        W 9154   9.860   1.356   4.818
42087W        W 9155   3.365  22.041  10.515
42088W        W 9156  35.938  18.075   4.257
42089W        W 9157  37.551  11.674  12.559
42090W        W 9158  20.045  12.347   0.747
42091W        W 9159  26.482  18.140   4.770
42092W        W 9160  28.933  33.550  11.541
42093W        W 9161  16.285  36.888   1.857
42094W        W 9162   4.935  40.501   1.870
42095W        W 9163   6.308  18.159  12.344
42096W        W 9164   9.831   7.698   0.955
42097W        W 9165  43.907  21.233  10.939
42098W        W 9166  44.872   7.823   3.189
42099W        W 9167  41.926  25.062  13.345
42100W        W 9168  11.327  39.883   2.833
42101W        W 9169  23.619  35.923  13.020
42102W        W 9170   1.296  11.149  11.397
42103W        W 9171  10.633   5.907  11.970
42104W        W 9172  41.442  43.931  14.963
42105W        W 9173  42.372  28.964  11.384
42106W        W 9174  18.779  29.954  13.432
42107W        W 9175  33.917  44.391   0.726
42108W        W 9176  26.167   9.361   4.201
42109W        W 9177  31.032  24.140  11.002
42110W        W 9178  38.998   4.840   2.739
42111W        W 9179   3.925   3.324  11.920
42112W        W 9180  41.933  24.627  10.974
42113W        W 9181  21.550  15.289   1.362
42114W        W 9182  10.251  22.074  13.050
42115W        W 9183  10.665   7.712   0.821
42116W        W 9184   9.747  28.543  14.975
42117W        W 9185  30.476  35.949   0.915
42118W        W 9186  11.732  23.491  14.879
42119W        W 9187  22.675  10.669   3.212
42120W        W 9188  39.489  41.923  11.868
42121W        W 9189   3.823   6.726  10.975
42122W        W 9190   3.403  30.436  14.985
42123W        W 9191   8.317  42.417   3.382
42124W        W 9192   0.350  26.701  14.879
42125W        W 9193  20.248  36.978  12.965
42126W        W 9194   7.684   9.720  12.836
42127W        W 9195  41.999  35.082   5.308
42128W        W 9196  22.125  36.407  12.528
42129W        W 9197   4.405  15.709  11.955
42130W        W 9198  27.671  25.508  11.885
42131W        W 9199  37.072   3.383  12.561
42132W        W 9200  34.610  20.117  10.429
42133W        W 9201   2.936  15.241   4.189
42134W        W 9202   9.369  12.197  14.426
42135W        W 9203   1.734  40.306   0.383
42136W        W 9204  36.049  17.589  14.861
42137W        W 9205  11.289  39.902  14.956
42138W        W 9206  33.407  26.124   4.241
42139W        W 9207  37.548  22.226   0.462
42140W        W 9208  34.870  35.417   2.769
42141W        W 9209  20.138   9.272  12.932
42142W        W 9210  43.369   6.261  14.862
42143W        W 9211  28.944  27.540   3.327
42144W        W 9212  30.023  15.627   4.243
42145W        W 9213  24.722  19.552  14.493
42146W        W 9214  32.044  39.035   0.437
42147W        W 9215  10.281   3.273  12.835
42148W        W 9216  14.162  34.508  11.413
42149W        W 9217  29.044   6.725  10.457
42150W        W 9218  34.118   2.938   1.722
42151W        W 9219  13.117  15.638  11.071
42152W        W 9220  36.940  16.680   0.830
42153W        W 9221   7.226  21.232  11.513
42154W        W 9222   4.285  41.816   3.774
42155W        W 9223  29.138  13.319  12.077
42156W        W 9224  39.992  33.513  11.487
42157W        W 9225  36.547  41.484   5.135
42158W        W 9226  42.972   6.814  10.628
42159W        W 9227   8.196  23.587  11.053
42160W        W 9228  24.566  24.569   3.287
42161W        W 9229  27.685   8.817   4.183
42162W        W 9230  14.237   5.397  14.459
42163W        W 9231  23.599  37.942   2.202
42164W        W 9232   2.316  27.564  11.024
42165W        W 9233  42.784  12.202   3.727
42166W        W 9234  10.748   2.268   0.343
42167W        W 9235   0.337  37.378  14.510
42168W        W 9236  11.813   8.166  13.426
42169W        W 9237  15.250   2.783   0.474
42170W        W 9238  10.215  32.117  14.305
42171W        W 9239  38.384  36.852  12.561
42172W        W 9240  39.502   9.663  10.635
42173W        W 9241  21.637  22.663   4.178
42174W        W 9242  12.311  27.103   4.335
42175W        W 9243  40.855  31.440   0.962
42176W        W 9244  30.970  32.628  12.376
42177W        W 9245  27.985  20.710   4.130
42178W        W 9246   6.204  40.548   3.229
42179W        W 9247  29.153  33.619  12.073
42180W        W 9248  38.354   5.229   0.732
42181W        W 9249   6.917  29.116  14.982
42182W        W 9250  27.077  32.520  11.860
42183W        W 9251  28.677  30.453  11.561
42184W        W 9252  28.952   7.364   1.810
42185W        W 9253  20.157   1.845  13.973
42186W        W 9254  27.565  34.483  11.930
42187W        W 9255  37.526  19.078  12.943
42188W        W 9256   6.256  13.242   1.295
42189W        W 9257  32.042   6.384   3.288
42190W        W 9258  18.745  20.533  12.990
42191W        W 9259   5.204  25.523   0.305
42192W        W 9260  15.253   0.450  14.823
42193W        W 9261  27.660   9.211  13.998
42194W        W 9262   7.905  40.456   3.251
42195W        W 9263  32.070  18.247   0.377
42196W        W 9264  20.536  36.389   0.732
42197W        W 9265  33.601   7.177   1.708
42198W        W 9266  24.574  14.607  10.610
42199W        W 9267   4.431   3.765   3.256
42200W        W 9268  31.069  41.016  11.512
42201W        W 9269   5.784  29.167  14.459
42202W        W 9270   6.291  41.431  12.372
42203W        W 9271  21.564   3.711   2.874
42204W        W 9272  24.031   0.379   1.877
42205W        W 9273  10.302  31.091  13.413
42206W        W 9274  30.027  25.028  13.870
42207W        W 9275  30.495   0.815   0.362
42208W        W 9276  33.875  17.637   0.778
42209W        W 9277  37.356  19.761  10.102
42210W        W 9278  15.635  25.522   2.310
42211W        W 9279  19.243  26.546   1.901
42212W        W 9280  25.582  29.970  10.990
42213W        W 9281  35.007  12.661   0.407
42214W        W 9282   0.935  35.596   2.411
42215W        W 9283  22.647  24.180  14.032
42216W        W 9284   3.756  15.686   0.965
42217W        W 9285  44.807  29.091  12.972
42218W        W 9286  41.402  28.629  13.052
42219W        W 9287  19.115  25.556   2.317
42220W        W 9288   3.221  42.380  14.312
42221W        W 9289  32.133  32.474   3.824
42222W        W 9290  32.904  25.039   2.825
42223W        W 9291  29.069   9.171  14.968
42224W        W 9292  18.113  21.699   4.691
42225W        W 9293   9.150  35.513   2.804
42226W        W 9294  42.373  23.651   3.855
42227W        W 9295  33.424  29.123   4.333
42228W        W 9296  36.905   9.719   1.921
42229W        W 9297  28.563   2.366   4.170
42230W        W 9298   8.895  30.948   3.722
42231W        W 9299  27.574  18.098  13.927
42232W        W 9300  17.175  10.728   1.380
42233W        W 9301  34.534  35.473  13.389
42234W        W 9302  30.443  17.199  12.357
42235W        W 9303  20.672   7.294  13.353
42236W        W 9304  24.104  35.014   0.728
42237W        W 9305  31.522  27.591  13.409
42238W        W 9306  34.471  26.048   3.702
42239W        W 9307  26.081  18.782  13.866
42240W        W 9308  39.842  29.525  11.003
42241W        W 9309   5.834   3.420   0.257
42242W        W 9310  44.324  31.638  10.520
42243W        W 9311  18.603  21.638  13.408
42244W        W 9312  16.624  24.645  11.609
42245W        W 9313  44.769  41.423   4.155
42246W        W 9314   0.253  23.712  10.903
42247W        W 9315  22.070   5.883  14.879
42248W        W 9316  28.043  17.792  12.037
42249W        W 9317  44.283   2.959   2.800
42250W        W 9318  34.464  27.087   0.853
42251W        W 9319  34.406  17.802   2.377
42252W        W 9320  15.186  39.506  14.429
42253W        W 9321  40.346  21.530  13.816
42254W        W 9322  41.400  35.406  13.425
42255W        W 9323   9.692  10.690  13.946
42256W        W 9324  23.143  20.626  10.973
42257W        W 9325  43.468  12.266  13.990
42258W        W 9326   5.381  23.094  13.886
42259W        W 9327  26.476  30.051   4.339
42260W        W 9328  12.635  27.612   0.888
42261W        W 9329  17.205   5.777  13.792
42262W        W 9330  41.455  37.940   3.790
42263W        W 9331  20.251  25.023  13.987
42264W        W 9332  31.513  19.245   1.880
42265W        W 9333   4.747  22.536  14.442
42266W        W 9334   1.763  22.060  10.990
42267W        W 9335  27.575  42.867   3.285
42268W        W 9336  26.660  17.231  14.032
42269W        W 9337  26.144  33.071   0.744
42270W        W 9338  43.779  21.610  12.358
42271W        W 9339   9.737   7.723  13.439
42272W        W 9340  18.766  15.242   0.732
42273W        W 9341  43.311  43.811  10.975
42274W        W 9342  38.539  19.534   1.388
42275W        W 9343  20.618  29.080   4.203
42276W        W 9344  25.651  18.272   0.420
42277W        W 9345  29.668  29.536   0.309
42278W        W 9346   9.863  21.550  14.771
42279W        W 9347   2.849  39.538   2.767
42280W        W 9348  33.083  42.465   0.429
42281W        W 9349   6.728  34.087  12.855
42282W        W 9350  44.495   2.796   0.935
42283W        W 9351  22.167  34.892  10.585
42284W        W 9352  24.193   3.861  13.326
42285W        W 9353  28.519  22.633   2.178
42286W        W 9354  27.561  33.104  10.481
42287W        W 9355  14.707  16.141  10.607
42288W        W 9356  43.506  29.131  12.362
42289W        W 9357  27.681  15.145  14.502
42290W        W 9358  34.083  38.571   2.670
42291W        W 9359  38.411  37.051   1.338
42292W        W 9360  15.125  24.541  13.359
42293W        W 9361  36.066  26.686   3.675
42294W        W 9362  19.565  33.547  12.402
42295W        W 9363  25.053  40.408   3.349
42296W        W 9364  13.226   5.764  11.964
42297W        W 9365  13.112   3.299  11.486
42298W        W 9366  23.545   5.384   0.805
42299W        W 9367   3.248   5.736  13.477
42300W        W 9368  27.592  10.643  14.437
42301W        W 9369  19.635   6.273  13.500
42302W        W 9370  31.004  17.194  13.913
42303W        W 9371  14.595   3.915  14.400
42304W        W 9372  17.248  13.215   2.842
42305W        W 9373  16.804   2.951  10.496
42306W        W 9374   6.266  13.241  11.504
42307W        W 9375  21.744   5.330   1.271
42308W        W 9376   8.367   1.258   3.799
42309W        W 9377  21.202  21.617  14.463
42310W        W 9378  32.501  21.660  14.293
42311W        W 9379  31.459   7.278   4.156
42312W        W 9380  33.910  17.665  12.459
42313W        W 9381   0.866   6.353   1.449
42314W        W 9382  15.811  10.179  12.382
42315W        W 9383   9.761  19.673   0.474
42316W        W 9384  25.543  37.977   1.739
42317W        W 9385   9.824  13.678   1.221
42318W        W 9386  23.587  10.270   3.646
42319W        W 9387  15.133  14.216   0.302
42320W        W 9388  44.478  14.745   3.234
42321W        W 9389   2.927   2.417   3.254
42322W        W 9390   6.201  22.085   1.728
42323W        W 9391  11.152  14.236   4.688
42324W        W 9392  18.166  42.016   1.219
42325W        W 9393  18.218  32.499   0.446
42326W        W 9394  17.653  15.304  10.561
42327W        W 9395  24.005  36.067  10.497
42328W        W 9396   7.326   7.905  11.533
42329W        W 9397   6.187   5.416  11.920
42330W        W 9398  37.059  18.265  14.323
42331W        W 9399  36.883  30.929   4.184
42332W        W 9400  30.442  40.373   3.717
42333W        W 9401   7.859   0.876  13.969
42334W        W 9402  14.758  44.813  14.834
42335W        W 9403  34.961  35.501   3.862
42336W        W 9404   2.903  29.501   3.364
42337W        W 9405   9.149  28.166   1.864
42338W        W 9406  22.063  40.479  11.866
42339W        W 9407  39.963   8.666  12.023
42340W        W 9408   5.865   1.862  13.979
42341W        W 9409  18.688   3.954  13.850
42342W        W 9410   9.301  43.414  14.917
42343W        W 9411  15.807  35.911   1.317
42344W        W 9412  36.511  12.678   0.327
42345W        W 9413   4.253  12.340  14.283
42346W        W 9414  15.762  20.152   4.355
42347W        W 9415  23.087  42.509   0.438
42348W        W 9416  35.878   4.325  11.056
42349W        W 9417  34.065   0.778  14.862
42350W        W 9418  26.584   2.885  13.501
42351W        W 9419   6.209  44.504  10.977
42352W        W 9420   5.835  13.319   3.263
42353W        W 9421  10.769  26.097   2.256
42354W        W 9422  35.472   8.182  12.993
42355W        W 9423  40.519   0.266   1.820
42356W        W 9424  17.175   4.443  11.911
42357W        W 9425   9.321  18.757  12.492
42358W        W 9426  41.437  33.583  11.449
42359W        W 9427  11.266  13.738   1.769
42360W        W 9428  16.784  38.448  13.455
42361W        W 9429  37.446  22.523   0.316
42362W        W 9430  15.720  25.216  10.155
42363W        W 9431   5.406  22.680  12.538
42364W        W 9432  37.531  29.147   1.888
42365W        W 9433  35.570   1.329  12.396
42366W        W 9434  43.395  32.992   1.706
42367W        W 9435   4.871  28.045  12.398
42368W        W 9436  24.069  10.337   1.935
42369W        W 9437   9.326  12.759  14.969
42370W        W 9438   0.289  35.023  13.981
42371W        W 9439  20.100  17.687  14.928
42372W        W 9440   3.799  11.162  13.466
42373W        W 9441  11.862   0.320   3.350
42374W        W 9442   9.652  30.091  12.834
42375W        W 9443  41.839  41.489  12.994
42376W        W 9444   3.287  42.011   3.818
42377W        W 9445  44.289  15.229   2.236
42378W        W 9446  19.219   6.206   0.829
42379W        W 9447  18.651  44.917   3.866
42380W        W 9448  20.049   6.387   0.478
42381W        W 9449  44.399  32.922  12.464
42382W        W 9450   5.804  33.605  11.486
42383W        W 9451  29.047  40.453   1.290
42384W        W 9452  10.144   8.277   4.820
42385W        W 9453  19.169  17.273  13.496
42386W        W 9454  36.056  14.288   3.822
42387W        W 9455  40.430  34.877  11.058
42388W        W 9456  36.530   9.813  14.868
42389W        W 9457  43.491   9.272   3.685
42390W        W 9458   4.395  13.269   1.876
42391W        W 9459  19.620   9.377  13.024
42392W        W 9460  23.529  13.744  14.932
42393W        W 9461  43.310  14.688   3.283
42394W        W 9462  21.585  10.829   2.361
42395W        W 9463  44.932  15.610   1.800
42396W        W 9464   8.900  29.635  11.093
42397W        W 9465  29.122  26.053  13.369
42398W        W 9466  37.444  27.665  11.094
42399W        W 9467  35.943  13.124   3.270
42400W        W 9468  11.647  12.840   1.394
42401W        W 9469   7.849   9.395   1.278
42402W        W 9470   7.896   5.431   4.786
42403W        W 9471  44.330  17.762  12.547
42404W        W 9472  31.504  42.807   1.874
42405W        W 9473  41.795   4.272   1.385
42406W        W 9474  28.181   2.259   3.211
42407W        W 9475  18.620  14.629   2.195
42408W        W 9476  14.680  39.822  14.818
42409W        W 9477  41.848  26.025   0.350
42410W        W 9478   4.419   1.735   4.609
42411W        W 9479   4.365  39.487   1.897
42412W        W 9480   8.768   3.250   0.259
42413W        W 9481  20.162  31.591  13.422
42414W        W 9482  25.012  11.181   2.773
42415W        W 9483  14.165  30.061  13.449
42416W        W 9484  37.024   7.178  14.395
42417W        W 9485  19.603  25.603   4.244
42418W        W 9486  28.140   8.837   0.479
42419W        W 9487  35.876  21.729  12.415
42420W        W 9488   4.389  38.560  13.045
42421W        W 9489   4.779  40.871  14.974
42422W        W 9490  29.552   4.344  14.816
42423W        W 9491  27.164  44.910   1.394
42424W        W 9492  44.424  13.808  14.486
42425W        W 9493   9.814  36.425  11.411
42426W        W 9494  25.008  43.509  14.402
42427W        W 9495  31.023  18.146   4.795
42428W        W 9496   6.360  43.485   4.636
42429W        W 9497  34.934  40.866  14.345
42430W        W 9498  27.629  33.548  11.065
42431W        W 9499  19.192  31.059  14.495
42432W        W 9500  32.078   8.332   3.347
42433W        W 9501  36.420   0.954   3.719
42434W        W 9502   1.911  35.495   2.832
42435W        W 9503  40.327  22.660   4.235
42436W        W 9504  33.432  21.567  11.856
42437W        W 9505  16.107  22.595  10.912
42438W        W 9506  22.125  22.040  14.971
42439W        W 9507   8.397  14.778   2.725
42440W        W 9508  30.628  41.931  11.884
42441W        W 9509   5.780  10.181   4.720
42442W        W 9510  16.793  23.011   4.670
42443W        W 9511  15.317  34.595   3.209
42444W        W 9512   5.381   5.412   3.768
42445W        W 9513  39.550  42.939  12.922
42446W        W 9514  11.831  23.112  11.051
42447W        W 9515  40.474  38.935   0.360
42448W        W 9516  31.060  24.074   0.435
42449W        W 9517  19.752  35.385   0.316
42450W        W 9518   6.836   1.246  11.979
42451W        W 9519  35.494  42.011   4.223
42452W        W 9520  15.590   1.398   1.710
42453W        W 9521   7.295  41.920  10.968
42454W        W 9522  38.566   6.801  11.023
42455W        W 9523  42.979  12.802   1.696
42456W        W 9524  11.626  35.500   4.193
42457W        W 9525  26.078  43.802  10.901
42458W        W 9526  22.208  13.648  13.957
42459W        W 9527  23.136  13.153   2.200
42460W        W 9528  19.273  37.027  12.391
42461W        W 9529  21.198  43.377   4.801
42462W        W 9530   3.768  22.728  11.428
42463W        W 9531  39.911  15.143   4.206
42464W        W 9532  13.315   9.838   3.207
42465W        W 9533  38.052  17.169   4.334
42466W        W 9534  25.515  25.197   5.176
42467W        W 9535  14.689  10.243   0.308
42468W        W 9536  10.315  29.450  10.898
42469W        W 9537  26.975  15.710  14.276
42470W        W 9538  42.980  34.054   0.905
42471W        W 9539   3.334  41.901  14.440
42472W        W 9540  19.593  13.791   3.820
42473W        W 9541  16.273   1.303  13.439
42474W        W 9542  25.635  14.098   5.172
42475W        W 9543   1.927   9.387  13.896
42476W        W 9544  42.793   0.980  12.057
42477W        W 9545  41.863  43.934  12.094
42478W        W 9546   1.305  21.226  12.345
42479W        W 9547  24.563   9.287  13.828
42480W        W 9548   2.426  30.521   0.948
42481W        W 9549  29.488  37.579  11.420
42482W        W 9550  37.567   4.211   3.162
42483W        W 9551   1.469  30.157   2.335
42484W        W 9552  29.460  18.172   5.267
42485W        W 9553  26.064  23.995  11.976
42486W        W 9554  21.077  18.146  12.549
42487W        W 9555  41.930  14.809   1.237
42488W        W 9556  10.296   7.732  14.448
42489W        W 9557  33.095   4.429  10.555
42490W        W 9558   7.231  22.222   2.806
42491W        W 9559  40.802  30.163   2.702
42492W        W 9560  42.952  29.123  12.356
42493W        W 9561  34.904  29.133  11.545
42494W        W 9562  30.990  40.302  14.858
42495W        W 9563  33.541  11.188   1.873
42496W        W 9564  30.124  31.092   4.223
42497W        W 9565  28.657  41.845  11.128
42498W        W 9566   6.889  36.915   1.909
42499W        W 9567  40.475   9.357   2.240
42500W        W 9568  30.629  36.519   4.774
42501W        W 9569  33.992  23.608  12.894
42502W        W 9570   5.847  44.329  13.332
42503W        W 9571  29.661  41.823  13.063
42504W        W 9572  37.983  22.184   3.227
42505W        W 9573  37.069  15.785  11.436
42506W        W 9574  16.114  17.701  14.400
42507W        W 9575  17.229  31.485   2.195
42508W        W 9576  26.083  23.063  14.916
42509W        W 9577  12.733   8.836  14.393
42510W        W 9578   8.851   5.689  12.463
42511W        W 9579  33.480  29.525   3.383
42512W        W 9580   9.740  35.546  13.996
42513W        W 9581  21.681  34.561  14.513
42514W        W 9582   0.957   3.352   4.609
42515W        W 9583  12.781  31.646   3.315
42516W        W 9584  29.561  10.304   2.195
42517W        W 9585  13.606  15.248   0.351
42518W        W 9586  20.565  41.788  12.350
42519W        W 9587  40.424   8.309   2.863
42520W        W 9588  20.553   3.403   4.222
42521W        W 9589  15.264  23.547  11.857
42522W        W 9590   3.416  24.018  11.608
42523W        W 9591  44.282   5.787  12.960
42524W        W 9592  36.033  11.647  13.442
42525W        W 9593  31.412  21.602  13.003
42526W        W 9594   7.853  13.168   3.726
42527W        W 9595  27.533   7.841  12.551
42528W        W 9596  31.128  31.075   2.209
42529W        W 9597  10.787  25.552   1.763
42530W        W 9598   2.321  21.618  10.425
42531W        W 9599  33.564   6.275  12.930
42532W        W 9600  12.171  30.658  12.406
42533W        W 9601  34.528  21.121   3.364
42534W        W 9602  35.373  28.958  12.423
42535W        W 9603  44.966  38.365   0.758
42536W        W 9604  14.126  30.612  11.083
42537W        W 9605  16.076  14.749  14.803
42538W        W 9606  12.188  42.371  11.460
42539W        W 9607   0.987  27.547   1.868
42540W        W 9608  18.088   0.766  12.372
42541W        W 9609  26.986  16.223   3.719
42542W        W 9610   0.828  20.188  11.558
42543W        W 9611  24.679  26.170   2.768
42544W        W 9612  43.490  33.126   4.302
42545W        W 9613   1.433  22.108   4.743
42546W        W 9614   5.243  24.209  12.503
42547W        W 9615   6.723  15.109   1.823
42548W        W 9616  19.758  40.357  14.416
42549W        W 9617  15.735  10.866   4.662
42550W        W 9618  30.047  25.210  14.839
42551W        W 9619   8.655  39.829   0.847
42552W        W 9620  13.197  27.551  13.410
42553W        W 9621  37.964  20.206  14.914
42554W        W 9622   4.422  40.840   3.271
42555W        W 9623  35.493   0.950   2.401
42556W        W 9624  10.862  41.312   3.259
42557W        W 9625  21.136  24.044   4.297
42558W        W 9626  32.017  24.639   0.464
42559W        W 9627   4.360  26.096   3.177
42560W        W 9628   7.346  40.408  10.898
42561W        W 9629  41.848  42.030   4.725
42562W        W 9630   1.941   1.382   4.717
42563W        W 9631  33.975  16.601  12.927
42564W        W 9632  24.006  43.307  13.866
42565W        W 9633  38.477  15.581  10.417
42566W        W 9634  34.475   4.750  12.565
42567W        W 9635  33.542  21.595  11.549
42568W        W 9636   4.915  18.259  10.977
42569W        W 9637  30.574  24.177   1.301
42570W        W 9638  43.833  23.548  11.611
42571W        W 9639  32.984  34.371  12.862
42572W        W 9640  39.498  41.353   3.194
42573W        W 9641  15.297   2.811   3.822
42574W        W 9642  31.496   0.797  11.406
42575W        W 9643  13.690  40.454   1.444
42576W        W 9644  40.976  21.619   2.194
42577W        W 9645   4.445  38.456  14.846
42578W        W 9646  16.683  41.527  13.803
42579W        W 9647   0.972  16.152   4.114
42580W        W 9648  14.124  24.047  13.494
42581W        W 9649  33.915  29.495  12.930
42582W        W 9650  19.169  27.682   2.757
42583W        W 9651   8.810  24.219   2.363
42584W        W 9652   1.340  42.402  10.923
42585W        W 9653  14.274  36.519  10.471
42586W        W 9654   7.700   1.900   3.298
42587W        W 9655   5.217  29.548   1.923
42588W        W 9656  26.580  40.329   4.231
42589W        W 9657  28.156  30.443  11.095
42590W        W 9658  30.936  19.679  11.014
42591W        W 9659  12.197  40.460  10.966
42592W        W 9660   9.184  36.996  13.315
42593W        W 9661  13.606  15.594   1.913
42594W        W 9662  29.080  39.858  12.565
42595W        W 9663   1.319   9.648  11.605
42596W        W 9664  22.526  20.532  11.102
42597W        W 9665  25.524  42.969  10.621
42598W        W 9666   8.172  15.324   4.833
42599W        W 9667  22.146  41.874   2.345
42600W        W 9668  15.129   8.811   2.713
42601W        W 9669  34.015  35.055   3.285
42602W        W 9670  32.993  43.313   4.663
42603W        W 9671  28.472  16.299  10.415
42604W        W 9672  28.011   5.769   5.122
42605W        W 9673  12.222  21.166   3.677
42606W        W 9674  44.395   0.384   1.864
42607W        W 9675   1.789  38.067   1.766
42608W        W 9676   1.904   3.734   4.615
42609W        W 9677  32.001  12.727   0.909
42610W        W 9678  38.441   0.476  14.380
42611W        W 9679   6.336  22.517  12.340
42612W        W 9680  13.296  22.656   0.771
42613W        W 9681   8.812   3.911   2.352
42614W        W 9682  37.523  11.800   2.242
42615W        W 9683  34.600   6.704   1.745
42616W        W 9684  18.550  25.172  14.974
42617W        W 9685  20.583  31.478  12.040
42618W        W 9686  43.418  43.889   1.232
42619W        W 9687  34.971  38.526  12.445
42620W        W 9688  24.172   0.293  10.519
42621W        W 9689  31.078  36.411  12.476
42622W        W 9690  10.653  10.302  14.441
42623W        W 9691  30.432  25.167  11.070
42624W        W 9692  21.177  43.368   2.384
42625W        W 9693  34.108  12.824  11.003
42626W        W 9694   4.412   8.293   2.887
42627W        W 9695  22.232   2.881  11.476
42628W        W 9696   6.680  21.057  12.859
42629W        W 9697  18.187  30.493   4.265
42630W        W 9698  20.626   9.317   3.799
42631W        W 9699   1.924  24.583  10.584
42632W        W 9700  32.397   5.253  14.947
42633W        W 9701  43.503  31.026   0.416
42634W        W 9702   9.793   3.393  12.858
42635W        W 9703   5.236  18.186   4.313
42636W        W 9704   6.890   6.364   3.724
42637W        W 9705  39.982  37.530  12.502
42638W        W 9706  16.695  43.445   0.844
42639W        W 9707  18.675  42.993  14.460
42640W        W 9708  34.468  18.766   4.337
42641W        W 9709  39.460  30.911   3.706
42642W        W 9710   8.662  40.858  12.356
42643W        W 9711  29.133  25.080   0.315
42644W        W 9712  24.190  20.704  11.078
42645W        W 9713  44.955  39.511   3.317
42646W        W 9714  17.156  27.483  11.910
42647W        W 9715   2.446  14.786  13.996
42648W        W 9716  12.772   9.654  14.010
42649W        W 9717  32.954  15.735   2.222
42650W        W 9718  17.285  33.934  12.350
42651W        W 9719   9.321   1.869  12.349
42652W        W 9720  28.590   0.436  11.094
42653W        W 9721  29.090   7.397   3.183
42654W        W 9722  38.956  44.312  11.961
42655W        W 9723  38.447  30.541   0.412
42656W        W 9724   2.874   0.291   4.606
42657W        W 9725  43.859  40.799   3.293
42658W        W 9726   1.273  13.261  12.421
42659W        W 9727  26.152  44.874  12.419
42660W        W 9728  35.871  11.176  12.566
42661W        W 9729  13.816  17.725   1.322
42662W        W 9730  17.260  12.214   1.299
42663W        W 9731   5.758  37.423   2.288
42664W        W 9732  35.053  22.634   4.315
42665W        W 9733  44.321  20.234   0.383
42666W        W 9734  31.516  23.241   1.724
42667W        W 9735  36.578   5.318   3.842
42668W        W 9736  29.474  37.491  10.059
42669W        W 9737  24.212   3.451  10.930
42670W        W 9738   0.376  11.791  14.977
42671W        W 9739  26.568   4.824  11.420
42672W        W 9740  35.414  17.160  14.287
42673W        W 9741  37.871   6.704   4.711
42674W        W 9742  41.487  17.115  14.865
42675W        W 9743   3.449   7.219  12.077
42676W        W 9744   3.843  28.662  12.887
42677W        W 9745  22.217   0.485  10.512
42678W        W 9746  26.986  17.295  11.020
42679W        W 9747  30.939  30.106   2.848
42680W        W 9748  32.939  14.275  12.924
42681W        W 9749  41.953  16.168  13.364
42682W        W 9750   6.307   9.686  11.058
42683W        W 9751  23.567  13.192  12.840
42684W        W 9752  24.010  13.243  12.986
42685W        W 9753  33.080  16.695  13.935
42686W        W 9754   6.281  44.816   3.286
42687W        W 9755   8.876   0.823   0.375
42688W        W 9756   8.378  12.826   0.323
42689W        W 9757   8.267   6.232  11.388
42690W        W 9758  25.128  21.612   4.144
42691W        W 9759  41.392  44.981  11.387
42692W        W 9760  31.430  14.705   2.217
42693W        W 9761   5.696  29.112   4.728
42694W        W 9762   0.287  21.556   4.241
42695W        W 9763  29.663  36.447  10.420
42696W        W 9764  22.095  42.331  13.514
42697W        W 9765  37.909  13.742   3.219
42698W        W 9766  20.107  10.214   0.940
42699W        W 9767   1.929  19.069  10.526
42700W        W 9768   7.726   3.271  14.801
42701W        W 9769  21.195   1.415  13.920
42702W        W 9770  39.913  16.780   2.876
42703W        W 9771  28.972  12.207   1.853
42704W        W 9772  20.725  24.098   4.347
42705W        W 9773  18.238  28.976  13.843
42706W        W 9774  18.072  33.479   3.635
42707W        W 9775  18.704  29.670  10.549
42708W        W 9776  30.608  32.125  11.390
42709W        W 9777  37.555  19.555  13.945
42710W        W 9778  13.826  39.482   3.716
42711W        W 9779  18.620  27.564  13.855
42712W        W 9780  26.012   8.885   1.874
42713W        W 9781  15.328  10.763  11.864
42714W        W 9782   0.458  28.979  11.096
42715W        W 9783   2.740  37.492   1.242
42716W        W 9784  16.594  33.442   3.172
42717W        W 9785   3.741  32.447  12.565
42718W        W 9786   7.771  11.789  10.064
42719W        W 9787  36.959  12.135  14.389
42720W        W 9788  19.654  24.119  11.976
42721W        W 9789  18.167   4.875   3.658
42722W        W 9790   7.279   2.798   2.665
42723W        W 9791  27.058   6.762  11.405
42724W        W 9792  30.601  21.512   4.617
42725W        W 9793  27.608  24.107  12.832
42726W        W 9794  21.701  37.392  12.420
42727W        W 9795   7.316  41.023   2.288
42728W        W 9796  22.614  34.428   0.289
42729W        W 9797  33.411  41.807   0.478
42730W        W 9798  38.989  11.241  10.949
42731W        W 9799  29.461   7.342   3.307
42732W        W 9800  33.932  30.522  13.958
42733W        W 9801  39.970   6.347   3.714
42734W        W 9802  12.798   3.397   1.407
42735W        W 9803  28.535   9.174  13.461
42736W        W 9804  39.811   6.233   1.923
42737W        W 9805  20.768  35.458   0.270
42738W        W 9806  43.480  41.295   4.626
42739W        W 9807  22.554  43.472   3.821
42740W        W 9808  43.276  20.568  14.949
42741W        W 9809  29.632   6.380  12.457
42742W        W 9810   9.290   8.871  12.358
42743W        W 9811  40.918  12.348   4.319
42744W        W 9812   5.852  10.322  10.514
42745W        W 9813  33.558   6.299  12.525
42746W        W 9814  23.683  14.619   0.757
42747W        W 9815   1.787  36.994   3.680
42748W        W 9816  26.574  38.358   4.132
42749W        W 9817  34.374  34.471   2.893
42750W        W 9818  31.956  25.179  14.905
42751W        W 9819   4.278  14.818   2.810
42752W        W 9820  19.282  33.574   1.396
42753W        W 9821  24.479  11.865  14.883
42754W        W 9822  30.077  20.574   0.359
42755W        W 9823  13.287  16.675   3.684
42756W        W 9824  14.167  10.316   1.445
42757W        W 9825   5.908  16.623   9.961
42758W        W 9826   1.341  12.124  12.455
42759W        W 9827   0.493   9.856   2.260
42760W        W 9828  14.185  16.127  13.816
42761W        W 9829  35.559  11.640   3.343
42762W        W 9830  34.410   2.870  14.019
42763W        W 9831  29.979  21.245  12.032
42764W        W 9832  38.397  13.244   1.921
42765W        W 9833   0.867   1.289   0.426
42766W        W 9834  32.436  37.832   1.735
42767W        W 9835  44.775  30.065  11.589
42768W        W 9836  40.381   0.859  13.860
42769W        W 9837  27.085   3.909  11.044
42770W        W 9838  21.745  27.029   1.415
42771W        W 9839   5.868  26.497  13.510
42772W        W 9840  25.524  28.163   9.953
42773W        W 9841  27.015  16.751   3.365
42774W        W 9842  37.416  10.182  13.849
42775W        W 9843  33.124  25.679   1.246
42776W        W 9844   8.722  14.319   2.698
42777W        W 9845   6.218  44.834  11.075
42778W        W 9846  25.202  42.459  10.431
42779W        W 9847   3.950  35.548   0.942
42780W        W 9848   6.714  16.094  14.387
42781W        W 9849  24.719  35.912   4.664
42782W        W 9850   1.255  10.747   0.877
42783W        W 9851  33.570   4.877  13.414
42784W        W 9852  36.095   3.357   2.383
42785W        W 9853   5.833  10.189  14.815
42786W        W 9854   6.917  11.744   1.246
42787W        W 9855  27.656  41.025   3.224
42788W        W 9856  16.775  34.481  12.939
42789W        W 9857  31.041   0.290   1.223
42790W        W 9858  21.736  28.666   3.294
42791W        W 9859  35.429   3.768   3.825
42792W        W 9860  13.282  24.040  13.942
42793W        W 9861  12.760  32.632  10.413
42794W        W 9862  35.975  34.869   4.723
42795W        W 9863  23.673  39.967  12.023
42796W        W 9864  22.526  21.099   2.675
42797W        W 9865  32.063  39.035  12.842
42798W        W 9866  43.966  34.545  10.919
42799W        W 9867   0.954  24.510   3.827
42800W        W 9868  24.014  28.014  12.083
42801W        W 9869  42.941  11.156  11.015
42802W        W 9870  42.012  38.833   2.344
42803W        W 9871   6.766  36.097   3.317
42804W        W 9872   4.755  33.936  14.805
42805W        W 9873  24.681  23.600   4.678
42806W        W 9874  35.102  18.177  10.060
42807W        W 9875  17.236   2.241  14.488
42808W        W 9876  37.581   1.307  11.955
42809W        W 9877   3.947  19.657  10.968
42810W        W 9878  32.623  18.229  13.890
42811W        W 9879  19.615  22.083  14.329
42812W        W 9880   7.852  36.427  12.376
42813W        W 9881  42.023  33.431   1.758
42814W        W 9882  24.227  32.434  13.893
42815W        W 9883  41.819  20.244   0.877
42816W        W 9884  26.957  15.678   4.149
42817W        W 9885  34.909  26.980  12.865
42818W        W 9886   7.711   3.889  11.609
42819W        W 9887  22.177  31.436   4.776
42820W        W 9888  34.541  29.524   0.400
42821W        W 9889  23.720  29.082   4.646
42822W        W 9890  24.534  18.730   1.350
42823W        W 9891  25.010  18.292  13.927
42824W        W 9892  22.241  35.960   1.880
42825W        W 9893  39.367   7.792   2.835
42826W        W 9894  35.547   5.883   1.211
42827W        W 9895   1.259  41.505  11.973
42828W        W 9896   5.775   6.198   3.862
42829W        W 9897  37.913  42.985  12.387
42830W        W 9898  15.626  16.750  13.959
42831W        W 9899  40.450   2.862   1.384
42832W        W 9900   8.381   2.295   3.635
42833W        W 9901   9.683  10.678   0.852
42834W        W 9902   8.850  19.211   4.664
42835W        W 9903  10.310  42.287  11.945
42836W        W 9904  30.992  19.694  11.930
42837W        W 9905  15.731   1.301  13.369
42838W        W 9906  20.723   0.313  13.418
42839W        W 9907  41.833   8.238   3.289
42840W        W 9908  44.446  42.006  12.853
42841W        W 9909  19.122   8.781  14.765
42842W        W 9910  33.880  15.797  13.419
42843W        W 9911  14.095  31.430   2.836
42844W        W 9912  39.413   8.298   2.682
42845W        W 9913  39.484  35.399   2.372
42846W        W 9914  32.516  22.122  11.902
42847W        W 9915  17.718  20.615  13.477
42848W        W 9916  29.545  39.851   1.292
42849W        W 9917  13.283   1.832  13.016
42850W        W 9918  38.927  21.226  10.495
42851W        W 9919   2.281  12.685   1.777
42852W        W 9920  33.007  36.938   1.872
42853W        W 9921   5.920   9.889   3.308
42854W        W 9922  38.328  40.417  10.471
42855W        W 9923  23.538  17.626  14.301
42856W        W 9924  38.506  18.273  11.465
42857W        W 9925  27.633   7.297  13.395
42858W        W 9926  15.104   9.740   1.450
42859W        W 9927   0.440  20.202  11.520
42860W        W 9928  17.727  14.242   4.192
42861W        W 9929  21.206  41.497   5.269
42862W        W 9930   0.433   3.729   1.727
42863W        W 9931  26.164  43.831   0.446
42864W        W 9932   5.407   8.673  14.916
42865W        W 9933  20.740  22.091   4.307
42866W        W 9934  43.975   1.383  13.964
42867W        W 9935  28.485  27.539  14.451
42868W        W 9936  32.564  28.526  14.914
42869W        W 9937  13.755  34.883  12.962
42870W        W 9938  32.487  16.246   9.920
42871W        W 9939  33.922   8.788  11.038
42872W        W 9940   2.902  23.579   3.248
42873W        W 9941  35.929  36.380  14.945
42874W        W 9942  43.336  32.620   4.794
42875W        W 9943  42.946   7.887  12.016
42876W        W 9944  20.108  18.707  10.955
42877W        W 9945   9.348   4.809  10.466
42878W        W 9946   5.240  30.932   3.277
42879W        W 9947  36.846  34.055   4.794
42880W        W 9948  40.927  10.847  10.630
42881W        W 9949   9.737  32.545  14.018
42882W        W 9950  26.072  42.818   0.444
42883W        W 9951  27.605  36.584   2.856
42884W        W 9952   0.821   3.877   1.798
42885W        W 9953  36.056  39.328   1.704
42886W        W 9954  41.023  33.936   1.382
42887W        W 9955  41.038  34.930   1.881
42888W        W 9956  42.885  20.081  14.287
42889W        W 9957  29.939  13.756   1.892
42890W        W 9958  37.441  38.433   1.837
42891W        W 9959  18.089  10.226  14.359
42892W        W 9960  25.977   5.769   3.322
42893W        W 9961  35.449  33.417   4.249
42894W        W 9962  18.556  13.314  14.832
42895W        W 9963  22.233  13.193  11.057
42896W        W 9964  34.549   5.752  13.883
42897W        W 9965  27.097  44.954  13.308
42898W        W 9966  31.611  24.110   5.192
42899W        W 9967  43.362  17.765  13.537
42900W        W 9968  19.724  29.995   1.430
42901W        W 9969  42.922   6.834   4.314
42902W        W 9970  35.900  16.303  12.919
42903W        W 9971  17.577   7.779  12.369
42904W        W 9972  19.256   0.372  11.373
42905W        W 9973  28.604   9.836   4.129
42906W        W 9974   6.284  39.392   1.212
42907W        W 9975   2.275  27.971   1.802
42908W        W 9976   0.913   1.251  12.964
42909W        W 9977   0.754  18.788   1.404
42910W        W 9978  36.524   6.788   1.718
42911W        W 9979  32.057  19.767  11.897
42912W        W 9980   8.867  17.635   2.319
42913W        W 9981  24.008  44.388  13.828
42914W        W 9982   3.782  21.043  11.046
42915W        W 9983  26.692  22.246   0.850
42916W        W 9984  40.054   1.873   4.227
42917W        W 9985  43.379  23.519   4.661
42918W        W 9986  38.888  17.726   4.792
42919W        W 9987   9.303  28.043  14.809
42920W        W 9988   6.720  25.561  10.564
42921W        W 9989  34.863   4.837  12.381
42922W        W 9990  21.197  13.173  14.760
42923W        W 9991  39.409  10.298   1.414
42924W        W 9992   6.194  23.045  10.922
42925W        W 9993  43.848   8.267   0.246
42926W        W 9994  39.048  43.779   4.176
42927W        W 9995  40.865   3.344  11.438
42928W        W 9996  42.403  20.768  12.384
42929W        W 9997  14.293   5.894   0.769
42930W        W 9998  22.718   8.776   1.798
42931W        W 9999  20.232   7.807  12.491
42932W        W10000  15.647  31.150   4.662
42933W        W10001   4.877  44.807   3.329
42934W        W10002  18.281  20.191   3.855
42935W        W10003   8.772  32.461  14.808
42936W        W10004  10.823   9.650   3.804
42937W        W10005  36.945  36.094  11.883
42938W        W10006   9.200   8.691   3.222
42939W        W10007  35.927  30.509   0.330
42940W        W10008  32.033   0.931  13.536
42941W        W10009  33.054   8.159   2.180
42942W        W10010  15.628  37.454  11.070
42943W        W10011  16.745   4.426   4.764
42944W        W10012  16.691   9.767  13.925
42945W        W10013   8.815  40.373   2.383
42946W        W10014  17.219  24.485   0.419
42947W        W10015   6.257  37.511  11.015
42948W        W10016  27.652  18.662   3.652
42949W        W10017  16.735  28.042  13.466
42950W        W10018  43.868   7.678   2.808
42951W        W10019  42.398   8.352   1.759
42952W        W10020   9.838  27.611  12.355
42953W        W10021  10.796   2.749   4.224
42954W        W10022  43.926  24.579   4.640
42955W        W10023  21.709   0.940  14.460
42956W        W10024  31.522  40.824   1.448
42957W        W10025  40.933  13.836  11.580
42958W        W10026  15.711  12.657   2.198
42959W        W10027  26.149   3.327  10.565
42960W        W10028  39.049  38.002   1.751
42961W        W10029  43.995  34.116   2.243
42962W        W10030  38.929  12.156  14.321
42963W        W10031   8.890  10.812   1.435
42964W        W10032   1.389  41.016  12.516
42965W        W10033  41.462  33.882  12.836
42966W        W10034  38.945  37.464   3.723
42967W        W10035  19.225  34.496   2.867
42968W        W10036  29.601  16.755  10.610
42969W        W10037  40.421  34.918  13.343
42970W        W10038  17.071  33.612   2.813
42971W        W10039  21.192  31.054   1.440
42972W        W10040  39.951  19.169  14.871
42973W        W10041   6.685  44.866  14.861
42974W        W10042  18.639  39.416  12.516
42975W        W10043  28.492  36.846  10.919
42976W        W10044  23.602   7.240  11.575
42977W        W10045  28.640  34.095   0.265
42978W        W10046  36.845  37.342  10.921
42979W        W10047  41.005  24.230  14.391
42980W        W10048   5.902  11.234  14.794
42981W        W10049  24.993  21.074  11.967
42982W        W10050  34.516   6.797   0.854
42983W        W10051  44.293   8.669   1.275
42984W        W10052   3.935  13.739  12.556
42985W        W10053   7.844  40.797   4.320
42986W        W10054  17.148   7.369  14.924
42987W        W10055  28.660  24.191  13.948
42988W        W10056  42.350  27.446  11.962
42989W        W10057  12.834  16.605   0.778
42990W        W10058  31.953  24.718   2.214
42991W        W10059  20.744  42.316   2.396
42992W        W10060  35.600  12.653  13.902
42993W        W10061   0.801   0.491   3.382
42994W        W10062  36.413  32.574  11.528
42995W        W10063  17.604  29.009   3.308
42996W        W10064  13.624  15.225  12.562
42997W        W10065   8.362  22.708   3.862
42998W        W10066  25.110   8.805   1.726
42999W        W10067  12.287  44.907   1.245
43000W        W10068  25.658   0.261  12.877
43001W        W10069  25.571  30.977   1.224
43002W        W10070  44.959  34.017   2.401
43003W        W10071  32.603  11.321   0.774
43004W        W10072  25.604  33.506  11.405
43005W        W10073  44.991  30.447  12.890
43006W        W10074  44.839  21.715   2.841
43007W        W10075   5.910  44.838   4.824
43008W        W10076  29.537  22.509  13.921
43009W        W10077  11.220   1.271   2.257
43010W        W10078   3.849  22.628  13.870
43011W        W10079  20.079  15.298  12.431
43012W        W10080  12.820  11.629   2.833
43013W        W10081  34.479  26.023  13.008
43014W        W10082  35.913  44.867   1.298
43015W        W10083  35.108  21.221  11.070
43016W        W10084  10.792   5.357   4.299
43017W        W10085  31.418  41.987   2.890
43018W        W10086  16.213  18.706   4.296
43019W        W10087  26.552  17.086  10.641
43020W        W10088   9.176  18.237   4.316
43021W        W10089  28.004  16.714   2.763
43022W        W10090  36.058  35.434  14.402
43023W        W10091  19.559  16.737   1.805
43024W        W10092  15.128  31.507   3.197
43025W        W10093  38.525   3.807  12.981
43026W        W10094  12.730  34.503  13.027
43027W        W10095   4.405  39.347   2.321
43028W        W10096  26.504  33.057   1.913
43029W        W10097  32.994  38.827   4.643
43030W        W10098  33.957  32.603   0.349
43031W        W10099   5.801  13.840   3.631
43032W        W10100   3.855   8.309   1.905
43033W        W10101  22.204  20.238   1.363
43034W        W10102  35.396  38.361  14.849
43035W        W10103   8.391  34.463   1.433
43036W        W10104  33.989  32.976  10.940
43037W        W10105   6.849  17.129   3.775
43038W        W10106   2.264  15.084  13.334
43039W        W10107  27.089  36.091   2.365
43040W        W10108  14.261   2.862   4.703
43041W        W10109  37.946  16.613   3.266
43042W        W10110  12.352  18.618   3.356
43043W        W10111  24.609  35.890  12.399
43044W        W10112  38.031  43.813  13.803
43045W        W10113  39.835  37.362  13.472
43046W        W10114   2.249   8.739   2.359
43047W        W10115  15.778  35.426  14.846
43048W        W10116   5.850  14.132  14.781
43049W        W10117  28.039   1.446  12.364
43050W        W10118  20.526   8.330   0.801
43051W        W10119  18.104  14.179   1.776
43052W        W10120  40.511  31.534   1.708
43053W        W10121  19.549   6.381   2.237
43054W        W10122  43.801  42.876   4.292
43055W        W10123  26.661  21.231   0.326
43056W        W10124  11.210  38.460   3.798
43057W        W10125  39.003   9.191   0.896
43058W        W10126  27.456  27.098  14.404
43059W        W10127  13.338   0.838   9.504
43060W        W10128  43.473  31.569  13.965
43061W        W10129  18.050  12.277   0.426
43062W        W10130  29.613  44.322   0.385
43063W        W10131  14.607  38.880  12.397
43064W        W10132  31.955  36.530   2.384
43065W        W10133  36.393  10.335  12.005
43066W        W10134   6.274  11.144   0.245
43067W        W10135  21.212  17.659  13.956
43068W        W10136   9.784   8.874  13.885
43069W        W10137   7.256  17.651   3.347
43070W        W10138   8.747  35.913   4.648
43071W        W10139  28.978   7.886  14.979
43072W        W10140  18.142  17.294   3.197
43073W        W10141  22.507  31.091  11.101
43074W        W10142  11.215  43.276  13.998
43075W        W10143  23.103   6.329   4.725
43076W        W10144   6.696  14.626  12.523
43077W        W10145  14.332  32.983   1.734
43078W        W10146  13.281  24.662   1.385
43079W        W10147  16.743  12.169  11.436
43080W        W10148  14.239  40.821  13.313
43081W        W10149  42.423  20.075   1.354
43082W        W10150  15.205  21.711   3.846
43083W        W10151   2.311  13.315  14.471
43084W        W10152  24.061   7.795  10.494
43085W        W10153   9.395  19.704  10.537
43086W        W10154  44.424  37.459   4.116
43087W        W10155   5.719  31.571  14.410
43088W        W10156   8.852   7.829  12.832
43089W        W10157  15.779  13.793   1.309
43090W        W10158  38.437   0.338  14.957
43091W        W10159  39.822  40.400  10.419
43092W        W10160  28.081   6.827   5.264
43093W        W10161  42.433   2.735   0.247
43094W        W10162  17.212  36.998  14.948
43095W        W10163  22.065  31.032  12.968
43096W        W10164  42.518  35.857   0.256
43097W        W10165  36.353  12.145  14.998
43098W        W10166  23.544   3.877   3.274
43099W        W10167  17.735  27.094  12.516
43100W        W10168   8.820  31.944   3.754
43101W        W10169  24.520  28.987   0.473
43102W        W10170  13.147  39.489  12.541
43103W        W10171  35.855  43.330   1.292
43104W        W10172   8.184  31.085   4.176
43105W        W10173  31.123  10.869   3.199
43106W        W10174  35.068   6.308  13.354
43107W        W10175   1.857  16.109  12.351
43108W        W10176  25.070  35.949   3.334
43109W        W10177  40.849  25.614   1.727
43110W        W10178   5.693   1.254   3.827
43111W        W10179   8.340  34.558   0.774
43112W        W10180  19.717  20.054   3.675
43113W        W10181  12.176   9.327   3.364
43114W        W10182   0.321  30.460  14.333
43115W        W10183  34.997  41.531   4.646
43116W        W10184   8.230  32.487   1.707
43117W        W10185   4.897  37.893   4.780
43118W        W10186   7.172  12.223   2.216
43119W        W10187  39.047  32.009   0.267
43120W        W10188  20.125  10.350   4.187
43121W        W10189  20.531  32.061  14.913
43122W        W10190  25.520  25.670  12.930
43123W        W10191  36.542  38.560   0.470
43124W        W10192  22.708   6.285  12.916
43125W        W10193  41.980  27.968   1.240
43126W        W10194  33.504  37.492  12.986
43127W        W10195   2.385  19.537   0.868
43128W        W10196  40.822  16.286   3.865
43129W        W10197  20.621  36.368   1.272
43130W        W10198  35.918  16.308  11.464
43131W        W10199  16.226  33.956  13.008
43132W        W10200  44.432  19.203   1.835
43133W        W10201  28.064  41.804  14.845
43134W        W10202  40.525   3.777   1.331
43135W        W10203  13.616   1.381   2.263
43136W        W10204  15.607  24.563   2.341
43137W        W10205   0.391   2.759   2.819
43138W        W10206  41.356   0.896   3.245
43139W        W10207  41.488  42.826   0.461
43140W        W10208  11.179  40.871  12.522
43141W        W10209  20.041   3.378   9.989
43142W        W10210   5.730  12.615   2.724
43143W        W10211   1.842  33.011   3.276
43144W        W10212  27.087  15.589  13.884
43145W        W10213  39.926   6.834  14.313
43146W        W10214  28.014  29.646   3.683
43147W        W10215   7.697   8.657   3.693
43148W        W10216  10.276  30.025  12.826
43149W        W10217  36.098   7.671   0.860
43150W        W10218  38.978  32.005   0.822
43151W        W10219  31.051  41.867   1.816
43152W        W10220   5.209  23.112  11.564
43153W        W10221   8.719  44.922  10.573
43154W        W10222  17.292  29.969  11.940
43155W        W10223  19.056   7.745   2.708
43156W        W10224   9.753   6.210   3.320
43157W        W10225   9.773  11.360   3.264
43158W        W10226  19.046  19.071  11.080
43159W        W10227  32.087  22.532  12.070
43160W        W10228   0.798  24.140   1.424
43161W        W10229  41.804  20.188  14.795
43162W        W10230  20.729  34.059   4.789
43163W        W10231  21.577  41.801   5.134
43164W        W10232  43.852   2.816   4.636
43165W        W10233  18.724  36.875  12.070
43166W        W10234   9.253   1.858   3.372
43167W        W10235  22.070  42.794  12.944
43168W        W10236  32.951  33.981   4.335
43169W        W10237   6.322  37.523  14.780
43170W        W10238  21.041   1.828  10.148
43171W        W10239  42.473   6.827   3.723
43172W        W10240  14.781  36.957  14.897
43173W        W10241  40.510  12.235   4.787
43174W        W10242   6.374  42.003   2.193
43175W        W10243  13.720   0.815   0.951
43176W        W10244  19.218  26.035   4.256
43177W        W10245   2.851  21.515   2.330
43178W        W10246  37.936  41.476  10.964
43179W        W10247  18.672  11.841  11.570
43180W        W10248  30.976  36.845  11.547
43181W        W10249  43.853  14.825  14.430
43182W        W10250  11.848  27.055   1.444
43183W        W10251  22.239  34.893   3.263
43184W        W10252  36.522  42.314   0.350
43185W        W10253  37.844  41.016   2.269
43186W        W10254  19.255   1.971  13.869
43187W        W10255  27.041  41.855   0.271
43188W        W10256  36.969  32.956   1.844
43189W        W10257  16.146  17.710   1.888
43190W        W10258  43.801   0.823   4.761
43191W        W10259  38.393  17.727  14.315
43192W        W10260   1.298  30.433  13.018
43193W        W10261   8.778  29.038   2.368
43194W        W10262  26.978  17.728  13.434
43195W        W10263  34.420   7.307  12.507
43196W        W10264  29.944  22.516  14.499
43197W        W10265  14.676   3.277  10.889
43198W        W10266   2.380  28.499  14.515
43199W        W10267  33.103  41.923  10.426
43200W        W10268  20.070  44.820   3.250
43201W        W10269  27.455   1.787  11.964
43202W        W10270  42.285   9.695  12.836
43203W        W10271  27.055  14.146  13.445
43204W        W10272  24.169  25.000  12.497
43205W        W10273  33.004  28.995   0.261
43206W        W10274   6.727  35.071   1.710
43207W        W10275   1.294  34.538  12.536
43208W        W10276   5.703   7.174   4.686
43209W        W10277  28.175   5.225  13.822
43210W        W10278   2.724  25.623   2.892
43211W        W10279  21.538  29.527  13.337
43212W        W10280  21.660  19.776  11.124
43213W        W10281  24.064  33.497   5.173
43214W        W10282   9.836  41.498   4.638
43215W        W10283   3.872  36.012  12.549
43216W        W10284  42.880  43.918  12.953
43217W        W10285  25.021  12.806  14.804
43218W        W10286   6.729  31.494  13.875
43219W        W10287  24.041   7.253  10.553
43220W        W10288  43.506  10.651  14.314
43221W        W10289  16.763  40.049  12.997
43222W        W10290  44.846  37.019   0.742
43223W        W10291  28.167  35.981   3.682
43224W        W10292  23.020  20.581   1.842
43225W        W10293  39.834  24.224  11.969
43226W        W10294  32.915   5.316  14.843
43227W        W10295  20.604  36.405  13.416
43228W        W10296   8.736   8.334  10.503
43229W        W10297   7.892  24.610  13.031
43230W        W10298  24.597  43.959  11.462
43231W        W10299  35.454   8.398  12.057
43232W        W10300  19.281  44.475   3.300
43233W        W10301  18.180  14.704  14.776
43234W        W10302  40.813   8.356   2.820
43235W        W10303  25.617   4.438  10.461
43236W        W10304  20.251   7.313  12.066
43237W        W10305   4.886   3.909   0.870
43238W        W10306  16.684   2.738  11.008
43239W        W10307  18.141  10.231   3.269
43240W        W10308  19.074  34.909   3.651
43241W        W10309   2.339   4.384   0.310
43242W        W10310  25.480  33.964   3.147
43243W        W10311  21.618  41.812   4.153
43244W        W10312   7.246  15.268   4.128
43245W        W10313  20.604  34.374  10.467
43246W        W10314   6.256   4.835  14.029
43247W        W10315  30.553   7.841  12.509
43248W        W10316  26.982  39.542   4.737
43249W        W10317  35.549  42.924  13.833
43250W        W10318  31.545  18.170  14.788
43251W        W10319   5.427   3.834   2.350
43252W        W10320  20.527   6.833  12.037
43253W        W10321   0.306   0.753  10.492
43254W        W10322   0.967  32.129  14.824
43255W        W10323   7.765  27.167  11.995
43256W        W10324  37.082   8.400   3.852
43257W        W10325  36.891  38.871   0.863
43258W        W10326   0.312  15.762   0.873
43259W        W10327  12.138  32.500  12.493
43260W        W10328  12.130  22.650   2.854
43261W        W10329  12.739  33.607   4.645
43262W        W10330  11.252  40.368  13.815
43263W        W10331   3.769  44.272  11.919
43264W        W10332   8.256  15.231  10.617
43265W        W10333  12.243  13.235  10.965
43266W        W10334  40.452  35.953   3.840
43267W        W10335  34.440  32.104  10.889
43268W        W10336  34.569  16.576  11.374
43269W        W10337   0.271  28.528  12.467
43270W        W10338  37.420  42.791   1.286
43271W        W10339  16.124   3.378   3.661
43272W        W10340  31.443   0.390  14.436
43273W        W10341  29.534  10.167  13.035
43274W        W10342   6.246  30.915  12.462
43275W        W10343  29.565  35.893  10.888
43276W        W10344  36.021  21.211   1.790
43277W        W10345  27.072  43.429   2.274
43278W        W10346  29.482  12.135  10.898
43279W        W10347  10.274  11.840  14.766
43280W        W10348   6.723  33.985   0.769
43281W        W10349  34.020   8.216  12.520
43282W        W10350  13.749  10.160   0.823
43283W        W10351  43.437  34.594   2.730
43284W        W10352  11.341  16.198   0.965
43285W        W10353  37.958   5.271  10.587
43286W        W10354  39.433  25.042  13.797
43287W        W10355  10.671  27.456  14.019
43288W        W10356   1.421  38.925  13.389
43289W        W10357   9.331   7.174  14.773
43290W        W10358   6.910  16.112   2.677
43291W        W10359   7.367  32.123   2.411
43292W        W10360  12.800  32.896   0.778
43293W        W10361  39.495  10.876  14.466
43294W        W10362   6.694  38.371  10.491
43295W        W10363  28.661  22.020   0.439
43296W        W10364   0.382  26.207   2.239
43297W        W10365  40.916   6.255   3.217
43298W        W10366  30.053  18.635  13.835
43299W        W10367  19.648   1.249  14.959
43300W        W10368  17.236  42.357   2.833
43301W        W10369  42.836  37.042  13.511
43302W        W10370   2.452  38.441   1.251
43303W        W10371  26.111   3.775   4.605
43304W        W10372  43.413  10.845   1.250
43305W        W10373  24.145  39.929  13.013
43306W        W10374  10.312  11.154  10.908
43307W        W10375   3.873  12.207   2.332
43308W        W10376  19.622   4.919  14.306
43309W        W10377  21.222   2.832   1.701
43310W        W10378  25.040   8.677  13.839
43311W        W10379  24.064   0.267  12.889
43312W        W10380  14.210   6.337  11.928
43313W        W10381  36.433  43.821  12.478
43314W        W10382  25.660  40.441  11.862
43315W        W10383   6.185  27.653   4.713
43316W        W10384  29.013  35.515   3.702
43317W        W10385   6.735  42.911   4.263
43318W        W10386   1.290  42.997   2.759
43319W        W10387  22.997  19.166   1.355
43320W        W10388  33.560   0.910   4.742
43321W        W10389  44.441  19.204  14.438
43322W        W10390  32.043   9.720  11.958
43323W        W10391  15.307  12.833  14.465
43324W        W10392  15.818   6.276  13.982
43325W        W10393   8.770  44.346   0.460
43326W        W10394   4.737   7.910   4.291
43327W        W10395  16.180   1.272   3.793
43328W        W10396   6.190  32.096   3.157
43329W        W10397  33.434  26.076  12.958
43330W        W10398  19.237  38.383   0.427
43331W        W10399  30.616  22.171   3.330
43332W        W10400  27.660  30.627  14.404
43333W        W10401  30.107  24.159  14.320
43334W        W10402   1.881   1.457  13.918
43335W        W10403  43.401   7.831  13.056
43336W        W10404  43.868  11.691  13.825
43337W        W10405  10.788  27.509  13.419
43338W        W10406  27.141  40.957  12.990
43339W        W10407  11.826  40.802  14.392
43340W        W10408  17.161  32.915  13.868
43341W        W10409  41.871   7.711  13.791
43342W        W10410  21.076  28.547   2.199
43343W        W10411  21.719  34.575  13.428
43344W        W10412  19.748  44.775   2.258
43345W        W10413  41.963  25.069  12.468
43346W        W10414  35.403  35.460  11.015
43347W        W10415  23.716   8.325  11.425
43348W        W10416  33.578  38.397   4.258
43349W        W10417   5.361   6.197   2.340
43350W        W10418   8.275  30.615  10.502
43351W        W10419  22.611  43.986  10.993
43352W        W10420  27.676  19.074   4.773
43353W        W10421  20.546   4.789  10.502
43354W        W10422  34.045  30.970  11.960
43355W        W10423   0.479  30.946   4.280
43356W        W10424   3.834  17.200   3.321
43357W        W10425  17.160  30.618   3.218
43358W        W10426  38.868  43.010  13.012
43359W        W10427   8.885  38.442   1.723
43360W        W10428   3.938   1.843   1.718
43361W        W10429  13.619   1.731  11.572
43362W        W10430   8.799   3.794  11.406
43363W        W10431  43.417  36.530   0.936
43364W        W10432  19.648  27.464  14.994
43365W        W10433  22.020  22.673   0.273
43366W        W10434  29.455  41.476   4.244
43367W        W10435   6.380   7.715   0.453
43368W        W10436  14.226  42.492  12.049
43369W        W10437  30.553   4.250   2.687
43370W        W10438  12.760  43.971  12.087
43371W        W10439  34.902  30.530   9.973
43372W        W10440  28.077  31.959   4.763
43373W        W10441  24.035   5.883  14.807
43374W        W10442  39.023  14.221   2.191
43375W        W10443   0.279  12.656  10.996
43376W        W10444  33.557  44.840  11.121
43377W        W10445  41.477   0.937  14.426
43378W        W10446  41.811  22.138   3.341
43379W        W10447  26.594  23.702   1.922
43380W        W10448  25.565   3.927  11.913
43381W        W10449  15.637  43.413  11.888
43382W        W10450  11.840  38.024  12.885
43383W        W10451  24.509   6.719  14.464
43384W        W10452   0.379  13.176   0.863
43385W        W10453  28.021  24.226  10.557
43386W        W10454  15.691  38.555  14.901
43387W        W10455  26.030   6.891  12.012
43388W        W10456   6.309  44.377   2.396
43389W        W10457  33.547  37.563   0.263
43390W        W10458  23.578  36.043  13.327
43391W        W10459  32.471  12.665   4.115
43392W        W10460  13.130  10.251   0.393
43393W        W10461   6.872  44.838  12.095
43394W        W10462  30.109  17.579  11.492
43395W        W10463  14.207  34.106  10.517
43396W        W10464  21.136  38.836   4.226
43397W        W10465  40.811  23.005   1.302
43398W        W10466  10.786   7.868   1.421
43399W        W10467  11.156  23.531   1.840
43400W        W10468  30.557  42.867   3.292
43401W        W10469  42.284  12.354  11.451
43402W        W10470  17.079   5.781   4.727
43403W        W10471  11.219  32.986  12.002
43404W        W10472  16.688  24.574  14.363
43405W        W10473  14.795  41.458   0.834
43406W        W10474  30.157  16.680   1.325
43407W        W10475   8.314  32.907   3.366
43408W        W10476  13.275  44.775   3.276
43409W        W10477  23.997  43.844   4.165
43410W        W10478   7.401  44.871  11.983
43411W        W10479  24.547   5.339   2.217
43412W        W10480  25.480  44.285   0.300
43413W        W10481  30.587  39.356   4.698
43414W        W10482  15.157  25.712   0.928
43415W        W10483  30.598  33.999  12.902
43416W        W10484  34.464  32.923  11.128
43417W        W10485  31.975  31.023   0.913
43418W        W10486  32.532  20.259   3.146
43419W        W10487  38.566   4.427   3.368
43420W        W10488  37.986  13.258  11.410
43421W        W10489  14.100  40.860  11.037
43422W        W10490  16.784  21.580  11.108
43423W        W10491  44.276  30.113  12.550
43424W        W10492   8.167  44.414  10.544
43425W        W10493  33.956  30.923  11.404
43426W        W10494  21.261   2.252   1.858
43427W        W10495  18.787  25.682  11.424
43428W        W10496  21.137  29.518   4.719
43429W        W10497  31.448  34.409   4.702
43430W        W10498  35.569   4.287  12.465
43431W        W10499   2.241  38.385  11.374
43432W        W10500  20.078  24.016  13.920
43433W        W10501  15.643   0.248   1.262
43434W        W10502   5.931  21.619   2.741
43435W        W10503  21.223  44.341   0.479
43436W        W10504  35.428  11.865   4.128
43437W        W10505  11.698  21.689   0.385
43438W        W10506  33.419  37.570  11.568
43439W        W10507   6.225  38.960  14.327
43440W        W10508  10.784   8.399   2.363
43441W        W10509  26.703   2.904   2.737
43442W        W10510  38.404  37.503  14.345
43443W        W10511   2.896   3.931  12.854
43444W        W10512   3.779  30.417  13.484
43445W        W10513  37.943   0.777   4.168
43446W        W10514   3.874  28.003   4.210
43447W        W10515  22.192  24.167  13.853
43448W        W10516  28.515  40.020  11.956
43449W        W10517  38.863   8.337   2.666
43450W        W10518  31.645  40.529  12.945
43451W        W10519   1.427  33.536   3.327
43452W        W10520  11.691  31.013  11.066
43453W        W10521  15.291  26.158  12.552
43454W        W10522  34.533   8.815   2.862
43455W        W10523  44.821  10.354   0.936
43456W        W10524  35.557  17.580   4.224
43457W        W10525   0.887  32.508   0.780
43458W        W10526  42.787  23.048  12.896
43459W        W10527   9.149  28.464   2.713
43460W        W10528  30.532  14.240  12.462
43461W        W10529  36.412   8.343   0.802
43462W        W10530   0.479  39.963  11.062
43463W        W10531  13.617  35.909   4.636
43464W        W10532  41.899  16.784  12.887
43465W        W10533   9.219  19.185   0.822
43466W        W10534  43.004  42.843  12.936
43467W        W10535   6.290   6.790  12.449
43468W        W10536  43.282  36.575   4.158
43469W        W10537  41.426  42.489   0.424
43470W        W10538   5.887  44.273  11.929
43471W        W10539  18.261  25.202  11.556
43472W        W10540  21.566  12.634  14.511
43473W        W10541   2.351  33.022  13.012
43474W        W10542  26.093  35.049   1.319
43475W        W10543  19.768  36.017   1.397
43476W        W10544  22.689  19.554  12.565
43477W        W10545  39.442  38.990  10.635
43478W        W10546   3.749  25.575   2.190
43479W        W10547   9.187   6.769  10.942
43480W        W10548  38.421   7.832   4.611
43481W        W10549  15.703  31.498   1.710
43482W        W10550  26.565   9.330   0.448
43483W        W10551  33.469  24.149  12.533
43484W        W10552   3.855  29.959   4.164
43485W        W10553  41.474  32.951  12.056
43486W        W10554  33.952  14.321  14.838
43487W        W10555  11.827  22.070   3.282
43488W        W10556  29.465  19.557   3.668
43489W        W10557   8.319   1.754  13.884
43490W        W10558  20.235  39.990   2.894
43491W        W10559   0.968  21.674   2.371
43492W        W10560  42.473  41.331  10.944
43493W        W10561  29.509  37.989   1.773
43494W        W10562   3.403  22.134   1.806
43495W        W10563   9.230  23.500   1.712
43496W        W10564  35.094  13.197  11.877
43497W        W10565  17.215  22.246   3.280
43498W        W10566   4.891  33.937   3.713
43499W        W10567   2.731  44.378   1.324
43500W        W10568  18.568  29.605  14.290
43501W        W10569   9.267  18.229  13.423
43502W        W10570   6.833  32.078   0.309
43503W        W10571  20.205  24.721  13.477
43504W        W10572  30.026  18.588   1.700
43505W        W10573  35.373   2.744   4.809
43506W        W10574  30.016  35.410  12.383
43507W        W10575  34.429  23.546  11.487
43508W        W10576  17.203  39.009  12.386
43509W        W10577   8.776  26.483  14.281
43510W        W10578   8.820   8.887  10.616
43511W        W10579  13.252  22.638  11.980
43512W        W10580  32.512   4.430   3.180
43513W        W10581   4.267   9.294   0.802
43514W        W10582  31.056  41.424   2.338
43515W        W10583  11.643   0.765   0.328
43516W        W10584   6.401  13.249   3.823
43517W        W10585  22.527   7.860   4.252
43518W        W10586  42.878   1.341   0.963
43519W        W10587  21.745   0.353  14.950
43520W        W10588  12.293  42.025  11.975
43521W        W10589   7.383  26.136   1.800
43522W        W10590  21.129   2.289   0.273
43523W        W10591   5.256  11.756   3.289
43524W        W10592  24.509  42.383  12.942
43525W        W10593   1.481  15.805   0.316
43526W        W10594  17.755   0.977   1.740
43527W        W10595  33.099  30.972  14.479
43528W        W10596  14.680   3.893   4.738
43529W        W10597  43.496  29.574   4.662
43530W        W10598  20.640  35.087  10.493
43531W        W10599  35.603  17.214  13.892
43532W        W10600  35.045  14.624  13.469
43533W        W10601  42.943  32.117  10.469
43534W        W10602  22.693   6.792   4.811
43535W        W10603  18.278   6.683   0.891
43536W        W10604  27.002  37.943  14.341
43537W        W10605  41.341  34.958   2.224
43538W        W10606   3.744  36.023  14.366
43539W        W10607  16.251  42.850  10.530
43540W        W10608  28.676  10.786   0.928
43541W        W10609  44.859  23.624   1.285
43542W        W10610  32.610  29.497  11.384
43543W        W10611   1.868  22.554  14.283
43544W        W10612  44.816  40.549   0.293
43545W        W10613  28.991  10.779   0.457
43546W        W10614  17.617  28.152   1.806
43547W        W10615  29.473   8.809  14.975
43548W        W10616  30.133  12.809   2.843
43549W        W10617  24.542  35.051  13.531
43550W        W10618  43.360  30.634  11.079
43551W        W10619  25.192   1.383   0.775
43552W        W10620  13.154  32.914   0.872
43553W        W10621  19.622  32.448   4.807
43554W        W10622  44.989  19.779   4.159
43555W        W10623  31.434   0.301   2.827
43556W        W10624  17.221   1.446  10.554
43557W        W10625  12.617  29.627   2.307
43558W        W10626   9.870  32.582   2.301
43559W        W10627  13.123   0.342   2.810
43560W        W10628  12.704  37.342   0.816
43561W        W10629  43.951   6.343   2.739
43562W        W10630  25.593  21.737   3.269
43563W        W10631  25.520   9.876   4.335
43564W        W10632  42.834  21.076  10.425
43565W        W10633  25.159  35.577   3.846
43566W        W10634  33.596  41.459  12.969
43567W        W10635  17.773  37.565   3.361
43568W        W10636  44.816  11.324  14.432
43569W        W10637  32.422   6.901  10.515
43570W        W10638  43.309  37.026   4.339
43571W        W10639  12.161  12.745   1.923
43572W        W10640  40.313  14.165  11.415
43573W        W10641  29.027  26.172   2.361
43574W        W10642  14.259   7.800  13.531
43575W        W10643  23.051   8.376   4.604
43576W        W10644  13.111  26.587   4.212
43577W        W10645  27.484  41.000   1.334
43578W        W10646  38.341   6.893  11.392
43579W        W10647  24.481   2.825  12.060
43580W        W10648  38.893   6.764   4.290
43581W        W10649  23.157  39.384   3.249
43582W        W10650  38.465  17.261   3.706
43583W        W10651  38.515  32.909  13.500
43584W        W10652   4.250   3.769   1.407
43585W        W10653  23.130  42.378  14.921
43586W        W10654  16.199  39.854  13.461
43587W        W10655  15.578   2.913   2.238
43588W        W10656   3.894  12.142  14.387
43589W        W10657   8.235   1.836  12.961
43590W        W10658  30.554  42.482   0.773
43591W        W10659  16.084  14.185   2.278
43592W        W10660  33.514  18.176  13.034
43593W        W10661  25.109  41.792  14.827
43594W        W10662  29.099  32.515  14.784
43595W        W10663   7.795  30.528   4.835
43596W        W10664   9.175  38.975   3.204
43597W        W10665  36.015  16.709  14.788
43598W        W10666   0.767   4.737   4.679
43599W        W10667  28.634  19.214   3.245
43600W        W10668  37.981  18.612   0.941
43601W        W10669  21.116   1.273  11.022
43602W        W10670  41.805   6.340   4.124
43603W        W10671  44.767  40.952   3.305
43604W        W10672  15.231  42.813  10.598
43605W        W10673   1.251  11.676  11.473
43606W        W10674  26.616   9.754  11.386
43607W        W10675  41.929  21.149   2.831
43608W        W10676  29.157   1.741   3.736
43609W        W10677  10.679  10.748  10.579
43610W        W10678  31.075  16.113  13.062
43611W        W10679  19.118   8.170   3.218
43612W        W10680  43.367  35.376   4.812
43613W        W10681  14.194   6.883  12.036
43614W        W10682  26.665   0.877   1.915
43615W        W10683  44.402  11.374  10.044
43616W        W10684  32.603  31.562  14.382
43617W        W10685  38.517  32.010   1.920
43618W        W10686   7.739  41.830  13.012
43619W        W10687  34.503  35.439   2.206
43620W        W10688  41.456  31.482  14.462
43621W        W10689  13.829   6.248   1.860
43622W        W10690  35.964  44.925  14.985
43623W        W10691  12.857   9.239  11.382
43624W        W10692   6.824   8.341   0.735
43625W        W10693  25.511  18.763  12.920
43626W        W10694  25.972   5.759   4.155
43627W        W10695  44.385  11.147   2.682
43628W        W10696  17.276  41.879  14.781
43629W        W10697  17.193  19.133   4.330
43630W        W10698  21.088  28.175   0.833
43631W        W10699  26.982  25.035   4.333
43632W        W10700  34.110  25.074   3.853
43633W        W10701  18.623  18.568   1.331
43634W        W10702  14.610  19.187   3.752
43635W        W10703  18.657  25.077   3.854
43636W        W10704  33.112  39.423   4.132
43637W        W10705  12.229   5.783   0.391
43638W        W10706  36.842  19.048  11.480
43639W        W10707  33.443   8.397   0.793
43640W        W10708  33.875  23.496   2.183
43641W        W10709   8.328  24.495  12.424
43642W        W10710  22.050  42.782  13.975
43643W        W10711  15.693   7.298   0.897
43644W        W10712  25.607  29.437   4.141
43645W        W10713   0.907  34.933   2.190
43646W        W10714  15.649  32.441  11.989
43647W        W10715   1.860   9.264   0.413
43648W        W10716  33.977  21.686   0.462
43649W        W10717   5.288   2.883  14.782
43650W        W10718   1.483  26.202  10.894
43651W        W10719   8.396  44.801   3.718
43652W        W10720  42.466   1.465   4.615
43653W        W10721  25.521   2.910   1.698
43654W        W10722   4.318  31.463   2.851
43655W        W10723  15.300  26.546   3.803
43656W        W10724  18.242   2.328  12.987
43657W        W10725  13.784  43.428   1.705
43658W        W10726  25.098   6.357   3.383
43659W        W10727  22.156  35.593  13.507
43660W        W10728  23.179  11.684   3.164
43661W        W10729  40.440  33.622   1.884
43662W        W10730  20.089   1.355  13.396
43663W        W10731  31.611  13.642   0.369
43664W        W10732   8.892  40.841  13.416
43665W        W10733   8.275  30.506  13.440
43666W        W10734  25.574   7.877   4.708
43667W        W10735  41.488   5.812   3.759
43668W        W10736  16.157  26.697  12.849
43669W        W10737  13.209  13.616   0.482
43670W        W10738  18.702  43.892   3.352
43671W        W10739  25.176  38.404   0.368
43672W        W10740  41.426  32.897  13.351
43673W        W10741   9.372  37.081   0.768
43674W        W10742  36.557  37.873   2.241
43675W        W10743  20.634   3.823   0.452
43676W        W10744  38.046   9.340   0.469
43677W        W10745  19.677  22.056   0.374
43678W        W10746  41.496  42.337  13.907
43679W        W10747  37.544  36.572  10.511
43680W        W10748  26.067  40.473  13.929
43681W        W10749  25.132  35.864  11.379
43682W        W10750  36.076  27.667  14.831
43683W        W10751  37.065  30.070  10.982
43684W        W10752  38.013  14.327   0.900
43685W        W10753  12.306  38.057  13.513
43686W        W10754  21.741  28.476  13.365
43687W        W10755  42.890   9.811  13.864
43688W        W10756  42.328  25.602   3.207
43689W        W10757  10.672  23.192   1.919
43690W        W10758   4.367  41.806  14.469
43691W        W10759  33.462  32.971   3.162
43692W        W10760  12.708  38.878   0.768
43693W        W10761  41.362   5.238   3.652
43694W        W10762   7.277  24.220   0.473
43695W        W10763  43.898  30.566   4.765
43696W        W10764  15.143  29.161  10.926
43697W        W10765   8.803  27.014   3.378
43698W        W10766  37.000  15.202   2.249
43699W        W10767  38.015  32.117   5.257
43700W        W10768  25.670  23.634  12.844
43701W        W10769  32.020  44.491   0.828
43702W        W10770  24.667  37.500  12.399
43703W        W10771  41.854  28.171   4.141
43704W        W10772  24.190  22.516  14.864
43705W        W10773   1.868  44.464  11.486
43706W        W10774  18.147  40.914   4.230
43707W        W10775  33.064   6.754   4.206
43708W        W10776  20.554  11.156   2.230
43709W        W10777  13.782  34.937   0.431
43710W        W10778  33.955   1.785  14.487
43711W        W10779  36.969  12.221  11.954
43712W        W10780   6.405  43.319   3.322
43713W        W10781   9.242  15.163   1.441
43714W        W10782   0.465  36.095   0.374
43715W        W10783  28.947  39.444   1.324
43716W        W10784  39.455  42.003  12.439
43717W        W10785  25.017  32.578   0.326
43718W        W10786  38.075   5.400  14.306
43719W        W10787   4.329  10.875   4.805
43720W        W10788  16.102  26.128  11.520
43721W        W10789   7.393  20.670  14.303
43722W        W10790  38.941  28.007  11.870
43723W        W10791  37.511  10.635   4.665
43724W        W10792  23.986  12.739   0.757
43725W        W10793  34.035  26.111   2.831
43726W        W10794  29.933  12.282  10.932
43727W        W10795  23.718  32.103   3.327
43728W        W10796  14.646  31.498   4.282
43729W        W10797  30.546  31.044   2.200
43730W        W10798  15.660  41.325  11.114
43731W        W10799  16.711   4.411  14.404
43732W        W10800  18.216   6.266  11.039
43733W        W10801   3.216  23.115   1.386
43734W        W10802  40.427  37.376   1.296
43735W        W10803  28.658  19.625   3.741
43736W        W10804  43.972  23.547   1.826
43737W        W10805  12.701   4.726   2.340
43738W        W10806  14.285   1.774   4.722
43739W        W10807  33.393  38.326  10.561
43740W        W10808  29.991  24.725   4.154
43741W        W10809  10.663  40.373  12.372
43742W        W10810  23.669  39.837  11.554
43743W        W10811   4.883  32.119  12.532
43744W        W10812  28.651   3.869  10.976
43745W        W10813  35.998  13.812   3.750
43746W        W10814  24.994  44.425  11.914
43747W        W10815  35.590  30.924   0.911
43748W        W10816  32.416   1.465  13.796
43749W        W10817  30.444  27.630   1.903
43750W        W10818  38.889  17.252  10.431
43751W        W10819  44.347   3.923   0.277
43752W        W10820   2.428  14.626  14.807
43753W        W10821  21.609   1.358   0.796
43754W        W10822  30.486  11.753   4.763
43755W        W10823  14.727  31.014   1.217
43756W        W10824  31.578  16.706   0.777
43757W        W10825   8.708  28.611  12.011
43758W        W10826   6.794  12.775  11.067
43759W        W10827  29.147  33.879   1.924
43760W        W10828  10.876   9.662  12.362
43761W        W10829  31.990  10.764   0.936
43762W        W10830  41.829   6.786   4.675
43763W        W10831  10.249  27.585  13.913
43764W        W10832  14.597  13.278  12.901
43765W        W10833  20.617  20.128   3.296
43766W        W10834  32.108  39.963   3.194
43767W        W10835  14.312  23.556   4.707
43768W        W10836   5.288  32.119  11.959
43769W        W10837  11.649  17.131   4.784
43770W        W10838   7.759  34.965   0.426
43771W        W10839  16.173  11.197  14.974
43772W        W10840  28.179  23.088  11.568
43773W        W10841  39.396  41.497  12.038
43774W        W10842   6.707  35.021  13.943
43775W        W10843  10.787   1.974  11.561
43776W        W10844  23.995  35.447   0.426
43777W        W10845  39.435  32.423   3.827
43778W        W10846  44.280  28.530   2.277
43779W        W10847   6.414   8.286   1.799
43780W        W10848  44.866   6.816  10.903
43781W        W10849  41.022  12.288  12.866
43782W        W10850  13.290  44.890   1.219
43783W        W10851  32.110  15.185  11.069
43784W        W10852  11.679  38.385  13.506
43785W        W10853  11.821   3.434   4.606
43786W        W10854  18.185  37.402  10.517
43787W        W10855  25.472   8.387   2.229
43788W        W10856  44.339  29.471  14.862
43789W        W10857  40.406  21.191   2.213
43790W        W10858  14.629  28.677  14.278
43791W        W10859   5.434   5.709  10.536
43792W        W10860   0.467  20.061   2.331
43793W        W10861   4.716  23.502   2.178
43794W        W10862  43.935  35.458   0.346
43795W        W10863   2.289  37.866  10.565
43796W        W10864  36.573  26.992  13.491
43797W        W10865  35.001  12.816  11.473
43798W        W10866  28.019  29.059  13.419
43799W        W10867   3.255   7.759   4.268
43800W        W10868  10.737  11.666  13.398
43801W        W10869  10.381  33.623   0.352
43802W        W10870   0.482  43.912  14.847
43803W        W10871  41.470  25.493  10.939
43804W        W10872  13.680   8.806   1.269
43805W        W10873  31.062   7.843   2.252
43806W        W10874   0.820   6.333  14.453
43807W        W10875  24.525  38.978   2.714
43808W        W10876   7.847  16.228  13.447
43809W        W10877  21.166  17.737   2.730
43810W        W10878  19.706  21.709   4.821
43811W        W10879   2.422  26.056  14.894
43812W        W10880  44.495  37.069  14.772
43813W        W10881  11.626  27.683  13.535
43814W        W10882   0.347  34.912   1.368
43815W        W10883   8.272  37.533   0.362
43816W        W10884  11.786  42.425  13.830
43817W        W10885  43.824   6.262   1.898
43818W        W10886  14.732  28.627  10.614
43819W        W10887  15.123  40.500  10.431
43820W        W10888  12.228  29.436  13.411
43821W        W10889  44.267  12.659   0.364
43822W        W10890  11.336  23.101   3.251
43823W        W10891  18.747  29.986   3.784
43824W        W10892  22.660  17.669  14.465
43825W        W10893  44.498  41.951  11.436
43826W        W10894  36.506   0.777   2.391
43827W        W10895  24.005  32.004   2.376
43828W        W10896  31.984  33.443  13.324
43829W        W10897  17.733  32.978   4.150
43830W        W10898  37.913  34.923  11.427
43831W        W10899   3.234  12.290  12.444
43832W        W10900  34.395  12.324  14.893
43833W        W10901  29.065  34.045   4.328
43834W        W10902  41.839   8.266  11.079
43835W        W10903  10.350   6.775   4.837
43836W        W10904  22.659  37.878   3.361
43837W        W10905  28.985  44.008  10.977
43838W        W10906   8.864  44.496   2.282
43839W        W10907   3.255  37.513   1.907
43840W        W10908  31.902  40.497   2.280
43841W        W10909  43.962  19.664  12.848
43842W        W10910  40.426  13.606   1.264
43843W        W10911  19.560   1.888   1.295
43844W        W10912  26.072  33.114   2.861
43845W        W10913  33.954  41.024  11.414
43846W        W10914   8.877   1.260  11.949
43847W        W10915  30.486   6.313  11.982
43848W        W10916  30.491   7.887  12.972
43849W        W10917  41.488   4.771  11.484
43850W        W10918  12.746  37.515  12.500
43851W        W10919   0.299  36.944  13.057
43852W        W10920  11.319  12.308   2.800
43853W        W10921  25.124  43.283  11.107
43854W        W10922  23.550  23.189  11.877
43855W        W10923   3.392  23.493   3.167
43856W        W10924  42.802  21.175  14.321
43857W        W10925  39.973  19.074   4.788
43858W        W10926  35.419  13.320   0.298
43859W        W10927  10.174  13.831   0.950
43860W        W10928  35.914   3.424  10.892
43861W        W10929  26.179  25.681   0.743
43862W        W10930  10.260  38.885  12.425
43863W        W10931  11.768  17.603  10.959
43864W        W10932  23.637   2.812  11.541
43865W        W10933  42.448  36.452   1.819
43866W        W10934   4.356  35.522  12.578
43867W        W10935  14.249  14.298  11.949
43868W        W10936  41.367  22.009  14.397
43869W        W10937  38.378  23.674   2.276
43870W        W10938   4.824  15.140  10.930
43871W        W10939  25.480  29.928  11.580
43872W        W10940   4.209  31.562   4.800
43873W        W10941  24.204  38.330   2.294
43874W        W10942  23.195  28.960   1.332
43875W        W10943  21.680  20.193  13.871
43876W        W10944   1.852  18.646   2.683
43877W        W10945   4.923  20.679  12.858
43878W        W10946  21.159  30.435  10.079
43879W        W10947  39.320  13.839   2.895
43880W        W10948  38.440  42.295  13.970
43881W        W10949   9.344  12.700  10.921
43882W        W10950   1.337  42.820  14.936
43883W        W10951  22.252  41.506  13.926
43884W        W10952   8.227   8.733  12.072
43885W        W10953  30.148  42.419  10.497
43886W        W10954   4.916  22.502   0.781
43887W        W10955  39.457  22.012   1.353
43888W        W10956  41.460  38.971   1.418
43889W        W10957  41.490  34.441  11.012
43890W        W10958   5.376  20.090  11.043
43891W        W10959  24.106  34.117   0.893
43892W        W10960  15.582  42.400  12.960
43893W        W10961  24.491  13.687   3.170
43894W        W10962  24.178   0.781  12.418
43895W        W10963  26.976  22.706  10.975
43896W        W10964   7.264   2.724   3.307
43897W        W10965  28.472   5.421  13.434
43898W        W10966  36.039  38.944  10.457
43899W        W10967  38.386  38.423   2.721
43900W        W10968  24.547   2.454  11.562
43901W        W10969  28.976  20.076   1.438
43902W        W10970  21.648  41.013  12.960
43903W        W10971  24.191  17.586   2.841
43904W        W10972   4.414  11.865   4.731
43905W        W10973  12.299  14.728  14.894
43906W        W10974   8.364  43.782  13.410
43907W        W10975   0.867   0.882   2.255
43908W        W10976  42.429   9.792  11.482
43909W        W10977  28.464  12.186  13.923
43910W        W10978  15.157   0.857  10.421
43911W        W10979  15.700  17.259   3.820
43912W        W10980  13.686  15.678   2.711
43913W        W10981   4.888   1.887  10.471
43914W        W10982  21.047  17.068  14.798
43915W        W10983  13.669  38.891  14.822
43916W        W10984   5.713  33.992  12.035
43917W        W10985  13.736  27.467  13.462
43918W        W10986  15.318  33.049   1.922
43919W        W10987  31.604  26.071  12.027
43920W        W10988   3.932   0.319  12.524
43921W        W10989   8.321   2.358   2.769
43922W        W10990   6.827  12.317   3.854
43923W        W10991  23.725  20.732   3.712
43924W        W10992  41.975  16.808  14.366
43925W        W10993  18.077  25.489  12.940
43926W        W10994  28.504   1.839   2.890
43927W        W10995  13.755   7.695  10.038
43928W        W10996  21.561  36.479   4.747
43929W        W10997   1.779  13.342   3.767
43930W        W10998  28.045  14.785   4.206
43931W        W10999  21.197  21.253   4.278
43932W        W11000  27.996  20.166  11.401
43933W        W11001  41.334   0.368   2.406
43934W        W11002  29.126  40.985   0.870
43935W        W11003   0.915  43.375   4.753
43936W        W11004  28.456  23.677  10.894
43937W        W11005   4.806  34.375   4.635
43938W        W11006  20.082  10.256   4.650
43939W        W11007  19.599   5.215   1.342
43940W        W11008  34.031  34.560  12.863
43941W        W11009  19.251  29.069   1.733
43942W        W11010  36.541  23.593   4.750
43943W        W11011  19.567  34.405  13.489
43944W        W11012   0.413  39.381   3.663
43945W        W11013  13.777  17.253   0.413
43946W        W11014  14.179  21.524   2.708
43947W        W11015  41.961  40.527   3.299
43948W        W11016  11.681  44.495  14.489
43949W        W11017   0.758  13.228  12.340
43950W        W11018  30.943  40.498   0.776
43951W        W11019   3.423  17.142  11.603
43952W        W11020  14.636   0.938   0.257
43953W        W11021  27.957  26.605   2.364
43954W        W11022   7.834  44.967  11.925
43955W        W11023  17.710  36.376  12.480
43956W        W11024  44.809  42.826   3.214
43957W        W11025   4.832  27.465   4.239
43958W        W11026   3.882  14.802   1.370
43959W        W11027   5.261  42.978   5.299
43960W        W11028  39.419  37.539   3.756
43961W        W11029  18.263  43.802  13.454
43962W        W11030   3.360   0.264  14.486
43963W        W11031  36.459  16.778   1.356
43964W        W11032  41.794  25.657  10.537
43965W        W11033   3.768  31.099  14.002
43966W        W11034  13.203  27.182  13.383
43967W        W11035  39.046  17.571  10.140
43968W        W11036  21.122   1.764  11.407
43969W        W11037  13.336   6.850  13.847
43970W        W11038   3.943  11.185   4.143
43971W        W11039   4.404  39.812  13.531
43972W        W11040  40.378  44.265   4.730
43973W        W11041  35.426  39.948  14.798
43974W        W11042  11.371  15.236  10.477
43975W        W11043   2.393  23.176  13.416
43976W        W11044  33.126  14.104  11.902
43977W        W11045  22.707  23.001   1.880
43978W        W11046  31.622  35.503   3.832
43979W        W11047  26.511  27.464   4.146
43980W        W11048  26.652  35.579   0.334
43981W        W11049  33.600  21.217   0.327
43982W        W11050   7.672  37.949   0.247
43983W        W11051  13.341  38.919  14.408
43984W        W11052  28.651  35.604   1.826
43985W        W11053  14.123   1.844  10.530
43986W        W11054  18.607  16.159   4.214
43987W        W11055  19.142  35.430  12.024
43988W        W11056  43.307   4.330   4.708
43989W        W11057  13.135  33.526   9.952
43990W        W11058   1.958  42.818  14.387
43991W        W11059   9.215  26.632  10.976
43992W        W11060   1.766  33.924   3.699
43993W        W11061   8.328   4.702   2.722
43994W        W11062  37.506   7.212  12.344
43995W        W11063   6.782  38.437  13.943
43996W        W11064   1.371  37.020  11.550
43997W        W11065  23.020  29.618  12.011
43998W        W11066  38.560   4.897   4.117
43999W        W11067  31.455  24.016  13.032
44000W        W11068  40.335  10.669  10.996
44001W        W11069  15.714  16.742   3.829
44002W        W11070   7.286  40.009  12.894
44003W        W11071   9.359  24.986  14.827
44004W        W11072  43.875  20.158   2.341
44005W        W11073  41.434  21.610  14.429
44006W        W11074   2.240  40.027   3.278
44007W        W11075   1.418   4.295   0.785
44008W        W11076  12.850  40.819   0.454
44009W        W11077   4.897   7.795  11.066
44010W        W11078  21.698  27.192   4.725
44011W        W11079  25.694   7.208  10.617
44012W        W11080  42.817  19.106  11.577
44013W        W11081  14.656  37.385  13.498
44014W        W11082   0.348   5.405   3.702
44015W        W11083  39.942   7.219  14.319
44016W        W11084  28.082  37.473  10.417
44017W        W11085   1.252  27.001  14.994
44018W        W11086  27.020  38.377  13.344
44019W        W11087  10.383  31.096  12.496
44020W        W11088   6.769  24.210  13.884
44021W        W11089   5.422  42.437   1.298
44022W        W11090  19.700  27.681   0.324
44023W        W11091  13.190   8.320  10.564
44024W        W11092   8.855  38.333   0.267
44025W        W11093  16.578  18.682   3.221
44026W        W11094  20.715  17.798  13.473
44027W        W11095  17.567  38.531  14.910
44028W        W11096   3.364  23.733  14.507
44029W        W11097  13.807  33.597   2.849
44030W        W11098  23.715  31.581   1.352
44031W        W11099  25.663   8.166   3.847
44032W        W11100  40.966  28.991   1.304
44033W        W11101  14.149  24.069  14.395
44034W        W11102  33.882   9.355   3.701
44035W        W11103  36.441  13.784   0.368
44036W        W11104  16.581   4.731   1.299
44037W        W11105  39.838  30.484   2.283
44038W        W11106  12.750  26.498   4.216
44039W        W11107   9.196  28.079  12.383
44040W        W11108   8.333  21.618   3.229
44041W        W11109   3.838   9.709   2.817
44042W        W11110   7.396  37.477   3.835
44043W        W11111  17.123  13.617   1.374
44044W        W11112  35.525  36.082  14.494
44045W        W11113  19.698  27.053   2.394
44046W        W11114   2.730  17.177  13.462
44047W        W11115  14.144   0.847  10.437
44048W        W11116  20.716  12.184   3.292
44049W        W11117  23.594  32.997  12.042
44050W        W11118  11.760  37.474  11.061
44051W        W11119   6.768   9.747   3.338
44052W        W11120   1.374  16.740   3.376
44053W        W11121  37.567  40.841  12.442
44054W        W11122  34.977  18.274  10.597
44055W        W11123  18.121   5.234   4.803
44056W        W11124  26.503  20.593   1.807
44057W        W11125   9.744  27.605   3.713
44058W        W11126  38.464  21.214   4.334
44059W        W11127  18.110  22.208  11.073
44060W        W11128  35.389  19.226  13.813
44061W        W11129  36.904  31.945  13.463
44062W        W11130   6.199  18.587   3.789
44063W        W11131  10.744  36.433   2.252
44064W        W11132  33.020  24.162  14.314
44065W        W11133  25.205  35.853  13.355
44066W        W11134  36.037  33.021   3.860
44067W        W11135  16.226  23.536   4.126
44068W        W11136  19.689  31.984   1.367
44069W        W11137  12.209  12.827  13.826
44070W        W11138   7.253   4.843   2.248
44071W        W11139   0.456  39.895   2.794
44072W        W11140   2.444  25.219  11.591
44073W        W11141  34.119  34.523   3.806
44074W        W11142  13.157  15.276  14.823
44075W        W11143  35.104  23.050  12.433
44076W        W11144  40.893  36.030   1.797
44077W        W11145   7.401  30.923   0.475
44078W        W11146  15.260  24.103  14.439
44079W        W11147  39.946  21.222   1.739
44080W        W11148  13.207  21.542   3.745
44081W        W11149  38.831   3.901   4.669
44082W        W11150   5.336   9.832  11.939
44083W        W11151  28.585   5.895   3.652
44084W        W11152  14.213  44.858  13.893
44085W        W11153  30.419  12.331   0.265
44086W        W11154  28.575  30.999   1.914
44087W        W11155   9.717  35.573   3.684
44088W        W11156  39.934  43.328  14.764
44089W        W11157  15.602  18.575  14.011
44090W        W11158  16.708   5.403  14.429
44091W        W11159  30.654  20.090  12.878
44092W        W11160  21.717  39.403   2.260
44093W        W11161  24.523  39.497  10.961
44094W        W11162   9.768  11.134   4.794
44095W        W11163   5.795   5.748   4.619
44096W        W11164  34.566  16.147  14.907
44097W        W11165   9.324   7.728   0.843
44098W        W11166   4.737  30.161   9.921
44099W        W11167  24.143  31.993  11.523
44100W        W11168  15.637  34.071  11.402
44101W        W11169   7.855  24.155  10.517
44102W        W11170  25.508  29.038   1.309
44103W        W11171  12.667  24.723  11.414
44104W        W11172  21.704  32.928  11.993
44105W        W11173  27.979   9.305  10.467
44106W        W11174  16.753  25.621  10.470
44107W        W11175  29.435   9.881   4.742
44108W        W11176  32.119  32.614   0.272
44109W        W11177  30.952  43.766  12.832
44110W        W11178  23.615  12.822  14.007
44111W        W11179   2.365  40.983   0.458
44112W        W11180  41.408  13.838  14.291
44113W        W11181  40.344  35.529  13.319
44114W        W11182   3.791   7.707  12.855
44115W        W11183  11.223   7.795   1.883
44116W        W11184  19.557   5.691   1.887
44117W        W11185  12.796  43.461  12.365
44118W        W11186  26.959  14.678   1.368
44119W        W11187  40.035   6.910  14.797
44120W        W11188  27.525  14.261   1.869
44121W        W11189  23.562  29.156   2.712
44122W        W11190   7.235  32.406   4.753
44123W        W11191  31.943   1.732   0.375
44124W        W11192  22.519  40.521   2.788
44125W        W11193  29.992  40.474  13.026
44126W        W11194  16.233  38.467  14.290
44127W        W11195   3.352  18.566   0.282
44128W        W11196  10.172  26.504   2.703
44129W        W11197   9.345  24.595  13.487
44130W        W11198  40.892  20.207  13.374
44131W        W11199  18.697   9.719   2.763
44132W        W11200  20.734  40.036  13.061
44133W        W11201   1.936   1.868  11.078
44134W        W11202  11.267   3.378   2.285
44135W        W11203  11.317  20.666   3.377
44136W        W11204  30.584  17.711  14.423
44137W        W11205  41.967  20.177  12.974
44138W        W11206  19.089  44.991  13.484
44139W        W11207  39.955  42.440   0.284
44140W        W11208   5.336  35.044  14.997
44141W        W11209  40.334   8.728  12.380
44142W        W11210  25.605  36.583   1.899
44143W        W11211  30.982  19.121  14.343
44144W        W11212  22.557  33.558  14.830
44145W        W11213  20.665  26.572   3.826
44146W        W11214  31.517  23.055  13.033
44147W        W11215  43.333  43.992   4.801
44148W        W11216   4.938   1.861  11.548
44149W        W11217  42.918  24.140  10.994
44150W        W11218  18.225  42.334  14.349
44151W        W11219  10.144  12.156  10.473
44152W        W11220  42.448  28.182  12.455
44153W        W11221  11.356  19.060   4.786
44154W        W11222   7.385   7.785   1.240
44155W        W11223   2.728   8.392   1.725
44156W        W11224  13.265  22.525  13.357
44157W        W11225   0.910  31.645  13.836
44158W        W11226  20.240   1.276   0.354
44159W        W11227  21.028   4.904  12.430
44160W        W11228  43.778  29.511   2.300
44161W        W11229  18.581   7.842   2.743
44162W        W11230  43.451  27.955  11.935
44163W        W11231  16.272   6.335   2.716
44164W        W11232  35.458  11.310   0.802
44165W        W11233  21.541  37.889   9.669
44166W        W11234  30.931  36.513   2.815
44167W        W11235  35.055   4.808   1.271
44168W        W11236  23.060  18.224   2.189
44169W        W11237  32.593  39.549   1.810
44170W        W11238  44.288  30.430  11.929
44171W        W11239  24.122   1.937   2.206
44172W        W11240  29.154  37.924   3.677
44173W        W11241  28.093  40.408  14.006
44174W        W11242  12.787  24.063  13.370
44175W        W11243  18.110  12.645  11.591
44176W        W11244  23.550  31.941  13.988
44177W        W11245  23.669   0.782  12.490
44178W        W11246  13.165  22.556   5.118
44179W        W11247  26.012  13.744   3.253
44180W        W11248  40.389  38.844  14.513
44181W        W11249   7.270   9.222   0.347
44182W        W11250  34.592  14.153   0.901
44183W        W11251   1.369  22.048   3.712
44184W        W11252  31.137  23.522  10.127
44185W        W11253  18.551  44.958   3.149
44186W        W11254  29.573   7.837   2.803
44187W        W11255  39.953  43.471  13.037
44188W        W11256  32.068   8.264  13.955
44189W        W11257  22.158   2.758  12.967
44190W        W11258   3.433  44.008   1.909
44191W        W11259  23.124  14.792  14.852
44192W        W11260  38.855  38.484  15.000
44193W        W11261  26.691  39.015   1.292
44194W        W11262  10.165   7.347   1.341
44195W        W11263  43.362   9.870   1.350
44196W        W11264  14.726  33.601   4.764
44197W        W11265  28.537  32.070  10.959
44198W        W11266  27.104  30.942   4.721
44199W        W11267  39.517  35.451  12.862
44200W        W11268  29.090   5.393   3.186
44201W        W11269   4.817  40.351  13.888
44202W        W11270   9.655  26.955   3.272
44203W        W11271  42.781  33.464  12.365
44204W        W11272  26.003  17.639   0.366
44205W        W11273  31.533   9.686   0.737
44206W        W11274  25.474  35.089   1.745
44207W        W11275   2.376   7.700  14.303
44208W        W11276  28.628  34.520   1.885
44209W        W11277  39.955   2.753   4.805
44210W        W11278  21.570  13.292  14.859
44211W        W11279  19.565  34.065   0.313
44212W        W11280   5.207   0.948   3.219
44213W        W11281  11.794  28.443  10.561
44214W        W11282   0.295  39.060   1.361
44215W        W11283  27.599  38.401  10.995
44216W        W11284  32.912  44.810  11.539
44217W        W11285  24.166   1.968   1.265
44218W        W11286  23.123  12.639  10.588
44219W        W11287   5.309  37.516  13.962
44220W        W11288  37.989  14.236   3.156
44221W        W11289  12.322   9.342  14.442
44222W        W11290   9.788  14.675  13.412
44223W        W11291  14.652  32.051  10.466
44224W        W11292   6.406  21.746  13.454
44225W        W11293  43.865  44.771   3.862
44226W        W11294  28.629   4.432   4.630
44227W        W11295  36.545  13.689  13.542
44228W        W11296  21.529  43.770   3.211
44229W        W11297  30.051  37.034   1.219
44230W        W11298  10.795  40.861  11.539
44231W        W11299  37.339  36.505   1.301
44232W        W11300  18.773  30.592   1.227
44233W        W11301  10.632   4.812   3.188
44234W        W11302  18.552  18.168  10.541
44235W        W11303  21.095  40.485  12.015
44236W        W11304  35.903  20.585  14.438
44237W        W11305  42.779   6.372   0.792
44238W        W11306  30.617  40.456  14.812
44239W        W11307  37.926  12.173  14.798
44240W        W11308  40.370  32.113  10.440
44241W        W11309  40.831  10.758  10.899
44242W        W11310  41.530  41.475  11.434
44243W        W11311   8.337  23.677   0.429
44244W        W11312  41.332  31.114  11.386
44245W        W11313  11.729  14.660  12.453
44246W        W11314  25.599  42.828   1.226
44247W        W11315  33.030   7.268   2.748
44248W        W11316  16.078  17.155  13.016
44249W        W11317   1.262  21.666  11.876
44250W        W11318  11.202   6.851  12.563
44251W        W11319  11.752   6.240  12.912
44252W        W11320  26.147  36.965   0.963
44253W        W11321   9.835  17.689   2.697
44254W        W11322   3.770  12.278  13.978
44255W        W11323  16.089  27.584   4.743
44256W        W11324  26.516  26.517   0.825
44257W        W11325  30.554  21.596   0.844
44258W        W11326  25.050  11.684   4.180
44259W        W11327  16.197   9.296  12.020
44260W        W11328  31.457  37.950   2.408
44261W        W11329  41.975  35.462  14.397
44262W        W11330  37.985   8.284  13.927
44263W        W11331   1.879   3.306  12.976
44264W        W11332  27.633  43.964   1.414
44265W        W11333  14.792  14.783   0.311
44266W        W11334  20.597  39.430   2.858
44267W        W11335  43.498  24.098   2.385
44268W        W11336  18.636  15.693  10.434
44269W        W11337  22.161  28.115   4.784
44270W        W11338   4.757  38.471  11.117
44271W        W11339  11.197   2.437   4.769
44272W        W11340   8.374   0.423   3.857
44273W        W11341  21.200  41.471   4.619
44274W        W11342  16.615   3.829   3.362
44275W        W11343  42.476  43.008  13.473
44276W        W11344   6.241  38.395   3.330
44277W        W11345  23.174  24.102   0.840
44278W        W11346  40.442   2.903   4.634
44279W        W11347  37.479  14.832   3.732
44280W        W11348  14.111  13.669  11.070
44281W        W11349  19.225  29.057   2.775
44282W        W11350  18.061  23.665  11.056
44283W        W11351  31.104   2.766  14.458
44284W        W11352  23.123  23.585   0.481
44285W        W11353   4.748   6.310  14.496
44286W        W11354  20.076  13.276  10.510
44287W        W11355  26.670   6.702   3.854
44288W        W11356  41.443  44.382  13.314
44289W        W11357   2.780  10.654  12.538
44290W        W11358   3.275  37.962  14.310
44291W        W11359   6.266  27.536  14.023
44292W        W11360  13.286  38.942  14.992
44293W        W11361  31.102  34.938   2.742
44294W        W11362  15.665  16.722   4.746
44295W        W11363  35.497   1.461   4.685
44296W        W11364  42.457  31.523  13.839
44297W        W11365  44.287   1.827  12.927
44298W        W11366  29.508   9.781   2.401
44299W        W11367  19.097  43.819  11.903
44300W        W11368   8.251  15.797   4.116
44301W        W11369  42.778  15.704   1.343
44302W        W11370  43.834  37.004  12.471
44303W        W11371  18.098  44.963  14.473
44304W        W11372  36.581  31.101  13.414
44305W        W11373   9.643  23.166   0.384
44306W        W11374   7.745  10.193  10.140
44307W        W11375  31.512  10.851   1.437
44308W        W11376  30.564  16.146   2.281
44309W        W11377  40.357  24.015   4.776
44310W        W11378  31.019   9.649  11.495
44311W        W11379  38.442  35.076   3.860
44312W        W11380  23.113  24.011  14.772
44313W        W11381  31.047  20.752  12.914
44314W        W11382   7.254   2.292   2.304
44315W        W11383  40.918  41.518  10.957
44316W        W11384  38.532  32.441   3.151
44317W        W11385   6.855  37.445  13.811
44318W        W11386  21.626  25.116  14.925
44319W        W11387  25.713  40.848   4.167
44320W        W11388  37.909   8.207  11.592
44321W        W11389  23.555  19.751  10.968
44322W        W11390  41.866  37.941   4.793
44323W        W11391  44.418  44.393   3.710
44324W        W11392  13.644  42.383  10.997
44325W        W11393  28.548  14.298   0.951
44326W        W11394   6.261  11.725  13.395
44327W        W11395  27.178  43.376   4.677
44328W        W11396  31.148  31.095   1.361
44329W        W11397  18.754  32.530   2.318
44330W        W11398   0.275  22.639   4.116
44331W        W11399  39.425  11.672  13.002
44332W        W11400  39.831  39.986  12.998
44333W        W11401  26.005  39.041   2.692
44334W        W11402  31.093  30.565   4.318
44335W        W11403  21.078  33.095  11.981
44336W        W11404  34.936   8.730   1.885
44337W        W11405  29.129  31.432   2.372
44338W        W11406  15.122   5.764   1.353
44339W        W11407  43.940  14.187  12.417
44340W        W11408  28.164  40.442   2.373
44341W        W11409  19.569   3.812   1.755
44342W        W11410  16.686  10.846   2.314
44343W        W11411   1.924  20.610   4.739
44344W        W11412   8.688  28.972  12.934
44345W        W11413  24.534  35.865  11.584
44346W        W11414  36.092  24.185   0.930
44347W        W11415  11.178  18.744   0.882
44348W        W11416   8.849  11.272  13.362
44349W        W11417   3.317  27.630   0.839
44350W        W11418  16.102   0.755   3.784
44351W        W11419  15.636  38.359   2.416
44352W        W11420  31.058  42.784   5.136
44353W        W11421   7.396  38.992  13.401
44354W        W11422  31.947  31.010   2.783
44355W        W11423  38.944  25.094  10.486
44356W        W11424   8.865  29.510  14.795
44357W        W11425   4.314  12.148  11.531
44358W        W11426  30.095  28.493   2.724
44359W        W11427  14.700  15.670  13.499
44360W        W11428   9.770  16.217   1.738
44361W        W11429  28.662  13.175   1.719
44362W        W11430  18.107  39.053   4.315
44363W        W11431  35.959  31.029   1.907
44364W        W11432   5.756  44.482  14.815
44365W        W11433  20.252  29.939   3.340
44366W        W11434  13.292  21.256  14.304
44367W        W11435  10.792  10.365   4.766
44368W        W11436  32.034  41.976  12.548
44369W        W11437   9.685  33.028  12.931
44370W        W11438  36.934  26.619  11.074
44371W        W11439  41.477  36.905  11.036
44372W        W11440  32.426   4.408   4.143
44373W        W11441   1.430  23.564   1.934
44374W        W11442  17.647  39.352  13.927
44375W        W11443   9.193   5.414   4.794
44376W        W11444  11.767  15.674  10.561
44377W        W11445  42.404   4.211  13.501
44378W        W11446  17.102  27.064  10.603
44379W        W11447  16.770   5.367   0.344
44380W        W11448   9.655  37.554   2.808
44381W        W11449  30.541  29.546   1.281
44382W        W11450  44.317  43.000  13.801
44383W        W11451  32.460  14.616   3.731
44384W        W11452  43.409  30.039  11.112
44385W        W11453  21.592  28.024  12.442
44386W        W11454  10.651   0.316  14.483
44387W        W11455  16.259  34.375  12.376
44388W        W11456  27.469  34.938  13.463
44389W        W11457  29.561  24.628  11.994
44390W        W11458  39.478  37.446  12.417
44391W        W11459  13.339  24.566   3.864
44392W        W11460  12.313   4.450   4.180
44393W        W11461   6.378  22.697  12.906
44394W        W11462  27.626  14.621   4.255
44395W        W11463  26.557   2.943  14.363
44396W        W11464  27.492   1.261   4.169
44397W        W11465  14.249  27.037   2.666
44398W        W11466  13.281   0.391   4.347
44399W        W11467  29.919  18.573   4.797
44400W        W11468  16.629  30.479   2.380
44401W        W11469  39.870  44.843   0.746
44402W        W11470  20.554  12.183  14.383
44403W        W11471  18.568   3.770  14.461
44404W        W11472  16.075  44.873  12.903
44405W        W11473  34.434  10.849   2.823
44406W        W11474  13.137  24.595   0.325
44407W        W11475  36.452  34.966   4.305
44408W        W11476  29.067  30.954  14.303
44409W        W11477  37.349  36.533  12.574
44410W        W11478  38.514  13.328   3.283
44411W        W11479  36.351  14.221   4.700
44412W        W11480  43.898  11.716   2.190
44413W        W11481   4.371   6.223   2.273
44414W        W11482   6.735   9.269   2.765
44415W        W11483   2.779   7.394   2.881
44416W        W11484  11.140  39.487  13.033
44417W        W11485  33.918  24.082  10.894
44418W        W11486   2.962  31.494  11.074
44419W        W11487  32.607  30.651  12.064
44420W        W11488  43.831   0.837   0.763
44421W        W11489   1.917  39.894  14.380
44422W        W11490  25.668   5.370  10.970
44423W        W11491   2.299  28.098   2.382
44424W        W11492  36.066  27.122  10.952
44425W        W11493  19.587  21.630  10.910
44426W        W11494  14.645  12.273   4.747
44427W        W11495  29.162  30.438  13.847
44428W        W11496   1.764  28.126   2.776
44429W        W11497   5.293   9.809   1.925
44430W        W11498  24.049   3.450  11.595
44431W        W11499   9.308  23.994  13.367
44432W        W11500  38.473  21.183  10.978
44433W        W11501  32.637  28.142   5.708
44434W        W11502  15.176   7.326  11.014
44435W        W11503  38.855  36.873   2.322
44436W        W11504  13.755  24.551   4.762
44437W        W11505  18.643  43.960  12.450
44438W        W11506  28.944  12.856  12.888
44439W        W11507   6.736  24.678  13.863
44440W        W11508  24.100  25.007   0.411
44441W        W11509  28.587  41.328   2.850
44442W        W11510  24.102  40.902  12.559
44443W        W11511  38.504  13.230  12.918
44444W        W11512  13.220  34.562  10.102
44445W        W11513  26.024  27.147   4.287
44446W        W11514  37.426  20.693   2.742
44447W        W11515  13.619  22.044  13.347
44448W        W11516  20.094   5.907   2.821
44449W        W11517   3.425   9.261  12.825
44450W        W11518   2.400  16.700  10.956
44451W        W11519  11.145  26.536  14.821
44452W        W11520  11.819  17.573  12.080
44453W        W11521  22.710  20.096   4.180
44454W        W11522  28.049  38.015   2.800
44455W        W11523  44.281   7.739   0.857
44456W        W11524  28.618  40.915   3.275
44457W        W11525   7.911  34.046  14.993
44458W        W11526  39.052  32.633  12.527
44459W        W11527  14.240  39.824   2.722
44460W        W11528  14.133  30.947  11.067
44461W        W11529  11.770   6.769  11.551
44462W        W11530  26.656  22.123  13.450
44463W        W11531  18.561   7.845  14.975
44464W        W11532  37.567  11.726   3.784
44465W        W11533  21.683  32.969   4.764
44466W        W11534  20.602  38.825  12.900
44467W        W11535  16.289  18.663   0.813
44468W        W11536  38.835  11.779  11.091
44469W        W11537  44.803  21.756  11.445
44470W        W11538  44.949   5.790   4.295
44471W        W11539  41.923   5.871  11.563
44472W        W11540  34.085  37.006   2.378
44473W        W11541   2.315   5.415   2.318
44474W        W11542   4.835  15.788  14.436
44475W        W11543  44.498  42.373   1.713
44476W        W11544   6.206  25.547  12.094
44477W        W11545  19.048  34.459   1.921
44478W        W11546   0.272  26.196   4.210
44479W        W11547  27.151   9.282   2.843
44480W        W11548  30.960  29.631  10.557
44481W        W11549  24.145  37.569   2.673
44482W        W11550  33.574  17.062  14.966
44483W        W11551   3.287  17.760  12.478
44484W        W11552  13.718  38.959   3.780
44485W        W11553   4.218  15.806   4.640
44486W        W11554  20.103  44.276  12.528
44487W        W11555  40.932  42.031   1.786
44488W        W11556  12.822  23.203  10.610
44489W        W11557  15.103  38.891   3.159
44490W        W11558   5.867  16.270   3.242
44491W        W11559  25.988  25.074   1.898
44492W        W11560   4.812   0.901  10.004
44493W        W11561  35.084  22.713  13.795
44494W        W11562  24.658   1.263  12.948
44495W        W11563   1.854  41.850   5.097
44496W        W11564  31.942  14.317   4.320
44497W        W11565  40.485  25.703  11.373
44498W        W11566  43.878   4.768   1.698
44499W        W11567  26.607  44.848  10.496
44500W        W11568  30.041  18.786   4.177
44501W        W11569  38.352  17.154   1.823
44502W        W11570   5.397  32.925  14.410
44503W        W11571   9.669  13.655  12.062
44504W        W11572  35.401  33.548   3.630
44505W        W11573  39.927  21.036  10.443
44506W        W11574   1.295   9.752   0.963
44507W        W11575  34.372   1.829  10.917
44508W        W11576  13.142  27.692  13.918
44509W        W11577  43.343  23.569  13.521
44510W        W11578  13.329   5.751   0.456
44511W        W11579  41.394  27.996   4.694
44512W        W11580   6.902   8.289  12.475
44513W        W11581   9.833  26.494   2.874
44514W        W11582  40.303   9.208   3.815
44515W        W11583  13.352  35.589  14.998
44516W        W11584  23.540  23.206   0.344
44517W        W11585  44.476   6.757  14.287
44518W        W11586  34.505  14.261  11.578
44519W        W11587  35.517  18.666   1.903
44520W        W11588  25.603  25.567   4.153
44521W        W11589  28.993  31.951   2.713
44522W        W11590  29.661  38.543   3.804
44523W        W11591  30.530  33.529  13.791
44524W        W11592  21.748  19.082   3.851
44525W        W11593  21.238  37.548  11.424
44526W        W11594  43.982  44.476   4.823
44527W        W11595   1.813  38.038   4.308
44528W        W11596  24.183  20.215  11.602
44529W        W11597  16.278  12.834   0.842
44530W        W11598  10.341   6.374   0.442
44531W        W11599  11.637  37.497  14.916
44532W        W11600  37.934  35.854   5.108
44533W        W11601  32.493  35.013   4.612
44534W        W11602  37.073  39.347  10.421
44535W        W11603   3.304  18.676   1.874
44536W        W11604  30.934  31.077  12.411
44537W        W11605   5.423  33.543   4.330
44538W        W11606  15.743   7.756   2.756
44539W        W11607  23.518   5.285  10.893
44540W        W11608  27.975   2.347  12.084
44541W        W11609  13.138  36.429   4.695
44542W        W11610   1.840  20.569   0.394
44543W        W11611  19.139  28.603  14.824
44544W        W11612   7.696  33.509   3.189
44545W        W11613  24.210  21.597  10.961
44546W        W11614  13.149  29.051  12.094
44547W        W11615  20.136  30.098  13.505
44548W        W11616  30.418  41.858  12.835
44549W        W11617  24.702  36.386  10.609
44550W        W11618  26.117  20.243   1.276
44551W        W11619  13.123  26.489   0.470
44552W        W11620  19.090   8.717  14.500
44553W        W11621  36.910   3.736  12.943
44554W        W11622  12.758  12.163  10.534
44555W        W11623  32.555  30.649  13.411
44556W        W11624  43.955  35.376   1.422
44557W        W11625  24.540  10.822   3.215
44558W        W11626  41.830   4.322  13.471
44559W        W11627   2.764  44.338  11.451
44560W        W11628   8.390   9.178   3.332
44561W        W11629   3.764  14.755  12.024
44562W        W11630  22.684  29.608  13.035
44563W        W11631  22.098   9.267  13.548
44564W        W11632  11.264   0.434  11.077
44565W        W11633  32.885  34.014   3.786
44566W        W11634  35.517  21.080  10.009
44567W        W11635  36.351  18.749   1.268
44568W        W11636  27.485  40.363  14.832
44569W        W11637  41.913  26.090   3.378
44570W        W11638   7.875  28.647   2.388
44571W        W11639  44.478  39.502   0.437
44572W        W11640  38.919   7.850  13.492
44573W        W11641  41.471  27.981   0.466
44574W        W11642  39.875  10.841   1.425
44575W        W11643  34.514  22.729  14.316
44576W        W11644  43.931   5.930   2.179
44577W        W11645  39.476  12.755  11.989
44578W        W11646  26.116   5.431   4.128
44579W        W11647  12.819   5.423   0.456
44580W        W11648  16.280   7.893   0.939
44581W        W11649  39.414  18.254   2.667
44582W        W11650  35.516   2.779  12.923
44583W        W11651   2.274  32.024  11.085
44584W        W11652  22.209  26.524   2.702
44585W        W11653  38.047  38.527   0.482
44586W        W11654  19.199  23.608   3.162
44587W        W11655  16.238  41.885  10.926
44588W        W11656  30.422  30.499   1.755
44589W        W11657   0.272  17.780  14.914
44590W        W11658  22.011  19.160   2.789
44591W        W11659  17.296   4.761  14.352
44592W        W11660  35.899  35.539  11.584
44593W        W11661   9.263  26.551  14.916
44594W        W11662   6.349  12.204  12.093
44595W        W11663  39.049  14.641   0.268
44596W        W11664   2.821  32.111   3.653
44597W        W11665  28.673   3.749   0.853
44598W        W11666  30.573  20.129  12.051
44599W        W11667  11.726  25.656  13.921
44600W        W11668  10.726  31.410  11.859
44601W        W11669  21.172  22.113   4.691
44602W        W11670  43.831  23.623  13.319
44603W        W11671  26.520  43.420   1.843
44604W        W11672   9.200  29.004  11.452
44605W        W11673  36.430  44.826  11.563
44606W        W11674  11.788  44.407  11.110
44607W        W11675  21.705   9.825  10.914
44608W        W11676  15.099  42.491  11.967
44609W        W11677  18.110  15.184  13.858
44610W        W11678  20.709  33.391  10.540
44611W        W11679  33.424  34.566   5.206
44612W        W11680  21.577  19.769   4.728
44613W        W11681   8.303  40.393  11.474
44614W        W11682   5.844  38.015   3.379
44615W        W11683  15.803  23.611   3.340
44616W        W11684  36.381  35.597   3.731
44617W        W11685  43.382   3.331   0.884
44618W        W11686  22.251  15.592   3.704
44619W        W11687  13.743  17.682   1.906
44620W        W11688  26.460  16.579   1.365
44621W        W11689   2.813  29.070   3.718
44622W        W11690   7.768   6.292   0.810
44623W        W11691  32.606  21.651  11.031
44624W        W11692  15.099  10.362  14.778
44625W        W11693   0.875  23.083  11.004
44626W        W11694  21.692  24.000   0.871
44627W        W11695  37.421  42.017   5.188
44628W        W11696  28.520  24.077   2.334
44629W        W11697  24.035  12.121  10.628
44630W        W11698  15.655  29.127  13.981
44631W        W11699  29.542  42.781  12.497
44632W        W11700  14.253   2.753  14.013
44633W        W11701  42.484  26.673  10.041
44634W        W11702  13.220  37.519   4.735
44635W        W11703  42.329  27.189  10.927
44636W        W11704  21.072   4.774   3.753
44637W        W11705  41.972  11.197  11.898
44638W        W11706  21.039  12.833  14.304
44639W        W11707  28.586   3.762  11.962
44640W        W11708  26.170  30.033   4.727
44641W        W11709  35.870  25.567   0.292
44642W        W11710  33.889  25.700  14.496
44643W        W11711  30.546  10.258   1.227
44644W        W11712  19.533   4.352  12.940
44645W        W11713  30.599  39.968   9.961
44646W        W11714  14.212  20.035  12.465
44647W        W11715   7.813  21.717  10.995
44648W        W11716  32.579  15.715   0.279
44649W        W11717  16.254  29.928   4.778
44650W        W11718  13.769  31.915   2.393
44651W        W11719  33.943  15.211   0.842
44652W        W11720  39.849  11.759  13.425
44653W        W11721  33.032  32.556   4.699
44654W        W11722   2.235  15.822  11.954
44655W        W11723  36.947   7.786   3.195
44656W        W11724  18.130  31.638  10.406
44657W        W11725  43.337  20.665  11.959
44658W        W11726   3.235  35.028  11.896
44659W        W11727  10.349  15.310   5.171
44660W        W11728  16.802  39.420  12.478
44661W        W11729  19.172  26.696   4.206
44662W        W11730  20.673  42.810   3.865
44663W        W11731   0.789  27.018   0.770
44664W        W11732   7.279  20.036   2.663
44665W        W11733  16.799  40.836  14.373
44666W        W11734  30.925  23.699  13.473
44667W        W11735  20.201   0.473  10.513
44668W        W11736  34.027  41.374   3.844
44669W        W11737  24.978  25.006  13.802
44670W        W11738   1.867  33.109  13.856
44671W        W11739  12.768  38.001  11.594
44672W        W11740  19.582   9.659  14.806
44673W        W11741  26.980  33.538  11.599
44674W        W11742  44.854  40.808  11.890
44675W        W11743  30.106  29.607  13.838
44676W        W11744  12.709  31.592   4.167
44677W        W11745  39.503  25.995   0.446
44678W        W11746  41.408  44.805   1.839
44679W        W11747  26.140  35.039  14.919
44680W        W11748  20.043  23.670  14.969
44681W        W11749  20.175  41.928  12.419
44682W        W11750  10.352  12.179  14.004
44683W        W11751   3.956  43.990  13.470
44684W        W11752   6.217  39.415   4.351
44685W        W11753   8.180  16.747  11.409
44686W        W11754   4.944  43.840  12.006
44687W        W11755   4.939  43.911   4.150
44688W        W11756  38.889  41.373  14.866
44689W        W11757   4.289  32.021  12.914
44690W        W11758  29.983  15.174  11.606
44691W        W11759  28.135  31.955   0.321
44692W        W11760   2.241  13.134   5.193
44693W        W11761  43.789  20.622   1.884
44694W        W11762  23.577  20.554   0.357
44695W        W11763  23.209   7.335  13.333
44696W        W11764  18.129  17.765  13.367
44697W        W11765  25.996  22.145   4.695
44698W        W11766  10.278   6.322  13.987
44699W        W11767  33.559  35.513   4.834
44700W        W11768   0.875   0.971  12.464
44701W        W11769  26.631  17.247  10.895
44702W        W11770  36.952   4.944   3.746
44703W        W11771  29.115  20.728   2.319
44704W        W11772  30.412  19.243  12.057
44705W        W11773  10.300  32.969  12.075
44706W        W11774  21.181   1.419   4.171
44707W        W11775   1.796  22.560   1.350
44708W        W11776   7.214  12.613   4.190
44709W        W11777   7.343  35.024  14.858
44710W        W11778   6.195   3.228   5.108
44711W        W11779  12.286  14.314   3.813
44712W        W11780  42.429  27.653   1.375
44713W        W11781  32.486  20.199  14.491
44714W        W11782  36.555   8.245   2.322
44715W        W11783  27.481  39.520  11.015
44716W        W11784  37.565  26.983  14.319
44717W        W11785  19.256  14.096   4.340
44718W        W11786  11.798   8.691  14.291
44719W        W11787   9.192  44.482  14.351
44720W        W11788   4.329  16.272  14.014
44721W        W11789  30.568  25.514   1.857
44722W        W11790  28.620   7.380   1.752
44723W        W11791  44.771  40.012   2.723
44724W        W11792  19.535  15.809  14.009
44725W        W11793   4.305   9.675   3.657
44726W        W11794  22.040  12.850  13.384
44727W        W11795  18.167  26.163  11.076
44728W        W11796  44.787  10.150   2.363
44729W        W11797  41.386  25.189  14.963
44730W        W11798   9.383  19.715   4.280
44731W        W11799  31.570  12.808   3.261
44732W        W11800   4.259  31.480  11.980
44733W        W11801  29.533  14.613   1.722
44734W        W11802  41.875  15.606   3.171
44735W        W11803  13.148   7.234  11.542
44736W        W11804   5.744  16.122   1.249
44737W        W11805  14.687   0.410   1.254
44738W        W11806  26.958  14.768   0.932
44739W        W11807  25.019  27.978  14.999
44740W        W11808  36.957  35.881  14.007
44741W        W11809   8.343  11.770  12.048
44742W        W11810  35.397  22.721   0.854
44743W        W11811   5.329  37.500  11.388
44744W        W11812  29.444   1.861   4.696
44745W        W11813  10.243  42.793  11.088
44746W        W11814   6.388  30.127  11.091
44747W        W11815  35.572  29.105   3.365
44748W        W11816   4.281  10.241  11.995
44749W        W11817  11.780   8.265   1.786
44750W        W11818  38.520  29.055   3.180
44751W        W11819  42.022  24.086  13.874
44752W        W11820  37.389   2.938   2.221
44753W        W11821  22.593   3.736  12.486
44754W        W11822  22.185   1.856   3.145
44755W        W11823  28.570  10.851  10.919
44756W        W11824  31.968  44.981   3.251
44757W        W11825  42.808  20.106  14.968
44758W        W11826  42.473  32.507  11.520
44759W        W11827   0.748  21.600  13.524
44760W        W11828   4.898   2.402   1.350
44761W        W11829   3.724  38.910  13.912
44762W        W11830   6.328  35.361   0.385
44763W        W11831  40.967  28.474   2.754
44764W        W11832  31.535  29.970   2.748
44765W        W11833  14.167  32.007  12.886
44766W        W11834  42.820  40.904  10.919
44767W        W11835  16.128  30.152   0.954
44768W        W11836  39.881  28.142   2.693
44769W        W11837   7.721  39.951  14.979
44770W        W11838  21.697  28.654  14.455
44771W        W11839  35.400  17.307   0.333
44772W        W11840   6.190  38.009  13.795
44773W        W11841  13.813   9.193  10.969
44774W        W11842  25.545   4.387  13.818
44775W        W11843   9.218  17.596  10.889
44776W        W11844   5.241  27.453   0.800
44777W        W11845  29.495  40.384   1.271
44778W        W11846  40.909   9.716   4.746
44779W        W11847  25.530  43.863  14.338
44780W        W11848  14.611   4.225  13.314
44781W        W11849   2.769  29.069  14.846
44782W        W11850  14.100  14.708   0.284
44783W        W11851   6.689   2.334  12.991
44784W        W11852   8.681  17.096  13.044
44785W        W11853  34.976   8.381  10.963
44786W        W11854  27.026   0.892   1.847
44787W        W11855  10.841  30.055   2.240
44788W        W11856   5.317  20.272   0.452
44789W        W11857  24.213   1.337   2.179
44790W        W11858  42.420  17.105  12.859
44791W        W11859  34.001  19.560   1.282
44792W        W11860   1.376  38.534  11.590
44793W        W11861  14.109  17.644   0.943
44794W        W11862  22.076  38.513   9.954
44795W        W11863  44.980  26.598  12.546
44796W        W11864  31.599  40.950   4.761
44797W        W11865  38.845  19.770   3.248
44798W        W11866  10.167  31.529   4.189
44799W        W11867  40.465   4.764  12.439
44800W        W11868  27.011   7.293  11.070
44801W        W11869  11.740  30.429  14.886
44802W        W11870  11.750  21.241   5.180
44803W        W11871   6.383  10.255   0.374
44804W        W11872  11.310  24.013   3.697
44805W        W11873  22.510  10.234  14.414
44806W        W11874  40.502  24.049   2.694
44807W        W11875   3.384   8.764   3.797
44808W        W11876  29.653  13.295   1.833
44809W        W11877  34.923   7.667  12.519
44810W        W11878  43.777  16.257  14.509
44811W        W11879  16.764  22.135   1.870
44812W        W11880  41.403  21.692   1.763
44813W        W11881  20.690  37.927  14.923
44814W        W11882  12.312  38.955   1.215
44815W        W11883  15.737  41.518  11.448
44816W        W11884  23.206  14.271   0.429
44817W        W11885  19.545   1.414   4.306
44818W        W11886  36.850  35.402  11.857
44819W        W11887   9.689  42.416  11.103
44820W        W11888  41.954  13.840  14.291
44821W        W11889   3.903  27.014   2.194
44822W        W11890  12.845   1.867   3.203
44823W        W11891  16.305   7.874  14.966
44824W        W11892  17.675  36.054  13.920
44825W        W11893  20.238  13.790   0.423
44826W        W11894  14.173  17.574   3.287
44827W        W11895  16.122  40.538   3.296
44828W        W11896  11.271  33.032   3.155
44829W        W11897  24.218  10.650   3.680
44830W        W11898  11.732  14.194   0.352
44831W        W11899   5.417  40.930  12.580
44832W        W11900   1.283  24.715   1.745
44833W        W11901  40.436  33.117  13.344
44834W        W11902   5.270  13.314  11.600
44835W        W11903  17.205  42.497  14.811
44836W        W11904  23.655  14.669   2.826
44837W        W11905   6.745   0.981  11.559
44838W        W11906   0.402  11.229   0.895
44839W        W11907   4.296  29.025   2.297
44840W        W11908  20.124  10.198  11.570
44841W        W11909   4.758  36.482  13.794
44842W        W11910  19.199   8.250  11.959
44843W        W11911   5.724   2.326  13.810
44844W        W11912  16.724  17.128  12.868
44845W        W11913   1.899  26.201   3.361
44846W        W11914  23.501   3.801  11.584
44847W        W11915  16.235  17.279  10.464
44848W        W11916  44.343  41.799  10.996
44849W        W11917  26.106  36.497  10.424
44850W        W11918  40.435  23.570  12.358
44851W        W11919   6.919   5.328  14.480
44852W        W11920   9.299  34.414   3.704
44853W        W11921  41.526  10.875   2.297
44854W        W11922   8.818  36.388  11.100
44855W        W11923   6.407  36.457   1.418
44856W        W11924   0.876   1.893   2.286
44857W        W11925  31.050   4.791  14.885
44858W        W11926  15.728  26.481  14.894
44859W        W11927   1.784  37.463  12.992
44860W        W11928  44.472   3.392  11.930
44861W        W11929  19.756   4.413  12.573
44862W        W11930   0.424   7.335  12.560
44863W        W11931  21.537  40.820  11.375
44864W        W11932  19.131  40.007   1.821
44865W        W11933  25.088  42.910  10.475
44866W        W11934  43.772  32.043  14.906
44867W        W11935  39.555  38.447  12.412
44868W        W11936  35.033   3.291  13.969
44869W        W11937   7.876  28.031  13.334
44870W        W11938   8.309  20.710   3.648
44871W        W11939  41.809   0.408  13.504
44872W        W11940  43.917  37.907   0.955
44873W        W11941  39.370  27.977   2.823
44874W        W11942  35.428  24.563  13.368
44875W        W11943  29.157  30.105  12.544
44876W        W11944  22.129  15.659  14.028
44877W        W11945  31.469   5.365   3.684
44878W        W11946  29.028  27.103   1.339
44879W        W11947   6.279  25.647  13.428
44880W        W11948  41.490  15.590  14.896
44881W        W11949  25.708  30.489   2.182
44882W        W11950  22.551  27.121  14.851
44883W        W11951   0.972  10.180  10.461
44884W        W11952  44.362   7.762  13.451
44885W        W11953  12.291  28.132  11.123
44886W        W11954  18.126   8.795   2.861
44887W        W11955  27.949   7.807  11.603
44888W        W11956   0.886  34.033   1.430
44889W        W11957  14.162   5.364  12.534
44890W        W11958  36.390   5.738   0.962
44891W        W11959  11.290  12.328   3.249
44892W        W11960  36.432  15.085  14.881
44893W        W11961  12.749  19.735   1.308
44894W        W11962  24.605  32.575   0.266
44895W        W11963  40.967  23.579  11.958
44896W        W11964  28.109  35.906  11.450
44897W        W11965  41.933  21.665  14.276
44898W        W11966  14.257  13.843   4.165
44899W        W11967  14.315  30.641   9.964
44900W        W11968  27.478  19.593   2.866
44901W        W11969   7.829  43.366  13.823
44902W        W11970  38.075  16.210   0.727
44903W        W11971   4.758  40.962   2.255
44904W        W11972  44.973  40.499  13.036
44905W        W11973  37.549   3.826   0.938
44906W        W11974  41.363  40.925   4.320
44907W        W11975   7.180   5.820  12.476
44908W        W11976  20.130  29.007   1.440
44909W        W11977   1.432  36.073  11.904
44910W        W11978   9.191   8.241   0.433
44911W        W11979  23.561  17.259  11.937
44912W        W11980  21.566  27.955   1.813
44913W        W11981  24.063  11.342  11.900
44914W        W11982  20.140  36.929   3.188
44915W        W11983  17.608  17.253   1.443
44916W        W11984   7.905  26.960  14.399
44917W        W11985   6.421  41.847  10.592
44918W        W11986  31.921  27.018  13.809
44919W        W11987  27.152   7.828  13.826
44920W        W11988   0.415  31.448  13.999
44921W        W11989  21.229   5.697   1.336
44922W        W11990   2.280   1.881  10.438
44923W        W11991  33.538  35.520   2.668
44924W        W11992  29.056  32.422   4.803
44925W        W11993  31.508  29.998   0.825
44926W        W11994  15.820  11.696  14.480
44927W        W11995  40.425  10.242   2.692
44928W        W11996   7.373  42.813   1.729
44929W        W11997  38.501  24.085   1.790
44930W        W11998  41.788  22.055   0.391
44931W        W11999  37.430  28.443  14.857
44932W        W12000  27.627  27.019   4.712
44933W        W12001  15.714  34.606   0.373
44934W        W12002  11.177  38.980   0.926
44935W        W12003  14.198   7.893   0.413
44936W        W12004   0.313   3.725  12.393
44937W        W12005  20.197  38.494  10.911
44938W        W12006  21.751  30.522  10.438
44939W        W12007  42.903  36.086  14.924
44940W        W12008  30.613  11.136  12.872
44941W        W12009  41.804  27.657   4.278
44942W        W12010   3.753  35.006  12.527
44943W        W12011  38.346  26.615  14.450
44944W        W12012  36.425   7.248  13.324
44945W        W12013  32.931  24.622  12.520
44946W        W12014  22.518  42.946   3.214
44947W        W12015  18.643  13.317  11.996
44948W        W12016   8.374  33.461   0.966
44949W        W12017  20.544  10.867   4.115
44950W        W12018  36.456  19.700   1.301
44951W        W12019  21.227  38.482  14.005
44952W        W12020   4.940  24.973   4.263
44953W        W12021  36.043  36.553   3.665
44954W        W12022  40.326   7.881  11.112
44955W        W12023  33.961  10.651   1.360
44956W        W12024  33.487  42.988   2.778
44957W        W12025  16.587  21.168  10.042
44958W        W12026  40.349   7.249   3.225
44959W        W12027  32.962   2.289   1.215
44960W        W12028  23.694  16.308  10.532
44961W        W12029  24.677  41.980   4.702
44962W        W12030   6.278  36.492  14.880
44963W        W12031  24.608   5.402  14.838
44964W        W12032  23.218   6.344  12.947
44965W        W12033   9.819  22.717   2.777
44966W        W12034   5.371   2.868  12.907
44967W        W12035  42.959  15.728   1.771
44968W        W12036  30.960  20.234   3.153
44969W        W12037  11.294  35.976   0.351
44970W        W12038  28.496  29.453   1.884
44971W        W12039  10.185  16.673   1.383
44972W        W12040  10.680  35.525   4.258
44973W        W12041   4.353  40.540  14.984
44974W        W12042   7.753   3.824  11.929
44975W        W12043  10.749  36.033  11.068
44976W        W12044  44.982  44.809  10.893
44977W        W12045  31.131  27.524   2.829
44978W        W12046  21.233  38.827   1.451
44979W        W12047  22.612  41.861   2.663
44980W        W12048  38.439  11.708  12.357
44981W        W12049  11.301  19.735  11.549
44982W        W12050  39.874  29.452   1.341
44983W        W12051   1.456  13.710  12.077
44984W        W12052  43.847  14.242   1.854
44985W        W12053  15.793   0.898  13.531
44986W        W12054  17.775  21.202   4.195
44987W        W12055  23.555   0.859  11.610
44988W        W12056   5.236  16.603   0.912
44989W        W12057  36.385  21.664  12.379
44990W        W12058   6.829  17.168  12.404
44991W        W12059   1.382  42.390  12.876
44992W        W12060  36.008  37.389  12.403
44993W        W12061   4.885  19.699  10.629
44994W        W12062  35.006  15.236   1.813
44995W        W12063  17.778  28.577  10.923
44996W        W12064  33.586   1.364  11.396
44997W        W12065  44.923  29.577   3.797
44998W        W12066  27.480  26.111   4.124
44999W        W12067  14.098  11.128  12.967
45000W        W12068  18.599  11.671   4.158
45001W        W12069  32.526   2.821   3.768
45002W        W12070  30.945   9.786  10.915
45003W        W12071  20.205  11.667   4.235
45004W        W12072  29.064   2.898  11.016
45005W        W12073  43.423  20.708  11.427
45006W        W12074  15.091  20.227   3.191
45007W        W12075  27.623  22.232  13.884
45008W        W12076  31.021  11.176   4.803
45009W        W12077   9.197  32.087  13.001
45010W        W12078  27.679  44.327  14.960
45011W        W12079  20.706   6.389   4.148
45012W        W12080   8.370  11.829  10.636
45013W        W12081  38.334   8.676  11.874
45014W        W12082   3.214  34.422   0.422
45015W        W12083  20.587  43.840  14.971
45016W        W12084  16.654   3.408  11.046
45017W        W12085   0.399  17.226  11.066
45018W        W12086  19.150  18.247  12.942
45019W        W12087   9.332  23.214   0.257
45020W        W12088   2.933  20.130  14.493
45021W        W12089  20.182  40.488   0.388
45022W        W12090   8.399  13.674   0.764
45023W        W12091  28.534  33.976   1.711
45024W        W12092  36.472   7.288   4.795
45025W        W12093   4.943  18.154   1.436
45026W        W12094   9.807  24.134  10.504
45027W        W12095   6.202   2.250   0.309
45028W        W12096  33.463  12.278  14.820
45029W        W12097  33.465  12.774  11.921
45030W        W12098  38.520  16.078  10.626
45031W        W12099  21.259  27.456   2.186
45032W        W12100  28.098  10.245   0.817
45033W        W12101  17.583  20.262  10.082
45034W        W12102  29.490  25.520   4.344
45035W        W12103  27.649   7.843  10.432
45036W        W12104  19.052  11.138  11.465
45037W        W12105  17.290   9.702   0.419
45038W        W12106  17.151  37.380  13.879
45039W        W12107   5.767  18.644  12.492
45040W        W12108  37.071   2.324  14.499
45041W        W12109  33.432  37.987  14.844
45042W        W12110  31.428  40.024  13.064
45043W        W12111  40.508  28.008   0.962
45044W        W12112   0.857  24.482  11.923
45045W        W12113  29.636  43.453   3.823
45046W        W12114  28.959   8.662  12.893
45047W        W12115  35.959  12.836  10.551
45048W        W12116   9.867  39.428  14.428
45049W        W12117  20.124   8.823   3.173
45050W        W12118  33.107  27.046   0.801
45051W        W12119  20.165  15.618  12.082
45052W        W12120  12.354   0.492  13.950
45053W        W12121  36.537  20.543  11.429
45054W        W12122  14.701  17.625  14.931
45055W        W12123  29.169  35.856  10.899
45056W        W12124  18.645  37.490   0.369
45057W        W12125   9.766  10.736   0.382
45058W        W12126  43.370  37.347  14.905
45059W        W12127  41.434  27.028  10.611
45060W        W12128  14.199  39.018   2.201
45061W        W12129   0.963  28.176   3.691
45062W        W12130  19.069  35.501   2.261
45063W        W12131  19.189  24.634   4.787
45064W        W12132  20.569  33.091   4.122
45065W        W12133  26.585  44.985   1.442
45066W        W12134   4.846   5.903   3.313
45067W        W12135  44.869  29.103  14.836
45068W        W12136   9.844  10.294   0.850
45069W        W12137  40.512  39.534  11.402
45070W        W12138  11.622   4.871   2.267
45071W        W12139   0.456  17.122  11.458
45072W        W12140  37.541   8.342   0.397
45073W        W12141   7.372  27.593  12.452
45074W        W12142  25.092  25.665   2.183
45075W        W12143  35.521   5.252  13.969
45076W        W12144  17.596  44.365   0.856
45077W        W12145  17.151  37.916   3.325
45078W        W12146  10.865   9.700  13.927
45079W        W12147  38.450  25.136   3.755
45080W        W12148  34.973  38.558   0.933
45081W        W12149  23.569   9.186   4.632
45082W        W12150  19.245  21.180   4.612
45083W        W12151   2.822  17.687   3.185
45084W        W12152  30.527  20.188  14.453
45085W        W12153  29.598  44.859  11.955
45086W        W12154   0.289   0.851  10.974
45087W        W12155  12.707  20.676   4.726
45088W        W12156  44.945  43.944  12.935
45089W        W12157  40.962  14.198   3.704
45090W        W12158  28.056  26.583  11.126
45091W        W12159   0.343  41.788  11.040
45092W        W12160  12.815   8.181  13.335
45093W        W12161  29.949  26.703  10.932
45094W        W12162  26.630   7.832   1.268
45095W        W12163  40.869  19.048  14.463
45096W        W12164  10.841  18.654  13.354
45097W        W12165   9.659   0.761   3.252
45098W        W12166  13.286  12.340  14.911
45099W        W12167  30.014  33.491  13.901
45100W        W12168  38.428  25.478  12.843
45101W        W12169  31.609  38.031  14.946
45102W        W12170  36.499  36.920  14.838
45103W        W12171  24.691  20.119   0.769
45104W        W12172  28.945  14.817  11.083
45105W        W12173   8.898  44.779   3.717
45106W        W12174   4.352  12.226   0.903
45107W        W12175  31.953  42.873   0.917
45108W        W12176  10.364  19.587  10.450
45109W        W12177  12.351  42.448   4.264
45110W        W12178  11.656  18.648   4.650
45111W        W12179  43.320  43.814   3.633
45112W        W12180  13.836   5.369  12.499
45113W        W12181  32.129  43.337  12.959
45114W        W12182   5.913  29.079   4.266
45115W        W12183  32.108   3.446   0.887
45116W        W12184  32.110   5.810   1.804
45117W        W12185  44.831  20.589   2.758
45118W        W12186  33.036  12.649   3.711
45119W        W12187  37.085  38.027   4.656
45120W        W12188   9.804  29.015  11.415
45121W        W12189  26.111  37.005   2.849
45122W        W12190  31.081   8.721  14.275
45123W        W12191  19.581   5.829   0.291
45124W        W12192  39.052  38.904   1.321
45125W        W12193  12.153  24.492  13.022
45126W        W12194  36.059   6.885   3.732
45127W        W12195  12.270  34.007  11.036
45128W        W12196  14.665  14.321  10.898
45129W        W12197  29.156  34.969   5.206
45130W        W12198  41.787  25.531  13.847
45131W        W12199  11.344  43.378  10.445
45132W        W12200  24.558  22.122   4.221
45133W        W12201  14.326  22.176   0.445
45134W        W12202  33.606  30.528  12.458
45135W        W12203   7.267  10.337  13.489
45136W        W12204  11.205  40.973  12.050
45137W        W12205  42.925  43.472   2.767
45138W        W12206  22.154  28.022  11.041
45139W        W12207  13.278  44.001  12.544
45140W        W12208  32.467  21.638   4.268
45141W        W12209   9.291   2.406  14.793
45142W        W12210   0.324  15.224   3.180
45143W        W12211  34.520  19.697   2.371
45144W        W12212  27.096   9.857  11.553
45145W        W12213  34.387   2.779   0.478
45146W        W12214  14.809  28.118   2.235
45147W        W12215  32.988  36.047  11.076
45148W        W12216  31.415  44.925   2.707
45149W        W12217  40.396  35.918   2.740
45150W        W12218  24.483  36.066  10.417
45151W        W12219   9.706  39.350   4.344
45152W        W12220   7.281  20.655  11.052
45153W        W12221  17.676  44.353  13.910
45154W        W12222  19.577  42.821   1.393
45155W        W12223  20.642  17.125   1.723
45156W        W12224  41.349  29.532   2.343
45157W        W12225  22.572  11.862  12.542
45158W        W12226  19.231  25.979  12.341
45159W        W12227   5.923  11.643  14.891
45160W        W12228  30.502  41.393  12.074
45161W        W12229  31.410   6.335   1.777
45162W        W12230   2.741   6.276  12.480
45163W        W12231   2.818   2.280  12.405
45164W        W12232  13.824  18.672  11.904
45165W        W12233   6.276  19.603  11.122
45166W        W12234  10.788  35.445  12.522
45167W        W12235  22.224  19.703  10.901
45168W        W12236  42.871  27.517  13.359
45169W        W12237  41.910  32.053  10.019
45170W        W12238  35.894  19.730  14.311
45171W        W12239   0.885  40.359  12.373
45172W        W12240  41.303  19.734  12.958
45173W        W12241  24.163  40.508   1.448
45174W        W12242  36.955  10.695   3.855
45175W        W12243   6.883  28.566  10.431
45176W        W12244  12.177  24.663   1.441
45177W        W12245  34.606  20.762  12.022
45178W        W12246  28.947  19.110   2.202
45179W        W12247   5.764   5.872  10.939
45180W        W12248  37.531  18.208  12.569
45181W        W12249  43.853  26.102  10.463
45182W        W12250   9.242  36.557  14.917
45183W        W12251  15.628  17.226  11.425
45184W        W12252  32.490  18.579   0.256
45185W        W12253  36.408   2.865   4.790
45186W        W12254  20.681   6.379   2.358
45187W        W12255  37.382  44.977   3.264
45188W        W12256  29.057  41.447  13.481
45189W        W12257  10.721  21.169   0.820
45190W        W12258  24.145  19.049   1.778
45191W        W12259  32.909  12.677   1.842
45192W        W12260  15.098  42.819   3.818
45193W        W12261  13.684  33.875   0.249
45194W        W12262  38.010   2.786  10.468
45195W        W12263  19.661  40.464   2.683
45196W        W12264  21.078  11.301  14.895
45197W        W12265  16.101  37.522  11.856
45198W        W12266  26.505  25.477   5.242
45199W        W12267  12.267  23.137  10.473
45200W        W12268  21.596  13.626  11.033
45201W        W12269  11.216   4.263  11.549
45202W        W12270   5.218  32.126  14.290
45203W        W12271   6.859  40.878   0.455
45204W        W12272  22.024  35.956  14.970
45205W        W12273   1.852   1.270  14.379
45206W        W12274  17.775  25.031   4.203
45207W        W12275  43.285  31.150  13.978
45208W        W12276   3.302   3.771  11.604
45209W        W12277   5.281  25.688  12.375
45210W        W12278  21.616  22.736  12.928
45211W        W12279  13.714  28.021  11.581
45212W        W12280  29.474  25.145   3.648
45213W        W12281  20.178  15.184  14.956
45214W        W12282  19.540  25.121   4.599
45215W        W12283  21.144  35.407   4.245
45216W        W12284   8.728  41.958  11.103
45217W        W12285  19.071   3.407  11.537
45218W        W12286  38.466  10.207  13.524
45219W        W12287  26.696  41.506   3.360
45220W        W12288  30.093  36.558  12.433
45221W        W12289   9.724  30.589  10.574
45222W        W12290  31.038   7.264  12.492
45223W        W12291  26.651   7.736   1.926
45224W        W12292   5.423  36.532   1.890
45225W        W12293   5.886   8.321  11.895
45226W        W12294   5.853  38.342   3.178
45227W        W12295  34.462  42.850   2.261
45228W        W12296  23.606  42.012   0.824
45229W        W12297   9.653  33.388  14.353
45230W        W12298   5.814   5.198  12.571
45231W        W12299  38.442  38.974  11.394
45232W        W12300   0.793  33.494   0.386
45233W        W12301  28.941  27.507   4.312
45234W        W12302  36.412   5.733  11.937
45235W        W12303  37.873  41.904  12.854
45236W        W12304  17.768  16.674  11.538
45237W        W12305  34.006  44.852  13.907
45238W        W12306  42.907  33.460  13.465
45239W        W12307  13.709   5.203  14.848
45240W        W12308  22.593   5.825  10.638
45241W        W12309  25.100   7.803   4.826
45242W        W12310  40.937  25.014   3.307
45243W        W12311  24.125  20.174   2.306
45244W        W12312  20.095  19.133   3.721
45245W        W12313  42.779  24.027   4.605
45246W        W12314  15.728  44.417   1.311
45247W        W12315  44.983  39.976  12.548
45248W        W12316  35.437  10.152  10.492
45249W        W12317  34.904  26.181   4.302
45250W        W12318  38.514  30.610   2.294
45251W        W12319  19.045  23.625  13.529
45252W        W12320  37.382  16.692   1.441
45253W        W12321  22.218  42.998   3.771
45254W        W12322  10.203  22.178   0.317
45255W        W12323  17.270  24.632  13.405
45256W        W12324  24.041   9.831  14.279
45257W        W12325   9.652  29.638  11.591
45258W        W12326  42.887  42.879   4.232
45259W        W12327   5.853  34.117   3.732
45260W        W12328  44.890  18.271  11.456
45261W        W12329  43.787   7.877  11.921
45262W        W12330  13.295  22.731  11.030
45263W        W12331  27.044  21.200   2.381
45264W        W12332  38.944  40.355   5.234
45265W        W12333  43.009  14.708   4.257
45266W        W12334  24.558  23.089  14.275
45267W        W12335  34.023  18.714  13.896
45268W        W12336   4.216  15.326   0.948
45269W        W12337  30.029  27.669  13.419
45270W        W12338   0.940   5.316  10.993
45271W        W12339  15.725   7.176   1.731
45272W        W12340  42.321  18.573  13.885
45273W        W12341  11.693   5.881  14.784
45274W        W12342  33.574  16.674   3.269
45275W        W12343  34.540  11.844  13.355
45276W        W12344  20.760   1.469   1.366
45277W        W12345   7.380   2.382   4.157
45278W        W12346  37.482  38.376   3.330
45279W        W12347  23.526   8.290  10.619
45280W        W12348   2.455  10.788  13.942
45281W        W12349  33.467  17.224   1.346
45282W        W12350   0.860  14.318   4.260
45283W        W12351  13.676  24.105  11.391
45284W        W12352  26.144   8.720   4.238
45285W        W12353  37.064   8.242   0.902
45286W        W12354  24.976  26.183   1.804
45287W        W12355   4.259  29.022  13.046
45288W        W12356  33.950  30.929   0.912
45289W        W12357  41.040  18.639   0.837
45290W        W12358  43.809  18.643  13.000
45291W        W12359  29.941  18.219  13.496
45292W        W12360  10.637  44.296   4.134
45293W        W12361  12.169   7.809   4.344
45294W        W12362  12.704  24.549   4.132
45295W        W12363  16.658   1.798   4.264
45296W        W12364  16.602  31.591   1.363
45297W        W12365  11.781  25.108   0.356
45298W        W12366  40.884  16.698  14.311
45299W        W12367   3.864  32.088   0.385
45300W        W12368   5.263  19.556   5.251
45301W        W12369  13.841  32.105   3.797
45302W        W12370  34.560   0.347   0.865
45303W        W12371  27.171   1.751   4.180
45304W        W12372  22.199  33.425   3.295
45305W        W12373  13.277   8.182   0.271
45306W        W12374  12.346  38.379   1.703
45307W        W12375  24.603  13.181  10.508
45308W        W12376  17.182  26.663  13.339
45309W        W12377   8.277  24.105  10.502
45310W        W12378  34.000  10.338   5.316
45311W        W12379  21.078   9.341  10.941
45312W        W12380   7.239  21.081   2.223
45313W        W12381  13.775   9.336  12.451
45314W        W12382   2.874  13.330   0.928
45315W        W12383  33.426  26.194   0.864
45316W        W12384  37.478   1.969   1.736
45317W        W12385  20.206  29.565  13.427
45318W        W12386  14.241  38.011   1.246
45319W        W12387  38.826   5.757  13.460
45320W        W12388   8.174  20.584  11.051
45321W        W12389  29.457   6.376   0.902
45322W        W12390  25.015  43.878  13.517
45323W        W12391  33.448   4.397  12.888
45324W        W12392  28.653  38.484  13.930
45325W        W12393  17.691  20.659   0.806
45326W        W12394  11.710  32.479   0.354
45327W        W12395  36.085  38.866   1.402
45328W        W12396  37.851   6.774  11.479
45329W        W12397   9.781  28.019  13.491
45330W        W12398  42.314  37.991   4.326
45331W        W12399  16.242   2.246   3.372
45332W        W12400  27.059  18.173  11.948
45333W        W12401   0.386  44.972   4.174
45334W        W12402  12.268  28.613   0.738
45335W        W12403  17.237  15.582  11.944
45336W        W12404  24.213  41.894  10.969
45337W        W12405  23.144  29.176   0.337
45338W        W12406  31.598  12.308   3.379
45339W        W12407  29.941  31.150  11.961
45340W        W12408   3.358   0.410   2.347
45341W        W12409  11.326  43.289  13.373
45342W        W12410  38.037  10.774  12.496
45343W        W12411   8.880  14.733  12.053
45344W        W12412  24.983  18.135   4.184
45345W        W12413  34.531  35.037   2.763
45346W        W12414  12.120   7.331   4.652
45347W        W12415  35.957  11.799  14.787
45348W        W12416  14.632   9.275   1.711
45349W        W12417  44.917  10.237  11.405
45350W        W12418  10.183   1.258  10.144
45351W        W12419  18.633  14.702   0.462
45352W        W12420  15.690   9.233  11.610
45353W        W12421  21.752  24.017   1.449
45354W        W12422  44.923  10.732  11.430
45355W        W12423  14.317  34.898   4.352
45356W        W12424  40.499  22.062   1.811
45357W        W12425  19.060   0.951   3.250
45358W        W12426  34.492  36.085  11.440
45359W        W12427  15.689  18.662  10.114
45360W        W12428  41.296  32.899   4.631
45361W        W12429  19.632  14.734  10.591
45362W        W12430  32.395  35.079  13.931
45363W        W12431  31.477  35.086   1.239
45364W        W12432  27.149  16.204   4.308
45365W        W12433   6.231  25.617  10.466
45366W        W12434  36.956  31.428   3.642
45367W        W12435  31.935  43.343   0.847
45368W        W12436  42.821   4.843  14.368
45369W        W12437  36.059  11.313  13.934
45370W        W12438  40.360  19.165  12.845
45371W        W12439  32.637  13.673   5.225
45372W        W12440   6.389  17.230  11.607
45373W        W12441  40.459  44.412   5.256
45374W        W12442  39.830   2.439  13.005
45375W        W12443  34.476  28.971  12.442
45376W        W12444  32.562  27.513  12.569
45377W        W12445  23.037   4.272   2.201
45378W        W12446  29.628  19.251   2.210
45379W        W12447   0.420  27.599   4.124
45380W        W12448   6.267  28.559   3.692
45381W        W12449  26.989  27.658  13.318
45382W        W12450  23.024  31.536  13.459
45383W        W12451  28.961  28.973   2.811
45384W        W12452  23.146  28.051  10.139
45385W        W12453  39.828  13.267   4.724
45386W        W12454  35.476  24.122   1.716
45387W        W12455  36.048  22.518  10.407
45388W        W12456  18.118   9.282  14.814
45389W        W12457  29.012   3.409  14.365
45390W        W12458   9.241   5.712   3.179
45391W        W12459  33.486  41.441  10.499
45392W        W12460   3.309   7.789  12.986
45393W        W12461  29.522  28.564   1.806
45394W        W12462   2.740  43.461  11.500
45395W        W12463  30.588  29.044  14.456
45396W        W12464  28.028  31.445  12.581
45397W        W12465  32.441  23.728   2.191
45398W        W12466  16.254   8.772  14.809
45399W        W12467  34.890  29.020   3.274
45400W        W12468   6.728  32.980   1.878
45401W        W12469   0.431  25.107   0.302
45402W        W12470  36.476  38.505   2.261
45403W        W12471  36.871  39.034  12.423
45404W        W12472  13.783  13.169  14.981
45405W        W12473  23.235  35.030   1.921
45406W        W12474  25.079  17.581  14.986
45407W        W12475  24.005   1.931  10.460
45408W        W12476   9.199  41.453  12.485
45409W        W12477  25.064  21.041  10.494
45410W        W12478  41.844  23.624  10.971
45411W        W12479   5.272  44.836  13.044
45412W        W12480  42.364  16.569  12.072
45413W        W12481  34.418   5.828  13.307
45414W        W12482  30.137  19.180   3.361
45415W        W12483  39.439  25.485  14.823
45416W        W12484  37.557  44.418  11.921
45417W        W12485  38.564  23.577   3.653
45418W        W12486   3.951  17.657  10.637
45419W        W12487  35.069   5.337  11.071
45420W        W12488  29.526  11.849  13.842
45421W        W12489  31.063  25.667  14.986
45422W        W12490  27.634  12.170  14.475
45423W        W12491  41.895   0.459   2.365
45424W        W12492   1.928   8.839   3.731
45425W        W12493  15.242   7.317  11.884
45426W        W12494  21.514  34.475   2.322
45427W        W12495  42.459   8.282   0.251
45428W        W12496  43.294  32.567  13.526
45429W        W12497  41.436   7.334   4.226
45430W        W12498  26.969  34.029   2.898
45431W        W12499   1.772   4.207   3.859
45432W        W12500  32.076   0.887   1.321
45433W        W12501  28.526  40.517  11.457
45434W        W12502  12.338  16.591  14.835
45435W        W12503  37.412  20.241   1.783
45436W        W12504  32.010  41.426  13.394
45437W        W12505   5.745  43.780  11.603
45438W        W12506  24.052  38.452  12.993
45439W        W12507  16.626   5.703  13.854
45440W        W12508  37.082  15.273   4.123
45441W        W12509  43.990  33.911   9.497
45442W        W12510  39.842  26.149  10.609
45443W        W12511  18.088  29.624  12.003
45444W        W12512   0.782  32.989  12.995
45445W        W12513  32.556  17.237  14.939
45446W        W12514  32.530   9.182  14.938
45447W        W12515  19.051  29.031   1.384
45448W        W12516  10.860  21.150  14.943
45449W        W12517   1.427  35.430   4.136
45450W        W12518  31.013  42.520  13.510
45451W        W12519   8.836  41.325   0.445
45452W        W12520  41.536   1.434  14.343
45453W        W12521  32.602   8.785  12.863
45454W        W12522  38.346  21.216  14.020
45455W        W12523  32.128  18.618  11.590
45456W        W12524  43.325   8.670   4.273
45457W        W12525  12.192  32.962   3.180
45458W        W12526  44.503   1.805  10.970
45459W        W12527  26.627  42.008   0.330
45460W        W12528  28.557  44.894   0.430
45461W        W12529   5.303  41.369   0.278
45462W        W12530  28.597  22.633   4.837
45463W        W12531   4.853  32.902  10.524
45464W        W12532  39.926  27.005   0.819
45465W        W12533   3.810  39.815  12.049
45466W        W12534  21.225  27.997   1.365
45467W        W12535   9.705  17.698  13.511
45468W        W12536  18.254  30.585   1.446
45469W        W12537  41.338   9.353   0.954
45470W        W12538  25.469  20.069  11.939
45471W        W12539  36.502  25.132   2.413
45472W        W12540  21.090  41.827   0.358
45473W        W12541  41.009  27.497   0.747
45474W        W12542  22.088  26.017  12.980
45475W        W12543  32.075  44.862   2.888
45476W        W12544  10.168  36.358  11.989
45477W        W12545   0.251  13.245   1.744
45478W        W12546  35.928  16.636  13.393
45479W        W12547  27.155  13.818   3.170
45480W        W12548  15.782   5.917   2.889
45481W        W12549  43.989  42.414   2.851
45482W        W12550  25.540   6.400  14.900
45483W        W12551  41.847  20.732   4.778
45484W        W12552  33.098  20.218   1.768
45485W        W12553   9.668  16.690   2.181
45486W        W12554   8.717  41.484  14.950
45487W        W12555  14.150  11.828   1.854
45488W        W12556  21.538  26.519  14.380
45489W        W12557  16.191  17.598   2.826
45490W        W12558  41.887  40.798   4.253
45491W        W12559  35.892   8.752  11.996
45492W        W12560  18.786  15.636   2.805
45493W        W12561  20.085  11.827  14.006
45494W        W12562  10.299  11.143  10.619
45495W        W12563  44.465  31.069  10.947
45496W        W12564  20.695  35.040   3.637
45497W        W12565  16.121  19.595   1.374
45498W        W12566   5.435  33.453  13.408
45499W        W12567  18.123  36.408  12.541
45500W        W12568  44.261   0.959  14.485
45501W        W12569  11.654  35.430  11.509
45502W        W12570   5.933  27.964   1.813
45503W        W12571  31.535  35.369  11.107
45504W        W12572  34.466  40.511  13.479
45505W        W12573   7.765  23.520   3.334
45506W        W12574  30.448   4.816  11.903
45507W        W12575  27.182  26.187   0.851
45508W        W12576  24.720  11.288   4.683
45509W        W12577  43.377   4.246  13.799
45510W        W12578  26.510  22.512   0.381
45511W        W12579  14.803  32.495   3.815
45512W        W12580  32.896   6.886  10.641
45513W        W12581  29.009  35.961  13.423
45514W        W12582  16.112   7.847   0.332
45515W        W12583  42.395  18.224   1.929
45516W        W12584  22.642  30.477   2.756
45517W        W12585   4.797  17.188   3.687
45518W        W12586  32.046  20.255  14.926
45519W        W12587  18.286  29.528   0.425
45520W        W12588  38.834  11.180  11.407
45521W        W12589   0.266  18.651  14.839
45522W        W12590  37.382   4.907  10.156
45523W        W12591  17.067  23.051   0.351
45524W        W12592  31.142  31.492   0.294
45525W        W12593  29.553  29.462  11.548
45526W        W12594   3.368  34.928   3.747
45527W        W12595   3.219  20.678  11.567
45528W        W12596  34.483  18.248   1.340
45529W        W12597  38.001  40.884  11.982
45530W        W12598  11.354   3.765   2.885
45531W        W12599   3.239  22.680  12.533
45532W        W12600  38.857   2.896  11.600
45533W        W12601  36.545   7.749  13.052
45534W        W12602  12.783   0.395   0.734
45535W        W12603  23.598  10.338  14.455
45536W        W12604  30.475   8.723  14.485
45537W        W12605  18.771  28.515   1.916
45538W        W12606  20.715   0.797  12.871
45539W        W12607  20.051  17.305   0.835
45540W        W12608  26.968   3.899  11.408
45541W        W12609   7.253  11.167   2.766
45542W        W12610   0.343  42.798   2.676
45543W        W12611  37.335   9.722  14.446
45544W        W12612  29.981  28.956  12.843
45545W        W12613  18.183  18.052   1.760
45546W        W12614  35.981  34.515   2.270
45547W        W12615  40.370   5.766  12.039
45548W        W12616  34.047  40.308  13.899
45549W        W12617   9.837  36.060  14.842
45550W        W12618  20.189  35.431  13.057
45551W        W12619   8.823  29.130  13.392
45552W        W12620  36.860   5.255   1.289
45553W        W12621   4.840  23.661  14.498
45554W        W12622  27.683  16.709  13.476
45555W        W12623  28.111   5.398   0.481
45556W        W12624  20.637   7.694  12.933
45557W        W12625  19.193  43.812   4.235
45558W        W12626  42.326  17.217   4.243
45559W        W12627  24.992  36.588   5.123
45560W        W12628  41.343  30.083  11.974
45561W        W12629  42.847  39.849   4.620
45562W        W12630  15.647  25.131  10.484
45563W        W12631   0.361  26.488   0.294
45564W        W12632  32.536   5.745  11.562
45565W        W12633  33.429  34.474   4.221
45566W        W12634  17.572  33.924   3.226
45567W        W12635   9.348   2.820  10.513
45568W        W12636  27.663  26.685  10.514
45569W        W12637  19.094  12.643   2.264
45570W        W12638  31.474  33.005   1.451
45571W        W12639  24.004  40.547  11.069
45572W        W12640  28.184  16.182   1.912
45573W        W12641  30.992  22.664  14.814
45574W        W12642  44.451  30.449   3.859
45575W        W12643  36.593   3.779   0.956
45576W        W12644  22.501   6.896  12.535
45577W        W12645  41.323  30.002  10.928
45578W        W12646  43.866  15.262   4.746
45579W        W12647  26.473  39.400  12.068
45580W        W12648   7.843  12.662   2.201
45581W        W12649  23.020  12.762  13.799
45582W        W12650  23.715  22.530  10.889
45583W        W12651   3.741   8.850   4.324
45584W        W12652   4.802  13.235  14.283
45585W        W12653  22.110  37.435  13.322
45586W        W12654  30.097  18.640  11.972
45587W        W12655  11.666   7.696   0.364
45588W        W12656   4.740  31.558  10.560
45589W        W12657  10.217   6.313  12.546
45590W        W12658   1.783  27.113  13.493
45591W        W12659  37.467  34.516  12.525
45592W        W12660  19.045   6.764   1.215
45593W        W12661  12.272  25.094  14.791
45594W        W12662  16.598   1.870   4.697
45595W        W12663   9.327  21.168   4.620
45596W        W12664   2.780   2.849   4.168
45597W        W12665  10.156   2.237   4.784
45598W        W12666   7.292  35.595  11.882
45599W        W12667  44.869  25.081  11.026
45600W        W12668   8.721  19.576   4.765
45601W        W12669  21.606  17.604  11.107
45602W        W12670  19.609  11.323   0.298
45603W        W12671  20.760  44.963   1.438
45604W        W12672  29.068   2.449  11.055
45605W        W12673   6.226  27.499   1.908
45606W        W12674  24.103  38.410  10.615
45607W        W12675  37.561  10.855  11.016
45608W        W12676   8.898  21.235   5.097
45609W        W12677  23.986  17.186   2.264
45610W        W12678   3.809  23.616  11.891
45611W        W12679   8.680  19.705   3.381
45612W        W12680   6.863  29.628   1.708
45613W        W12681  20.702  27.592  12.436
45614W        W12682   3.885  38.826  14.890
45615W        W12683   4.866  11.181   2.776
45616W        W12684  28.635   7.232   4.351
45617W        W12685  24.187  10.143   1.260
45618W        W12686  41.312  12.199   4.768
45619W        W12687  41.417  40.824   3.851
45620W        W12688   1.834  28.644   0.838
45621W        W12689   3.944  21.556   2.863
45622W        W12690  15.275  27.980   1.371
45623W        W12691  42.513  12.668   1.923
45624W        W12692  19.732  20.065  12.868
45625W        W12693  34.524  18.242   3.171
45626W        W12694   6.364  22.131   3.183
45627W        W12695  19.618  38.439  11.023
45628W        W12696  19.284  10.141  10.643
45629W        W12697  32.427  39.483  12.480
45630W        W12698   3.861  42.782   0.827
45631W        W12699  27.188  28.610  14.303
45632W        W12700  13.242  27.011   4.727
45633W        W12701  36.561  33.595   4.767
45634W        W12702  29.935  25.012   3.210
45635W        W12703  11.698   6.249   2.819
45636W        W12704  25.026   2.384   0.923
45637W        W12705  43.273   8.894  11.127
45638W        W12706  37.958  28.029   2.838
45639W        W12707  35.474  20.116   0.825
45640W        W12708  21.178  11.822   2.290
45641W        W12709  33.576  18.761  12.830
45642W        W12710  16.678  44.421  12.073
45643W        W12711   6.805   0.263   0.877
45644W        W12712   2.361  42.873  11.867
45645W        W12713  19.117  42.011   0.962
45646W        W12714  37.865   8.197   2.827
45647W        W12715   1.333   0.446   2.409
45648W        W12716   7.180  20.161  13.812
45649W        W12717  36.864  29.090   4.240
45650W        W12718   3.727  14.235  13.423
45651W        W12719   3.264   1.340  12.492
45652W        W12720  33.108  19.262   0.331
45653W        W12721  40.946  39.885  11.609
45654W        W12722  44.766  44.390   1.433
45655W        W12723  28.665  10.166  10.953
45656W        W12724  19.165  14.623   3.634
45657W        W12725  25.169  42.016   1.220
45658W        W12726  35.107  26.141   2.859
45659W        W12727   1.330  28.016   2.282
45660W        W12728  40.346  23.193  10.946
45661W        W12729  22.720   4.388  13.462
45662W        W12730  44.373  20.643  11.952
45663W        W12731  42.856  21.197  12.528
45664W        W12732  10.171  44.937  10.951
45665W        W12733  38.557  39.058  10.629
45666W        W12734  26.019  10.279  13.922
45667W        W12735  22.159  30.633  13.530
45668W        W12736   3.803  23.625  11.495
45669W        W12737  29.480  33.029  13.938
45670W        W12738  41.874  18.596   1.863
45671W        W12739   1.883  14.196  12.440
45672W        W12740  26.518  42.367  10.905
45673W        W12741   9.353   1.935  12.827
45674W        W12742   2.927  20.649  11.989
45675W        W12743  34.452  35.907   3.661
45676W        W12744  38.912  11.156  13.901
45677W        W12745   6.367   9.677   3.189
45678W        W12746  43.482  32.019  11.529
45679W        W12747  16.710  43.779  10.924
45680W        W12748  15.288   1.785   4.137
45681W        W12749  29.430   5.228   0.930
45682W        W12750   3.742   0.418   1.787
45683W        W12751   3.361  11.716  12.008
45684W        W12752  20.122  39.532   2.890
45685W        W12753  35.518  17.740   1.814
45686W        W12754  19.612  14.139   2.307
45687W        W12755   7.267  24.636  10.451
45688W        W12756  35.973  39.528  12.526
45689W        W12757  21.530  31.078  11.985
45690W        W12758  44.417  26.048  13.950
45691W        W12759  18.549  21.550  11.507
45692W        W12760  17.641  13.629   1.865
45693W        W12761  34.965  41.925  12.824
45694W        W12762  12.819  18.107  13.892
45695W        W12763  10.228  43.345  13.307
45696W        W12764  27.152  25.206   1.823
45697W        W12765  18.072  18.233   0.292
45698W        W12766  15.247  10.863   5.174
45699W        W12767  24.101   0.428   0.773
45700W        W12768  15.800  27.620   1.300
45701W        W12769  42.863  40.903   4.281
45702W        W12770  44.292  30.545   4.172
45703W        W12771  33.046   3.713   1.319
45704W        W12772  44.871  40.987   0.806
45705W        W12773  27.579  12.735   3.234
45706W        W12774  33.898  30.474  13.492
45707W        W12775  22.051  23.128   1.256
45708W        W12776  21.571  18.584   2.244
45709W        W12777  28.470  17.592   0.380
45710W        W12778  29.500  37.429   0.477
45711W        W12779  25.522  16.602  12.400
45712W        W12780   3.317   0.943   2.397
45713W        W12781  34.977  29.054  14.457
45714W        W12782  34.542  41.384   1.715
45715W        W12783  20.108  11.792   3.266
45716W        W12784  20.092  21.225  10.959
45717W        W12785  17.740   7.398  12.405
45718W        W12786  23.112  21.622  14.024
45719W        W12787   6.736  30.931  14.910
45720W        W12788  28.604   8.727   1.309
45721W        W12789  31.023  19.762   1.390
45722W        W12790   4.245   2.285  12.085
45723W        W12791  18.609   3.330  13.499
45724W        W12792  19.621  10.312  14.312
45725W        W12793  38.379  27.054   1.762
45726W        W12794  36.550  29.606   3.177
45727W        W12795  34.550  23.020  13.512
45728W        W12796  34.508  31.957   3.292
45729W        W12797   5.882  17.629   4.217
45730W        W12798   8.671   1.314   2.807
45731W        W12799  34.466  13.684  10.903
45732W        W12800  44.453  14.144   4.628
45733W        W12801  26.616  37.021  11.548
45734W        W12802   7.408   4.397   1.730
45735W        W12803  23.212   3.745  13.829
45736W        W12804  23.156  22.560   0.736
45737W        W12805  42.992   0.795   3.254
45738W        W12806  36.033  43.944  13.925
45739W        W12807  20.147  35.023   0.260
45740W        W12808  12.830  15.292   2.819
45741W        W12809  21.664  16.131  11.417
45742W        W12810  19.616  38.908  13.391
45743W        W12811  26.038  35.978  14.021
45744W        W12812  44.401   3.943  11.518
45745W        W12813  13.135  39.902   1.334
45746W        W12814   4.715   6.329  13.524
45747W        W12815  13.293  43.455  12.380
45748W        W12816  38.367   6.751   0.453
45749W        W12817  17.158   8.282   1.769
45750W        W12818  25.076  19.216   2.331
45751W        W12819  42.418   5.733  13.507
45752W        W12820   3.398  10.733   3.800
45753W        W12821   5.413  25.058  11.969
45754W        W12822  39.959  18.667  12.363
45755W        W12823  22.186  34.901  13.029
45756W        W12824  15.597  14.118   2.849
45757W        W12825  19.231   5.198   4.598
45758W        W12826  24.501  19.568  12.420
45759W        W12827   2.294  37.972  14.454
45760W        W12828   4.314  13.152   4.354
45761W        W12829   1.826  15.743  10.565
45762W        W12830   7.262  16.573   1.744
45763W        W12831  10.652  33.026   1.360
45764W        W12832   4.354  19.230   2.712
45765W        W12833  13.679  22.018  10.493
45766W        W12834  25.698  16.567   4.124
45767W        W12835  21.117  40.378   2.271
45768W        W12836  12.735  31.096  10.897
45769W        W12837  40.424  20.202  11.049
45770W        W12838   0.301  14.111  14.996
45771W        W12839   2.370  34.376  10.917
45772W        W12840  41.306   5.311   1.406
45773W        W12841   0.486  26.066  14.888
45774W        W12842  41.387   4.796  12.839
45775W        W12843  23.662  15.197  11.460
45776W        W12844  10.745  37.496   0.918
45777W        W12845  20.753  28.056  14.327
45778W        W12846  15.314  13.694   3.239
45779W        W12847  24.646  15.274   0.946
45780W        W12848   6.891  17.294   3.383
45781W        W12849  10.719  20.693   1.855
45782W        W12850  22.693  44.273   0.772
45783W        W12851  44.284  18.218  14.017
45784W        W12852  34.434  22.241  14.367
45785W        W12853  32.443  44.941  14.394
45786W        W12854   5.237   3.296  12.086
45787W        W12855  30.988   1.732  11.480
45788W        W12856  32.405  33.090  10.969
45789W        W12857   6.239   7.854  13.540
45790W        W12858   3.925  34.557   4.319
45791W        W12859   5.770   0.399   4.761
45792W        W12860  29.544  39.846  12.985
45793W        W12861  30.083   3.863  13.916
45794W        W12862   8.236  34.459  13.315
45795W        W12863  26.182  14.151   2.755
45796W        W12864  30.469  14.189  11.914
45797W        W12865  30.908   2.303  14.807
45798W        W12866   7.665  27.043  12.999
45799W        W12867  40.949  28.100  13.314
45800W        W12868   3.738  33.102  14.844
45801W        W12869   3.748  11.250  14.411
45802W        W12870   7.322  40.875   1.241
45803W        W12871  42.949  20.266   5.131
45804W        W12872   6.225  15.087  10.955
45805W        W12873  14.125  26.488   1.249
45806W        W12874  15.639  43.506   0.463
45807W        W12875  29.044  15.641  10.437
45808W        W12876  26.151   6.724  10.528
45809W        W12877  25.123  33.983   1.826
45810W        W12878  14.780   4.919  10.608
45811W        W12879  31.421  30.028  14.854
45812W        W12880  14.648  42.466  10.972
45813W        W12881  13.339   9.679   0.443
45814W        W12882   3.864  19.685  13.035
45815W        W12883  38.956  32.007  12.414
45816W        W12884  12.131  15.800   0.845
45817W        W12885  44.267  14.789   0.252
45818W        W12886  35.357  19.040   4.134
45819W        W12887  16.603  23.662   2.740
45820W        W12888  28.523  28.447  12.433
45821W        W12889  25.172   2.326   2.770
45822W        W12890   6.830   1.750   4.692
45823W        W12891  33.015   5.312   3.304
45824W        W12892  11.800  12.289  12.368
45825W        W12893  34.072  16.165   0.744
45826W        W12894  10.229  15.314  10.064
45827W        W12895  37.837  14.182   4.736
45828W        W12896  20.210   1.834   1.330
45829W        W12897   9.208  26.491   4.209
45830W        W12898  32.930  11.142   1.224
45831W        W12899   5.831  10.835  14.863
45832W        W12900   0.881  32.582  14.387
45833W        W12901  19.746   6.202   0.408
45834W        W12902   2.750  10.180   3.340
45835W        W12903   0.915  38.867   9.998
45836W        W12904   1.248   8.209  12.382
45837W        W12905  30.423  19.666  13.312
45838W        W12906   6.203  35.054  12.562
45839W        W12907   9.823  22.564  13.358
45840W        W12908  17.178  17.561  12.021
45841W        W12909   5.807  42.945   0.746
45842W        W12910  33.015  16.712  12.052
45843W        W12911  15.264  25.974  14.800
45844W        W12912  20.747   9.695   4.702
45845W        W12913  31.095   8.887   2.375
45846W        W12914  21.532  24.025  13.405
45847W        W12915  42.380  11.258   0.842
45848W        W12916  37.476   1.392  11.440
45849W        W12917  13.277  33.459  12.998
45850W        W12918   5.243  24.051  12.036
45851W        W12919   1.469   6.198   1.851
45852W        W12920   8.656  24.204   0.415
45853W        W12921   7.413  37.990   0.924
45854W        W12922  24.557   3.296   0.385
45855W        W12923   3.426  42.427   2.276
45856W        W12924  18.600  13.673   4.331
45857W        W12925  39.432  23.020  10.582
45858W        W12926  31.464  18.199   3.689
45859W        W12927   4.771  22.045   1.841
45860W        W12928  22.742   2.226  10.452
45861W        W12929  24.524  17.130  14.807
45862W        W12930  13.611  37.357   2.771
45863W        W12931  20.182  13.782   4.309
45864W        W12932  14.318  35.593  12.482
45865W        W12933   7.284  31.153  11.470
45866W        W12934  39.383  22.186   1.826
45867W        W12935  28.037  32.434  13.954
45868W        W12936  13.795  26.584   4.718
45869W        W12937  35.898  21.537  13.402
45870W        W12938  27.080   1.760  11.477
45871W        W12939  13.218  27.187  12.368
45872W        W12940  39.829  35.077  11.009
45873W        W12941  26.459  17.174  12.992
45874W        W12942   7.187  36.550   3.827
45875W        W12943   3.859  27.581  13.491
45876W        W12944  25.524  20.243  13.432
45877W        W12945  37.971  30.002   3.316
45878W        W12946   1.941  16.300   1.779
45879W        W12947   4.827  12.306   3.224
45880W        W12948  38.952  11.635  10.474
45881W        W12949  28.046  22.516  13.485
45882W        W12950  34.527   2.947  14.839
45883W        W12951  13.157   5.712   2.370
45884W        W12952  31.115  21.568  11.484
45885W        W12953   1.920  39.465  14.349
45886W        W12954   1.878  40.026  13.533
45887W        W12955  29.540  12.302   3.360
45888W        W12956  18.133  40.484  13.980
45889W        W12957  15.150   7.679   4.761
45890W        W12958   0.282  37.084  12.377
45891W        W12959  24.043  41.475   0.935
45892W        W12960   3.771   4.811  14.425
45893W        W12961  33.396  28.567  13.049
45894W        W12962  17.125  14.655   1.735
45895W        W12963   1.391   5.306  14.299
45896W        W12964  16.812  40.811  14.950
45897W        W12965  10.363   8.792   4.765
45898W        W12966  29.507  40.333  14.784
45899W        W12967   3.315  26.557  14.483
45900W        W12968  20.672  41.315  12.827
45901W        W12969  32.963  36.894   4.241
45902W        W12970  23.203   7.792  14.818
45903W        W12971   6.224  21.157   2.379
45904W        W12972   1.371  32.045  14.855
45905W        W12973  10.877  22.176   2.296
45906W        W12974  26.994  12.672   4.729
45907W        W12975   5.359  17.085  12.083
45908W        W12976  19.558  19.764   1.920
45909W        W12977  12.825  16.260   4.653
45910W        W12978  30.658  38.560   1.232
45911W        W12979   9.383  37.926   1.432
45912W        W12980  37.880  39.877  13.886
45913W        W12981  34.403   7.395  14.288
45914W        W12982  18.140   5.931  10.588
45915W        W12983  44.924   9.794   0.905
45916W        W12984  22.732  17.749  10.149
45917W        W12985  14.609  24.541  11.484
45918W        W12986  36.917  15.287   0.936
45919W        W12987  27.584  43.349   1.229
45920W        W12988  25.143  14.229  10.628
45921W        W12989  22.197  37.964   3.206
45922W        W12990   3.230  40.425   1.797
45923W        W12991  19.093  39.558   2.388
45924W        W12992  29.558  35.533  11.568
45925W        W12993   6.242  39.330  12.468
45926W        W12994   9.384  34.902  10.597
45927W        W12995  44.981  23.029  11.993
45928W        W12996  32.002  33.119  14.412
45929W        W12997  43.354  17.245   3.863
45930W        W12998  10.711  30.953   0.923
45931W        W12999  31.458  31.151   2.769
45932W        W13000  25.029  34.480   1.774
45933W        W13001   3.860  18.087  13.473
45934W        W13002  23.140  12.657  11.596
45935W        W13003  29.054  43.895   2.802
45936W        W13004   0.404  29.505   0.964
45937W        W13005  26.493  36.460  12.556
45938W        W13006  37.572  10.340   3.855
45939W        W13007  37.455  23.733  10.502
45940W        W13008   7.254  42.287   1.381
45941W        W13009  34.055  39.042   1.292
45942W        W13010  29.525  27.573   0.763
45943W        W13011   2.437   5.803   4.752
45944W        W13012  41.842  27.958   3.730
45945W        W13013  21.144  44.809  14.490
45946W        W13014   4.746  29.129   1.723
45947W        W13015  44.473  38.942   3.704
45948W        W13016  31.614  33.118   2.808
45949W        W13017  40.919   4.354  11.377
45950W        W13018   3.317   6.749   0.963
45951W        W13019  11.850   1.817  11.553
45952W        W13020  43.319  33.962  10.486
45953W        W13021  10.194  38.438   4.652
45954W        W13022   8.373  31.948  12.497
45955W        W13023  12.837  19.598   4.346
45956W        W13024   8.394  18.683   3.278
45957W        W13025   4.443  35.005  11.512
45958W        W13026  36.852  23.587   3.230
45959W        W13027  13.798   8.878  11.522
45960W        W13028  32.948  20.219   0.477
45961W        W13029   3.393   4.424   0.847
45962W        W13030  21.215  36.979   0.770
45963W        W13031  16.603  40.036   2.802
45964W        W13032  43.424  15.678   3.644
45965W        W13033   9.742  33.969  10.458
45966W        W13034  26.516  10.279   1.223
45967W        W13035  20.618   8.898   4.243
45968W        W13036  27.125  24.138  11.410
45969W        W13037  20.125   4.377   3.172
45970W        W13038  27.581  44.364  12.969
45971W        W13039  40.039  44.324   0.922
45972W        W13040  35.586  19.614  12.424
45973W        W13041  38.429   2.284  10.494
45974W        W13042  30.416   7.863  14.883
45975W        W13043   8.385  17.630  14.896
45976W        W13044  44.416  29.470   1.736
45977W        W13045  13.824  41.998   3.753
45978W        W13046  18.774  19.671  11.533
45979W        W13047  14.704  18.636  11.428
45980W        W13048  43.294  11.628   0.445
45981W        W13049  27.960  38.869  14.318
45982W        W13050   3.372  40.957  13.891
45983W        W13051  21.733   1.370  14.478
45984W        W13052  36.972  18.678  12.369
45985W        W13053  10.371  20.720   2.767
45986W        W13054   0.296  23.720  12.432
45987W        W13055  38.410  26.530   4.599
45988W        W13056  30.494  43.939   1.758
45989W        W13057  16.732  40.974   4.149
45990W        W13058  17.650  31.624  10.965
45991W        W13059  30.994  37.475  11.519
45992W        W13060  33.446  33.926   4.268
45993W        W13061  40.952   9.704   0.840
45994W        W13062   9.706   6.804  13.489
45995W        W13063  18.171  34.460   0.368
45996W        W13064  44.369  21.560   0.456
45997W        W13065  24.535   1.482  13.449
45998W        W13066  23.117   9.272   4.299
45999W        W13067  25.567   1.937   5.319
46000W        W13068  17.192  21.104  13.016
46001W        W13069  25.078  22.519   1.856
46002W        W13070  38.428   4.807  12.491
46003W        W13071  43.007  38.030   3.152
46004W        W13072  14.777  17.221   4.831
46005W        W13073  33.392   3.739  14.419
46006W        W13074  22.716  20.583  11.945
46007W        W13075  33.044   4.365   1.311
46008W        W13076   0.260  23.690  13.533
46009W        W13077  41.334  34.472   2.818
46010W        W13078   8.263  27.619   4.114
46011W        W13079   2.296  15.306  12.343
46012W        W13080  15.725  29.650  14.814
46013W        W13081   2.917   5.705  13.460
46014W        W13082   3.950  12.764   9.942
46015W        W13083   9.692  14.145   0.896
46016W        W13084  11.652  38.914   3.277
46017W        W13085   3.910  10.216   5.186
46018W        W13086  15.669  26.971  12.965
46019W        W13087   3.866  28.654   2.251
46020W        W13088  14.591  14.164   4.253
46021W        W13089  30.485  41.021  14.998
46022W        W13090  41.485   2.859  14.909
46023W        W13091  17.155  30.426   4.114
46024W        W13092  24.704   8.800  10.498
46025W        W13093  25.976  12.253   2.187
46026W        W13094  18.284   9.673  13.981
46027W        W13095  18.201  13.723   1.259
46028W        W13096  38.509  27.061   0.739
46029W        W13097  15.280  42.472   3.216
46030W        W13098   8.885  27.576   4.702
46031W        W13099  39.352  28.663   3.749
46032W        W13100  30.653  39.492  11.450
46033W        W13101  26.008  36.065  14.967
46034W        W13102   6.277   1.955  11.554
46035W        W13103  12.798  18.560   3.662
46036W        W13104  41.331  22.550  11.901
46037W        W13105  29.942   8.253   2.751
46038W        W13106   4.436  43.287   1.424
46039W        W13107  35.394  29.943  14.839
46040W        W13108  23.682  23.009   3.269
46041W        W13109  39.455  13.308  11.501
46042W        W13110  21.553  11.790  14.958
46043W        W13111  18.720  41.395  13.997
46044W        W13112   7.397   2.234   4.684
46045W        W13113  32.008  34.900  13.996
46046W        W13114  34.092  39.947   3.200
46047W        W13115  14.243  16.223   3.676
46048W        W13116  13.768  37.544  13.930
46049W        W13117  25.135  23.073  11.436
46050W        W13118  39.982   5.914  10.930
46051W        W13119  22.501  41.292   1.321
46052W        W13120  41.915  33.462  14.426
46053W        W13121  19.044  23.679   4.781
46054W        W13122  17.685   1.948   0.430
46055W        W13123  28.560  20.634  14.449
46056W        W13124  43.922  10.640  14.949
46057W        W13125  10.767  14.603  13.308
46058W        W13126  43.411  14.336  12.445
46059W        W13127  38.013  39.831   0.421
46060W        W13128  23.579   8.195   0.830
46061W        W13129  35.406   9.738  11.419
46062W        W13130  32.463  18.678  10.894
46063W        W13131  12.723  25.973   0.770
46064W        W13132  28.178  44.948  12.543
46065W        W13133  21.745   7.840  11.427
46066W        W13134  24.209  22.157   1.774
46067W        W13135  39.892  35.590   2.411
46068W        W13136  22.194  23.560   1.828
46069W        W13137  23.086  18.214  11.475
46070W        W13138   6.237  35.083  14.515
46071W        W13139  20.586  24.093   0.850
46072W        W13140   8.734   9.849  12.363
46073W        W13141   1.905   2.803   2.302
46074W        W13142  14.680  23.659   3.212
46075W        W13143  22.626  29.053  10.104
46076W        W13144  18.780  40.924  11.550
46077W        W13145  18.760  13.824   0.888
46078W        W13146  35.443  41.447  10.501
46079W        W13147  33.524  16.746  11.593
46080W        W13148  16.762  41.893   0.316
46081W        W13149   2.462   7.801   0.354
46082W        W13150  24.546   1.404  13.985
46083W        W13151  25.533  39.047  13.846
46084W        W13152  42.415  24.227   3.183
46085W        W13153  38.501  38.446  11.409
46086W        W13154  22.588  26.206  12.413
46087W        W13155  25.962  27.062   3.829
46088W        W13156  10.166  41.327   1.362
46089W        W13157  36.022  12.309  14.890
46090W        W13158  35.554  26.543   2.237
46091W        W13159   4.820  39.410  13.354
46092W        W13160  16.179  33.003  11.871
46093W        W13161   9.331  16.262   1.370
46094W        W13162  25.064  26.524   1.308
46095W        W13163  18.273  25.682  10.587
46096W        W13164   9.770  31.007   3.725
46097W        W13165  27.087  28.585   2.670
46098W        W13166   8.182  32.071   0.306
46099W        W13167  11.682  40.327   0.751
46100W        W13168  10.837  34.592   3.673
46101W        W13169   9.710  24.651   0.950
46102W        W13170  27.456  31.587   1.344
46103W        W13171  31.016  42.812  14.880
46104W        W13172  25.506  34.424  11.407
46105W        W13173  29.666  37.972  12.090
46106W        W13174  12.811   6.906   4.329
46107W        W13175   8.224  33.061  11.522
46108W        W13176  31.455  33.490  11.057
46109W        W13177  17.656   4.275  13.426
46110W        W13178  31.004   8.372   3.636
46111W        W13179  13.824  43.828  14.928
46112W        W13180  23.629   6.740  14.397
46113W        W13181   0.468  15.238  13.543
46114W        W13182  11.777   9.751  12.998
46115W        W13183  21.688   9.871   0.790
46116W        W13184  41.308  35.571   3.823
46117W        W13185  40.814  44.422  10.623
46118W        W13186  41.036  11.200   4.153
46119W        W13187  23.177   5.901   1.870
46120W        W13188  13.262  41.345   0.739
46121W        W13189  29.938  28.052   3.707
46122W        W13190  23.055  34.891  12.569
46123W        W13191  40.808  35.994   3.711
46124W        W13192  40.813  33.021   2.731
46125W        W13193  37.856   3.846  10.985
46126W        W13194  16.230  32.454  14.448
46127W        W13195   4.399  19.673   3.774
46128W        W13196  33.095  10.795  11.482
46129W        W13197  32.486  37.423  14.418
46130W        W13198  38.350  24.657  13.922
46131W        W13199   1.305  24.645  13.481
46132W        W13200  12.147   5.847  10.425
46133W        W13201   8.751   5.736  12.929
46134W        W13202  17.605  42.507   4.735
46135W        W13203  40.440   8.815  10.445
46136W        W13204  21.246  25.560   4.189
46137W        W13205  42.315  42.859   0.898
46138W        W13206  42.963   8.257   2.315
46139W        W13207  35.063  27.050   4.190
46140W        W13208   0.326  26.576   3.358
46141W        W13209  16.302  11.127   0.914
46142W        W13210   4.795  39.931  12.047
46143W        W13211  43.837  42.421   1.408
46144W        W13212  14.247  22.633   1.905
46145W        W13213   0.357  38.867  11.918
46146W        W13214   8.373  37.393   3.763
46147W        W13215  15.733  31.646   3.241
46148W        W13216  32.942   2.867   1.244
46149W        W13217  32.106   4.292   0.793
46150W        W13218  23.703  12.308  10.468
46151W        W13219  13.710   4.781  13.007
46152W        W13220  38.426  14.723   3.336
46153W        W13221  38.871  44.373  13.918
46154W        W13222  14.320   0.922   1.275
46155W        W13223  26.189  25.042  13.525
46156W        W13224  30.495  15.731   5.199
46157W        W13225  40.971  31.921  11.018
46158W        W13226  36.928  35.861  14.826
46159W        W13227  44.283  37.537  10.628
46160W        W13228  33.534  39.518   1.750
46161W        W13229  14.821  42.412   0.433
46162W        W13230  42.927  44.396  12.505
46163W        W13231  25.603  18.607  13.951
46164W        W13232  14.694  29.024   3.707
46165W        W13233  26.548  22.069  11.520
46166W        W13234  22.067  30.965  11.498
46167W        W13235   3.239  32.567   4.698
46168W        W13236  13.232  21.636  11.083
46169W        W13237  18.561  28.530   4.735
46170W        W13238   8.233  30.587  12.936
46171W        W13239  16.141  44.319  14.762
46172W        W13240  10.184  27.032  13.920
46173W        W13241   7.285  42.311   0.314
46174W        W13242  14.662  18.189  13.525
46175W        W13243   4.844  39.880   4.838
46176W        W13244  44.495  44.805  11.387
46177W        W13245  11.850  14.324  14.423
46178W        W13246   2.959  22.653  14.502
46179W        W13247  32.600  19.092   2.848
46180W        W13248  36.042  36.411  13.966
46181W        W13249   9.389   9.754  10.531
46182W        W13250  37.034  38.426  12.371
46183W        W13251  25.624  32.554  14.292
46184W        W13252  36.546  19.590  12.904
46185W        W13253  35.077   2.288   4.236
46186W        W13254  12.814  18.698  11.101
46187W        W13255  32.045  13.696   4.217
46188W        W13256   4.255  27.690  13.062
46189W        W13257   0.486  30.071  13.866
46190W        W13258  16.205   0.401  13.333
46191W        W13259  31.517   8.189   3.159
46192W        W13260  39.850   7.226   4.736
46193W        W13261  39.884  40.834   2.692
46194W        W13262   7.704  25.061  11.108
46195W        W13263   1.265  20.582   4.347
46196W        W13264  43.939  29.581  11.938
46197W        W13265  20.766  27.049   3.313
46198W        W13266  20.255  22.522   0.283
46199W        W13267  24.684   1.424   2.725
46200W        W13268   1.912   3.295   4.295
46201W        W13269  31.950  16.243  13.400
46202W        W13270  37.412   4.778  13.343
46203W        W13271  21.673   8.867   1.818
46204W        W13272   4.741   7.293  12.829
46205W        W13273  25.968  24.051   1.809
46206W        W13274  40.494   2.341   0.950
46207W        W13275  32.982  15.223   0.362
46208W        W13276   1.744   5.800   0.959
46209W        W13277  19.202   7.908  14.381
46210W        W13278  23.084  26.527   3.263
46211W        W13279  39.521  12.636  13.837
46212W        W13280  15.804  39.981  14.469
46213W        W13281  44.456  25.618   3.375
46214W        W13282   3.889  32.939   5.694
46215W        W13283  32.039  40.458  14.474
46216W        W13284  26.108   6.764   2.694
46217W        W13285  39.355  18.168   1.732
46218W        W13286  38.387  22.087   2.902
46219W        W13287  38.916  22.155   1.926
46220W        W13288  25.489  27.510   3.378
46221W        W13289  13.832  24.536   1.868
46222W        W13290  12.796   8.163   3.766
46223W        W13291  25.487   2.282  11.391
46224W        W13292  23.048   3.948   3.664
46225W        W13293   0.807  13.770  13.397
46226W        W13294  14.677  23.529  10.465
46227W        W13295  15.746  42.926  11.545
46228W        W13296  42.453  32.489   4.649
46229W        W13297  41.491   9.240  10.459
46230W        W13298  27.112   8.888   4.171
46231W        W13299  33.993  26.458  12.433
46232W        W13300  12.817  26.673   0.957
46233W        W13301   2.840  35.490  13.498
46234W        W13302  20.116  44.814   4.700
46235W        W13303   6.875  23.723   0.381
46236W        W13304  41.836  13.234   4.324
46237W        W13305  18.054  16.683   4.277
46238W        W13306   9.181  14.826  13.359
46239W        W13307  19.078  38.948   4.798
46240W        W13308   5.210  14.262   4.236
46241W        W13309  16.190  27.504  11.533
46242W        W13310  13.216  43.833  12.974
46243W        W13311   7.911  32.419  14.502
46244W        W13312  36.359  25.016  11.561
46245W        W13313  14.268  17.759   0.256
46246W        W13314  27.185  44.490   3.870
46247W        W13315   6.847  34.438  12.079
46248W        W13316  18.612  11.143  10.906
46249W        W13317  29.637   8.312   4.818
46250W        W13318  15.173  10.323   3.207
46251W        W13319  36.466  10.281   2.789
46252W        W13320  32.621  26.681   3.349
46253W        W13321  19.120  11.170  10.484
46254W        W13322   4.868  32.536  11.871
46255W        W13323  23.039  15.149   4.233
46256W        W13324  26.525  33.982   2.791
46257W        W13325  11.220  34.485   3.193
46258W        W13326   5.432   3.327  11.464
46259W        W13327  26.981  24.088   2.672
46260W        W13328  20.061  14.827   1.754
46261W        W13329  44.801  16.577   1.341
46262W        W13330  28.511  30.012  13.976
46263W        W13331  16.701   9.384  11.561
46264W        W13332  18.552  17.261  12.516
46265W        W13333   8.329  20.580   3.229
46266W        W13334  27.588   0.417  11.870
46267W        W13335  12.781  17.723  13.441
46268W        W13336  14.767   6.198  11.550
46269W        W13337  37.426   5.802   3.691
46270W        W13338  14.761  38.338   4.796
46271W        W13339  43.880   6.415   3.217
46272W        W13340  21.632  17.226   0.872
46273W        W13341  26.474  30.959   1.337
46274W        W13342  31.958  37.076  14.881
46275W        W13343  44.298   6.289   5.234
46276W        W13344  19.607   8.813   0.784
46277W        W13345   5.845  14.598  13.411
46278W        W13346   4.931  36.867   2.720
46279W        W13347  18.629  31.446   1.392
46280W        W13348  43.795  39.872   1.777
46281W        W13349  26.543  28.435   4.157
46282W        W13350   9.326  14.162   2.678
46283W        W13351  18.120  23.651  13.369
46284W        W13352  21.688  34.067  11.014
46285W        W13353  25.128  33.560  11.988
46286W        W13354  29.617  10.220   4.317
46287W        W13355  26.165  40.955   4.602
46288W        W13356  31.963  33.090   2.290
46289W        W13357  14.788  36.916  11.378
46290W        W13358  12.777  16.166   3.867
46291W        W13359  12.743  13.718   2.686
46292W        W13360  18.747  33.042  12.877
46293W        W13361  29.017  32.404  14.452
46294W        W13362  37.524  16.735  13.963
46295W        W13363  30.457  24.069  13.899
46296W        W13364  24.547   1.836   3.694
46297W        W13365  43.368  22.079   4.787
46298W        W13366  40.044  18.154  11.553
46299W        W13367  17.687  21.130  12.948
46300W        W13368   1.808  39.357  13.403
46301W        W13369  11.330   6.682  11.512
46302W        W13370   9.653  33.993   0.894
46303W        W13371  17.219  24.070   3.288
46304W        W13372  24.575   3.459   2.663
46305W        W13373  13.690  21.112   3.197
46306W        W13374  30.621   7.246  11.516
46307W        W13375  18.162   8.378  12.348
46308W        W13376  36.379  15.272  10.641
46309W        W13377   2.823  25.479  10.474
46310W        W13378  33.399  34.107  11.387
46311W        W13379  40.860  15.674  10.426
46312W        W13380  29.986  27.588  13.056
46313W        W13381  29.647  41.459   4.801
46314W        W13382  32.415  26.176   1.370
46315W        W13383   6.383  36.098   3.385
46316W        W13384   5.831  17.701  13.896
46317W        W13385  25.141  18.771   0.398
46318W        W13386  23.676  30.003   0.242
46319W        W13387  40.467   5.834   4.669
46320W        W13388  10.333  43.515   1.732
46321W        W13389  30.141   4.857  11.424
46322W        W13390  35.911  12.808   4.290
46323W        W13391  27.124  37.436   4.328
46324W        W13392   4.359  38.883  11.588
46325W        W13393  34.435  33.942   2.787
46326W        W13394   3.786  12.176   0.917
46327W        W13395  35.415  38.533   2.778
46328W        W13396  38.488  34.370   3.863
46329W        W13397  20.135  25.705  12.966
46330W        W13398   8.407  37.832  14.758
46331W        W13399  27.150   7.689  14.823
46332W        W13400  18.133  25.620   3.831
46333W        W13401  10.642  35.050   1.446
46334W        W13402  37.541   2.279   3.867
46335W        W13403  42.383   5.885  12.414
46336W        W13404  41.033  44.940  13.359
46337W        W13405  38.825  18.248  15.000
46338W        W13406   6.407  22.192   4.781
46339W        W13407   2.337   3.273  12.463
46340W        W13408  33.588  44.316  13.031
46341W        W13409  41.380  36.585  11.968
46342W        W13410  41.470  26.038  14.317
46343W        W13411   1.940   2.374  11.037
46344W        W13412  11.759  11.641   0.740
46345W        W13413   8.401  18.187  13.339
46346W        W13414  20.239  28.444   4.146
46347W        W13415  43.009  12.250  14.997
46348W        W13416  10.691  28.594  14.938
46349W        W13417  22.594  41.910  10.944
46350W        W13418   3.798  19.718  13.343
46351W        W13419  12.615  19.167  12.390
46352W        W13420  14.124  20.657   2.747
46353W        W13421  26.546  39.457  13.057
46354W        W13422  38.360  18.177  14.911
46355W        W13423  37.003  43.391  13.466
46356W        W13424  12.236  28.616  14.292
46357W        W13425  21.535  41.503   4.695
46358W        W13426  33.894  35.902   3.669
46359W        W13427   4.355  17.773   1.735
46360W        W13428  43.776  27.152  14.831
46361W        W13429  36.910   2.408  12.934
46362W        W13430  19.276  12.315   0.754
46363W        W13431  38.506  25.974  13.973
46364W        W13432   5.707  25.039  13.030
46365W        W13433  11.288   6.685   4.286
46366W        W13434  18.088  31.007  12.887
46367W        W13435  16.739   5.801   0.390
46368W        W13436  22.663  38.353  13.494
46369W        W13437   2.309  18.597   2.902
46370W        W13438  28.078   7.343  13.849
46371W        W13439  15.113  40.390   0.805
46372W        W13440  41.450  30.482  11.998
46373W        W13441  35.387  25.491   0.306
46374W        W13442   8.862  28.132  11.448
46375W        W13443  13.688  33.958  13.469
46376W        W13444  20.181  37.341  10.909
46377W        W13445  20.204  26.997   3.166
46378W        W13446  33.073  38.403   4.663
46379W        W13447   6.201   1.850  12.342
46380W        W13448   2.856   8.161   3.299
46381W        W13449  36.378  38.991  14.392
46382W        W13450  35.501  24.137   1.356
46383W        W13451  38.488  14.232   5.116
46384W        W13452  19.754  37.945  11.516
46385W        W13453  35.396  39.044   0.880
46386W        W13454  14.777  10.299  14.399
46387W        W13455  30.494  10.224  11.428
46388W        W13456  28.014  20.649  12.982
46389W        W13457  37.472  35.033   1.933
46390W        W13458  44.465  20.737   1.744
46391W        W13459  28.559  44.975   4.186
46392W        W13460  10.786  30.977   4.805
46393W        W13461  13.258  21.146  12.425
46394W        W13462  23.704  17.113   1.339
46395W        W13463  20.111  38.432   3.753
46396W        W13464  42.891  12.620   3.778
46397W        W13465  26.474  38.514   3.754
46398W        W13466  34.866  37.534   1.398
46399W        W13467  19.713  19.102  11.119
46400W        W13468  43.274   2.411  13.352
46401W        W13469  43.292  30.976  14.284
46402W        W13470  22.015  40.494  14.488
46403W        W13471   1.377  33.490  14.836
46404W        W13472   8.179  35.357  12.965
46405W        W13473  42.828  25.620   4.134
46406W        W13474  43.956  21.227   2.766
46407W        W13475   4.304  42.516  11.070
46408W        W13476  10.283   8.854  13.055
46409W        W13477   5.197   2.345  11.478
46410W        W13478  11.772  34.504  13.494
46411W        W13479  18.663  27.180   5.104
46412W        W13480  32.481  18.720   4.786
46413W        W13481   9.654   9.183  12.046
46414W        W13482  40.883  10.341  11.012
46415W        W13483  10.240   1.463   2.870
46416W        W13484  29.476  13.608   0.873
46417W        W13485  27.969  42.780   5.217
46418W        W13486   4.438  37.869  11.015
46419W        W13487  13.117  38.336   4.128
46420W        W13488  26.616   8.845   3.797
46421W        W13489  44.357   3.927   4.764
46422W        W13490  31.540  30.991  10.480
46423W        W13491  41.315  37.533  14.011
46424W        W13492  18.229   3.943  14.881
46425W        W13493   3.297   4.795   0.331
46426W        W13494  12.709  24.130  14.371
46427W        W13495  22.178  31.048   2.241
46428W        W13496  40.348  15.268  14.413
46429W        W13497  36.999  25.654   4.184
46430W        W13498   2.952   8.879   2.180
46431W        W13499  29.562  18.231   1.716
46432W        W13500  12.248  23.616  11.942
46433W        W13501  21.092  16.276   4.123
46434W        W13502  34.060  42.525  14.973
46435W        W13503   8.377  38.553  11.527
46436W        W13504  39.971  22.574   2.245
46437W        W13505  10.782   2.461  10.413
46438W        W13506  31.505  13.194  12.474
46439W        W13507  37.953  32.966  14.383
46440W        W13508  35.083  16.724  12.362
46441W        W13509  10.754  43.811   5.156
46442W        W13510  17.585   0.766  12.991
46443W        W13511  13.781  27.007   3.164
46444W        W13512  43.914   7.347   2.265
46445W        W13513   6.297  12.769   4.632
46446W        W13514  28.606   9.746   1.352
46447W        W13515  25.608  33.397  13.854
46448W        W13516   0.838  33.610   2.396
46449W        W13517  35.041   7.274  14.956
46450W        W13518  12.236  10.857  11.377
46451W        W13519  19.265   3.867   2.743
46452W        W13520  38.999  35.064  14.825
46453W        W13521  16.074  33.571  10.938
46454W        W13522   7.359   6.833  10.969
46455W        W13523   6.871  26.963   0.828
46456W        W13524   4.941  30.619  13.307
46457W        W13525   5.380  10.717   0.764
46458W        W13526  27.037  31.974   2.819
46459W        W13527   9.302  36.952  12.536
46460W        W13528  30.028  20.766  14.454
46461W        W13529  37.453  17.785  14.941
46462W        W13530  32.516   0.298   3.223
46463W        W13531   1.279   9.392   3.362
46464W        W13532  15.688  10.300   3.834
46465W        W13533  38.925  23.503  10.447
46466W        W13534   1.785  13.830   4.805
46467W        W13535  32.987  20.219   4.295
46468W        W13536  22.613   6.364  10.615
46469W        W13537  11.652  10.314   0.329
46470W        W13538  15.731   9.383  13.485
46471W        W13539  24.227  16.225   2.290
46472W        W13540  11.194   7.396   4.130
46473W        W13541  37.522  24.555   0.886
46474W        W13542   2.249  20.248   2.417
46475W        W13543  32.614  34.423   1.754
46476W        W13544  31.628  34.550  12.472
46477W        W13545  22.674  38.987  12.965
46478W        W13546   6.678  28.475   2.841
46479W        W13547  12.743  39.856   4.177
46480W        W13548  16.243   6.895  10.935
46481W        W13549   4.904  20.683   2.334
46482W        W13550  43.433  10.704  10.611
46483W        W13551  14.731  14.192   2.274
46484W        W13552  41.333  25.698   2.316
46485W        W13553   3.424  20.649  12.066
46486W        W13554  39.061  32.492  14.292
46487W        W13555  27.686  38.504   3.347
46488W        W13556  25.050  39.409  12.965
46489W        W13557  42.447  29.973  11.995
46490W        W13558  21.135  36.971  13.931
46491W        W13559  28.186  13.748   0.847
46492W        W13560  41.500  11.372   0.818
46493W        W13561  11.769  22.638   1.829
46494W        W13562  37.532  43.842  14.504
46495W        W13563  39.995  42.976  10.586
46496W        W13564  29.147  34.022   2.791
46497W        W13565   5.272  26.464  12.370
46498W        W13566  40.402  26.492   4.332
46499W        W13567  30.049  22.159   4.766
46500W        W13568  16.627  39.518  10.946
46501W        W13569  44.822  16.204   4.644
46502W        W13570  34.100  25.598   0.461
46503W        W13571   8.328   9.703  13.449
46504W        W13572  41.025  12.823  14.481
46505W        W13573  31.031  18.585   2.363
46506W        W13574  37.533  17.192   4.244
46507W        W13575   8.899  23.669  13.801
46508W        W13576  41.379   9.674   0.875
46509W        W13577  27.613  15.681  14.779
46510W        W13578  25.597  24.148   3.776
46511W        W13579  11.758  40.432  11.041
46512W        W13580  10.329  44.406   3.681
46513W        W13581  28.992  12.628  11.444
46514W        W13582  33.394  10.189   5.275
46515W        W13583   6.389  17.285  14.284
46516W        W13584  10.727  24.129  13.470
46517W        W13585  19.711  22.677  13.404
46518W        W13586   6.682  25.486   2.779
46519W        W13587   2.286  24.205  10.917
46520W        W13588  34.554  12.708  11.962
46521W        W13589  29.074  29.525  14.360
46522W        W13590  18.162  14.662   0.749
46523W        W13591   3.919  41.500  14.430
46524W        W13592   7.892  28.630  13.503
46525W        W13593  28.094  27.136  14.004
46526W        W13594  23.619  10.244  11.988
46527W        W13595  28.494   5.317   1.291
46528W        W13596  26.525  41.531   2.767
46529W        W13597  36.431  21.141   0.746
46530W        W13598  19.229  26.642  11.380
46531W        W13599  11.258  42.281   4.767
46532W        W13600  29.655  10.861   2.711
46533W        W13601   9.253  18.090  12.888
46534W        W13602  21.665  32.062  11.461
46535W        W13603   7.702  43.942   4.130
46536W        W13604  20.055  32.963  12.391
46537W        W13605   9.293  17.080  10.010
46538W        W13606  27.453  19.265   2.204
46539W        W13607  25.993   5.287  10.604
46540W        W13608  37.446  12.774   2.248
46541W        W13609  39.815  30.592  10.449
46542W        W13610   0.435  28.027  13.952
46543W        W13611  13.824   1.909   4.349
46544W        W13612  42.448  23.687  12.461
46545W        W13613   0.789  44.966   0.878
46546W        W13614  19.558  40.543  12.520
46547W        W13615  43.351  35.097  14.467
46548W        W13616  26.565   5.431   4.298
46549W        W13617   9.291  33.930  11.481
46550W        W13618   9.645  21.108  10.981
46551W        W13619  21.110  31.983   2.208
46552W        W13620   6.419  44.265  13.345
46553W        W13621  19.178  21.717   3.726
46554W        W13622  16.239  16.757   3.812
46555W        W13623  31.513   5.754  13.464
46556W        W13624  31.585   2.400   0.441
46557W        W13625  26.619  11.296   1.873
46558W        W13626  10.758  31.979   4.116
46559W        W13627  21.219  25.119  14.418
46560W        W13628  12.234  27.102  12.036
46561W        W13629   2.443   1.256  13.825
46562W        W13630  39.533  31.524   1.882
46563W        W13631  10.729  11.172   1.788
46564W        W13632  13.693  12.752   4.619
46565W        W13633  26.516  14.206  12.487
46566W        W13634   3.443  25.695  14.419
46567W        W13635  13.267  35.959   9.927
46568W        W13636   4.249  32.568   1.731
46569W        W13637  18.132   1.315  10.993
46570W        W13638  41.509   6.847   4.166
46571W        W13639  38.522  40.464  14.788
46572W        W13640   7.371   6.874   3.663
46573W        W13641  30.155  40.879   0.772
46574W        W13642  43.847  30.924   2.197
46575W        W13643  20.067  19.267   2.865
46576W        W13644   5.251  22.072   3.830
46577W        W13645   9.686   1.241  11.107
46578W        W13646   4.794   8.705   1.436
46579W        W13647  14.674  19.107  12.960
46580W        W13648  40.992  25.614  10.644
46581W        W13649  36.437   6.828   0.908
46582W        W13650  14.793  19.631   4.641
46583W        W13651  31.964   7.227  10.632
46584W        W13652   0.893   2.423  10.632
46585W        W13653  40.399  25.597   4.200
46586W        W13654   0.805  35.047  12.942
46587W        W13655   6.762  26.976  12.982
46588W        W13656  42.029   5.698  11.124
46589W        W13657  17.663  35.004   2.681
46590W        W13658  13.803  37.982  13.321
46591W        W13659  39.416   3.410   0.260
46592W        W13660  12.676   7.771  10.602
46593W        W13661  31.057  32.436   4.218
46594W        W13662  23.166  15.793  14.353
46595W        W13663   9.862   8.388  11.557
46596W        W13664  31.460  23.637   3.361
46597W        W13665   9.744  29.474  14.786
46598W        W13666  10.273  32.505   3.768
46599W        W13667  33.561  27.616   2.838
46600W        W13668   9.713  18.575   0.940
46601W        W13669  25.595  26.127  14.337
46602W        W13670  29.953  43.002  11.456
46603W        W13671   8.237  43.333  11.102
46604W        W13672  39.412  34.891   1.309
46605W        W13673  38.339   7.207  10.993
46606W        W13674  44.476  12.362  13.880
46607W        W13675  42.826   1.456  14.367
46608W        W13676  21.062  14.269  11.455
46609W        W13677   3.894   4.703   4.766
46610W        W13678  39.846  13.256  11.474
46611W        W13679  11.211  29.548   4.618
46612W        W13680  41.533  40.960  11.985
46613W        W13681  22.635  44.910   2.701
46614W        W13682   2.956  35.879  13.801
46615W        W13683   9.789  42.885  13.494
46616W        W13684  28.946   7.718   0.879
46617W        W13685  11.246  44.372  14.353
46618W        W13686   6.409  42.984  14.958
46619W        W13687  27.650  30.041  13.808
46620W        W13688  24.581  20.605   2.188
46621W        W13689  22.061  30.447   4.763
46622W        W13690  36.870  22.515   0.291
46623W        W13691  34.544  23.593  12.384
46624W        W13692  43.868  41.490  14.323
46625W        W13693  20.676  41.358  14.817
46626W        W13694  11.366  16.660   1.887
46627W        W13695  42.487  17.674  10.945
46628W        W13696  15.143   0.366   3.302
46629W        W13697   7.895  36.540   1.934
46630W        W13698  21.152  42.993  12.395
46631W        W13699   6.248  38.558   4.602
46632W        W13700  34.369   5.709  12.483
46633W        W13701   7.826  42.407  14.322
46634W        W13702  23.575  26.096  10.900
46635W        W13703   4.232   3.326   3.688
46636W        W13704  44.287   8.881  10.154
46637W        W13705  34.483  41.418   0.381
46638W        W13706  43.787  42.806   2.777
46639W        W13707   3.399  27.154   3.774
46640W        W13708  25.704   9.270  11.872
46641W        W13709  26.016  21.538   4.123
46642W        W13710  17.716  22.738   3.198
46643W        W13711   4.895   6.893  12.488
46644W        W13712  25.072  34.956  11.913
46645W        W13713   0.458  29.075   0.441
46646W        W13714  34.893  11.273  10.538
46647W        W13715  40.529  36.071   4.156
46648W        W13716  17.251   5.391  12.510
46649W        W13717  29.929   2.333  13.535
46650W        W13718  22.637  37.956  14.858
46651W        W13719  28.132  10.207   5.255
46652W        W13720  27.954  32.091  12.579
46653W        W13721  17.187  22.041   2.222
46654W        W13722   3.375  28.453  14.944
46655W        W13723  27.987  27.682   3.773
46656W        W13724   9.162  28.069  10.926
46657W        W13725  38.937   1.443  11.397
46658W        W13726  40.350  32.570  11.397
46659W        W13727  37.496   9.712  14.927
46660W        W13728  37.513  33.587   2.666
46661W        W13729  18.766  37.473  10.000
46662W        W13730   1.286   0.394  14.891
46663W        W13731  31.456  25.482  10.407
46664W        W13732  43.897  18.060   4.334
46665W        W13733  18.244  31.099  10.087
46666W        W13734  25.026  11.849   3.193
46667W        W13735  24.982   1.765   0.326
46668W        W13736   3.297  24.542  11.409
46669W        W13737  13.698  22.685  14.444
46670W        W13738  42.450  18.656   1.363
46671W        W13739  10.337  33.953   3.185
46672W        W13740  26.532   5.295  11.928
46673W        W13741  20.229  12.138  11.080
46674W        W13742   1.777  41.949  14.330
46675W        W13743   1.926  19.766   3.165
46676W        W13744  42.323  22.015  12.827
46677W        W13745   4.939  30.135   2.193
46678W        W13746  21.739   2.368  11.884
46679W        W13747  34.876  14.675  12.965
46680W        W13748  42.410  44.267   3.178
46681W        W13749  12.765  38.388   0.414
46682W        W13750  12.792  24.139   2.879
46683W        W13751  41.787   9.204   0.750
46684W        W13752  18.560  25.496  14.491
46685W        W13753   1.289  27.680   3.861
46686W        W13754  28.056  43.814  10.958
46687W        W13755  37.484   3.254   2.795
46688W        W13756  38.949  38.029   0.445
46689W        W13757  38.978  27.198   2.414
46690W        W13758   6.732  42.476  11.011
46691W        W13759   6.814  40.924   4.250
46692W        W13760  44.922  11.667   1.748
46693W        W13761   5.850  36.044  13.064
46694W        W13762  29.484  40.881   0.836
46695W        W13763  38.925   7.284  13.450
46696W        W13764  40.910  28.540  14.761
46697W        W13765  20.627  29.651   0.795
46698W        W13766  11.717   7.787  14.869
46699W        W13767  16.570   5.721   2.870
46700W        W13768  28.057  12.312  14.484
46701W        W13769  38.472   0.988  12.416
46702W        W13770  23.102  39.353  14.820
46703W        W13771  16.091  27.984  11.090
46704W        W13772  27.034   0.479   2.320
46705W        W13773  31.037   4.891  13.534
46706W        W13774  16.754   5.193   4.669
46707W        W13775  25.978  31.994  10.593
46708W        W13776   2.451  21.207  14.503
46709W        W13777   9.673  21.095  10.103
46710W        W13778  35.935   5.851   3.238
46711W        W13779  43.846   2.420  14.480
46712W        W13780  30.153  16.292  12.045
46713W        W13781  15.191  29.561   0.423
46714W        W13782  32.628  38.342  14.507
46715W        W13783  29.995   8.787   1.262
46716W        W13784   0.303  31.093  14.368
46717W        W13785  12.127  40.028   2.884
46718W        W13786  40.846  28.574   3.754
46719W        W13787   4.389   0.804   0.930
46720W        W13788  36.092  39.456  10.422
46721W        W13789   8.678  33.513   2.216
46722W        W13790  37.525  27.553   0.258
46723W        W13791  41.330  28.180   1.324
46724W        W13792  33.991  38.356   0.847
46725W        W13793  29.554   4.943  13.497
46726W        W13794   2.819   1.292   2.858
46727W        W13795   8.200   6.194  12.404
46728W        W13796  10.182  27.188   3.339
46729W        W13797   8.847  17.261  14.826
46730W        W13798  18.277  43.272  10.954
46731W        W13799  26.606  21.163  13.916
46732W        W13800  38.381   3.290  12.880
46733W        W13801  31.050   4.319   1.365
46734W        W13802  38.861  37.935  10.961
46735W        W13803  43.467  13.714  12.519
46736W        W13804  14.815  44.779   1.280
46737W        W13805   9.353  39.917   3.171
46738W        W13806  17.281   9.822  13.870
46739W        W13807   9.166  29.572  10.055
46740W        W13808  27.147   4.414   2.212
46741W        W13809  10.376   3.345   2.891
46742W        W13810  11.856  21.128   4.197
46743W        W13811  30.118  14.644   1.327
46744W        W13812  35.557   8.830  14.764
46745W        W13813  18.220  23.019  12.873
46746W        W13814   9.805   3.411  13.850
46747W        W13815   2.381  24.117   3.179
46748W        W13816  15.687  29.065   3.312
46749W        W13817   3.230   9.872  12.947
46750W        W13818  24.507  21.257   0.434
46751W        W13819  17.585  31.099   4.629
46752W        W13820  36.514   1.956  13.988
46753W        W13821  43.919  13.237   0.469
46754W        W13822  34.586  13.333  11.454
46755W        W13823  44.765  21.566  13.963
46756W        W13824  42.885  43.414  12.386
46757W        W13825  18.232  13.649  11.112
46758W        W13826  35.053  34.939  14.866
46759W        W13827  36.472  17.744   3.714
46760W        W13828  43.343  28.153   0.775
46761W        W13829  19.174  34.467  10.630
46762W        W13830  35.470  35.878   0.910
46763W        W13831  42.970   7.236   3.661
46764W        W13832  22.568  13.250  12.007
46765W        W13833   0.400  12.702   2.387
46766W        W13834   0.456  31.559   4.797
46767W        W13835  31.140  44.412   1.345
46768W        W13836  21.696   6.196   3.709
46769W        W13837  25.996  17.727   2.717
46770W        W13838  36.548   0.766   1.849
46771W        W13839   4.238  38.504  10.963
46772W        W13840  36.355   1.744   4.156
46773W        W13841  24.689  26.467  14.298
46774W        W13842  25.161  39.861  11.902
46775W        W13843  24.497  16.710   1.296
46776W        W13844  38.821  22.536   2.342
46777W        W13845  42.447  38.031   0.466
46778W        W13846  13.653  28.595   0.424
46779W        W13847  24.619  29.167   1.837
46780W        W13848  42.790  41.330   0.326
46781W        W13849  31.105   1.272   0.412
46782W        W13850   2.879  38.060   1.721
46783W        W13851   8.320  44.297   0.300
46784W        W13852  35.037   1.851   4.833
46785W        W13853  31.915   1.289   3.377
46786W        W13854  11.168  20.577  14.798
46787W        W13855   8.724  37.464   2.393
46788W        W13856  10.225  41.310   0.274
46789W        W13857  34.396  17.078  11.557
46790W        W13858  30.476  35.958   3.655
46791W        W13859  35.378  39.535  14.506
46792W        W13860   7.325   9.841  12.040
46793W        W13861  32.061  40.863   3.861
46794W        W13862   3.245  40.033  14.959
46795W        W13863  33.613  34.374   3.675
46796W        W13864  10.724  10.873   3.730
46797W        W13865  25.988  19.731   4.730
46798W        W13866  37.490  17.129   0.311
46799W        W13867  36.572  18.093   3.177
46800W        W13868  32.131   0.967   4.755
46801W        W13869  42.442  19.158  14.283
46802W        W13870  32.568  10.798  12.996
46803W        W13871  31.461  13.838  14.299
46804W        W13872   4.219   4.257   2.327
46805W        W13873  21.165  37.534  12.009
46806W        W13874  19.282  34.969   4.290
46807W        W13875  24.585  18.544  11.015
46808W        W13876  40.986   4.259   3.290
46809W        W13877   3.868  26.487  14.449
46810W        W13878  23.703  44.974  11.126
46811W        W13879  38.332  39.011   2.723
46812W        W13880  42.896  16.183   0.352
46813W        W13881   1.804  24.608  14.944
46814W        W13882  41.922  23.231  14.896
46815W        W13883  30.050  19.203  14.349
46816W        W13884  14.321   6.384  12.910
46817W        W13885  44.775  40.475   3.149
46818W        W13886   1.297  39.868   1.352
46819W        W13887   9.379   6.781   0.351
46820W        W13888  31.518  41.795   4.824
46821W        W13889  44.435  39.949   1.733
46822W        W13890   8.182  24.225  11.864
46823W        W13891   8.160  30.438  12.489
46824W        W13892  38.568  34.521   2.869
46825W        W13893  19.155  28.617   2.308
46826W        W13894   3.349   2.950   4.199
46827W        W13895  36.417  19.686  10.494
46828W        W13896  28.104  21.697  12.542
46829W        W13897  28.508  25.684  11.111
46830W        W13898  40.482   1.436  12.094
46831W        W13899   2.786  36.883   3.658
46832W        W13900   0.450  11.179  11.590
46833W        W13901  27.582  14.607   1.855
46834W        W13902  16.744  26.003   4.211
46835W        W13903  35.016  34.370   3.698
46836W        W13904  10.762  33.621   0.942
46837W        W13905   2.748  21.226  11.980
46838W        W13906  21.061  22.152  11.452
46839W        W13907  13.322  36.948  11.102
46840W        W13908  16.644   7.204   0.777
46841W        W13909  16.313  21.180  11.904
46842W        W13910   4.228  32.009  10.928
46843W        W13911  35.868  14.682   4.189
46844W        W13912  15.706  19.575   2.775
46845W        W13913   5.705  36.551  13.491
46846W        W13914   8.703   4.204  12.931
46847W        W13915   0.784  19.648   2.184
46848W        W13916  26.478   0.922  12.085
46849W        W13917  29.511  16.713  12.571
46850W        W13918   2.244  37.389  11.566
46851W        W13919   8.755  23.523  14.820
46852W        W13920  34.009  13.689  13.508
46853W        W13921  39.964  39.868   3.183
46854W        W13922   8.277  32.430  11.916
46855W        W13923  38.825   1.787   4.172
46856W        W13924   5.756  10.780  12.565
46857W        W13925   3.952  34.954   4.756
46858W        W13926  32.925  27.098   4.618
46859W        W13927  31.426  30.594  11.953
46860W        W13928  23.665  37.541   2.752
46861W        W13929  19.772  27.066  12.467
46862W        W13930  40.803   0.937   3.804
46863W        W13931  12.692  35.488   0.369
46864W        W13932  22.502  43.357   1.795
46865W        W13933  39.448  36.927  12.844
46866W        W13934  10.743  29.452  11.946
46867W        W13935  43.298   5.341   1.445
46868W        W13936  12.329  10.790   4.265
46869W        W13937  36.894   4.212  13.986
46870W        W13938  14.145  13.816   1.916
46871W        W13939  42.392  37.913  13.932
46872W        W13940  21.213  22.624   0.311
46873W        W13941  29.558  36.879   0.748
46874W        W13942   0.909  32.414   1.863
46875W        W13943  24.595  36.352   1.231
46876W        W13944  23.521   6.761  11.533
46877W        W13945  19.728  36.984  13.027
46878W        W13946   4.889  29.173  11.500
46879W        W13947  31.912  13.284   4.268
46880W        W13948  18.637   1.794   0.329
46881W        W13949  22.578  22.999  13.939
46882W        W13950  23.695  38.415   1.310
46883W        W13951  22.190  31.024  10.956
46884W        W13952   8.386  29.122   0.738
46885W        W13953  27.166   8.167  11.436
46886W        W13954  16.274  30.430  11.111
46887W        W13955   7.322  44.761   2.724
46888W        W13956  40.543   4.394  11.484
46889W        W13957  33.901   1.822   4.243
46890W        W13958  10.183   2.448  10.438
46891W        W13959  36.569  43.941  13.007
46892W        W13960  29.124  22.056  14.452
46893W        W13961  21.256  30.447  11.447
46894W        W13962  17.257  41.925   5.238
46895W        W13963   0.405  38.836   0.830
46896W        W13964   1.360  36.970   4.688
46897W        W13965  14.605   6.227  11.038
46898W        W13966  23.016  18.587  10.520
46899W        W13967  34.060  15.579  14.886
46900W        W13968  12.281  27.628  12.052
46901W        W13969  42.418  27.626  12.529
46902W        W13970  36.054   4.792   0.753
46903W        W13971  31.513  33.114  12.418
46904W        W13972  27.048  40.318   4.318
46905W        W13973  15.612  24.573  10.467
46906W        W13974   9.834  28.489   4.158
46907W        W13975  27.465  16.171   0.315
46908W        W13976  23.076  38.951  10.534
46909W        W13977  38.057  42.409  10.601
46910W        W13978  35.462   7.273   1.885
46911W        W13979   8.345   5.195  14.015
46912W        W13980   6.289  23.214  14.880
46913W        W13981  42.820  30.967  14.815
46914W        W13982  17.107   4.323   4.835
46915W        W13983  40.995  13.236  14.850
46916W        W13984   9.872  23.149  13.900
46917W        W13985  31.468   2.446  10.644
46918W        W13986  11.281  11.258  10.937
46919W        W13987  12.761  11.301  12.488
46920W        W13988  17.653  12.128   1.235
46921W        W13989  37.533  27.672   4.757
46922W        W13990  10.750  43.424  11.938
46923W        W13991  21.647   1.807   3.298
46924W        W13992  16.810   1.321  13.501
46925W        W13993  16.107  16.732  12.827
46926W        W13994  22.209  22.048  10.900
46927W        W13995   2.380  10.287   2.891
46928W        W13996  12.179   5.388   1.888
46929W        W13997  38.851  40.905   0.324
46930W        W13998  18.560   8.190  13.513
46931W        W13999   2.333  25.673  13.512
46932W        W14000  14.778  38.497  12.489
46933W        W14001  13.617  20.052   1.424
46934W        W14002  38.976  36.925   3.318
46935W        W14003  25.184  15.742   2.686
46936W        W14004   8.339  37.874   1.798
46937W        W14005   9.749  14.215  13.851
46938W        W14006  42.320  40.886   3.814
46939W        W14007  22.174  13.121  11.406
46940W        W14008  36.885  33.947  14.511
46941W        W14009  29.060   0.860   0.727
46942W        W14010  40.002  24.027   4.282
46943W        W14011  42.463  13.785  10.407
46944W        W14012   8.822  42.782  10.105
46945W        W14013  42.399  13.687   0.305
46946W        W14014  26.061  28.592   3.229
46947W        W14015  32.465  38.049   2.765
46948W        W14016  16.176  27.613   2.767
46949W        W14017  29.560  21.039  11.391
46950W        W14018   3.791  43.478   4.165
46951W        W14019  44.942  24.053   0.273
46952W        W14020   9.352  23.985   0.435
46953W        W14021  15.180  16.790  12.884
46954W        W14022  19.596  22.181  12.947
46955W        W14023  15.090  21.703  10.042
46956W        W14024  29.944  12.300   4.306
46957W        W14025   6.249   8.282  10.555
46958W        W14026  27.105  18.711  12.094
46959W        W14027  36.872  20.159   4.166
46960W        W14028   0.299   2.404   2.685
46961W        W14029   3.376  18.089   0.477
46962W        W14030  31.918  29.633   0.436
46963W        W14031  24.552  13.206   2.705
46964W        W14032  15.688  16.274  14.888
46965W        W14033  38.438  31.418   2.182
46966W        W14034   3.270  34.031  13.966
46967W        W14035  10.720  33.624  13.327
46968W        W14036   3.834  38.514  13.307
46969W        W14037  43.875  35.093  12.442
46970W        W14038  37.845   0.337  13.832
46971W        W14039  12.153  33.077  10.626
46972W        W14040  12.167  44.976  14.344
46973W        W14041  27.971  29.095  14.819
46974W        W14042  39.036  14.782  13.382
46975W        W14043  19.057  36.049   4.201
46976W        W14044  29.613   0.483  13.548
46977W        W14045  44.828  42.817  10.516
46978W        W14046  41.388  36.442   3.775
46979W        W14047  36.080  22.036   2.664
46980W        W14048  44.847  24.042   2.811
46981W        W14049   0.336  21.218   4.235
46982W        W14050  35.895  25.713   3.328
46983W        W14051   3.878  20.671  14.010
46984W        W14052   7.238  29.575   4.772
46985W        W14053  10.338  36.036  12.918
46986W        W14054  23.682  41.473   4.681
46987W        W14055  17.748  20.199   1.733
46988W        W14056  38.503  30.587   3.857
46989W        W14057  14.333  39.441  12.516
46990W        W14058   8.303  10.184  14.781
46991W        W14059   8.758  42.987   5.210
46992W        W14060   3.244   6.900  13.441
46993W        W14061  26.608  19.154   2.264
46994W        W14062  14.268   9.775  14.823
46995W        W14063  41.922  27.940  10.059
46996W        W14064   3.736  12.174   3.235
46997W        W14065  44.310  26.111  14.310
46998W        W14066   6.888  26.132  11.431
46999W        W14067  30.913  23.164  11.040
47000W        W14068  19.186  10.277  14.790
47001W        W14069  41.369  44.474   0.958
47002W        W14070  37.045   5.361   3.764
47003W        W14071  29.612  41.815  10.997
47004W        W14072   6.857  42.385  10.629
47005W        W14073  23.618  40.499  14.944
47006W        W14074  38.047  30.048   3.637
47007W        W14075  17.258   1.269   2.698
47008W        W14076  29.079  34.521   1.769
47009W        W14077  18.758  26.965  10.903
47010W        W14078  26.562  43.865  14.462
47011W        W14079  32.601  21.097  14.909
47012W        W14080  26.635  42.429   3.655
47013W        W14081  22.574  18.622  14.805
47014W        W14082  13.291  14.624  14.981
47015W        W14083   7.271  16.117   1.226
47016W        W14084  41.372  13.152   1.763
47017W        W14085   3.731   6.707  13.365
47018W        W14086  23.086  32.463  14.933
47019W        W14087  37.876  41.306  12.360
47020W        W14088  17.782  20.742   2.276
47021W        W14089   5.436  37.426  12.963
47022W        W14090   8.714  12.700  11.023
47023W        W14091  12.655  36.098  14.398
47024W        W14092  13.271  37.398  13.804
47025W        W14093  24.087  38.444   4.773
47026W        W14094  43.315  13.324  14.409
47027W        W14095   4.928  41.538   3.168
47028W        W14096  26.181   3.381  13.418
47029W        W14097   0.377   4.879   3.675
47030W        W14098   6.355  38.858   5.265
47031W        W14099  42.433   9.332  12.005
47032W        W14100  29.960  23.059   4.219
47033W        W14101  21.543  31.514   2.184
47034W        W14102  17.117  30.029  11.594
47035W        W14103  12.333  17.159   3.238
47036W        W14104  32.408  30.122  12.435
47037W        W14105  32.602  44.487   1.728
47038W        W14106  27.539  27.553   4.343
47039W        W14107   0.424  36.007   3.358
47040W        W14108  11.645  13.242  14.402
47041W        W14109  19.738   5.742   0.826
47042W        W14110  28.538  15.230  11.961
47043W        W14111  38.532  36.580  11.915
47044W        W14112  41.985  39.466   3.171
47045W        W14113  22.552  34.594   1.746
47046W        W14114  10.868  23.678  13.503
47047W        W14115  13.764  23.180  11.887
47048W        W14116  27.469   8.218  11.871
47049W        W14117  26.116  13.221  14.915
47050W        W14118  25.627  15.318  11.497
47051W        W14119  41.495  39.047  10.467
47052W        W14120  19.751  16.765  12.538
47053W        W14121  40.955  12.133   0.261
47054W        W14122  24.227  37.457  12.948
47055W        W14123  13.125  25.087  14.895
47056W        W14124  37.057  32.027  13.981
47057W        W14125   6.388  22.113  10.972
47058W        W14126  19.253  36.966   2.188
47059W        W14127   9.699  30.598   0.774
47060W        W14128  13.160  29.929  11.934
47061W        W14129  29.105  25.035   3.238
47062W        W14130  32.495   1.476   1.874
47063W        W14131   7.907  19.626   4.816
47064W        W14132  11.232  37.985   3.184
47065W        W14133  31.621   2.793   3.763
47066W        W14134  21.196  42.820   9.969
47067W        W14135   4.282  28.606  11.008
47068W        W14136  23.518   3.818  12.367
47069W        W14137  26.148  41.515  11.875
47070W        W14138   0.913  34.414  11.555
47071W        W14139  43.363  25.666   3.326
47072W        W14140  18.168  38.325   0.417
47073W        W14141  28.170  31.998   3.165
47074W        W14142   4.885  25.102   1.708
47075W        W14143   3.272  33.583   1.266
47076W        W14144  37.037  15.687   2.770
47077W        W14145  43.829   9.685   3.765
47078W        W14146   1.963  15.609   3.207
47079W        W14147  32.618  25.127   2.394
47080W        W14148  14.264  30.564  14.438
47081W        W14149  32.031  43.338  10.966
47082W        W14150  25.576  29.452  11.954
47083W        W14151  17.192  19.154  11.054
47084W        W14152  31.138  38.511   2.893
47085W        W14153  42.929  36.944  10.579
47086W        W14154  20.538  19.596  14.882
47087W        W14155  17.158  25.129   5.263
47088W        W14156   7.877  36.484   4.187
47089W        W14157  39.962  24.721  13.906
47090W        W14158  38.072  14.749  11.556
47091W        W14159  14.817  33.991   1.730
47092W        W14160  15.789   1.276   3.679
47093W        W14161   7.344   2.772  11.499
47094W        W14162  22.016   3.788   0.741
47095W        W14163  26.660  29.431  12.531
47096W        W14164  30.141  25.497   4.279
47097W        W14165  24.571  32.519   0.744
47098W        W14166  37.569  12.830  14.783
47099W        W14167  44.953  27.576   2.858
47100W        W14168  35.539  32.610  12.061
47101W        W14169  44.362  37.847   4.754
47102W        W14170  28.673  34.948  12.843
47103W        W14171  35.412   7.759  12.464
47104W        W14172  25.098   1.422  14.316
47105W        W14173   6.230   0.943   2.197
47106W        W14174   8.781   1.438  14.347
47107W        W14175  21.537  18.194  13.349
47108W        W14176   3.337  22.132  12.563
47109W        W14177  32.462  32.505   4.333
47110W        W14178   5.780  30.506   3.186
47111W        W14179  13.314  29.436  10.949
47112W        W14180  19.204  14.265   0.768
47113W        W14181  10.681   5.315  14.505
47114W        W14182  12.305  13.206   2.730
47115W        W14183  27.043  23.173  14.437
47116W        W14184   3.769   0.973  12.883
47117W        W14185  30.476  26.013  10.974
47118W        W14186   2.938  28.977  13.380
47119W        W14187   6.187  38.009   1.239
47120W        W14188   4.425  30.628  14.373
47121W        W14189  37.860  43.367   2.892
47122W        W14190   7.694  19.077   2.836
47123W        W14191  28.471  32.470   3.279
47124W        W14192  16.686  11.716   3.774
47125W        W14193  24.638   0.383   2.384
47126W        W14194  14.278  30.445   4.766
47127W        W14195  13.778  44.430   4.154
47128W        W14196   2.796  16.121  12.379
47129W        W14197  24.511   8.360  14.347
47130W        W14198  15.678  35.039   4.795
47131W        W14199  21.682   9.216  14.791
47132W        W14200   9.862  24.104  14.815
47133W        W14201  35.434  35.527  13.981
47134W        W14202  32.616  15.150   3.711
47135W        W14203  21.526  16.716  13.863
47136W        W14204  24.482  17.697  14.349
47137W        W14205  36.064  32.107  14.767
47138W        W14206  17.651  32.615  10.998
47139W        W14207  40.911  11.835  10.983
47140W        W14208  10.645  43.982  12.419
47141W        W14209  29.088  26.013   0.395
47142W        W14210  21.675   6.921   4.295
47143W        W14211   3.742  11.742   2.754
47144W        W14212  27.112  39.399  12.428
47145W        W14213   4.272  13.339  11.052
47146W        W14214  38.528  38.883  11.032
47147W        W14215  38.074  32.908  14.833
47148W        W14216  36.526  43.966   3.685
47149W        W14217  24.711   3.854   1.780
47150W        W14218  34.402  30.949  12.893
47151W        W14219  14.279  28.552  10.407
47152W        W14220  29.645  40.838   2.901
47153W        W14221   6.284  31.489  11.503
47154W        W14222  10.703  33.131  10.899
47155W        W14223  42.468  19.169  12.953
47156W        W14224  44.837  29.441  10.989
47157W        W14225  15.159   1.424  13.804
47158W        W14226  12.172  12.164  10.892
47159W        W14227  23.515   9.707   3.753
47160W        W14228  34.541  43.996  12.557
47161W        W14229  26.110   5.352  14.367
47162W        W14230   1.913  36.449   4.231
47163W        W14231  25.666  12.215   0.816
47164W        W14232  24.038  23.035   1.759
47165W        W14233  34.084   9.284   0.335
47166W        W14234  33.939  39.001  14.978
47167W        W14235  36.881  19.207  10.900
47168W        W14236  22.082  37.012   3.827
47169W        W14237  27.679  24.645   2.246
47170W        W14238  34.111  20.724   3.815
47171W        W14239  27.053   1.358  14.451
47172W        W14240  11.642   1.884   2.319
47173W        W14241  29.587  36.998   2.267
47174W        W14242  14.095  43.299  14.991
47175W        W14243   0.407  24.621  12.018
47176W        W14244  30.929  44.270   2.334
47177W        W14245  12.159  20.633  14.872
47178W        W14246   5.863  20.223   1.285
47179W        W14247  32.984  14.254  13.361
47180W        W14248  42.505  25.093  13.514
47181W        W14249  25.125  40.958  13.972
47182W        W14250   1.797  40.949  11.415
47183W        W14251   8.855  14.204   0.454
47184W        W14252  27.973  14.137  11.960
47185W        W14253  27.139  12.228   3.256
47186W        W14254  29.123  37.486   3.298
47187W        W14255   6.915  29.636   3.632
47188W        W14256  39.940  44.284  10.477
47189W        W14257  39.841  41.905   2.357
47190W        W14258   5.888  28.133  14.885
47191W        W14259   7.278  40.039   3.176
47192W        W14260   0.843  29.635   2.386
47193W        W14261   0.342  21.564  11.440
47194W        W14262   3.896  37.952   4.235
47195W        W14263  11.755   3.216  12.356
47196W        W14264  21.033  38.827  14.776
47197W        W14265  16.137  14.800   1.803
47198W        W14266  13.752  25.710   4.190
47199W        W14267  18.590  20.060  13.444
47200W        W14268  10.879  43.299   5.289
47201W        W14269  44.926   3.749   0.329
47202W        W14270  17.211  38.962   0.962
47203W        W14271  23.229  21.539   4.613
47204W        W14272   8.355  28.947   4.341
47205W        W14273   1.267  23.558   2.324
47206W        W14274  42.366  35.452   4.627
47207W        W14275   6.371  29.126   1.332
47208W        W14276  25.701  23.144  11.083
47209W        W14277   6.691  11.723  13.907
47210W        W14278  18.727   4.856  14.318
47211W        W14279  16.766  17.239   3.694
47212W        W14280  41.341   5.209   4.352
47213W        W14281  42.437  41.922   3.863
47214W        W14282  26.022  24.017   3.184
47215W        W14283  30.472  19.667  11.454
47216W        W14284  38.994  11.354  10.467
47217W        W14285  22.025  35.486  11.940
47218W        W14286   0.288  43.945  11.560
47219W        W14287  43.428   2.827   4.144
47220W        W14288  17.668   0.281  12.074
47221W        W14289  27.650  33.930   3.150
47222W        W14290   9.855  16.104  10.545
47223W        W14291  44.944   6.337  14.929
47224W        W14292  29.095   5.887  14.424
47225W        W14293  17.114  20.103  12.041
47226W        W14294  17.275  29.666   1.450
47227W        W14295  18.570  20.570   2.795
47228W        W14296  43.906   2.853   1.719
47229W        W14297  24.699  23.984  13.914
47230W        W14298  17.207   5.914   0.402
47231W        W14299  15.220  11.143   4.272
47232W        W14300   4.789  26.637  14.292
47233W        W14301  17.601  15.288   2.877
47234W        W14302  44.002   9.812   2.249
47235W        W14303  31.643   9.742   0.476
47236W        W14304   5.792   0.873   4.717
47237W        W14305   1.749  11.347   3.311
47238W        W14306  25.159  24.572   2.851
47239W        W14307  21.517  21.587  11.484
47240W        W14308  20.094  13.292   2.388
47241W        W14309   7.819  10.666   3.778
47242W        W14310  41.018  40.541  14.513
47243W        W14311   2.464  16.770  13.454
47244W        W14312  43.305   6.302  12.935
47245W        W14313  31.051  20.217   4.147
47246W        W14314   8.281   5.320   3.362
47247W        W14315  26.545  40.430   3.749
47248W        W14316   8.885  14.788   0.913
47249W        W14317  20.136  26.509   1.885
47250W        W14318  43.998   8.707  12.020
47251W        W14319  16.574  24.139   1.297
47252W        W14320  32.141  23.615  11.075
47253W        W14321   4.413  31.085   2.820
47254W        W14322  15.781  44.290  10.605
47255W        W14323   0.808  16.692  14.318
47256W        W14324  42.459  27.180   4.284
47257W        W14325  44.410  36.483   1.364
47258W        W14326  26.207  40.407   0.330
47259W        W14327  21.143   5.927   2.807
47260W        W14328  29.433  12.636  12.913
47261W        W14329   4.296  19.164  12.520
47262W        W14330  18.161  34.538  13.965
47263W        W14331  17.776  24.714  12.027
47264W        W14332  20.769  34.880   3.203
47265W        W14333   2.254  16.192  14.898
47266W        W14334  23.540  15.269  13.511
47267W        W14335  13.261   0.363  11.539
47268W        W14336  22.110  22.219  11.398
47269W        W14337  23.593  11.852   4.282
47270W        W14338   4.767  39.904  12.553
47271W        W14339   3.878  24.996   1.430
47272W        W14340   7.241  17.564   2.232
47273W        W14341  23.993  32.563  11.124
47274W        W14342  12.674  40.009  12.045
47275W        W14343  41.403   8.254   3.762
47276W        W14344  44.313  32.127   0.801
47277W        W14345  14.176  16.663  12.946
47278W        W14346  25.089  20.104   0.774
47279W        W14347  14.302   5.329  13.836
47280W        W14348  30.520  35.416   1.860
47281W        W14349   2.449  14.298  11.129
47282W        W14350  17.220  41.410  14.965
47283W        W14351  26.630  39.940   1.933
47284W        W14352  38.880  43.924   1.280
47285W        W14353  41.879  28.435  13.474
47286W        W14354  38.004  24.049  12.548
47287W        W14355  18.159   5.867  11.486
47288W        W14356   8.280  34.457   4.724
47289W        W14357   9.362   6.338  10.617
47290W        W14358  15.755  36.984  10.891
47291W        W14359   0.319  25.665  11.922
47292W        W14360   3.274  30.053  12.831
47293W        W14361  18.674  19.165   0.374
47294W        W14362  23.734  44.957  12.352
47295W        W14363  44.378  15.752   4.679
47296W        W14364  11.677   6.314   0.934
47297W        W14365   5.195  28.633   1.695
47298W        W14366  30.081  13.340   1.297
47299W        W14367   8.682  16.193   3.229
47300W        W14368  10.220  22.521  12.388
47301W        W14369  35.095   3.913   0.854
47302W        W14370  35.909   0.812  13.382
47303W        W14371  28.585  43.976   3.740
47304W        W14372   1.405  27.104   4.662
47305W        W14373  23.554  14.246   4.643
47306W        W14374  23.096  18.124   4.242
47307W        W14375  18.154  33.390   4.121
47308W        W14376   2.936  13.646   2.197
47309W        W14377  13.176  31.494  10.602
47310W        W14378  11.236  19.277  11.046
47311W        W14379  16.228   6.247   2.291
47312W        W14380   4.908  26.125  10.589
47313W        W14381  32.590  40.308  11.029
47314W        W14382  40.371  12.844  11.577
47315W        W14383  17.689  28.628   0.966
47316W        W14384  41.317  20.241   0.292
47317W        W14385  32.090  30.117   4.637
47318W        W14386   0.398  35.373   4.250
47319W        W14387  29.048   1.259   1.238
47320W        W14388  12.746  17.676  14.951
47321W        W14389  32.586  11.163  11.461
47322W        W14390  39.361   5.800   2.279
47323W        W14391  33.086  17.156  12.446
47324W        W14392  38.960   4.722  12.412
47325W        W14393   0.280   1.948  14.999
47326W        W14394  32.069  13.190   1.702
47327W        W14395  37.997  40.500  11.916
47328W        W14396  24.662   5.830  13.054
47329W        W14397  23.210  26.603  12.068
47330W        W14398  32.086  27.575   4.340
47331W        W14399  40.885  28.622  11.398
47332W        W14400   9.724  41.321   0.916
47333W        W14401  38.550  31.422  11.892
47334W        W14402  38.385   6.812  14.284
47335W        W14403  30.441  43.302   0.385
47336W        W14404  32.521  37.019  12.448
47337W        W14405   1.794   3.427   3.332
47338W        W14406  16.233  19.576  12.826
47339W        W14407  16.738  27.470   1.879
47340W        W14408  23.065  34.547   2.662
47341W        W14409   2.248  30.651   2.840
47342W        W14410  20.150  25.584   2.774
47343W        W14411  32.617  35.924  14.909
47344W        W14412  17.636  44.271  14.789
47345W        W14413  29.963  11.689   1.883
47346W        W14414   1.824  15.199   1.305
47347W        W14415  19.624   0.932  13.019
47348W        W14416  39.394  33.508   3.369
47349W        W14417  30.039  43.375  12.452
47350W        W14418  13.830  33.402  13.389
47351W        W14419  19.121   3.445   2.798
47352W        W14420  37.961  43.991   1.314
47353W        W14421  20.663  18.113   3.675
47354W        W14422  10.636  33.958  10.640
47355W        W14423   6.316   0.403  10.159
47356W        W14424  31.958  33.427  11.038
47357W        W14425  28.493  32.468  14.894
47358W        W14426  27.169  20.556   3.213
47359W        W14427  36.445  27.497   1.838
47360W        W14428  41.023  33.103   4.330
47361W        W14429  16.752  21.038   4.688
47362W        W14430   8.201  19.679  10.410
47363W        W14431  10.830  35.371  14.769
47364W        W14432  14.193  37.904   0.404
47365W        W14433   1.867  37.041   1.393
47366W        W14434  25.566  28.066  14.879
47367W        W14435  30.590  26.692  11.571
47368W        W14436  42.455  24.126   1.226
47369W        W14437  10.671  10.861  11.374
47370W        W14438  14.657  35.389  11.033
47371W        W14439  16.703  25.969  10.928
47372W        W14440  17.073  28.130  10.591
47373W        W14441  18.735  12.323  13.841
47374W        W14442  10.833  27.089  12.418
47375W        W14443  36.077   6.249  13.919
47376W        W14444  22.106   7.876  10.492
47377W        W14445  26.510  10.795  10.431
47378W        W14446  42.315  38.855  10.615
47379W        W14447  12.223  10.353  11.514
47380W        W14448   8.698   0.864  14.940
47381W        W14449  31.531  14.735  13.336
47382W        W14450  17.270  42.468   0.396
47383W        W14451  33.610   5.316   3.729
47384W        W14452  14.324  40.855  12.825
47385W        W14453  29.136  24.559  13.309
47386W        W14454   6.323   6.768  11.083
47387W        W14455   6.864  36.055   4.730
47388W        W14456  33.532   7.281   0.729
47389W        W14457  19.053  12.302  10.979
47390W        W14458  12.330  15.089  11.096
47391W        W14459  44.476  25.043  11.074
47392W        W14460  13.304   2.271   4.292
47393W        W14461  24.567  41.296   1.333
47394W        W14462  18.057  25.485   2.746
47395W        W14463  42.364  14.326  11.519
47396W        W14464   1.332  22.222  12.861
47397W        W14465  13.220  34.377  12.973
47398W        W14466  39.826  22.703  10.512
47399W        W14467   3.939  44.374  11.535
47400W        W14468  29.628  41.495   1.716
47401W        W14469  29.445  35.984   4.621
47402W        W14470  44.442  15.813  12.917
47403W        W14471  22.114   3.236  12.407
47404W        W14472  21.134  13.349   2.271
47405W        W14473  12.786  16.743  14.417
47406W        W14474  36.407   1.870   4.644
47407W        W14475  35.948  16.187   2.208
47408W        W14476  25.576  25.619  11.005
47409W        W14477  36.582  22.591  14.311
47410W        W14478  18.719  11.631  10.062
47411W        W14479   7.219  39.510   3.157
47412W        W14480  39.487  21.192   2.347
47413W        W14481  13.739  13.634   2.766
47414W        W14482   3.379  30.533  13.938
47415W        W14483  31.627  29.544   0.964
47416W        W14484  38.977  35.378  14.387
47417W        W14485  12.739  36.926   1.425
47418W        W14486  32.592   6.405   1.347
47419W        W14487  19.649   5.379   0.843
47420W        W14488  24.493  19.096  12.058
47421W        W14489  27.980  17.560   3.687
47422W        W14490  25.665  32.945   0.757
47423W        W14491  19.707  15.644  13.363
47424W        W14492  41.498   1.472  14.923
47425W        W14493  43.834   7.417  10.508
47426W        W14494  18.738   0.364  11.519
47427W        W14495  16.155  39.888   3.687
47428W        W14496  20.173   9.204  11.858
47429W        W14497  19.694  43.006  12.039
47430W        W14498   0.284  34.513   1.238
47431W        W14499  31.129   5.786   4.810
47432W        W14500   6.858  15.819  11.084
47433W        W14501  43.484  13.616   2.298
47434W        W14502  44.985   7.180   1.755
47435W        W14503   4.347   7.803  12.825
47436W        W14504  20.124  14.666   3.334
47437W        W14505  23.112  32.557   2.287
47438W        W14506  15.774  35.975   4.710
47439W        W14507  32.927  19.724   5.194
47440W        W14508  32.131  37.428   1.359
47441W        W14509   9.370  34.100   3.785
47442W        W14510  38.374  38.858   4.323
47443W        W14511  17.112  25.053  12.003
47444W        W14512   6.420  23.708  14.289
47445W        W14513  39.556  32.612  13.394
47446W        W14514  26.174  12.758   3.654
47447W        W14515  41.399  20.254   2.662
47448W        W14516  29.006  24.611   3.686
47449W        W14517  38.017  20.220  10.504
47450W        W14518  28.540  22.010   0.905
47451W        W14519   9.830  13.798  12.846
47452W        W14520  41.919  13.844   3.188
47453W        W14521  21.515  35.545   0.427
47454W        W14522  19.657  34.007  12.868
47455W        W14523  10.719  14.314   2.314
47456W        W14524  30.944  11.131   4.344
47457W        W14525  18.580  18.158   3.629
47458W        W14526  38.480  38.031   2.285
47459W        W14527  19.282   5.887  11.928
47460W        W14528  15.214  14.268   4.754
47461W        W14529  33.091  34.582  13.834
47462W        W14530   9.752  12.658  13.360
47463W        W14531  13.729  40.340   2.886
47464W        W14532   5.309  19.752  12.879
47465W        W14533  21.202  42.798   1.927
47466W        W14534   2.955  40.891  14.804
47467W        W14535  32.506  43.883  14.294
47468W        W14536  24.059  10.859  12.446
47469W        W14537  33.009  27.686   3.833
47470W        W14538   2.311  20.767  10.524
47471W        W14539  13.647  13.177  13.435
47472W        W14540  11.677  42.347  13.053
47473W        W14541  26.977  20.070   1.885
47474W        W14542  14.220   3.398  10.566
47475W        W14543   9.699  13.749  14.465
47476W        W14544  30.516   5.768  14.334
47477W        W14545  36.013  31.507   4.775
47478W        W14546  18.729  32.498  12.843
47479W        W14547  21.255  16.161   2.407
47480W        W14548  35.488   5.857   0.743
47481W        W14549  21.108  36.527   4.234
47482W        W14550  42.872  34.603  14.383
47483W        W14551  18.052  19.136  14.802
47484W        W14552  44.798  25.116   3.367
47485W        W14553  37.563  23.592  12.985
47486W        W14554  16.085  16.745   0.453
47487W        W14555  26.572  23.623  11.000
47488W        W14556  19.779  13.681   1.855
47489W        W14557   3.312  28.992  10.573
47490W        W14558   0.882  40.923  12.876
47491W        W14559  33.954   3.431   3.298
47492W        W14560  40.957  22.535   2.702
47493W        W14561  30.954  44.893  13.351
47494W        W14562  33.990  28.588   1.378
47495W        W14563  23.537  18.729   0.283
47496W        W14564  15.270  32.508   1.799
47497W        W14565  30.080   2.433  14.872
47498W        W14566  36.359  27.445  13.834
47499W        W14567  36.076  11.180  10.477
47500W        W14568  13.239   0.322   2.272
47501W        W14569  30.959  37.408   0.802
47502W        W14570  33.534  26.693   3.225
47503W        W14571  14.783  30.424  11.047
47504W        W14572  23.045  43.835   2.812
47505W        W14573  36.444  27.152  10.999
47506W        W14574  37.841   3.448   2.361
47507W        W14575  25.547  13.265   1.404
47508W        W14576   1.453  19.754  12.447
47509W        W14577   3.946   5.878   0.754
47510W        W14578  25.207   5.400  10.926
47511W        W14579  28.631  42.496  14.362
47512W        W14580  44.489  35.583   0.477
47513W        W14581  39.964  25.182   4.716
47514W        W14582  34.920  16.309  13.057
47515W        W14583  15.602  28.626  10.462
47516W        W14584  40.004  10.818  11.027
47517W        W14585  24.044  17.200  11.448
47518W        W14586   0.917  25.682   2.815
47519W        W14587  23.584   0.286  14.294
47520W        W14588  23.592  38.384  12.498
47521W        W14589  31.425   5.437  13.023
47522W        W14590  24.181  39.893   0.741
47523W        W14591  13.627  14.602   3.214
47524W        W14592  13.617  41.390  11.479
47525W        W14593  20.037   1.332   3.174
47526W        W14594  40.024  15.209   0.812
47527W        W14595  29.943  37.977  10.625
47528W        W14596  17.572  21.618  10.926
47529W        W14597  15.636  13.219  10.926
47530W        W14598  37.371  21.523  12.931
47531W        W14599  42.504  20.121  12.450
47532W        W14600  38.408  23.492   0.400
47533W        W14601  38.402  17.177   0.416
47534W        W14602   2.865  33.877   3.268
47535W        W14603  43.352   8.809  14.393
47536W        W14604   6.183  23.562  12.580
47537W        W14605  11.178  23.543   3.692
47538W        W14606   9.877   5.728   2.872
47539W        W14607  22.613  27.463  11.056
47540W        W14608   8.274  10.693   1.725
47541W        W14609  14.199  17.761  11.394
47542W        W14610  26.161  10.784  11.392
47543W        W14611   8.687  16.127  13.030
47544W        W14612  39.506  34.532  14.928
47545W        W14613  26.987  24.639   3.643
47546W        W14614  41.806  38.986  12.488
47547W        W14615  25.476  15.126  10.481
47548W        W14616  42.416  25.609  10.520
47549W        W14617  25.708  43.459   0.803
47550W        W14618  30.140  29.431   0.455
47551W        W14619  31.427  15.728   3.763
47552W        W14620  42.445  41.420  11.956
47553W        W14621  16.244  37.526  10.062
47554W        W14622  44.504  31.903   3.163
47555W        W14623  20.689  34.922   0.771
47556W        W14624  22.500  43.394  14.775
47557W        W14625  18.737  17.730  11.014
47558W        W14626  26.574  36.862   3.302
47559W        W14627  25.612  17.635  14.810
47560W        W14628  22.250  37.069  12.028
47561W        W14629  10.828  17.238   0.267
47562W        W14630  42.791  34.544  12.507
47563W        W14631  18.741  17.078  11.065
47564W        W14632  17.254  42.317  11.066
47565W        W14633  33.065  36.377  13.850
47566W        W14634  44.879  27.088  13.059
47567W        W14635  16.571  42.282   0.379
47568W        W14636  26.131  32.988   1.793
47569W        W14637  23.018  33.021  11.857
47570W        W14638  36.045   1.960  13.946
47571W        W14639   5.394  20.167   4.141
47572W        W14640  40.404  41.986   2.419
47573W        W14641  14.611  23.652  11.508
47574W        W14642  42.823  26.103   1.247
47575W        W14643   8.683  35.034  10.533
47576W        W14644  14.215  41.360   4.309
47577W        W14645   0.881   8.261  14.958
47578W        W14646  38.527  16.594   2.835
47579W        W14647  29.020  35.478   0.290
47580W        W14648  16.682  31.514  13.534
47581W        W14649  16.708  40.800   3.187
47582W        W14650  13.237  38.045   3.195
47583W        W14651  19.285   8.320   2.715
47584W        W14652  37.474   0.893   4.247
47585W        W14653  13.823  30.463  10.950
47586W        W14654  37.832  15.685  12.568
47587W        W14655  13.107  40.460  11.606
47588W        W14656   0.280  10.175  13.921
47589W        W14657  25.517  12.283  13.465
47590W        W14658   9.156  27.617   2.225
47591W        W14659  29.513  34.885   0.476
47592W        W14660   6.696  39.898  12.902
47593W        W14661  43.400  24.139  14.376
47594W        W14662   1.973   2.831   0.786
47595W        W14663  25.597  26.510   0.476
47596W        W14664   1.847  33.408  11.372
47597W        W14665   7.858  16.117  12.474
47598W        W14666   1.482   1.298   0.834
47599W        W14667  20.548  23.601  12.418
47600W        W14668  14.161   2.844   1.779
47601W        W14669  40.805  23.543  10.887
47602W        W14670   6.292  18.663   1.821
47603W        W14671  15.135  19.774  14.355
47604W        W14672  44.821  36.969  12.890
47605W        W14673  39.062  30.520   0.962
47606W        W14674  12.753  42.322   4.279
47607W        W14675  29.630  40.522  11.460
47608W        W14676  10.218   5.894  11.391
47609W        W14677  42.329  38.984  12.860
47610W        W14678  31.915  38.410  13.029
47611W        W14679   4.873  19.118  12.016
47612W        W14680  19.621  13.650   3.149
47613W        W14681  24.503  17.213   1.889
47614W        W14682   1.934  28.135   0.458
47615W        W14683  35.392  16.312   1.821
47616W        W14684   3.452  41.484  10.944
47617W        W14685  32.480   1.821   3.835
47618W        W14686  28.506  10.833  14.320
47619W        W14687   3.459   7.754   3.687
47620W        W14688  25.540  22.246  13.409
47621W        W14689  17.653   0.325   4.723
47622W        W14690  43.953   0.841   1.826
47623W        W14691  30.115  29.974   1.794
47624W        W14692  30.522  22.161  13.431
47625W        W14693  30.519  26.532  10.011
47626W        W14694   4.758   9.819   2.809
47627W        W14695  34.525  39.046   2.285
47628W        W14696  34.920  36.573  13.941
47629W        W14697  39.368   4.359  13.794
47630W        W14698   1.446  42.483  13.823
47631W        W14699  26.471   7.829   0.321
47632W        W14700  28.983  26.530   4.299
47633W        W14701  26.007  30.613  10.416
47634W        W14702  16.192  21.568   4.221
47635W        W14703   1.256  31.615  13.406
47636W        W14704  32.556  10.709  12.506
47637W        W14705  14.744  24.608  13.834
47638W        W14706  27.656  11.256   4.744
47639W        W14707  37.978  18.651  12.887
47640W        W14708  22.058   3.324   2.282
47641W        W14709  35.991   8.280  11.884
47642W        W14710  32.553  17.564  14.290
47643W        W14711   9.216  24.514   1.727
47644W        W14712  33.539  43.409   0.409
47645W        W14713  19.143  22.726   0.832
47646W        W14714  23.158  39.029   2.755
47647W        W14715  38.965  18.253  12.411
47648W        W14716  25.679  28.934  13.901
47649W        W14717  16.767   4.913  14.954
47650W        W14718  27.142   6.680  10.906
47651W        W14719  28.050   7.190  11.500
47652W        W14720   4.761  44.970  12.999
47653W        W14721  31.106   9.747   3.169
47654W        W14722  31.014  28.976   1.259
47655W        W14723  30.094  32.923  11.942
47656W        W14724  32.989   4.340  13.388
47657W        W14725  40.854  11.159  12.898
47658W        W14726  35.073  24.981  13.918
47659W        W14727   3.456  39.915  11.116
47660W        W14728  37.925  18.594  14.831
47661W        W14729  12.826  43.980  12.432
47662W        W14730  10.292  34.489  13.009
47663W        W14731  44.421   2.392   3.385
47664W        W14732  37.830   2.750   0.734
47665W        W14733   7.403  36.958  14.339
47666W        W14734  24.638  39.028   3.799
47667W        W14735  14.805  33.481  14.300
47668W        W14736  16.090  31.937   3.762
47669W        W14737  38.010  26.058  10.910
47670W        W14738  31.145  27.086  11.105
47671W        W14739  13.673  25.057  14.842
47672W        W14740  34.072  13.635   3.268
47673W        W14741   6.345  16.084   3.240
47674W        W14742   0.418  34.002   4.220
47675W        W14743  39.035   4.747   0.836
47676W        W14744  14.322  24.017  10.560
47677W        W14745  41.403  14.320  10.471
47678W        W14746  40.496  30.080  12.571
47679W        W14747  39.346  24.022  14.331
47680W        W14748  43.296  41.792   1.775
47681W        W14749   1.367   6.186  14.921
47682W        W14750  31.450  23.037   1.384
47683W        W14751  32.894  36.396  10.414
47684W        W14752  28.497  33.020   4.142
47685W        W14753   6.889  29.085   3.328
47686W        W14754  10.857  14.322  14.370
47687W        W14755  36.541   5.689   0.389
47688W        W14756  19.270  14.650   2.221
47689W        W14757  41.005  33.998   2.861
47690W        W14758  27.564   4.387  13.837
47691W        W14759  44.943  19.143   4.282
47692W        W14760  14.680  21.548   3.660
47693W        W14761   3.745   6.869  10.638
47694W        W14762   8.696   5.365  13.437
47695W        W14763  20.759   3.714   2.732
47696W        W14764  21.691  16.784  14.496
47697W        W14765  11.754  17.710  14.296
47698W        W14766  21.179  36.046   0.899
47699W        W14767  43.782  11.642   1.791
47700W        W14768  35.436  32.025   2.355
47701W        W14769  15.209   9.765  11.051
47702W        W14770  36.095  12.704   1.278
47703W        W14771  13.670  43.830   1.399
47704W        W14772  36.024  23.524  11.451
47705W        W14773  24.645   7.218  12.848
47706W        W14774  26.651  43.776   2.264
47707W        W14775   4.866  42.997  13.317
47708W        W14776  38.846  35.969  11.610
47709W        W14777  42.939   0.287   1.254
47710W        W14778  40.848   1.893  13.423
47711W        W14779   1.471   3.722   0.475
47712W        W14780  38.965  20.528   0.249
47713W        W14781  35.922  14.724  14.372
47714W        W14782   6.778   9.163  14.815
47715W        W14783  37.913  21.224   0.894
47716W        W14784  32.942  36.530  11.524
47717W        W14785  29.537  28.949  13.347
47718W        W14786   4.242  40.995   4.759
47719W        W14787  37.345   7.725  14.768
47720W        W14788   2.730  22.234   4.157
47721W        W14789  20.052  19.555  12.842
47722W        W14790  18.556  18.681   2.207
47723W        W14791  12.831  13.198  12.074
47724W        W14792  30.435  44.874  10.604
47725W        W14793  37.542  31.087   3.258
47726W        W14794  21.529  32.424   1.434
47727W        W14795   2.950  42.853   4.304
47728W        W14796  29.080  41.954  14.024
47729W        W14797  13.309   0.343   0.890
47730W        W14798  20.643  19.232  13.378
47731W        W14799  34.979  24.539   1.427
47732W        W14800  33.047   8.381  14.897
47733W        W14801   8.765  29.162  11.868
47734W        W14802   1.840  35.912  11.578
47735W        W14803  17.605  19.227   2.271
47736W        W14804  20.205   6.869   3.737
47737W        W14805  18.295  25.215  12.862
47738W        W14806  32.008  10.279   1.305
47739W        W14807  11.785  37.988  12.374
47740W        W14808   5.298   2.836  12.030
47741W        W14809   7.389  27.021   0.773
47742W        W14810  33.052  32.585  13.873
47743W        W14811  31.434  34.940   0.893
47744W        W14812  15.648  36.880   4.658
47745W        W14813  21.127   0.430   4.800
47746W        W14814   5.755  32.390   1.917
47747W        W14815  11.649  36.953  14.770
47748W        W14816   8.697  44.889   4.203
47749W        W14817  13.322  33.944   3.344
47750W        W14818  13.779  41.953  12.341
47751W        W14819   0.258  40.902   2.752
47752W        W14820  15.254   4.795   4.159
47753W        W14821  16.167  29.561   0.347
47754W        W14822  43.831  14.307  13.026
47755W        W14823  36.093  15.274   0.370
47756W        W14824  44.860  31.946  13.005
47757W        W14825   4.308  36.989   2.895
47758W        W14826   3.742  36.969  13.391
47759W        W14827  42.461  43.855  12.345
47760W        W14828  12.244  23.136  10.975
47761W        W14829   4.208  33.987  14.987
47762W        W14830  34.982  10.843   2.229
47763W        W14831  13.746   5.909   1.399
47764W        W14832  21.550  13.712  11.482
47765W        W14833  29.120  12.192   4.232
47766W        W14834  44.453   4.205  11.492
47767W        W14835  27.140  16.182  13.026
47768W        W14836   3.380   7.172  11.548
47769W        W14837   1.312  15.671  13.901
47770W        W14838   0.839  25.595  13.922
47771W        W14839  21.235  10.236  12.418
47772W        W14840  17.607  42.998  10.893
47773W        W14841  12.150  11.662  10.924
47774W        W14842  42.434  11.231  11.938
47775W        W14843  31.146   0.795   1.295
47776W        W14844  39.542  23.492   3.843
47777W        W14845  26.208   3.728   1.841
47778W        W14846  32.624  36.921  11.858
47779W        W14847   3.246  40.408  12.547
47780W        W14848   0.915  38.893   0.832
47781W        W14849   2.780  21.749   4.258
47782W        W14850  34.497  33.053  14.923
47783W        W14851  36.574  26.553   0.897
47784W        W14852  21.264  40.811   0.362
47785W        W14853  15.121  21.097  11.538
47786W        W14854   6.886  38.916   3.235
47787W        W14855  26.205  35.082  12.914
47788W        W14856  24.116  42.933  13.507
47789W        W14857   6.832   2.359  11.445
47790W        W14858   6.760  38.009   2.258
47791W        W14859  15.269   9.785   0.344
47792W        W14860   1.450  24.551  12.440
47793W        W14861  11.273   5.904  12.560
47794W        W14862   4.792   5.282  10.459
47795W        W14863   7.236  32.575   4.287
47796W        W14864   2.743  30.643   4.200
47797W        W14865  15.293   5.309   3.156
47798W        W14866  13.113  32.040   3.376
47799W        W14867  16.300  37.456  14.495
47800W        W14868  41.919  24.615   3.374
47801W        W14869  44.831  26.152   2.767
47802W        W14870  39.065  18.092  13.964
47803W        W14871  17.778   0.255   2.876
47804W        W14872  31.900  36.860   1.863
47805W        W14873  22.513  40.836   0.280
47806W        W14874  23.238  31.961  11.117
47807W        W14875  15.188  38.828   2.400
47808W        W14876   0.979   1.289  14.944
47809W        W14877  19.269  43.986  11.017
47810W        W14878  27.161   1.975   3.847
47811W        W14879  34.056   1.977  13.912
47812W        W14880   3.811  40.407  14.359
47813W        W14881   8.670   3.867   4.120
47814W        W14882  38.061  22.230   2.196
47815W        W14883  24.509  43.844  10.980
47816W        W14884  30.595   5.702  12.552
47817W        W14885  41.412  16.737   0.417
47818W        W14886  24.594  38.876  10.600
47819W        W14887  21.577  18.639  12.470
47820W        W14888  43.352  36.449  11.066
47821W        W14889  21.756   3.436   1.413
47822W        W14890  44.770  27.589   0.862
47823W        W14891  16.186  27.452   1.337
47824W        W14892  10.311  39.559   3.755
47825W        W14893  33.069  42.462   4.347
47826W        W14894  14.678  44.936   3.784
47827W        W14895   6.901  10.140  11.470
47828W        W14896  40.988   9.743   3.209
47829W        W14897   4.286  41.366   0.268
47830W        W14898  22.636  11.826   3.767
47831W        W14899  42.399   7.356  11.581
47832W        W14900   8.295  13.831   2.370
47833W        W14901  43.278  39.861   1.747
47834W        W14902   6.773  12.683  13.407
47835W        W14903   9.885   7.715   2.730
47836W        W14904  24.587  29.432   2.397
47837W        W14905  34.396  16.185   1.262
47838W        W14906  43.776  33.477  13.912
47839W        W14907  13.108  33.540   2.894
47840W        W14908   6.824  26.618   0.745
47841W        W14909  29.175  16.766   1.913
47842W        W14910  42.962   1.287   3.320
47843W        W14911   1.263  44.463  13.943
47844W        W14912   4.270   8.358  12.342
47845W        W14913  13.204  14.333  11.497
47846W        W14914  20.057  16.301  10.983
47847W        W14915  34.438  21.723  14.453
47848W        W14916   3.331  23.718   2.193
47849W        W14917  19.181  14.174  11.415
47850W        W14918  11.837  41.297  10.624
47851W        W14919  23.640  16.734  12.077
47852W        W14920  10.186  13.766  13.345
47853W        W14921  34.405   9.341  12.896
47854W        W14922   0.387  16.780   4.791
47855W        W14923  41.850  43.866  12.410
47856W        W14924  13.295   7.229   2.694
47857W        W14925   4.392   4.339   4.132
47858W        W14926   4.819  28.177  14.452
47859W        W14927  32.490  39.064  14.776
47860W        W14928   9.820  23.669   1.840
47861W        W14929  39.011  31.462  14.815
47862W        W14930  39.453  42.781  12.348
47863W        W14931  20.080   6.891   2.388
47864W        W14932   5.917  13.321   0.827
47865W        W14933  14.658  16.185   3.265
47866W        W14934  43.467  30.477  10.476
47867W        W14935  33.950  21.046   1.398
47868W        W14936  10.170  23.180  12.866
47869W        W14937  20.120  10.256   1.215
47870W        W14938  13.731   4.776  11.516
47871W        W14939   4.368   2.275  13.974
47872W        W14940   5.239  24.646   1.437
47873W        W14941  15.305   0.971   3.667
47874W        W14942  10.275  34.502  10.971
47875W        W14943  28.547  42.794  12.348
47876W        W14944   2.785   9.238   3.806
47877W        W14945  40.370   7.780  14.277
47878W        W14946  30.427  28.659   2.722
47879W        W14947  35.554  28.091   1.390
47880W        W14948  17.154   0.752  11.450
47881W        W14949   9.190  17.648   3.871
47882W        W14950  12.650  11.634   2.213
47883W        W14951  12.615  24.992   0.319
47884W        W14952  15.620  37.976  13.964
47885W        W14953   9.805  12.830   3.255
47886W        W14954   6.352  39.874   4.687
47887W        W14955  37.939  16.623   1.928
47888W        W14956  17.680  38.498  13.855
47889W        W14957  24.193  23.174  14.977
47890W        W14958  41.978  25.606  12.984
47891W        W14959   3.386  28.046   4.136
47892W        W14960  44.487  33.535   1.282
47893W        W14961   0.290  10.379   4.668
47894W        W14962  23.018  24.097   3.862
47895W        W14963  28.931  20.199  14.795
47896W        W14964  28.972  38.388  12.488
47897W        W14965  25.192  25.504   2.673
47898W        W14966  28.145  25.702   1.268
47899W        W14967  22.534  11.332  11.376
47900W        W14968   2.346  10.209   0.285
47901W        W14969   7.861  35.593  12.350
47902W        W14970  28.181   5.780  10.570
47903W        W14971   5.893  36.980  11.535
47904W        W14972  40.935  44.982   3.831
47905W        W14973  15.710   0.797   0.934
47906W        W14974  18.086   6.907  14.805
47907W        W14975  10.257  17.157   4.703
47908W        W14976  30.112  38.874  10.614
47909W        W14977  36.488  16.600  13.808
47910W        W14978   4.250  40.330  14.330
47911W        W14979  11.843  41.364  10.058
47912W        W14980  35.928   0.765   3.823
47913W        W14981   8.891  23.594   1.921
47914W        W14982  11.839  37.917  11.590
47915W        W14983   2.781  42.935   4.788
47916W        W14984  36.348   9.781   1.328
47917W        W14985  23.100  32.006  14.961
47918W        W14986   8.851  43.414  13.019
47919W        W14987  31.138  39.042  11.456
47920W        W14988  31.505   1.312   0.735
47921W        W14989  13.165   9.185  10.987
47922W        W14990  23.610  37.038   0.418
47923W        W14991  21.170   3.325  12.945
47924W        W14992  37.845   6.806  13.964
47925W        W14993  20.163  15.615   4.162
47926W        W14994  10.380  34.611  14.959
47927W        W14995   1.817  25.144   3.387
47928W        W14996  27.596  39.971  11.535
47929W        W14997  21.125  20.547   3.313
47930W        W14998  31.104  30.913  13.948
47931W        W14999  42.505   4.756   4.114
47932W        W15000  36.490   2.949  13.895
47933W        W15001  29.121   4.763   3.674
47934W        W15002  34.465  41.985   4.349
47935W        W15003  33.564  22.235  14.296
47936W        W15004  22.725  12.624   2.866
47937W        W15005  15.819  23.208  11.448
47938W        W15006  38.375   1.258   4.754
47939W        W15007  42.958  27.563   3.711
47940W        W15008  43.902  44.831  11.862
47941W        W15009   1.437  33.393  14.401
47942W        W15010  26.985  41.435   2.188
47943W        W15011   1.369  25.106   2.822
47944W        W15012   4.791  25.100  10.030
47945W        W15013  25.632  34.515   3.327
47946W        W15014  28.996  21.522  13.019
47947W        W15015  28.607  25.656  12.574
47948W        W15016  34.448   7.206  11.608
47949W        W15017  39.038  21.648  14.992
47950W        W15018  29.670  20.617  14.421
47951W        W15019  22.553   4.251  12.833
47952W        W15020  24.490  20.190   3.331
47953W        W15021  40.315  10.343  14.963
47954W        W15022  44.313   4.301   2.667
47955W        W15023   3.288  20.700  14.975
47956W        W15024  16.710   0.457   3.241
47957W        W15025   1.924  42.307  12.456
47958W        W15026  32.597  11.647  10.901
47959W        W15027  14.624  21.259  13.844
47960W        W15028  33.510   7.207  10.893
47961W        W15029  42.301  23.520   1.442
47962W        W15030  15.128  19.259   0.874
47963W        W15031  12.795  34.479   2.866
47964W        W15032  17.708  25.588   2.375
47965W        W15033  37.394  26.503   4.115
47966W        W15034  32.475  40.798  13.984
47967W        W15035  26.976  31.556  11.377
47968W        W15036  15.738  36.588   1.849
47969W        W15037  40.466   3.419   0.482
47970W        W15038  34.598  34.096   4.195
47971W        W15039  25.061  38.910   2.752
47972W        W15040  34.011  28.932   4.753
47973W        W15041  38.339  27.460  12.513
47974W        W15042  34.466   3.448   2.287
47975W        W15043  30.510  32.031   3.788
47976W        W15044   9.798   6.770   1.927
47977W        W15045  29.148  37.421  12.505
47978W        W15046   6.248  36.994   3.287
47979W        W15047  24.140   5.783   3.789
47980W        W15048  10.221  22.521  13.823
47981W        W15049   1.332  30.933  11.861
47982W        W15050   6.346  21.032  11.089
47983W        W15051  31.067   0.396   3.702
47984W        W15052  26.696  26.046  11.561
47985W        W15053  14.800  36.347  14.764
47986W        W15054  10.846   7.242   1.758
47987W        W15055  44.792  40.992  12.493
47988W        W15056   4.360  17.094  14.024
47989W        W15057  28.080  34.547   0.395
47990W        W15058   4.800  10.220  10.931
47991W        W15059  15.791  13.178   0.293
47992W        W15060  31.004   0.766  12.539
47993W        W15061  37.841  15.583   9.939
47994W        W15062  28.009   3.759  14.912
47995W        W15063  19.731  14.137  14.377
47996W        W15064  18.140  38.377  12.438
47997W        W15065   7.883  44.286   5.215
47998W        W15066   2.415  35.516   1.237
47999W        W15067  19.116   2.406   3.664
48000W        W15068   8.803   4.318  13.898
48001W        W15069  16.652  36.497  12.933
48002W        W15070  24.629   2.949  12.862
48003W        W15071  26.195  28.466   2.895
48004W        W15072  19.104   9.857  12.035
48005W        W15073  28.497  26.149   2.243
48006W        W15074  44.278  38.074   3.698
48007W        W15075  35.048  31.982   3.251
48008W        W15076  33.033  28.598   3.827
48009W        W15077   9.268  33.547  13.473
48010W        W15078  18.052  27.999  13.417
48011W        W15079   1.955  33.394  13.880
48012W        W15080   6.369  17.721   2.317
48013W        W15081  30.556  12.301  10.578
48014W        W15082  44.864  20.158  13.826
48015W        W15083  18.118   7.338  13.438
48016W        W15084  19.542   8.390  13.328
48017W        W15085  24.621  34.474   0.915
48018W        W15086  43.960  19.225   4.302
48019W        W15087  43.431  44.342   3.162
48020W        W15088  30.588  40.496  10.566
48021W        W15089   8.699  11.356  11.532
48022W        W15090  20.643  34.902   2.209
48023W        W15091   9.165   7.863  10.530
48024W        W15092   5.688  41.496   3.370
48025W        W15093  10.743  22.046  12.080
48026W        W15094  39.450   3.397  12.495
48027W        W15095   6.733  32.583   0.467
48028W        W15096   8.762  15.313  10.450
48029W        W15097  26.624  28.436   2.276
48030W        W15098  20.653   9.162   4.289
48031W        W15099  31.445  18.164   0.307
48032W        W15100  36.882  34.492  11.956
48033W        W15101  26.545  13.172   5.179
48034W        W15102  30.139   6.752  11.920
48035W        W15103   7.361  23.064  14.971
48036W        W15104   0.809   7.714  10.517
48037W        W15105   5.224  23.157  10.557
48038W        W15106  40.410   4.730  13.030
48039W        W15107  23.160  37.876   4.676
48040W        W15108  43.320   0.400  12.555
48041W        W15109   0.835  35.054  12.468
48042W        W15110   2.743  25.113  13.055
48043W        W15111  13.190  10.721  12.973
48044W        W15112   7.284   9.673   4.835
48045W        W15113  23.157  19.069   0.772
48046W        W15114  15.785  33.083  10.637
48047W        W15115  34.957  13.250  14.375
48048W        W15116  11.322  32.570   2.183
48049W        W15117  43.885  30.511  12.074
48050W        W15118   8.182  11.786   3.359
48051W        W15119   1.874  40.369   1.732
48052W        W15120   0.852  11.814   1.717
48053W        W15121  26.962  13.800   0.412
48054W        W15122  17.564  14.639  10.965
48055W        W15123  19.141  21.072  11.053
48056W        W15124   8.710  42.911  10.552
48057W        W15125  13.115   6.265   4.350
48058W        W15126  14.334  31.648  13.804
48059W        W15127  35.392  21.079   3.863
48060W        W15128   0.981   8.777   2.861
48061W        W15129  39.385  40.549  11.043
48062W        W15130  24.576  21.721  10.961
48063W        W15131  25.989   4.219   3.823
48064W        W15132   1.777  39.010   1.840
48065W        W15133   0.271  12.621  13.874
48066W        W15134  39.862  16.308   2.846
48067W        W15135  24.020   0.476   3.239
48068W        W15136  16.672  19.771   0.297
48069W        W15137  13.191   9.299  13.032
48070W        W15138  30.524  24.694  13.976
48071W        W15139  40.887  29.119  10.512
48072W        W15140  29.004  31.053  12.484
48073W        W15141  36.077   3.856  14.363
48074W        W15142   2.413  35.107   4.158
48075W        W15143  21.042  29.641  11.525
48076W        W15144   1.373  41.906   4.295
48077W        W15145  34.897  30.617  11.990
48078W        W15146  31.566  33.074  10.891
48079W        W15147  27.590  42.463  14.338
48080W        W15148   0.837   4.809  14.955
48081W        W15149  21.547  26.559   3.237
48082W        W15150   4.426  17.247   2.903
48083W        W15151  16.135  18.172  13.429
48084W        W15152  36.933  33.413  13.545
48085W        W15153  37.467  33.588  11.468
48086W        W15154  26.536   1.350  13.512
48087W        W15155  32.462  43.894  11.079
48088W        W15156  40.967  17.131   3.696
48089W        W15157  17.254  26.532   2.889
48090W        W15158   3.289   9.688   2.718
48091W        W15159  11.691  16.769  13.857
48092W        W15160   4.405  41.916  10.485
48093W        W15161  22.135  43.936   1.361
48094W        W15162   6.377  26.153   9.954
48095W        W15163   2.743  37.961   0.421
48096W        W15164  44.894  28.962  13.492
48097W        W15165  38.379  43.912  14.407
48098W        W15166  13.274  24.156  10.596
48099W        W15167  11.230  41.356  10.427
48100W        W15168  28.616  17.660  11.913
48101W        W15169  15.799   6.427   0.826
48102W        W15170  17.215  32.989  12.894
48103W        W15171   1.913   4.871   1.876
48104W        W15172  39.413  32.907   3.219
48105W        W15173  11.230  36.394   3.834
48106W        W15174   7.708  32.092   2.276
48107W        W15175  40.365  18.149  13.512
48108W        W15176  15.591  12.240  12.096
48109W        W15177  17.627  28.496  14.476
48110W        W15178  42.841  26.589   4.676
48111W        W15179   1.805  44.965  12.975
48112W        W15180  34.954   1.861   9.985
48113W        W15181  10.288  27.633   4.161
48114W        W15182  13.732  37.966   3.358
48115W        W15183  44.977  29.082  12.397
48116W        W15184   2.409  42.775   4.674
48117W        W15185  41.407   2.946   0.256
48118W        W15186  18.278  26.579   4.634
48119W        W15187   1.802  17.799  13.508
48120W        W15188  23.559  33.482   4.228
48121W        W15189  17.577  41.474  11.487
48122W        W15190   3.361  12.765   0.794
48123W        W15191  23.202  30.569  13.847
48124W        W15192  10.731  43.970  14.003
48125W        W15193  20.640  24.628  11.984
48126W        W15194  29.132  11.209  12.967
48127W        W15195  41.842  31.530   0.769
48128W        W15196   6.346  34.994  11.446
48129W        W15197  12.787  16.643   0.367
48130W        W15198  33.420  37.485  14.331
48131W        W15199   5.250  34.002   1.377
48132W        W15200  10.166   8.888   3.161
48133W        W15201   1.421   0.883  14.313
48134W        W15202  27.092  43.453  12.991
48135W        W15203  33.612  21.715   1.706
48136W        W15204  44.973  12.184   1.304
48137W        W15205  11.728  40.877  11.103
48138W        W15206  16.614  30.549   0.386
48139W        W15207   0.352  16.302   4.233
48140W        W15208  21.603  18.258   1.411
48141W        W15209   5.826  27.176  10.507
48142W        W15210  10.363   8.876  12.046
48143W        W15211  38.904   3.301   4.713
48144W        W15212  15.224  25.141  13.037
48145W        W15213   9.834  37.483   4.683
48146W        W15214  42.467  17.075   2.903
48147W        W15215  38.340  22.028  13.883
48148W        W15216  18.743  12.163   1.296
48149W        W15217  40.445  19.153   2.775
48150W        W15218  14.618  39.944  14.509
48151W        W15219  33.503  32.975   0.371
48152W        W15220  24.575  18.588  10.407
48153W        W15221   6.338  36.876   4.168
48154W        W15222   5.688  14.829  12.951
48155W        W15223   2.443  14.729   1.745
48156W        W15224  33.409   3.409   2.708
48157W        W15225  25.700   2.953  11.047
48158W        W15226  15.659  15.197  12.044
48159W        W15227  12.154  36.910  12.940
48160W        W15228  17.668  15.295   3.157
48161W        W15229  11.768  25.613  13.011
48162W        W15230   7.667   3.714  14.332
48163W        W15231  29.930   6.763  11.484
48164W        W15232  24.517  33.482  14.446
48165W        W15233  36.438   0.486  13.967
48166W        W15234  20.222   1.756   4.826
48167W        W15235  23.168   8.713  14.896
48168W        W15236  44.937  35.950   2.814
48169W        W15237  24.586  38.906  12.077
48170W        W15238  20.166  21.118  13.371
48171W        W15239  33.388  20.259  14.334
48172W        W15240  34.104   8.370  11.541
48173W        W15241  11.128  26.664  13.321
48174W        W15242  28.614  13.271   2.231
48175W        W15243  35.084   4.912   2.417
48176W        W15244  28.970  29.585   2.859
48177W        W15245  25.049  10.237  12.091
48178W        W15246  24.018  21.122  14.820
48179W        W15247  29.536  37.999   1.278
48180W        W15248  20.136   9.775   0.322
48181W        W15249  13.305  38.334  13.055
48182W        W15250  32.074  15.823  11.033
48183W        W15251  28.520  23.695  10.488
48184W        W15252  39.039   9.185  14.401
48185W        W15253  39.348   9.193   1.212
48186W        W15254  36.063   3.767   1.419
48187W        W15255  43.806  21.753  13.990
48188W        W15256  21.522  19.170   2.204
48189W        W15257  33.918   7.223   0.457
48190W        W15258   7.218  39.422  12.566
48191W        W15259  39.327  42.513  12.538
48192W        W15260  44.008   4.433   3.854
48193W        W15261  25.668   1.781  12.574
48194W        W15262  20.148  39.345  12.048
48195W        W15263   4.440   9.833   2.202
48196W        W15264  44.392  19.182   0.909
48197W        W15265  27.510  16.590   3.192
48198W        W15266  36.397  27.578   2.215
48199W        W15267  18.705  38.953   1.436
48200W        W15268  38.329  28.578   2.763
48201W        W15269  14.257   1.747  12.415
48202W        W15270   3.831  12.129  12.873
48203W        W15271  14.714  23.496   1.422
48204W        W15272  13.269   5.296   0.363
48205W        W15273  41.865  14.296   2.704
48206W        W15274   5.307  30.981  12.073
48207W        W15275  23.493  12.253   3.723
48208W        W15276  41.979  10.819  12.500
48209W        W15277   7.902  42.866  12.367
48210W        W15278  24.648  27.145   0.337
48211W        W15279  25.529  10.351  11.558
48212W        W15280  40.362  18.686  12.458
48213W        W15281  25.714  34.596  11.081
48214W        W15282  14.188   4.301   3.310
48215W        W15283  14.255  17.288   0.431
48216W        W15284   4.708  41.940   4.753
48217W        W15285   2.231  35.994  11.443
48218W        W15286  24.536  30.444   2.279
48219W        W15287  17.112  10.734   4.649
48220W        W15288  36.082  17.600  12.087
48221W        W15289   1.788  22.556   1.833
48222W        W15290  22.207  18.718   4.719
48223W        W15291  12.342  29.436  11.942
48224W        W15292  16.807  39.555   0.471
48225W        W15293  38.900  34.099   4.113
48226W        W15294   5.257  18.714   0.809
48227W        W15295  23.631  36.409  11.543
48228W        W15296   1.358  11.134   2.709
48229W        W15297  39.922  43.810  14.371
48230W        W15298  35.927  16.678  10.918
48231W        W15299  14.222   2.737   0.833
48232W        W15300  31.083  44.910  11.995
48233W        W15301  33.507  12.850  14.483
48234W        W15302  30.620  33.910   0.772
48235W        W15303  27.523  29.096   4.149
48236W        W15304  30.594   7.225  11.885
48237W        W15305  44.993   6.301   1.769
48238W        W15306  18.270  25.537   1.287
48239W        W15307   2.231  22.605  13.045
48240W        W15308  19.121  10.673   4.808
48241W        W15309  11.790  24.152   2.406
48242W        W15310  21.208  38.409  11.922
48243W        W15311  33.074   4.319  12.036
48244W        W15312  30.967  23.501   0.285
48245W        W15313  39.498  29.029  11.492
48246W        W15314  24.185  38.928  14.421
48247W        W15315  24.009   6.796   4.311
48248W        W15316  34.369  30.466   4.808
48249W        W15317  36.436   2.276   0.342
48250W        W15318  21.108  33.512  12.539
48251W        W15319  37.033  44.004   4.224
48252W        W15320   8.884   8.327   4.724
48253W        W15321  29.014  19.736   3.353
48254W        W15322   4.931  24.547   2.214
48255W        W15323  26.160  42.439  12.840
48256W        W15324  19.269  25.009   3.305
48257W        W15325  40.884  14.653   2.309
48258W        W15326  25.468   6.741   1.244
48259W        W15327  19.608  28.934   2.824
48260W        W15328   7.767  23.610   5.172
48261W        W15329   5.860  28.561   2.345
48262W        W15330   4.745  14.251   9.969
48263W        W15331  29.100   3.805   3.356
48264W        W15332   9.158   6.307   1.406
48265W        W15333  32.550  18.558   2.331
48266W        W15334  21.597  29.929  12.835
48267W        W15335  30.572  12.200   3.682
48268W        W15336  44.972  20.546  12.463
48269W        W15337  38.443   9.191   1.223
48270W        W15338  36.081  10.805  12.979
48271W        W15339  15.734  24.191  10.436
48272W        W15340  30.499   3.379  14.898
48273W        W15341  21.573  41.885   0.759
48274W        W15342  19.594  39.921  14.335
48275W        W15343   6.331  24.023  12.885
48276W        W15344  14.804   8.818   1.315
48277W        W15345  14.674  17.620   0.769
48278W        W15346   8.859   0.361  12.537
48279W        W15347  35.599  14.825  13.062
48280W        W15348  42.789   6.426   1.924
48281W        W15349  21.651  41.043   1.258
48282W        W15350  27.959   8.772   4.205
48283W        W15351   7.687  33.523   4.224
48284W        W15352  40.485  24.703   3.688
48285W        W15353  16.770  17.605   2.783
48286W        W15354   9.263   8.670  11.073
48287W        W15355   3.458  25.502   0.323
48288W        W15356  34.899   4.249  12.417
48289W        W15357  22.101  21.603  10.552
48290W        W15358  24.099  11.742   2.898
48291W        W15359  29.977  31.002   1.292
48292W        W15360  38.027  42.845  10.461
48293W        W15361  22.627  22.179  13.450
48294W        W15362  34.443  20.619  11.613
48295W        W15363  39.962  18.646  12.843
48296W        W15364  12.769  16.586  10.919
48297W        W15365  28.620  19.166  10.411
48298W        W15366  29.962  34.112  13.800
48299W        W15367  38.501  18.631   4.597
48300W        W15368  21.036  27.561   4.667
48301W        W15369  14.266  40.865   2.190
48302W        W15370  14.194   1.877   2.230
48303W        W15371  38.400  23.672  13.337
48304W        W15372   9.878  42.926   4.341
48305W        W15373   5.764  16.638   3.157
48306W        W15374  17.240   7.190  10.643
48307W        W15375  27.095  17.637   0.768
48308W        W15376  16.179   6.886  10.435
48309W        W15377  41.306   4.882  14.393
48310W        W15378  21.219  15.609   1.835
48311W        W15379  20.095  20.600  11.385
48312W        W15380  12.187  35.890   0.788
48313W        W15381  29.932  40.457  12.428
48314W        W15382  11.150  21.555   2.885
48315W        W15383  21.659  27.185  11.055
48316W        W15384  27.645  36.427  12.976
48317W        W15385  40.929  22.179  13.802
48318W        W15386  11.847   3.273  10.572
48319W        W15387  26.624  36.854  13.831
48320W        W15388   6.680   0.875   1.736
48321W        W15389   2.343  25.518  11.013
48322W        W15390  35.951  24.076  12.366
48323W        W15391   8.183  31.549  12.564
48324W        W15392   7.259   2.787   4.155
48325W        W15393   4.331  21.738  10.559
48326W        W15394   1.894  31.481  10.519
48327W        W15395  21.166   4.338   2.221
48328W        W15396  32.995  23.225  10.909
48329W        W15397  17.802  33.013  10.482
48330W        W15398   2.746  10.740   1.401
48331W        W15399  29.497  38.340  12.424
48332W        W15400  32.084  28.972  13.045
48333W        W15401  17.232  12.216  12.848
48334W        W15402  15.154  27.056  14.390
48335W        W15403   4.793  41.898   3.201
48336W        W15404   7.251  39.361   2.286
48337W        W15405  21.528  25.197  12.479
48338W        W15406   5.845  18.619   3.262
48339W        W15407  24.531  34.079  11.859
48340W        W15408  32.517  14.265   3.790
48341W        W15409  16.739  10.366   1.295
48342W        W15410  36.916  33.423  14.514
48343W        W15411   8.700  35.867   0.347
48344W        W15412   5.234  18.196   0.732
48345W        W15413  27.003   9.798  10.585
48346W        W15414  30.555  24.095  13.497
48347W        W15415  20.740  22.669  14.956
48348W        W15416  44.451  44.898   0.472
48349W        W15417   5.849   6.257  13.825
48350W        W15418  17.562  14.590  10.562
48351W        W15419  39.960  43.272  14.388
48352W        W15420  43.312   3.345   5.230
48353W        W15421  27.498  29.932   4.346
48354W        W15422   1.402  34.116  10.086
48355W        W15423  21.033  10.256   0.278
48356W        W15424  43.292  30.932  12.546
48357W        W15425   5.726  15.686   0.468
48358W        W15426   7.799   2.942  14.942
48359W        W15427  36.894  36.891   0.329
48360W        W15428  17.711  23.623  14.774
48361W        W15429  36.888  16.261  10.482
48362W        W15430   4.831  10.714  14.385
48363W        W15431  40.529   1.957  10.407
48364W        W15432  44.823  41.908   1.847
48365W        W15433  38.535  26.127  14.448
48366W        W15434  24.522   8.664  13.456
48367W        W15435  31.066  43.421   2.349
48368W        W15436  41.334  18.585   2.903
48369W        W15437  26.997  41.003   3.695
48370W        W15438  17.669   0.307   3.220
48371W        W15439   9.377  12.781  10.141
48372W        W15440  15.665  25.665  12.025
48373W        W15441  18.576   3.335  10.096
48374W        W15442  27.593  31.131  11.008
48375W        W15443   1.411   1.246   1.263
48376W        W15444  13.683   2.835   2.284
48377W        W15445   9.383  37.494  11.570
48378W        W15446  17.574   6.303   2.773
48379W        W15447  23.125  41.502  12.961
48380W        W15448  29.591  44.423  14.487
48381W        W15449  25.579  21.666   2.265
48382W        W15450  18.577  12.838   0.334
48383W        W15451  28.152   5.775  13.950
48384W        W15452  41.889  13.126   0.825
48385W        W15453  36.413  21.021  11.517
48386W        W15454  15.241  26.678  13.962
48387W        W15455  37.956  22.702  10.465
48388W        W15456  34.524   5.388   0.385
48389W        W15457  10.260  15.285   3.269
48390W        W15458  36.877   3.439   0.275
48391W        W15459  17.757  11.272   0.805
48392W        W15460  32.456  26.126   2.870
48393W        W15461  41.503  29.596  10.597
48394W        W15462  22.023  19.256   4.616
48395W        W15463  37.416   7.881   0.369
48396W        W15464  29.083  36.551   0.803
48397W        W15465   4.317  12.720   3.335
48398W        W15466  28.546  10.383   0.270
48399W        W15467  12.734  31.114  12.509
48400W        W15468  31.521   1.369   2.679
48401W        W15469  34.105   3.711   4.793
48402W        W15470  29.561  34.885   1.279
48403W        W15471  12.781  40.442  13.018
48404W        W15472  31.921  18.762   2.342
48405W        W15473  32.094  20.696   2.763
48406W        W15474  13.714  27.172   3.723
48407W        W15475   7.342  31.507  14.773
48408W        W15476  39.016  26.186   4.140
48409W        W15477   0.874  14.237  11.948
48410W        W15478  26.628   1.372   0.892
48411W        W15479   9.867  26.185  12.013
48412W        W15480  35.966  40.392  14.815
48413W        W15481  24.024  24.028  10.482
48414W        W15482  22.577  33.880   3.236
48415W        W15483   7.322   9.239  14.356
48416W        W15484  22.081  14.245   2.700
48417W        W15485  41.301  14.138   2.780
48418W        W15486  20.589  15.167  10.941
48419W        W15487  21.217  38.051   9.669
48420W        W15488  15.629  32.585   4.654
48421W        W15489  15.817  40.946  13.471
48422W        W15490  16.653  28.535   5.738
48423W        W15491  32.605  26.634  14.329
48424W        W15492  26.110   2.736   4.255
48425W        W15493  28.591  21.653  14.308
48426W        W15494  31.955  12.633  13.946
48427W        W15495  35.909  42.430  11.043
48428W        W15496  39.367  34.451   4.687
48429W        W15497  27.543  41.318   1.832
48430W        W15498  12.855  11.635   1.922
48431W        W15499  16.213  22.550  12.842
48432W        W15500  14.603  28.939   4.722
48433W        W15501  18.674   4.316   1.254
48434W        W15502   6.748  37.063  10.989
48435W        W15503  41.301  30.134   3.862
48436W        W15504  40.468  40.354   4.756
48437W        W15505  37.967  27.501  13.968
48438W        W15506  34.901  11.222   1.306
48439W        W15507   9.183  23.036   3.729
48440W        W15508  21.131  42.506   3.855
48441W        W15509   7.704  41.332  10.509
48442W        W15510  43.320  27.619  11.535
48443W        W15511  10.852  38.041   4.619
48444W        W15512  11.721  41.524  13.481
48445W        W15513  39.936  23.009  11.034
48446W        W15514  44.870  37.876   4.720
48447W        W15515  19.132  35.910   2.214
48448W        W15516  39.489  12.334   2.393
48449W        W15517  28.123   1.469   0.837
48450W        W15518  15.242   3.232  11.411
48451W        W15519  30.065  28.986  14.395
48452W        W15520  34.936  14.815   3.162
48453W        W15521  43.929   4.901   4.213
48454W        W15522  41.520  27.635  11.872
48455W        W15523   0.260  21.746  13.507
48456W        W15524  20.532  25.564   4.286
48457W        W15525  39.549  23.607   4.259
48458W        W15526   0.489  37.970   2.377
48459W        W15527  33.445  22.059  12.541
48460W        W15528  30.071  40.423  10.457
48461W        W15529  38.886  37.372   1.863
48462W        W15530   2.363  42.502   4.301
48463W        W15531  35.543  37.017   4.226
48464W        W15532  13.307   2.827  13.364
48465W        W15533  34.537  30.466   1.782
48466W        W15534   7.299  29.627   4.287
48467W        W15535  43.011   7.198  11.481
48468W        W15536  41.362  44.259   3.185
48469W        W15537  32.437  20.564  11.445
48470W        W15538   3.229  23.536  13.329
48471W        W15539   9.706  36.093  11.524
48472W        W15540  11.817  17.140  12.918
48473W        W15541  17.064  11.688   3.297
48474W        W15542  17.675  27.491  14.469
48475W        W15543   3.741   8.342   1.321
48476W        W15544  15.658  15.682  11.469
48477W        W15545  38.505   8.321   0.426
48478W        W15546  44.820  22.173  10.616
48479W        W15547  37.377  12.672   1.710
48480W        W15548  38.342  19.222   0.937
48481W        W15549  27.006   6.885  14.950
48482W        W15550  18.787  35.870  13.045
48483W        W15551  42.508  28.027   4.217
48484W        W15552  26.172   4.382  11.856
48485W        W15553   0.769  27.996   4.347
48486W        W15554  28.463  34.452  12.899
48487W        W15555  12.220   2.948  13.380
48488W        W15556  13.113   3.243  10.595
48489W        W15557  43.791  11.140  10.941
48490W        W15558  33.906  27.511  13.964
48491W        W15559   7.883  44.314  13.844
48492W        W15560  39.058  42.488  10.102
48493W        W15561  21.703  13.258   1.913
48494W        W15562  28.618   8.299  14.931
48495W        W15563  11.636   4.362   4.287
48496W        W15564  17.581  41.460  11.033
48497W        W15565  38.865   6.804  12.072
48498W        W15566  19.667  11.675  12.361
48499W        W15567   6.426  38.539  13.367
48500W        W15568  30.069   6.755  13.539
48501W        W15569   5.217   3.451   0.740
48502W        W15570  20.591  44.493   0.761
48503W        W15571   8.177  30.127  11.947
48504W        W15572  31.046  24.167   1.451
48505W        W15573   5.904  20.087  13.830
48506W        W15574   0.909  24.518  12.367
48507W        W15575   2.816   8.814  12.381
48508W        W15576  30.445  41.879  10.410
48509W        W15577  28.533  27.494   3.650
48510W        W15578  17.724   8.831  13.010
48511W        W15579  35.908  13.607  14.468
48512W        W15580  20.185   9.759   1.894
48513W        W15581  22.154  44.339   3.771
48514W        W15582   9.220   6.294  12.863
48515W        W15583  22.551  15.635   2.871
48516W        W15584  35.458  11.346  11.987
48517W        W15585   1.464  11.201  13.449
48518W        W15586  11.740   8.227   4.320
48519W        W15587  25.179  37.453   3.706
48520W        W15588  38.376   5.895   3.360
48521W        W15589   1.848  17.149  12.851
48522W        W15590  42.361  44.475   4.727
48523W        W15591  38.846  11.863   5.179
48524W        W15592   2.833  39.547   0.781
48525W        W15593  16.630  23.676   4.164
48526W        W15594  12.615  13.143  13.495
48527W        W15595   6.283  28.160  11.570
48528W        W15596  20.194  38.850  12.473
48529W        W15597   1.400  10.194  12.549
48530W        W15598  33.587  29.583  12.562
48531W        W15599   9.325  31.000   1.835
48532W        W15600  39.332  19.733  13.381
48533W        W15601  18.072  11.295  13.502
48534W        W15602  13.333  17.727  10.562
48535W        W15603  10.641   4.299   2.233
48536W        W15604  30.979  37.942  13.988
48537W        W15605  27.167   0.458   4.793
48538W        W15606  36.397  26.675   0.322
48539W        W15607  17.754  12.682  13.401
48540W        W15608  14.765  37.939  11.974
48541W        W15609  44.878  36.008  12.988
48542W        W15610  39.026  14.831   4.181
48543W        W15611  11.274  20.211  12.938
48544W        W15612  21.112  32.047  12.387
48545W        W15613  21.242   6.902  14.280
48546W        W15614  27.613  24.064   0.820
48547W        W15615  25.638  32.916  14.515
48548W        W15616  16.165  40.468   4.182
48549W        W15617  20.534  39.453   3.379
48550W        W15618  23.141  17.150  14.760
48551W        W15619   4.783  15.206  12.971
48552W        W15620  36.375  23.242  14.298
48553W        W15621  27.103  38.544   4.704
48554W        W15622  29.103   0.889  12.026
48555W        W15623  36.560  17.259  11.896
48556W        W15624  18.694  15.712   3.172
48557W        W15625  19.593  15.153   1.747
48558W        W15626  25.120   6.683  13.942
48559W        W15627  40.999  21.625   3.208
48560W        W15628  21.676   5.261  14.398
48561W        W15629   1.447  32.918  14.978
48562W        W15630   9.304  22.627  11.091
48563W        W15631  36.404   5.316  13.857
48564W        W15632  32.951  43.869  11.531
48565W        W15633  15.148  11.147  11.077
48566W        W15634  38.340  21.130  13.481
48567W        W15635   3.880  17.720   4.140
48568W        W15636  44.344  15.312  12.827
48569W        W15637  33.019  15.131   1.414
48570W        W15638  24.681  20.589  13.854
48571W        W15639  28.574  16.753  11.563
48572W        W15640  23.671   3.253   2.737
48573W        W15641   0.932  28.502  12.894
48574W        W15642  23.004  26.596  11.373
48575W        W15643  17.618  38.886   2.860
48576W        W15644  42.984  16.573   1.336
48577W        W15645  18.721  28.990   3.193
48578W        W15646  33.495  13.689   2.224
48579W        W15647  23.562   7.310   2.339
48580W        W15648  34.023  23.695   3.283
48581W        W15649  44.815  44.894   0.845
48582W        W15650  15.217  30.933  11.089
48583W        W15651   4.290  19.207  10.966
48584W        W15652   4.342  41.985   3.254
48585W        W15653  23.222   9.801   2.220
48586W        W15654  13.163   0.987   4.732
48587W        W15655   1.439   6.237   0.883
48588W        W15656   7.302   8.665  10.642
48589W        W15657  21.262  31.898   3.254
48590W        W15658  29.082   4.901   3.288
48591W        W15659   3.384  28.079   2.782
48592W        W15660  42.779  16.137  12.022
48593W        W15661  29.621   2.248  13.893
48594W        W15662  28.114  24.516  10.640
48595W        W15663   9.228  19.624  12.868
48596W        W15664   4.394   6.353  14.946
48597W        W15665  22.711  16.690  10.546
48598W        W15666  41.836  15.163  13.525
48599W        W15667   1.384   5.219  13.405
48600W        W15668  27.489  39.518   4.190
48601W        W15669   7.875  15.634  14.816
48602W        W15670  33.495   3.823   3.669
48603W        W15671  14.773  12.825   2.748
48604W        W15672  43.961   3.315  14.941
48605W        W15673  34.519  13.162  13.890
48606W        W15674   5.400  37.336  14.373
48607W        W15675  26.121  10.793   4.677
48608W        W15676  15.251  29.919   4.271
48609W        W15677  25.098  30.094  13.479
48610W        W15678  19.264  23.720   1.293
48611W        W15679  11.656  28.175   4.710
48612W        W15680  35.008   3.344   0.860
48613W        W15681  42.500   1.874  12.466
48614W        W15682  11.191  28.078   0.392
48615W        W15683   6.275  11.843   5.215
48616W        W15684   1.322  34.921   3.161
48617W        W15685  32.618  27.069  12.863
48618W        W15686  17.570   4.439   1.797
48619W        W15687  31.896  32.131  12.425
48620W        W15688  10.333  42.321   1.730
48621W        W15689   7.204  35.421   1.807
48622W        W15690  40.367  36.898   1.818
48623W        W15691  37.342  29.461   1.768
48624W        W15692  16.736  21.258   0.802
48625W        W15693  35.442  16.217  13.356
48626W        W15694  39.878  40.901   4.272
48627W        W15695  43.409  10.754  12.089
48628W        W15696  38.528  10.786   0.904
48629W        W15697  11.659  35.033  12.457
48630W        W15698  42.325  43.966   1.762
48631W        W15699  35.521  40.818   0.958
48632W        W15700   1.286  28.121  14.017
48633W        W15701  43.401  30.153  13.431
48634W        W15702  26.111  39.061   3.843
48635W        W15703   3.900   8.405   4.804
48636W        W15704  41.856   7.255  13.420
48637W        W15705  34.008  11.689   3.763
48638W        W15706   8.295  39.020  10.488
48639W        W15707  12.208  20.156  10.921
48640W        W15708  12.799  44.387  13.846
48641W        W15709  31.098  13.288   4.257
48642W        W15710   8.879  24.096  13.999
48643W        W15711  31.038  15.742  10.986
48644W        W15712  10.149  25.495  10.932
48645W        W15713  30.426  21.664   1.377
48646W        W15714  15.147   1.972   1.770
48647W        W15715  32.971  11.820  10.633
48648W        W15716  43.423  28.167   2.725
48649W        W15717  28.625   8.269  14.280
48650W        W15718  41.855  29.001   0.376
48651W        W15719   1.440   4.311   2.258
48652W        W15720  31.511  22.182   1.911
48653W        W15721  14.676  39.333   2.749
48654W        W15722  19.772  35.594   1.444
48655W        W15723  12.791   4.293  13.308
48656W        W15724  41.910  25.492   1.251
48657W        W15725  13.671   0.402  12.027
48658W        W15726  16.278  33.051  13.937
48659W        W15727  23.031  10.833   2.815
48660W        W15728  14.196  20.044   3.325
48661W        W15729  29.502   7.326  12.404
48662W        W15730   1.943   1.910  11.396
48663W        W15731  33.080  39.947   1.695
48664W        W15732  42.416  14.658  12.565
48665W        W15733  30.985  41.909  14.992
48666W        W15734  17.110   9.656  14.463
48667W        W15735  15.578  26.133  10.029
48668W        W15736   9.380  19.093   9.617
48669W        W15737   0.462  29.519   4.816
48670W        W15738  18.661  29.971   0.474
48671W        W15739  23.231   4.888  12.442
48672W        W15740  38.485  29.603   1.402
48673W        W15741  42.365  31.146   1.341
48674W        W15742  30.621  43.818  11.008
48675W        W15743   3.872  20.767  14.799
48676W        W15744  29.455  21.105  14.375
48677W        W15745  31.132  17.556  10.462
48678W        W15746   5.817  40.995   2.685
48679W        W15747  31.645  18.683  14.828
48680W        W15748  31.005  44.421   3.274
48681W        W15749  11.794   5.432  12.528
48682W        W15750   3.268  41.953   2.671
48683W        W15751  22.699  22.176  11.079
48684W        W15752  21.072  25.970  14.877
48685W        W15753  43.303  43.488  10.976
48686W        W15754  13.701  23.616  14.856
48687W        W15755   8.249  19.774  14.803
48688W        W15756  28.647   0.459   3.785
48689W        W15757  40.869   1.862   3.738
48690W        W15758   1.408   3.298  12.354
48691W        W15759   3.278  13.799  13.986
48692W        W15760   2.465  11.179   0.393
48693W        W15761  25.554  16.092  10.441
48694W        W15762  43.900   2.376   3.232
48695W        W15763  17.232  41.966  11.419
48696W        W15764  16.242  25.000  13.985
48697W        W15765  22.597  42.797   3.777
48698W        W15766  18.182  40.856   3.657
48699W        W15767  43.292  13.254   2.392
48700W        W15768  18.773  17.075   4.811
48701W        W15769  31.594  13.129   4.330
48702W        W15770   0.758  11.789  12.575
48703W        W15771  26.187  20.089   3.769
48704W        W15772  30.583  41.025  11.410
48705W        W15773  15.146  44.978   4.191
48706W        W15774   3.917  41.035  11.557
48707W        W15775   6.681  10.227   0.349
48708W        W15776  25.030   8.692  11.968
48709W        W15777  38.546  31.496  13.530
48710W        W15778  16.794  12.266  13.835
48711W        W15779  32.003  29.155  10.641
48712W        W15780  23.178   2.392  14.369
48713W        W15781  10.673  15.738  14.430
48714W        W15782  28.065  35.925   2.272
48715W        W15783  24.094   2.827  12.541
48716W        W15784  16.238  20.205  11.416
48717W        W15785  34.375  29.430   1.888
48718W        W15786  44.274  40.820   0.942
48719W        W15787  35.980  13.826  14.920
48720W        W15788  24.976  17.573  14.405
48721W        W15789   0.488  20.701   4.608
48722W        W15790  29.426  33.517  14.448
48723W        W15791   6.886  37.855   0.344
48724W        W15792  24.220  23.672   0.893
48725W        W15793  21.147  37.044  14.907
48726W        W15794  42.318   1.870  11.079
48727W        W15795  22.995  21.607  11.004
48728W        W15796  34.071  43.479   3.728
48729W        W15797   1.279  15.612   1.810
48730W        W15798  22.118   3.308   4.623
48731W        W15799  34.952   3.358   1.850
48732W        W15800  26.546  32.523  13.498
48733W        W15801  35.532   7.306   4.120
48734W        W15802  38.545  19.648   1.694
48735W        W15803  18.571  16.111  14.836
48736W        W15804  15.317  26.541   4.694
48737W        W15805  11.236  44.780  12.891
48738W        W15806   6.366  32.597   4.216
48739W        W15807  23.641  44.418  11.061
48740W        W15808  15.288  44.910   1.834
48741W        W15809  36.515  16.791   0.331
48742W        W15810   7.346  32.073   1.901
48743W        W15811  12.304  20.166   3.663
48744W        W15812  39.934   5.731   0.344
48745W        W15813   4.817  40.396   2.680
48746W        W15814  26.163   5.800   0.832
48747W        W15815  16.653   0.337   0.962
48748W        W15816  28.081   4.760   1.921
48749W        W15817  20.237  39.911  13.378
48750W        W15818  32.573  38.832  12.002
48751W        W15819  44.455  13.696   5.164
48752W        W15820  30.014  13.838   0.945
48753W        W15821  18.709  29.026   0.473
48754W        W15822  11.185  40.991  13.881
48755W        W15823  30.983   4.812  12.500
48756W        W15824  36.506  42.527  13.798
48757W        W15825  16.757  35.944   0.753
48758W        W15826  14.118  11.281   4.303
48759W        W15827  12.738  19.188  12.077
48760W        W15828  41.899  35.433   0.926
48761W        W15829   0.859  41.863   4.202
48762W        W15830  15.123  35.481   0.380
48763W        W15831  18.114  32.112  14.448
48764W        W15832  41.523  26.114   0.903
48765W        W15833  43.309   7.838  11.570
48766W        W15834  11.206  37.545   1.341
48767W        W15835  14.742   3.426   1.442
48768W        W15836  11.347  11.259  14.986
48769W        W15837  35.994  41.936  11.090
48770W        W15838  22.214  17.115  11.569
48771W        W15839  18.121   7.772   0.900
48772W        W15840  34.484   5.700   4.294
48773W        W15841  26.560  11.205  10.905
48774W        W15842  35.451  22.728   1.238
48775W        W15843  34.033   6.386  11.482
48776W        W15844  20.752  40.853  14.838
48777W        W15845  14.659  18.736   5.121
48778W        W15846  41.889  44.009  14.982
48779W        W15847  20.166  21.060   0.374
48780W        W15848  44.824  24.639   0.828
48781W        W15849  21.716   9.203  13.908
48782W        W15850  36.896   6.208  13.905
48783W        W15851  20.655   3.816   0.785
48784W        W15852  23.621  37.033   4.272
48785W        W15853   6.312  35.065  13.914
48786W        W15854  12.206  40.942  13.325
48787W        W15855  18.610   1.736  13.815
48788W        W15856  24.099  28.045  13.007
48789W        W15857  44.448  30.564   2.373
48790W        W15858  12.224   3.929  14.286
48791W        W15859  21.047   3.829  11.475
48792W        W15860  41.433   1.918  12.846
48793W        W15861  29.587  18.759  13.815
48794W        W15862  37.370  38.524  11.981
48795W        W15863  23.030  24.645  10.584
48796W        W15864  34.589  40.992  14.910
48797W        W15865  41.826  38.549  14.307
48798W        W15866  18.663  42.953   3.726
48799W        W15867   7.347  11.858  12.545
48800W        W15868  28.616   3.779   3.230
48801W        W15869  37.912  10.163  13.794
48802W        W15870  17.651  24.632   1.931
48803W        W15871  22.525  11.748  11.430
48804W        W15872  23.103  27.117   1.272
48805W        W15873  41.333   3.891   2.387
48806W        W15874  19.281  34.001   0.334
48807W        W15875  11.646  12.244  10.907
48808W        W15876  17.647   3.290  12.423
48809W        W15877   6.771  22.589   1.733
48810W        W15878   4.292  33.093   3.860
48811W        W15879  42.886   9.673   4.118
48812W        W15880  27.622  29.659   0.474
48813W        W15881  30.638   7.257  10.518
48814W        W15882   8.654  15.283  11.420
48815W        W15883  34.931  43.333  13.878
48816W        W15884  11.800  11.178   1.750
48817W        W15885   4.771  41.339   1.933
48818W        W15886   4.294  38.570   1.428
48819W        W15887  37.426  11.344  13.423
48820W        W15888  16.122  13.275  13.052
48821W        W15889  27.671  27.994   0.900
48822W        W15890  44.370  34.096  12.938
48823W        W15891  18.155   4.754   2.201
48824W        W15892   8.354  39.062  14.824
48825W        W15893   0.927  21.252   4.148
48826W        W15894  42.401  34.873   1.904
48827W        W15895  43.291   9.163  11.883
48828W        W15896  29.965  29.993  14.847
48829W        W15897   7.278  22.571   3.196
48830W        W15898  32.067  35.032   2.902
48831W        W15899  32.018  31.088  14.825
48832W        W15900   0.403  41.413  13.873
48833W        W15901  21.249  26.671  14.486
48834W        W15902  13.812  30.071   1.250
48835W        W15903   7.836   8.893  11.117
48836W        W15904  22.524  39.395   4.248
48837W        W15905  37.361  36.928  12.063
48838W        W15906   8.397  19.221  12.465
48839W        W15907  41.398  28.000  13.333
48840W        W15908  36.916  16.587  10.494
48841W        W15909  29.574  40.942   1.842
48842W        W15910  33.512   0.254  11.093
48843W        W15911  38.006  13.225   1.901
48844W        W15912   0.936  14.822   0.393
48845W        W15913   8.183  38.407  13.848
48846W        W15914   1.308  38.842   1.370
48847W        W15915   2.391  21.231  11.129
48848W        W15916  33.606  42.917  10.932
48849W        W15917  15.121  21.086  10.919
48850W        W15918  30.651  39.868   3.682
48851W        W15919  38.546  35.889   0.282
48852W        W15920  38.537  38.872  12.404
48853W        W15921   3.758  14.336  10.425
48854W        W15922  31.535  20.601   4.294
48855W        W15923  39.509  30.057  12.991
48856W        W15924  18.280  15.281   2.402
48857W        W15925   0.838  32.543   2.320
48858W        W15926  19.218  32.132   4.345
48859W        W15927  31.431  11.329   3.671
48860W        W15928   6.901  24.626   3.325
48861W        W15929   2.818  40.432   4.253
48862W        W15930   4.434  15.187   1.772
48863W        W15931  25.024  33.062   4.832
48864W        W15932   5.289  34.991   3.301
48865W        W15933  18.196  19.685  12.097
48866W        W15934  37.082   2.397   2.685
48867W        W15935  13.684   2.441   0.888
48868W        W15936  36.923  16.694  14.990
48869W        W15937  44.260  37.958   3.218
48870W        W15938  29.627  16.783   4.278
48871W        W15939  15.117  13.207   1.852
48872W        W15940  15.778  18.096   3.635
48873W        W15941   3.401   4.447  13.515
48874W        W15942  18.100  23.213   4.212
48875W        W15943  29.114  26.699  11.946
48876W        W15944  21.092  15.085   4.311
48877W        W15945  22.201   9.708  12.051
48878W        W15946   3.364  11.691   3.243
48879W        W15947  27.075  42.806  11.004
48880W        W15948  25.988  39.877   2.900
48881W        W15949  28.027  42.373  14.012
48882W        W15950  15.593  22.074   3.354
48883W        W15951  23.153  41.974   2.196
48884W        W15952   8.270  17.688   0.733
48885W        W15953  44.910  43.817  14.860
48886W        W15954  36.925   8.672  12.086
48887W        W15955  27.576  25.986  12.448
48888W        W15956  22.698   1.795  14.393
48889W        W15957  20.049  11.237  14.003
48890W        W15958   5.226  30.490   1.412
48891W        W15959  13.661  20.204   3.741
48892W        W15960  23.630   7.803   0.333
48893W        W15961  21.240  16.757  14.296
48894W        W15962   7.688  37.939  10.526
48895W        W15963  42.941  28.980  12.942
48896W        W15964  13.117   8.174   4.720
48897W        W15965  16.281   4.405   0.776
48898W        W15966  22.643  21.033   3.227
48899W        W15967  32.516   3.825  12.412
48900W        W15968  32.131  23.548   2.364
48901W        W15969   4.294  27.631  14.363
48902W        W15970   4.753   8.171   0.887
48903W        W15971  39.866  23.197  12.078
48904W        W15972  29.146  26.112  12.976
48905W        W15973  32.127   7.675   0.289
48906W        W15974  21.179  22.111  14.821
48907W        W15975  32.549  28.995   0.464
48908W        W15976   1.401  43.293   0.779
48909W        W15977  38.850  25.023   1.367
48910W        W15978   0.787  14.228  12.471
48911W        W15979  43.282  40.444   4.137
48912W        W15980  31.009   9.195   2.187
48913W        W15981  35.042  39.479   2.725
48914W        W15982  28.165   6.767   3.792
48915W        W15983   5.311   7.325   0.952
48916W        W15984  43.362  33.893   3.216
48917W        W15985  33.942   6.428  13.799
48918W        W15986  39.402  29.644   1.697
48919W        W15987  14.716  41.366   4.220
48920W        W15988  21.587   3.925  10.921
48921W        W15989  16.283  14.096  12.023
48922W        W15990  44.363  37.435  12.519
48923W        W15991   3.446   3.426   4.294
48924W        W15992  41.420   2.953   4.338
48925W        W15993  35.069  43.495   0.472
48926W        W15994  32.048  33.587  12.083
48927W        W15995  38.333  31.948  11.861
48928W        W15996  12.699  41.393   1.899
48929W        W15997  42.823  39.911   4.140
48930W        W15998   3.856  19.283   3.336
48931W        W15999   6.282  29.507  12.531
48932W        W16000  29.984  27.449   3.655
48933W        W16001  17.253   4.831  11.967
48934W        W16002  30.418  22.670   4.125
48935W        W16003  36.932  30.567  14.453
48936W        W16004  44.775  14.704  12.904
48937W        W16005  31.904  33.499   3.728
48938W        W16006  41.000  18.756  12.904
48939W        W16007  14.276   0.831   3.718
48940W        W16008  29.931  25.138   4.297
48941W        W16009  25.711   2.273  13.961
48942W        W16010  29.654  29.496  11.029
48943W        W16011  28.516  39.062   3.190
48944W        W16012   2.251  40.351   1.298
48945W        W16013  37.404   9.373  14.387
48946W        W16014  18.745   3.300   0.430
48947W        W16015  21.622   6.923  14.972
48948W        W16016  16.759  33.083   1.274
48949W        W16017   4.235  23.151   3.386
48950W        W16018  36.445  10.878   1.895
48951W        W16019  15.802  44.916  11.016
48952W        W16020  11.680  40.928   4.682
48953W        W16021  31.016  33.614  14.430
48954W        W16022  34.052  30.570   3.630
48955W        W16023  42.849  20.060  11.948
48956W        W16024  35.518   4.321  12.914
48957W        W16025  41.803  38.850   4.305
48958W        W16026  11.682  34.971   0.782
48959W        W16027  43.400  38.897   3.249
48960W        W16028   5.328  26.958   3.826
48961W        W16029   8.778  27.672   1.804
48962W        W16030  42.376  40.505   0.289
48963W        W16031  20.755  39.505  13.962
48964W        W16032  24.638  22.016   2.186
48965W        W16033  43.971  37.890  11.960
48966W        W16034  40.442  30.475   2.232
48967W        W16035  15.229  21.128  13.342
48968W        W16036  20.589  37.991   3.263
48969W        W16037  40.877  31.064   1.276
48970W        W16038   9.700  14.231   0.274
48971W        W16039   4.307   7.707  11.440
48972W        W16040  11.304  12.761   1.840
48973W        W16041  26.188  25.587  12.019
48974W        W16042  32.066  18.053  11.889
48975W        W16043   7.271  21.048   1.901
48976W        W16044  16.195  15.585  13.539
48977W        W16045  24.978  28.512   1.386
48978W        W16046  28.615  24.110  13.328
48979W        W16047   4.797  32.447  13.964
48980W        W16048  23.111  19.652  11.539
48981W        W16049  30.444  44.816   3.352
48982W        W16050  24.671   1.934  14.945
48983W        W16051  29.633  38.019  11.015
48984W        W16052   1.733  20.695  14.762
48985W        W16053  13.750  19.121   0.258
48986W        W16054  20.580   7.381  11.893
48987W        W16055  41.517  34.540   3.789
48988W        W16056  41.353  10.809   3.817
48989W        W16057  27.454  28.070   1.391
48990W        W16058  40.541  21.610  13.470
48991W        W16059  39.385  31.421  10.637
48992W        W16060  30.596  11.182   1.367
48993W        W16061  23.011  26.059   2.275
48994W        W16062  25.122   0.915  10.473
48995W        W16063  11.186  39.035  10.993
48996W        W16064   7.203  19.601   0.403
48997W        W16065  25.063  29.499   3.342
48998W        W16066  34.094  38.905  12.968
48999W        W16067  24.494  11.711  14.449
49000W        W16068  20.680  33.048  10.453
49001W        W16069  42.881  43.390   1.429
49002W        W16070  26.971  41.990   3.371
49003W        W16071   9.191  27.187  14.820
49004W        W16072  20.086  36.425   2.395
49005W        W16073  41.960  10.248  13.880
49006W        W16074  35.884  26.628   1.732
49007W        W16075   6.811  31.922   2.720
49008W        W16076  25.567  19.065  14.506
49009W        W16077  26.488   1.462  11.097
49010W        W16078  25.128  28.105  12.017
49011W        W16079  20.732   0.453   1.274
49012W        W16080  30.079  43.966  13.878
49013W        W16081  12.235   8.779  12.374
49014W        W16082  42.462  12.325  12.024
49015W        W16083  15.685  29.977   4.669
49016W        W16084  10.176  25.113  11.514
49017W        W16085   3.779  15.257   4.746
49018W        W16086  28.038   9.644   2.282
49019W        W16087  27.042  31.442   4.181
49020W        W16088  43.344  39.507  13.439
49021W        W16089   8.233  37.401   4.122
49022W        W16090   2.815  44.005  11.468
49023W        W16091  13.681  10.800  14.945
49024W        W16092  17.583   5.757   1.726
49025W        W16093  32.424  27.454   4.284
49026W        W16094  15.786  37.484  13.980
49027W        W16095  17.653  16.804   1.450
49028W        W16096  33.486   6.338  12.076
49029W        W16097  37.362  15.630   1.430
49030W        W16098  30.145  13.277  10.115
49031W        W16099  30.652  21.638  11.035
49032W        W16100  40.398  31.030   4.680
49033W        W16101  12.337  35.036  11.868
49034W        W16102   1.304  17.609   1.778
49035W        W16103  22.196  29.460  10.454
49036W        W16104  35.058  15.281   2.304
49037W        W16105  37.408  43.832   1.864
49038W        W16106  22.547  36.359   4.674
49039W        W16107   4.880  43.855   1.218
49040W        W16108  20.602  27.099   2.716
49041W        W16109  11.796  14.304   2.813
49042W        W16110  18.068  41.875   1.910
49043W        W16111  31.457  43.401  10.977
49044W        W16112  17.082  38.437   3.377
49045W        W16113  16.309  37.473  10.608
49046W        W16114   9.685  43.863   2.282
49047W        W16115  10.867  32.624  12.969
49048W        W16116  40.983  32.999   3.196
49049W        W16117   3.886  21.031  14.965
49050W        W16118  43.422   2.361   0.453
49051W        W16119  43.361  24.015   4.622
49052W        W16120  23.043   3.406  11.416
49053W        W16121  18.675  23.586  13.506
49054W        W16122  33.510  25.185  12.846
49055W        W16123   0.877  15.217  12.869
49056W        W16124  23.018  16.188   3.233
49057W        W16125  14.279  15.795   1.772
49058W        W16126   4.398  21.621  11.489
49059W        W16127  36.366  39.885  12.058
49060W        W16128  28.536  25.995  12.055
49061W        W16129  40.998  32.519   2.196
49062W        W16130  25.711  31.008   3.154
49063W        W16131   9.302  25.620   1.841
49064W        W16132  25.018  10.148   3.213
49065W        W16133  19.712  38.006   3.692
49066W        W16134  38.002  38.473  13.471
49067W        W16135  26.049  23.178   4.295
49068W        W16136  26.462  44.353  14.857
49069W        W16137  37.458   5.222   3.177
49070W        W16138  39.494  18.660   2.318
49071W        W16139   7.255  29.039   1.440
49072W        W16140  13.167   3.768  11.444
49073W        W16141  11.243   4.398   1.910
49074W        W16142  33.393  19.279   0.841
49075W        W16143  13.312  39.848  11.919
49076W        W16144  41.335  44.837  12.434
49077W        W16145  17.256  36.883  13.361
49078W        W16146   9.269  35.567  11.957
49079W        W16147  35.478  36.476   0.935
49080W        W16148  22.109  19.775  11.458
49081W        W16149  39.046  23.168   0.758
49082W        W16150  27.670   2.797   0.947
49083W        W16151   6.750   9.333   3.816
49084W        W16152  10.705  32.075  14.332
49085W        W16153  29.475  25.987  13.998
49086W        W16154  18.698  29.540   4.815
49087W        W16155  25.564   2.728   0.904
49088W        W16156  38.413  41.414   4.743
49089W        W16157  24.093  19.682  12.530
49090W        W16158  37.569  24.526   3.328
49091W        W16159  15.278  11.855   0.362
49092W        W16160  21.680  17.156   4.156
49093W        W16161  18.092   1.255  11.872
49094W        W16162  42.353  43.283  10.598
49095W        W16163   4.937  28.039  10.431
49096W        W16164  11.346  20.066   4.823
49097W        W16165   1.384   0.868  11.125
49098W        W16166   0.776   7.703   5.182
49099W        W16167  39.329  44.505   0.454
49100W        W16168  37.418  26.622   3.382
49101W        W16169  11.658  12.652   0.427
49102W        W16170  25.543  39.002  12.551
49103W        W16171  27.121  31.638  13.359
49104W        W16172  25.196   4.419   0.251
49105W        W16173   5.730  25.618   1.802
49106W        W16174  31.415   4.749  11.536
49107W        W16175  36.497  24.178   1.829
49108W        W16176   1.295  23.641   1.212
49109W        W16177   0.895  26.120  13.459
49110W        W16178  34.934  25.484  10.908
49111W        W16179  40.815  26.999  12.891
49112W        W16180   6.907  43.445   1.390
49113W        W16181  44.431  12.168  12.840
49114W        W16182  42.936   1.439  11.055
49115W        W16183  42.786  10.324  14.371
49116W        W16184  39.318  28.068   3.672
49117W        W16185  25.558  26.661  11.121
49118W        W16186  29.436  22.021   0.755
49119W        W16187   7.675  40.445   3.670
49120W        W16188  34.498  37.477  10.625
49121W        W16189  10.144  32.046  14.013
49122W        W16190   2.340  27.959  11.944
49123W        W16191  28.031  20.622  10.946
49124W        W16192  12.713  12.832  12.475
49125W        W16193   9.174   7.708  11.008
49126W        W16194  18.177  35.999   4.678
49127W        W16195  12.646   0.386  14.814
49128W        W16196  18.621  28.079  12.385
49129W        W16197  32.464  37.919   3.317
49130W        W16198  30.455  41.358   2.677
49131W        W16199  27.963  21.211   2.861
49132W        W16200  44.277  38.403  12.393
49133W        W16201  23.199   3.788  13.032
49134W        W16202  18.553   5.789   1.337
49135W        W16203  24.058   7.192   3.325
49136W        W16204   5.917   1.244   4.134
49137W        W16205  28.669  19.101  11.881
49138W        W16206  21.516   0.479  14.312
49139W        W16207   0.926  36.961  10.440
49140W        W16208  28.158  13.601  13.472
49141W        W16209  42.930  27.610   1.761
49142W        W16210  39.817  37.899  11.879
49143W        W16211  27.691  19.065   4.290
49144W        W16212  33.129   7.388  10.476
49145W        W16213  35.075  31.440  11.583
49146W        W16214  20.707  19.159  12.547
49147W        W16215  40.913  10.851  12.989
49148W        W16216  16.743  20.152  13.810
49149W        W16217  12.248   3.301  11.094
49150W        W16218  20.534  41.983  12.912
49151W        W16219  10.842  44.003   9.577
49152W        W16220  17.213  44.268   1.910
49153W        W16221  39.559   0.333  13.311
49154W        W16222  10.760  10.788   0.253
49155W        W16223  18.608  21.079   1.290
49156W        W16224   1.317  12.238   4.645
49157W        W16225  12.122  19.255  14.484
49158W        W16226  37.379  22.141   2.369
49159W        W16227   2.827  31.066   0.935
49160W        W16228   2.322   7.189  10.996
49161W        W16229   9.659  18.222  13.826
49162W        W16230  25.646  32.960   0.370
49163W        W16231  12.117  35.508  11.122
49164W        W16232  28.491   7.803   4.666
49165W        W16233  17.065  27.129   3.768
49166W        W16234  41.849  38.429   1.897
49167W        W16235  28.655   8.282   0.434
49168W        W16236  11.798  38.043  13.352
49169W        W16237   2.469   7.665  13.535
49170W        W16238   3.419  37.063   2.899
49171W        W16239  14.213  16.626   0.958
49172W        W16240  15.597  30.520  13.867
49173W        W16241  23.070  12.647   4.734
49174W        W16242  40.542  27.600  13.867
49175W        W16243  44.880   6.258  11.895
49176W        W16244  14.820  41.865  11.064
49177W        W16245  26.593  18.573   2.246
49178W        W16246  18.721  33.454   4.801
49179W        W16247  19.747  10.798  13.520
49180W        W16248  20.274  38.852   2.858
49181W        W16249  13.196  43.472  12.915
49182W        W16250  35.945  16.678  12.378
49183W        W16251  12.228  42.314   3.787
49184W        W16252  23.214  43.495  11.099
49185W        W16253  13.116   3.330  14.828
49186W        W16254   7.396   1.821   4.784
49187W        W16255  22.231  44.946  11.481
49188W        W16256  11.348   4.778  13.542
49189W        W16257   1.746   0.394   2.254
49190W        W16258   7.257  20.566   4.276
49191W        W16259  40.412  10.375  13.417
49192W        W16260  24.076  30.049  14.353
49193W        W16261  43.504  31.566   1.443
49194W        W16262  28.602   4.244   1.925
49195W        W16263   5.818  21.080  10.980
49196W        W16264  38.024  43.776  11.927
49197W        W16265  36.031  23.994  12.856
49198W        W16266   0.421  16.750  14.403
49199W        W16267  30.955  33.402   3.198
49200W        W16268   8.802  40.847   3.210
49201W        W16269   8.878   4.736   4.230
49202W        W16270  44.005  25.561  12.837
49203W        W16271  10.332  15.680   2.363
49204W        W16272  19.686   3.434   2.777
49205W        W16273  19.119   7.758  13.941
49206W        W16274   8.281  27.543  11.890
49207W        W16275   1.911  31.946  12.522
49208W        W16276   0.338  32.406   4.127
49209W        W16277  39.370  34.079  14.429
49210W        W16278   7.775  26.490   0.812
49211W        W16279  28.131  12.698  11.001
49212W        W16280   7.395   0.964   1.837
49213W        W16281  14.751   0.957   3.786
49214W        W16282  31.133  39.549  14.399
49215W        W16283  23.184  41.967   1.267
49216W        W16284   4.359  22.019  13.023
49217W        W16285  37.539  30.531  13.431
49218W        W16286  43.887  16.690   4.832
49219W        W16287   8.384   9.782   3.738
49220W        W16288  12.140  40.952  12.001
49221W        W16289  30.933   7.866  11.879
49222W        W16290  37.573  26.071   4.692
49223W        W16291  36.363   7.241  14.975
49224W        W16292  24.038   9.871  14.953
49225W        W16293  23.093  42.463   2.736
49226W        W16294  16.591   1.785   0.465
49227W        W16295  43.278   8.827  12.563
49228W        W16296  26.544  25.523  14.511
49229W        W16297  22.022  28.656   4.740
49230W        W16298  28.974  10.840   4.328
49231W        W16299  19.727   1.812  11.027
49232W        W16300  18.583  34.015   2.314
49233W        W16301  21.567  30.085   4.318
49234W        W16302  25.610   1.749   0.347
49235W        W16303  29.585  14.189   3.663
49236W        W16304  19.058  42.999   2.362
49237W        W16305   5.211   8.822   3.789
49238W        W16306  19.729  24.573  11.089
49239W        W16307   1.969   4.852  10.512
49240W        W16308  21.111  33.914  11.422
49241W        W16309  20.708   7.270  10.982
49242W        W16310  36.511   5.836  11.050
49243W        W16311  15.738   3.776   2.324
49244W        W16312  26.979  14.629   0.310
49245W        W16313  39.971  19.752  13.009
49246W        W16314  39.996  12.732  12.892
49247W        W16315   1.744  11.864  13.505
49248W        W16316   6.242   8.656   2.726
49249W        W16317  38.962  43.853   0.815
49250W        W16318  39.970   9.817   1.733
49251W        W16319  38.410  42.504   0.868
49252W        W16320  37.422  24.167  12.866
49253W        W16321  21.249  37.466  11.024
49254W        W16322  41.038   1.874   1.722
49255W        W16323   8.320  25.502  12.576
49256W        W16324  35.895  27.617   0.409
49257W        W16325  28.538  44.351  12.069
49258W        W16326  40.892  38.946   0.819
49259W        W16327   9.842  16.103  14.403
49260W        W16328  34.501  13.208  13.504
49261W        W16329  29.950  40.513   1.217
49262W        W16330  21.548  43.311  14.426
49263W        W16331  40.951  44.267  13.816
49264W        W16332  21.705  29.992   3.210
49265W        W16333  37.362  31.612   4.612
49266W        W16334  23.593  39.342   5.217
49267W        W16335  22.199  43.323  12.388
49268W        W16336  31.420  13.236  10.943
49269W        W16337   9.380   2.864  14.397
49270W        W16338  36.085  41.011  11.897
49271W        W16339  11.732  40.342  12.542
49272W        W16340   9.373  15.638  11.880
49273W        W16341  13.825  13.109  14.466
49274W        W16342  25.574  41.788   4.283
49275W        W16343   8.813  14.650   4.643
49276W        W16344  40.884   2.774  13.875
49277W        W16345  42.357   1.840   3.260
49278W        W16346  33.549  14.212   9.951
49279W        W16347  16.250  22.678   4.204
49280W        W16348  12.651  29.480   1.743
49281W        W16349  40.891  32.592   3.725
49282W        W16350  10.856  30.451  10.530
49283W        W16351  26.670  10.864  14.434
49284W        W16352   7.695  15.218   1.227
49285W        W16353  37.363  26.972  10.499
49286W        W16354   6.213  18.712   2.777
49287W        W16355  26.007  14.826   2.894
49288W        W16356   8.768  26.559   4.685
49289W        W16357  43.887  38.480  12.439
49290W        W16358   6.298  35.078  11.046
49291W        W16359  22.594  16.151   1.924
49292W        W16360  16.654   3.242   4.750
49293W        W16361  34.396   6.368  14.502
49294W        W16362  26.957  44.816  14.968
49295W        W16363  37.917  44.454   0.266
49296W        W16364  44.312   4.786  12.395
49297W        W16365  39.489  21.133  13.329
49298W        W16366  15.811  36.926   3.241
49299W        W16367  43.462  25.641   1.358
49300W        W16368  34.587   5.697  10.938
49301W        W16369  15.594  38.965  14.300
49302W        W16370  15.703  27.584   1.733
49303W        W16371  35.856  25.968  13.986
49304W        W16372  17.680  33.918   4.637
49305W        W16373  14.657  26.478  11.982
49306W        W16374   8.326  20.671   1.233
49307W        W16375  43.414  34.031  13.026
49308W        W16376  11.659   7.315  13.396
49309W        W16377  23.200   2.471   4.687
49310W        W16378  18.135  28.037   9.529
49311W        W16379  13.827   2.250   3.271
49312W        W16380   1.818  30.602  14.809
49313W        W16381  28.555  28.517  13.307
49314W        W16382   4.764  16.262  14.018
49315W        W16383  17.182  35.072   3.290
49316W        W16384  42.332   8.779   1.357
49317W        W16385  28.138  35.862  14.274
49318W        W16386  22.149   4.836   1.222
49319W        W16387  10.225  36.511  14.781
49320W        W16388  11.858  39.523  10.956
49321W        W16389  19.687  38.548  11.856
49322W        W16390   6.401   3.878  11.914
49323W        W16391  43.785  25.564   1.902
49324W        W16392  26.487   6.917   2.291
49325W        W16393  22.744  43.345  10.917
49326W        W16394  32.633  34.435   0.320
49327W        W16395  34.552  30.546   1.363
49328W        W16396   3.773  26.134   4.125
49329W        W16397   1.777  34.930   1.695
49330W        W16398  11.808  18.221   0.457
49331W        W16399   3.916  30.440   5.134
49332W        W16400  10.338  21.613  14.343
49333W        W16401  35.951  31.997  11.878
49334W        W16402  16.280  23.135  11.391
49335W        W16403  20.263  31.621   0.779
49336W        W16404  14.708  27.577  12.377
49337W        W16405  27.625  26.962   4.246
49338W        W16406   2.471  42.879   1.697
49339W        W16407  10.649  37.533   3.179
49340W        W16408  17.625  14.139   2.400
49341W        W16409  11.300  20.264   0.302
49342W        W16410  17.647  21.697   1.874
49343W        W16411  32.020  30.545  13.392
49344W        W16412  16.306  42.010  14.476
49345W        W16413  43.954  30.524  14.977
49346W        W16414   7.827  16.642   0.365
49347W        W16415  41.835   0.813   3.257
49348W        W16416  14.228  41.305   0.297
49349W        W16417   4.355  30.147   4.653
49350W        W16418  22.014  36.373   1.736
49351W        W16419  30.153  14.284   4.259
49352W        W16420   0.880  34.952   2.702
49353W        W16421  30.912  41.874   3.726
49354W        W16422   3.330   1.784   0.381
49355W        W16423  17.257  28.491   2.813
49356W        W16424  44.794   3.848   3.805
49357W        W16425   3.426   6.397  13.917
49358W        W16426  15.169  11.314   0.357
49359W        W16427  14.315  39.335   1.357
49360W        W16428   9.651  39.409  11.953
49361W        W16429  35.471  41.854  14.307
49362W        W16430  31.594  19.226  14.370
49363W        W16431   6.741  43.452   2.302
49364W        W16432  20.094  43.298  14.775
49365W        W16433   7.308  26.983   4.673
49366W        W16434  42.873   8.195  11.578
49367W        W16435   7.187  34.023  12.998
49368W        W16436  22.073   0.472   3.701
49369W        W16437  15.308  35.920   1.265
49370W        W16438  18.062  18.566  14.471
49371W        W16439   6.854  18.696  12.558
49372W        W16440  23.683  39.949   2.835
49373W        W16441  18.122  25.624  14.771
49374W        W16442  19.184  28.950  12.827
49375W        W16443   2.894  30.421  14.878
49376W        W16444  24.610  24.583  10.630
49377W        W16445  27.185  19.684   4.793
49378W        W16446   9.286   8.204  10.510
49379W        W16447  21.139   6.228   0.305
49380W        W16448  17.585  21.605   2.683
49381W        W16449   9.187   0.445  12.843
49382W        W16450  17.143  34.070   3.250
49383W        W16451   9.672  16.260  11.555
49384W        W16452   8.339  21.152  14.915
49385W        W16453  27.125  42.372   0.959
49386W        W16454  31.478  35.392   4.722
49387W        W16455  13.711  18.179  14.028
49388W        W16456  23.100  11.373   3.800
49389W        W16457  34.606  25.077  11.880
49390W        W16458  39.547  28.172  11.542
49391W        W16459   5.348  37.933   1.774
49392W        W16460  13.149  43.845  14.837
49393W        W16461  22.247  32.983  14.499
49394W        W16462  44.334  15.813   3.758
49395W        W16463  17.171   5.315   2.387
49396W        W16464  36.545  18.611  14.482
49397W        W16465  32.604  23.638  13.328
49398W        W16466  43.773  27.082   1.427
49399W        W16467  20.198  13.842   1.218
49400W        W16468  38.560  19.615   4.319
49401W        W16469  27.525   9.181   4.734
49402W        W16470  39.417  24.586   4.750
49403W        W16471  39.947  31.022   0.335
49404W        W16472  36.876   4.349   3.688
49405W        W16473  41.321  34.899  11.079
49406W        W16474  31.426  41.401  14.457
49407W        W16475  35.076  30.972   3.723
49408W        W16476  43.398   2.442   2.294
49409W        W16477  15.747  34.116   3.376
49410W        W16478  25.039   8.279   3.637
49411W        W16479  23.532  28.543  13.484
49412W        W16480  38.836  39.560  11.080
49413W        W16481   0.452   0.271  14.931
49414W        W16482  13.134  10.224   2.295
49415W        W16483  10.285  43.311  11.046
49416W        W16484  42.470  16.258   0.307
49417W        W16485  16.613  18.122  14.764
49418W        W16486  36.420  44.869   3.850
49419W        W16487   7.810  31.497   3.839
49420W        W16488  30.646  38.324  12.960
49421W        W16489  11.832  12.273  13.516
49422W        W16490  39.526  13.225   2.746
49423W        W16491  14.799  40.813  11.907
49424W        W16492  13.682   3.282  13.024
49425W        W16493  44.917  19.127   1.345
49426W        W16494  41.295  22.047  14.873
49427W        W16495  29.493  10.646   4.125
49428W        W16496  24.500  17.239  11.605
49429W        W16497  31.590  11.264  12.511
49430W        W16498   4.732  35.467  10.956
49431W        W16499  41.393  42.323   2.281
49432W        W16500  25.142  33.449   3.376
49433W        W16501  25.656   9.185   1.364
49434W        W16502  39.433  44.865  12.955
49435W        W16503   9.839   1.938  14.015
49436W        W16504   8.859  43.824   0.730
49437W        W16505  20.617  18.159  11.540
49438W        W16506  40.442  34.955   1.903
49439W        W16507   4.870  14.333  13.019
49440W        W16508  36.016   7.391  11.107
49441W        W16509  39.402  23.191  11.538
49442W        W16510  25.092  18.707  14.917
49443W        W16511  38.894  12.645   0.927
49444W        W16512  33.488  32.595  11.446
49445W        W16513  10.644  42.387   0.383
49446W        W16514  31.525  33.491   2.828
49447W        W16515  20.194  10.237  14.810
49448W        W16516  18.769  23.203   2.372
49449W        W16517  23.148  27.122   2.213
49450W        W16518  29.068   9.845   3.354
49451W        W16519  31.131  20.062  13.394
49452W        W16520  31.414  15.767   0.879
49453W        W16521  30.583  19.261  12.401
49454W        W16522  30.655  41.811  13.431
49455W        W16523  26.668  41.843   3.282
49456W        W16524  37.481  20.678  13.321
49457W        W16525   4.358  17.794  13.414
49458W        W16526  34.372   1.473   1.755
49459W        W16527  23.566  29.097   1.438
49460W        W16528  28.996   2.897   1.720
49461W        W16529  16.622  13.198   3.376
49462W        W16530  11.742  17.759   9.987
49463W        W16531  26.480  27.663  12.918
49464W        W16532  42.354  38.432  13.310
49465W        W16533  10.707  32.532  11.926
49466W        W16534  39.832   4.868  14.768
49467W        W16535  44.444  36.471  14.908
49468W        W16536  33.448   7.380   2.720
49469W        W16537  26.118  16.308  12.539
49470W        W16538   9.156  18.089  12.034
49471W        W16539  20.211  18.692  12.837
49472W        W16540  17.244  11.729  11.869
49473W        W16541  16.149  30.605  12.948
49474W        W16542  41.896  10.333   1.916
49475W        W16543   8.274  32.069  13.882
49476W        W16544  31.435  26.149  13.884
49477W        W16545   4.355   2.261  14.430
49478W        W16546  30.427  40.341  11.493
49479W        W16547  11.682  19.234   0.865
49480W        W16548   4.236  40.798   2.693
49481W        W16549   3.406   1.335   0.926
49482W        W16550   5.689   9.328   0.395
49483W        W16551  39.541   2.759  11.902
49484W        W16552  44.900  36.998   4.314
49485W        W16553  38.390  26.053   2.862
49486W        W16554  34.412  20.249   4.610
49487W        W16555  12.255  17.715   2.244
49488W        W16556   8.710   4.265   1.732
49489W        W16557  19.190   8.882   0.892
49490W        W16558  23.165   2.807  13.959
49491W        W16559  35.927   6.835  11.410
49492W        W16560  42.507   9.187  12.951
49493W        W16561  36.907  14.634  13.471
49494W        W16562  31.962  28.593   4.715
49495W        W16563  15.739   4.806  12.433
49496W        W16564  28.021  21.168   2.269
49497W        W16565  26.533  32.085  12.892
49498W        W16566  23.210  38.331  14.506
49499W        W16567  15.124  17.200   1.369
49500W        W16568  11.176  39.821  14.434
49501W        W16569   4.767   6.300   2.887
49502W        W16570  34.396  36.057   2.275
49503W        W16571  12.753   8.655  11.451
49504W        W16572  40.537  26.457   1.871
49505W        W16573  27.644   8.789  12.009
49506W        W16574   8.327  37.923   3.769
49507W        W16575  34.477  23.207  10.504
49508W        W16576  15.179  22.578  14.816
49509W        W16577  38.415   5.740  13.426
49510W        W16578  19.733  43.954  12.830
49511W        W16579  36.064  24.217   1.399
49512W        W16580  20.217  10.702   4.731
49513W        W16581   2.319  11.768   3.804
49514W        W16582   3.883  41.946   3.336
49515W        W16583  40.935  34.374   0.339
49516W        W16584  34.458  16.773  13.396
49517W        W16585  15.317  19.181  10.942
49518W        W16586  22.095  33.081  11.508
49519W        W16587  38.906  31.994  11.024
49520W        W16588  15.184  29.014  13.023
49521W        W16589  32.499  22.129   3.747
49522W        W16590   4.360   4.308   1.838
49523W        W16591   6.767  15.666   1.241
49524W        W16592  32.937  30.909  13.325
49525W        W16593  23.176  28.498   0.821
49526W        W16594  36.846  11.735  10.636
49527W        W16595   8.721  22.579   4.695
49528W        W16596  38.005  35.494  14.791
49529W        W16597  31.962  26.121   4.692
49530W        W16598  44.831  25.152   2.382
49531W        W16599  41.314  33.958  10.471
49532W        W16600  26.010  36.027   4.816
49533W        W16601  18.183  40.799  14.323
49534W        W16602  41.340   2.346  12.540
49535W        W16603  30.486   1.944  11.382
49536W        W16604   4.387  39.334   0.276
49537W        W16605  12.724  30.980   4.753
49538W        W16606   0.947  37.421   0.878
49539W        W16607   0.756   7.781  13.326
49540W        W16608  28.091  20.120  13.906
49541W        W16609  15.222  29.118   4.231
49542W        W16610  42.333  40.981   1.296
49543W        W16611  43.393  22.566   0.814
49544W        W16612  17.181   0.293  10.961
49545W        W16613  34.083  43.347  14.859
49546W        W16614  36.540  41.295  11.471
49547W        W16615  10.218   5.418  11.872
49548W        W16616  30.096  15.667  11.433
49549W        W16617  42.383  26.130   0.833
49550W        W16618  36.378  40.318  14.374
49551W        W16619  19.235  36.011   3.299
49552W        W16620   3.333  24.193  11.078
49553W        W16621  19.772  10.323  12.827
49554W        W16622   5.758  19.655   3.840
49555W        W16623   8.343  28.049  13.927
49556W        W16624  43.798  17.791  11.014
49557W        W16625  15.706   2.890   1.694
49558W        W16626  24.618   3.397  10.047
49559W        W16627  31.951  39.049  14.909
49560W        W16628   5.203  19.582  12.376
49561W        W16629  44.419   8.669  12.383
49562W        W16630  23.163  36.480  14.426
49563W        W16631  11.691  34.013   1.826
49564W        W16632   9.220   8.851   0.300
49565W        W16633  37.501   1.244   3.206
49566W        W16634   5.377   4.741  14.291
49567W        W16635  40.431  21.160  11.439
49568W        W16636  14.153  19.574   1.327
49569W        W16637  39.396  42.006  14.409
49570W        W16638  42.342  27.134   1.774
49571W        W16639  33.417   5.808   3.753
49572W        W16640   5.302  39.942   1.334
49573W        W16641  19.719  15.089   3.844
49574W        W16642  23.087  22.681  10.034
49575W        W16643   0.856   5.900   2.837
49576W        W16644  12.815  42.033  11.043
49577W        W16645  18.264  25.027  14.945
49578W        W16646  17.120  42.433   1.783
49579W        W16647  28.460  44.308   4.343
49580W        W16648  34.495  19.711  11.544
49581W        W16649  17.282   4.716   0.440
49582W        W16650   7.200  17.795   0.353
49583W        W16651  21.101  15.126   1.363
49584W        W16652   7.244  28.600  12.042
49585W        W16653  23.521  41.988  14.461
49586W        W16654  19.078  18.684  11.890
49587W        W16655  42.408  26.171  11.027
49588W        W16656  43.316  34.398   3.751
49589W        W16657  38.424  28.989   2.818
49590W        W16658  13.728  20.669   2.852
49591W        W16659   9.184  40.472   2.336
49592W        W16660   2.371  22.685  10.119
49593W        W16661  27.961   2.366   1.920
49594W        W16662  11.770  35.421   2.367
49595W        W16663  23.699  34.606   3.850
49596W        W16664   7.723  15.188  13.864
49597W        W16665  32.038  39.433  12.413
49598W        W16666  43.271  15.319   2.220
49599W        W16667  22.743  22.635  14.356
49600W        W16668  11.801  36.914   2.341
49601W        W16669  11.250  19.690   1.215
49602W        W16670  44.992  38.391  10.405
49603W        W16671  33.396  15.755  10.508
49604W        W16672  35.066  12.259  14.828
49605W        W16673  12.327  31.600  10.446
49606W        W16674  19.096  20.218  14.984
49607W        W16675  42.377   0.880  12.521
49608W        W16676  18.223  15.199  14.351
49609W        W16677  18.203  41.297  11.970
49610W        W16678  44.832  23.672   2.742
49611W        W16679   4.306  18.726  10.889
49612W        W16680   4.364  26.113  13.871
49613W        W16681  10.303   4.786  10.456
49614W        W16682  21.160   7.803  12.970
49615W        W16683  36.434  29.666  10.561
49616W        W16684  32.402  11.830  14.863
49617W        W16685   2.802  24.643  10.453
49618W        W16686  34.920  25.076  13.468
49619W        W16687  20.530   6.777   2.236
49620W        W16688   4.857  27.522   2.793
49621W        W16689  19.533   7.890  10.428
49622W        W16690  11.285  37.409  12.530
49623W        W16691  28.097  32.482  12.980
49624W        W16692  15.258  31.150  12.889
49625W        W16693   8.742  32.036  11.533
49626W        W16694   2.241  35.495   0.936
49627W        W16695  37.997   6.294  12.396
49628W        W16696  17.176  42.421   1.345
49629W        W16697  21.240  19.776  11.375
49630W        W16698  41.536   4.389  14.817
49631W        W16699  11.173  20.617   3.848
49632W        W16700  41.300  24.617   1.375
49633W        W16701  28.515  21.196  10.611
49634W        W16702  34.599  38.060  11.448
49635W        W16703  20.139  14.642  14.798
49636W        W16704  11.230  42.972   4.182
49637W        W16705   7.249  35.038   0.787
49638W        W16706  12.299  19.740  13.926
49639W        W16707  40.524   3.246  12.034
49640W        W16708  21.099  29.495  10.440
49641W        W16709  32.479  31.482  11.390
49642W        W16710   9.299  35.535   1.383
49643W        W16711  22.998  12.742  13.348
49644W        W16712  19.259  10.241   4.791
49645W        W16713  16.139  34.533   0.814
49646W        W16714  41.459  11.208   3.173
49647W        W16715  14.216  29.019  13.513
49648W        W16716  14.317  35.539   4.295
49649W        W16717  26.125  28.157   1.763
49650W        W16718  36.389   3.943   4.170
49651W        W16719  44.813  25.102  11.971
49652W        W16720  23.708  22.017   0.467
49653W        W16721   9.381  35.945  13.506
49654W        W16722   9.177  39.378  14.284
49655W        W16723   1.353  39.903   0.352
49656W        W16724  41.933  22.174  11.530
49657W        W16725   2.298  22.677   3.187
49658W        W16726  33.938  24.033  14.821
49659W        W16727  25.967  22.699  14.327
49660W        W16728  42.368  14.696   4.286
49661W        W16729   1.905  43.816  14.348
49662W        W16730  30.616  38.963   4.800
49663W        W16731   8.189  22.066   0.878
49664W        W16732  40.963  15.094   3.797
49665W        W16733  23.043   6.878   2.798
49666W        W16734   2.347  25.679   1.271
49667W        W16735  17.739  44.764   2.850
49668W        W16736  33.127  11.797   4.689
49669W        W16737  16.187  18.162   2.351
49670W        W16738  24.630   6.916   0.851
49671W        W16739  44.897  40.533   2.304
49672W        W16740  19.046  15.213   0.958
49673W        W16741  23.669  32.581   1.895
49674W        W16742   2.438  25.652   4.213
49675W        W16743  41.524  23.612   3.324
49676W        W16744   8.236   0.481   1.254
49677W        W16745  10.665  20.052  10.434
49678W        W16746  34.390   6.889  10.550
49679W        W16747  36.525  14.710   2.680
49680W        W16748  19.096  38.867   4.322
49681W        W16749   2.241  33.383   2.748
49682W        W16750   4.284  39.996  11.438
49683W        W16751  20.561  22.088   0.894
49684W        W16752   2.928  22.017   1.778
49685W        W16753  26.514  26.048   0.287
49686W        W16754   7.226  23.721  12.521
49687W        W16755  24.223   9.248  10.948
49688W        W16756   8.865  14.184   3.222
49689W        W16757  40.528  21.703   4.798
49690W        W16758  36.870  20.752  10.505
49691W        W16759  44.450  12.360  14.826
49692W        W16760  43.406  13.278  14.945
49693W        W16761  18.285  25.038  11.034
49694W        W16762  31.556  23.998   5.608
49695W        W16763  24.007  16.175  12.502
49696W        W16764  14.807  36.552   4.662
49697W        W16765  11.183  13.107   3.250
49698W        W16766  17.175  34.574   1.416
49699W        W16767  20.560   3.310  13.369
49700W        W16768  25.630   7.809   1.802
49701W        W16769   8.703  40.028   0.259
49702W        W16770  20.596  29.962   4.612
49703W        W16771  13.299  32.899  13.008
49704W        W16772   4.740  23.537  13.806
49705W        W16773  40.461  17.250   0.429
49706W        W16774  37.520  28.623  13.443
49707W        W16775   6.903  32.521   1.856
49708W        W16776  17.756  33.589   1.725
49709W        W16777  44.397  26.175  11.588
49710W        W16778  37.419  12.186   4.601
49711W        W16779  19.690  26.048   3.179
49712W        W16780   2.890  38.054  12.343
49713W        W16781   3.766  18.100   0.811
49714W        W16782  22.579  18.617   4.135
49715W        W16783  36.061  41.929   0.403
49716W        W16784  27.497  22.056   3.385
49717W        W16785  37.902  12.726   0.898
49718W        W16786   4.367   8.806  13.471
49719W        W16787  17.655  27.630   5.747
49720W        W16788  36.546  24.105   2.717
49721W        W16789  41.488  12.784   4.779
49722W        W16790  17.199   7.822   3.633
49723W        W16791  23.220   7.341  13.902
49724W        W16792  21.018  15.741   0.945
49725W        W16793   4.934  37.441   4.799
49726W        W16794  16.252  17.595   3.810
49727W        W16795  40.851  39.476  11.990
49728W        W16796  17.141   2.839   0.344
49729W        W16797   9.341  32.412   0.344
49730W        W16798  17.674  26.173  10.612
49731W        W16799   0.934   5.340   0.293
49732W        W16800   7.237   8.225   3.299
49733W        W16801   2.920  42.823  13.891
49734W        W16802  13.304  36.557   4.204
49735W        W16803   1.479  28.437   0.294
49736W        W16804   3.835  13.807   1.405
49737W        W16805   9.859   6.246   4.136
49738W        W16806  44.874  11.773   4.322
49739W        W16807  13.695  31.069   1.837
49740W        W16808  11.741  14.799  12.847
49741W        W16809  21.747  36.541  13.399
49742W        W16810  25.962   4.359   1.714
49743W        W16811  31.044  25.207   2.193
49744W        W16812  24.100  28.099   2.274
49745W        W16813  37.846  17.779  10.934
49746W        W16814  10.801   1.340  14.931
49747W        W16815  19.200   2.904  12.567
49748W        W16816   3.395  22.745   4.146
49749W        W16817  40.833  13.150   1.366
49750W        W16818  16.205  44.366   1.784
49751W        W16819  37.988  28.544   1.831
49752W        W16820  26.548  32.464   2.814
49753W        W16821  31.413  41.492   2.753
49754W        W16822  32.506  15.215  11.535
49755W        W16823  42.520  29.948   0.746
49756W        W16824   7.236  28.623  11.051
49757W        W16825  10.687  23.615   3.146
49758W        W16826  13.209  17.600  13.403
49759W        W16827   0.855  27.510   4.618
49760W        W16828  16.730   9.150   0.301
49761W        W16829   4.392   2.290  11.476
49762W        W16830  20.112  24.514   2.416
49763W        W16831   2.393  31.511   0.408
49764W        W16832  27.035  36.490  14.502
49765W        W16833  17.702  16.104  11.381
49766W        W16834  24.605  22.627  12.537
49767W        W16835  22.070  11.133  12.890
49768W        W16836  32.036  22.587   3.214
49769W        W16837  13.111  29.932   3.835
49770W        W16838  27.977  12.189   4.199
49771W        W16839  28.595   7.768   4.352
49772W        W16840  44.955  26.099   3.160
49773W        W16841  39.023  30.113   0.328
49774W        W16842  28.958  11.134  11.064
49775W        W16843  41.431  15.740   3.781
49776W        W16844  37.890   4.786  11.565
49777W        W16845   9.391  31.035  11.014
49778W        W16846  44.428  20.039   3.800
49779W        W16847  18.131   5.920   4.802
49780W        W16848  16.670  15.316  11.388
49781W        W16849  15.740  32.141   2.395
49782W        W16850  39.015   6.271   4.619
49783W        W16851  36.019  16.575   0.918
49784W        W16852   7.230   9.803   3.163
49785W        W16853   4.865  44.777   4.312
49786W        W16854  25.634   1.745  11.125
49787W        W16855   1.955   0.435   1.308
49788W        W16856  44.458  11.201  14.371
49789W        W16857   1.955  32.110  12.077
49790W        W16858  13.798  21.605  12.466
49791W        W16859  23.562  13.151   4.223
49792W        W16860  12.194  18.644  11.031
49793W        W16861  27.194  25.668   2.352
49794W        W16862  14.279  32.576  10.536
49795W        W16863  34.908  16.695  10.128
49796W        W16864   3.452   1.853  14.835
49797W        W16865  33.045   6.201  12.942
49798W        W16866  44.943  10.158  10.602
49799W        W16867   7.203  34.371   4.274
49800W        W16868  40.971  21.104  12.508
49801W        W16869  30.475  16.679   5.122
49802W        W16870  28.969  18.757  14.848
49803W        W16871   9.365  36.549   4.813
49804W        W16872   5.792  44.389   3.683
49805W        W16873  18.782  26.506  14.378
49806W        W16874  43.899  15.607  11.905
49807W        W16875  36.090  25.089   2.883
49808W        W16876  31.143  24.114   2.861
49809W        W16877   5.859  29.480   1.792
49810W        W16878   4.380  27.079  12.520
49811W        W16879  10.674  14.283  13.886
49812W        W16880  19.148  12.243   0.336
49813W        W16881   0.744   9.218   1.775
49814W        W16882  19.068  22.125   0.295
49815W        W16883  39.341  16.139  10.573
49816W        W16884  20.578  17.678   0.353
49817W        W16885  21.231  13.298  13.479
49818W        W16886  35.444  30.461   1.397
49819W        W16887  31.139   8.695   5.192
49820W        W16888  32.403   5.238  11.934
49821W        W16889   7.701  14.743  12.561
49822W        W16890  25.997  19.613   0.328
49823W        W16891  14.713   1.773   1.353
49824W        W16892  16.707  29.168   4.116
49825W        W16893  27.038  37.084   2.415
49826W        W16894  10.191  13.627   4.268
49827W        W16895   1.902  44.797  11.572
49828W        W16896  20.665  21.194  12.531
49829W        W16897   3.333  22.083   3.357
49830W        W16898  28.605  15.308  13.025
49831W        W16899  35.396  33.907   0.866
49832W        W16900  19.757   5.373   4.661
49833W        W16901  42.794   0.393   0.248
49834W        W16902  13.666  24.564   1.252
49835W        W16903  12.700  42.316   0.387
49836W        W16904   6.250  39.450  14.962
49837W        W16905  35.024  26.687  13.967
49838W        W16906   6.392  16.097   0.320
49839W        W16907   5.913  15.653  12.357
49840W        W16908   4.233  35.014   0.882
49841W        W16909  32.564  23.157  12.851
49842W        W16910  24.678  12.194   0.270
49843W        W16911  10.726  26.174  12.383
49844W        W16912  29.625  41.411  14.303
49845W        W16913  36.854  36.435   3.320
49846W        W16914   6.419  20.639   1.854
49847W        W16915  37.499   7.707  12.423
49848W        W16916   4.329  32.445  13.506
49849W        W16917  41.294  18.262  12.567
49850W        W16918  32.579  12.741  11.881
49851W        W16919  15.740  30.601  13.011
49852W        W16920  34.016   5.817  11.894
49853W        W16921  40.427  34.554   3.859
49854W        W16922  37.081  36.036   2.200
49855W        W16923  32.497   9.305  13.815
49856W        W16924  23.132  31.562   3.695
49857W        W16925  38.450  29.620  12.933
49858W        W16926  36.017  17.264   3.192
49859W        W16927  26.183  35.913   3.776
49860W        W16928  33.874  43.967  10.595
49861W        W16929  30.029  35.918   1.442
49862W        W16930   4.273  22.024   1.420
49863W        W16931  44.273   6.338  14.759
49864W        W16932  18.784   6.839   0.410
49865W        W16933  20.207   5.876  14.882
49866W        W16934  10.348  15.808  13.826
49867W        W16935  14.299  26.019  13.966
49868W        W16936  31.523  41.393   2.346
49869W        W16937  34.927  21.675  10.933
49870W        W16938   7.901   7.861   1.332
49871W        W16939  10.716  40.823  14.765
49872W        W16940  13.211   5.755   3.161
49873W        W16941   0.882  19.232  14.802
49874W        W16942  19.725   8.362   3.252
49875W        W16943   6.406  21.568  11.068
49876W        W16944   9.644  28.063  10.622
49877W        W16945  11.832  30.567   2.870
49878W        W16946  20.695  32.078   1.248
49879W        W16947  33.023  44.371  14.461
49880W        W16948  16.764  30.972   4.828
49881W        W16949   0.441  19.099   4.727
49882W        W16950  30.076  20.738   3.767
49883W        W16951  17.652  33.532  12.869
49884W        W16952  17.221  13.200  11.452
49885W        W16953  41.861  18.205   4.609
49886W        W16954  31.426  18.669  13.045
49887W        W16955   8.721   6.301  12.943
49888W        W16956  42.787  31.593   4.154
49889W        W16957  11.727  21.572   3.741
49890W        W16958  34.112  30.966   4.753
49891W        W16959  27.689   2.417  11.455
49892W        W16960  17.301   1.466   2.195
49893W        W16961  33.933  32.104  10.919
49894W        W16962  42.019  17.290   2.763
49895W        W16963   7.258  23.577  11.098
49896W        W16964  11.193  39.411   4.752
49897W        W16965  27.082  39.871   0.264
49898W        W16966  18.709   2.865  10.535
49899W        W16967   2.742  31.974  12.425
49900W        W16968  15.120  25.507   2.258
49901W        W16969  16.790  18.250  12.892
49902W        W16970  44.495  13.842   3.800
49903W        W16971  20.618  30.616  11.006
49904W        W16972  14.635  37.066  11.962
49905W        W16973  12.315   3.450   2.268
49906W        W16974   9.667  22.679  14.291
49907W        W16975  23.032  12.153   1.428
49908W        W16976  17.795   9.285   3.207
49909W        W16977   0.474  17.648   1.360
49910W        W16978  11.715  14.333  14.827
49911W        W16979   3.231   0.301  13.484
49912W        W16980  35.575  21.217  14.963
49913W        W16981  33.068   6.762  12.037
49914W        W16982  35.458   3.722  13.917
49915W        W16983  39.058  33.921   1.915
49916W        W16984  28.930   3.428   1.791
49917W        W16985  36.852  10.362   3.778
49918W        W16986   3.751  14.267   4.653
49919W        W16987  24.643  13.626   2.662
49920W        W16988  17.172  23.000   4.198
49921W        W16989   3.718  36.535   1.809
49922W        W16990  22.500  15.246  14.793
49923W        W16991  18.586  37.018   0.380
49924W        W16992  24.539  42.392   3.636
49925W        W16993  16.809  36.401   3.786
49926W        W16994  15.282   5.207   2.280
49927W        W16995  20.041  36.550   2.733
49928W        W16996  44.936   4.254   4.163
49929W        W16997  43.433  29.452  13.983
49930W        W16998  12.294  10.672   2.315
49931W        W16999   6.263  44.427  10.588
49932W        W17000  13.271  26.552   4.758
49933W        W17001  25.508  17.103   3.797
49934W        W17002  33.026  43.965  13.832
49935W        W17003  35.091  20.634  11.597
49936W        W17004  20.173  12.270   1.927
49937W        W17005  16.084  14.110   4.689
49938W        W17006   2.442   6.220   4.280
49939W        W17007  20.568  23.610  12.993
49940W        W17008  44.263   3.293  14.285
49941W        W17009  40.380  37.978  11.907
49942W        W17010  17.206  18.653   0.391
49943W        W17011  11.274  34.457  12.468
49944W        W17012  27.690  38.486   4.750
49945W        W17013  36.425   7.785   1.294
49946W        W17014   0.421  18.728   4.203
49947W        W17015  33.099   5.333  10.896
49948W        W17016  42.968  37.558   2.246
49949W        W17017  31.548  24.000   1.367
49950W        W17018   2.251  24.696   0.865
49951W        W17019  32.137  44.946   0.317
49952W        W17020   2.261  25.964   3.752
49953W        W17021  19.689   2.369   4.322
49954W        W17022  12.792  23.177   0.305
49955W        W17023   1.473  17.256   0.452
49956W        W17024  36.967  33.544   3.263
49957W        W17025  22.154  41.788   2.868
49958W        W17026   8.864  26.472   0.800
49959W        W17027  23.180  28.105  12.372
49960W        W17028  25.573  33.956   1.785
49961W        W17029  41.801  26.474   2.892
49962W        W17030  14.593  25.558  12.958
49963W        W17031  35.373  17.157   2.744
49964W        W17032  44.442   1.419  12.350
49965W        W17033  23.109  11.362   0.288
49966W        W17034   1.860  36.951   4.274
49967W        W17035  39.493  37.385  11.129
49968W        W17036  36.379  23.020   2.726
49969W        W17037   6.194   6.289   3.178
49970W        W17038  17.252  17.175   1.872
49971W        W17039   6.805  36.589   4.252
49972W        W17040  28.589  36.543  12.446
49973W        W17041  27.996  35.106   0.475
49974W        W17042  21.659  20.144   4.173
49975W        W17043  35.943  30.946  12.451
49976W        W17044  42.359  18.143   2.311
49977W        W17045   1.291  28.650  13.050
49978W        W17046  34.066  29.551   2.732
49979W        W17047  44.272   4.850   5.259
49980W        W17048  11.632  20.097   2.879
49981W        W17049   9.823  33.457   4.348
49982W        W17050  30.146  41.358  11.381
49983W        W17051  37.571   2.911   1.928
49984W        W17052   4.732  43.272  13.020
49985W        W17053   6.762  44.443  11.038
49986W        W17054  19.084  13.767   3.768
49987W        W17055  15.800  12.306  13.548
49988W        W17056  42.866  42.972   2.707
49989W        W17057  21.174  10.247  14.495
49990W        W17058  36.057  25.470   4.274
49991W        W17059  27.108   7.807  12.915
49992W        W17060  36.365  26.025  12.987
49993W        W17061   0.474  32.587   5.599
49994W        W17062  39.999   3.274  14.394
49995W        W17063  31.496  23.624   2.758
49996W        W17064  43.845  23.633  11.113
49997W        W17065  11.145  28.593  13.058
49998W        W17066  32.910  20.762  10.407
49999W        W17067   2.870   1.265  13.901
50000W        W17068  15.739  13.735   4.328
50001W        W17069  27.130  41.963   4.282
50002W        W17070  10.877  37.831  12.433
50003W        W17071  30.437  27.037  12.979
50004W        W17072  14.340   7.877   1.735
50005W        W17073  23.235   6.796  13.005
50006W        W17074  42.869  10.175  11.381
50007W        W17075  34.950  42.991   5.215
50008W        W17076  43.284  24.658  13.421
50009W        W17077   1.881  26.546  14.399
50010W        W17078  19.263  23.724  14.433
50011W        W17079   6.259  29.172   4.669
50012W        W17080  43.447   6.894   1.891
50013W        W17081  20.099  18.061  10.045
50014W        W17082   5.691  41.434   1.896
50015W        W17083  40.308  38.942   0.814
50016W        W17084  26.177   4.749  12.853
50017W        W17085  24.118  10.383   2.280
50018W        W17086  11.325  15.694  10.599
50019W        W17087  15.824  38.061   2.203
50020W        W17088  11.243  36.492  12.525
50021W        W17089   8.845  36.458  11.385
50022W        W17090  30.032  24.601   3.337
50023W        W17091  21.154  19.543   4.790
50024W        W17092  29.027  33.573  13.864
50025W        W17093  37.565  24.630  11.921
50026W        W17094  31.473  25.017   0.769
50027W        W17095  26.487   6.715  10.483
50028W        W17096  16.285  26.560  10.921
50029W        W17097  16.084  39.060   2.725
50030W        W17098  41.863  27.601  12.366
50031W        W17099  30.156  14.335  12.064
50032W        W17100  21.538   9.187   1.935
50033W        W17101  23.590  39.844   0.269
50034W        W17102  10.723  23.660  14.825
50035W        W17103  38.543  15.674  11.989
50036W        W17104  15.800  33.445  12.077
50037W        W17105  33.045  24.622  10.518
50038W        W17106  25.015  16.163   1.905
50039W        W17107  29.100   5.840   1.753
50040W        W17108  34.945  43.920   1.217
50041W        W17109  24.554   8.402   4.751
50042W        W17110   1.272  39.015   0.889
50043W        W17111  35.947   6.819  13.513
50044W        W17112  20.545  35.064  12.452
50045W        W17113  38.947  15.272   4.632
50046W        W17114  35.992  25.666  13.524
50047W        W17115  32.630  18.736  12.966
50048W        W17116  40.843  42.788  14.460
50049W        W17117  20.215   6.382  13.929
50050W        W17118  19.272   7.294   1.890
50051W        W17119  10.353  10.219  12.397
50052W        W17120  30.925   0.942  13.408
50053W        W17121  36.446  19.236   3.289
50054W        W17122   5.753   7.326  13.880
50055W        W17123  42.827  38.525  14.494
50056W        W17124  31.614   2.942  13.937
50057W        W17125  25.073   4.314  10.474
50058W        W17126  25.067   4.346   1.751
50059W        W17127   7.751  21.094   0.390
50060W        W17128  29.077  15.271  12.880
50061W        W17129  10.801  12.341  12.907
50062W        W17130  15.123   5.779  11.406
50063W        W17131  24.135   9.246  14.840
50064W        W17132   8.853   9.380   4.756
50065W        W17133  17.719  35.360  14.796
50066W        W17134  34.465  44.429   1.822
50067W        W17135  12.229  21.194  11.906
50068W        W17136   0.944  10.339   3.279
50069W        W17137  11.634   4.905   0.896
50070W        W17138  24.131  15.281   2.363
50071W        W17139  38.902  35.992   3.353
50072W        W17140  19.672  42.425  11.560
50073W        W17141  16.704   0.272  10.465
50074W        W17142  25.575  30.958   1.779
50075W        W17143  18.278  35.924   2.213
50076W        W17144  11.169  19.135  14.491
50077W        W17145   7.300  18.207  12.529
50078W        W17146  27.526   6.698   0.948
50079W        W17147   6.679   9.697  10.460
50080W        W17148  44.912   5.375  10.517
50081W        W17149  39.400  22.715  11.943
50082W        W17150  43.827   7.687   1.738
50083W        W17151  14.730  14.161  13.883
50084W        W17152   0.466  15.248  14.807
50085W        W17153  41.007   9.193  11.034
50086W        W17154  31.527  11.266   1.317
50087W        W17155  37.372  18.250   3.372
50088W        W17156  39.945  34.445   3.301
50089W        W17157   1.241   8.242  13.396
50090W        W17158  39.488  33.535   3.696
50091W        W17159  39.987   6.860  11.038
50092W        W17160  42.397  31.580  12.515
50093W        W17161   9.733  17.760   3.658
50094W        W17162  25.046   6.291   2.263
50095W        W17163  32.630  26.607  13.349
50096W        W17164  12.178  39.052  12.550
50097W        W17165   9.337  25.701  10.967
50098W        W17166  36.083   3.735   0.476
50099W        W17167   6.799  29.049   0.806
50100W        W17168  32.127  37.544  13.865
50101W        W17169  37.048   7.375   4.282
50102W        W17170  19.540  15.799   2.902
50103W        W17171  10.152  32.935  10.467
50104W        W17172  19.710   9.852   1.933
50105W        W17173  26.661   4.266  10.481
50106W        W17174   4.362   7.334  11.473
50107W        W17175  41.789  35.493  13.389
50108W        W17176  14.683  35.046   2.800
50109W        W17177  30.047  42.430   3.805
50110W        W17178  35.582  29.596  11.109
50111W        W17179  16.735  13.276   2.810
50112W        W17180  23.510  43.345  12.512
50113W        W17181  43.492   7.815   1.436
50114W        W17182  17.565  28.951  13.401
50115W        W17183   0.745   5.817   4.250
50116W        W17184   3.380  31.516  14.497
50117W        W17185  16.091  38.833   4.129
50118W        W17186   2.765  17.121   3.172
50119W        W17187  43.853  17.072  14.028
50120W        W17188   8.202   7.233   4.664
50121W        W17189   4.264  42.872   3.706
50122W        W17190  32.611  17.288  14.411
50123W        W17191  40.937  19.691   0.937
50124W        W17192  33.601   4.713  11.436
50125W        W17193  19.688  16.285  10.528
50126W        W17194  38.985  24.175   2.722
50127W        W17195  19.234  43.328   2.220
50128W        W17196  28.052  24.224   1.390
50129W        W17197  24.528  17.699   3.816
50130W        W17198  27.488  30.071   3.669
50131W        W17199  16.766  37.454  10.969
50132W        W17200  23.501  12.771   0.344
50133W        W17201  40.981  24.064  13.963
50134W        W17202  34.385  36.370  11.123
50135W        W17203  32.005   1.360  14.369
50136W        W17204  32.906  38.046   0.307
50137W        W17205  25.184   5.830  12.362
50138W        W17206  37.359   0.837   3.376
50139W        W17207  44.951   9.339   4.655
50140W        W17208  22.730  33.936   0.861
50141W        W17209  37.973  31.500   4.164
50142W        W17210  41.908  18.184   0.891
50143W        W17211  40.355  43.832   0.891
50144W        W17212  19.547  20.224   2.776
50145W        W17213  18.744  15.688  12.557
50146W        W17214  33.067  34.104  14.765
50147W        W17215  36.094  38.968  14.282
50148W        W17216  14.656  15.106   3.637
50149W        W17217  40.478  25.077   2.261
50150W        W17218  19.654  41.465   1.412
50151W        W17219   1.795   3.271  11.006
50152W        W17220  19.739   1.803   3.805
50153W        W17221   5.301  25.145  12.577
50154W        W17222  44.270  13.701   0.386
50155W        W17223  15.191  41.914  12.544
50156W        W17224  28.004  39.915  10.889
50157W        W17225  10.365  22.557   3.157
50158W        W17226  42.410   1.441   2.237
50159W        W17227  16.754   6.857   2.743
50160W        W17228  43.895  35.861   3.668
50161W        W17229  32.890  40.829  13.846
50162W        W17230  42.786  34.925  13.364
50163W        W17231   8.309  34.922   4.283
50164W        W17232   6.820  20.271  12.931
50165W        W17233  33.392  26.619  13.967
50166W        W17234   9.687   7.831  13.010
50167W        W17235  32.625  20.248   1.869
50168W        W17236  21.618  13.207  13.525
50169W        W17237  41.426   6.355  14.906
50170W        W17238  44.938  25.127   1.695
50171W        W17239  43.421  23.506   3.751
50172W        W17240   0.491   2.325   1.878
50173W        W17241  31.031  38.467  12.412
50174W        W17242  29.995  30.575  13.421
50175W        W17243  34.588  22.157  10.936
50176W        W17244  44.426  34.088  14.771
50177W        W17245  27.164   8.779  11.951
50178W        W17246  27.036  23.005   0.893
50179W        W17247  43.280  31.130   1.732
50180W        W17248  42.951  27.190   5.158
50181W        W17249  39.445   3.816   0.255
50182W        W17250  27.026  27.534  11.566
50183W        W17251   7.246  42.357  12.947
50184W        W17252  30.642  30.516   4.274
50185W        W17253  12.220  31.099   4.644
50186W        W17254  17.760  18.588   4.765
50187W        W17255  15.246  33.924   3.703
50188W        W17256  25.993   5.715  13.531
50189W        W17257  32.988  28.600   1.804
50190W        W17258  44.790   4.772   1.818
50191W        W17259  31.994   4.211  10.947
50192W        W17260  20.200  10.173  12.027
50193W        W17261  41.994   3.953  11.910
50194W        W17262  25.167   2.861   0.344
50195W        W17263  39.918  23.641  12.068
50196W        W17264  22.529   6.373   0.850
50197W        W17265  18.187  36.348  14.804
50198W        W17266  38.040   7.756   4.172
50199W        W17267  21.647  17.660   2.281
50200W        W17268   2.926   1.879  13.895
50201W        W17269  33.918  27.597   5.190
50202W        W17270  33.977   0.909   1.317
50203W        W17271  43.342  13.205   3.308
50204W        W17272  38.027  44.457   3.374
50205W        W17273  32.560  32.893   3.150
50206W        W17274  42.497  23.105  11.591
50207W        W17275  26.696   9.190  11.110
50208W        W17276  28.468  36.435   4.818
50209W        W17277  18.723   3.404   4.305
50210W        W17278   0.939  33.977   2.344
50211W        W17279  30.929  33.882  10.507
50212W        W17280  12.686  25.658   1.285
50213W        W17281  17.202  43.341   2.293
50214W        W17282  25.209  38.919   3.269
50215W        W17283  18.590  37.439   3.840
50216W        W17284  31.458   8.807  11.899
50217W        W17285  20.273  36.899   4.316
50218W        W17286  39.329   4.349   0.880
50219W        W17287  37.855  34.893  14.463
50220W        W17288   1.897  19.718  14.383
50221W        W17289   7.694  38.450   0.872
50222W        W17290  35.423  22.699  11.033
50223W        W17291  17.596   6.322  11.459
50224W        W17292  21.096  31.955  13.431
50225W        W17293   5.761  27.184  11.091
50226W        W17294  24.013  31.008   3.787
50227W        W17295  39.057  18.232   3.654
50228W        W17296  36.088  14.258   0.759
50229W        W17297  31.566  10.314  12.432
50230W        W17298  14.748  43.994   1.448
50231W        W17299  16.596  44.994  11.381
50232W        W17300  40.545  26.071   1.335
50233W        W17301  36.404  21.651   4.824
50234W        W17302   1.241  11.820   2.819
50235W        W17303  15.609   0.433   4.809
50236W        W17304   7.887  29.036   2.821
50237W        W17305  34.468  41.890   3.248
50238W        W17306  19.601  38.395   3.668
50239W        W17307  35.996   5.376   2.383
50240W        W17308   1.856  16.776   2.410
50241W        W17309   2.816  18.553   2.849
50242W        W17310  27.581  32.511  10.415
50243W        W17311  35.400  20.582  14.793
50244W        W17312  24.121   7.910  14.445
50245W        W17313  32.023  24.009   5.188
50246W        W17314  30.574  22.041   1.435
50247W        W17315  25.175  36.420   1.366
50248W        W17316  23.038   2.940   3.145
50249W        W17317  26.645   3.400   3.682
50250W        W17318   3.726  35.960  14.940
50251W        W17319  39.824  39.345   4.752
50252W        W17320   5.783  35.926  14.443
50253W        W17321  26.635  14.742  10.566
50254W        W17322  31.086  23.183  12.515
50255W        W17323  18.218  32.118   0.282
50256W        W17324  41.425  31.557  14.787
50257W        W17325   4.251  26.151   3.749
50258W        W17326  27.466  17.179   2.810
50259W        W17327   1.789  29.102   2.258
50260W        W17328  15.240  27.691   4.838
50261W        W17329  41.042  31.062  14.007
50262W        W17330  11.862  18.097   3.827
50263W        W17331  38.963  41.302  14.315
50264W        W17332  26.592  44.490  11.516
50265W        W17333  22.064   0.337  11.126
50266W        W17334  15.662  15.745   3.866
50267W        W17335  21.112   8.258  13.532
50268W        W17336   1.870  29.612   4.230
50269W        W17337  33.007  37.360   1.779
50270W        W17338  21.714  15.090   3.849
50271W        W17339  23.701  28.613  14.417
50272W        W17340   1.906  17.270  11.394
50273W        W17341  43.950  27.468  13.460
50274W        W17342  23.703  27.098   0.415
50275W        W17343  43.445  36.027  12.470
50276W        W17344   8.764  40.465  13.975
50277W        W17345  44.877  29.574  11.904
50278W        W17346   7.778  20.748  14.821
50279W        W17347  16.112  13.249  10.637
50280W        W17348   0.278   5.334  10.434
50281W        W17349  16.717  11.658   2.903
50282W        W17350  39.017  16.209  13.344
50283W        W17351  17.557  41.903  12.897
50284W        W17352  37.086  16.703  12.913
50285W        W17353  19.201  14.154  12.883
50286W        W17354   9.336   2.755  14.901
50287W        W17355  18.090  13.281  14.284
50288W        W17356  16.772  31.962   3.156
50289W        W17357  40.411  36.998  10.891
50290W        W17358   0.776  25.054  10.489
50291W        W17359  30.614  20.679   4.319
50292W        W17360  42.468  10.302  13.407
50293W        W17361   7.874   5.417  14.324
50294W        W17362  25.494  27.071   3.283
50295W        W17363  27.679   5.828  11.977
50296W        W17364   1.905  37.949   3.210
50297W        W17365  32.122   7.770   3.309
50298W        W17366   9.890  41.803  13.858
50299W        W17367   1.874  23.623   2.191
50300W        W17368  15.179  44.817   3.331
50301W        W17369  43.419  44.799  11.128
50302W        W17370  12.681  16.738  13.047
50303W        W17371  12.362  39.003   4.764
50304W        W17372  15.802   2.285  10.639
50305W        W17373  39.874  12.123   2.663
50306W        W17374   4.252  18.217  14.939
50307W        W17375  16.759  42.907   0.402
50308W        W17376  37.580  35.450   0.480
50309W        W17377  13.711  36.506   4.232
50310W        W17378  32.534  42.332  13.534
50311W        W17379  27.167   6.692   4.786
50312W        W17380  43.367  41.999  13.972
50313W        W17381  23.504   6.703   4.727
50314W        W17382  17.682  26.679  10.431
50315W        W17383  12.214  17.653   4.298
50316W        W17384  29.438  32.892  11.534
50317W        W17385  24.133  13.688  14.286
50318W        W17386  43.398  40.964   2.262
50319W        W17387  42.527  28.095   3.278
50320W        W17388   0.947  40.318   3.641
50321W        W17389  14.223   2.311   3.148
50322W        W17390  36.933  43.789  14.466
50323W        W17391   5.285  39.380  14.316
50324W        W17392  20.107   2.751  10.528
50325W        W17393   8.714  15.259   2.695
50326W        W17394  34.470  16.635  11.856
50327W        W17395  11.372  28.991  13.884
50328W        W17396  30.571  11.256  14.403
50329W        W17397  16.607  15.656  14.960
50330W        W17398  43.345  38.419  10.888
50331W        W17399  41.464  23.615   3.867
50332W        W17400  42.891  16.741   3.355
50333W        W17401  18.652  43.488   1.854
50334W        W17402  16.110  22.141  10.962
50335W        W17403   8.888  15.111   0.828
50336W        W17404   3.728  28.578  14.874
50337W        W17405  18.718  17.235  13.039
50338W        W17406  29.648  35.438  13.394
50339W        W17407   8.378   7.898  11.858
50340W        W17408  24.997  35.598   0.788
50341W        W17409  31.438   2.832  10.548
50342W        W17410   4.834   1.441  12.536
50343W        W17411  22.251  38.348  14.780
50344W        W17412  12.154  35.965  14.876
50345W        W17413  44.362  21.125  12.927
50346W        W17414   6.831   9.677  11.398
50347W        W17415  36.953  33.118  13.473
50348W        W17416  26.602  42.385  10.592
50349W        W17417  19.604  27.947   0.945
50350W        W17418  20.263   8.753   2.403
50351W        W17419  14.273  43.399   0.444
50352W        W17420  10.681   3.240  14.503
50353W        W17421  33.064  19.050  13.504
50354W        W17422  32.067  26.484  12.396
50355W        W17423  12.705   9.172   2.723
50356W        W17424   0.448  14.248  13.794
50357W        W17425  39.921  26.166   4.753
50358W        W17426   1.294  29.146   1.849
50359W        W17427  26.701  13.731   0.362
50360W        W17428   0.929  14.696  12.351
50361W        W17429  43.308  34.535  14.391
50362W        W17430  35.906   6.415   4.668
50363W        W17431  31.602  30.068   0.318
50364W        W17432   1.800  15.775   4.626
50365W        W17433  37.028  13.699  14.948
50366W        W17434  31.955  39.530   3.730
50367W        W17435  40.932   4.925   1.416
50368W        W17436  42.916  17.632  14.491
50369W        W17437   0.367  30.538   3.689
50370W        W17438   1.321  31.547   4.777
50371W        W17439  22.520  36.884   3.708
50372W        W17440   3.431  38.904  10.530
50373W        W17441  42.430  42.020  13.803
50374W        W17442  39.946  24.213  10.617
50375W        W17443  18.674  11.712  14.327
50376W        W17444  31.575   4.227  14.832
50377W        W17445  27.667  21.194   4.599
50378W        W17446  11.157  32.075   4.114
50379W        W17447   4.710   3.332  14.855
50380W        W17448  42.826  42.963   0.793
50381W        W17449   8.197  39.509   0.445
50382W        W17450  20.043  14.759  13.980
50383W        W17451  27.505  17.729  13.974
50384W        W17452  37.889  14.828   0.264
50385W        W17453  11.354  10.703   3.828
50386W        W17454  18.269  13.184  14.898
50387W        W17455  13.837  41.329  12.892
50388W        W17456  27.073   2.246  14.410
50389W        W17457   9.183  38.879  12.863
50390W        W17458  19.634  23.695  14.342
50391W        W17459  22.658  36.850  11.413
50392W        W17460  24.067  42.406  14.027
50393W        W17461  21.617  38.049   4.657
50394W        W17462  34.540  19.228   1.329
50395W        W17463  13.311   8.246   4.233
50396W        W17464   8.862  37.530  14.876
50397W        W17465  44.466  37.984  14.496
50398W        W17466   7.688  12.360  11.979
50399W        W17467  24.710   3.263  13.313
50400W        W17468   1.850  35.523   2.230
50401W        W17469  20.185   9.336  14.811
50402W        W17470  37.563  43.371   2.239
50403W        W17471  14.701  13.837  12.917
50404W        W17472  33.385  43.892  12.985
50405W        W17473  33.069  22.181   2.371
50406W        W17474  21.081   4.230  11.123
50407W        W17475  11.161   2.284  11.461
50408W        W17476  29.426  37.053  14.823
50409W        W17477  21.055  22.733   3.756
50410W        W17478   2.326  37.909   0.483
50411W        W17479  10.140   3.246   9.933
50412W        W17480  22.516  19.275  14.384
50413W        W17481  10.847  22.138  13.317
50414W        W17482  21.616  39.991  11.549
50415W        W17483  37.875   7.225   3.379
50416W        W17484   2.334  19.095   4.824
50417W        W17485  23.162  37.864  12.968
50418W        W17486  30.927  21.070  12.356
50419W        W17487  23.497  34.015   0.888
50420W        W17488  39.434  33.539  12.501
50421W        W17489  29.097  32.025   5.785
50422W        W17490  35.504   1.834   0.775
50423W        W17491  14.156  33.389   0.438
50424W        W17492  28.620  16.638   4.686
50425W        W17493   6.792   3.834  12.372
50426W        W17494  38.459  21.034   1.297
50427W        W17495   5.364  26.101   4.354
50428W        W17496  24.999  29.026  10.528
50429W        W17497  24.073   4.383  11.452
50430W        W17498  26.149  25.975  12.006
50431W        W17499  28.975   5.863   0.482
50432W        W17500   8.381   9.721  12.433
50433W        W17501   0.291  36.868  10.586
50434W        W17502  30.539  10.646   4.311
50435W        W17503  21.726  13.183   1.381
50436W        W17504   6.821  37.443   1.266
50437W        W17505  42.485  23.220  10.541
50438W        W17506  11.342   2.409  12.905
50439W        W17507  34.511  27.556  14.482
50440W        W17508  38.953  42.293  11.580
50441W        W17509  28.568  23.065  11.991
50442W        W17510  11.370  38.824  11.380
50443W        W17511  39.958  35.994  11.506
50444W        W17512  31.917  27.092  12.425
50445W        W17513  23.165  33.490  11.950
50446W        W17514  18.228  20.167  13.543
50447W        W17515  32.938  22.077   4.175
50448W        W17516  25.532  25.003   2.699
50449W        W17517  24.194  11.653  13.443
50450W        W17518  26.651  27.090  12.001
50451W        W17519   9.882   0.385   0.341
50452W        W17520  16.250  42.349   1.404
50453W        W17521  40.382  19.595   1.926
50454W        W17522  14.294   7.254  14.758
50455W        W17523  26.170  18.214   3.777
50456W        W17524  24.990  26.482   5.201
50457W        W17525  13.132  28.027   4.134
50458W        W17526  22.519  35.055  13.478
50459W        W17527  43.892  11.853  12.922
50460W        W17528  43.906  41.394   2.836
50461W        W17529  27.135   9.818   2.873
50462W        W17530  35.946  34.543   2.899
50463W        W17531   9.739  40.485  12.988
50464W        W17532   5.247   7.345  14.319
50465W        W17533  10.685   2.792   0.286
50466W        W17534  35.387  24.016  11.414
50467W        W17535  35.993  40.906   1.912
50468W        W17536  28.123  25.110  10.925
50469W        W17537  29.569  36.018  12.071
50470W        W17538   4.924  20.156   3.818
50471W        W17539  27.091  21.051   1.902
50472W        W17540   7.762  31.909  12.957
50473W        W17541  38.348  12.336   1.929
50474W        W17542  26.162   4.872   0.914
50475W        W17543  33.626  34.596   2.365
50476W        W17544  35.446  19.685  14.841
50477W        W17545  16.123  11.173   1.772
50478W        W17546   3.738  15.754   4.610
50479W        W17547  15.768   3.270  12.955
50480W        W17548   1.318  14.678  12.446
50481W        W17549  35.082  17.668   4.330
50482W        W17550  28.496  32.498  13.529
50483W        W17551  12.663  28.176   0.350
50484W        W17552  12.643   3.390   0.396
50485W        W17553  35.971   2.871   0.952
50486W        W17554  38.565  39.466  10.522
50487W        W17555  12.218  40.822  14.382
50488W        W17556  12.707  18.242  12.571
50489W        W17557   5.828   4.383   2.741
50490W        W17558  27.032  25.479   4.714
50491W        W17559  25.583  33.955   2.399
50492W        W17560  25.996   7.847   4.330
50493W        W17561  13.610  27.497   0.966
50494W        W17562  31.464  11.671  10.505
50495W        W17563  35.980  12.177   3.182
50496W        W17564  32.091  19.598   3.178
50497W        W17565  43.815  29.588  12.830
50498W        W17566  31.632   7.750   4.167
50499W        W17567   7.868  13.190  10.505
50500W        W17568  29.466  24.672  12.457
50501W        W17569  11.685  16.709  12.425
50502W        W17570  19.663   1.942  12.049
50503W        W17571   2.226  26.598   4.632
50504W        W17572  42.501  28.068   2.312
50505W        W17573  28.486   3.270   4.229
50506W        W17574  21.237  33.034  13.060
50507W        W17575  11.128  11.804   0.887
50508W        W17576  31.542  32.918  14.798
50509W        W17577  12.264  18.591  12.553
50510W        W17578  36.578  29.051   3.148
50511W        W17579   6.370  14.761  13.351
50512W        W17580  44.974   9.662   2.711
50513W        W17581  18.581  36.452   4.808
50514W        W17582  16.623   0.750   4.836
50515W        W17583   7.893  10.813  14.973
50516W        W17584  44.373  39.818  11.948
50517W        W17585   8.670  33.090  14.908
50518W        W17586  10.253  14.771  12.867
50519W        W17587  10.683  32.440   4.190
50520W        W17588  39.854   9.238   3.285
50521W        W17589  21.751  39.037  14.927
50522W        W17590  34.386  44.980   0.860
50523W        W17591  16.590  30.093   5.271
50524W        W17592   2.805  42.848  13.545
50525W        W17593  33.910   2.373  10.894
50526W        W17594  34.433  44.325   2.694
50527W        W17595   1.870   9.788  11.855
50528W        W17596   3.243  41.460   4.713
50529W        W17597  29.047  24.717   4.281
50530W        W17598   8.224  33.983  11.936
50531W        W17599  16.160  34.468  13.799
50532W        W17600  13.799  21.564   2.354
50533W        W17601  44.471   3.720   4.125
50534W        W17602  35.599  10.300  13.509
50535W        W17603  19.636  31.521   0.289
50536W        W17604   1.382  42.839  12.547
50537W        W17605  29.037   3.319   0.457
50538W        W17606  30.515   7.723   5.312
50539W        W17607  12.159   8.209   0.872
50540W        W17608   0.475  12.700   3.273
50541W        W17609  29.448   4.436   3.346
50542W        W17610  28.549  11.713   2.672
50543W        W17611  17.215  33.419   0.793
50544W        W17612  21.064   0.944   1.250
50545W        W17613  33.528   8.296  13.976
50546W        W17614  32.581  16.728  12.480
50547W        W17615  13.326   2.386   3.219
50548W        W17616  10.761  10.280   3.174
50549W        W17617   7.756  23.092   4.333
50550W        W17618  25.546   8.304   0.914
50551W        W17619  23.123   5.309  10.567
50552W        W17620  21.060  12.308   2.852
50553W        W17621  23.174  28.593   4.253
50554W        W17622  19.572  25.695  11.915
50555W        W17623   4.357  26.102  11.528
50556W        W17624  34.108  27.122   4.600
50557W        W17625  17.202   6.727   3.210
50558W        W17626   5.788  28.588   3.692
50559W        W17627  31.498  26.063  11.402
50560W        W17628  32.602  12.302  14.514
50561W        W17629   2.829  20.723   3.675
50562W        W17630  31.084   9.312   3.151
50563W        W17631  11.828  36.452  14.864
50564W        W17632  27.169  44.791  14.292
50565W        W17633  35.501  28.123   1.831
50566W        W17634  31.523  41.410  11.423
50567W        W17635  14.590  40.458   4.288
50568W        W17636   1.401   1.885  12.576
50569W        W17637  16.785  25.169   0.815
50570W        W17638  42.493  30.501   0.294
50571W        W17639  25.152   3.319   5.101
50572W        W17640  30.164   8.370  11.898
50573W        W17641  38.482  28.987   4.145
50574W        W17642  20.108  25.011  14.370
50575W        W17643  18.170   4.282   0.933
50576W        W17644  33.075  21.540   0.249
50577W        W17645  23.067   7.384  10.448
50578W        W17646  23.537  40.444  13.793
50579W        W17647  38.015  18.087  10.536
50580W        W17648  21.189   7.250   2.803
50581W        W17649  31.535  34.900   4.768
50582W        W17650  17.607  37.470  12.090
50583W        W17651  41.309  26.007  13.969
50584W        W17652   4.799  35.021  14.434
50585W        W17653  44.948  14.830  13.835
50586W        W17654  17.219   6.882  12.503
50587W        W17655  28.068   1.256   2.241
50588W        W17656  11.325  21.594   3.637
50589W        W17657  28.583  39.831   1.245
50590W        W17658  16.209   2.905   1.350
50591W        W17659  14.301  13.344  11.508
50592W        W17660   5.727  41.983  10.628
50593W        W17661  44.847  30.501   4.290
50594W        W17662  13.664   7.318  13.845
50595W        W17663  16.249  30.526   3.710
50596W        W17664  31.065   3.435   1.300
50597W        W17665   9.163  24.091   1.299
50598W        W17666  37.373  27.164   2.387
50599W        W17667  29.475  31.638  12.451
50600W        W17668  39.459  10.687   1.356
50601W        W17669   3.921  39.430   2.788
50602W        W17670   1.743  14.126   1.436
50603W        W17671   5.337  29.637   3.250
50604W        W17672   7.889  10.718   1.317
50605W        W17673  22.635  30.577  13.414
50606W        W17674  12.670   7.701   1.863
50607W        W17675  23.551  13.757   2.391
50608W        W17676  39.048  31.512  13.343
50609W        W17677  10.774  27.472   2.717
50610W        W17678  17.102  19.776  10.891
50611W        W17679   1.797  18.713  14.769
50612W        W17680  11.329  11.702  10.442
50613W        W17681  17.272  22.239   1.845
50614W        W17682  11.684  39.384  13.012
50615W        W17683  23.989  15.125  12.564
50616W        W17684  12.276   4.264  12.959
50617W        W17685  19.722  43.825  12.411
50618W        W17686   8.894  34.488  12.437
50619W        W17687   8.213   0.935   2.265
50620W        W17688  34.477   5.705   1.830
50621W        W17689  10.785   2.785   2.727
50622W        W17690  43.778   8.197   4.765
50623W        W17691  17.559   2.739  14.864
50624W        W17692  15.096  33.597  11.380
50625W        W17693   8.893  24.111  11.528
50626W        W17694   9.383  40.000  13.867
50627W        W17695  31.923  20.083  12.886
50628W        W17696  44.772  21.135  12.833
50629W        W17697  25.145   4.895   1.753
50630W        W17698  33.564  25.184  14.855
50631W        W17699  27.500  26.525   1.341
50632W        W17700  28.148   5.856  12.869
50633W        W17701   9.759  12.260  11.086
50634W        W17702  43.866   0.268   1.359
50635W        W17703  29.079  27.481  10.997
50636W        W17704   9.725  17.749   3.205
50637W        W17705  26.153  22.547  13.335
50638W        W17706  30.034   5.899  13.037
50639W        W17707   5.397  42.936  10.633
50640W        W17708  26.130  10.148   2.265
50641W        W17709  18.170  38.837  12.983
50642W        W17710   9.158  18.144  13.971
50643W        W17711  19.065  13.152  14.959
50644W        W17712  28.932  20.730   1.786
50645W        W17713  40.800  31.078  11.454
50646W        W17714  30.648   6.679  10.553
50647W        W17715  15.742  13.322  12.396
50648W        W17716   3.244  37.931   1.290
50649W        W17717  30.000   5.390  13.884
50650W        W17718  23.502   2.389   2.326
50651W        W17719  43.475  20.764   1.874
50652W        W17720  39.393  19.587   4.679
50653W        W17721  30.611  34.873   4.314
50654W        W17722  23.027  36.056   3.867
50655W        W17723  29.162  25.551   2.400
50656W        W17724  16.260  43.473  12.940
50657W        W17725  20.039   4.321  12.375
50658W        W17726  20.212  40.951   4.834
50659W        W17727   8.782  20.111   0.390
50660W        W17728  14.785  24.172  10.624
50661W        W17729   7.322  23.590   4.643
50662W        W17730  18.727   2.451   0.300
50663W        W17731  30.101   6.204   3.341
50664W        W17732  36.988  30.100  12.929
50665W        W17733  21.689  25.661   0.900
50666W        W17734   6.227  18.754  10.144
50667W        W17735  37.985  10.217   1.363
50668W        W17736  18.727  27.597   4.330
50669W        W17737   3.258   7.388   0.730
50670W        W17738  34.908  44.908  12.515
50671W        W17739  21.682  11.865   1.271
50672W        W17740   5.391  23.526  11.393
50673W        W17741  10.353   0.423   2.189
50674W        W17742  40.361  28.045   3.867
50675W        W17743  38.883  37.010   1.891
50676W        W17744  42.318  35.468  13.505
50677W        W17745  20.558  21.178  14.360
50678W        W17746  31.997  25.559  12.443
50679W        W17747  42.030  20.590  14.797
50680W        W17748  39.349  30.982  14.758
50681W        W17749  14.251  42.324   1.831
50682W        W17750  32.907  43.852   1.262
50683W        W17751   6.293  38.527  12.516
50684W        W17752  28.939  16.618  14.471
50685W        W17753  38.546  38.902   0.355
50686W        W17754  32.058   3.315   1.303
50687W        W17755  32.503   4.871  14.345
50688W        W17756  34.938  21.552  13.384
50689W        W17757   5.415   5.873  13.951
50690W        W17758  25.980  39.398  13.485
50691W        W17759  30.549  40.311   0.892
50692W        W17760  24.501  12.242  14.893
50693W        W17761  15.729  38.925   3.640
50694W        W17762  11.702  25.518   1.328
50695W        W17763  33.384  30.061   4.720
50696W        W17764  29.157   0.819   1.420
50697W        W17765  30.514  20.183   4.262
50698W        W17766  25.156   9.165  11.072
50699W        W17767   9.880  35.944  13.061
50700W        W17768   7.898  26.108  12.056
50701W        W17769   7.173  28.963  11.557
50702W        W17770  24.483  38.413  10.523
50703W        W17771  29.642  44.321   1.448
50704W        W17772  22.634  25.674   4.208
50705W        W17773  16.174  39.406  14.767
50706W        W17774  26.670  41.416   1.374
50707W        W17775  10.209  19.749   0.253
50708W        W17776  41.368  19.104   2.328
50709W        W17777  44.290  25.988  12.829
50710W        W17778  13.732  37.081  14.917
50711W        W17779  21.111  44.310  13.817
50712W        W17780   6.890  24.650  11.112
50713W        W17781  34.990  21.753  11.586
50714W        W17782  22.132  21.539   4.327
50715W        W17783  37.944  33.101   1.340
50716W        W17784  33.901  25.206   2.786
50717W        W17785  40.007  31.064  12.927
50718W        W17786  40.445  34.032  12.384
50719W        W17787  23.541   2.826   1.409
50720W        W17788  24.645   2.799  13.901
50721W        W17789  44.008  32.607  14.502
50722W        W17790  25.217  27.493   0.274
50723W        W17791   0.309  30.072  12.037
50724W        W17792  44.764  12.259   4.833
50725W        W17793  36.498  41.448  14.001
50726W        W17794  43.389  24.082  13.042
50727W        W17795  33.945   0.331  12.935
50728W        W17796  27.157  14.108  13.877
50729W        W17797  28.057  20.658  13.442
50730W        W17798  11.727   2.941  13.389
50731W        W17799   0.804  12.326   1.799
50732W        W17800   9.877  11.784  12.039
50733W        W17801  29.068  44.925   4.226
50734W        W17802  41.483  31.567   1.811
50735W        W17803  23.729   1.761   2.299
50736W        W17804  22.605  23.730   3.721
50737W        W17805   8.314  43.490   3.718
50738W        W17806  38.492  18.291  10.901
50739W        W17807  40.977  31.941   1.357
50740W        W17808   1.802   5.817   4.344
50741W        W17809  14.698  14.731   1.451
50742W        W17810   9.690  44.865   3.288
50743W        W17811  31.087  16.288  14.850
50744W        W17812  24.627  36.972  12.438
50745W        W17813   2.245  32.636  11.991
50746W        W17814  12.166  34.461   4.626
50747W        W17815  28.043  43.445  13.350
50748W        W17816  22.046  29.046   4.151
50749W        W17817  12.746  39.420  12.067
50750W        W17818  21.126  21.198   0.438
50751W        W17819  43.332  20.739   3.341
50752W        W17820   5.435  28.172   3.631
50753W        W17821  16.143   7.858   4.814
50754W        W17822  24.508  17.741   0.282
50755W        W17823   8.267  36.965   3.649
50756W        W17824  10.763  21.093  10.963
50757W        W17825  21.630  18.264  12.573
50758W        W17826  34.518  28.589   4.233
50759W        W17827  36.005  41.330   3.326
50760W        W17828  43.463  36.449   1.356
50761W        W17829  29.542  25.642   3.749
50762W        W17830  23.734  10.307   0.747
50763W        W17831   0.962   3.368   5.304
50764W        W17832   6.369  31.645   4.748
50765W        W17833  24.561   2.299   3.784
50766W        W17834   7.288   1.853   1.747
50767W        W17835  29.425  43.399  14.879
50768W        W17836   1.744  32.132  12.869
50769W        W17837  19.708  32.593   0.854
50770W        W17838  32.981  40.837  13.426
50771W        W17839  15.119  27.577  13.394
50772W        W17840   6.827  26.056   1.885
50773W        W17841  15.799  18.765  11.092
50774W        W17842   7.808  10.875   4.769
50775W        W17843  15.174   6.721  11.492
50776W        W17844   6.272   2.449  13.044
50777W        W17845  37.443  30.004  12.467
50778W        W17846  17.094  25.487  14.466
50779W        W17847   2.735   3.873  13.845
50780W        W17848  35.519   2.963   0.328
50781W        W17849  10.241  44.871   3.245
50782W        W17850   1.810  10.780   4.280
50783W        W17851   6.253   9.856  11.373
50784W        W17852  28.947  31.965   1.374
50785W        W17853   7.285  11.698   4.335
50786W        W17854  39.948  14.647  11.873
50787W        W17855   9.781  26.001   3.240
50788W        W17856   1.301   7.727  13.476
50789W        W17857  28.554  35.958  11.998
50790W        W17858  25.059  19.245  11.081
50791W        W17859  18.282  21.061  13.528
50792W        W17860  27.475   0.832   0.346
50793W        W17861   0.383   9.151   3.656
50794W        W17862  11.271  14.308   1.422
50795W        W17863  24.124  12.708  14.281
50796W        W17864  26.603  21.617  11.027
50797W        W17865  14.702   7.264   3.658
50798W        W17866  44.296  12.679  10.411
50799W        W17867  18.178  21.697  14.904
50800W        W17868  43.851  12.645   0.465
50801W        W17869  14.816  26.665   2.283
50802W        W17870  27.025  26.040  14.836
50803W        W17871   8.860  19.649   2.865
50804W        W17872  21.679   9.359  11.491
50805W        W17873  17.212  26.186   1.727
50806W        W17874  11.671  23.601  11.503
50807W        W17875   8.259  39.475  12.846
50808W        W17876   7.712  10.198  12.069
50809W        W17877  10.304  17.102   0.284
50810W        W17878   8.311  16.588   9.986
50811W        W17879  18.278  34.091   0.829
50812W        W17880  26.139  16.279   3.723
50813W        W17881  26.467  39.424   3.249
50814W        W17882  26.999   3.242  14.290
50815W        W17883   5.914  43.880   1.240
50816W        W17884   9.787  23.612  11.018
50817W        W17885  38.909  17.570   1.409
50818W        W17886  21.078  34.511   5.119
50819W        W17887  28.022  40.357  10.623
50820W        W17888  38.068  11.761   0.316
50821W        W17889  38.975  23.118  11.935
50822W        W17890  38.456  35.473   0.728
50823W        W17891  27.628  38.958   3.283
50824W        W17892   4.383  12.720   0.918
50825W        W17893  25.601  36.076  12.421
50826W        W17894  10.739  30.992  10.454
50827W        W17895  20.134  36.499   1.280
50828W        W17896  19.075   6.693  12.473
50829W        W17897  38.958  28.533   0.772
50830W        W17898   2.913  32.619  13.002
50831W        W17899  20.065   8.315  12.522
50832W        W17900  30.984  31.943   2.182
50833W        W17901  11.757   3.429   0.353
50834W        W17902  20.634  40.947   4.799
50835W        W17903  12.780  42.299  11.070
50836W        W17904  21.579  37.549  13.854
50837W        W17905  22.130  11.827   1.233
50838W        W17906   1.826   4.700   3.776
50839W        W17907  28.472  32.558   3.655
50840W        W17908  13.298   6.817   3.662
50841W        W17909  41.908  22.012  13.486
50842W        W17910  36.915   4.263  10.466
50843W        W17911  22.097  19.569   3.728
50844W        W17912  44.481  35.068   2.709
50845W        W17913   6.200  29.043   3.272
50846W        W17914  37.551   8.211  10.487
50847W        W17915   3.320  35.363   0.782
50848W        W17916  43.447  34.046   2.810
50849W        W17917  44.269   7.711   4.192
50850W        W17918  30.446  19.686  14.313
50851W        W17919   7.764  40.958   3.685
50852W        W17920   2.379  16.127   2.336
50853W        W17921   9.266  42.282   0.841
50854W        W17922   5.234  32.952  12.375
50855W        W17923  33.388   6.288   1.370
50856W        W17924  24.482  32.470  10.993
50857W        W17925   2.354  41.930  13.484
50858W        W17926   4.899  38.057  14.454
50859W        W17927  34.991  30.997  14.810
50860W        W17928  25.513   8.828  13.394
50861W        W17929  18.111  18.655  13.421
50862W        W17930  13.222  21.669  11.595
50863W        W17931  27.511  38.906   1.297
50864W        W17932  35.392  19.577  13.458
50865W        W17933  14.625  14.715  13.323
50866W        W17934  43.416  33.915   4.303
50867W        W17935   3.215  21.212  11.573
50868W        W17936   2.248  30.013   0.944
50869W        W17937  22.236  26.054  13.919
50870W        W17938  10.656  29.018  14.830
50871W        W17939  34.481  34.926  10.641
50872W        W17940  40.393  42.884   0.832
50873W        W17941  19.186  33.387  11.076
50874W        W17942   7.726  22.504  14.508
50875W        W17943  14.800  11.774   3.712
50876W        W17944  41.822   9.373   4.675
50877W        W17945  13.788  12.690  11.453
50878W        W17946  12.708  27.497   4.238
50879W        W17947  30.611   1.974   1.901
50880W        W17948   9.779  25.542  13.522
50881W        W17949  10.373  38.058  10.489
50882W        W17950  28.617  16.738   2.853
50883W        W17951  16.119  29.584   2.854
50884W        W17952   7.700  41.867  10.482
50885W        W17953  19.265  11.348  12.944
50886W        W17954  42.516   2.310  11.534
50887W        W17955   3.391   1.745  11.546
50888W        W17956  13.169   7.895   4.695
50889W        W17957  11.261  11.368   4.814
50890W        W17958  39.868  41.039  12.445
50891W        W17959  21.545  37.467   9.565
50892W        W17960  35.525  14.213   3.354
50893W        W17961  31.086   2.893  13.034
50894W        W17962  36.407  19.660  11.432
50895W        W17963   8.670  10.350   4.795
50896W        W17964   9.758   2.756   0.327
50897W        W17965  42.792   9.164   1.791
50898W        W17966  41.425   8.689   1.883
50899W        W17967  26.168  42.871  14.861
50900W        W17968  17.683  33.398  11.489
50901W        W17969  14.279   4.927  14.841
50902W        W17970  39.970  13.342  14.877
50903W        W17971  38.539  23.221   1.436
50904W        W17972  42.403   3.235  13.949
50905W        W17973  22.699  41.948   0.321
50906W        W17974  42.829  38.485  10.406
50907W        W17975   6.895  10.244  10.898
50908W        W17976  20.034   1.849  12.540
50909W        W17977  27.531  30.119  14.433
50910W        W17978  39.315  37.888  14.448
50911W        W17979   1.798  36.427  14.907
50912W        W17980  42.319  17.155  11.382
50913W        W17981  43.940  12.303  12.347
50914W        W17982   5.364  21.096  11.866
50915W        W17983  17.762  25.488  14.298
50916W        W17984  43.834  12.770   0.890
50917W        W17985  29.526  39.897  11.882
50918W        W17986  10.237  29.016   1.856
50919W        W17987  34.046  40.025   2.824
50920W        W17988  24.605  32.537   2.297
50921W        W17989  15.171  25.046   1.368
50922W        W17990  13.809  11.209  12.911
50923W        W17991   7.368   2.360  12.580
50924W        W17992  41.952   4.733  12.435
50925W        W17993  12.183  42.326   2.886
50926W        W17994  44.972  26.680  13.806
50927W        W17995  18.077  19.235   1.434
50928W        W17996  16.798  12.324  12.434
50929W        W17997  25.572  40.801  10.538
50930W        W17998  24.059  13.115   2.840
50931W        W17999  41.400  27.153   0.808
50932W        W18000  36.996  26.532   1.259
50933W        W18001  24.030   0.262   1.397
50934W        W18002  30.152  19.079   4.827
50935W        W18003  22.706  30.441  12.829
50936W        W18004  11.186  41.400  11.376
50937W        W18005  24.689   9.199   3.718
50938W        W18006   2.921  27.525  12.409
50939W        W18007  31.461  44.319  12.995
50940W        W18008  15.193  16.238  13.393
50941W        W18009   2.814  40.410   4.725
50942W        W18010  41.871  39.383  11.938
50943W        W18011  21.026  28.056  11.113
50944W        W18012  34.413  28.122   1.293
50945W        W18013  29.592  43.356   0.873
50946W        W18014   5.750  22.142  11.865
50947W        W18015  16.318  21.718  13.799
50948W        W18016  21.535  30.032  14.470
50949W        W18017  20.119   7.388  10.415
50950W        W18018  42.412   7.781   3.819
50951W        W18019  41.368  22.198   0.385
50952W        W18020  44.877   3.946   4.245
50953W        W18021  22.520  35.911   1.224
50954W        W18022   8.800   2.381  12.579
50955W        W18023  40.888  25.186   0.774
50956W        W18024  33.022  38.561   0.857
50957W        W18025  31.496  29.607  14.846
50958W        W18026  43.926  12.849   1.316
50959W        W18027  11.816  21.077  14.478
50960W        W18028  21.533  34.901   2.315
50961W        W18029  23.997  42.878   1.866
50962W        W18030  14.251   3.844  11.596
50963W        W18031  43.848   7.862  13.887
50964W        W18032  29.119  38.993  12.495
50965W        W18033  18.777  10.821  10.579
50966W        W18034   8.292   6.824  10.642
50967W        W18035  38.517  21.750   1.438
50968W        W18036  29.633   3.444  13.327
50969W        W18037  41.914  10.847   3.699
50970W        W18038  39.465  26.030   1.922
50971W        W18039   2.309  23.551   1.342
50972W        W18040  14.312  34.407   4.727
50973W        W18041  14.101  21.639  11.024
50974W        W18042  20.605   8.301  13.455
50975W        W18043   3.807  33.104  12.913
50976W        W18044  39.041  39.060   1.832
50977W        W18045  16.264  33.506   4.604
50978W        W18046  36.844  30.589   4.134
50979W        W18047  27.557  39.505  11.996
50980W        W18048  41.870  31.983   1.789
50981W        W18049  10.666  23.689  12.831
50982W        W18050  36.455   5.266   2.406
50983W        W18051  38.963  26.569   2.766
50984W        W18052  36.493  23.208   0.730
50985W        W18053  11.767  34.936   1.356
50986W        W18054   9.347  14.161   3.274
50987W        W18055  39.904  37.960   3.672
50988W        W18056   9.346  40.878   1.899
50989W        W18057  42.949   7.351   4.640
50990W        W18058   0.455  35.014  14.913
50991W        W18059  32.019  18.107  14.306
50992W        W18060  30.624  30.992   4.170
50993W        W18061   0.937  31.908  11.585
50994W        W18062  25.123  34.508  10.573
50995W        W18063  19.131  38.375   3.242
50996W        W18064  36.063  28.951   3.670
50997W        W18065  13.679  43.499  13.952
50998W        W18066  20.061  42.849  12.037
50999W        W18067  44.944  19.094   0.283
51000W        W18068   9.877  10.147   4.193
51001W        W18069  13.772   4.261   3.806
51002W        W18070  42.013  24.651   4.293
51003W        W18071  32.549  39.486   4.199
51004W        W18072  12.653  17.706  13.834
51005W        W18073  27.972  37.906   3.272
51006W        W18074  32.441  28.575  11.558
51007W        W18075  35.088  29.585  10.468
51008W        W18076  29.107  22.128   3.820
51009W        W18077  37.014  32.938  14.388
51010W        W18078  43.430  41.018  11.598
51011W        W18079  25.184  25.064  11.863
51012W        W18080   3.436  16.781   2.746
51013W        W18081  10.165  36.534   4.235
51014W        W18082   6.856  22.227  13.969
51015W        W18083  19.234   5.320   4.348
51016W        W18084  39.530  36.872  11.870
51017W        W18085  13.275  26.640  13.533
51018W        W18086  24.071  20.243   0.265
51019W        W18087  39.402  23.698  10.473
51020W        W18088   6.409  37.402   1.699
51021W        W18089  12.208   7.193   2.813
51022W        W18090  29.147  43.823   4.170
51023W        W18091  30.519  41.814   1.237
51024W        W18092  36.430  14.100   2.398
51025W        W18093  41.339  29.589   0.925
51026W        W18094  11.837  44.907  14.819
51027W        W18095  31.926   4.818   5.219
51028W        W18096  36.520  32.127  10.952
51029W        W18097  41.027  28.503   1.859
51030W        W18098  34.935  38.892   1.210
51031W        W18099   3.225  24.071   1.858
51032W        W18100  15.290  23.145  10.580
51033W        W18101  26.086  19.688  10.616
51034W        W18102  33.447  33.952  14.811
51035W        W18103  12.780   4.268  13.800
51036W        W18104  10.708   4.257   4.241
51037W        W18105  42.905  24.642  11.962
51038W        W18106   7.285  12.139   3.867
51039W        W18107  30.955  24.667  14.909
51040W        W18108  24.212  28.536   1.285
51041W        W18109   1.976  36.355  10.615
51042W        W18110  43.870  29.537  12.467
51043W        W18111  30.122   7.416  10.610
51044W        W18112  14.286  34.056   0.251
51045W        W18113  40.495  17.745   2.360
51046W        W18114  40.878  20.580  12.453
51047W        W18115  26.670  18.691   4.816
51048W        W18116  22.050  18.258   3.765
51049W        W18117   5.424  38.401   1.719
51050W        W18118  19.194  10.681   1.369
51051W        W18119  40.467   9.704  13.930
51052W        W18120   0.818  31.952   3.149
51053W        W18121   7.328  10.821   1.251
51054W        W18122  44.922  19.743  12.561
51055W        W18123  32.430  20.214  13.008
51056W        W18124  42.839  33.944  12.529
51057W        W18125  33.937  36.999   1.225
51058W        W18126  13.814  12.841   3.769
51059W        W18127  10.660  40.305  12.963
51060W        W18128  27.582  31.976   2.398
51061W        W18129  28.084  23.225  10.034
51062W        W18130  35.964  23.689  12.397
51063W        W18131   4.399  14.705   4.285
51064W        W18132  28.962  24.043  14.794
51065W        W18133   8.161   7.699  12.825
51066W        W18134  19.622  27.043   0.261
51067W        W18135  39.808  12.352   0.807
51068W        W18136  11.371   5.869   0.897
51069W        W18137  43.999  44.504  10.890
51070W        W18138  33.992   3.717  14.962
51071W        W18139  14.712  40.948  13.822
51072W        W18140  27.504  40.368   4.333
51073W        W18141  23.721   6.691   1.915
51074W        W18142   1.885  32.965   4.338
51075W        W18143   3.748   2.737   4.181
51076W        W18144  29.667  39.025  11.944
51077W        W18145  39.412  35.005  11.580
51078W        W18146  33.117   8.808   4.201
51079W        W18147  16.721  10.806   0.405
51080W        W18148   9.325  42.351   0.382
51081W        W18149  25.618  40.471   3.815
51082W        W18150   8.311   4.817   0.325
51083W        W18151  11.257  28.462  14.470
51084W        W18152  33.419  33.950   3.358
51085W        W18153   4.390  41.434   4.193
51086W        W18154  32.133  41.343   3.249
51087W        W18155  41.443  21.221   0.947
51088W        W18156  36.002  23.090   2.386
51089W        W18157  43.985  16.273   1.747
51090W        W18158  29.091  12.850  12.048
51091W        W18159  36.427  37.383   0.885
51092W        W18160   9.282  42.904  14.386
51093W        W18161  24.580  34.444   0.461
51094W        W18162   0.332  35.577  11.899
51095W        W18163  11.664  30.442  11.531
51096W        W18164  43.923  16.619   0.474
51097W        W18165  44.924  21.590  11.968
51098W        W18166   6.761  25.092  10.960
51099W        W18167  40.906  11.335  13.815
51100W        W18168  29.460  26.110   3.359
51101W        W18169  33.621  33.554  12.433
51102W        W18170  33.101   2.857  10.489
51103W        W18171  29.126  44.763  11.523
51104W        W18172  15.222  26.026   4.816
51105W        W18173  14.687  10.312   3.173
51106W        W18174  13.800  31.126   0.955
51107W        W18175  14.122  14.644   4.328
51108W        W18176  17.229  39.364  10.487
51109W        W18177  42.505  13.738  12.027
51110W        W18178  28.522  44.771   0.810
51111W        W18179  39.541  23.599   0.413
51112W        W18180   3.219  12.804   2.796
51113W        W18181  29.527  25.110   4.164
51114W        W18182  34.003  14.639   4.331
51115W        W18183  35.861   2.748  11.128
51116W        W18184  33.595  31.445  10.919
51117W        W18185   0.318  40.540  13.822
51118W        W18186  16.612  17.578   4.133
51119W        W18187  22.130  19.777   4.297
51120W        W18188  21.074  31.995   0.800
51121W        W18189  13.681  11.358   2.710
51122W        W18190  44.421  11.315  13.363
51123W        W18191  33.966  21.602   1.797
51124W        W18192   4.428  31.127   4.830
51125W        W18193  24.705  26.959   4.816
51126W        W18194  34.539  40.475  11.430
51127W        W18195  14.640  15.753  12.863
51128W        W18196   2.957  21.036   1.771
51129W        W18197   1.250  28.589   4.323
51130W        W18198  44.444  17.065  14.021
51131W        W18199  16.732  28.946  14.919
51132W        W18200  42.802  41.889  12.407
51133W        W18201   8.250  15.733   4.658
51134W        W18202  23.713  31.461   4.634
51135W        W18203   6.873  36.039  14.442
51136W        W18204  24.594   3.711   2.373
51137W        W18205  10.363   4.358  14.830
51138W        W18206  41.429  34.501  14.301
51139W        W18207   0.335  10.750  14.934
51140W        W18208   4.857  28.116  13.919
51141W        W18209  44.483  25.049  11.521
51142W        W18210  43.888  26.519  11.478
51143W        W18211  43.474   7.379  11.976
51144W        W18212  41.420  30.020   1.390
51145W        W18213   9.283  17.192  13.459
51146W        W18214  33.484  21.726   3.849
51147W        W18215  41.538   5.298   2.350
51148W        W18216  22.043  24.035  11.100
51149W        W18217  42.786  36.031  13.856
51150W        W18218  24.558  30.461  13.819
51151W        W18219   1.848  19.087  12.441
51152W        W18220  34.607  10.775  12.946
51153W        W18221  16.606  42.993  12.952
51154W        W18222  27.095  34.088  11.127
51155W        W18223  21.165  31.485  10.464
51156W        W18224   3.885  19.587  10.623
51157W        W18225   5.293   1.789  10.565
51158W        W18226   9.700  43.484   0.445
51159W        W18227  42.817  42.352   3.660
51160W        W18228  12.346   3.399  12.467
51161W        W18229  14.227  24.043   4.243
51162W        W18230   5.261  43.427  11.938
51163W        W18231  44.292  16.808  10.503
51164W        W18232  16.286  29.469   2.183
51165W        W18233   2.929   1.316  14.302
51166W        W18234  44.810  14.702   0.432
51167W        W18235  13.752  29.991   1.801
51168W        W18236  12.771  21.183  13.829
51169W        W18237  29.130  43.354   4.769
51170W        W18238   1.959  27.691   3.314
51171W        W18239  30.991  29.661  12.529
51172W        W18240   1.943  35.103  13.487
51173W        W18241  32.604  16.269   0.909
51174W        W18242  43.484  37.987   4.652
51175W        W18243   0.797  10.264   2.863
51176W        W18244  35.388  18.664  11.554
51177W        W18245  36.383  23.493  12.348
51178W        W18246  31.548  41.017   0.328
51179W        W18247  28.995  38.847  11.863
51180W        W18248  20.686   8.360  12.524
51181W        W18249  41.043  37.972  10.565
51182W        W18250  28.479  11.165  10.460
51183W        W18251  44.882  16.242  11.531
51184W        W18252   0.420  43.285   4.130
51185W        W18253  39.531  18.132   1.422
51186W        W18254  33.061  26.498   4.168
51187W        W18255  44.764  24.057  11.380
51188W        W18256  39.034   0.747  13.950
51189W        W18257  13.622  17.269  14.396
51190W        W18258  16.683  24.041   4.265
51191W        W18259   7.248  35.883  14.320
51192W        W18260   8.224  17.708  10.042
51193W        W18261  33.450   0.314   4.139
51194W        W18262   3.284  34.072   2.189
51195W        W18263  29.982  39.406   2.782
51196W        W18264  16.789  43.860  13.483
51197W        W18265  19.170  19.581  14.000
51198W        W18266   9.264  30.547  13.520
51199W        W18267  31.535  43.872  12.994
51200W        W18268  30.610  29.072   3.377
51201W        W18269  22.078  21.093   0.798
51202W        W18270  27.077  30.091  14.919
51203W        W18271  25.963  21.249  14.774
51204W        W18272  24.113  17.797   0.468
51205W        W18273  25.645  44.290  12.930
51206W        W18274  41.815  13.802   4.353
51207W        W18275  42.408   4.918   2.416
51208W        W18276  21.028   0.892   2.776
51209W        W18277  42.480  43.001   5.109
51210W        W18278  39.823   5.830  13.028
51211W        W18279   5.283  33.463   2.844
51212W        W18280  38.073   2.353  12.093
51213W        W18281   7.669  38.833   1.360
51214W        W18282   1.368  32.399  12.559
51215W        W18283  22.169  22.616   4.787
51216W        W18284  40.467   6.199  11.395
51217W        W18285  21.693  29.443   0.855
51218W        W18286   8.768  12.823  13.463
51219W        W18287  32.582  24.610   2.744
51220W        W18288  20.051  16.088  13.504
51221W        W18289  11.326  21.129  12.499
51222W        W18290  16.589  38.354   1.725
51223W        W18291  14.135  22.093  12.078
51224W        W18292   9.182  24.034  11.985
51225W        W18293  28.990   7.347  10.630
51226W        W18294  44.967  11.782  10.138
51227W        W18295  30.648  40.313  14.283
51228W        W18296  13.692  28.451   1.311
51229W        W18297  37.552  35.400  12.367
51230W        W18298  33.397  30.494   2.305
51231W        W18299  10.241   6.909  12.434
51232W        W18300  35.464  11.677   4.665
51233W        W18301  37.379   4.314   4.693
51234W        W18302   0.914   8.687   0.318
51235W        W18303  28.648   4.274   2.703
51236W        W18304  10.847  19.134  14.458
51237W        W18305  30.029  11.360  11.005
51238W        W18306   6.768  24.092   4.244
51239W        W18307  22.216   4.369  12.089
51240W        W18308  10.852   6.752  12.975
51241W        W18309   4.769   7.760   0.400
51242W        W18310  19.718   6.196   4.820
51243W        W18311  36.003  23.011   2.889
51244W        W18312  36.994  38.369  14.975
51245W        W18313  11.254   9.658  11.044
51246W        W18314  42.288   9.739   0.417
51247W        W18315   3.312  14.771  13.371
51248W        W18316  13.164  38.466   1.351
51249W        W18317  22.565  31.069  13.433
51250W        W18318   4.323  20.611   4.178
51251W        W18319  43.987   5.804  10.522
51252W        W18320  40.000  42.306  14.003
51253W        W18321  41.336  24.689  14.301
51254W        W18322   2.460   9.338   3.748
51255W        W18323  24.038  27.504   1.228
51256W        W18324  15.644  28.966  14.451
51257W        W18325  15.317  34.535  14.938
51258W        W18326  43.961  30.003   3.253
51259W        W18327  24.092   9.244   3.152
51260W        W18328  33.001   1.800   3.243
51261W        W18329   0.289  14.190  10.506
51262W        W18330  12.695  44.292  10.092
51263W        W18331  33.021  38.432   1.822
51264W        W18332  39.456   6.862   3.336
51265W        W18333  27.621   2.820   3.858
51266W        W18334  19.134  22.583   4.638
51267W        W18335  17.062  20.652  13.836
51268W        W18336  21.747  35.598   2.688
51269W        W18337  17.794  29.035   3.853
51270W        W18338  13.737  28.583   4.758
51271W        W18339  10.174  18.576   4.200
51272W        W18340  10.187  36.909  14.782
51273W        W18341   6.426  35.105   0.339
51274W        W18342  15.279   7.732   1.319
51275W        W18343  29.502  22.544   9.954
51276W        W18344  21.588  22.641   4.600
51277W        W18345  12.153  35.107   4.253
51278W        W18346  28.576  30.048   1.727
51279W        W18347  20.265  42.344   3.184
51280W        W18348  28.090  29.522  13.881
51281W        W18349  32.118   4.876   1.355
51282W        W18350   3.893   6.199   2.785
51283W        W18351  11.185   8.237   1.217
51284W        W18352  31.902   2.939  10.894
51285W        W18353  21.567   0.338   3.273
51286W        W18354   5.342  24.585  14.296
51287W        W18355  10.217  19.214  14.937
51288W        W18356  36.576  13.157  14.763
51289W        W18357  25.554  15.701  10.461
51290W        W18358  17.178  18.578   3.800
51291W        W18359   5.802  26.530  10.537
51292W        W18360  35.889  43.781   3.149
51293W        W18361  28.068  27.515   3.201
51294W        W18362  24.674  16.768   3.666
51295W        W18363  39.914  34.015  12.840
51296W        W18364  34.019  33.486   1.230
51297W        W18365  39.885   4.279   4.718
51298W        W18366  13.277  15.252   3.231
51299W        W18367  34.587   0.924  14.923
51300W        W18368  18.244   8.773  11.953
51301W        W18369  16.195   7.807   3.768
51302W        W18370  42.959   6.376  11.047
51303W        W18371  27.072  42.404   0.303
51304W        W18372  22.545   1.943   0.726
51305W        W18373   1.401  16.132  14.842
51306W        W18374  38.063  43.398  14.303
51307W        W18375   0.380  31.539   3.636
51308W        W18376  23.189  22.713  13.504
51309W        W18377  43.869  43.864  10.456
51310W        W18378  33.402   3.302   3.351
51311W        W18379  18.604  10.172  14.315
51312W        W18380   2.846  43.455   2.322
51313W        W18381  40.939  34.436   2.775
51314W        W18382  33.419   8.897   1.424
51315W        W18383  24.649  18.239   0.739
51316W        W18384   4.422  44.917  12.875
51317W        W18385   4.324  10.675  11.874
51318W        W18386  21.095  13.233   3.200
51319W        W18387  14.795  31.032   3.386
51320W        W18388  13.772  22.520   2.182
51321W        W18389  22.733  35.075  10.480
51322W        W18390  18.236  20.213   9.622
51323W        W18391  32.036   7.189  14.458
51324W        W18392  12.314  33.498   2.344
51325W        W18393  13.632  25.485   0.865
51326W        W18394  12.163  38.043   4.748
51327W        W18395  26.602  22.236   2.246
51328W        W18396  13.207  38.447   4.632
51329W        W18397  35.064   1.329  14.823
51330W        W18398  42.424   7.364   4.761
51331W        W18399  21.157  21.096   1.232
51332W        W18400   4.286  44.468   3.365
51333W        W18401   8.748  31.491  13.955
51334W        W18402  44.958  14.755   1.409
51335W        W18403  40.913  16.143  14.483
51336W        W18404  23.087  44.417  11.495
51337W        W18405  38.512  44.488  12.881
51338W        W18406  36.486   1.362   4.749
51339W        W18407   6.805  34.428  10.999
51340W        W18408  22.582  19.099   4.163
51341W        W18409   4.732  20.687   0.442
51342W        W18410  34.412  38.546  10.970
51343W        W18411  44.310   5.321  10.586
51344W        W18412  40.497   5.858   4.191
51345W        W18413  27.084   6.853   4.119
51346W        W18414  23.183  41.917   3.186
51347W        W18415  33.542  14.112  11.897
51348W        W18416  29.147  27.983   2.246
51349W        W18417   8.690  13.259   1.389
51350W        W18418  21.746  22.664   2.405
51351W        W18419  26.581  37.868  12.451
51352W        W18420  42.288   3.218  11.012
51353W        W18421  30.642  10.876   3.374
51354W        W18422  34.524  38.539   2.825
51355W        W18423   0.898  43.875   3.635
51356W        W18424  39.323  17.209   1.775
51357W        W18425  22.112  27.965  12.095
51358W        W18426  30.547  19.235  13.807
51359W        W18427  13.105   7.255  10.558
51360W        W18428  42.860  20.029   2.741
51361W        W18429  32.574  42.498  11.905
51362W        W18430  21.204  34.031  12.870
51363W        W18431  21.716  38.848   3.832
51364W        W18432  15.190  26.118  12.932
51365W        W18433  26.662  30.626  10.077
51366W        W18434  15.184  37.456  11.596
51367W        W18435   8.851  23.505  12.543
51368W        W18436  20.526   0.430   1.754
51369W        W18437  13.840  13.139   2.715
51370W        W18438  11.272  36.018  11.879
51371W        W18439  15.162  38.425   3.803
51372W        W18440  39.469  21.065   5.305
51373W        W18441  29.956  18.731  11.537
51374W        W18442   4.814  39.851  11.050
51375W        W18443  38.022   3.850  10.419
51376W        W18444  37.029  12.351   3.172
51377W        W18445  23.031   8.677   4.228
51378W        W18446   0.451  28.075  11.053
51379W        W18447  17.295  36.391  13.061
51380W        W18448  30.619  24.145   1.877
51381W        W18449  16.643  26.488  10.411
51382W        W18450  16.286  36.982   0.734
51383W        W18451  34.093   2.950   4.664
51384W        W18452   2.940  41.819   0.835
51385W        W18453  25.534  28.962  11.057
51386W        W18454   2.961  13.201  12.418
51387W        W18455  44.826  27.995  12.994
51388W        W18456  20.554  26.572   1.766
51389W        W18457  25.075  26.161  10.431
51390W        W18458  32.017  17.163  13.033
51391W        W18459  35.857  42.450  14.340
51392W        W18460  44.883  23.033  13.906
51393W        W18461   0.775  33.035  13.419
51394W        W18462  28.029  33.504  12.089
51395W        W18463  41.009  29.538   3.223
51396W        W18464  43.468  16.737  10.529
51397W        W18465  35.026  24.001   2.705
51398W        W18466  25.571  14.600  14.829
51399W        W18467  17.564  30.640  11.477
51400W        W18468  24.519  22.737  11.974
51401W        W18469  35.489   9.276  11.051
51402W        W18470  35.038  41.292   1.409
51403W        W18471   3.422  30.541   4.693
51404W        W18472   8.347   9.327   2.327
51405W        W18473  12.718  24.574  10.416
51406W        W18474  39.949   7.878  14.989
51407W        W18475  20.538   6.708   2.728
51408W        W18476   9.787  19.637   2.212
51409W        W18477   3.332   3.897  13.998
51410W        W18478   0.803   6.865   4.301
51411W        W18479  37.978  35.107  10.645
51412W        W18480  16.216  31.583   3.272
51413W        W18481  20.252  42.299  10.560
51414W        W18482  36.874  35.505   0.304
51415W        W18483  38.872  22.528   0.798
51416W        W18484  37.958  26.043  12.374
51417W        W18485   1.935  22.739   4.676
51418W        W18486  16.765  15.105  12.494
51419W        W18487  18.659   7.903   0.311
51420W        W18488  31.403  35.543   0.316
51421W        W18489  19.732  39.553   3.286
51422W        W18490  44.951   6.183   3.243
51423W        W18491  22.542  34.070   4.838
51424W        W18492  14.650  40.489  13.314
51425W        W18493  41.508  42.312  11.079
51426W        W18494  43.945  41.042  10.420
51427W        W18495  42.486  35.021  12.902
51428W        W18496  25.081  10.694   3.631
51429W        W18497  40.920  21.563  14.394
51430W        W18498   6.256  43.766   1.405
51431W        W18499  17.290  16.736  14.018
51432W        W18500  13.659  15.579   1.436
51433W        W18501   7.261   3.375  11.034
51434W        W18502  12.688  26.192   3.780
51435W        W18503  14.198   8.359   2.855
51436W        W18504  11.788  41.799   2.261
51437W        W18505  16.241  38.410  12.984
51438W        W18506  39.941  16.123   0.797
51439W        W18507  32.034  39.995  14.904
51440W        W18508  29.102  35.959  12.386
51441W        W18509  30.033  23.162  12.097
51442W        W18510  34.375   9.296  13.841
51443W        W18511   4.803  33.610   0.329
51444W        W18512  23.115  23.551  14.961
51445W        W18513   0.293  11.755   2.852
51446W        W18514   8.676  31.502  10.603
51447W        W18515  44.859  31.615   1.278
51448W        W18516  13.739  35.456  14.485
51449W        W18517   0.348  17.134   4.643
51450W        W18518  16.301   5.804   3.150
51451W        W18519  23.190  25.631  14.904
51452W        W18520   2.446   2.346  11.077
51453W        W18521  21.223  42.481  12.532
51454W        W18522  18.721  30.932   0.401
51455W        W18523   9.862  25.605  10.428
51456W        W18524  24.716  40.485  11.900
51457W        W18525  25.603  10.224   0.918
51458W        W18526  31.539  33.489   2.249
51459W        W18527  41.486  26.197   4.659
51460W        W18528  36.955  33.546   0.870
51461W        W18529  33.573  10.680  12.432
51462W        W18530   4.907  41.921   3.760
51463W        W18531  14.328  13.845  14.008
51464W        W18532   9.236   2.729  10.944
51465W        W18533   3.903  25.053  11.422
51466W        W18534   5.898   1.247  14.377
51467W        W18535  43.342  23.553  11.095
51468W        W18536  19.641  37.487  13.048
51469W        W18537  19.077  14.687  12.555
51470W        W18538  26.637   2.967  13.026
51471W        W18539  25.671  20.627   0.265
51472W        W18540   4.221  41.532   3.210
51473W        W18541  12.797   7.296   1.305
51474W        W18542  26.969  11.364  13.055
51475W        W18543   8.320  43.513  12.949
51476W        W18544  10.307   8.334   1.766
51477W        W18545   5.265  39.394   3.642
51478W        W18546  42.340  10.695  13.916
51479W        W18547   9.272  30.009  12.572
51480W        W18548  33.895  16.109   3.320
51481W        W18549  14.332  40.467  11.103
51482W        W18550   5.302  33.431   3.298
51483W        W18551   1.875  29.061   3.767
51484W        W18552  43.833  40.537  13.036
51485W        W18553  25.684  21.535  14.957
51486W        W18554  24.107  42.332  12.406
51487W        W18555  40.526  29.066  14.880
51488W        W18556  44.377  34.906  10.066
51489W        W18557  34.564   3.954  14.429
51490W        W18558  17.589  12.340   3.217
51491W        W18559  44.320  44.323   2.803
51492W        W18560  20.096  14.316  14.491
51493W        W18561  22.131  28.456   1.785
51494W        W18562   9.714  28.461  12.964
51495W        W18563  21.560   6.205   1.876
51496W        W18564   1.912  43.480  10.497
51497W        W18565  26.593  18.055  11.983
51498W        W18566  43.828  32.114   0.397
51499W        W18567  43.403   9.673   4.788
51500W        W18568  12.661   4.922   3.280
51501W        W18569  17.716  11.812  12.954
51502W        W18570  12.714   0.947   2.322
51503W        W18571  13.846  38.933  11.413
51504W        W18572  30.552  30.066  11.035
51505W        W18573  18.268  13.754   4.227
51506W        W18574  20.746  26.038   2.322
51507W        W18575   7.679  20.267   4.760
51508W        W18576   2.357   7.784  10.453
51509W        W18577  41.367  17.623  14.348
51510W        W18578  22.715   5.198   2.388
51511W        W18579   0.452  15.629  10.121
51512W        W18580  19.202  41.939  10.492
51513W        W18581  23.133  41.383   1.731
51514W        W18582  37.435  15.725   4.800
51515W        W18583  25.060  19.211   2.853
51516W        W18584   3.904   9.712   0.316
51517W        W18585  33.039  23.237  13.814
51518W        W18586  19.676  29.960   2.359
51519W        W18587   3.303  22.230  11.039
51520W        W18588  17.666  41.304  13.031
51521W        W18589  18.253   5.354  14.763
51522W        W18590   5.837  33.887  13.856
51523W        W18591  33.997  19.609   3.361
51524W        W18592  22.171  14.157  12.998
51525W        W18593  16.208   7.251  11.099
51526W        W18594  27.559   4.349   1.849
51527W        W18595  27.143  28.456  12.960
51528W        W18596  32.456  33.886  13.531
51529W        W18597  33.386  14.301   3.180
51530W        W18598  26.118  35.998  13.062
51531W        W18599  23.233  27.647   0.383
51532W        W18600  30.597  39.521  14.380
51533W        W18601   2.842   6.887   1.923
51534W        W18602  17.693  13.225   1.294
51535W        W18603  29.656  39.374  13.375
51536W        W18604  20.681  18.121  11.092
51537W        W18605  31.931  42.350  13.048
51538W        W18606   9.760  24.993   4.601
51539W        W18607   4.275   2.406  12.415
51540W        W18608  33.622  18.739   3.691
51541W        W18609  30.617  21.031  13.311
51542W        W18610  38.974  40.540  11.371
51543W        W18611   6.745  11.187  11.952
51544W        W18612  12.210  41.816   1.238
51545W        W18613  25.510   4.882  13.525
51546W        W18614  18.554  13.270   3.281
51547W        W18615  43.356   3.739   4.629
51548W        W18616   0.821  37.457   3.228
51549W        W18617  25.654  36.488   4.818
51550W        W18618  35.862  33.385  10.644
51551W        W18619  40.519  43.796  10.460
51552W        W18620  24.057  21.092  12.879
51553W        W18621  35.423  30.023   1.298
51554W        W18622  10.200  24.145   0.775
51555W        W18623  39.864  41.967   1.389
51556W        W18624  41.990  35.878   1.247
51557W        W18625   6.230  10.262   4.282
51558W        W18626   7.751  35.407   4.773
51559W        W18627  34.038  31.002  10.504
51560W        W18628   3.724  16.193  14.380
51561W        W18629  32.619  10.815   2.726
51562W        W18630  41.311   5.915   2.260
51563W        W18631   0.813  15.684   4.608
51564W        W18632   5.805  12.116  12.970
51565W        W18633  14.119  22.058  14.763
51566W        W18634  36.873   3.930   0.791
51567W        W18635  11.347  34.083   0.272
51568W        W18636  13.234  44.836   0.454
51569W        W18637  11.867   0.271   2.360
51570W        W18638  30.608  15.700  11.946
51571W        W18639  41.317   6.224  13.316
51572W        W18640  23.166  30.154   2.209
51573W        W18641  29.995  28.001   0.459
51574W        W18642  33.610  26.648   2.245
51575W        W18643  29.074  21.024  13.464
51576W        W18644  32.929   7.897  12.554
51577W        W18645  20.114  19.637  11.087
51578W        W18646   1.256  12.281   0.965
51579W        W18647  37.361  18.705   5.231
51580W        W18648  30.553   7.730   3.856
51581W        W18649   3.857  32.414   2.364
51582W        W18650  14.820  43.007   2.193
51583W        W18651  33.099  21.155   0.388
51584W        W18652  10.762  42.900   4.739
51585W        W18653  28.089  38.559  11.532
51586W        W18654   5.309  15.664   1.425
51587W        W18655   0.341  14.751   0.775
51588W        W18656  40.415  19.109  11.895
51589W        W18657   2.884   6.298   0.923
51590W        W18658  14.157  44.925  10.949
51591W        W18659  26.458  22.703   5.207
51592W        W18660  35.003  31.416   0.335
51593W        W18661  42.941  34.916  10.541
51594W        W18662  19.084  19.721   2.737
51595W        W18663  18.197  41.528   0.412
51596W        W18664  39.413  14.792   2.187
51597W        W18665  16.100   0.472  14.505
51598W        W18666  30.923   6.917  11.039
51599W        W18667  22.014   7.777   2.887
51600W        W18668  42.898  14.616  12.526
51601W        W18669  15.796  10.742   0.959
51602W        W18670   9.245  36.906  11.493
51603W        W18671  20.260  22.691   1.300
51604W        W18672  40.302  41.024   0.320
51605W        W18673  37.867  10.687   3.787
51606W        W18674  29.132   1.385  12.387
51607W        W18675  12.237   4.305   3.210
51608W        W18676  34.943  37.499   0.459
51609W        W18677  36.086  25.051   4.114
51610W        W18678  24.539  37.355  12.901
51611W        W18679  33.029  15.807   1.789
51612W        W18680  11.710   4.776   3.203
51613W        W18681  29.125  31.138   2.744
51614W        W18682  24.197  19.776  10.641
51615W        W18683  32.458  37.486  12.996
51616W        W18684  33.889  39.555  14.993
51617W        W18685  44.967  35.020  14.906
51618W        W18686  23.724  42.812  14.815
51619W        W18687  17.790   1.295  13.474
51620W        W18688  27.068  11.750   1.765
51621W        W18689  40.333  34.993  14.015
51622W        W18690  17.732  18.591   3.838
51623W        W18691  14.695  24.208   4.664
51624W        W18692  35.106  21.692   0.934
51625W        W18693  34.007  22.034   1.934
51626W        W18694   1.885  10.737   0.366
51627W        W18695  28.116  22.128   4.309
51628W        W18696  34.051  14.110  12.495
51629W        W18697  22.562   8.757  13.539
51630W        W18698  36.061  19.614  11.121
51631W        W18699   4.885  25.057  14.423
51632W        W18700  42.397   9.214  13.903
51633W        W18701  25.966  33.016   4.776
51634W        W18702  33.619  29.086   3.661
51635W        W18703  20.707  14.243  11.431
51636W        W18704  38.534  30.951   0.265
51637W        W18705  16.096   4.862  11.982
51638W        W18706  38.478   8.175   2.866
51639W        W18707  27.469  12.194   1.215
51640W        W18708  37.833  23.520   3.774
51641W        W18709   0.831  38.516  10.605
51642W        W18710  38.464  12.249  14.884
51643W        W18711  14.700  39.431  12.467
51644W        W18712  37.563  25.655  14.880
51645W        W18713  25.217  21.719   0.461
51646W        W18714  30.949   4.786   2.722
51647W        W18715  19.693  40.323  14.027
51648W        W18716  21.081   5.362   4.208
51649W        W18717  44.791  24.037   3.259
51650W        W18718  20.192   2.241  12.877
51651W        W18719  19.576  39.421  11.958
51652W        W18720  40.534  17.161   3.779
51653W        W18721  20.641   4.376   1.387
51654W        W18722  19.205   5.223   1.240
51655W        W18723  44.361  33.914   0.789
51656W        W18724  23.192  28.597  14.004
51657W        W18725  12.846  22.066   4.303
51658W        W18726  21.741  25.692   2.369
51659W        W18727  22.502  35.425   4.116
51660W        W18728  14.612  39.972   4.698
51661W        W18729  37.486  20.524  14.893
51662W        W18730  23.195  17.716   4.118
51663W        W18731  37.362  26.582   0.906
51664W        W18732  35.999   3.754  10.627
51665W        W18733  43.492  15.109  13.972
51666W        W18734  35.469  33.515  11.908
51667W        W18735  23.670  26.957  13.421
51668W        W18736  19.577  22.586  14.365
51669W        W18737  28.583  35.029  11.001
51670W        W18738  40.954  38.532  14.956
51671W        W18739  42.292  31.051  10.551
51672W        W18740  23.152  33.041  12.381
51673W        W18741  16.806  30.032  14.473
51674W        W18742  38.047  37.836  12.356
51675W        W18743  34.573  15.702  11.460
51676W        W18744  16.192  43.494  13.467
51677W        W18745  20.679  20.696  13.040
51678W        W18746  18.788  23.225   0.747
51679W        W18747  37.467  41.373  13.422
51680W        W18748   2.851  23.706   2.278
51681W        W18749  17.657  18.235  13.315
51682W        W18750  29.529  17.122   2.669
51683W        W18751  13.134   0.454  13.018
51684W        W18752   4.313  24.142  11.971
51685W        W18753  28.957  19.109  12.441
51686W        W18754   2.886  21.219  11.470
51687W        W18755  35.025  27.060  13.978
51688W        W18756  20.595  34.068   3.861
51689W        W18757  33.542  33.400   1.914
51690W        W18758   2.931   0.820   3.861
51691W        W18759  34.118  14.242  10.892
51692W        W18760  26.519  17.664   4.790
51693W        W18761  19.069  13.198  11.125
51694W        W18762  27.502  40.992   0.369
51695W        W18763   3.389  14.832   4.248
51696W        W18764  25.640  43.337  10.552
51697W        W18765  27.079  40.810  11.067
51698W        W18766  24.223  25.697  10.915
51699W        W18767  21.565  18.062   2.755
51700W        W18768  13.670  27.159  14.941
51701W        W18769  16.804  36.073   3.184
51702W        W18770  26.183   8.205   1.223
51703W        W18771  37.403  34.930   5.182
51704W        W18772  29.080  14.178  10.906
51705W        W18773  29.620  11.702   4.669
51706W        W18774  34.876  14.759  13.871
51707W        W18775   7.809  30.051   4.203
51708W        W18776  39.512  34.601   3.286
51709W        W18777  10.737  23.116  13.483
51710W        W18778  33.895  32.539   1.740
51711W        W18779  27.988  25.074  14.959
51712W        W18780  32.619  13.661   0.300
51713W        W18781  16.218  24.549  13.857
51714W        W18782  34.515  40.382  12.921
51715W        W18783  24.675   1.943  13.546
51716W        W18784   5.770  12.632  11.064
51717W        W18785   6.233  32.096   4.242
51718W        W18786  30.910  33.540  10.947
51719W        W18787  24.146   1.481  14.844
51720W        W18788  25.479   7.268  11.465
51721W        W18789  14.309  38.875  11.014
51722W        W18790  15.213  10.772   2.372
51723W        W18791  43.437  32.039   1.815
51724W        W18792  35.992   5.849  12.966
51725W        W18793  19.596  37.519   2.404
51726W        W18794   5.206  20.064   3.201
51727W        W18795  23.220  12.676   2.747
51728W        W18796  41.376  10.294   3.705
51729W        W18797  33.077   6.388   3.159
51730W        W18798  37.453  35.417   1.774
51731W        W18799  14.137  35.375   3.217
51732W        W18800   4.760   4.903   0.946
51733W        W18801  41.956  41.953   0.812
51734W        W18802  28.158  27.104  12.344
51735W        W18803   2.805  44.497  13.521
51736W        W18804   6.870  22.155   1.437
51737W        W18805  34.031   1.404   3.772
51738W        W18806  30.985   4.866   4.773
51739W        W18807  35.899  20.145   4.781
51740W        W18808  24.096  34.550   3.870
51741W        W18809  31.089  13.175  10.608
51742W        W18810  14.762  38.834   4.607
51743W        W18811  23.213  44.498  13.328
51744W        W18812  39.499  23.035   2.302
51745W        W18813  17.602  12.174  13.891
51746W        W18814  24.547  21.034  12.574
51747W        W18815  29.148  28.485  13.015
51748W        W18816  11.186  33.545  13.411
51749W        W18817   5.758  37.503   4.703
51750W        W18818  23.690   5.355   4.711
51751W        W18819   4.317  30.625  13.036
51752W        W18820  17.798   6.751   0.912
51753W        W18821   8.386  14.257  12.999
51754W        W18822  43.804  43.301  14.345
51755W        W18823  38.881  21.103  14.351
51756W        W18824  30.018  20.167   2.192
51757W        W18825  10.231  39.979   4.315
51758W        W18826  34.389  26.096  14.770
51759W        W18827  37.889  23.527   0.385
51760W        W18828   2.466  44.870   1.262
51761W        W18829   5.324  15.642  12.408
51762W        W18830  13.109  19.778   0.275
51763W        W18831  36.879  22.039  13.331
51764W        W18832  40.328  43.996  13.982
51765W        W18833  30.962  12.681   1.825
51766W        W18834  11.635  17.186  11.506
51767W        W18835  27.192  15.595  13.388
51768W        W18836  23.686  24.511  11.436
51769W        W18837  24.022  22.014  12.539
51770W        W18838  37.574  14.136  14.803
51771W        W18839  33.533  22.124   2.817
51772W        W18840  26.664  39.394   2.376
51773W        W18841  27.078  30.981  12.926
51774W        W18842  25.478  37.944  14.765
51775W        W18843  37.541   0.473  12.005
51776W        W18844  40.305  22.132   3.838
51777W        W18845  21.212  12.215   4.627
51778W        W18846   3.387   5.350   2.198
51779W        W18847  24.606  32.036   1.918
51780W        W18848  15.262  29.162   1.229
51781W        W18849   1.422  40.365  12.920
51782W        W18850  38.475  20.135  11.083
51783W        W18851  16.642  27.115   2.698
51784W        W18852  43.985   5.710  14.427
51785W        W18853  33.131  40.812   4.302
51786W        W18854   3.389  16.111   0.958
51787W        W18855   2.369  23.711  12.473
51788W        W18856  39.042  13.824  13.988
51789W        W18857  16.081  35.046  12.530
51790W        W18858  33.007   2.727  11.075
51791W        W18859  40.948  17.589  11.456
51792W        W18860  19.120  18.691   1.313
51793W        W18861  43.918  15.302   0.875
51794W        W18862   0.968  40.050   0.245
51795W        W18863  36.065  37.439  11.063
51796W        W18864  35.902  33.470  13.484
51797W        W18865  37.578  35.028  12.549
51798W        W18866  26.634  41.524  12.377
51799W        W18867  26.961  43.364  11.598
51800W        W18868  13.218  36.469   1.270
51801W        W18869  22.139  29.928   0.291
51802W        W18870  17.193  35.945   0.252
51803W        W18871  26.623  34.576  14.278
51804W        W18872  24.695  32.956   4.658
51805W        W18873  31.995  14.736  11.910
51806W        W18874  22.654   9.273   2.719
51807W        W18875  13.641  12.763  13.906
51808W        W18876  17.660  20.729   3.168
51809W        W18877  23.591  22.543  10.546
51810W        W18878  36.060  10.362   2.219
51811W        W18879  14.788  18.142   3.840
51812W        W18880  26.639  44.763  12.029
51813W        W18881   3.744  28.119  12.438
51814W        W18882   8.810  13.305   0.903
51815W        W18883  35.521  18.657   2.758
51816W        W18884  25.169   7.679  14.826
51817W        W18885  14.824  15.625  10.012
51818W        W18886  16.177   0.470   1.258
51819W        W18887  38.396  33.942   1.234
51820W        W18888  23.197  14.178   3.865
51821W        W18889   9.303  25.121   1.929
51822W        W18890  11.782  34.071   4.310
51823W        W18891  40.539  31.009  10.963
51824W        W18892  42.524  32.974   3.722
51825W        W18893  32.581  21.518   3.788
51826W        W18894  28.127  27.675  14.357
51827W        W18895  38.442   2.284   4.659
51828W        W18896   9.867  10.681  11.937
51829W        W18897  20.729  10.170  11.874
51830W        W18898  12.690  12.173   1.803
51831W        W18899  21.576  14.652  14.510
51832W        W18900   6.887  44.472  12.419
51833W        W18901  22.515  32.971   2.252
51834W        W18902  21.519  34.962  13.868
51835W        W18903  16.721  36.955   0.368
51836W        W18904  14.229  30.488   3.751
51837W        W18905  14.796  13.699  10.889
51838W        W18906   9.340  19.746   0.332
51839W        W18907  14.712  24.184  14.508
51840W        W18908  28.134   8.362   9.934
51841W        W18909  13.609  33.620   4.117
51842W        W18910  15.101  36.009  10.409
51843W        W18911  44.419  27.051   0.325
51844W        W18912  37.022  21.649   2.194
51845W        W18913  27.559  24.654  12.858
51846W        W18914  15.270   9.255   3.795
51847W        W18915  41.831  30.054   0.934
51848W        W18916  35.367  13.168  13.464
51849W        W18917  29.056  34.948   1.824
51850W        W18918  17.664  16.292   2.883
51851W        W18919  19.141  31.647  11.967
51852W        W18920  27.605  43.516  12.969
51853W        W18921  42.905  14.687   2.188
51854W        W18922  25.665   5.410   3.372
51855W        W18923  32.620   8.257  11.517
51856W        W18924   3.362  31.082   4.265
51857W        W18925  26.502  35.930  10.140
51858W        W18926  35.099  44.767  14.911
51859W        W18927  31.933  20.184   2.783
51860W        W18928  31.647   2.309   3.744
51861W        W18929  15.139  12.789   0.896
51862W        W18930   3.369  27.137   0.874
51863W        W18931   5.716  18.217  12.847
51864W        W18932  16.611  24.534  14.810
51865W        W18933  43.769  38.963  13.469
51866W        W18934  25.168   3.864  11.611
51867W        W18935  36.430   7.290   4.115
51868W        W18936   5.255   1.320  13.912
51869W        W18937  35.428   8.721  12.580
51870W        W18938   7.318  18.274  13.935
51871W        W18939  11.809  36.010  10.563
51872W        W18940  18.055  34.868  13.526
51873W        W18941   3.821  43.413   2.823
51874W        W18942  39.853  39.368  10.959
51875W        W18943  40.876  17.784  12.551
51876W        W18944  27.173   4.772  12.414
51877W        W18945   9.375  10.346  14.417
51878W        W18946  21.204  16.208   0.267
51879W        W18947  22.619  44.494   2.718
51880W        W18948  19.116  41.462  11.611
51881W        W18949  22.715  39.005  11.425
51882W        W18950  42.876  42.464  10.588
51883W        W18951  44.883   3.458   3.763
51884W        W18952  16.637  41.832   0.917
51885W        W18953  21.189  37.451   3.356
51886W        W18954  40.506  37.538  11.039
51887W        W18955  19.579  41.422  14.793
51888W        W18956   5.288  21.596  11.031
51889W        W18957  11.321  21.137   2.331
51890W        W18958  18.262  27.985  14.933
51891W        W18959  40.539   5.918   2.714
51892W        W18960  30.573  12.154  14.965
51893W        W18961  30.023  29.054   2.391
51894W        W18962  27.127  34.090  11.958
51895W        W18963  25.970   1.391   0.372
51896W        W18964  10.230  41.042  10.479
51897W        W18965   0.296  31.585   2.856
51898W        W18966  33.900  24.630   4.687
51899W        W18967  30.586  35.369  14.382
51900W        W18968  15.678  44.439  13.501
51901W        W18969  15.640  38.853   1.875
51902W        W18970   1.294  10.229   3.714
51903W        W18971   5.719  34.553   0.770
51904W        W18972   9.180  42.796   1.297
51905W        W18973  42.822   2.874  12.057
51906W        W18974  21.670   7.854   4.118
51907W        W18975  19.692  35.374  14.817
51908W        W18976  13.631  39.424   4.211
51909W        W18977   2.945  44.906   1.268
51910W        W18978  21.670  33.888   4.743
51911W        W18979  29.454  15.597  13.399
51912W        W18980   7.356  27.044   2.697
51913W        W18981   1.908  27.652   2.663
51914W        W18982   5.735  26.684   3.657
51915W        W18983   8.693   2.413   2.379
51916W        W18984   7.768  39.858  13.802
51917W        W18985  30.911   8.210  11.892
51918W        W18986  38.966  16.744  14.807
51919W        W18987  34.446   6.894   4.168
51920W        W18988  44.365  28.077   5.085
51921W        W18989  17.657  15.269   4.799
51922W        W18990  37.849  39.992   3.224
51923W        W18991  36.409  34.406  10.019
51924W        W18992   1.866  23.642  14.468
51925W        W18993  35.496  29.925  12.059
51926W        W18994  17.694  19.665   0.276
51927W        W18995  18.295   2.382   3.712
51928W        W18996  36.414  22.248  11.442
51929W        W18997   1.928   7.248  12.945
51930W        W18998  34.918  44.783  13.330
51931W        W18999  34.389  38.560  11.392
51932W        W19000  35.954   3.222  14.364
51933W        W19001  26.506  31.911   1.353
51934W        W19002  32.588   7.416   2.196
51935W        W19003  33.581  15.688   0.850
51936W        W19004  25.547   9.676   3.295
51937W        W19005  37.542   6.222   2.413
51938W        W19006  18.119   7.297  10.923
51939W        W19007   3.827   7.285  13.045
51940W        W19008  26.592  35.394   0.811
51941W        W19009  41.443  42.503   0.940
51942W        W19010  24.191  30.995   4.703
51943W        W19011  13.640   6.267  11.117
51944W        W19012   3.384   9.284  11.518
51945W        W19013   3.899  24.074   3.357
51946W        W19014  34.474  42.778  11.060
51947W        W19015  13.336  20.752  11.471
51948W        W19016  24.046  20.594  11.444
51949W        W19017   3.425  26.161  14.296
51950W        W19018  21.161  19.109  12.510
51951W        W19019  29.926  23.704   3.735
51952W        W19020  18.113  16.160  13.932
51953W        W19021  21.180  44.775   0.291
51954W        W19022   4.827  42.493  11.004
51955W        W19023  12.263  21.580   0.390
51956W        W19024  18.578  25.551  12.382
51957W        W19025  12.739  14.112  10.574
51958W        W19026  31.463  31.524   3.868
51959W        W19027  17.651  25.099  13.836
51960W        W19028  17.087  13.133   2.229
51961W        W19029  44.789  44.316  13.933
51962W        W19030  17.786  32.423  11.922
51963W        W19031  27.455  44.330   0.915
51964W        W19032  16.594   3.751  12.960
51965W        W19033  25.630  19.119  13.851
51966W        W19034  43.458  24.590  13.954
51967W        W19035   0.298  15.737  12.366
51968W        W19036  39.955   3.452   4.145
51969W        W19037  36.359   6.888   4.200
51970W        W19038  14.167  22.183   2.230
51971W        W19039  32.450  15.290   3.376
51972W        W19040  19.568  10.226  14.921
51973W        W19041  36.397  23.136  13.032
51974W        W19042  16.713  27.664   4.192
51975W        W19043  35.436  25.995  13.919
51976W        W19044  13.709  27.183  13.883
51977W        W19045   5.275  41.921  13.358
51978W        W19046  24.575  43.941  13.927
51979W        W19047   3.913  11.808  12.044
51980W        W19048  32.553  15.111   0.880
51981W        W19049  20.143  28.466   3.821
51982W        W19050   2.324  30.517  10.133
51983W        W19051  12.225   3.233  14.866
51984W        W19052  34.103  14.136   3.295
51985W        W19053  44.438  31.085   2.261
51986W        W19054  32.960   7.735  11.023
51987W        W19055  20.564  16.305   1.707
51988W        W19056  26.473  36.903   1.801
51989W        W19057   7.263  34.435   0.253
51990W        W19058  15.732  16.599  11.913
51991W        W19059  19.092  25.473  13.917
51992W        W19060  43.974  44.971  13.887
51993W        W19061  23.040  44.940   3.686
51994W        W19062   4.873  41.505  10.448
51995W        W19063   7.730   1.332  11.920
51996W        W19064  22.117  34.503   3.190
51997W        W19065  22.645   7.819  12.088
51998W        W19066  24.195   7.338  13.041
51999W        W19067  35.479  35.358   1.404
52000W        W19068   3.931  22.697  10.027
52001W        W19069  41.924  15.635  13.905
52002W        W19070  19.591  41.959  14.469
52003W        W19071  22.726  15.109   2.739
52004W        W19072  21.133  12.136   1.275
52005W        W19073  20.110  15.322   4.758
52006W        W19074  39.862  21.218   2.249
52007W        W19075   5.895  17.076  12.372
52008W        W19076   3.757  32.116  13.910
52009W        W19077  20.186  16.718   2.751
52010W        W19078  31.423  39.013   2.715
52011W        W19079  16.175  23.542  14.389
52012W        W19080  38.820  25.671   0.302
52013W        W19081  17.160  24.074  14.489
52014W        W19082  13.294  12.705   3.716
52015W        W19083   1.830  17.185   3.274
52016W        W19084  19.712   6.265   1.765
52017W        W19085  29.148  28.593   2.229
52018W        W19086   1.428  21.599  13.989
52019W        W19087   8.281   9.821   3.342
52020W        W19088  26.136  42.995   2.283
52021W        W19089  11.127  33.893  14.913
52022W        W19090  24.509  16.720  13.910
52023W        W19091  35.488  29.039   0.242
52024W        W19092  17.651  28.124   4.693
52025W        W19093  10.278  22.601   3.769
52026W        W19094  21.172   8.720  11.404
52027W        W19095  10.155   8.892  12.534
52028W        W19096  12.751  27.557   2.254
52029W        W19097  18.553  13.683   4.680
52030W        W19098  25.545  19.589  12.508
52031W        W19099  19.693  12.170   0.259
52032W        W19100  34.112  44.826  14.334
52033W        W19101  27.038  12.811   0.386
52034W        W19102  23.535  37.529  12.059
52035W        W19103  22.206   5.347  11.958
52036W        W19104   0.340  26.591  14.299
52037W        W19105   1.309  12.285   4.264
52038W        W19106  39.445  10.830   4.184
52039W        W19107   4.387  21.214  12.577
52040W        W19108  21.215   4.813  14.446
52041W        W19109   6.703  22.211  12.946
52042W        W19110  26.466  11.787  10.583
52043W        W19111  37.873   1.858  12.865
52044W        W19112  40.316  32.999  12.985
52045W        W19113  17.622  25.530   4.164
52046W        W19114   8.834  41.376   1.761
52047W        W19115  12.326  10.793  12.526
52048W        W19116  39.848  25.034  13.966
52049W        W19117  12.757  27.570  12.931
52050W        W19118   4.805   8.189   1.850
52051W        W19119  29.996  36.917  11.578
52052W        W19120  41.473   9.844  12.548
52053W        W19121  11.746  11.744   2.874
52054W        W19122  33.517   5.874   0.776
52055W        W19123   8.700  36.406   2.196
52056W        W19124  29.011   8.666   2.693
52057W        W19125   3.363  33.382  10.082
52058W        W19126  39.856  28.126  12.470
52059W        W19127  35.439  36.974   0.759
52060W        W19128  20.662   5.860   2.345
52061W        W19129   3.363  44.000   9.955
52062W        W19130  11.207  11.836   3.263
52063W        W19131  26.672   8.846  10.072
52064W        W19132  19.281  42.386  10.584
52065W        W19133   8.728  31.435   4.254
52066W        W19134  39.403  21.233   3.758
52067W        W19135   7.910  13.673   0.405
52068W        W19136  22.228  43.326  13.934
52069W        W19137  36.589  15.171   2.287
52070W        W19138  21.714  28.630   1.415
52071W        W19139  31.547  38.533  14.840
52072W        W19140  27.472  24.688   3.364
52073W        W19141  25.669  39.420  11.085
52074W        W19142  29.438  11.269  12.924
52075W        W19143  17.617  43.345  11.448
52076W        W19144  34.885  36.886  12.527
52077W        W19145  31.516   3.422  14.867
52078W        W19146  23.049  38.863  12.424
52079W        W19147  23.238  36.428  14.009
52080W        W19148  44.006   4.342  10.979
52081W        W19149   8.666  38.053   2.231
52082W        W19150  40.043  21.611  13.871
52083W        W19151   2.851   4.906  13.311
52084W        W19152  17.609   6.843   2.310
52085W        W19153  30.457  35.429  11.092
52086W        W19154  28.533   7.380  13.459
52087W        W19155   5.766  16.759   1.767
52088W        W19156  35.941  40.828  13.402
52089W        W19157   5.875  20.522   9.949
52090W        W19158  43.873  41.321   3.763
52091W        W19159  22.171  32.481   0.466
52092W        W19160  39.541  18.562   0.317
52093W        W19161  15.103  13.842  10.471
52094W        W19162  25.156  43.847  10.930
52095W        W19163  42.515  24.182  11.608
52096W        W19164  27.651  12.277   2.841
52097W        W19165  23.623   7.888   1.371
52098W        W19166   5.212  40.895  14.979
52099W        W19167  24.188   9.653   3.651
52100W        W19168   8.731  11.350   4.223
52101W        W19169   8.721  13.116   2.828
52102W        W19170  43.348  44.352   2.728
52103W        W19171   7.897   6.727   1.886
52104W        W19172   1.384   5.340  11.907
52105W        W19173  15.147  11.368  13.318
52106W        W19174  23.726  30.988  11.035
52107W        W19175   7.401   6.709  14.004
52108W        W19176  33.094  32.609   2.246
52109W        W19177  14.203  44.421  13.523
52110W        W19178  27.177  33.951  14.323
52111W        W19179   0.745   2.402   4.296
52112W        W19180  16.141  28.561   1.890
52113W        W19181  18.289  13.737  13.313
52114W        W19182  41.853  37.402   0.920
52115W        W19183   7.686  24.124  11.571
52116W        W19184  15.138  13.817   3.708
52117W        W19185  34.054  26.096  12.359
52118W        W19186  43.821  16.290  13.061
52119W        W19187  18.192   1.925   0.864
52120W        W19188  21.559  42.355  11.918
52121W        W19189  36.918  32.921   4.737
52122W        W19190  35.599   0.966  11.474
52123W        W19191   9.725  15.147  14.953
52124W        W19192  14.806  22.142   1.924
52125W        W19193   9.824   5.901   4.135
52126W        W19194   9.372  41.802  13.861
52127W        W19195  19.576  35.087   4.343
52128W        W19196  14.314  29.523  11.422
52129W        W19197  21.045  10.201   3.305
52130W        W19198  21.664  18.282   3.385
52131W        W19199  29.556  27.094   3.726
52132W        W19200  18.275  35.540  14.297
52133W        W19201   2.831  42.311   0.813
52134W        W19202   6.886  35.588   4.784
52135W        W19203   3.861  27.689   1.911
52136W        W19204  30.003   5.814  13.966
52137W        W19205   6.757  37.942  14.800
52138W        W19206  15.312  29.008  11.450
52139W        W19207  32.972   0.954   2.798
52140W        W19208  28.534  26.133   1.338
52141W        W19209  23.599  16.076  12.919
52142W        W19210  35.409  39.981  13.384
52143W        W19211   4.933  11.257   1.837
52144W        W19212  28.124  29.433  10.117
52145W        W19213  27.949   3.426  13.354
52146W        W19214  29.981  10.159   0.948
52147W        W19215  16.747  26.141   1.931
52148W        W19216  19.627   5.765   1.282
52149W        W19217  26.182   0.812  10.638
52150W        W19218  25.987   9.886   2.821
52151W        W19219  13.177  30.436  12.403
52152W        W19220  10.733   9.287  14.956
52153W        W19221   2.856  18.547   3.166
52154W        W19222   9.249  34.994   1.256
52155W        W19223   1.735  43.416   4.618
52156W        W19224  34.522  12.711   4.635
52157W        W19225  44.337  38.429  10.579
52158W        W19226  29.654   7.700   1.375
52159W        W19227  36.970  28.505   4.626
52160W        W19228  39.949   5.934  12.386
52161W        W19229  35.855  25.702  12.558
52162W        W19230   1.957  12.266   4.283
52163W        W19231  18.234  23.121  11.900
52164W        W19232  18.189  28.589   0.729
52165W        W19233  18.051  12.857   2.234
52166W        W19234  10.327  33.935  10.611
52167W        W19235  16.154  35.046   0.278
52168W        W19236  30.431   2.314  12.437
52169W        W19237  43.884  12.304   4.354
52170W        W19238  43.515  13.788  10.510
52171W        W19239   1.850  17.768  14.006
52172W        W19240  13.834   6.766   3.713
52173W        W19241  19.673  13.739  12.391
52174W        W19242  30.659  26.201   0.811
52175W        W19243   3.940  34.067   2.728
52176W        W19244  43.860   0.494  14.282
52177W        W19245   4.417   6.720   1.216
52178W        W19246  21.119  12.630   2.781
52179W        W19247  43.868  11.135   1.776
52180W        W19248  34.905  40.451  14.975
52181W        W19249  28.565  44.806  14.330
52182W        W19250  21.200  27.500  12.404
52183W        W19251  12.156  43.382  13.923
52184W        W19252  35.004  14.180   4.306
52185W        W19253   6.776  23.107   3.328
52186W        W19254  34.037  10.785   4.153
52187W        W19255  39.389  29.555   0.332
52188W        W19256  29.610  22.647   4.674
52189W        W19257  32.423  17.180   2.178
52190W        W19258  17.122   3.289  12.030
52191W        W19259   4.854  26.494   4.291
52192W        W19260   7.394  12.825  14.833
52193W        W19261  35.095  44.337   2.836
52194W        W19262  28.107  29.044   1.918
52195W        W19263  25.474  35.559   0.478
52196W        W19264  25.500   4.729   0.265
52197W        W19265  33.555  14.687  10.427
52198W        W19266  38.932  42.428  14.995
52199W        W19267   9.230   0.355  10.919
52200W        W19268  33.597  31.613  13.425
52201W        W19269  24.186   2.851  13.337
52202W        W19270  34.925  18.156  14.845
52203W        W19271   5.430   1.973  13.922
52204W        W19272  14.120  18.217   3.320
52205W        W19273  17.776  10.212  12.350
52206W        W19274  29.165  30.029  13.052
52207W        W19275   6.195  42.939  13.443
52208W        W19276  29.986  25.614  11.950
52209W        W19277  12.809   9.853  10.570
52210W        W19278  44.391   9.362  12.392
52211W        W19279  27.109   4.789  10.024
52212W        W19280  42.778  33.505   3.268
52213W        W19281  16.736  19.755  13.529
52214W        W19282  12.617  18.698   2.888
52215W        W19283   5.815  28.536   3.206
52216W        W19284  23.008  38.878   5.235
52217W        W19285  38.889  11.281   1.756
52218W        W19286   8.665  30.461   2.229
52219W        W19287   2.376   7.771  12.876
52220W        W19288  25.664  23.225   2.744
52221W        W19289  43.515  16.185  10.631
52222W        W19290   3.386  41.033  14.772
52223W        W19291  24.063  38.987  13.043
52224W        W19292  43.274  33.458  10.596
52225W        W19293  21.092  17.203  10.487
52226W        W19294  36.473  39.980   2.190
52227W        W19295  14.596  41.930  13.404
52228W        W19296   0.252   6.776  10.925
52229W        W19297  37.465  17.292  14.313
52230W        W19298  30.543   5.312  13.811
52231W        W19299  40.989  33.456   4.754
52232W        W19300  37.059  17.574  12.853
52233W        W19301  16.163  29.477  12.051
52234W        W19302   8.820  42.974  13.836
52235W        W19303  19.197   2.375  10.441
52236W        W19304  40.421   4.923   0.891
52237W        W19305  40.531  18.646   0.883
52238W        W19306   8.208  13.171  14.773
52239W        W19307  43.893  33.562   2.855
52240W        W19308  43.320  29.921  12.007
52241W        W19309  29.479   0.326   0.273
52242W        W19310  43.021   1.816  12.454
52243W        W19311  33.545   1.975  11.478
52244W        W19312  36.588  31.952   4.235
52245W        W19313  37.892  31.416   4.677
52246W        W19314  16.611  40.965   4.684
52247W        W19315  13.688  22.064   1.248
52248W        W19316  40.051  35.901   1.330
52249W        W19317  19.778  37.948   1.349
52250W        W19318  10.138  18.689   1.422
52251W        W19319  10.832  27.975  14.927
52252W        W19320   8.343  20.054   0.766
52253W        W19321  13.152  11.207  11.033
52254W        W19322  21.573  10.195  12.003
52255W        W19323   4.912  34.450   4.218
52256W        W19324  26.085  20.234  12.498
52257W        W19325   5.813  24.990   0.840
52258W        W19326  23.188  18.635  11.932
52259W        W19327  15.578  39.981   2.667
52260W        W19328  28.513  36.014   3.845
52261W        W19329  22.136  18.090  10.903
52262W        W19330  33.471  37.030  14.311
52263W        W19331  38.457  30.429   1.727
52264W        W19332  38.467  26.641  14.963
52265W        W19333  39.387  36.064   4.207
52266W        W19334  19.762  39.978   0.871
52267W        W19335  13.840  24.503  13.389
52268W        W19336  27.625   2.335  14.768
52269W        W19337  27.025  39.385  14.486
52270W        W19338  25.598  18.694   5.322
52271W        W19339  22.225  24.070   4.602
52272W        W19340  36.986  39.385   3.172
52273W        W19341  44.363  19.718   3.805
52274W        W19342   0.901   2.237  11.927
52275W        W19343  20.158  38.511  10.491
52276W        W19344  39.442  18.616   4.708
52277W        W19345  26.533  16.793   0.871
52278W        W19346  25.965  37.343  13.828
52279W        W19347  42.296  14.688   1.930
52280W        W19348  44.438  38.877   1.363
52281W        W19349   3.876  19.640   2.834
52282W        W19350  15.582  13.657  13.315
52283W        W19351   2.890  13.829   0.380
52284W        W19352  24.062  21.690  12.973
52285W        W19353   0.357  31.648   0.337
52286W        W19354  40.363  42.882   3.341
52287W        W19355  17.231  26.651   1.282
52288W        W19356  15.805  14.176   0.791
52289W        W19357  32.071  12.361   4.673
52290W        W19358  27.005   7.817   0.315
52291W        W19359  10.242  18.566   5.200
52292W        W19360   1.926  39.540  14.004
52293W        W19361  32.610  35.038   3.757
52294W        W19362   8.804  16.167  13.817
52295W        W19363  31.989  43.837  13.343
52296W        W19364   1.915  21.260   0.834
52297W        W19365  37.900  17.288  13.882
52298W        W19366  35.363   1.453   4.147
52299W        W19367  16.664  41.312   3.270
52300W        W19368  31.520  28.956  13.398
52301W        W19369  35.989  18.278  13.056
52302W        W19370  36.501  21.167   5.254
52303W        W19371  42.342  42.361   4.325
52304W        W19372  26.079   3.825  13.331
52305W        W19373   5.360  43.367   3.664
52306W        W19374  33.914   8.809   2.191
52307W        W19375  23.614  13.193  14.300
52308W        W19376  37.464  41.306   0.925
52309W        W19377  21.129  11.720   1.773
52310W        W19378  40.880  24.695   4.730
52311W        W19379   5.880   0.432  11.010
52312W        W19380  18.152  12.311   2.815
52313W        W19381  29.609  12.244   0.963
52314W        W19382  15.652  29.464   3.825
52315W        W19383  12.856  16.084   2.701
52316W        W19384  25.999  43.476   4.680
52317W        W19385  43.945  13.219   4.327
52318W        W19386  18.149   5.396  12.400
52319W        W19387  24.056  36.483   1.754
52320W        W19388  31.921  23.008  11.529
52321W        W19389  21.128  36.406   0.314
52322W        W19390   7.907  36.905   2.903
52323W        W19391   5.706  22.024  14.876
52324W        W19392   6.912  44.422   2.319
52325W        W19393  34.399  39.901  11.009
52326W        W19394  40.898  42.011  12.054
52327W        W19395  21.155   1.847  13.373
52328W        W19396  16.591  24.052  13.319
52329W        W19397  41.474  37.047  12.451
52330W        W19398   3.926  20.569   1.366
52331W        W19399  34.580   0.258   2.197
52332W        W19400  25.645  31.459  12.933
52333W        W19401  43.017   1.813   0.853
52334W        W19402  31.587  20.529   1.777
52335W        W19403  29.015   1.461  10.528
52336W        W19404  12.758  12.665   3.260
52337W        W19405  10.654  12.339   4.207
52338W        W19406  37.905  43.955  11.401
52339W        W19407  23.564  32.982   0.897
52340W        W19408  27.192   2.444  10.473
52341W        W19409  35.025  18.681  13.057
52342W        W19410   0.332  35.007   4.137
52343W        W19411   5.318  40.835  11.498
52344W        W19412  40.354  15.099   4.165
52345W        W19413  13.795  35.442  10.566
52346W        W19414  13.717  23.024   4.233
52347W        W19415   5.808  20.060   0.317
52348W        W19416  33.054   6.376  10.636
52349W        W19417  12.674  24.514  14.868
52350W        W19418  29.464  42.848   5.282
52351W        W19419   0.423  44.369   2.236
52352W        W19420  27.448  27.529   0.913
52353W        W19421  22.745   4.237   2.340
52354W        W19422  12.856  21.102   3.869
52355W        W19423  40.890   5.781  12.055
52356W        W19424  36.910   0.394  14.878
52357W        W19425   7.834  20.561   1.736
52358W        W19426  35.013  15.722   3.248
52359W        W19427  25.574  22.710  11.122
52360W        W19428   5.327  33.501  12.440
52361W        W19429   2.470  37.876  14.764
52362W        W19430  15.662  41.977   2.178
52363W        W19431  30.454  30.585   2.901
52364W        W19432  38.484  32.635   2.742
52365W        W19433  17.567  10.680   9.957
52366W        W19434  24.592  10.349  13.940
52367W        W19435   7.332   3.326  12.502
52368W        W19436  27.470   3.814  12.007
52369W        W19437  40.823   5.930   2.797
52370W        W19438  38.852  25.104  14.001
52371W        W19439  19.267  15.585  13.311
52372W        W19440   6.840  25.698  10.897
52373W        W19441  28.467  11.684   4.196
52374W        W19442  43.306  37.987   2.234
52375W        W19443  40.859  44.918   0.880
52376W        W19444  37.509  33.500  14.348
52377W        W19445  34.062  44.961  10.632
52378W        W19446  26.459  15.311   0.832
52379W        W19447  42.488   6.833   4.136
52380W        W19448  33.933  32.526  12.374
52381W        W19449  22.697  34.894   4.324
52382W        W19450  36.566   7.832  13.496
52383W        W19451  26.119  42.412   2.409
52384W        W19452  42.325  11.833  10.927
52385W        W19453  31.954  36.443   4.823
52386W        W19454  18.561  24.983  11.899
52387W        W19455   6.916  37.906   1.868
52388W        W19456  20.604  24.156   0.257
52389W        W19457  35.490  39.555  13.003
52390W        W19458   1.850  33.034   1.741
52391W        W19459  43.775  42.459   3.825
52392W        W19460  38.987  38.907  10.145
52393W        W19461  19.751  12.128  13.037
52394W        W19462  34.588  35.438  12.347
52395W        W19463   7.180  37.570  13.926
52396W        W19464   1.386   5.892  14.838
52397W        W19465   0.895  10.747   0.835
52398W        W19466  11.647   4.912  14.879
52399W        W19467  35.930   5.823  14.311
52400W        W19468   7.672  40.047   1.853
52401W        W19469  38.928  21.525   2.235
52402W        W19470  16.736  15.264  11.076
52403W        W19471  15.266  41.839  14.867
52404W        W19472   7.672  15.800  11.902
52405W        W19473  15.178  28.643  14.283
52406W        W19474  17.290  31.125   4.799
52407W        W19475  11.673  27.193   2.233
52408W        W19476  25.212  20.619   4.648
52409W        W19477  20.162  35.000   0.871
52410W        W19478  42.820  42.863   0.466
52411W        W19479  42.502  42.371   1.878
52412W        W19480  20.624  22.582   0.360
52413W        W19481  37.576   0.971   0.877
52414W        W19482  26.191  17.675  11.446
52415W        W19483  28.151  25.512  11.126
52416W        W19484  38.840  32.568  14.909
52417W        W19485  32.590  42.838   3.305
52418W        W19486   8.271   8.255  11.046
52419W        W19487  14.250  35.927  14.282
52420W        W19488  44.755  11.728  14.311
52421W        W19489  28.451   2.281  14.011
52422W        W19490  17.111   2.857  14.767
52423W        W19491   8.898  37.034  14.811
52424W        W19492  32.903   5.369   0.753
52425W        W19493  42.817   3.327   4.281
52426W        W19494  12.261   3.799   0.324
52427W        W19495   7.823  29.518  10.905
52428W        W19496  26.578  44.458  10.942
52429W        W19497  13.699  25.499  14.956
52430W        W19498  32.622   4.784  12.867
52431W        W19499   9.393  32.928  13.019
52432W        W19500  11.855  16.130   4.806
52433W        W19501   8.878  29.124   4.750
52434W        W19502  20.162  37.980   1.350
52435W        W19503   6.325   5.742   3.248
52436W        W19504  27.673   6.712  14.824
52437W        W19505   0.790   4.774   3.224
52438W        W19506  14.790   3.768  13.928
52439W        W19507   0.364  34.536  13.864
52440W        W19508  12.300  31.065   4.297
52441W        W19509  35.383  42.430   0.446
52442W        W19510   9.742  15.764   3.864
52443W        W19511   4.914  23.572   1.906
52444W        W19512  36.033  44.372  13.408
52445W        W19513  19.592   9.299  13.436
52446W        W19514  34.514   1.769  13.515
52447W        W19515  30.059  43.404  10.500
52448W        W19516  11.136  10.793  14.442
52449W        W19517   5.803  39.517  11.473
52450W        W19518   0.287  41.821   2.885
52451W        W19519   8.273  21.040   4.200
52452W        W19520  22.671  42.822  14.780
52453W        W19521   0.987  39.400   1.899
52454W        W19522  31.631  38.332   0.876
52455W        W19523  20.048   8.673   2.902
52456W        W19524   8.273  10.634   1.308
52457W        W19525  20.078   5.427  14.289
52458W        W19526  25.173  32.089   1.932
52459W        W19527  43.788   8.308  13.533
52460W        W19528   9.864  30.558   1.282
52461W        W19529  23.519  32.982  11.450
52462W        W19530  40.907   8.752  13.494
52463W        W19531  40.835  36.882  12.912
52464W        W19532  24.528   5.402  11.497
52465W        W19533  18.249   0.301  11.982
52466W        W19534  44.811  12.320   3.839
52467W        W19535  19.129  16.683   2.232
52468W        W19536  30.020  22.221   2.188
52469W        W19537  14.673  11.850  12.982
52470W        W19538  24.533  17.776  13.337
52471W        W19539  22.198  25.494   0.338
52472W        W19540  41.848  15.277  10.930
52473W        W19541   2.452  30.057  10.937
52474W        W19542  35.486  17.120  12.563
52475W        W19543  27.183  32.430   3.839
52476W        W19544  22.651  40.966  10.082
52477W        W19545  35.426   7.364  13.366
52478W        W19546  27.583   7.363   0.393
52479W        W19547  21.717  36.402  14.484
52480W        W19548  11.694  32.457  10.916
52481W        W19549   8.386  26.141  12.077
52482W        W19550  16.742  24.170  12.856
52483W        W19551  31.470   1.764  14.371
52484W        W19552  25.535  40.869   3.668
52485W        W19553  22.726  30.006  14.388
52486W        W19554  12.806   8.319   4.288
52487W        W19555  30.587  17.652   3.867
52488W        W19556  13.799   1.323  10.489
52489W        W19557  30.451  13.204   0.293
52490W        W19558  12.279   8.368  13.864
52491W        W19559  23.180  25.637  12.367
52492W        W19560  22.713   6.904  14.804
52493W        W19561  40.307   0.973  13.019
52494W        W19562  16.142   0.486   0.387
52495W        W19563  20.540  34.075   0.302
52496W        W19564   2.268  33.892   2.320
52497W        W19565  15.239  18.784   3.786
52498W        W19566  25.028  26.122  14.976
52499W        W19567  27.449   9.847  13.010
52500W        W19568  22.103  37.418  10.104
52501W        W19569  28.069  28.593   3.318
52502W        W19570   2.905  39.868   0.260
52503W        W19571  35.511  16.108   1.366
52504W        W19572   9.352  42.500  13.375
52505W        W19573  11.215  35.431  10.888
52506W        W19574  25.981  17.704   0.834
52507W        W19575  24.543  39.859  10.915
52508W        W19576   6.337  27.019   2.184
52509W        W19577  10.361  27.537  10.560
52510W        W19578  41.013  16.276   3.289
52511W        W19579  21.123  11.248   0.829
52512W        W19580   4.777  43.323   0.256
52513W        W19581  36.591  42.018   2.192
52514W        W19582   5.808  18.707   4.147
52515W        W19583  15.660  41.479   4.692
52516W        W19584   4.209  22.235   2.180
52517W        W19585   8.287  37.582  11.085
52518W        W19586  24.672  16.274  12.886
52519W        W19587  11.629  10.646   3.213
52520W        W19588   2.772  38.847  13.859
52521W        W19589  30.052  31.602  14.425
52522W        W19590  11.686  23.616   3.212
52523W        W19591  15.709   4.837   1.334
52524W        W19592   0.951  43.286  12.914
52525W        W19593  36.958  28.974   2.399
52526W        W19594  42.784   5.756  12.966
52527W        W19595  12.354  15.678  11.602
52528W        W19596  18.642  32.993  12.462
52529W        W19597   2.281   2.279   1.449
52530W        W19598   3.278  17.271  11.058
52531W        W19599  19.218  16.592   4.640
52532W        W19600   5.393  39.034  11.436
52533W        W19601  15.723  25.008  14.981
52534W        W19602  36.464  44.430   2.354
52535W        W19603  14.796  26.462  14.444
52536W        W19604  42.390   7.289   0.460
52537W        W19605  12.815   5.321  10.524
52538W        W19606  41.891  19.245  11.101
52539W        W19607  28.639   2.848  13.917
52540W        W19608   0.811  41.400   0.876
52541W        W19609  18.262  19.615  10.080
52542W        W19610  33.877  40.398  12.915
52543W        W19611  40.924  30.123   1.722
52544W        W19612  20.150  42.473  11.438
52545W        W19613  28.625  37.542  14.437
52546W        W19614  32.418   4.883  14.877
52547W        W19615   0.768  13.264   1.230
52548W        W19616   8.721  31.410  14.301
52549W        W19617  44.396  39.316  14.001
52550W        W19618   7.814  18.135  13.388
52551W        W19619  14.698  30.015   2.292
52552W        W19620  42.422  39.885  12.075
52553W        W19621  44.951  32.032   1.299
52554W        W19622  23.154  38.548  10.965
52555W        W19623  15.137   7.293  13.333
52556W        W19624   1.883  21.228  12.980
52557W        W19625  28.492  42.458  13.867
52558W        W19626  35.447  20.691  12.833
52559W        W19627  23.030  27.550  11.481
52560W        W19628  36.412  26.666   3.291
52561W        W19629  39.448  10.828  12.985
52562W        W19630   4.264  19.247   9.582
52563W        W19631   5.418  37.972   4.814
52564W        W19632   9.231  41.869   4.168
52565W        W19633  41.027  29.612  10.889
52566W        W19634  21.711  40.807  12.396
52567W        W19635   7.207  10.664  10.497
52568W        W19636   2.243  19.257   2.901
52569W        W19637  27.557  27.680  11.879
52570W        W19638  39.818  14.233   3.760
52571W        W19639   8.770  10.146  12.867
52572W        W19640  38.504   3.349   0.871
52573W        W19641  32.989  15.311   4.734
52574W        W19642  26.002  37.530  14.882
52575W        W19643  35.494  22.214   2.332
52576W        W19644  24.062  26.141   3.275
52577W        W19645  15.292  21.751  14.416
52578W        W19646  12.617   8.843   0.447
52579W        W19647  23.604   2.900   0.280
52580W        W19648  41.964  38.922   3.865
52581W        W19649  32.949   1.751  11.030
52582W        W19650   3.818   5.891  11.866
52583W        W19651   9.201  41.481  14.423
52584W        W19652  12.192  38.446  14.442
52585W        W19653  28.036   1.379   2.780
52586W        W19654  29.616  24.209   3.332
52587W        W19655  15.593   2.326   3.255
52588W        W19656  18.708  22.087  10.042
52589W        W19657   3.855  10.801   3.786
52590W        W19658  27.102  17.748   1.850
52591W        W19659  20.564  44.008  11.385
52592W        W19660  29.513  29.667   3.233
52593W        W19661  21.120  29.489  11.084
52594W        W19662  11.675  31.942   3.208
52595W        W19663  37.556  24.603  10.953
52596W        W19664  32.476  33.897   1.359
52597W        W19665  10.290  15.263   1.819
52598W        W19666  41.370  43.019   1.807
52599W        W19667   7.800  22.230  10.456
52600W        W19668  16.184  17.133   2.729
52601W        W19669  17.653  18.120  10.491
52602W        W19670  40.844  41.372  11.496
52603W        W19671   8.787  35.963   3.379
52604W        W19672   2.721  24.652   2.223
52605W        W19673  27.546  11.199   3.644
52606W        W19674  15.166   5.315   4.619
52607W        W19675  13.775  23.711   1.838
52608W        W19676  37.998   6.277   0.448
52609W        W19677  42.321  11.716  14.905
52610W        W19678  41.978  32.078   2.346
52611W        W19679  21.070  22.069   2.831
52612W        W19680  25.107  29.938   0.273
52613W        W19681   8.192  18.618   1.443
52614W        W19682  32.942  32.578  10.993
52615W        W19683  21.123  20.600   2.322
52616W        W19684  37.850  23.613  11.538
52617W        W19685  37.969  32.135   1.865
52618W        W19686   2.242  17.137  14.378
52619W        W19687  36.578  33.962  13.040
52620W        W19688   9.274  38.967   1.366
52621W        W19689  42.511  34.038   3.737
52622W        W19690  28.113  20.177   2.706
52623W        W19691  22.616  20.545   4.214
52624W        W19692  37.367  43.775  10.613
52625W        W19693  16.810  14.130   2.386
52626W        W19694  41.789   4.825   3.240
52627W        W19695   0.813  21.618  12.039
52628W        W19696  27.532   5.314   3.771
52629W        W19697   0.291   9.695   2.806
52630W        W19698  35.001   6.746  11.452
52631W        W19699  30.009  13.255   4.296
52632W        W19700  43.409  23.676   4.270
52633W        W19701  39.018   7.196  14.286
52634W        W19702  34.512  40.543  12.490
52635W        W19703  42.322  21.229  12.895
52636W        W19704  38.429  15.784   3.227
52637W        W19705   6.299   5.425   1.718
52638W        W19706   3.290  14.702   3.699
52639W        W19707  28.527  44.371  10.570
52640W        W19708  40.480  37.564   3.702
52641W        W19709   5.344   5.701  14.361
52642W        W19710   7.689   0.458   4.290
52643W        W19711  12.625  37.838  13.003
52644W        W19712  24.486  29.166   1.350
52645W        W19713  31.034   1.798  10.603
52646W        W19714   6.718   6.897  12.565
52647W        W19715  11.721  14.146  13.962
52648W        W19716  27.066   7.838  14.475
52649W        W19717  10.347  15.216  12.991
52650W        W19718  22.574  17.644  11.904
52651W        W19719  22.689  31.132   3.381
52652W        W19720  27.575  22.656  11.887
52653W        W19721  34.607  13.150  14.398
52654W        W19722  30.567  16.077  14.915
52655W        W19723  41.002  31.911   2.669
52656W        W19724  14.611  14.333   1.416
52657W        W19725  18.688  15.248  13.985
52658W        W19726   0.800  35.400   3.199
52659W        W19727  13.160  43.344   0.919
52660W        W19728   4.774  16.731   1.747
52661W        W19729  21.051  22.690   5.307
52662W        W19730   2.879  15.190   0.904
52663W        W19731  10.353   2.321  11.486
52664W        W19732  32.552  22.589   3.320
52665W        W19733  17.800  12.648  11.001
52666W        W19734  34.103  15.309   0.331
52667W        W19735  22.668  41.976  14.306
52668W        W19736  34.107   8.327   0.318
52669W        W19737  41.025  27.622  12.509
52670W        W19738  25.205  23.013  12.860
52671W        W19739  43.998  34.120   0.483
52672W        W19740  18.573  26.544  11.607
52673W        W19741   0.986   5.213   1.384
52674W        W19742  19.705  25.516   3.833
52675W        W19743  18.172  42.341   2.315
52676W        W19744  22.041  41.359  13.387
52677W        W19745  24.617  26.578   2.720
52678W        W19746  42.300  20.667   2.180
52679W        W19747  10.663  31.126  11.461
52680W        W19748  20.765  33.392   2.225
52681W        W19749   3.361  28.578   0.466
52682W        W19750  27.523  12.842  13.842
52683W        W19751   8.312  11.230  14.480
52684W        W19752  22.650  32.598   1.759
52685W        W19753   5.730  34.614   3.641
52686W        W19754   8.233  41.473   3.635
52687W        W19755  43.844   8.864   3.355
52688W        W19756  43.955   5.302   0.865
52689W        W19757  30.524   3.276  11.876
52690W        W19758  18.774  38.838   0.265
52691W        W19759   6.861  35.988  14.892
52692W        W19760  19.578   9.199  11.473
52693W        W19761  41.021  32.986   1.804
52694W        W19762  30.614  12.839   0.285
52695W        W19763  17.608  24.548  10.615
52696W        W19764  40.468  31.100  13.341
52697W        W19765   1.799  43.822  14.862
52698W        W19766  33.502  28.067  12.550
52699W        W19767  22.687  43.893  12.078
52700W        W19768   0.780  10.782  14.008
52701W        W19769  37.391  25.013   0.965
52702W        W19770  33.904   5.252  14.355
52703W        W19771  14.157  23.677   2.240
52704W        W19772  29.985   8.198  12.996
52705W        W19773  24.705  24.147  14.871
52706W        W19774  43.899  22.678   2.186
52707W        W19775  21.184   1.424   1.734
52708W        W19776  28.443  17.726   2.393
52709W        W19777  21.727  41.347  11.057
52710W        W19778  40.431  41.513  10.426
52711W        W19779  12.205   6.737   4.605
52712W        W19780  16.145  12.360   4.605
52713W        W19781  14.248  18.769   2.220
52714W        W19782  36.988  26.115  13.920
52715W        W19783  13.836  35.991  13.391
52716W        W19784  30.951  38.948   3.772
52717W        W19785  10.717  30.148   0.448
52718W        W19786  33.514  36.977  14.950
52719W        W19787  36.539  36.941  13.418
52720W        W19788  18.272  17.197  13.000
52721W        W19789  12.749  36.892  12.984
52722W        W19790  13.209  32.932   2.235
52723W        W19791   0.895  16.316  12.472
52724W        W19792  42.415  39.811   1.840
52725W        W19793   7.191  36.357   0.838
52726W        W19794  39.386  23.111   4.204
52727W        W19795   1.273   8.235  10.636
52728W        W19796   6.732  18.708   1.427
52729W        W19797  33.518  26.192   0.416
52730W        W19798  42.778   0.849   4.253
52731W        W19799  18.111  43.845   2.809
52732W        W19800  14.203  41.811   1.799
52733W        W19801  30.588  29.665  10.629
52734W        W19802   4.204  36.572  11.878
52735W        W19803  18.064   7.278  10.470
52736W        W19804  17.235  36.519   4.196
52737W        W19805  29.080  40.978  12.467
52738W        W19806  30.506  16.753  13.957
52739W        W19807  36.570  41.390   3.303
52740W        W19808  36.432  38.885   5.227
52741W        W19809  16.642   5.400   2.751
52742W        W19810   8.679  26.610  12.513
52743W        W19811  35.044  39.475   1.340
52744W        W19812  10.709   5.306  13.498
52745W        W19813  21.531  15.775  12.001
52746W        W19814  11.285   6.191  10.418
52747W        W19815  10.219   7.759   1.889
52748W        W19816   5.880   3.312   2.683
52749W        W19817  13.164  17.654   3.311
52750W        W19818  37.353  23.537  13.804
52751W        W19819   5.427  10.339  12.841
52752W        W19820  33.958   5.907   4.828
52753W        W19821   0.917   1.444  12.046
52754W        W19822  22.599  24.165  10.517
52755W        W19823  32.555  18.580   2.839
52756W        W19824   4.347  32.434  13.898
52757W        W19825  31.988   7.412   2.818
52758W        W19826  32.920  17.269  11.465
52759W        W19827   3.734  14.106   5.166
52760W        W19828  39.971  25.666  10.441
52761W        W19829  39.536  21.069   1.361
52762W        W19830  11.287  25.651  12.940
52763W        W19831  19.118  25.984   0.761
52764W        W19832  23.008   8.333   0.380
52765W        W19833  41.794   6.913   4.247
52766W        W19834  39.500  19.089   2.402
52767W        W19835   6.780  29.010   1.932
52768W        W19836  24.173   8.699   0.863
52769W        W19837  34.415  23.215   1.873
52770W        W19838  25.094   7.885  13.866
52771W        W19839  36.983  14.598   0.344
52772W        W19840  26.603   5.821  11.566
52773W        W19841   2.930  25.696   1.704
52774W        W19842   3.256  21.699   3.693
52775W        W19843  20.668  21.721   3.693
52776W        W19844  22.598  15.775   3.305
52777W        W19845  14.226  42.015   4.225
52778W        W19846   9.814  32.886   1.707
52779W        W19847   5.856  10.267  13.499
52780W        W19848   9.860  11.159   1.312
52781W        W19849  13.139  36.946   2.671
52782W        W19850  11.717  23.038   4.838
52783W        W19851  43.424  11.331   4.634
52784W        W19852  44.361  30.556   1.402
52785W        W19853  18.625   7.776   3.338
52786W        W19854  38.958   6.703   1.365
52787W        W19855  12.216   2.819   4.231
52788W        W19856  40.919  26.587   0.862
52789W        W19857  12.707  29.590  14.290
52790W        W19858  21.684  40.311  13.461
52791W        W19859  19.719  43.853   2.874
52792W        W19860  16.257  25.714  14.022
52793W        W19861   8.352   5.315   0.298
52794W        W19862  17.291  25.148  12.509
52795W        W19863   1.978   8.831  14.922
52796W        W19864  32.982  26.495   0.740
52797W        W19865   1.445   5.251   2.728
52798W        W19866  13.201  20.624  12.417
52799W        W19867   6.698  34.496   2.203
52800W        W19868   6.228   6.254   0.320
52801W        W19869   2.862  29.518  13.445
52802W        W19870  42.939   4.409  13.856
52803W        W19871   1.956  35.526  14.474
52804W        W19872  16.807   4.742  13.864
52805W        W19873  27.662  41.343   4.708
52806W        W19874  19.204   1.891  11.940
52807W        W19875  30.571  28.137   0.818
52808W        W19876  14.619  25.170  12.063
52809W        W19877  20.590   8.172  11.583
52810W        W19878  21.581  37.984   9.977
52811W        W19879  12.362   4.253  10.537
52812W        W19880   8.896  11.790  14.416
52813W        W19881  18.611   7.681  11.545
52814W        W19882  15.229  40.929   3.729
52815W        W19883  21.669  24.976   3.162
52816W        W19884   9.867  32.027   5.285
52817W        W19885  13.247  32.956  11.609
52818W        W19886  14.205   5.403  11.059
52819W        W19887  12.254   3.854  12.549
52820W        W19888  27.013   7.688   2.322
52821W        W19889  19.280   8.352   0.854
52822W        W19890  14.785   5.860  13.855
52823W        W19891  14.709  32.503  10.451
52824W        W19892  35.050   8.879   3.829
52825W        W19893  27.129  19.080   3.267
52826W        W19894  13.741   9.213  14.394
52827W        W19895   0.971  31.482  11.938
52828W        W19896  41.031  40.899  13.470
52829W        W19897  38.435  30.617  10.409
52830W        W19898  40.359  18.262  12.526
52831W        W19899  17.159   5.783  14.843
52832W        W19900  42.952  40.374  10.432
52833W        W19901  39.025  25.701   3.300
52834W        W19902  44.486  15.101  12.430
52835W        W19903   6.695  40.355  11.950
52836W        W19904   4.446  11.668   3.340
52837W        W19905  40.518   3.450  10.915
52838W        W19906  23.516   7.338   0.911
52839W        W19907  36.008  32.920  13.874
52840W        W19908  13.126  32.545  11.864
52841W        W19909  11.726   4.313   2.778
52842W        W19910   2.469   4.344   2.332
52843W        W19911  28.472  16.315  13.953
52844W        W19912  26.676   8.669   2.369
52845W        W19913  12.256  27.013   1.891
52846W        W19914  21.178  39.021  13.423
52847W        W19915  37.845  34.915   1.232
52848W        W19916  40.950  23.540   1.758
52849W        W19917  30.128   4.448   0.324
52850W        W19918  11.776  21.749  14.889
52851W        W19919   2.779   4.351   2.775
52852W        W19920  35.014  43.289  14.380
52853W        W19921  37.080  43.881   0.305
52854W        W19922  32.064  10.289  14.296
52855W        W19923  41.469  30.523  12.478
52856W        W19924  15.306   5.730  10.932
52857W        W19925   8.745  21.075  13.016
52858W        W19926  29.654   9.349   3.633
52859W        W19927  34.476  27.514   0.417
52860W        W19928  13.292   4.927  14.412
52861W        W19929   2.379  41.428  14.004
52862W        W19930  37.966  38.396   3.235
52863W        W19931   8.755   6.196   0.924
52864W        W19932   4.929  20.044  11.063
52865W        W19933  31.014   7.764  10.542
52866W        W19934  10.737  43.330  12.494
52867W        W19935  42.824  34.021  12.837
52868W        W19936   0.798  19.596   9.931
52869W        W19937  18.622  32.032   5.102
52870W        W19938  38.354  17.621   2.233
52871W        W19939  34.999  29.435   2.388
52872W        W19940  13.698  39.042  10.930
52873W        W19941  29.561   7.695  14.478
52874W        W19942  17.719  32.917  12.568
52875W        W19943  22.227  18.725   2.272
52876W        W19944  40.304  24.152  10.451
52877W        W19945  10.669  41.433   2.681
52878W        W19946  43.444   0.862  12.374
52879W        W19947  32.521  35.053  13.350
52880W        W19948  23.563  29.669   0.338
52881W        W19949   3.902  29.961  14.455
52882W        W19950   1.779  21.219   3.847
52883W        W19951  43.481  13.692   3.178
52884W        W19952  40.383   6.781  13.548
52885W        W19953  15.086  39.832   1.771
52886W        W19954  21.213  18.649  11.597
52887W        W19955  23.500  27.485   3.235
52888W        W19956  32.439  43.372   4.792
52889W        W19957   3.743  25.672   0.430
52890W        W19958  41.348   8.169   4.121
52891W        W19959  20.661  35.023  11.947
52892W        W19960  42.283  17.224  13.378
52893W        W19961  29.614  35.576  11.951
52894W        W19962   3.397  34.410  10.441
52895W        W19963  43.908  31.543  11.473
52896W        W19964  30.543  28.017  13.373
52897W        W19965   0.257  33.537   1.312
52898W        W19966  36.391   9.348  14.995
52899W        W19967  14.608  15.760  14.814
52900W        W19968  10.183  24.030   1.367
52901W        W19969  17.113  17.285  13.052
52902W        W19970  32.583  21.712  13.873
52903W        W19971  30.907  31.034  11.509
52904W        W19972  38.071  43.391  11.862
52905W        W19973   5.244  36.888   0.325
52906W        W19974  25.215  15.179  14.445
52907W        W19975   2.426   2.317   4.171
52908W        W19976  10.787  43.363   1.841
52909W        W19977  15.618  15.273   0.818
52910W        W19978  21.704   1.379  12.976
52911W        W19979   9.656   1.765   1.852
52912W        W19980  16.663  22.144   2.891
52913W        W19981  33.877  26.493  11.885
52914W        W19982  38.042   9.360  12.409
52915W        W19983  32.451  33.043   1.278
52916W        W19984  39.035  19.163  12.443
52917W        W19985  13.728   6.400  13.398
52918W        W19986  21.513  14.641  10.563
52919W        W19987  37.848   2.253  10.460
52920W        W19988  32.506  28.656   4.800
52921W        W19989  12.637  41.835  10.528
52922W        W19990  38.872  26.696  11.899
52923W        W19991  35.534   8.669   4.315
52924W        W19992  35.558  32.127   0.475
52925W        W19993  43.511  10.163   0.744
52926W        W19994  18.053  15.699  11.583
52927W        W19995  10.808  40.339  11.458
52928W        W19996  32.937   9.783   0.770
52929W        W19997  12.151  31.074  12.521
52930W        W19998   8.399   3.306  14.500
52931W        W19999  21.073  18.127   4.325
52932W        W20000  10.234  37.849  11.527
52933W        W20001  35.514   3.885   2.314
52934W        W20002  22.020  11.167  10.477
52935W        W20003  12.646  33.444  11.103
52936W        W20004  15.307  31.024   2.836
52937W        W20005  22.532  36.041   3.750
52938W        W20006   0.329  13.148  13.547
52939W        W20007   7.194  43.003  14.281
52940W        W20008  34.598  18.645  14.399
52941W        W20009   2.289  40.854  13.815
52942W        W20010  41.938   8.891  14.463
52943W        W20011  37.955  11.801   3.211
52944W        W20012  26.518  15.613   4.166
52945W        W20013  23.628  16.182  13.309
52946W        W20014   7.224  19.677   5.304
52947W        W20015  15.674  23.616   3.842
52948W        W20016  26.602   9.659   0.382
52949W        W20017  16.289  30.000  10.112
52950W        W20018  38.390  43.827   2.681
52951W        W20019  21.189  26.496  11.100
52952W        W20020  34.904  20.578   4.128
52953W        W20021  16.794  31.537  13.968
52954W        W20022  38.433  12.791  10.591
52955W        W20023  32.472  30.453  13.975
52956W        W20024  38.424  29.581   1.831
52957W        W20025   5.357  32.916   4.281
52958W        W20026  12.265  12.261  12.412
52959W        W20027  30.478  13.344  11.116
52960W        W20028  41.971  35.954  12.037
52961W        W20029  41.793  19.724   3.372
52962W        W20030  39.821  34.048   3.802
52963W        W20031  10.169  14.797   3.252
52964W        W20032  42.520   6.822  11.395
52965W        W20033  31.535  14.757  11.413
52966W        W20034  39.490   4.325  14.794
52967W        W20035   0.881  21.681  11.088
52968W        W20036  17.671  17.087  14.929
52969W        W20037  30.523   1.466  10.921
52970W        W20038   6.747   2.431   2.360
52971W        W20039  36.365  11.137  11.109
52972W        W20040   2.399  14.335   3.253
52973W        W20041  23.183  21.545  14.459
52974W        W20042  19.769  11.792   0.261
52975W        W20043  12.808  17.206  11.977
52976W        W20044  17.750   0.890   4.123
52977W        W20045   4.869  31.128   2.413
52978W        W20046  37.909  12.350   4.249
52979W        W20047  14.591  37.945   3.232
52980W        W20048   7.240  23.700   4.152
52981W        W20049  38.022  22.144   4.118
52982W        W20050  28.462  21.209  11.939
52983W        W20051   2.865  37.474  14.501
52984W        W20052  42.424   1.330   2.717
52985W        W20053  29.578  29.588  10.409
52986W        W20054  40.472  25.183  13.516
52987W        W20055  40.972  41.945   1.370
52988W        W20056  26.062  21.633  13.357
52989W        W20057   6.707  14.736   1.888
52990W        W20058  36.992  34.440  12.567
52991W        W20059  27.105  19.540   2.781
52992W        W20060   1.926   3.752  12.444
52993W        W20061  13.648  30.920   1.286
52994W        W20062  40.388   4.322   4.293
52995W        W20063  34.896  38.828  14.873
52996W        W20064   5.727   4.330  12.563
52997W        W20065   9.165  19.555   3.712
52998W        W20066  42.445  29.099   3.773
52999W        W20067  24.074   9.730   4.327
53000W        W20068  29.951   2.806   3.176
53001W        W20069   8.701  11.276   4.828
53002W        W20070  39.817   7.404  12.480
53003W        W20071  11.371  31.000  14.944
53004W        W20072  26.691   2.758   4.727
53005W        W20073   8.263  24.109   4.301
53006W        W20074  38.445  37.039   3.758
53007W        W20075  31.504  30.524   2.302
53008W        W20076  31.022   6.821   2.662
53009W        W20077  15.607  24.667   2.895
53010W        W20078  24.986  36.993  13.322
53011W        W20079  20.611  33.913   3.363
53012W        W20080  12.698   4.227  11.925
53013W        W20081   9.748  35.893   3.712
53014W        W20082   6.278   5.859  13.405
53015W        W20083  14.803  32.507   1.261
53016W        W20084  42.930  23.107  10.893
53017W        W20085  42.943  40.318   2.767
53018W        W20086   9.845  42.409   4.801
53019W        W20087  42.892   0.477   4.717
53020W        W20088  28.557   1.325   0.954
53021W        W20089  16.810  35.038  11.928
53022W        W20090  23.102   5.242   3.701
53023W        W20091  35.957   2.956  11.530
53024W        W20092  25.019  11.311  12.491
53025W        W20093   8.392  12.205  13.973
53026W        W20094   0.432  12.851   4.702
53027W        W20095  38.065  33.077  12.412
53028W        W20096   7.308  14.185   4.140
53029W        W20097  14.140  25.578   2.349
53030W        W20098   5.351  20.707  11.559
53031W        W20099   5.230  37.016  12.352
53032W        W20100  17.258  38.445  13.455
53033W        W20101   4.213  11.857   1.416
53034W        W20102  31.401  35.880  11.530
53035W        W20103   5.779  20.672  14.360
53036W        W20104  23.086  37.965  10.406
53037W        W20105  12.695  44.787   1.834
53038W        W20106  24.085  25.035   1.445
53039W        W20107  25.645   8.398  13.879
53040W        W20108  20.621  37.465  10.912
53041W        W20109  24.670   0.269   0.472
53042W        W20110  16.683  10.315  14.844
53043W        W20111  30.534  15.101  11.054
53044W        W20112  37.483  41.384  10.520
53045W        W20113  23.173  38.435   0.481
53046W        W20114  19.255  21.736  14.394
53047W        W20115  20.085  12.724  12.388
53048W        W20116   7.211  24.054   4.617
53049W        W20117  34.565  35.487   3.240
53050W        W20118  27.117   4.223  13.969
53051W        W20119  44.814  24.703   1.229
53052W        W20120   8.811  41.313   2.296
53053W        W20121  38.446  18.074   1.411
53054W        W20122  10.674   0.413   2.261
53055W        W20123   2.965  15.794  12.897
53056W        W20124  23.591  30.935   2.783
53057W        W20125  31.133  40.982  13.455
53058W        W20126  10.862  21.618   3.794
53059W        W20127   9.751  19.581  10.531
53060W        W20128  38.339  40.985   1.275
53061W        W20129  35.001   6.820  12.349
53062W        W20130  42.917  15.589  14.935
53063W        W20131  22.520  13.607   0.387
53064W        W20132   8.709   5.377  11.893
53065W        W20133   1.320  24.142  11.079
53066W        W20134  14.656  32.892  14.324
53067W        W20135  10.267  42.501  11.030
53068W        W20136  34.584  23.021  12.460
53069W        W20137  39.437  15.109   3.363
53070W        W20138  27.540  14.781  14.448
53071W        W20139  18.175  17.152   1.721
53072W        W20140  26.672  43.815   9.958
53073W        W20141  10.143  40.043  12.497
53074W        W20142  26.192  43.285  10.483
53075W        W20143   4.704  30.563   1.708
53076W        W20144  32.982  19.219   1.299
53077W        W20145  17.115  44.790  12.913
53078W        W20146  41.025  28.185   2.266
53079W        W20147  28.666  27.632   1.705
53080W        W20148  11.228  20.532   0.935
53081W        W20149  33.062  32.618  12.523
53082W        W20150  24.074   2.442   1.339
53083W        W20151  15.709  12.688  12.849
53084W        W20152  17.115  17.766  14.294
53085W        W20153  20.768  18.606   3.794
53086W        W20154  26.470   0.422  11.558
53087W        W20155  30.062  21.050  11.594
53088W        W20156  37.917   5.344   0.796
53089W        W20157  33.036   2.820  12.089
53090W        W20158  13.644  14.749   1.276
53091W        W20159  37.382  42.033   3.791
53092W        W20160   4.768  33.927   4.154
53093W        W20161  17.579  29.537   3.630
53094W        W20162  22.119  23.117  14.388
53095W        W20163  10.748  18.120   0.824
53096W        W20164  10.825   0.272  12.076
53097W        W20165  25.519  26.560  13.923
53098W        W20166  13.108  26.077  14.888
53099W        W20167  34.043  15.781  13.914
53100W        W20168  11.321  14.609   4.829
53101W        W20169  28.599  16.615   2.212
53102W        W20170  28.947   9.193   0.903
53103W        W20171  33.918  29.024   1.800
53104W        W20172  13.196  11.841   3.349
53105W        W20173  33.568   8.292   4.626
53106W        W20174  17.566   0.918   2.829
53107W        W20175  42.005  15.187   3.740
53108W        W20176  38.500  21.109   2.860
53109W        W20177   5.226   3.878   4.173
53110W        W20178  34.902  23.117  14.020
53111W        W20179  29.481   8.404  13.484
53112W        W20180   7.239   4.339  14.902
53113W        W20181  28.598  13.143  11.867
53114W        W20182  17.138  31.607   0.849
53115W        W20183   1.313  35.011   1.254
53116W        W20184  11.707  15.782   1.775
53117W        W20185  33.514  13.734   2.760
53118W        W20186   6.196  31.595   2.207
53119W        W20187  36.573  21.540  13.995
53120W        W20188  42.953  34.415   2.832
53121W        W20189  19.129  36.558   0.748
53122W        W20190  35.512  44.354   0.467
53123W        W20191  19.611   0.299  14.288
53124W        W20192  35.382  22.032  12.030
53125W        W20193  30.944  10.354   5.087
53126W        W20194   7.217  25.151  11.475
53127W        W20195   7.786   4.923  12.396
53128W        W20196  22.613  22.639   4.139
53129W        W20197  22.727  42.360   2.378
53130W        W20198  10.169   6.241  12.850
53131W        W20199  23.000  31.038   4.598
53132W        W20200  34.966  15.581  10.041
53133W        W20201   6.298  32.936   1.783
53134W        W20202  14.269  26.599  14.031
53135W        W20203  28.997  26.584  12.492
53136W        W20204  19.768  28.672   0.287
53137W        W20205   8.304  26.059  13.995
53138W        W20206  34.051  17.748   3.365
53139W        W20207  26.988  43.954  12.935
53140W        W20208  15.154  35.492  10.903
53141W        W20209  10.703  39.435   0.363
53142W        W20210  43.302  13.842   1.806
53143W        W20211  10.757  21.735   1.743
53144W        W20212  26.476   8.199  14.962
53145W        W20213  41.480   0.482  12.085
53146W        W20214  10.689  43.513  13.474
53147W        W20215  35.551   3.348  13.923
53148W        W20216  30.078  36.573   1.358
53149W        W20217   5.759   2.285  14.775
53150W        W20218  12.209  30.941  13.946
53151W        W20219  20.178  31.956   0.863
53152W        W20220  12.836  18.076   0.777
53153W        W20221  13.256  20.620  11.890
53154W        W20222  24.518   2.934   1.332
53155W        W20223  16.295  35.531   0.481
53156W        W20224   2.857  22.092  14.948
53157W        W20225  21.654  13.261  12.946
53158W        W20226  14.760   5.852  14.425
53159W        W20227  10.190  39.997   1.805
53160W        W20228  33.888   9.785   3.160
53161W        W20229  14.727  14.110   2.690
53162W        W20230  42.879  44.345  10.439
53163W        W20231  37.854   5.804  11.545
53164W        W20232   3.940   8.375   3.280
53165W        W20233   8.803   0.791   2.720
53166W        W20234  23.114  31.448   1.255
53167W        W20235   0.964  44.769  10.484
53168W        W20236  36.579  25.109   1.395
53169W        W20237  44.449  27.572  13.451
53170W        W20238  35.091  11.335   4.622
53171W        W20239  38.400  35.398  10.960
53172W        W20240  43.435  26.574  12.026
53173W        W20241  18.625  26.644  13.336
53174W        W20242  42.367  16.306   3.330
53175W        W20243  23.032  32.898  13.373
53176W        W20244  43.381  19.130  11.582
53177W        W20245   4.373  18.260  12.562
53178W        W20246   8.292   4.777  13.446
53179W        W20247  25.714   7.309   5.119
53180W        W20248  14.201  14.164   0.242
53181W        W20249  10.372   5.396   0.764
53182W        W20250  31.913  32.539  11.439
53183W        W20251   0.288   7.351   2.805
53184W        W20252  39.918  13.816  11.502
53185W        W20253  35.481  36.906   3.163
53186W        W20254  36.543   1.790   1.388
53187W        W20255  19.276  18.579   1.905
53188W        W20256  26.677  43.472   1.264
53189W        W20257  20.244  22.251   3.850
53190W        W20258   4.244  40.995  11.999
53191W        W20259  36.484  38.345   0.757
53192W        W20260   8.799  34.034  11.418
53193W        W20261   7.375  19.269  12.443
53194W        W20262  39.008  13.149  14.979
53195W        W20263  12.289  10.736  11.068
53196W        W20264  12.208  34.571  14.769
53197W        W20265   4.411  12.333  11.968
53198W        W20266  26.152  37.419   1.708
53199W        W20267  37.524  29.516   0.459
53200W        W20268  27.965  18.129  12.938
53201W        W20269  40.478  41.900  13.950
53202W        W20270  24.643   9.285  14.281
53203W        W20271   2.431  43.482  14.978
53204W        W20272  40.009   0.928  11.970
53205W        W20273  36.091  26.152   0.810
53206W        W20274  14.768  22.594   1.839
53207W        W20275  12.353   5.717  14.427
53208W        W20276  37.957  24.196   4.745
53209W        W20277  10.841  23.544  12.462
53210W        W20278  24.660  11.812   4.282
53211W        W20279  44.985  43.979   4.345
53212W        W20280  29.552   5.754  13.470
53213W        W20281  43.470   8.889   2.288
53214W        W20282  30.533  44.869  14.302
53215W        W20283  31.539   9.662   3.237
53216W        W20284  22.567  36.496   0.875
53217W        W20285   4.353   3.230  14.940
53218W        W20286  11.817   5.251  10.939
53219W        W20287  22.142  18.578  13.941
53220W        W20288   3.739   2.808  10.474
53221W        W20289  23.999  27.482  11.514
53222W        W20290  31.021   4.287  10.896
53223W        W20291  37.355  29.495  12.482
53224W        W20292  44.871  35.426   4.700
53225W        W20293  39.888  26.032   2.381
53226W        W20294  23.671  39.422  10.955
53227W        W20295  17.254  13.643   4.154
53228W        W20296  10.144   6.703   1.804
53229W        W20297  41.793  42.428  13.801
53230W        W20298   7.207  26.700   2.241
53231W        W20299  10.300  22.085  13.466
53232W        W20300  13.700  32.551   4.271
53233W        W20301  11.817  15.102   3.774
53234W        W20302  28.666  43.417  14.024
53235W        W20303  25.479  26.487   2.676
53236W        W20304  43.303  40.385   3.155
53237W        W20305  41.034   5.837  14.414
53238W        W20306  15.308  14.256  11.024
53239W        W20307  42.009  36.003   4.225
53240W        W20308  23.045  41.538  14.498
53241W        W20309  14.727  12.799   1.719
53242W        W20310   8.257  24.183  13.415
53243W        W20311  15.739  12.263   5.243
53244W        W20312   9.684   2.768  10.404
53245W        W20313   3.777   8.711  11.606
53246W        W20314  35.855  19.237  12.459
53247W        W20315  40.894  42.381   4.838
53248W        W20316  29.502   1.267  10.493
53249W        W20317  10.801  27.550   3.731
53250W        W20318   6.776   5.393  11.098
53251W        W20319  29.636  32.450   0.268
53252W        W20320  33.085   7.867  14.992
53253W        W20321  29.119   5.926   0.814
53254W        W20322  26.112  26.187   3.730
53255W        W20323  34.546  13.617  14.010
53256W        W20324   1.293  17.774   3.174
53257W        W20325  17.149   5.828  12.390
53258W        W20326  25.569  14.667   0.960
53259W        W20327  23.528   8.403  10.946
53260W        W20328  26.178  35.955   0.483
53261W        W20329  12.271  11.762  12.011
53262W        W20330   9.230   0.460   4.204
53263W        W20331   8.654  42.845  11.867
53264W        W20332  20.161  42.488  13.329
53265W        W20333   5.707  11.736  13.437
53266W        W20334  11.130   7.184   3.262
53267W        W20335  13.611  38.393   0.842
53268W        W20336   9.279  21.715   2.406
53269W        W20337  42.510  41.009   2.723
53270W        W20338   7.741  43.448   3.362
53271W        W20339  40.403  11.244  13.469
53272W        W20340  43.848  39.351   3.310
53273W        W20341  15.813  35.530  10.929
53274W        W20342   9.675  42.901  13.799
53275W        W20343   8.765   5.747   2.826
53276W        W20344  17.096  41.904   1.852
53277W        W20345  37.523  43.437  10.549
53278W        W20346  20.090  16.302   4.599
53279W        W20347  40.036  20.066   1.274
53280W        W20348  42.281  11.183   4.627
53281W        W20349  13.111  18.210  10.923
53282W        W20350   5.430   7.891   4.704
53283W        W20351  34.949  37.003   4.770
53284W        W20352  18.092  16.681  14.792
53285W        W20353  19.629  27.155   1.349
53286W        W20354  36.039  20.693  11.520
53287W        W20355  32.059   8.267  10.524
53288W        W20356  43.377   1.898   1.747
53289W        W20357  24.647  35.402   1.439
53290W        W20358  28.019   5.828   4.330
53291W        W20359  11.762  36.474  12.471
53292W        W20360  41.370   0.896  11.006
53293W        W20361  13.252  18.553  11.517
53294W        W20362  41.840  28.504  12.831
53295W        W20363  25.214  15.209   4.825
53296W        W20364  20.219  27.139   0.795
53297W        W20365  35.952  13.642   0.840
53298W        W20366  15.600  25.180   0.454
53299W        W20367   9.765  20.195  10.523
53300W        W20368  12.813   5.687  12.021
53301W        W20369  33.957  39.434  10.472
53302W        W20370  35.591  27.088   3.653
53303W        W20371  25.565  12.652   2.227
53304W        W20372   3.903  11.651   0.741
53305W        W20373  28.933  31.472  13.803
53306W        W20374  22.237  36.016   4.633
53307W        W20375  27.165  39.025  10.621
53308W        W20376  28.569   4.784  12.382
53309W        W20377   3.394  14.617  11.122
53310W        W20378   6.200  10.828  11.112
53311W        W20379  20.719   9.720  12.879
53312W        W20380  13.840  34.572  12.396
53313W        W20381  16.747  42.866   2.812
53314W        W20382  42.401  24.102  10.604
53315W        W20383   3.240  38.411  12.898
53316W        W20384  24.204  17.720  14.510
53317W        W20385   4.911  26.054  14.883
53318W        W20386  25.127  31.642  14.412
53319W        W20387   0.776   4.377   3.213
53320W        W20388   7.280  35.518  11.440
53321W        W20389  24.999  21.540  10.628
53322W        W20390  32.438  36.377   0.931
53323W        W20391  21.253  34.108  10.898
53324W        W20392  37.423  26.115  13.840
53325W        W20393  15.712  17.693  10.435
53326W        W20394  11.290   6.419  13.984
53327W        W20395   6.358  21.022   9.938
53328W        W20396  24.076  25.152   1.796
53329W        W20397  34.482  25.706  10.434
53330W        W20398  12.725  17.119  14.419
53331W        W20399  36.491   9.281  13.018
53332W        W20400  13.702  18.708  14.924
53333W        W20401   3.885  21.727  10.424
53334W        W20402  15.754  35.545  11.442
53335W        W20403  42.811   3.269   1.760
53336W        W20404  11.764  38.879  10.640
53337W        W20405  24.481   4.941  10.559
53338W        W20406  30.996  39.936   1.366
53339W        W20407  16.093  21.594   0.403
53340W        W20408  26.029  44.276   0.273
53341W        W20409  23.528  24.689   2.394
53342W        W20410  17.109   8.809  13.843
53343W        W20411  16.735  28.186  12.904
53344W        W20412  21.597  33.410   4.689
53345W        W20413  40.423  32.441   0.765
53346W        W20414  43.828  26.042  11.519
53347W        W20415  17.705  17.637  13.053
53348W        W20416   6.389  18.218  10.628
53349W        W20417  27.534   4.769   3.722
53350W        W20418  39.892  20.087  12.550
53351W        W20419   9.230   0.755   0.765
53352W        W20420  12.678  10.825  13.324
53353W        W20421  30.030   8.847   3.268
53354W        W20422   8.728  30.044  12.989
53355W        W20423  36.948  18.132  13.041
53356W        W20424  35.070  44.283   3.757
53357W        W20425   5.212   5.209  12.427
53358W        W20426  33.977  42.402  10.902
53359W        W20427  43.422   5.428   0.768
53360W        W20428  35.382   1.741  11.439
53361W        W20429  12.813   2.769  12.010
53362W        W20430   6.873  11.127  12.838
53363W        W20431   0.440  31.118   2.871
53364W        W20432  15.796  11.832   1.864
53365W        W20433  21.726  27.060  14.934
53366W        W20434  43.891  32.040   4.309
53367W        W20435  36.360  25.164   0.744
53368W        W20436   8.684   8.379  11.066
53369W        W20437  36.877  34.475   0.838
53370W        W20438   0.473  37.862  10.910
53371W        W20439  32.969  16.580  13.032
53372W        W20440  18.620   3.288   1.916
53373W        W20441  21.140  20.192  11.560
53374W        W20442  17.071  17.081   9.952
53375W        W20443  41.316  37.086   2.255
53376W        W20444   5.205  44.007  13.441
53377W        W20445  27.030  19.733  12.450
53378W        W20446  38.934  26.602  10.944
53379W        W20447  21.066  38.063   4.190
53380W        W20448  16.076  37.847   4.245
53381W        W20449  38.564  31.492  10.455
53382W        W20450   0.807  31.466   4.317
53383W        W20451  14.663   4.899  14.871
53384W        W20452  27.122  30.008  13.908
53385W        W20453  12.659  37.981  10.613
53386W        W20454  26.006  34.390   1.297
53387W        W20455   9.187  16.251  13.361
53388W        W20456  19.097  13.173   0.862
53389W        W20457  15.186   6.392  10.988
53390W        W20458  10.326  37.837   3.794
53391W        W20459   1.864  25.050  13.372
53392W        W20460   0.369  33.477  13.872
53393W        W20461  23.187   8.867   1.333
53394W        W20462  44.819  29.057   1.904
53395W        W20463  11.808  31.943  14.488
53396W        W20464  14.300  44.966  12.439
53397W        W20465  21.249  18.255  12.012
53398W        W20466  16.250  31.934  13.981
53399W        W20467   9.835  40.829  10.404
53400W        W20468  11.707  42.460   1.763
53401W        W20469  36.534  30.564   0.914
53402W        W20470   7.822  26.021  10.922
53403W        W20471  29.928  28.633  14.950
53404W        W20472  43.784  34.523   1.718
53405W        W20473  37.355   2.889  13.393
53406W        W20474   6.259  17.589   0.750
53407W        W20475  15.322   9.875   0.776
53408W        W20476  37.358  16.772  12.484
53409W        W20477   8.663  11.373   2.281
53410W        W20478   6.708  30.515  13.414
53411W        W20479   8.717   4.705   5.223
53412W        W20480  10.808   4.414  12.355
53413W        W20481  24.629  18.202  10.553
53414W        W20482  31.565  22.709   0.840
53415W        W20483  27.453  15.669   3.838
53416W        W20484  33.488   1.911   1.740
53417W        W20485  40.044  42.399  12.436
53418W        W20486  25.080  16.077  11.512
53419W        W20487  33.984   3.718  13.369
53420W        W20488  12.194  30.929   1.277
53421W        W20489  26.062  22.728   3.671
53422W        W20490  14.159  38.016   1.794
53423W        W20491  34.540  10.679  14.022
53424W        W20492  13.760   3.835   3.264
53425W        W20493   0.751  23.493   2.834
53426W        W20494  21.178  28.094   2.346
53427W        W20495   3.754  32.025   4.679
53428W        W20496  41.370  17.228   0.402
53429W        W20497  44.491  15.230   0.743
53430W        W20498  38.472   9.162  12.854
53431W        W20499  14.174   1.760  11.025
53432W        W20500  35.410  40.975   4.301
53433W        W20501  37.863  17.156  10.983
53434W        W20502  13.339  42.949  14.796
53435W        W20503   8.336  32.536   0.766
53436W        W20504  13.310  15.733   2.698
53437W        W20505  36.095   0.878  14.280
53438W        W20506  44.384  33.553  14.356
53439W        W20507   9.189  32.021   1.822
53440W        W20508  20.629  30.911  13.830
53441W        W20509  34.571  33.924  13.328
53442W        W20510  19.674  12.219   4.160
53443W        W20511   4.239  38.415  12.576
53444W        W20512  40.465  21.164  10.481
53445W        W20513   5.328  25.672   1.300
53446W        W20514   3.920  28.671  12.039
53447W        W20515  32.495  25.476  14.877
53448W        W20516   8.743  14.232   2.312
53449W        W20517  33.621  30.939  14.475
53450W        W20518  17.797  21.602  13.483
53451W        W20519  44.264  18.238   0.830
53452W        W20520   5.784  28.591  13.393
53453W        W20521  25.477  13.683  11.429
53454W        W20522  23.079  36.001  12.828
53455W        W20523  26.460  34.964   5.194
53456W        W20524  38.555   6.399   3.636
53457W        W20525  39.420  35.010  11.995
53458W        W20526   7.220   6.370  13.456
53459W        W20527  36.931   0.434   2.883
53460W        W20528   5.932  18.637  14.943
53461W        W20529   3.921  23.133   2.364
53462W        W20530  18.771  36.446  14.909
53463W        W20531  10.253  33.626   1.887
53464W        W20532  22.517  17.681  13.939
53465W        W20533  17.680  21.559   0.299
53466W        W20534  30.534  36.942   1.366
53467W        W20535  35.516   6.743  13.398
53468W        W20536  39.892  13.271   0.925
53469W        W20537   4.228  10.851   3.784
53470W        W20538   0.408   8.861   4.639
53471W        W20539   3.928  21.558  11.493
53472W        W20540  39.538  14.244  12.934
53473W        W20541  10.309  40.845   0.393
53474W        W20542  34.059  17.293  12.092
53475W        W20543  14.096  10.241  10.487
53476W        W20544  26.179   0.294  12.514
53477W        W20545  12.239  35.888  13.498
53478W        W20546  29.998  41.470   2.367
53479W        W20547  34.496  20.269  11.562
53480W        W20548  40.821  41.474  12.366
53481W        W20549  24.172   9.156   2.194
53482W        W20550   6.307  19.734  14.837
53483W        W20551  18.613  34.557  13.873
53484W        W20552  43.778   0.830  12.437
53485W        W20553  12.811  42.293   4.822
53486W        W20554  36.508  39.526   4.275
53487W        W20555  20.161  44.267   1.695
53488W        W20556  22.651  43.351   1.230
53489W        W20557  23.585  16.088  10.996
53490W        W20558   5.808  44.368   3.258
53491W        W20559  39.321   8.829  14.489
53492W        W20560  19.134  31.546  11.374
53493W        W20561  40.491   8.891  12.851
53494W        W20562  31.977  31.937  13.801
53495W        W20563  19.635  27.589  12.537
53496W        W20564  16.271  24.549   1.707
53497W        W20565  26.618  16.173   0.863
53498W        W20566  35.065  24.018  11.995
53499W        W20567  10.808  32.583   1.890
53500W        W20568   4.349   2.846   0.795
53501W        W20569  20.646  25.032  11.082
53502W        W20570   7.231  25.533  11.068
53503W        W20571  35.945  14.262   0.367
53504W        W20572  23.179  40.819  10.086
53505W        W20573  28.478  42.288   1.248
53506W        W20574  36.062   9.804   3.760
53507W        W20575  15.621  31.098   3.258
53508W        W20576  22.559  38.507  14.958
53509W        W20577   9.790  38.042   4.221
53510W        W20578  28.938  38.443  11.446
53511W        W20579   2.409  40.400  14.001
53512W        W20580  10.367   6.795  13.321
53513W        W20581  29.470   8.307  12.569
53514W        W20582  19.582  11.272  14.918
53515W        W20583  23.493   0.968  10.635
53516W        W20584   2.278  10.700   4.158
53517W        W20585  23.583   3.788  14.808
53518W        W20586  22.739  43.366  12.906
53519W        W20587  40.932  31.899   0.944
53520W        W20588   4.791  18.151  12.901
53521W        W20589  33.000  12.721   1.360
53522W        W20590  35.890  39.532  14.434
53523W        W20591  18.577   6.819   3.158
53524W        W20592   8.861  12.740   4.726
53525W        W20593  22.065  17.288  10.418
53526W        W20594  36.034  43.977   3.815
53527W        W20595  38.559  13.616   2.681
53528W        W20596   2.900  10.180  13.991
53529W        W20597  15.701  14.791   3.838
53530W        W20598   2.804  29.127   4.748
53531W        W20599   4.213  16.272  14.775
53532W        W20600   6.193  43.430  13.324
53533W        W20601  25.077   8.828  11.430
53534W        W20602  39.869  33.120  13.984
53535W        W20603  34.876   5.349   3.274
53536W        W20604  28.670   3.382  13.405
53537W        W20605  37.483   3.431  11.901
53538W        W20606  29.453  41.924  14.794
53539W        W20607  17.636  17.298  10.575
53540W        W20608   0.837  36.373   0.283
53541W        W20609  39.320   7.209  12.070
53542W        W20610  13.705   9.780   0.913
53543W        W20611  11.152  10.164   2.773
53544W        W20612   8.871  37.874   3.707
53545W        W20613  21.120  17.730  11.448
53546W        W20614  12.346  11.131   2.685
53547W        W20615  19.253   8.391  11.414
53548W        W20616  26.034   9.348   1.808
53549W        W20617  24.535  44.981   0.261
53550W        W20618   8.359   2.726  13.339
53551W        W20619  40.955  39.859  13.894
53552W        W20620  44.302  43.857  13.424
53553W        W20621   6.709  19.162  14.924
53554W        W20622   7.398  14.214   1.781
53555W        W20623  17.167  19.760  12.952
53556W        W20624  24.680   8.159   3.715
53557W        W20625  32.905   2.427   2.242
53558W        W20626  36.084   1.341   0.264
53559W        W20627  14.619  25.123   2.382
53560W        W20628  11.865  38.522  12.054
53561W        W20629  10.364   3.945   1.931
53562W        W20630  37.510   2.316   0.359
53563W        W20631  22.656  39.891  14.443
53564W        W20632  25.583  36.457  11.493
53565W        W20633  19.571  30.573  13.953
53566W        W20634  11.317  27.136  13.348
53567W        W20635  42.934   6.796  11.575
53568W        W20636  12.782   1.434   0.890
53569W        W20637   9.361   5.337   0.787
53570W        W20638  12.682  39.506   3.270
53571W        W20639  28.655  18.091   4.250
53572W        W20640   8.337  25.065  10.889
53573W        W20641  33.893  24.485  14.431
53574W        W20642   5.889  27.121   3.724
53575W        W20643   6.863  13.785  12.878
53576W        W20644  44.851   7.867   3.859
53577W        W20645   3.461   7.665   2.802
53578W        W20646  30.042  19.053   0.329
53579W        W20647  39.869   0.851   0.806
53580W        W20648  22.141  38.375  12.508
53581W        W20649  33.992  17.258  13.389
53582W        W20650  40.924  10.215   4.714
53583W        W20651  23.240  21.255   2.737
53584W        W20652  18.723   8.344  11.484
53585W        W20653   4.800  38.858  11.466
53586W        W20654   3.237  18.749  13.457
53587W        W20655   0.815  17.731  11.856
53588W        W20656   4.324  22.565   1.848
53589W        W20657   5.249  24.145   2.754
53590W        W20658  38.026   1.940   3.825
53591W        W20659  39.436   6.333  11.879
53592W        W20660   3.810  13.181  12.094
53593W        W20661  37.571  14.246  11.479
53594W        W20662  42.428   5.894   4.210
53595W        W20663   3.770  41.903  13.943
53596W        W20664  20.170   6.391  10.953
53597W        W20665  39.504  42.480   1.444
53598W        W20666  18.132   1.314   0.441
53599W        W20667   9.857  18.060   4.136
53600W        W20668  27.580  33.016   4.174
53601W        W20669  31.432  33.965  12.055
53602W        W20670  32.599  40.904  12.556
53603W        W20671   5.312   1.254   1.299
53604W        W20672  41.338  22.662   4.308
53605W        W20673   8.285   4.292  11.547
53606W        W20674   0.381  29.000   1.830
53607W        W20675  18.580  20.100  13.911
53608W        W20676  31.946  29.050  14.417
53609W        W20677  10.357  13.319   0.405
53610W        W20678   3.801  26.464  13.914
53611W        W20679  11.812  37.038   4.792
53612W        W20680  13.291  19.219   2.236
53613W        W20681  40.391  11.658  10.509
53614W        W20682  31.599  21.080  12.037
53615W        W20683   0.260  15.787   3.161
53616W        W20684  35.398  26.543  11.051
53617W        W20685  13.306  29.574  12.986
53618W        W20686  29.509  35.429   1.337
53619W        W20687  14.296  34.971  12.990
53620W        W20688  26.015   2.277  13.365
53621W        W20689  38.054  21.092  12.907
53622W        W20690  11.129  18.224   4.124
53623W        W20691  14.721  34.491  11.373
53624W        W20692  11.645  15.094   4.235
53625W        W20693  34.374   7.844  13.402
53626W        W20694   5.836  41.818  14.408
53627W        W20695  14.644   0.833  10.021
53628W        W20696  17.656  42.519  10.587
53629W        W20697  36.586  16.171  14.971
53630W        W20698  15.786   1.476   4.342
53631W        W20699  36.087   6.247   2.313
53632W        W20700  11.798  27.644   1.757
53633W        W20701  35.910  39.368   4.216
53634W        W20702  20.739   8.289   1.739
53635W        W20703   1.384   9.801  13.481
53636W        W20704  42.996  30.538   3.830
53637W        W20705  39.496  22.690  12.830
53638W        W20706  33.097  14.110   4.263
53639W        W20707  19.598   8.803   2.755
53640W        W20708  18.749  40.846  11.932
53641W        W20709  11.130  25.029  11.450
53642W        W20710   9.264  32.935   2.692
53643W        W20711   6.214   6.196   4.124
53644W        W20712  38.532  41.378   2.840
53645W        W20713  14.299  30.089   2.788
53646W        W20714   6.305   1.270  10.972
53647W        W20715  39.969  28.997   4.634
53648W        W20716  38.823  34.959  11.057
53649W        W20717  33.036  14.730   1.344
53650W        W20718   4.217  36.423   4.743
53651W        W20719  44.281  37.412  10.939
53652W        W20720  37.387   6.210   3.701
53653W        W20721  27.519  40.409   3.225
53654W        W20722  37.992  40.983  14.853
53655W        W20723   9.295   9.765   4.203
53656W        W20724  37.424  22.709   2.854
53657W        W20725  41.841  31.101   2.288
53658W        W20726  28.523  21.694  12.085
53659W        W20727  41.502  10.798   0.797
53660W        W20728  39.840  32.576   2.718
53661W        W20729  19.251  17.213   2.844
53662W        W20730   9.890   0.366   3.346
53663W        W20731   3.941   9.351   2.190
53664W        W20732  25.976  26.956  14.315
53665W        W20733  37.045   8.346  14.463
53666W        W20734   0.837  31.970   1.834
53667W        W20735   1.928  31.630  13.394
53668W        W20736  19.218  32.911  14.969
53669W        W20737   6.826   8.250  13.950
53670W        W20738  17.606  33.091  13.994
53671W        W20739   0.320  35.372   2.236
53672W        W20740   5.384  13.745  12.422
53673W        W20741  12.657  37.079   1.740
53674W        W20742   3.922  21.151  12.540
53675W        W20743   4.884  24.086  11.001
53676W        W20744   2.787   4.754   2.863
53677W        W20745  43.921  31.076   2.843
53678W        W20746  18.220  36.863  12.877
53679W        W20747  23.197  23.168   4.682
53680W        W20748  13.316  20.229   1.931
53681W        W20749  12.228  43.515   0.878
53682W        W20750  24.558  24.048  14.377
53683W        W20751   5.798   6.794   3.230
53684W        W20752  23.125  13.636   1.877
53685W        W20753   7.858  21.120   1.451
53686W        W20754  25.047  26.170   4.789
53687W        W20755  12.746  31.484   0.837
53688W        W20756  30.541  19.543   3.242
53689W        W20757  38.025  42.987  11.018
53690W        W20758  14.602  37.072   4.767
53691W        W20759   8.691   0.279   9.612
53692W        W20760  21.562  44.419  10.941
53693W        W20761  25.133  10.861   2.902
53694W        W20762  36.526   4.297  13.397
53695W        W20763  39.847   1.467  10.897
53696W        W20764   7.194   8.880  12.893
53697W        W20765  41.992   3.289   0.811
53698W        W20766   0.269   9.279   2.275
53699W        W20767  28.033  22.508  14.846
53700W        W20768  33.010  32.937  11.387
53701W        W20769  21.737  14.327  10.912
53702W        W20770  44.901  25.980   2.346
53703W        W20771  36.437  17.143   2.672
53704W        W20772   5.312  16.590   0.384
53705W        W20773  41.504  25.105   2.691
53706W        W20774  39.058  23.073   3.255
53707W        W20775  34.925  20.091  12.913
53708W        W20776  42.836  30.993   4.831
53709W        W20777  25.582   3.897  12.931
53710W        W20778  41.368  28.996   2.290
53711W        W20779  24.154  27.118   2.695
53712W        W20780   9.699  40.508  14.322
53713W        W20781  33.420  29.921  14.446
53714W        W20782  33.085  40.801  14.424
53715W        W20783  26.470  21.134  12.397
53716W        W20784   7.188   3.407  13.973
53717W        W20785  36.553  15.259  14.453
53718W        W20786  20.164  14.223  12.875
53719W        W20787  31.096  28.045   1.436
53720W        W20788  32.914  11.719  12.865
53721W        W20789  35.954  29.524   0.467
53722W        W20790  12.334   8.177   2.686
53723W        W20791  15.582  34.048  11.964
53724W        W20792  11.712  20.128   2.307
53725W        W20793   6.323   6.263   5.200
53726W        W20794  22.605   3.740  13.328
53727W        W20795  28.652   5.335  14.473
53728W        W20796  36.553  10.854  11.547
53729W        W20797   2.923   2.241   2.724
53730W        W20798  18.151  24.153  11.945
53731W        W20799   9.338  42.927   1.931
53732W        W20800  35.495  41.499   1.329
53733W        W20801  44.783   9.669  12.458
53734W        W20802  30.987  28.090   3.378
53735W        W20803  44.855   5.904  11.490
53736W        W20804  35.044  13.743  14.339
53737W        W20805  42.432  13.299   3.327
53738W        W20806  15.589  32.118  13.526
53739W        W20807  20.530  31.432  12.427
53740W        W20808   8.805  25.144   2.826
53741W        W20809  25.544  26.566  10.161
53742W        W20810  11.221  30.011   0.432
53743W        W20811  10.851   7.403   0.271
53744W        W20812  12.333   0.798  10.059
53745W        W20813  16.112  43.462  11.450
53746W        W20814  27.507  13.780   0.851
53747W        W20815  37.564  25.591   4.676
53748W        W20816  29.992  35.512   3.150
53749W        W20817  21.537  41.341  13.420
53750W        W20818   6.392  33.112   1.415
53751W        W20819   1.483  40.811   2.700
53752W        W20820  42.346  32.533  12.912
53753W        W20821  23.498   6.184  10.586
53754W        W20822  24.711  27.582   1.750
53755W        W20823  39.336   7.868  13.322
53756W        W20824  35.977  28.486  14.824
53757W        W20825  40.001  26.175   1.767
53758W        W20826   6.740  36.446   3.147
53759W        W20827  44.927  39.058   4.723
53760W        W20828  14.191  26.091  14.815
53761W        W20829  23.194  44.789  14.305
53762W        W20830   1.893  38.436  14.352
53763W        W20831  18.218  37.023  11.604
53764W        W20832  26.199  37.903  13.796
53765W        W20833   2.384  21.662  13.512
53766W        W20834  17.291  43.884  11.955
53767W        W20835  40.487  19.669   4.778
53768W        W20836  39.534  35.478  12.367
53769W        W20837  34.596  36.507  12.094
53770W        W20838   8.226   4.217  12.983
53771W        W20839  27.615  21.229   4.275
53772W        W20840  23.657  10.858  11.480
53773W        W20841  35.018  38.002  13.938
53774W        W20842  15.084  33.041   3.302
53775W        W20843  34.558   7.756  11.959
53776W        W20844  26.089  29.975  12.037
53777W        W20845  43.845   0.834  12.988
53778W        W20846   7.189  27.197  12.935
53779W        W20847  25.005  32.471   4.315
53780W        W20848  31.079  28.961   3.865
53781W        W20849  44.390  27.023   1.420
53782W        W20850  34.434   8.884  13.316
53783W        W20851  36.496  26.509   1.781
53784W        W20852  41.382   5.237  11.400
53785W        W20853   5.755  34.090  11.476
53786W        W20854  12.833  42.022   4.281
53787W        W20855  37.962  27.552  12.092
53788W        W20856   5.788  21.619   3.146
53789W        W20857   5.225  11.166   0.406
53790W        W20858  35.887  17.660   4.707
53791W        W20859  35.548   9.800   4.660
53792W        W20860  21.132  39.017  13.008
53793W        W20861  40.960  29.112   1.747
53794W        W20862  33.591  11.662   0.301
53795W        W20863   3.859   9.225   2.844
53796W        W20864   7.302  15.590   5.308
53797W        W20865  28.121  42.947   4.260
53798W        W20866  26.497   6.315  11.866
53799W        W20867  37.508  36.883  11.563
53800W        W20868  27.170  17.699   4.295
53801W        W20869  25.507  24.661   4.598
53802W        W20870   3.415  24.128   4.600
53803W        W20871  28.970  22.040  11.554
53804W        W20872  35.452   0.835   3.715
53805W        W20873  34.930  23.000  10.947
53806W        W20874  44.472  38.869  12.517
53807W        W20875  19.753  24.995   4.136
53808W        W20876  18.062  29.947  14.283
53809W        W20877  41.836  39.897  13.448
53810W        W20878  21.263   6.269   4.217
53811W        W20879  32.073  44.442  12.959
53812W        W20880  11.839   3.436   2.375
53813W        W20881  15.787  15.115  14.324
53814W        W20882   6.808  22.232   1.853
53815W        W20883  37.482  38.435  13.544
53816W        W20884  26.957  22.557   1.873
53817W        W20885  44.791  10.273   1.889
53818W        W20886  18.295  13.152   3.305
53819W        W20887  20.530  36.946  13.813
53820W        W20888  37.555  41.839  10.888
53821W        W20889  11.818  14.177   2.415
53822W        W20890  27.460  40.832  11.006
53823W        W20891  35.565  32.406   4.635
53824W        W20892  23.553  29.150  11.521
53825W        W20893  21.709  21.664   0.284
53826W        W20894   5.319  22.527  11.383
53827W        W20895   9.211  35.880   4.627
53828W        W20896  28.181  30.424   3.676
53829W        W20897  28.057  14.694  13.335
53830W        W20898  26.630  30.011   1.263
53831W        W20899  11.624  16.782   1.854
53832W        W20900  44.500   9.153   0.314
53833W        W20901  44.892  20.224  14.393
53834W        W20902   1.837   0.851   4.716
53835W        W20903  36.990  28.091  14.015
53836W        W20904   1.440  22.626   1.807
53837W        W20905  16.621  29.522  13.981
53838W        W20906   3.727   9.387  11.967
53839W        W20907  36.567   9.208  11.590
53840W        W20908  36.548  16.254  10.989
53841W        W20909   1.887  26.980  14.926
53842W        W20910  40.510   3.924   2.316
53843W        W20911  30.978  42.420  13.864
53844W        W20912  21.210  38.828  11.983
53845W        W20913  32.065  26.562   3.741
53846W        W20914   3.945  34.074  14.500
53847W        W20915  13.606  36.495   2.780
53848W        W20916  10.163  13.749   2.187
53849W        W20917   9.162  32.002  10.603
53850W        W20918  33.974  43.940   3.248
53851W        W20919   8.749  39.002  10.983
53852W        W20920  40.023  10.193   1.798
53853W        W20921  37.523  13.764   2.902
53854W        W20922  34.503  36.409   0.320
53855W        W20923  21.690   5.763  10.492
53856W        W20924  24.570  23.707   4.305
53857W        W20925   2.373  19.250  10.921
53858W        W20926  24.560  16.233   0.761
53859W        W20927  31.067  32.077  13.040
53860W        W20928  10.645  42.912  13.496
53861W        W20929  31.457  11.667   0.748
53862W        W20930   9.280  41.306   3.164
53863W        W20931   8.370   1.736   3.760
53864W        W20932  44.954  34.576   0.794
53865W        W20933  44.404   7.174  14.955
53866W        W20934  33.933  40.547  12.398
53867W        W20935  24.074   2.796  12.940
53868W        W20936  39.425  43.792  11.576
53869W        W20937  20.138  33.568  12.946
53870W        W20938  39.447  28.104   2.218
53871W        W20939   5.393   0.813   4.757
53872W        W20940  32.054   7.908  11.900
53873W        W20941  23.037  13.250  10.578
53874W        W20942  32.499  18.783   1.803
53875W        W20943  17.239   9.819  13.050
53876W        W20944   8.234  37.974  11.888
53877W        W20945  10.278  14.169  12.362
53878W        W20946  41.943  37.433  10.624
53879W        W20947   6.826  34.875   2.271
53880W        W20948  43.790   2.366   2.857
53881W        W20949  37.893  44.355  12.470
53882W        W20950  15.649  35.088  13.363
53883W        W20951  25.034  41.829   2.399
53884W        W20952  40.369  37.506   4.598
53885W        W20953   6.243  14.222   5.123
53886W        W20954  16.095  18.115  14.422
53887W        W20955  19.534  23.151  13.983
53888W        W20956  37.483   3.341  11.475
53889W        W20957  29.495  12.229  14.381
53890W        W20958  29.526  17.688   4.234
53891W        W20959   3.939  32.022  13.320
53892W        W20960  43.340  11.726   2.205
53893W        W20961  30.565   6.425  12.966
53894W        W20962   5.718  26.560   2.823
53895W        W20963   1.339  38.473   4.157
53896W        W20964  13.275  16.802   1.435
53897W        W20965  32.393  10.224  14.854
53898W        W20966  34.423  20.071  12.985
53899W        W20967   1.904  12.343  13.336
53900W        W20968   3.887  29.512   1.335
53901W        W20969  40.955  29.518  13.540
53902W        W20970  15.173  24.053   3.349
53903W        W20971   8.260  38.350  11.862
53904W        W20972  42.812   8.274   1.921
53905W        W20973  18.242   6.713   2.358
53906W        W20974  44.002  34.395   9.950
53907W        W20975  32.576  25.473  14.416
53908W        W20976  13.115   4.851   1.881
53909W        W20977  16.162  39.066  11.102
53910W        W20978  22.599   1.866  11.096
53911W        W20979  24.201  10.274  10.901
53912W        W20980  30.947  29.451  13.899
53913W        W20981   4.922  26.614  11.029
53914W        W20982   9.831  17.082   4.325
53915W        W20983  22.608   8.222  12.361
53916W        W20984   9.851  24.090  13.799
53917W        W20985  32.044  32.038   4.352
53918W        W20986  18.260  44.280   9.966
53919W        W20987  41.013  36.069  13.887
53920W        W20988   8.340   2.300  13.846
53921W        W20989  22.157  24.015  10.632
53922W        W20990  20.592   5.773  14.841
53923W        W20991  20.719  20.722  11.125
53924W        W20992  13.781  43.959  13.953
53925W        W20993  25.654  44.869  14.301
53926W        W20994  19.071   8.878  10.619
53927W        W20995  39.464  17.576   3.799
53928W        W20996  29.979  40.318   2.760
53929W        W20997  33.387  34.980  13.898
53930W        W20998  31.404   0.971  14.010
53931W        W20999  14.322  32.488  12.559
53932W        W21000   1.898   5.199   1.312
53933W        W21001   5.885  35.971  13.431
53934W        W21002   1.368  26.551   1.259
53935W        W21003   9.750  17.244  14.403
53936W        W21004  17.584  29.053   2.332
53937W        W21005  22.065  26.528   0.875
53938W        W21006   3.862  15.136  10.949
53939W        W21007  31.591  19.642   5.290
53940W        W21008  21.670  36.948   1.391
53941W        W21009  44.370  37.511  14.807
53942W        W21010  41.996  29.077  12.023
53943W        W21011  38.330  26.157  13.444
53944W        W21012  27.450  17.597  12.846
53945W        W21013   3.353  32.028   4.177
53946W        W21014  38.472  32.112  11.010
53947W        W21015  34.550  32.578  14.860
53948W        W21016  17.670  39.376  12.845
53949W        W21017  38.396  37.976   4.793
53950W        W21018  36.375  44.352  14.775
53951W        W21019  28.040  15.640   3.268
53952W        W21020  36.443  34.912   1.309
53953W        W21021  39.940  21.696  10.939
53954W        W21022  22.553  36.506  11.971
53955W        W21023  41.502  22.039   2.815
53956W        W21024  18.768  44.844   4.229
53957W        W21025  19.203  18.288  14.331
53958W        W21026   7.246  44.386   4.351
53959W        W21027  24.151  26.514   3.756
53960W        W21028  40.035  35.081  13.383
53961W        W21029  41.853   5.912  12.462
53962W        W21030  34.476   6.777  11.579
53963W        W21031   0.934  13.228  14.843
53964W        W21032  31.943  35.480  14.902
53965W        W21033   0.436  30.005   3.381
53966W        W21034  14.625  31.064  14.359
53967W        W21035  38.425  40.908   2.296
53968W        W21036  20.078  33.022  13.855
53969W        W21037  42.014  14.761  14.875
53970W        W21038  24.028  23.568   3.172
53971W        W21039  34.863  28.065  12.998
53972W        W21040  36.579  43.969  14.352
53973W        W21041   7.186  14.617   2.339
53974W        W21042  33.524  27.154   0.955
53975W        W21043  28.505  16.618   0.345
53976W        W21044  26.157  38.402  10.606
53977W        W21045   5.337   9.343  13.810
53978W        W21046  20.556  22.198   2.398
53979W        W21047  36.052   5.248   2.794
53980W        W21048  26.962  41.848  10.611
53981W        W21049  17.723  26.058  12.372
53982W        W21050  22.670   8.691  12.042
53983W        W21051   3.827   5.920  13.541
53984W        W21052  34.936  24.635  13.821
53985W        W21053  27.589  19.719   0.370
53986W        W21054  25.511  32.530   4.672
53987W        W21055   0.787  19.578  11.112
53988W        W21056  23.609   3.904   0.735
53989W        W21057  26.075  20.526  13.884
53990W        W21058  28.186  41.021   2.408
53991W        W21059  34.990   3.265   3.313
53992W        W21060  19.597  25.527  10.636
53993W        W21061   1.431  16.571   4.318
53994W        W21062   9.668  15.135  11.008
53995W        W21063   1.476   5.836   3.671
53996W        W21064  31.090  44.811  13.793
53997W        W21065   6.383  23.143   4.332
53998W        W21066  28.453  26.066   4.332
53999W        W21067  17.672  19.261   4.831
54000W        W21068   9.190   6.792   3.259
54001W        W21069   6.895  41.886   4.304
54002W        W21070  10.777  40.852   2.281
54003W        W21071   3.392  31.054  12.875
54004W        W21072  31.909  17.664  12.451
54005W        W21073  42.332  22.727  14.857
54006W        W21074   8.188  20.570   0.897
54007W        W21075  11.671  36.490  14.391
54008W        W21076  41.990  22.614   3.806
54009W        W21077  42.825  25.113  14.951
54010W        W21078  40.936  41.510  14.474
54011W        W21079  22.730  24.198  14.317
54012W        W21080  29.058  44.287  12.940
54013W        W21081  38.397  36.368  10.430
54014W        W21082   7.185  23.236  14.332
54015W        W21083  33.409  37.967   4.115
54016W        W21084  34.916   6.831   2.393
54017W        W21085  41.331  26.570   1.431
54018W        W21086  26.646  13.126   1.245
54019W        W21087  30.606  30.608  14.348
54020W        W21088  20.689  19.116   0.427
54021W        W21089  12.740  17.224   2.853
54022W        W21090  32.467  43.297   1.719
54023W        W21091   3.280  39.548   3.668
54024W        W21092  44.825  28.501  11.549
54025W        W21093  41.460  39.050   2.188
54026W        W21094  16.703  19.731  12.087
54027W        W21095   3.865  30.565  14.512
54028W        W21096  30.431   5.792   4.197
54029W        W21097  25.518  44.962   4.793
54030W        W21098   9.261  44.963   4.130
54031W        W21099   7.293   1.394   1.846
54032W        W21100  11.230   8.851  11.976
54033W        W21101  16.118   1.777   1.859
54034W        W21102  30.967  17.142  12.452
54035W        W21103  31.498  44.368   3.630
54036W        W21104  24.057  20.229   1.322
54037W        W21105  42.951  32.100  12.971
54038W        W21106   5.263  11.276  14.425
54039W        W21107   8.307   1.302  14.998
54040W        W21108  23.555  10.210   3.204
54041W        W21109  28.525  44.968   2.800
54042W        W21110  13.188  24.594  14.492
54043W        W21111  28.038  42.977  13.319
54044W        W21112   0.773  42.455   2.754
54045W        W21113   4.223   9.155  11.911
54046W        W21114   5.836   5.233   3.809
54047W        W21115  25.504  10.722  14.864
54048W        W21116  41.950  10.278   3.182
54049W        W21117  16.106  37.354  11.022
54050W        W21118   1.270   9.285  13.482
54051W        W21119  44.338  16.665   2.205
54052W        W21120  18.547   1.888  11.977
54053W        W21121  36.385  43.448  11.609
54054W        W21122   8.185   1.853  11.887
54055W        W21123  15.614   4.830   3.234
54056W        W21124  19.134  25.055  12.524
54057W        W21125  10.732  33.129   1.773
54058W        W21126  33.889  18.261   4.747
54059W        W21127  32.431  38.501   2.315
54060W        W21128  29.037  18.584   2.405
54061W        W21129  25.212  33.986   2.819
54062W        W21130  43.857  40.484   3.870
54063W        W21131  30.154  40.472   3.784
54064W        W21132  31.538  24.043   9.608
54065W        W21133   0.250  37.870   3.774
54066W        W21134  19.268   0.317   0.372
54067W        W21135   8.851  34.942   2.370
54068W        W21136  11.289  18.783   1.423
54069W        W21137  19.764  42.911  14.963
54070W        W21138  18.561  10.687   3.806
54071W        W21139   0.494  35.482  12.524
54072W        W21140  22.541  38.001   3.804
54073W        W21141  20.602  17.755   2.416
54074W        W21142  37.832  33.963  12.899
54075W        W21143  33.583   7.257   2.417
54076W        W21144  24.160  27.106   3.306
54077W        W21145  42.934  11.365   3.848
54078W        W21146  32.014  18.282   3.375
54079W        W21147  11.279  41.442  10.914
54080W        W21148  39.902  11.812  11.002
54081W        W21149  11.857   0.473   1.283
54082W        W21150  16.209  44.822   4.839
54083W        W21151  33.042  27.064   2.793
54084W        W21152   5.336   2.347  13.400
54085W        W21153  29.033  35.039   4.214
54086W        W21154  19.679  33.425  13.840
54087W        W21155  12.169  23.993  14.301
54088W        W21156  40.803  42.814   1.372
54089W        W21157  37.012  14.309  10.508
54090W        W21158  39.921  36.017  14.789
54091W        W21159  27.092   2.431   0.865
54092W        W21160  13.772   7.182  14.338
54093W        W21161  18.643  31.053   2.319
54094W        W21162  38.980  30.616   1.729
54095W        W21163  38.830   5.721   1.923
54096W        W21164  29.138  32.980  14.350
54097W        W21165  28.512  41.384   4.318
54098W        W21166  42.361   0.394   2.394
54099W        W21167  40.802  38.530   4.809
54100W        W21168  15.096   3.862  12.390
54101W        W21169   8.706  13.250  14.417
54102W        W21170  34.070   2.959   2.683
54103W        W21171  22.738   4.935   1.214
54104W        W21172  28.043  19.680   3.185
54105W        W21173   9.384  18.068   0.910
54106W        W21174  43.299  36.408  10.551
54107W        W21175  17.204   9.822  10.942
54108W        W21176  39.846  27.159  10.574
54109W        W21177  35.430   2.914   4.310
54110W        W21178  39.039  29.514  14.978
54111W        W21179  10.244  25.561   1.878
54112W        W21180   2.376  40.499   3.313
54113W        W21181  17.747  40.880   3.708
54114W        W21182  38.545  37.040   3.276
54115W        W21183  10.270  11.325   4.254
54116W        W21184   0.368  14.624  14.995
54117W        W21185   2.886  19.677   3.206
54118W        W21186  32.626  10.743  11.065
54119W        W21187   7.876  20.639  12.985
54120W        W21188   4.362  34.375   2.360
54121W        W21189  23.571   4.223  11.473
54122W        W21190   7.701  12.339   2.230
54123W        W21191  15.139  10.271  13.819
54124W        W21192  32.614  10.319   1.361
54125W        W21193  44.397  40.402   1.370
54126W        W21194  15.309   5.781   3.146
54127W        W21195   3.873  11.131  14.855
54128W        W21196  35.441  20.124   1.805
54129W        W21197   9.755  16.282  14.889
54130W        W21198   0.429  39.941  14.911
54131W        W21199  10.215  18.636   3.158
54132W        W21200  17.587  18.112  12.354
54133W        W21201  10.708  39.866   4.301
54134W        W21202  38.986   3.226  12.537
54135W        W21203  26.515   6.859   3.196
54136W        W21204  40.438   9.364   0.428
54137W        W21205  17.094  35.015  12.868
54138W        W21206   7.742  43.354  14.814
54139W        W21207  18.084  13.263  12.356
54140W        W21208   8.281  10.224   0.285
54141W        W21209  16.623  44.378  13.494
54142W        W21210  22.660  42.281  13.543
54143W        W21211  33.503  21.037  11.046
54144W        W21212  21.719   6.884  11.612
54145W        W21213  29.115  32.431  13.384
54146W        W21214   3.724  40.897   2.266
54147W        W21215  25.619  32.587  11.517
54148W        W21216   4.377   1.371   2.890
54149W        W21217  36.529  17.765   1.773
54150W        W21218  12.187  42.280  10.507
54151W        W21219  20.744  30.084  14.889
54152W        W21220  38.547  17.664   1.346
54153W        W21221  26.644  27.638  10.448
54154W        W21222  44.860   6.883  13.376
54155W        W21223  19.683  18.201   0.790
54156W        W21224  31.946  14.306  14.789
54157W        W21225  17.224  19.043  13.943
54158W        W21226   2.225  34.051  14.426
54159W        W21227  35.011  39.410  13.826
54160W        W21228  30.030  16.240  11.534
54161W        W21229  33.992  10.832  13.039
54162W        W21230   0.336   8.851   3.327
54163W        W21231   7.279   5.298  10.934
54164W        W21232   9.286   9.212   3.829
54165W        W21233  26.034  10.309   0.918
54166W        W21234  22.037  17.088  11.935
54167W        W21235  35.099  43.359  12.468
54168W        W21236   4.253  19.286  13.799
54169W        W21237  25.147   0.357  12.847
54170W        W21238   8.843   9.821   2.668
54171W        W21239   6.824  36.957  13.933
54172W        W21240  40.022   6.872   3.330
54173W        W21241  44.430   6.744  12.501
54174W        W21242  11.739  34.997  12.928
54175W        W21243  28.102   6.369   3.338
54176W        W21244  25.148  33.489  10.567
54177W        W21245  26.656  25.174  11.546
54178W        W21246  41.427  44.790   0.263
54179W        W21247  42.370  38.012   1.715
54180W        W21248  17.190  10.286   1.363
54181W        W21249  15.286  14.669   1.412
54182W        W21250  11.646   2.931  14.792
54183W        W21251   5.916  38.532  11.613
54184W        W21252   7.876  10.197   4.636
54185W        W21253  10.358  21.713   3.287
54186W        W21254   0.848  41.518  10.458
54187W        W21255  25.478   0.796  13.512
54188W        W21256  16.091  25.215  14.462
54189W        W21257  22.673  33.439   0.912
54190W        W21258  28.061  44.280  14.765
54191W        W21259  36.919  42.954  13.349
54192W        W21260  34.522  35.937   1.844
54193W        W21261  38.010  14.698  14.807
54194W        W21262  14.683  11.828   2.681
54195W        W21263   9.787   3.884  14.370
54196W        W21264  24.028  31.900  13.941
54197W        W21265  19.740  36.455  13.895
54198W        W21266   5.758   8.337   1.763
54199W        W21267  25.162  36.003  14.381
54200W        W21268  16.584  20.111  10.900
54201W        W21269  39.550  15.605   3.281
54202W        W21270  39.374  25.506   1.279
54203W        W21271  28.532  10.763   0.469
54204W        W21272  21.100  19.735  14.021
54205W        W21273  12.126   7.278   1.372
54206W        W21274  20.063   9.218   3.168
54207W        W21275  25.704  29.569  14.951
54208W        W21276  37.526  35.860   2.858
54209W        W21277  20.145  16.728  13.049
54210W        W21278  26.548  34.593   3.249
54211W        W21279  36.472  22.668   1.322
54212W        W21280  35.580   7.904   3.745
54213W        W21281  44.414  27.010   2.412
54214W        W21282  20.200  17.182   3.641
54215W        W21283  37.369  25.480   1.408
54216W        W21284  34.558  20.587  14.021
54217W        W21285  17.156  28.620  14.465
54218W        W21286   5.274  20.058  12.385
54219W        W21287   5.327  20.741   2.233
54220W        W21288  21.648  43.374   3.730
54221W        W21289  17.557   7.757  14.931
54222W        W21290  28.066  39.409   3.746
54223W        W21291   6.399  44.793   4.697
54224W        W21292  33.032  31.150   1.790
54225W        W21293  27.130   9.379  10.498
54226W        W21294   1.247   6.813   4.728
54227W        W21295   1.944  38.994   5.115
54228W        W21296  40.894  20.256  14.935
54229W        W21297  16.128  15.688   1.702
54230W        W21298  32.501  11.719  13.050
54231W        W21299  11.192   7.709  12.028
54232W        W21300  38.468  17.639  12.015
54233W        W21301   5.295  24.639   3.842
54234W        W21302  27.092  34.600   0.729
54235W        W21303  37.831  31.909  13.851
54236W        W21304   2.768  37.960   4.676
54237W        W21305   4.260  44.330  13.461
54238W        W21306  17.164   5.727  13.374
54239W        W21307  27.952   7.403  12.095
54240W        W21308  34.055  32.126   0.870
54241W        W21309  25.988   1.422   1.713
54242W        W21310  31.899  10.355  11.589
54243W        W21311  39.525  38.417   3.165
54244W        W21312  44.463  32.485  13.909
54245W        W21313   2.816  12.277  11.560
54246W        W21314  12.846   3.777  12.538
54247W        W21315  13.169   5.756   2.829
54248W        W21316  14.659   7.236   3.334
54249W        W21317   3.455  34.543  12.558
54250W        W21318  18.075  17.157   1.347
54251W        W21319   7.694  33.422   1.697
54252W        W21320  25.712  34.477  12.452
54253W        W21321  11.678  17.196  14.967
54254W        W21322  38.926   7.287   5.081
54255W        W21323   1.783  13.162   1.296
54256W        W21324   9.883  14.130   4.295
54257W        W21325   8.243  42.962  12.895
54258W        W21326  23.004  30.547  11.121
54259W        W21327  16.697   3.883  11.459
54260W        W21328  33.068  24.579   1.833
54261W        W21329  31.951  32.044   1.808
54262W        W21330  20.120   2.229  10.439
54263W        W21331  40.859   3.350   4.300
54264W        W21332  19.606  44.971  12.381
54265W        W21333  28.026  23.578   2.895
54266W        W21334   9.765  25.128  10.975
54267W        W21335  36.981  21.575  13.842
54268W        W21336   5.693  19.210   1.736
54269W        W21337   2.818   4.406  14.295
54270W        W21338  21.068  38.388   9.459
54271W        W21339  12.675  20.144  13.955
54272W        W21340  31.995  34.953  11.566
54273W        W21341  11.789  24.558  10.926
54274W        W21342   8.162  26.603   0.476
54275W        W21343  43.512  12.714   3.244
54276W        W21344   2.385  15.664   1.800
54277W        W21345  20.718  27.152  14.872
54278W        W21346   8.306  16.746   4.658
54279W        W21347  10.828  23.166   0.842
54280W        W21348  10.849   8.769  11.869
54281W        W21349  19.151  32.537  12.027
54282W        W21350  15.731   4.884  13.020
54283W        W21351   8.243  31.981   4.285
54284W        W21352  13.226  12.327   3.823
54285W        W21353  34.580  11.720   0.797
54286W        W21354  16.652  27.570  10.095
54287W        W21355   3.740  31.560   3.303
54288W        W21356   5.708  16.796   3.727
54289W        W21357  11.338   8.300   3.187
54290W        W21358  37.351  27.940  10.484
54291W        W21359  19.669  34.865  12.906
54292W        W21360  37.550  14.308   1.349
54293W        W21361   8.337  17.266  14.893
54294W        W21362  21.544  23.120  14.286
54295W        W21363  31.994  10.870   1.904
54296W        W21364   1.374  32.485  13.812
54297W        W21365  15.103  27.052  14.790
54298W        W21366  31.905   6.863   0.817
54299W        W21367  16.104  34.533   3.661
54300W        W21368  16.587  16.301   4.613
54301W        W21369   0.473  44.497  12.411
54302W        W21370   8.276  24.629   2.732
54303W        W21371  32.540   1.424   2.808
54304W        W21372   8.219  17.772   4.339
54305W        W21373  42.377  34.463  14.966
54306W        W21374  13.278  21.048   1.871
54307W        W21375   4.251   7.751   2.801
54308W        W21376   8.357  34.530  14.515
54309W        W21377  15.185  21.033  13.051
54310W        W21378  27.472  34.526   0.841
54311W        W21379  31.068  15.198   0.855
54312W        W21380  39.840  44.941   3.208
54313W        W21381  27.068  42.999  12.024
54314W        W21382  42.961  15.126  13.398
54315W        W21383  15.632  21.162  13.004
54316W        W21384  23.657  10.750  11.925
54317W        W21385   4.392  28.130  12.859
54318W        W21386  30.017  11.290   2.237
54319W        W21387  16.713  41.408   3.739
54320W        W21388  13.606   5.745  14.513
54321W        W21389  37.027  44.310   4.666
54322W        W21390  33.973  26.645  11.570
54323W        W21391   6.393  25.141   4.802
54324W        W21392   0.803  39.346  10.505
54325W        W21393  20.708  21.731   0.361
54326W        W21394  36.539  22.747  13.483
54327W        W21395  18.193  23.699  12.899
54328W        W21396  30.427  41.455  13.922
54329W        W21397  27.084  41.974  11.421
54330W        W21398  12.235  36.479  11.081
54331W        W21399  43.381  15.116  14.438
54332W        W21400  15.101  29.486   2.858
54333W        W21401  12.695  38.911  14.991
54334W        W21402  31.922  28.645   3.662
54335W        W21403  30.432  13.693   2.814
54336W        W21404  36.576  25.144   2.841
54337W        W21405  36.509  44.412  11.600
54338W        W21406  14.778   8.214   1.884
54339W        W21407   7.771   1.874  13.460
54340W        W21408  26.132   0.342  13.028
54341W        W21409   3.299   6.402   0.888
54342W        W21410  34.602  10.161  11.120
54343W        W21411  17.292  39.473   2.198
54344W        W21412  14.101  27.066  13.911
54345W        W21413  34.974  44.481   2.240
54346W        W21414  36.950  35.408  14.973
54347W        W21415   9.185  11.219   3.209
54348W        W21416  12.630   5.832   2.740
54349W        W21417  24.599  17.302  10.606
54350W        W21418  28.648   0.796   0.430
54351W        W21419   8.289   1.263   1.398
54352W        W21420  35.512  15.322   0.791
54353W        W21421  17.613  13.210   4.188
54354W        W21422  20.251  26.995  11.901
54355W        W21423  24.604  30.640   2.760
54356W        W21424  27.137  40.394   1.846
54357W        W21425  12.632  40.313   0.908
54358W        W21426  42.781  36.568   4.232
54359W        W21427  26.571   3.300   4.818
54360W        W21428  15.289  15.739  14.302
54361W        W21429   2.274  24.708   2.799
54362W        W21430  44.397  14.096  10.567
54363W        W21431  10.192  10.719   2.716
54364W        W21432   6.745  19.739   4.232
54365W        W21433  14.792  12.822  13.488
54366W        W21434  28.629  21.572  13.496
54367W        W21435  22.580  36.930   3.299
54368W        W21436  44.445   6.346   1.317
54369W        W21437   8.210   2.239   0.387
54370W        W21438  11.787   2.409   4.697
54371W        W21439  12.634  14.247   0.790
54372W        W21440  24.161   7.759  11.057
54373W        W21441  15.807  29.144   2.717
54374W        W21442  21.137  16.811   4.285
54375W        W21443  21.072  15.283  12.485
54376W        W21444  33.956  43.808  13.353
54377W        W21445  29.501  40.865  11.498
54378W        W21446   3.911  32.605   1.424
54379W        W21447  24.141   3.351  12.986
54380W        W21448  42.491  20.691  12.026
54381W        W21449  29.018   0.816   4.747
54382W        W21450  16.103  12.277   1.780
54383W        W21451  21.017   6.836  11.112
54384W        W21452  34.082  16.169  11.093
54385W        W21453  30.560  31.569   2.796
54386W        W21454   7.321  29.956   0.327
54387W        W21455  18.200  37.975   3.320
54388W        W21456  17.271  40.835   0.463
54389W        W21457   2.453   3.280  13.056
54390W        W21458  34.495  17.306  11.008
54391W        W21459   8.842  11.682   3.203
54392W        W21460  33.393  36.092  12.350
54393W        W21461  15.314  30.107  14.791
54394W        W21462  20.273  26.129   0.265
54395W        W21463  37.576  38.951  14.376
54396W        W21464  15.588   8.210  13.012
54397W        W21465  31.606   8.360   4.218
54398W        W21466  13.350   3.451  10.053
54399W        W21467  18.679  16.755  11.536
54400W        W21468  14.280   3.278   1.782
54401W        W21469  31.493  22.028  11.056
54402W        W21470  27.458  29.429  12.053
54403W        W21471  15.261  15.630  11.523
54404W        W21472  39.331  11.237   3.248
54405W        W21473  32.627   5.293   1.747
54406W        W21474   3.411  43.495  12.872
54407W        W21475   6.760  28.583   0.803
54408W        W21476   8.180   1.449  13.795
54409W        W21477  33.482  35.588  11.523
54410W        W21478  16.759   1.743   1.293
54411W        W21479  22.115  36.544   3.315
54412W        W21480   4.386  29.932   0.804
54413W        W21481  39.025  40.452  14.474
54414W        W21482  10.240  10.829  14.399
54415W        W21483  30.608  11.680  14.291
54416W        W21484  13.229  26.980  11.090
54417W        W21485  14.828  28.146   3.826
54418W        W21486  35.861   0.433   3.787
54419W        W21487  12.773  28.971   2.697
54420W        W21488  21.077  44.762   4.166
54421W        W21489  19.247  34.944   3.173
54422W        W21490  43.935  17.724  10.569
54423W        W21491   0.280  40.864   0.792
54424W        W21492  10.248   1.330   1.802
54425W        W21493  16.661  43.979   4.601
54426W        W21494   1.315  15.650  14.475
54427W        W21495  14.716  42.424  10.472
54428W        W21496  33.961  21.107  14.992
54429W        W21497  33.551  17.694  13.416
54430W        W21498   7.366  36.387  13.458
54431W        W21499  15.272   9.210  11.983
54432W        W21500  40.483   8.709  11.477
54433W        W21501  31.506  27.110  13.472
54434W        W21502   6.878   3.899   3.167
54435W        W21503  19.178  32.969   0.804
54436W        W21504   2.722  24.057  11.478
54437W        W21505  19.150  27.104   0.738
54438W        W21506   0.867  40.914  10.553
54439W        W21507  12.273   2.933  14.802
54440W        W21508  24.170   2.797  10.581
54441W        W21509  39.490  32.949   2.837
54442W        W21510   0.405  28.182  12.832
54443W        W21511  19.171  10.696   3.805
54444W        W21512  26.972  24.516  13.938
54445W        W21513   6.901  40.843  13.406
54446W        W21514  17.066   2.310   4.313
54447W        W21515   0.465  37.911   4.825
54448W        W21516  38.561  41.481  14.287
54449W        W21517  28.117  44.274  10.622
54450W        W21518  13.679   7.668   5.293
54451W        W21519  18.573  19.724  14.345
54452W        W21520  27.598   3.825   0.907
54453W        W21521  13.717  40.912   3.651
54454W        W21522  19.613  12.744  14.975
54455W        W21523  20.265   7.249  14.890
54456W        W21524  38.821  38.891  14.378
54457W        W21525  34.591  17.088   4.284
54458W        W21526   6.894  43.804   0.738
54459W        W21527   2.727  19.663  14.366
54460W        W21528   5.323  23.996   1.446
54461W        W21529  20.680  43.987  13.353
54462W        W21530  25.700  42.349  12.413
54463W        W21531  29.607   3.891  10.997
54464W        W21532   8.163  33.396   2.346
54465W        W21533  42.451  21.518   1.420
54466W        W21534   0.820   9.369  10.524
54467W        W21535  28.571   3.775  11.421
54468W        W21536  31.610  16.129  12.420
54469W        W21537  36.950  34.110   3.159
54470W        W21538  13.148  25.104   2.878
54471W        W21539  17.302   0.420   0.429
54472W        W21540  34.907  33.515  11.999
54473W        W21541  27.959  29.583   2.254
54474W        W21542   8.766  43.366  14.814
54475W        W21543   9.198  38.834  14.437
54476W        W21544  21.607   6.387   4.620
54477W        W21545  35.398  30.438  11.426
54478W        W21546  20.618  16.741  14.394
54479W        W21547  28.163  16.195   9.921
54480W        W21548  26.186  38.988   2.246
54481W        W21549  28.952  41.978   3.821
54482W        W21550   4.429  39.492  13.822
54483W        W21551  35.576  34.096   2.693
54484W        W21552  35.443  31.540   4.262
54485W        W21553  30.562  12.681  13.545
54486W        W21554  44.304  28.680  13.844
54487W        W21555  41.467   8.882   1.276
54488W        W21556  29.052  12.815   1.391
54489W        W21557  21.018  19.136   0.445
54490W        W21558  31.426  35.399   1.434
54491W        W21559  22.231   3.340  12.954
54492W        W21560  35.359  32.395   3.238
54493W        W21561   9.758   3.885   1.348
54494W        W21562  20.768  33.474  11.955
54495W        W21563   3.822  11.791   4.815
54496W        W21564  20.249   7.396   1.310
54497W        W21565   3.285  36.862   3.196
54498W        W21566  29.955  22.223  14.917
54499W        W21567   0.475  23.138  11.043
54500W        W21568   5.286  41.477  14.997
54501W        W21569  41.437  26.008  14.873
54502W        W21570  37.406  25.086   2.183
54503W        W21571  14.100   7.367   2.771
54504W        W21572  35.913  28.620   3.819
54505W        W21573  43.007  20.558   2.897
54506W        W21574  40.913  19.611  14.884
54507W        W21575  15.319   0.292  14.345
54508W        W21576  35.495  28.484   0.730
54509W        W21577   9.217  18.260   3.645
54510W        W21578  19.599  24.076   4.613
54511W        W21579  20.145  26.041   1.906
54512W        W21580  43.272  10.669   4.211
54513W        W21581  12.187  28.076  14.393
54514W        W21582  10.858  23.708   1.400
54515W        W21583  15.600  38.378  11.912
54516W        W21584   3.321  30.436  10.460
54517W        W21585  19.750  24.647  14.396
54518W        W21586  18.172   6.903  10.446
54519W        W21587  44.876  22.012   2.419
54520W        W21588  24.601  13.632  14.507
54521W        W21589   6.904   2.433  10.593
54522W        W21590  12.668   3.249  12.028
54523W        W21591  21.558  10.672  11.093
54524W        W21592  44.269   8.791   2.735
54525W        W21593  10.821   6.877  13.450
54526W        W21594  43.432  20.769  10.956
54527W        W21595  27.593  37.992  14.349
54528W        W21596  22.222  33.422   1.806
54529W        W21597  33.576   3.896  11.868
54530W        W21598   7.213  21.611   1.845
54531W        W21599  37.554  32.557   4.162
54532W        W21600  36.931  25.565  12.853
54533W        W21601  23.058   0.488   3.790
54534W        W21602  32.141  40.521   2.753
54535W        W21603  24.538   8.733   4.703
54536W        W21604  43.900  10.731   3.146
54537W        W21605   5.868  31.516   4.178
54538W        W21606  25.090  44.334  12.561
54539W        W21607   2.455  40.424   4.252
54540W        W21608  32.141  44.859  13.917
54541W        W21609  39.993   3.762   4.624
54542W        W21610  13.276  41.916  12.949
54543W        W21611  16.263  41.507  10.628
54544W        W21612  23.076  36.048  11.388
54545W        W21613  41.812  43.836  13.904
54546W        W21614  11.150  39.850   1.412
54547W        W21615  38.533  41.814  14.940
54548W        W21616  12.625  35.035  11.060
54549W        W21617  12.326  23.230   1.697
54550W        W21618  42.413  37.564   4.334
54551W        W21619   2.284  25.077   2.216
54552W        W21620  20.634  29.563   0.410
54553W        W21621  15.651  11.265   3.336
54554W        W21622  10.146  24.181  11.894
54555W        W21623  24.067  11.742  12.455
54556W        W21624  21.202  18.624  12.483
54557W        W21625  15.108  14.830  14.330
54558W        W21626  12.671   8.165   0.328
54559W        W21627  34.555  34.534   2.241
54560W        W21628  25.713  37.885  12.049
54561W        W21629  15.254  16.259  13.822
54562W        W21630  26.069   2.470   0.883
54563W        W21631  22.691  12.330  12.447
54564W        W21632  15.670  38.456   4.700
54565W        W21633   8.782  19.726  12.973
54566W        W21634  23.095  27.123  14.993
54567W        W21635  33.422  37.865  13.384
54568W        W21636   5.798   9.709  10.981
54569W        W21637   5.329  44.929  13.897
54570W        W21638  20.647  42.887   2.192
54571W        W21639  15.813   2.307  13.935
54572W        W21640   4.314  11.832   2.894
54573W        W21641  24.145  34.961   1.882
54574W        W21642   3.732  20.106   0.430
54575W        W21643  16.269  21.672   3.731
54576W        W21644  17.603   5.864   2.187
54577W        W21645  41.328   5.764   0.924
54578W        W21646  12.319  22.185  13.876
54579W        W21647  11.242  41.862   4.148
54580W        W21648  30.419  31.441  11.956
54581W        W21649   4.331   7.891  14.895
54582W        W21650  20.029  25.113  12.938
54583W        W21651   5.924   9.325   0.728
54584W        W21652  33.082  40.868   0.780
54585W        W21653   8.273   0.441   2.687
54586W        W21654  18.263  42.372  11.577
54587W        W21655  30.983  27.608  14.464
54588W        W21656  26.125  41.511  11.053
54589W        W21657   9.338  29.612   4.311
54590W        W21658   1.905  14.321  14.457
54591W        W21659  39.906  21.260  12.412
54592W        W21660   5.925  31.637  12.518
54593W        W21661   3.887  39.937  12.996
54594W        W21662   0.252  35.379   1.829
54595W        W21663  43.932  40.800  13.056
54596W        W21664  26.655   9.773   1.385
54597W        W21665  41.946  23.599  14.886
54598W        W21666   2.444  38.954   9.967
54599W        W21667  27.626  15.225  11.085
54600W        W21668  23.123  41.900  12.552
54601W        W21669   0.494   7.715  13.441
54602W        W21670   0.380  40.449   2.183
54603W        W21671  33.098  27.601   1.779
54604W        W21672  13.307  21.244   2.312
54605W        W21673   9.745  21.224  11.453
54606W        W21674  35.361  29.128  13.364
54607W        W21675  28.655  14.277  12.952
54608W        W21676   5.774  10.295   4.245
54609W        W21677  22.247  10.637  11.584
54610W        W21678  38.404   8.277   4.227
54611W        W21679  36.906  36.419  12.494
54612W        W21680  38.975  29.173  14.340
54613W        W21681  21.649  31.997   5.158
54614W        W21682  19.549  15.170  13.330
54615W        W21683   5.701  22.617  13.860
54616W        W21684   9.279  34.370  11.082
54617W        W21685  22.234   3.901   2.254
54618W        W21686  40.879  34.924  13.512
54619W        W21687  34.884  33.432   0.389
54620W        W21688   3.385  22.516   3.165
54621W        W21689  15.624  14.731  13.377
54622W        W21690  18.286  39.973   0.761
54623W        W21691  21.738  38.476  11.933
54624W        W21692  13.687   7.211  10.099
54625W        W21693  42.977  39.046  13.869
54626W        W21694   2.956  18.715   3.832
54627W        W21695  41.831  24.085  12.966
54628W        W21696  26.581  22.028  11.064
54629W        W21697  27.478  38.551  14.452
54630W        W21698  16.624  30.165   4.314
54631W        W21699  37.555  23.092  13.464
54632W        W21700  14.736  19.586  10.508
54633W        W21701  15.650  14.791  11.992
54634W        W21702  20.263  35.922   5.124
54635W        W21703  36.578  31.566   3.278
54636W        W21704  44.895   8.175  10.915
54637W        W21705  12.723  14.162   2.877
54638W        W21706  39.973  44.835  14.829
54639W        W21707   0.273  28.111   1.304
54640W        W21708   7.865  15.192   4.799
54641W        W21709  40.544   4.228   2.256
54642W        W21710  40.996  23.631  11.547
54643W        W21711  30.536   7.818   0.896
54644W        W21712  16.701  39.956   0.391
54645W        W21713   2.233  16.244   0.249
54646W        W21714  11.365  32.994  11.387
54647W        W21715  34.027  35.400  13.395
54648W        W21716  21.086  15.648  11.539
54649W        W21717  18.662  23.531   1.447
54650W        W21718  17.218  37.862  10.083
54651W        W21719  18.584  18.739  11.392
54652W        W21720  34.525  13.607   2.398
54653W        W21721  15.820  42.503   0.271
54654W        W21722  40.811  14.777  10.569
54655W        W21723  41.873  44.490  10.909
54656W        W21724  24.667  41.372  14.504
54657W        W21725  43.453  15.810   1.386
54658W        W21726  29.032  39.960  11.401
54659W        W21727  39.017  24.112  13.912
54660W        W21728  29.943  35.995  10.967
54661W        W21729  30.004   5.333  14.934
54662W        W21730  14.162  27.016   1.417
54663W        W21731  35.585  20.595   1.240
54664W        W21732  42.467  19.099  11.011
54665W        W21733  15.321  23.191   3.312
54666W        W21734   9.860  32.093  14.941
54667W        W21735  35.472  19.712  14.296
54668W        W21736  11.839  19.068   3.812
54669W        W21737  40.336  27.135   2.707
54670W        W21738  39.536  13.637   0.314
54671W        W21739   3.757  28.966  12.039
54672W        W21740  31.987  23.578   4.266
54673W        W21741  37.979  11.628  13.962
54674W        W21742  30.646  22.176  12.421
54675W        W21743  21.717   4.215  10.520
54676W        W21744  40.341   9.265   2.756
54677W        W21745  17.620   2.907   4.783
54678W        W21746  26.158  33.380   4.115
54679W        W21747   2.426  20.539   4.836
54680W        W21748  32.530  30.477   1.361
54681W        W21749  17.657  20.667  11.952
54682W        W21750  44.928  18.589  10.615
54683W        W21751  15.739   1.899  14.309
54684W        W21752  37.850   4.915   4.251
54685W        W21753   8.325  43.391  14.389
54686W        W21754  26.538  32.030   3.360
54687W        W21755  17.141   1.778   5.243
54688W        W21756   8.870  29.144  10.424
54689W        W21757  40.834  20.066   2.756
54690W        W21758   3.916  19.253  11.873
54691W        W21759  11.733   8.838  10.024
54692W        W21760  30.586  12.236  14.418
54693W        W21761  17.707   5.932  12.460
54694W        W21762  19.733  20.258  13.418
54695W        W21763  11.204  23.670   2.777
54696W        W21764  13.665  17.775  11.961
54697W        W21765  23.734  15.729  12.472
54698W        W21766  23.130   7.347   2.812
54699W        W21767  34.011   5.207  11.382
54700W        W21768  15.147  25.171   2.404
54701W        W21769  15.692   8.272   3.756
54702W        W21770  27.462  34.902  12.576
54703W        W21771  38.998  19.212   1.818
54704W        W21772  39.384  11.703   0.750
54705W        W21773  13.284  31.484  12.017
54706W        W21774  29.472   3.899  10.445
54707W        W21775  43.512   7.340  14.969
54708W        W21776  30.110  30.105   1.271
54709W        W21777  23.650  36.543  14.403
54710W        W21778  27.964  38.445  10.932
54711W        W21779  24.206  41.486  11.497
54712W        W21780   8.896  21.563  11.488
54713W        W21781  28.008  14.185   0.371
54714W        W21782  16.629   9.690   3.702
54715W        W21783  30.079  29.974   4.679
54716W        W21784  41.370  19.158   3.806
54717W        W21785   4.744  19.739  12.036
54718W        W21786  27.101  21.594  12.552
54719W        W21787  29.050  11.649  14.015
54720W        W21788   2.879  42.844  12.888
54721W        W21789   5.912  29.517   3.287
54722W        W21790   4.889  31.138   1.836
54723W        W21791   6.864  42.795   1.793
54724W        W21792   1.432  33.604   0.894
54725W        W21793  24.574  41.511  13.923
54726W        W21794  14.788  34.043  10.447
54727W        W21795  19.070  19.281  14.920
54728W        W21796  33.443  24.554  10.899
54729W        W21797   1.913  17.580   2.322
54730W        W21798  10.220  29.000   4.230
54731W        W21799  22.083  31.122   1.866
54732W        W21800  22.657  22.517  11.016
54733W        W21801  38.837  36.999  11.027
54734W        W21802   1.837  19.740   2.415
54735W        W21803  42.393  39.842   3.722
54736W        W21804  34.478   0.938  11.573
54737W        W21805  18.698   5.917  14.032
54738W        W21806  11.626  14.726   0.869
54739W        W21807  31.453  36.991  11.093
54740W        W21808  28.625  43.998   0.475
54741W        W21809  33.991  26.075  13.973
54742W        W21810  19.196  30.623  13.320
54743W        W21811  33.553  40.849   0.930
54744W        W21812   0.882   4.940   1.719
54745W        W21813   5.760  24.191   1.255
54746W        W21814  18.249  30.591   1.903
54747W        W21815  36.004   8.160  11.052
54748W        W21816  24.019  13.666  11.976
54749W        W21817  17.224  20.117   4.190
54750W        W21818  13.219   3.888   2.218
54751W        W21819   1.245   7.755   1.255
54752W        W21820  43.925   3.916  13.972
54753W        W21821  25.619  36.592  13.846
54754W        W21822  36.040  12.141  11.441
54755W        W21823  10.206  31.107  11.383
54756W        W21824  13.155  43.868  10.434
54757W        W21825  34.965  19.044  12.040
54758W        W21826  22.161  10.211   3.688
54759W        W21827  35.530  30.053   3.179
54760W        W21828  31.561  26.006  14.938
54761W        W21829  32.128  16.263   4.240
54762W        W21830  39.917  38.012   3.146
54763W        W21831  25.080  36.574   4.826
54764W        W21832   8.314  40.408  11.101
54765W        W21833  37.947  34.023   0.321
54766W        W21834  15.222  24.567  10.489
54767W        W21835   3.843  31.640   1.271
54768W        W21836  44.922  35.005   4.242
54769W        W21837  19.243  43.473   4.231
54770W        W21838   3.311  23.030  12.544
54771W        W21839  34.870  21.117   4.648
54772W        W21840  39.342  35.898  13.800
54773W        W21841  41.349  21.244  12.855
54774W        W21842   8.693  14.204   9.955
54775W        W21843  27.002   5.911   4.628
54776W        W21844  24.600  13.343  11.062
54777W        W21845  30.970  40.410  13.369
54778W        W21846  39.810  31.970  10.950
54779W        W21847  42.302  29.096   3.313
54780W        W21848   6.705  23.540  13.453
54781W        W21849  12.854  33.105   4.636
54782W        W21850   0.391  41.004   3.659
54783W        W21851  23.619   6.262   2.699
54784W        W21852   8.666  30.589   2.693
54785W        W21853  30.594   2.932  13.381
54786W        W21854  38.067  26.618  14.848
54787W        W21855  14.833   6.255  12.985
54788W        W21856   1.355  11.242  14.279
54789W        W21857  29.990  14.723  14.400
54790W        W21858   2.778   9.758   1.264
54791W        W21859  27.666  13.671  11.373
54792W        W21860   6.276  30.080  13.816
54793W        W21861   2.240  42.375  10.942
54794W        W21862  12.620  22.087  12.353
54795W        W21863  21.151  11.646   0.815
54796W        W21864  24.094  13.312   3.737
54797W        W21865  13.276  34.916  14.777
54798W        W21866   1.363  37.036   1.279
54799W        W21867   2.238   4.339  12.981
54800W        W21868   3.847   6.806   3.765
54801W        W21869  26.137  17.614   3.198
54802W        W21870  14.190  29.524   3.250
54803W        W21871  12.642   9.250  10.488
54804W        W21872  31.580  32.099   1.772
54805W        W21873  36.350  40.957  11.430
54806W        W21874   0.312  32.592   0.257
54807W        W21875  31.042  41.822   4.150
54808W        W21876  29.935   0.283   0.479
54809W        W21877  33.011  11.165   4.128
54810W        W21878  14.302   0.881   1.865
54811W        W21879  35.018   7.191   1.694
54812W        W21880   7.184   6.679  14.293
54813W        W21881  27.002  16.122  11.595
54814W        W21882   5.357  34.414   4.288
54815W        W21883  16.794  28.169   3.248
54816W        W21884   5.694   0.807  11.929
54817W        W21885  19.271  15.289  13.475
54818W        W21886  20.610  25.520   1.312
54819W        W21887  37.555  14.727   3.347
54820W        W21888  42.384   6.897  10.489
54821W        W21889  23.624  30.004  12.978
54822W        W21890  11.313  31.973   2.722
54823W        W21891   8.806  13.332   0.421
54824W        W21892  10.781   3.787  14.920
54825W        W21893  15.713  40.850   2.288
54826W        W21894   5.881   4.342  12.038
54827W        W21895   6.762  18.097  12.979
54828W        W21896  41.355  23.115   0.726
54829W        W21897  29.655  30.982   3.703
54830W        W21898  13.172   3.259   0.857
54831W        W21899   4.880  28.936  14.879
54832W        W21900   3.727  14.280  11.562
54833W        W21901  10.670  21.236   3.783
54834W        W21902   4.720  16.716  11.032
54835W        W21903  24.223   6.318  10.472
54836W        W21904   3.777  37.905   0.881
54837W        W21905  44.009  30.911  12.890
54838W        W21906  41.371  11.718  13.051
54839W        W21907  19.063  32.473   3.635
54840W        W21908  32.920   1.313   0.911
54841W        W21909  28.032  17.295   2.888
54842W        W21910  36.560  39.887   4.759
54843W        W21911  27.470  20.554  12.846
54844W        W21912  23.670  19.138  13.395
54845W        W21913  10.249  26.003   3.187
54846W        W21914  17.199  27.066  13.317
54847W        W21915  38.563  39.004   3.724
54848W        W21916  21.593  21.075   1.442
54849W        W21917  12.260  32.455  12.861
54850W        W21918  16.656   6.303   2.326
54851W        W21919   0.336  42.816   3.162
54852W        W21920  12.659  27.583  10.626
54853W        W21921  15.608  22.626  14.475
54854W        W21922  19.142  42.798   2.810
54855W        W21923  24.195  36.955   3.853
54856W        W21924  21.262  35.525  11.374
54857W        W21925  43.466  35.561  14.831
54858W        W21926  35.391  34.488   1.723
54859W        W21927   6.210  31.538   1.250
54860W        W21928  21.671  17.172   1.343
54861W        W21929  16.810  20.191  11.477
54862W        W21930   3.291  44.910   3.868
54863W        W21931  34.869   0.256  14.813
54864W        W21932  27.594  10.680   2.353
54865W        W21933  30.128  42.962  12.345
54866W        W21934  16.726  32.046  12.550
54867W        W21935  30.002  15.299  13.541
54868W        W21936  10.693   3.433   1.849
54869W        W21937  40.861  27.966   3.354
54870W        W21938  34.037  24.161   3.344
54871W        W21939  31.584  22.244  14.941
54872W        W21940  41.372  41.875  12.558
54873W        W21941  33.979   2.273  14.324
54874W        W21942   2.893  11.258  14.993
54875W        W21943  22.182  17.659  13.311
54876W        W21944  21.069  29.142   9.940
54877W        W21945   2.236  39.895  13.052
54878W        W21946   0.910   1.901  12.464
54879W        W21947  32.123  18.095  13.454
54880W        W21948   6.346  12.243  10.908
54881W        W21949  19.534   2.892  14.433
54882W        W21950  28.042  16.587   2.260
54883W        W21951   8.771   4.817  13.890
54884W        W21952   4.428  33.086  14.951
54885W        W21953   5.280  41.526  14.378
54886W        W21954  34.432  25.690  11.073
54887W        W21955  28.619  39.462   4.806
54888W        W21956  40.318   3.245   4.798
54889W        W21957  29.129  17.111  14.358
54890W        W21958  14.773   3.223  11.914
54891W        W21959   4.744  28.059   0.269
54892W        W21960   8.785  39.496  12.509
54893W        W21961  16.677  20.190   4.196
54894W        W21962   9.339  14.239  11.568
54895W        W21963   5.841  44.778   3.744
54896W        W21964   4.355  13.690   0.960
54897W        W21965  43.771   2.734  10.964
54898W        W21966   8.223  14.832  10.597
54899W        W21967  14.214  25.168  11.406
54900W        W21968  19.261  12.247  10.457
54901W        W21969  28.680  38.487  12.052
54902W        W21970  40.999   7.334   2.686
54903W        W21971  11.182   8.875  10.888
54904W        W21972  19.568  25.644   2.298
54905W        W21973  21.132   9.203   4.355
54906W        W21974  15.629  38.932   0.365
54907W        W21975  25.571  36.391   0.908
54908W        W21976  41.875   3.402  13.457
54909W        W21977   4.790  44.500  10.446
54910W        W21978   9.345  30.625  13.847
54911W        W21979  37.002  30.085  14.861
54912W        W21980  29.088  41.840   1.761
54913W        W21981  12.211   9.295  12.904
54914W        W21982  23.559  15.633   3.209
54915W        W21983  23.148  40.370   2.346
54916W        W21984   4.433  30.141   2.808
54917W        W21985  15.236  37.004  12.039
54918W        W21986  22.093   1.785   0.811
54919W        W21987   6.331   9.387  11.023
54920W        W21988  26.700  32.014   0.875
54921W        W21989  10.216  10.318   3.236
54922W        W21990  32.089  40.535   3.848
54923W        W21991   4.426  12.122   3.718
54924W        W21992  19.553  40.823  12.457
54925W        W21993  12.626  34.968   0.295
54926W        W21994   3.860  32.586   3.210
54927W        W21995  39.324   8.697  11.429
54928W        W21996  17.632  30.907  11.385
54929W        W21997  40.930  22.025   4.598
54930W        W21998  39.448   7.225  12.472
54931W        W21999   1.781  44.754  14.914
54932W        W22000  34.383  36.581   4.306
54933W        W22001  19.185   0.314   4.333
54934W        W22002   1.376  18.117  13.824
54935W        W22003  24.516  26.561  13.883
54936W        W22004  40.534  18.716  11.015
54937W        W22005   8.329  40.054   0.794
54938W        W22006  19.557   4.415  11.010
54939W        W22007  23.985   4.389   1.232
54940W        W22008  28.480  40.372   4.835
54941W        W22009  22.549   1.426  12.893
54942W        W22010  17.719   1.732   3.789
54943W        W22011   5.356  26.573   2.267
54944W        W22012  13.219  41.947   2.742
54945W        W22013  17.307  39.438  14.800
54946W        W22014  40.913  19.170  11.458
54947W        W22015  21.607  38.421   0.750
54948W        W22016  27.530  10.266  10.415
54949W        W22017   4.799  39.400   0.770
54950W        W22018  11.652   9.269  11.907
54951W        W22019  44.452  15.807  14.824
54952W        W22020   1.412   0.378  13.834
54953W        W22021   8.307   9.190  13.494
54954W        W22022   4.420   6.358   3.715
54955W        W22023   4.765   2.738  12.042
54956W        W22024  44.000   9.750  14.455
54957W        W22025  37.569  18.770   4.232
54958W        W22026  27.620  17.696  13.450
54959W        W22027  24.026  12.768   2.207
54960W        W22028  16.714   5.728   4.202
54961W        W22029   6.798  22.236   4.126
54962W        W22030  24.164   6.776   3.671
54963W        W22031  26.163  11.706  13.965
54964W        W22032  22.609   1.365  11.575
54965W        W22033  19.554   7.855   0.277
54966W        W22034  34.885  20.531  13.863
54967W        W22035  20.051  21.263   4.775
54968W        W22036   8.831  23.134   3.256
54969W        W22037   8.403  18.749  13.360
54970W        W22038  31.606  32.001   0.801
54971W        W22039  32.548  36.035   0.244
54972W        W22040  24.631  26.955  11.021
54973W        W22041  30.122  33.063   3.737
54974W        W22042   9.761   6.183  13.045
54975W        W22043   1.851  20.081   4.134
54976W        W22044  35.449  37.469   0.840
54977W        W22045   8.314   8.828   3.354
54978W        W22046  18.610  22.607  10.624
54979W        W22047  32.966  20.075  13.941
54980W        W22048   0.791  15.758   0.350
54981W        W22049  14.197   2.724  12.026
54982W        W22050  16.649  32.097   0.414
54983W        W22051  40.438  22.174  14.362
54984W        W22052  38.520  18.551  13.884
54985W        W22053  41.399  31.983  11.418
54986W        W22054   0.392  38.866   1.827
54987W        W22055  15.705   6.737   5.302
54988W        W22056   0.859   0.863  12.920
54989W        W22057   1.764   2.965   0.411
54990W        W22058  29.147   3.787   4.648
54991W        W22059   1.821  15.216   2.394
54992W        W22060  32.017  31.541  14.971
54993W        W22061  18.284  20.602   4.172
54994W        W22062   4.421  28.640  10.565
54995W        W22063  21.050  21.639   3.767
54996W        W22064   8.675   0.800   4.168
54997W        W22065  37.994   4.927   2.259
54998W        W22066  15.271   1.852  13.418
54999W        W22067  35.945  40.431  11.990
55000W        W22068  33.531  16.189  13.526
55001W        W22069  21.643   2.441   3.755
55002W        W22070  16.269  10.701   4.179
55003W        W22071  19.731  34.879   2.358
55004W        W22072   6.759  23.136   4.621
55005W        W22073  21.530  34.596   1.320
55006W        W22074   3.856   0.796  14.879
55007W        W22075  12.307  12.714   3.702
55008W        W22076  33.441  25.963   2.349
55009W        W22077  20.264  19.725   2.849
55010W        W22078   4.851  27.142   2.903
55011W        W22079  15.291  27.629  10.464
55012W        W22080  36.447  10.756   4.612
55013W        W22081  21.637  30.925  13.366
55014W        W22082  29.057  20.127  12.532
55015W        W22083   9.278  40.958  10.599
55016W        W22084  36.490  18.256   4.265
55017W        W22085   1.442   9.840   1.434
55018W        W22086  23.649  23.236  13.495
55019W        W22087  25.665  20.715  11.463
55020W        W22088  24.572  25.001   0.790
55021W        W22089  21.029  24.650   1.786
55022W        W22090  42.318  41.402  10.511
55023W        W22091   7.348  10.367   2.796
55024W        W22092  31.150  33.553  12.529
55025W        W22093  21.071  43.882  10.437
55026W        W22094  28.674  18.608   3.680
55027W        W22095  40.312  42.945   0.427
55028W        W22096   5.228  20.216   1.320
55029W        W22097  11.854  20.737   2.702
55030W        W22098  42.833  27.969   0.322
55031W        W22099  15.762  15.776  10.586
55032W        W22100  26.560  15.710  11.906
55033W        W22101  44.991   8.810   0.769
55034W        W22102  35.077  37.006  11.863
55035W        W22103  35.594  44.862   2.355
55036W        W22104   4.837   3.858  12.028
55037W        W22105  15.596  27.477  11.516
55038W        W22106  11.709  43.981   2.773
55039W        W22107  36.981  16.217  11.498
55040W        W22108  13.823  20.080   2.726
55041W        W22109  13.194  10.732   2.840
55042W        W22110  21.162  43.358   0.955
55043W        W22111  17.699  21.262   1.817
55044W        W22112   6.320  22.546  11.968
55045W        W22113  17.077   8.272   3.357
55046W        W22114  42.429  25.658  12.005
55047W        W22115  41.807  25.081   3.229
55048W        W22116   9.819  19.589   3.718
55049W        W22117  12.273   5.336  12.525
55050W        W22118  33.969  22.707   4.826
55051W        W22119  42.968   2.882  14.866
55052W        W22120  19.569  44.762  14.360
55053W        W22121  38.487   5.247   2.816
55054W        W22122  27.475  17.244   0.782
55055W        W22123   0.385  33.885   3.179
55056W        W22124  26.104   8.796  13.391
55057W        W22125  15.278   6.249  14.976
55058W        W22126  35.404  10.764   0.738
55059W        W22127  38.974  10.180   0.755
55060W        W22128  33.123  43.502   2.233
55061W        W22129  30.106  44.442   0.962
55062W        W22130   9.822  36.873  14.000
55063W        W22131   9.152  42.877   3.674
55064W        W22132  43.868  30.527   1.240
55065W        W22133  41.370  22.046  14.030
55066W        W22134   2.879  42.827   2.411
55067W        W22135  30.090   2.231   3.734
55068W        W22136   2.801  20.550  11.547
55069W        W22137  21.716   5.210   0.319
55070W        W22138  43.777   3.407   2.212
55071W        W22139  19.106   9.355   1.388
55072W        W22140  25.111  15.627  13.500
55073W        W22141  28.639  30.521  11.085
55074W        W22142  19.174  18.749  14.897
55075W        W22143  31.007  14.633  10.565
55076W        W22144  39.969  22.194  10.535
55077W        W22145  12.234  20.244  13.037
55078W        W22146  25.158  26.055  12.396
55079W        W22147   5.719  36.006  14.029
55080W        W22148   6.301  39.344  12.070
55081W        W22149  30.000  27.046  10.911
55082W        W22150  40.391  19.075  10.449
55083W        W22151  25.162  23.037  12.423
55084W        W22152  10.698  27.166   2.718
55085W        W22153  14.790  30.505  11.889
55086W        W22154  43.502  42.311   1.730
55087W        W22155  18.232   2.291   3.147
55088W        W22156  23.497   3.347   1.359
55089W        W22157  42.793   2.838   1.766
55090W        W22158  27.967  14.680  12.948
55091W        W22159  17.632  30.458   3.865
55092W        W22160  43.462   9.688  13.511
55093W        W22161  16.090  23.161   4.802
55094W        W22162   6.701  32.605   0.876
55095W        W22163   6.387  42.873  12.549
55096W        W22164  34.936  25.034   3.359
55097W        W22165  11.366  40.536  10.582
55098W        W22166  24.510   9.221   4.176
55099W        W22167  43.491  19.659  13.433
55100W        W22168   6.879  33.397   0.435
55101W        W22169  39.374  36.866   2.328
55102W        W22170  14.813  22.033   2.775
55103W        W22171  39.337  13.325   1.891
55104W        W22172   7.194  32.968   2.314
55105W        W22173  33.502  42.404  11.902
55106W        W22174  13.232   3.894   4.734
55107W        W22175   3.822   5.429  11.527
55108W        W22176  23.545   0.299  14.808
55109W        W22177  42.842   5.288   4.743
55110W        W22178   6.751   2.819   0.369
55111W        W22179   3.742  25.607   2.886
55112W        W22180   8.394  32.494   3.156
55113W        W22181  23.541  33.095  13.484
55114W        W22182  25.098  44.843   2.810
55115W        W22183  17.569  40.421  11.931
55116W        W22184  21.078  21.725  13.833
55117W        W22185  18.585  25.148  11.481
55118W        W22186  35.936  19.238   0.834
55119W        W22187  22.156  23.103  13.513
55120W        W22188  19.612  36.850   2.417
55121W        W22189  28.030  24.227   3.707
55122W        W22190   9.175   4.450  12.040
55123W        W22191  13.709  24.144   2.836
55124W        W22192  13.275  44.475  11.481
55125W        W22193  10.146   3.347   4.796
55126W        W22194  13.301  23.121   4.262
55127W        W22195  44.382  25.186   0.749
55128W        W22196  28.525  34.117   2.196
55129W        W22197  27.558   8.854   2.669
55130W        W22198  36.430   7.354   2.787
55131W        W22199  30.621  43.765   4.195
55132W        W22200  30.601   3.721   1.393
55133W        W22201   1.862  40.313  11.484
55134W        W22202   4.446  15.744   0.286
55135W        W22203  40.414  20.205  14.973
55136W        W22204   0.821  38.414  14.915
55137W        W22205   4.911  31.961  10.130
55138W        W22206  19.641  24.974   3.754
55139W        W22207  33.917  33.427  10.966
55140W        W22208  40.848  42.874  12.963
55141W        W22209  41.841   9.763  11.420
55142W        W22210  10.350  20.693   4.676
55143W        W22211  42.859  25.572  11.513
55144W        W22212  23.610  15.662  10.960
55145W        W22213  15.822  25.506   4.225
55146W        W22214  28.999  37.526  14.830
55147W        W22215  20.114  11.206   4.744
55148W        W22216   4.241  33.595  12.497
55149W        W22217   2.958   9.651  11.406
55150W        W22218  36.560  16.270   3.251
55151W        W22219   2.859   9.387   2.814
55152W        W22220  42.300   2.399   1.909
55153W        W22221   3.223  33.562  11.074
55154W        W22222   0.308   1.734   1.901
55155W        W22223  33.503  40.834  12.980
55156W        W22224  14.124   5.352   3.679
55157W        W22225  40.880   0.410  12.446
55158W        W22226  41.445  28.567   0.786
55159W        W22227  26.604  14.202  11.949
55160W        W22228  22.184  13.146   3.645
55161W        W22229  25.501  36.898   1.713
55162W        W22230   2.245  33.589   3.721
55163W        W22231  11.240  40.968   0.883
55164W        W22232   9.660  40.803  13.400
55165W        W22233  11.195  35.582  14.793
55166W        W22234   1.940  31.977  10.950
55167W        W22235  40.911  10.238   2.211
55168W        W22236   8.273  32.964  13.793
55169W        W22237  30.553  25.547  11.873
55170W        W22238  35.065  35.027   1.328
55171W        W22239  23.096  27.653  11.984
55172W        W22240  40.815  16.098   1.889
55173W        W22241  41.981  39.826  10.403
55174W        W22242  13.636   6.331   0.812
55175W        W22243   6.302  42.376  12.886
55176W        W22244  29.073  17.784   3.851
55177W        W22245  14.243  11.305   3.327
55178W        W22246  43.495  21.607   1.713
55179W        W22247  24.095   8.327  14.820
55180W        W22248   4.856   1.936  12.381
55181W        W22249   1.739  18.176  14.984
55182W        W22250  26.624   6.259   2.804
55183W        W22251  26.695   4.941  13.900
55184W        W22252   7.793  16.649   1.400
55185W        W22253   8.736  40.368   2.840
55186W        W22254  22.611   7.817  14.461
55187W        W22255  28.601  40.368   0.795
55188W        W22256   1.257  37.935  11.066
55189W        W22257  15.226  11.846  11.473
55190W        W22258  26.195  42.494   2.684
55191W        W22259  44.327  41.958   3.193
55192W        W22260  11.301  22.627  10.484
55193W        W22261  22.704  22.170  12.975
55194W        W22262  23.561  24.128  14.823
55195W        W22263  38.333   8.342  10.563
55196W        W22264  37.940  33.469  14.786
55197W        W22265   2.964  38.533  12.548
55198W        W22266   4.262   3.458   0.434
55199W        W22267  35.454  41.373  13.045
55200W        W22268  32.624  29.059  12.341
55201W        W22269  34.959  10.740  14.414
55202W        W22270  39.353  28.518   4.642
55203W        W22271  43.459  21.122   2.312
55204W        W22272   2.439   1.894  10.902
55205W        W22273  22.165  24.171  11.935
55206W        W22274  30.959   7.702  10.921
55207W        W22275   8.834   8.660   1.425
55208W        W22276  34.558  42.029  12.512
55209W        W22277   4.740   5.693  12.564
55210W        W22278  37.952   9.871  12.392
55211W        W22279   3.858  20.069  13.829
55212W        W22280  20.718  33.487   4.219
55213W        W22281  14.339  24.530  14.478
55214W        W22282   1.301   3.267   2.317
55215W        W22283  24.005   7.359   4.715
55216W        W22284  21.522  35.465  11.104
55217W        W22285   7.694   9.755   4.125
55218W        W22286   7.825  32.070  10.445
55219W        W22287  38.831   9.857   2.668
55220W        W22288  44.263  31.936  10.586
55221W        W22289  25.069  25.653  13.308
55222W        W22290  13.149   8.733  13.892
55223W        W22291  22.180  20.130  13.437
55224W        W22292  40.407   1.362  10.589
55225W        W22293   6.726  37.397   4.311
55226W        W22294  39.360  23.022  12.361
55227W        W22295  18.619  40.900   3.382
55228W        W22296  11.303  41.976  11.414
55229W        W22297  31.045   3.312   3.828
55230W        W22298  20.550  33.121   3.827
55231W        W22299  32.084  34.981   3.204
55232W        W22300  19.124   2.956   4.285
55233W        W22301  16.269  22.093   5.134
55234W        W22302  17.562  43.307  11.916
55235W        W22303   8.378  24.997  14.919
55236W        W22304  37.936  43.496  13.882
55237W        W22305  44.296  37.065   4.190
55238W        W22306  10.835   9.850   2.380
55239W        W22307   8.193   8.887   4.272
55240W        W22308  31.000   9.189  10.978
55241W        W22309  29.439  37.085  11.416
55242W        W22310  36.568  16.284   2.196
55243W        W22311   0.392   2.912   4.180
55244W        W22312  33.916  44.441  11.128
55245W        W22313  44.855  25.688  14.821
55246W        W22314  26.597  17.081   2.897
55247W        W22315   2.432  21.110   1.854
55248W        W22316   9.842  27.448  13.046
55249W        W22317  43.466  18.766  14.953
55250W        W22318  27.479  29.074  11.538
55251W        W22319  27.079  30.154   2.781
55252W        W22320  18.779  11.166  13.965
55253W        W22321  38.871   3.808  11.059
55254W        W22322  19.220  39.413  11.953
55255W        W22323  42.456  21.550  14.351
55256W        W22324  31.952  35.024   1.758
55257W        W22325   9.857  21.676   1.299
55258W        W22326   4.416   0.428  13.872
55259W        W22327  17.294  14.766   0.445
55260W        W22328  32.005  40.871   3.256
55261W        W22329  20.598  21.541   0.836
55262W        W22330  23.207  21.150  10.085
55263W        W22331  13.780  39.355  13.452
55264W        W22332  16.078  18.735   0.276
55265W        W22333  39.352  40.905  13.319
55266W        W22334  43.957   0.934  11.407
55267W        W22335  30.051  22.213  11.975
55268W        W22336  33.537  37.402  13.327
55269W        W22337  27.663  19.699   1.844
55270W        W22338  14.188  34.887  13.321
55271W        W22339  35.892   7.285   4.694
55272W        W22340  14.137  12.329  11.033
55273W        W22341   2.404  14.681   4.190
55274W        W22342  15.194   0.853   1.909
55275W        W22343  34.533   6.871   2.350
55276W        W22344  24.539  34.050  11.125
55277W        W22345  10.657  37.024  12.518
55278W        W22346  20.620   7.674  10.953
55279W        W22347  18.682   9.688   3.836
55280W        W22348  32.100  10.205   2.883
55281W        W22349   2.791   1.451  11.469
55282W        W22350  35.084  10.717   1.270
55283W        W22351  25.132   8.333   4.134
55284W        W22352  20.747   6.289  11.855
55285W        W22353   8.856  34.609  10.895
55286W        W22354  13.264   8.166  14.759
55287W        W22355  23.003  39.854  13.875
55288W        W22356  43.480  29.135   1.221
55289W        W22357   5.258  29.665  13.796
55290W        W22358  36.506   6.207  10.957
55291W        W22359  22.047  12.792  12.375
55292W        W22360   8.742  24.571   3.362
55293W        W22361  37.953  34.970  12.488
55294W        W22362  31.108  28.489   1.402
55295W        W22363  39.002  39.432   3.856
55296W        W22364  44.352  34.868  11.400
55297W        W22365  16.302  44.859   3.844
55298W        W22366  21.150  22.084  13.043
55299W        W22367  18.770  21.655   2.414
55300W        W22368  32.047  20.057   0.329
55301W        W22369  35.499  43.975  10.534
55302W        W22370  44.872  11.699  11.542
55303W        W22371   8.239  39.980  13.977
55304W        W22372  10.304  27.503  12.967
55305W        W22373   7.795  29.129   0.958
55306W        W22374  24.617  42.975  11.882
55307W        W22375  13.759  27.652   1.415
55308W        W22376   3.333  24.601  13.336
55309W        W22377  33.432   9.763  12.440
55310W        W22378  10.373  38.928  11.892
55311W        W22379  14.164  36.075   3.817
55312W        W22380  43.428   2.760  14.937
55313W        W22381   9.779   2.867   0.868
55314W        W22382  10.177  11.137   4.633
55315W        W22383  43.820  38.428   3.311
55316W        W22384  35.964  10.822   0.275
55317W        W22385  28.157  28.114   0.945
55318W        W22386  22.555   5.853   4.198
55319W        W22387  17.070  25.549  12.010
55320W        W22388   0.798  38.458   3.711
55321W        W22389   2.254  20.541  11.508
55322W        W22390  27.652  11.798  12.477
55323W        W22391  41.800  31.906  12.489
55324W        W22392  39.023  21.024   1.759
55325W        W22393  37.988  39.516   4.625
55326W        W22394   4.834  11.364  12.955
55327W        W22395  12.275  32.614  13.941
55328W        W22396  10.837  11.804   2.855
55329W        W22397  37.879  35.419   2.804
55330W        W22398  33.623  41.871  10.477
55331W        W22399  34.120  37.463  12.454
55332W        W22400  20.582  17.676   1.210
55333W        W22401  29.605  40.539   5.195
55334W        W22402  41.297  43.998   2.773
55335W        W22403   0.760  36.898   1.331
55336W        W22404  24.208  17.186   3.821
55337W        W22405  34.037   1.867   4.683
55338W        W22406  29.070  37.877  14.306
55339W        W22407  37.381  19.558   3.634
55340W        W22408  22.054  15.108   3.319
55341W        W22409  12.256  18.287   2.197
55342W        W22410  44.281  28.077   0.439
55343W        W22411  19.773  42.964   2.212
55344W        W22412  14.717  32.505   3.226
55345W        W22413  17.061   2.852   4.653
55346W        W22414  28.992  24.511   0.948
55347W        W22415   3.336  13.841   2.260
55348W        W22416  18.287  30.076   5.684
55349W        W22417   0.786  30.443  11.101
55350W        W22418  31.076   8.752  13.925
55351W        W22419  42.792  26.552  14.821
55352W        W22420  26.654  33.019   2.190
55353W        W22421  22.052  32.488   3.742
55354W        W22422  42.407  30.943  13.930
55355W        W22423  26.621  28.055   0.248
55356W        W22424  13.808  24.675   2.230
55357W        W22425  29.942  16.136   2.279
55358W        W22426  14.717  42.775   9.947
55359W        W22427  29.516  44.915   0.281
55360W        W22428  13.667  16.115  14.011
55361W        W22429  23.012  41.034   1.775
55362W        W22430  37.538  24.227   1.750
55363W        W22431   2.461  13.332  14.980
55364W        W22432  34.397  34.040  11.962
55365W        W22433   4.770   6.727   0.931
55366W        W22434  18.163   4.787   3.271
55367W        W22435  36.074  14.292  11.473
55368W        W22436  39.844  35.365  12.878
55369W        W22437   1.449   2.393   3.776
55370W        W22438   2.238  25.162   4.319
55371W        W22439  33.605   8.755   3.386
55372W        W22440  30.473   8.338   0.432
55373W        W22441  37.999   6.417  14.347
55374W        W22442   8.655  30.435  11.123
55375W        W22443   4.245  27.507   1.229
55376W        W22444  21.082  41.467  13.485
55377W        W22445  25.977  35.995   2.812
55378W        W22446  26.159  40.310  11.972
55379W        W22447  17.063  25.653   3.313
55380W        W22448  39.849  21.523  13.542
55381W        W22449  30.509   7.776  11.910
55382W        W22450  13.699  34.093  14.353
55383W        W22451  15.697  28.558  13.049
55384W        W22452  44.849   3.400  14.283
55385W        W22453   5.293  19.148  14.843
55386W        W22454  40.046  33.988   2.274
55387W        W22455   7.293  26.202   4.811
55388W        W22456  32.613  23.117  14.319
55389W        W22457  15.606  42.428  11.067
55390W        W22458  31.076  36.939   3.216
55391W        W22459  42.958  26.019   4.190
55392W        W22460   5.250  42.981   2.775
55393W        W22461  39.959   7.782  12.979
55394W        W22462  16.148  22.239   0.460
55395W        W22463  14.251  31.495   3.685
55396W        W22464  41.350  19.671  14.759
55397W        W22465   3.388  41.478   2.716
55398W        W22466  37.532  22.678  13.897
55399W        W22467  39.540   0.948   4.335
55400W        W22468  12.243  15.770  12.950
55401W        W22469  27.581  22.062   4.782
55402W        W22470  20.560   9.680  12.563
55403W        W22471  30.015  42.878  13.877
55404W        W22472  18.700  39.984  10.565
55405W        W22473  36.959   6.274   0.858
55406W        W22474  26.543  14.783   1.821
55407W        W22475   9.725   0.932   2.694
55408W        W22476  25.690  17.076   0.914
55409W        W22477   7.247  38.913   3.213
55410W        W22478  43.781   0.372  12.882
55411W        W22479  32.486   1.952  12.459
55412W        W22480  35.598  11.747  12.847
55413W        W22481  41.370  22.246   0.791
55414W        W22482   5.695  42.526  14.919
55415W        W22483   3.923  30.504   0.375
55416W        W22484   8.222  23.639   1.290
55417W        W22485   0.418   9.189  10.896
55418W        W22486  38.494  40.453  14.417
55419W        W22487   3.916   7.837  12.465
55420W        W22488  27.954   6.853  10.636
55421W        W22489  44.942  39.885   2.400
55422W        W22490  41.970  29.920   4.815
55423W        W22491  36.886  18.127  11.394
55424W        W22492  30.426   6.272   4.331
55425W        W22493   6.200  18.123  14.451
55426W        W22494  10.781  15.708  12.504
55427W        W22495  30.553  31.022  11.514
55428W        W22496  22.038  15.702   3.223
55429W        W22497  14.308   8.307   3.344
55430W        W22498  44.436  23.061   1.300
55431W        W22499   9.764  41.003  11.576
55432W        W22500   8.352   1.388  11.376
55433W        W22501   8.271  25.962   3.171
55434W        W22502  16.587  11.656   0.864
55435W        W22503  20.144  24.671   2.764
55436W        W22504  38.434  32.914   0.762
55437W        W22505  19.052   8.321  10.587
55438W        W22506  25.084  30.984   4.184
55439W        W22507  43.965  33.924   4.606
55440W        W22508  18.093  27.633   2.806
55441W        W22509  38.337   5.814  14.443
55442W        W22510  16.119  14.134  14.759
55443W        W22511  32.945  27.520  10.940
55444W        W22512  41.962  41.431  13.511
55445W        W22513   0.872  39.406  11.917
55446W        W22514   8.406  31.916   4.677
55447W        W22515  37.547  41.315   1.215
55448W        W22516   4.261  20.054  11.901
55449W        W22517  35.599  34.891  14.492
55450W        W22518   1.737  28.997  14.803
55451W        W22519  41.331   4.211  10.635
55452W        W22520  17.797  38.549   4.754
55453W        W22521  26.620  22.588   4.247
55454W        W22522   1.864  12.780  10.458
55455W        W22523  30.919  35.534  12.087
55456W        W22524  16.319   7.191  14.981
55457W        W22525  44.849  22.137   1.352
55458W        W22526   2.403   3.771   4.815
55459W        W22527  14.118  28.076  11.595
55460W        W22528  29.498   5.388  14.397
55461W        W22529   5.902  19.062   0.943
55462W        W22530   1.427  40.522   0.462
55463W        W22531  40.040  23.170   4.703
55464W        W22532  20.049  12.146   3.780
55465W        W22533   0.452  23.097   3.721
55466W        W22534   2.812  26.629  13.324
55467W        W22535  34.058  29.566   0.270
55468W        W22536  27.588   3.392   4.790
55469W        W22537  41.411  44.919   4.731
55470W        W22538  29.064  16.090   2.384
55471W        W22539  34.432   2.907   2.354
55472W        W22540  24.694  20.219  12.953
55473W        W22541  39.033   8.850   4.731
55474W        W22542  41.839  41.879  13.938
55475W        W22543  21.663   8.385  12.519
55476W        W22544  16.595  40.829   0.929
55477W        W22545  42.989  41.454   4.166
55478W        W22546  26.532  22.553   2.223
55479W        W22547  27.644  30.152   4.631
55480W        W22548  37.930  25.044  11.071
55481W        W22549  41.514  20.545   0.363
55482W        W22550  37.024   4.254   4.197
55483W        W22551  13.149  10.211   1.912
55484W        W22552  42.380  17.141   3.377
55485W        W22553  34.475   0.451  14.301
55486W        W22554  33.966  36.846   3.321
55487W        W22555  23.642   2.407  12.920
55488W        W22556  40.442   6.223   2.843
55489W        W22557  36.979  40.331   4.297
55490W        W22558  24.078  27.597  13.514
55491W        W22559   0.866  16.088  14.310
55492W        W22560  26.545  34.925   4.763
55493W        W22561  27.123   1.261   2.778
55494W        W22562  20.250  16.267   1.830
55495W        W22563  16.671  21.117  13.346
55496W        W22564  27.564  32.475   0.943
55497W        W22565  20.626  42.812  11.920
55498W        W22566  39.951  40.373   4.168
55499W        W22567  26.572  43.360   2.822
55500W        W22568  39.908  14.665  10.582
55501W        W22569  44.387  36.042  11.858
55502W        W22570  42.788   7.225   0.818
55503W        W22571   1.476   6.276   2.797
55504W        W22572  23.006  32.934   1.747
55505W        W22573  37.547  10.277   0.249
55506W        W22574  21.742  31.030  13.886
55507W        W22575  30.022  33.122   2.178
55508W        W22576   4.227  37.565  13.313
55509W        W22577  25.556  44.764  14.862
55510W        W22578  23.499   3.260  13.791
55511W        W22579  26.600  27.618  13.899
55512W        W22580  15.704  17.137  12.941
55513W        W22581  38.924  25.184   0.345
55514W        W22582  29.600  29.034   3.355
55515W        W22583  12.333   1.338   5.226
55516W        W22584  34.035  39.992   4.347
55517W        W22585  12.204   1.396   4.284
55518W        W22586  37.476  19.163  13.514
55519W        W22587  11.135  34.610  14.976
55520W        W22588   1.945  26.668  13.929
55521W        W22589  13.214  17.144   5.253
55522W        W22590  14.320   6.901  10.578
55523W        W22591   8.311  17.275   4.267
55524W        W22592  21.078  19.269   1.245
55525W        W22593  34.428  31.150   2.719
55526W        W22594  24.597  30.146  14.375
55527W        W22595  34.434  37.958  12.074
55528W        W22596  37.434  42.978   3.371
55529W        W22597   1.874   8.821   2.766
55530W        W22598  44.792   4.725   0.936
55531W        W22599  22.137  34.393  13.499
55532W        W22600  30.432  10.780   2.678
55533W        W22601  12.125  33.059  14.400
55534W        W22602  28.507  17.612  12.354
55535W        W22603  12.852  32.621   2.390
55536W        W22604  37.459  42.965   0.931
55537W        W22605  14.281  31.960   0.429
55538W        W22606  35.382  41.507   1.876
55539W        W22607  29.438  44.912  11.120
55540W        W22608  28.959   9.721   0.341
55541W        W22609  14.190  10.333   1.831
55542W        W22610  12.729   5.873   3.322
55543W        W22611  12.158   5.931   1.794
55544W        W22612  22.091  41.293  12.562
55545W        W22613  35.462  30.037   0.774
55546W        W22614  32.904  14.727   4.823
55547W        W22615  29.558  21.028  12.510
55548W        W22616   7.860  17.683   4.658
55549W        W22617  31.100  37.899   1.231
55550W        W22618  30.004  27.143   4.599
55551W        W22619  26.034   3.437  11.525
55552W        W22620   2.344  42.881   3.629
55553W        W22621  38.551  35.097  11.107
55554W        W22622  28.517  30.024  10.632
55555W        W22623  10.318  28.585  14.984
55556W        W22624  40.527  11.766  13.824
55557W        W22625  38.508  39.996  10.417
55558W        W22626  16.182  10.149   2.813
55559W        W22627  42.856  11.325  13.422
55560W        W22628  32.910  22.119  13.922
55561W        W22629   1.839  26.490  12.900
55562W        W22630  34.512   7.886  12.555
55563W        W22631  41.326   5.200  14.326
55564W        W22632   5.805   0.353   0.414
55565W        W22633  40.024  39.812   1.396
55566W        W22634  16.728   8.306  12.041
55567W        W22635  17.289  15.185  12.869
55568W        W22636  31.597  29.436  13.023
55569W        W22637  11.758  40.467   4.650
55570W        W22638  15.622  14.689   5.117
55571W        W22639  20.197  27.973   5.261
55572W        W22640  36.950  25.143   4.297
55573W        W22641  17.248  36.925  11.947
55574W        W22642  27.053  20.242  14.293
55575W        W22643  14.163  29.158   4.145
55576W        W22644  38.867  41.441   1.277
55577W        W22645   9.288   4.390   0.898
55578W        W22646  21.136  32.962   2.400
55579W        W22647  26.095  31.140   2.662
55580W        W22648  15.716  16.238  12.863
55581W        W22649  15.770  16.260   1.733
55582W        W22650  13.151  28.053  14.306
55583W        W22651  43.870  24.654   1.917
55584W        W22652   5.844  33.482  11.907
55585W        W22653  19.237  36.398  11.997
55586W        W22654  14.764  27.000   1.851
55587W        W22655  19.127  37.001  14.307
55588W        W22656  30.091  39.371  12.856
55589W        W22657  31.055  38.523  10.596
55590W        W22658  34.481  43.969  13.013
55591W        W22659   8.217  41.962  11.933
55592W        W22660   5.740   8.312  11.493
55593W        W22661  19.085   5.798  12.492
55594W        W22662  24.093  33.063   0.966
55595W        W22663  42.444  13.182   1.389
55596W        W22664   6.253  27.517   4.258
55597W        W22665  22.033  21.645   1.367
55598W        W22666   2.361  18.129  10.050
55599W        W22667  37.356   5.390  14.903
55600W        W22668  26.532  15.162   4.180
55601W        W22669  44.784  25.602   1.714
55602W        W22670  26.645  34.482  11.543
55603W        W22671  37.535  22.065  12.394
55604W        W22672  30.976   1.274   1.732
55605W        W22673   8.780  42.409  11.382
55606W        W22674   3.789  15.215   2.688
55607W        W22675  26.120   3.791   2.351
55608W        W22676  34.043  16.278  10.633
55609W        W22677  26.105  36.040  10.928
55610W        W22678  10.236  22.202   1.844
55611W        W22679  18.051  37.980  12.576
55612W        W22680  36.874  27.130  14.331
55613W        W22681  40.967  16.713  10.479
55614W        W22682  39.830  13.727   4.683
55615W        W22683  43.445   7.273   1.854
55616W        W22684   8.293   8.883  12.472
55617W        W22685  22.573  38.884   0.277
55618W        W22686   7.341  28.012   3.161
55619W        W22687  41.393   5.392  12.548
55620W        W22688  33.540  20.083   0.362
55621W        W22689   1.473  32.119  14.380
55622W        W22690  18.167  35.513  11.045
55623W        W22691  27.072  43.953   4.598
55624W        W22692  40.913   8.256   3.761
55625W        W22693   3.924   8.289  10.971
55626W        W22694   0.349  16.229  12.065
55627W        W22695  23.078  38.824   0.472
55628W        W22696  19.265  14.140   3.631
55629W        W22697  44.496  32.569   2.840
55630W        W22698  34.538  26.062   2.274
55631W        W22699  39.405  38.349  10.412
55632W        W22700  30.641   1.288   1.210
55633W        W22701  17.128  25.668   4.729
55634W        W22702   1.871  21.239  14.812
55635W        W22703  20.230   0.786   3.230
55636W        W22704  21.186  28.587   0.438
55637W        W22705   5.867  19.705   0.859
55638W        W22706  33.430  30.431   2.840
55639W        W22707  26.066  35.939   4.266
55640W        W22708  12.620  44.374  12.897
55641W        W22709   6.679  39.494   2.359
55642W        W22710   6.339  19.692  14.322
55643W        W22711  30.093  10.807  10.506
55644W        W22712  28.938  18.207   1.241
55645W        W22713  43.418  39.501   4.285
55646W        W22714  43.446   1.366   4.817
55647W        W22715  15.149  30.164   4.767
55648W        W22716  22.717   2.823   2.366
55649W        W22717  44.758   9.352   1.222
55650W        W22718  33.575  43.903  12.063
55651W        W22719  26.531  29.077   1.310
55652W        W22720   5.255  18.611  14.032
55653W        W22721  31.092  27.654   1.815
55654W        W22722  43.326  30.053  14.477
55655W        W22723   7.251  28.069   3.635
55656W        W22724  26.545  39.370  14.310
55657W        W22725   3.270  20.679  13.905
55658W        W22726  11.758  33.576   5.222
55659W        W22727   5.856  36.076   3.302
55660W        W22728  44.803  18.250  13.489
55661W        W22729  42.361  15.152   4.679
55662W        W22730   1.814  20.692   2.810
55663W        W22731  10.822  30.459   2.813
55664W        W22732   5.261  41.999   1.852
55665W        W22733   0.798  16.601   2.401
55666W        W22734   0.790  14.109   4.774
55667W        W22735  29.920  23.166   2.773
55668W        W22736   0.823   8.173  13.402
55669W        W22737  24.679  34.558   3.366
55670W        W22738   7.346  17.767  13.404
55671W        W22739  10.781   6.201  13.946
55672W        W22740  15.732   8.233   5.109
55673W        W22741   9.332  34.993  12.506
55674W        W22742  32.020  29.559  12.374
55675W        W22743  12.769  12.814  14.802
55676W        W22744   2.877   1.901   2.409
55677W        W22745  14.144  36.009  10.408
55678W        W22746  32.039  37.454   3.738
55679W        W22747  35.574  28.024   0.862
55680W        W22748  35.048   6.259   2.219
55681W        W22749   5.425  31.513   2.777
55682W        W22750  30.657   5.391   0.959
55683W        W22751   9.730  10.319  14.938
55684W        W22752  12.782  16.594  11.978
55685W        W22753  10.259   6.319   3.332
55686W        W22754  17.799   3.828  14.390
55687W        W22755  29.989  39.059   1.767
55688W        W22756  19.257  21.672   1.719
55689W        W22757  44.810   4.898  14.496
55690W        W22758  34.109  44.385   4.128
55691W        W22759  43.931  21.235   0.954
55692W        W22760  16.726  19.716   2.354
55693W        W22761  37.441   9.361   4.263
55694W        W22762  32.008  27.159  11.465
55695W        W22763   4.205  43.410   3.214
55696W        W22764  18.188  21.646  13.315
55697W        W22765  18.742  28.528  14.930
55698W        W22766  27.470  27.046   2.247
55699W        W22767  32.528  19.257  11.969
55700W        W22768  21.749  17.727  14.011
55701W        W22769  23.656  33.560  11.936
55702W        W22770  22.092  38.071  11.472
55703W        W22771  17.206  15.733   2.805
55704W        W22772  13.183  28.104  14.013
55705W        W22773   3.317  20.574   1.708
55706W        W22774  38.062   5.729  11.118
55707W        W22775  44.943  27.981  14.024
55708W        W22776  15.584  17.640  12.967
55709W        W22777  21.219   4.774   0.251
55710W        W22778  40.439  21.251   9.979
55711W        W22779   7.197  17.608  14.441
55712W        W22780   6.244   8.371   0.321
55713W        W22781   6.358  33.396   5.313
55714W        W22782  41.386  28.673   2.864
55715W        W22783  42.355  29.154  13.463
55716W        W22784  37.894   1.253  12.525
55717W        W22785  21.088   9.368  13.429
55718W        W22786  17.751  14.682   0.873
55719W        W22787  15.629  16.192   0.896
55720W        W22788  43.315   8.380   4.782
55721W        W22789  44.410  21.030  14.496
55722W        W22790   2.297  31.017   1.315
55723W        W22791  14.332  33.453  10.972
55724W        W22792  14.744  38.517   2.787
55725W        W22793  38.957   8.820   2.277
55726W        W22794   9.763  18.728  10.457
55727W        W22795  22.538   6.840   3.207
55728W        W22796   1.251  39.353  13.999
55729W        W22797  31.529  35.358  12.503
55730W        W22798   0.372  32.439  12.550
55731W        W22799   2.443  25.508  10.516
55732W        W22800  40.484  33.982  12.875
55733W        W22801  23.989  39.321  11.889
55734W        W22802  34.102   7.251   4.280
55735W        W22803   6.357  41.869  11.547
55736W        W22804   1.834   1.746   0.364
55737W        W22805  28.655  22.081  13.485
55738W        W22806   8.363  29.644   1.885
55739W        W22807  16.077  12.646   1.879
55740W        W22808  43.285  39.909   0.843
55741W        W22809  27.452   6.712  10.435
55742W        W22810  31.446   8.802  10.000
55743W        W22811   5.781   3.872   3.868
55744W        W22812  11.145  31.113   4.166
55745W        W22813  26.048  33.606   1.413
55746W        W22814  26.681  24.196   4.203
55747W        W22815  22.064  25.495  13.926
55748W        W22816   1.402  44.392  11.525
55749W        W22817  44.430  37.419  13.025
55750W        W22818   1.293  11.688   4.655
55751W        W22819  20.262  11.160  14.767
55752W        W22820  31.618  22.513   1.434
55753W        W22821   4.309  38.876   2.892
55754W        W22822  10.680   0.454  14.887
55755W        W22823  10.269  13.348  11.400
55756W        W22824  35.014   1.368   4.323
55757W        W22825  23.040  10.238  10.475
55758W        W22826   0.900  30.964  11.865
55759W        W22827   4.265   3.425  12.506
55760W        W22828  43.810  10.722  13.439
55761W        W22829  14.124  23.178  13.901
55762W        W22830  29.948  18.607   0.951
55763W        W22831  32.520  17.679   1.442
55764W        W22832  29.638   1.357  12.558
55765W        W22833   2.788  33.916   4.177
55766W        W22834   7.749  26.080   4.212
55767W        W22835  23.074  12.629   3.230
55768W        W22836  28.493  34.117   0.865
55769W        W22837  29.614  20.211   4.352
55770W        W22838  42.907   4.783  12.504
55771W        W22839  20.133  23.622  12.065
55772W        W22840   3.409  30.546   0.470
55773W        W22841  25.018   3.274  14.387
55774W        W22842  31.475  40.482   4.137
55775W        W22843  10.220   4.906   4.274
55776W        W22844  10.326   6.311  11.896
55777W        W22845  31.538   2.840   2.868
55778W        W22846  23.062  29.532   2.321
55779W        W22847   6.239   9.889  14.770
55780W        W22848   2.867   7.807   2.791
55781W        W22849  20.259  17.692   4.722
55782W        W22850  28.123  39.329   3.254
55783W        W22851  10.267  22.168  11.449
55784W        W22852  39.850  18.549   4.789
55785W        W22853  16.617   5.209   1.923
55786W        W22854  15.661  24.627   1.882
55787W        W22855  28.186  12.826   1.390
55788W        W22856  42.439  27.964   4.725
55789W        W22857  33.454  25.033   2.858
55790W        W22858  25.649  37.836   3.309
55791W        W22859  27.500   9.173   2.327
55792W        W22860  34.030  36.992  11.530
55793W        W22861  34.427  32.552   0.749
55794W        W22862  25.499  25.575   3.780
55795W        W22863   1.958  14.747  14.338
55796W        W22864  44.843   5.718  10.633
55797W        W22865  16.678  22.216  11.902
55798W        W22866   6.401   9.378  12.512
55799W        W22867  23.648   9.818   4.613
55800W        W22868  43.014  17.292   1.732
55801W        W22869  41.449  15.650  10.561
55802W        W22870  29.461   1.353  14.987
55803W        W22871  13.271  18.233  13.010
55804W        W22872   4.871  28.019   4.313
55805W        W22873  32.925  39.839  14.882
55806W        W22874  29.054  21.562   1.741
55807W        W22875  40.896  44.269   4.289
55808W        W22876   4.356  44.893  14.887
55809W        W22877  22.630  29.140  13.001
55810W        W22878  12.352  19.547   0.469
55811W        W22879   3.264   1.753   4.692
55812W        W22880  28.093  32.895   4.128
55813W        W22881  43.377  35.974  11.919
55814W        W22882  17.085   5.239   4.159
55815W        W22883  33.463  17.078  14.404
55816W        W22884  26.188   0.429   1.744
55817W        W22885  44.492  42.350  12.032
55818W        W22886  21.701  43.925   4.701
55819W        W22887  42.896  36.074   2.752
55820W        W22888  34.008  17.303   1.841
55821W        W22889  31.633  10.327  14.414
55822W        W22890  44.881   6.363  12.937
55823W        W22891   6.832  26.587   3.763
55824W        W22892  44.956  30.929  13.508
55825W        W22893  16.195  30.450   2.673
55826W        W22894  44.863   2.373  12.927
55827W        W22895   2.424  41.004  11.380
55828W        W22896  10.675  26.647  13.433
55829W        W22897  11.653  25.028   2.845
55830W        W22898  13.648  40.915  13.380
55831W        W22899   2.321  38.845  11.554
55832W        W22900  35.507  24.563   4.145
55833W        W22901  14.799  10.868  14.427
55834W        W22902  11.811  43.002  12.376
55835W        W22903  24.601  30.494  11.491
55836W        W22904  28.629  36.966   4.133
55837W        W22905  43.342  35.451  14.399
55838W        W22906  16.656  23.675  13.435
55839W        W22907  37.368  16.258  13.954
55840W        W22908  34.406  43.839  14.942
55841W        W22909  19.236  11.825  10.476
55842W        W22910   4.394  35.399  14.794
55843W        W22911  35.373  38.391  14.457
55844W        W22912  37.564   3.264  10.161
55845W        W22913   1.817  26.595  12.445
55846W        W22914  36.036  13.792  10.602
55847W        W22915  41.335  35.924  14.891
55848W        W22916  41.856  42.780   2.851
55849W        W22917  23.578  36.503   1.907
55850W        W22918  25.628  34.082  12.435
55851W        W22919  43.017  38.474   2.753
55852W        W22920   6.357  28.507  12.937
55853W        W22921  18.577  32.488  10.580
55854W        W22922  34.508  27.551  11.073
55855W        W22923  19.250  24.500   3.725
55856W        W22924  22.655  44.407   5.125
55857W        W22925  17.093  22.127   1.287
55858W        W22926  27.949   6.756  11.057
55859W        W22927  10.808  21.709   2.322
55860W        W22928   2.342  36.556   1.903
55861W        W22929  37.069  42.379  11.920
55862W        W22930  41.526   7.353   2.359
55863W        W22931  44.402  42.950   0.777
55864W        W22932  33.521  33.566   4.827
55865W        W22933  23.042   1.395  10.957
55866W        W22934  35.978  37.549   5.213
55867W        W22935   3.740  18.754  12.539
55868W        W22936   5.930  42.826  11.587
55869W        W22937  22.712  22.074   2.745
55870W        W22938  12.150  18.752  11.548
55871W        W22939  31.017  37.520  12.521
55872W        W22940  20.207  21.041  14.402
55873W        W22941   2.930  23.590  11.495
55874W        W22942   2.722  14.149  12.019
55875W        W22943   2.458  15.188  13.952
55876W        W22944   0.316  20.632  14.496
55877W        W22945  38.842  15.728  10.415
55878W        W22946  35.023  35.079   2.837
55879W        W22947  11.855  25.209  12.562
55880W        W22948  31.050  12.258  11.410
55881W        W22949  24.568  15.759   1.732
55882W        W22950  17.223  31.647  12.993
55883W        W22951  25.497   1.745   1.348
55884W        W22952  24.587  13.209   1.427
55885W        W22953  16.630  17.143  10.467
55886W        W22954   6.905  38.959  11.544
55887W        W22955   5.430   0.785   0.282
55888W        W22956   3.328   6.722  14.347
55889W        W22957  36.571  15.744  13.436
55890W        W22958  43.830  21.056  12.009
55891W        W22959  24.698   3.859  11.400
55892W        W22960  26.516   2.456   1.889
55893W        W22961  25.969  24.017   3.818
55894W        W22962  29.480   9.173   4.712
55895W        W22963  28.142  44.334   2.880
55896W        W22964  30.541   3.770  13.976
55897W        W22965   1.842  17.746  11.876
55898W        W22966   8.183  19.039  10.097
55899W        W22967  29.442  41.870   2.885
55900W        W22968  39.444  11.644  14.410
55901W        W22969  33.130   7.384   3.156
55902W        W22970   5.282  12.836   3.765
55903W        W22971  31.419   5.808  12.339
55904W        W22972  35.490  14.144   1.709
55905W        W22973  44.485  26.690  14.916
55906W        W22974  18.707  34.593  10.550
55907W        W22975  38.523  42.452   2.788
55908W        W22976  13.650  22.103   3.722
55909W        W22977  24.656   5.346  11.869
55910W        W22978  16.095  28.660   3.827
55911W        W22979  13.223   1.421   1.434
55912W        W22980   2.829  30.960   4.648
55913W        W22981  37.065  42.027   0.796
55914W        W22982  37.576  33.449   3.639
55915W        W22983  19.628   1.387   0.836
55916W        W22984  14.696  19.743  13.449
55917W        W22985  41.353  23.664  13.002
55918W        W22986  25.976  14.659  14.024
55919W        W22987  22.657   5.377  11.047
55920W        W22988  42.470  44.463   2.668
55921W        W22989  19.265  31.501   1.436
55922W        W22990  32.025  16.751  14.960
55923W        W22991   6.356  11.361  11.524
55924W        W22992  35.599  12.151   1.848
55925W        W22993  26.648  27.588  11.075
55926W        W22994   7.741  32.571  12.989
55927W        W22995  21.095  43.838  10.136
55928W        W22996  43.480  41.812  10.462
55929W        W22997  21.091  29.429   2.707
55930W        W22998  37.906  31.479   2.717
55931W        W22999  23.732  41.332  11.513
55932W        W23000  37.986  43.870   0.274
55933W        W23001  26.606  24.673   1.823
55934W        W23002   3.354  24.209  12.959
55935W        W23003  10.721   4.209  11.890
55936W        W23004  44.276  41.860  10.432
55937W        W23005  30.568  30.122  13.029
55938W        W23006   3.908  24.992  14.424
55939W        W23007  12.727   2.814   1.800
55940W        W23008  11.790  10.638  14.821
55941W        W23009  26.954   8.249  11.875
55942W        W23010   9.803  32.004  11.488
55943W        W23011   4.315  13.262   3.157
55944W        W23012  18.778  33.572  11.050
55945W        W23013  21.651  39.354   1.376
55946W        W23014  21.660  42.519   2.396
55947W        W23015   6.344  19.635   0.330
55948W        W23016   1.944   6.739   2.418
55949W        W23017  19.761  16.624  12.919
55950W        W23018  21.692   8.707   3.252
55951W        W23019  26.088  19.689   0.839
55952W        W23020  40.395  43.294   3.659
55953W        W23021  23.110  28.175  11.407
55954W        W23022  13.150  27.521  11.028
55955W        W23023  16.586  14.214   3.766
55956W        W23024  12.656  43.386  12.040
55957W        W23025  41.827  29.444  13.797
55958W        W23026   7.878   6.402   5.152
55959W        W23027  42.880  30.627  12.991
55960W        W23028   5.324  19.160   0.293
55961W        W23029   0.405  30.503  11.005
55962W        W23030  12.842  36.093   2.388
55963W        W23031  21.574  35.398   4.345
55964W        W23032   3.367  39.546   1.341
55965W        W23033  18.644   0.916   2.348
55966W        W23034  42.373  14.660  11.539
55967W        W23035   0.955   1.866  10.580
55968W        W23036  23.151  11.336   3.169
55969W        W23037  33.020  35.068  13.999
55970W        W23038  35.000   3.292  11.091
55971W        W23039  18.635  34.876   1.895
55972W        W23040  20.078  23.660  12.348
55973W        W23041  37.491  13.682  11.551
55974W        W23042  26.151   7.227  12.870
55975W        W23043  36.517  29.619  10.097
55976W        W23044  43.372  13.634   0.459
55977W        W23045   8.879   8.239   2.703
55978W        W23046   2.923  39.867   2.767
55979W        W23047  42.963  23.710   4.812
55980W        W23048  39.983  28.680  11.516
55981W        W23049  40.007  24.664  11.536
55982W        W23050  24.661  41.439  11.421
55983W        W23051   7.800   1.902  11.867
55984W        W23052   3.778   7.342  11.579
55985W        W23053  28.945  28.084  11.474
55986W        W23054  27.111  44.438  12.380
55987W        W23055  27.447  24.132  11.896
55988W        W23056  20.264  33.924  11.018
55989W        W23057  20.248   1.339   1.297
55990W        W23058  19.082  38.415   9.953
55991W        W23059  28.458   9.212   4.255
55992W        W23060  23.600  28.595  14.923
55993W        W23061  22.577  37.559   5.089
55994W        W23062  35.475  36.434   3.763
55995W        W23063  21.033  16.786   0.339
55996W        W23064  20.247  27.950  11.033
55997W        W23065  11.748   2.885  11.601
55998W        W23066  37.572  34.385  14.849
55999W        W23067  35.871   3.818  13.336
56000W        W23068  31.014  39.868   0.730
56001W        W23069   9.189   3.456  12.577
56002W        W23070   6.214  18.780  13.383
56003W        W23071  44.400  20.158   1.337
56004W        W23072  27.574  28.658   3.702
56005W        W23073  14.693  37.349   4.734
56006W        W23074  11.143  27.154   1.921
56007W        W23075  42.974  22.587   0.287
56008W        W23076  41.299  23.544   0.316
56009W        W23077  13.845  34.945  10.529
56010W        W23078  30.444  30.611  13.380
56011W        W23079  42.934  13.729  12.050
56012W        W23080  33.410  26.696  10.959
56013W        W23081  19.227  42.499   4.825
56014W        W23082  31.961  15.203   4.833
56015W        W23083  14.722  35.582   3.331
56016W        W23084  33.609  35.856  11.875
56017W        W23085   2.817  23.033   4.722
56018W        W23086  29.660  11.837  12.403
56019W        W23087  44.367  17.741  12.908
56020W        W23088  10.697  31.565  10.453
56021W        W23089  20.175  38.976   5.763
56022W        W23090  36.363  41.399   4.737
56023W        W23091  34.914   2.462  11.956
56024W        W23092  41.823  44.794   4.676
56025W        W23093  28.516  20.715   4.659
56026W        W23094   3.390  35.421  12.363
56027W        W23095  30.151  26.181  13.442
56028W        W23096   3.815  43.454   3.647
56029W        W23097  37.516  11.716  12.850
56030W        W23098  13.634  13.712  11.574
56031W        W23099  20.577   8.900  13.449
56032W        W23100   2.767  19.540  13.329
56033W        W23101  15.284  40.378  11.960
56034W        W23102  33.979   2.227  11.921
56035W        W23103   7.910   4.796   2.381
56036W        W23104  10.720   1.470   1.299
56037W        W23105  34.408  18.178   3.714
56038W        W23106  40.383   6.332   4.286
56039W        W23107  19.576  18.270  12.859
56040W        W23108  40.038  12.142  11.387
56041W        W23109  30.015  36.990  10.946
56042W        W23110  34.016  31.948  14.814
56043W        W23111   3.297  19.602  13.850
56044W        W23112  10.342  21.731   0.294
56045W        W23113  38.328   3.814   3.253
56046W        W23114  24.128  14.122   0.894
56047W        W23115  12.257  27.139   2.700
56048W        W23116   0.817  42.981   2.190
56049W        W23117  25.641  18.114   2.874
56050W        W23118  10.202  42.915   1.430
56051W        W23119  20.030  16.780   2.294
56052W        W23120  34.997   8.666   2.804
56053W        W23121  23.690  42.396   2.740
56054W        W23122  11.642  20.233  13.958
56055W        W23123  16.759  24.505   2.727
56056W        W23124  44.757  26.123  14.794
56057W        W23125  11.180  38.522  13.991
56058W        W23126  42.398  44.341  12.891
56059W        W23127  44.463  30.474  12.974
56060W        W23128  37.922   1.265   3.343
56061W        W23129  18.122  35.027  13.911
56062W        W23130   7.330  35.567  13.542
56063W        W23131   5.349  39.532   2.727
56064W        W23132  11.354  21.663  11.386
56065W        W23133   2.239  31.418  11.083
56066W        W23134  16.228  26.572   1.222
56067W        W23135  23.143  42.986   2.795
56068W        W23136  35.938  27.149  14.770
56069W        W23137  28.064   8.800  13.803
56070W        W23138   0.830  23.613  10.897
56071W        W23139  37.482  33.415  11.867
56072W        W23140  41.423  24.634   0.809
56073W        W23141  32.115  25.017  14.451
56074W        W23142   1.282  27.645   4.606
56075W        W23143  25.005  18.178   3.224
56076W        W23144  37.973  23.045  11.499
56077W        W23145  29.953  44.299   3.230
56078W        W23146   3.829  38.527   2.411
56079W        W23147  18.247  14.141  13.896
56080W        W23148  15.196  44.007   0.455
56081W        W23149  33.626  41.334  13.428
56082W        W23150  21.121  16.087  13.966
56083W        W23151   4.356   9.272   3.296
56084W        W23152  37.549  39.815   2.337
56085W        W23153   8.846  14.603   3.384
56086W        W23154  29.020  10.378  12.848
56087W        W23155   4.877  26.061   0.930
56088W        W23156   9.170   2.428  10.966
56089W        W23157  37.068   4.847   4.297
56090W        W23158  25.103  14.268   0.962
56091W        W23159  35.086   6.907   0.405
56092W        W23160  44.814  30.137   2.871
56093W        W23161   0.481  29.027  14.331
56094W        W23162  25.565  10.875   1.211
56095W        W23163  25.570   2.758  13.464
56096W        W23164  30.040  31.600  12.473
56097W        W23165  12.785   1.779   1.724
56098W        W23166  27.618  26.012   2.704
56099W        W23167   1.417   7.906   4.304
56100W        W23168  39.965  31.014   4.301
56101W        W23169   5.357  23.992  13.821
56102W        W23170   2.273  25.983  14.443
56103W        W23171  14.798   9.647   3.658
56104W        W23172  21.616  37.032  12.373
56105W        W23173  42.975  28.129  13.491
56106W        W23174  17.149  15.203  12.448
56107W        W23175   9.167  24.569  12.432
56108W        W23176   8.350  20.229  10.928
56109W        W23177  33.458  10.857   2.879
56110W        W23178   5.296  36.402   1.398
56111W        W23179   3.350   8.709  11.558
56112W        W23180  30.606  15.674   3.243
56113W        W23181  36.358  42.417   1.230
56114W        W23182  12.817  32.928   4.249
56115W        W23183  30.625  31.905   2.250
56116W        W23184  26.113  21.051   9.970
56117W        W23185  11.135  39.910  10.996
56118W        W23186  33.600  10.718  11.425
56119W        W23187  16.723   3.411   2.894
56120W        W23188  33.550   4.340  12.346
56121W        W23189  20.573   6.872  13.884
56122W        W23190   2.250  17.797  12.073
56123W        W23191  34.431   9.307  14.412
56124W        W23192  44.773  22.176  14.480
56125W        W23193  38.439  33.123   2.674
56126W        W23194  24.674  38.505   2.179
56127W        W23195   1.421  23.725  13.447
56128W        W23196  32.090  13.709  10.471
56129W        W23197   3.796   6.866  12.487
56130W        W23198  25.493  44.341  13.883
56131W        W23199  24.584   6.201   0.454
56132W        W23200  16.150  24.679   4.137
56133W        W23201  33.548   8.834  14.394
56134W        W23202  42.988  17.119   2.688
56135W        W23203  28.028  12.181  13.884
56136W        W23204  16.800  33.614  11.425
56137W        W23205  33.514  19.043  11.545
56138W        W23206  38.045  18.743  13.915
56139W        W23207  16.613  17.149  11.440
56140W        W23208  33.040  20.030  11.580
56141W        W23209  20.716  43.355   1.718
56142W        W23210  30.475   5.240  14.840
56143W        W23211   5.751  21.107  14.938
56144W        W23212  10.303   3.783  12.881
56145W        W23213  31.904  44.471  11.990
56146W        W23214  10.179  26.573  14.406
56147W        W23215   4.366   5.311   1.381
56148W        W23216  31.598   1.943   2.785
56149W        W23217  43.876  25.162  12.064
56150W        W23218  40.053   6.367   0.924
56151W        W23219  13.800  41.951   3.377
56152W        W23220  20.746  39.560   1.805
56153W        W23221  30.015   0.400   4.628
56154W        W23222  33.989   1.292  14.760
56155W        W23223   7.826  26.680  13.497
56156W        W23224   6.400  19.099   2.250
56157W        W23225  18.606  23.649  10.897
56158W        W23226  19.062  34.484   3.361
56159W        W23227  17.308  12.839   1.263
56160W        W23228  13.764  22.645   1.392
56161W        W23229  38.500   2.727   4.743
56162W        W23230   6.217  32.599  13.423
56163W        W23231   7.286  15.642  11.958
56164W        W23232  33.468  33.981  13.807
56165W        W23233  15.169  10.157  11.397
56166W        W23234  34.371  36.850   4.336
56167W        W23235  23.579  34.423  10.925
56168W        W23236   4.220  24.081  13.934
56169W        W23237   6.395  33.089  10.936
56170W        W23238  31.628  42.885  12.969
56171W        W23239  20.755  10.326   4.282
56172W        W23240   4.803  25.219  11.943
56173W        W23241  33.902  29.559   4.223
56174W        W23242  40.971  24.598  11.997
56175W        W23243   6.772  10.871  10.474
56176W        W23244   9.854  44.356  12.508
56177W        W23245  35.466   7.377  14.933
56178W        W23246  18.159  11.782  10.452
56179W        W23247  23.124  38.564   4.253
56180W        W23248  38.894   2.248   2.743
56181W        W23249   4.748  38.064   0.333
56182W        W23250  25.679  31.522  10.518
56183W        W23251   1.445  27.092  12.486
56184W        W23252  34.594   9.796  13.930
56185W        W23253  14.234  10.331   0.806
56186W        W23254   1.894  19.222   4.153
56187W        W23255  38.916  14.592   4.774
56188W        W23256  32.581  28.670   5.199
56189W        W23257  25.059  33.907  13.543
56190W        W23258  29.098  35.995  13.824
56191W        W23259  43.848   7.744  14.371
56192W        W23260  35.928   9.854  14.784
56193W        W23261  12.659  41.015   0.934
56194W        W23262  13.341  22.160  13.863
56195W        W23263  11.793   5.245   0.941
56196W        W23264  16.264  34.526  13.479
56197W        W23265  21.138   0.295   0.264
56198W        W23266   1.934  23.238  13.485
56199W        W23267   4.784  19.205  11.390
56200W        W23268  12.683  19.660  11.440
56201W        W23269  41.792  11.628  11.065
56202W        W23270   3.313  42.463   1.754
56203W        W23271  27.029   6.794   1.718
56204W        W23272  21.613  29.645   3.672
56205W        W23273  33.573   8.174  10.600
56206W        W23274  14.199  12.849   4.187
56207W        W23275  38.000   0.418   1.246
56208W        W23276  32.416  41.369   1.379
56209W        W23277   3.819   4.895  11.859
56210W        W23278  44.452   4.203  12.489
56211W        W23279  32.960   4.773  12.443
56212W        W23280  25.555  30.017  13.337
56213W        W23281  39.875  21.672   0.444
56214W        W23282  23.175  39.882   0.907
56215W        W23283  11.861   6.184   3.684
56216W        W23284   9.805  41.533  13.308
56217W        W23285   4.708   5.793   4.667
56218W        W23286   7.807  34.595  14.767
56219W        W23287   5.749  14.716   4.663
56220W        W23288  14.767  10.750  10.962
56221W        W23289  36.951  38.874   1.258
56222W        W23290  12.347  16.170   1.250
56223W        W23291  43.458  31.993   4.201
56224W        W23292  30.037  37.050   0.742
56225W        W23293  26.154  21.077  10.452
56226W        W23294  37.852  34.470  11.418
56227W        W23295  12.312   3.877   4.799
56228W        W23296  22.048  16.292   3.641
56229W        W23297  31.929  31.464   0.412
56230W        W23298  36.885  39.503  14.769
56231W        W23299  20.623  31.482  13.796
56232W        W23300  36.529  14.098  12.027
56233W        W23301  28.184   3.258  10.123
56234W        W23302   8.680  20.219  11.537
56235W        W23303  19.059  34.537   4.753
56236W        W23304  25.656  32.070  13.501
56237W        W23305   8.850  29.111   3.214
56238W        W23306  24.059  26.144  14.289
56239W        W23307  37.357  41.915  12.443
56240W        W23308  27.187  25.645  14.873
56241W        W23309  14.613  27.627  14.004
56242W        W23310  11.651  16.236  12.995
56243W        W23311  19.559  24.053   0.396
56244W        W23312   1.358  23.148   4.170
56245W        W23313  35.363  12.277  11.562
56246W        W23314   6.801  42.815   4.792
56247W        W23315  18.251  44.307  13.032
56248W        W23316   4.935  43.329   1.440
56249W        W23317  20.185  39.023  11.588
56250W        W23318  27.518  20.733   3.797
56251W        W23319   7.198  20.572   2.386
56252W        W23320   8.310   9.785  11.408
56253W        W23321   9.389  19.218  13.392
56254W        W23322  18.245  11.347   4.738
56255W        W23323   6.877  15.146  11.883
56256W        W23324  11.318  42.345  14.920
56257W        W23325  43.785  24.090   2.313
56258W        W23326  10.372  35.038  13.854
56259W        W23327  33.613  39.365   0.730
56260W        W23328  40.306  37.412   1.709
56261W        W23329  36.502  20.706   3.867
56262W        W23330  14.637  15.711   1.751
56263W        W23331  24.029  32.972  13.884
56264W        W23332  42.793  27.177  11.396
56265W        W23333  33.014  13.173  12.054
56266W        W23334  13.647  29.475   1.348
56267W        W23335  42.296  15.316  12.857
56268W        W23336   0.410  22.060   2.688
56269W        W23337   5.230  17.095   2.770
56270W        W23338  41.316  20.660   1.819
56271W        W23339   1.923  37.455  10.642
56272W        W23340  32.063  33.885  13.999
56273W        W23341  40.406   8.668  14.897
56274W        W23342  24.055  13.826  12.360
56275W        W23343  21.598   0.281  11.009
56276W        W23344   3.288   1.741   4.320
56277W        W23345  38.834   0.912  11.550
56278W        W23346  42.523  42.878  12.410
56279W        W23347   3.906  14.754   3.766
56280W        W23348   4.302  41.888  14.776
56281W        W23349  30.606   5.228   2.184
56282W        W23350   4.301  37.994  14.007
56283W        W23351   7.719  32.390  11.089
56284W        W23352   3.422  17.726   1.400
56285W        W23353  43.000  42.352   1.725
56286W        W23354   3.713  34.404  11.074
56287W        W23355  26.585  12.706  13.373
56288W        W23356   4.268  27.183   1.716
56289W        W23357  14.613  22.042   0.737
56290W        W23358  43.967  39.042  14.437
56291W        W23359  22.119  16.159  14.788
56292W        W23360  39.480  43.915   0.299
56293W        W23361  36.391  37.400  12.090
56294W        W23362  29.951  25.995   3.239
56295W        W23363  25.503  38.065   1.353
56296W        W23364  23.665  13.146  12.351
56297W        W23365  30.474  32.548   2.274
56298W        W23366  44.848  28.945  11.407
56299W        W23367  10.726  24.142  10.419
56300W        W23368   7.732  34.045  12.831
56301W        W23369  21.736  15.668   0.250
56302W        W23370  28.487  44.487  10.147
56303W        W23371  18.250  18.293   4.648
56304W        W23372   1.961  44.492  12.357
56305W        W23373   1.417  21.122  14.472
56306W        W23374  18.790   4.860   3.739
56307W        W23375  41.947  27.023   1.230
56308W        W23376   7.666  18.134  12.466
56309W        W23377  19.539  21.736   1.436
56310W        W23378  35.045  17.774   0.430
56311W        W23379  22.078  36.503   4.649
56312W        W23380  12.694  30.159  14.469
56313W        W23381  31.008  24.019  11.539
56314W        W23382  28.968  43.866  13.496
56315W        W23383   1.279   4.801   4.774
56316W        W23384  26.093  20.550   2.759
56317W        W23385  34.868  15.632  14.949
56318W        W23386  13.671  28.518  11.588
56319W        W23387  38.463  40.426   2.767
56320W        W23388   0.276  13.144   3.155
56321W        W23389  32.579  32.975  13.995
56322W        W23390  23.695  27.546  11.565
56323W        W23391  10.279   8.197   1.387
56324W        W23392  35.966   6.183  10.952
56325W        W23393  14.193   7.890  11.988
56326W        W23394  21.032  31.560   2.773
56327W        W23395  27.064  36.966  12.838
56328W        W23396  16.586  26.632   1.875
56329W        W23397  18.716  24.037   2.242
56330W        W23398  30.122  31.925  14.773
56331W        W23399  40.510  15.748  14.381
56332W        W23400  33.016  13.245  14.873
56333W        W23401  11.185  11.140  13.448
56334W        W23402  35.410  44.958   0.442
56335W        W23403  24.173  23.593   4.161
56336W        W23404   9.249  32.504   3.777
56337W        W23405  29.974  12.261   9.922
56338W        W23406   2.906  18.189   2.364
56339W        W23407   7.858  11.331   1.240
56340W        W23408  20.643  35.489  13.860
56341W        W23409  14.165  40.014   4.132
56342W        W23410  34.069   1.392  13.318
56343W        W23411   6.682   6.276  13.035
56344W        W23412   7.859  32.501   4.778
56345W        W23413  23.216  39.009   1.295
56346W        W23414   0.489  22.587  10.568
56347W        W23415  18.679  28.646   3.678
56348W        W23416  19.720  17.708   0.830
56349W        W23417  28.064  12.344   0.740
56350W        W23418  27.030  42.981  12.988
56351W        W23419   7.230  32.446   3.803
56352W        W23420  41.418   5.872  14.363
56353W        W23421  21.256   7.277  10.579
56354W        W23422  13.622  16.690  12.506
56355W        W23423  22.217  32.575  12.875
56356W        W23424  26.994  14.327   3.839
56357W        W23425  26.030  30.649  11.063
56358W        W23426  17.604  19.744  11.402
56359W        W23427  21.098  38.423   0.318
56360W        W23428  35.082  15.667   2.787
56361W        W23429  11.658  29.145  13.925
56362W        W23430  42.909   9.216  12.548
56363W        W23431   7.819   8.782  13.450
56364W        W23432  33.010  33.600  10.980
56365W        W23433  31.091  21.194   5.233
56366W        W23434  14.642  26.969   4.222
56367W        W23435  39.845  36.055  10.516
56368W        W23436   0.428  32.895   1.875
56369W        W23437  18.724  38.420  14.354
56370W        W23438  14.597  44.434   1.789
56371W        W23439  40.928   0.817   3.232
56372W        W23440  38.832   1.282  13.058
56373W        W23441   2.791  44.426  12.999
56374W        W23442   7.250  30.017   4.610
56375W        W23443  24.597   1.915   4.203
56376W        W23444   3.458  29.564   1.913
56377W        W23445  16.111  28.618  14.335
56378W        W23446  40.950   5.245  11.474
56379W        W23447  39.319   2.777   3.268
56380W        W23448   4.403  21.512   3.739
56381W        W23449  26.091  25.065  11.060
56382W        W23450  11.811  41.891  11.568
56383W        W23451   5.229  38.342   1.372
56384W        W23452   3.780  27.955   0.943
56385W        W23453  13.686  41.398   4.134
56386W        W23454  39.858   2.344   0.317
56387W        W23455   9.271  37.070  11.064
56388W        W23456   4.392  42.963  12.413
56389W        W23457  22.118  33.999   3.189
56390W        W23458  15.705   3.310  13.882
56391W        W23459   1.440   4.923  13.932
56392W        W23460  35.055   9.878   0.739
56393W        W23461  34.079   1.935   2.873
56394W        W23462  22.098  15.300  12.928
56395W        W23463  20.118   4.865  11.481
56396W        W23464  31.045  10.809  10.569
56397W        W23465   9.203  41.472   1.440
56398W        W23466  16.172   7.862  11.604
56399W        W23467   8.660  38.327   3.349
56400W        W23468  21.030   3.414   0.277
56401W        W23469  26.179  19.635   2.185
56402W        W23470  19.065  35.488   1.408
56403W        W23471  42.870  21.747   1.406
56404W        W23472  23.667  22.609  14.788
56405W        W23473  16.779  42.411  13.880
56406W        W23474   6.758  12.275   2.837
56407W        W23475  18.148  33.075  12.526
56408W        W23476  35.558  34.945  13.853
56409W        W23477  15.674  27.166   4.624
56410W        W23478  40.415  19.637   2.306
56411W        W23479  38.934  10.788   4.194
56412W        W23480  12.350   3.345   1.360
56413W        W23481  42.422  19.627  13.005
56414W        W23482  40.372  27.163  13.872
56415W        W23483  23.558  37.069  11.032
56416W        W23484  43.775  22.734  12.531
56417W        W23485  36.346  17.145   0.321
56418W        W23486  44.279  22.571   1.255
56419W        W23487  43.507  28.634   4.289
56420W        W23488  10.356  43.331   0.794
56421W        W23489  13.244  43.399  13.965
56422W        W23490  44.978  19.549   0.954
56423W        W23491   0.372  25.006   2.393
56424W        W23492  44.794  25.149   4.155
56425W        W23493  31.437  40.322  11.007
56426W        W23494  43.351  40.031  12.073
56427W        W23495  43.486  27.973  14.819
56428W        W23496  30.076  42.784   0.376
56429W        W23497  15.698  22.585  13.367
56430W        W23498   0.272  22.515  13.402
56431W        W23499   7.783   8.279   2.729
56432W        W23500  37.511  34.606   1.328
56433W        W23501  42.486  17.254  14.947
56434W        W23502   0.883   6.905  10.622
56435W        W23503  30.623  27.118  13.466
56436W        W23504   3.450   4.340   2.800
56437W        W23505   7.294   6.812  13.032
56438W        W23506  28.558  14.212  14.377
56439W        W23507   7.224  33.956   3.663
56440W        W23508  25.705  26.953   2.192
56441W        W23509  38.417  30.988  10.966
56442W        W23510  34.879  32.100  11.022
56443W        W23511  34.377  16.217  13.021
56444W        W23512   8.207   3.324  12.933
56445W        W23513  14.278  12.722   1.325
56446W        W23514  39.053  31.093   3.221
56447W        W23515   9.814  44.318  14.478
56448W        W23516  21.552  17.258  11.421
56449W        W23517  17.679  40.322   1.319
56450W        W23518   1.313  24.075   0.860
56451W        W23519  41.802  10.312  12.986
56452W        W23520  26.550  37.539  10.581
56453W        W23521  36.591  28.658   4.773
56454W        W23522  38.391  33.888  13.474
56455W        W23523  36.544  19.257   2.405
56456W        W23524  42.382  36.908  11.396
56457W        W23525  28.006   9.792  12.839
56458W        W23526  13.226  33.893  11.863
56459W        W23527  22.677  28.135  11.466
56460W        W23528   1.341  14.753  13.821
56461W        W23529   7.749  25.690  13.923
56462W        W23530   4.264  14.689  14.921
56463W        W23531  44.772  15.590   0.833
56464W        W23532  32.588   3.894   0.254
56465W        W23533  23.060  41.021  13.945
56466W        W23534  28.437  14.201   3.630
56467W        W23535  16.645  25.979  11.984
56468W        W23536  12.204  11.304  13.953
56469W        W23537   2.402  10.352  13.842
56470W        W23538  15.107  33.009   2.780
56471W        W23539  10.815   6.916   2.793
56472W        W23540  43.324   9.300   3.355
56473W        W23541  19.149  17.587  10.447
56474W        W23542  38.956  40.333   2.728
56475W        W23543  16.797  33.454  13.058
56476W        W23544  21.029  19.108   1.761
56477W        W23545  34.910  26.571   1.323
56478W        W23546  10.350  38.456  12.067
56479W        W23547  27.538  23.150   0.460
56480W        W23548   0.399  44.935  11.092
56481W        W23549  31.512  32.995   5.193
56482W        W23550  42.929  24.523   1.752
56483W        W23551  10.319  23.085  11.858
56484W        W23552  23.076  39.997  13.514
56485W        W23553  17.075  13.753  13.891
56486W        W23554  33.881  11.683   1.263
56487W        W23555  25.968   2.412  14.465
56488W        W23556   4.397  15.779  14.931
56489W        W23557   3.352  42.017  13.359
56490W        W23558  27.040  39.372   0.303
56491W        W23559   4.931  17.110   1.246
56492W        W23560  14.222  36.889  11.541
56493W        W23561  20.614  36.860   0.756
56494W        W23562  16.796  16.172   1.414
56495W        W23563  28.563  15.631  13.857
56496W        W23564   6.771  25.610   1.896
56497W        W23565  12.856  19.079  14.016
56498W        W23566  22.625   1.305   4.333
56499W        W23567   7.329  35.906   1.906
56500W        W23568   1.770  36.577  13.974
56501W        W23569  10.316  33.507   2.763
56502W        W23570  29.529  21.678  10.939
56503W        W23571  42.915  19.050  10.558
56504W        W23572  22.084  17.671   2.768
56505W        W23573   6.335  31.924   0.243
56506W        W23574  20.562  17.616  13.961
56507W        W23575   9.861   7.772   0.312
56508W        W23576  25.142  39.498   4.804
56509W        W23577  23.071  12.250   1.735
56510W        W23578  14.627   4.309  12.395
56511W        W23579  30.101   7.237  14.786
56512W        W23580  39.973  44.844  12.453
56513W        W23581  25.008  20.251   1.294
56514W        W23582   5.772   8.882   2.253
56515W        W23583  44.391  43.775  12.473
56516W        W23584   9.786   5.890  13.326
56517W        W23585  40.812  29.557   4.804
56518W        W23586  35.517  14.828  13.855
56519W        W23587  41.374  40.831   1.422
56520W        W23588  26.051  36.968  10.412
56521W        W23589  30.578  10.251   3.830
56522W        W23590  35.028   9.849  13.393
56523W        W23591   4.326  21.709  14.468
56524W        W23592  41.339  29.157  11.971
56525W        W23593  26.525   3.856   2.204
56526W        W23594  39.533   7.268   4.714
56527W        W23595   2.468   3.852   2.317
56528W        W23596  40.380   2.441   0.440
56529W        W23597   7.669  11.757   2.681
56530W        W23598  41.393   9.885   1.835
56531W        W23599   1.481  33.537   0.264
56532W        W23600  20.192  40.379  14.298
56533W        W23601  31.015   8.245   2.666
56534W        W23602  41.013  17.571   2.805
56535W        W23603  17.258   6.826  11.418
56536W        W23604  36.376  42.492   4.263
56537W        W23605  25.514  44.309   3.718
56538W        W23606  16.192  28.930  14.003
56539W        W23607  37.476  44.444   5.272
56540W        W23608  32.492  37.380  10.629
56541W        W23609   1.393  18.097  11.439
56542W        W23610  37.447  21.162  10.619
56543W        W23611  23.722  29.579   2.367
56544W        W23612  34.098  34.467  13.442
56545W        W23613  28.168  35.372  14.304
56546W        W23614  21.699  29.587  14.832
56547W        W23615  11.309  39.920  12.563
56548W        W23616  38.406  24.112  11.879
56549W        W23617  42.407   9.696  10.965
56550W        W23618   5.203  13.108   4.305
56551W        W23619   3.857  17.197   2.826
56552W        W23620   5.873  21.555  11.545
56553W        W23621  17.770  23.588  10.448
56554W        W23622  44.391   3.274   4.778
56555W        W23623  43.312  33.522  14.802
56556W        W23624  26.521  23.029   4.619
56557W        W23625   5.290   2.278   0.373
56558W        W23626  12.632  36.882  11.951
56559W        W23627   0.838  16.136  14.001
56560W        W23628  43.825   9.738  13.353
56561W        W23629  42.014  30.074  11.475
56562W        W23630  38.820  31.123  12.437
56563W        W23631   7.897  41.039   2.199
56564W        W23632  29.450  30.036   0.426
56565W        W23633  32.618  12.741   1.793
56566W        W23634   4.787  13.189   4.192
56567W        W23635  39.552   1.838  11.600
56568W        W23636  42.499   3.745  11.107
56569W        W23637  35.494   1.374   2.804
56570W        W23638  29.963  19.744   3.655
56571W        W23639  39.849  24.150   0.287
56572W        W23640   8.695  14.832   3.744
56573W        W23641  32.430   8.170   0.413
56574W        W23642  15.642  21.242   2.867
56575W        W23643  37.467  32.952  10.614
56576W        W23644   7.903  17.297  11.076
56577W        W23645  20.161   8.809   1.398
56578W        W23646  25.174  14.226  11.566
56579W        W23647  39.446  41.469   1.836
56580W        W23648  18.117   5.282  10.565
56581W        W23649   0.790  34.095   0.740
56582W        W23650  44.902  12.842   1.781
56583W        W23651  37.885  42.353   1.764
56584W        W23652  11.218  15.211  10.913
56585W        W23653  23.184   6.323  13.522
56586W        W23654   8.837  18.072   1.223
56587W        W23655   6.713   4.945  14.310
56588W        W23656   8.866  15.210   4.136
56589W        W23657   4.881  42.033   2.285
56590W        W23658  25.138  34.002  14.835
56591W        W23659   7.832  21.612   0.878
56592W        W23660   3.332  34.568   3.768
56593W        W23661  25.983  44.965   0.310
56594W        W23662  19.705   3.733  14.422
56595W        W23663  10.151  39.467   2.796
56596W        W23664  31.038  44.409  13.492
56597W        W23665  14.694   0.360   1.851
56598W        W23666   7.809  35.532   1.822
56599W        W23667  33.921  43.498   2.402
56600W        W23668  37.893  12.259   2.832
56601W        W23669  18.125  24.034  10.519
56602W        W23670  39.812  32.533  12.458
56603W        W23671  24.694   4.442   4.181
56604W        W23672  37.526  38.062  12.063
56605W        W23673   5.194   9.182   2.869
56606W        W23674  11.305  11.313   2.851
56607W        W23675  14.653   4.375   4.172
56608W        W23676  23.095  29.100  11.425
56609W        W23677  40.812  10.787  11.590
56610W        W23678  24.001  11.709   0.293
56611W        W23679  17.698  32.590   0.750
56612W        W23680  42.474  16.120  12.928
56613W        W23681  33.425   8.677  13.456
56614W        W23682  33.013   7.714  13.427
56615W        W23683   0.825  30.089  10.104
56616W        W23684  42.776  40.949   2.890
56617W        W23685  34.412  38.031  12.455
56618W        W23686  25.077  38.430   4.616
56619W        W23687  34.098  22.686  12.355
56620W        W23688  24.997  11.198   1.296
56621W        W23689   6.418  32.953  15.000
56622W        W23690  36.461  40.021  13.414
56623W        W23691  18.273  10.310  13.370
56624W        W23692  20.038  28.612  14.830
56625W        W23693  20.234  28.623  10.064
56626W        W23694   5.932  10.279  14.293
56627W        W23695  19.207  26.087  14.410
56628W        W23696  18.285  16.714   4.819
56629W        W23697   7.267  35.006  13.986
56630W        W23698  37.353   8.209  12.579
56631W        W23699   1.359  12.851  10.542
56632W        W23700   3.783  36.423  14.300
56633W        W23701  31.145  13.226   2.362
56634W        W23702  35.439  28.626   3.727
56635W        W23703  39.551  32.434  12.552
56636W        W23704   6.679  28.040  14.765
56637W        W23705  14.134  15.166  14.478
56638W        W23706  40.918   6.850  11.458
56639W        W23707  32.017  21.123   2.398
56640W        W23708   4.326  29.518   4.193
56641W        W23709  41.922   1.849   0.914
56642W        W23710  41.315  32.060  12.089
56643W        W23711  12.275  12.242   3.189
56644W        W23712  40.884  14.337   4.604
56645W        W23713  34.426   1.919   2.746
56646W        W23714  14.800   1.772  10.120
56647W        W23715  11.297  23.645   4.117
56648W        W23716  25.194  15.652  12.013
56649W        W23717   3.282  25.079  11.527
56650W        W23718  18.194  19.059  13.504
56651W        W23719  16.222  16.691   1.286
56652W        W23720  29.593  34.871   5.766
56653W        W23721  15.210   6.413   2.242
56654W        W23722   4.752   5.348   3.868
56655W        W23723  40.401   5.206  12.958
56656W        W23724  31.089   7.236  10.012
56657W        W23725  35.396  30.608   2.847
56658W        W23726  12.337  32.010  10.987
56659W        W23727   7.706   6.315  14.352
56660W        W23728  11.700  16.809   3.221
56661W        W23729  37.842  42.442  11.385
56662W        W23730  26.166   9.752   0.839
56663W        W23731  32.517  17.769  10.950
56664W        W23732   1.239  36.086   1.705
56665W        W23733  21.072  34.971  12.345
56666W        W23734   6.242  37.375   2.389
56667W        W23735  39.376  33.622   1.827
56668W        W23736  14.693  42.436   4.326
56669W        W23737  20.159  13.192  11.914
56670W        W23738   2.227  12.176   0.409
56671W        W23739  19.594  17.667  11.450
56672W        W23740  26.036  18.593   0.434
56673W        W23741  20.222  23.209  11.405
56674W        W23742  36.437  22.157   0.927
56675W        W23743  29.623   7.764   0.274
56676W        W23744  44.941  10.800   1.787
56677W        W23745  42.027  33.010   0.946
56678W        W23746  14.327  17.193   2.348
56679W        W23747  26.187  13.347  10.904
56680W        W23748  23.044   3.425  13.424
56681W        W23749   2.906   9.194  11.505
56682W        W23750  26.185  29.938  12.976
56683W        W23751   0.789  24.163  11.389
56684W        W23752  21.034  28.522  13.021
56685W        W23753  14.680   6.739   1.386
56686W        W23754   9.186  11.301   0.934
56687W        W23755  12.292  37.943   0.727
56688W        W23756  21.675   5.231   2.700
56689W        W23757  34.905  12.247  13.372
56690W        W23758  16.688  41.025  12.517
56691W        W23759   4.732  31.094   1.280
56692W        W23760  26.199  40.809  14.029
56693W        W23761  35.024  21.023   3.380
56694W        W23762  44.927  41.371   1.236
56695W        W23763  21.247  36.469   2.326
56696W        W23764  31.093  20.259   0.865
56697W        W23765  20.619   1.425   0.790
56698W        W23766   3.420  31.486   0.877
56699W        W23767  21.063   6.891  13.380
56700W        W23768  12.297  27.571   4.332
56701W        W23769  44.951   3.813  14.493
56702W        W23770  25.206   4.701   3.264
56703W        W23771  14.816  32.916   1.446
56704W        W23772   5.892  15.292   1.442
56705W        W23773  38.400   4.841   2.841
56706W        W23774  20.153   0.819   4.345
56707W        W23775   7.317  31.083  14.414
56708W        W23776  10.829   1.239   0.468
56709W        W23777  25.008   2.257  11.110
56710W        W23778  19.534  37.900  14.421
56711W        W23779   7.828  28.655   0.837
56712W        W23780  38.043  32.914   0.464
56713W        W23781  34.424  31.597   2.396
56714W        W23782  23.733   9.836   1.894
56715W        W23783  24.005  36.018  10.946
56716W        W23784  21.041  34.043   0.792
56717W        W23785  30.502  35.971  12.856
56718W        W23786  43.005  31.639   0.282
56719W        W23787  16.202  19.116  12.393
56720W        W23788  39.329  26.460   4.354
56721W        W23789  13.735  33.972  14.804
56722W        W23790  19.262   0.409   0.796
56723W        W23791  13.254  22.566   4.761
56724W        W23792  17.568  25.615   0.347
56725W        W23793   8.160  30.651   0.374
56726W        W23794  23.170   7.284  13.061
56727W        W23795  16.571  26.583  14.009
56728W        W23796  12.700   4.856   1.377
56729W        W23797   5.761   8.660   5.142
56730W        W23798  42.369   7.715  13.325
56731W        W23799  12.808  35.423  10.955
56732W        W23800  29.003  36.469  14.495
56733W        W23801  32.452  31.953  12.575
56734W        W23802  24.538  14.264   2.683
56735W        W23803  10.793  44.788  13.452
56736W        W23804  11.205   6.735   0.457
56737W        W23805  34.957  22.150   2.691
56738W        W23806  11.152   1.825   5.202
56739W        W23807   7.220  32.393  11.453
56740W        W23808  39.930  42.326   1.346
56741W        W23809   1.459  42.831   3.692
56742W        W23810  17.795   0.315  14.802
56743W        W23811  14.619  35.595  10.484
56744W        W23812  12.251   1.348  14.025
56745W        W23813   2.364   8.868   2.822
56746W        W23814  41.855  15.205   4.816
56747W        W23815  26.148  24.637  14.828
56748W        W23816   6.187  25.578  11.097
56749W        W23817   4.401  20.048  13.364
56750W        W23818  10.703   1.473   0.911
56751W        W23819  33.473  44.858   2.678
56752W        W23820   8.661  15.083   2.291
56753W        W23821  35.060  21.111   2.226
56754W        W23822  20.037  26.655   1.280
56755W        W23823  11.824  30.082  11.397
56756W        W23824  15.584  27.669   2.311
56757W        W23825   9.673   6.329   1.840
56758W        W23826  24.708  38.032   2.375
56759W        W23827  43.383  26.553   0.309
56760W        W23828  13.144  41.899   0.378
56761W        W23829  21.083  39.838   4.618
56762W        W23830  31.148  10.862  14.784
56763W        W23831  34.456  41.397   0.835
56764W        W23832  42.928  34.536   2.385
56765W        W23833   7.677  34.923  11.097
56766W        W23834  34.422  10.857   1.251
56767W        W23835  37.487   0.460   2.308
56768W        W23836  22.672   0.887   1.884
56769W        W23837  28.463  37.972   4.609
56770W        W23838  31.519  34.058  14.437
56771W        W23839  11.340  15.785   3.820
56772W        W23840  32.903  33.881  10.559
56773W        W23841  14.175  18.215  10.576
56774W        W23842  36.022  25.687   5.203
56775W        W23843  25.549  15.712   2.330
56776W        W23844  17.163  44.360  10.987
56777W        W23845  39.530  42.400   4.278
56778W        W23846  40.959  32.947  11.477
56779W        W23847  42.869  40.982   4.653
56780W        W23848  25.074  44.005   3.662
56781W        W23849  11.709  36.357   0.804
56782W        W23850  24.065  27.129  10.472
56783W        W23851  30.468  10.860   2.325
56784W        W23852  23.239  19.267   1.758
56785W        W23853  42.412  42.520  11.874
56786W        W23854  13.286  31.962   5.166
56787W        W23855   5.432  12.660   0.414
56788W        W23856  18.194  37.895  11.909
56789W        W23857   6.777  19.146   1.378
56790W        W23858  39.334  41.509  12.437
56791W        W23859  15.788  29.961   2.367
56792W        W23860  44.501  44.802  12.878
56793W        W23861  16.248  29.123   2.896
56794W        W23862  33.964  29.970  13.392
56795W        W23863  25.651   4.851  12.551
56796W        W23864  11.723  27.598  12.359
56797W        W23865  35.974  14.735  12.443
56798W        W23866   7.239   7.221  14.794
56799W        W23867  43.477  39.954  13.986
56800W        W23868  23.535  14.243  11.975
56801W        W23869   1.387  20.682   1.876
56802W        W23870  11.676  25.655  10.495
56803W        W23871  21.114   3.836  12.050
56804W        W23872  33.125   5.207   2.271
56805W        W23873   5.778  27.670  11.117
56806W        W23874  28.963  44.007  13.930
56807W        W23875  18.662  23.592  14.453
56808W        W23876  12.148   8.238  10.595
56809W        W23877   1.818  29.427  10.589
56810W        W23878  43.875  23.161   4.154
56811W        W23879  24.527  28.451   1.703
56812W        W23880  29.586  31.480  11.937
56813W        W23881  40.489  15.635   2.700
56814W        W23882  36.552  44.427  10.573
56815W        W23883  20.716  20.204  13.887
56816W        W23884  19.122  16.190   4.250
56817W        W23885   8.840  44.489   4.792
56818W        W23886  35.953  44.006  12.057
56819W        W23887   0.335  25.062   4.714
56820W        W23888  18.758  33.467   0.736
56821W        W23889  17.220  41.488  10.561
56822W        W23890  19.578  29.021   1.908
56823W        W23891  43.835   9.667   0.785
56824W        W23892  40.889   9.650   4.264
56825W        W23893  23.665   3.377   4.814
56826W        W23894  21.596  31.053   4.692
56827W        W23895   4.271  13.186   0.256
56828W        W23896  15.295  32.421   2.245
56829W        W23897   3.837  26.156  13.977
56830W        W23898  15.242   5.704   2.314
56831W        W23899   3.433   9.704   3.246
56832W        W23900  14.248   8.769  11.380
56833W        W23901  36.986  30.442   0.943
56834W        W23902  38.874   0.983  12.575
56835W        W23903  21.721  11.812   1.867
56836W        W23904   2.441  14.285  11.476
56837W        W23905  42.383  13.325   2.325
56838W        W23906  22.078   6.720   4.153
56839W        W23907   2.466  43.439   2.383
56840W        W23908  13.234   6.326  14.956
56841W        W23909   4.290  25.010  13.034
56842W        W23910  44.976   1.911  13.924
56843W        W23911  30.583  23.095   4.835
56844W        W23912  17.670   7.841  11.483
56845W        W23913   2.386   1.845  13.476
56846W        W23914   7.800   7.826   3.184
56847W        W23915   3.400  33.896  11.020
56848W        W23916  13.655   0.759  10.620
56849W        W23917  18.274  15.242  10.518
56850W        W23918  14.260  13.259   4.154
56851W        W23919   5.243  40.962   4.342
56852W        W23920  42.513  11.689   2.876
56853W        W23921  14.210  18.544  13.807
56854W        W23922   3.434   2.280  11.101
56855W        W23923  35.603  42.881   2.764
56856W        W23924   5.854  17.755   2.408
56857W        W23925   5.386  17.175   5.169
56858W        W23926  10.852  26.106  10.411
56859W        W23927  16.743   1.352  12.531
56860W        W23928  29.603   6.846  10.983
56861W        W23929  33.452  28.108  14.315
56862W        W23930   9.794  15.755   2.344
56863W        W23931  37.448  43.505   0.280
56864W        W23932  26.653  21.022  11.872
56865W        W23933  33.493  41.836  14.389
56866W        W23934  25.699  14.678  11.084
56867W        W23935  26.637  33.936  14.879
56868W        W23936   2.413   3.897   2.809
56869W        W23937  10.738  28.509  14.029
56870W        W23938  15.803  27.014  14.870
56871W        W23939  38.860  40.305   0.416
56872W        W23940  35.520   6.242  11.389
56873W        W23941  44.366  26.689   4.331
56874W        W23942   0.959  26.617   2.182
56875W        W23943   4.277  42.926  11.071
56876W        W23944   9.378   8.681   3.657
56877W        W23945  12.285   5.692   2.733
56878W        W23946  37.475  31.489   2.832
56879W        W23947   8.726  31.059  12.576
56880W        W23948  25.218  16.645   2.681
56881W        W23949  44.960  12.335  13.436
56882W        W23950   0.447  30.129   0.274
56883W        W23951  11.794  23.075   3.173
56884W        W23952  43.441  14.099   3.748
56885W        W23953  37.429   1.751   3.669
56886W        W23954  35.365  15.579   3.187
56887W        W23955  11.780  23.214  12.400
56888W        W23956   0.466  44.293  13.542
56889W        W23957  17.685  44.379  13.023
56890W        W23958  31.622   9.811  13.039
56891W        W23959  35.516  26.560   0.344
56892W        W23960  43.959  18.770   0.318
56893W        W23961  41.915   3.401   0.433
56894W        W23962  30.442  39.984   4.159
56895W        W23963  21.129  15.109   5.180
56896W        W23964  31.416  18.263   4.264
56897W        W23965  38.368  38.934  14.967
56898W        W23966   5.714   0.881  13.384
56899W        W23967  22.590  10.657  13.955
56900W        W23968   3.857  40.855  12.388
56901W        W23969  42.893  16.687  14.882
56902W        W23970   3.385  24.492  12.055
56903W        W23971  27.188  32.062  12.087
56904W        W23972  36.021   2.467  11.054
56905W        W23973  27.562   0.347  12.932
56906W        W23974  23.501  42.933   0.889
56907W        W23975   9.715  20.558  14.323
56908W        W23976  39.916  20.657   1.238
56909W        W23977  20.074  30.134  14.765
56910W        W23978   1.787  13.184  10.491
56911W        W23979  43.344   9.786   0.751
56912W        W23980  13.817   8.340   2.183
56913W        W23981  32.046  40.383  11.051
56914W        W23982  26.539  30.584  13.361
56915W        W23983  40.842  33.492   4.228
56916W        W23984  12.644  10.734   2.700
56917W        W23985  35.367  34.506  14.760
56918W        W23986   5.395  44.336  11.511
56919W        W23987   4.916  30.038   0.303
56920W        W23988  42.022  17.088   4.337
56921W        W23989  13.253  41.533  12.485
56922W        W23990  26.052  37.362   5.249
56923W        W23991  16.159  32.950   3.179
56924W        W23992  33.405  24.052  14.372
56925W        W23993  40.811   7.764   3.763
56926W        W23994  20.724  25.620   2.809
56927W        W23995  23.673  31.949  14.477
56928W        W23996  34.548   8.379   0.872
56929W        W23997  18.250  19.769  14.377
56930W        W23998  11.330  13.827  12.943
56931W        W23999  30.613   4.938  11.559
56932W        W24000  16.207  36.996   4.238
56933W        W24001  15.329   5.893  12.071
56934W        W24002  30.935   8.371   3.254
56935W        W24003  26.461  21.737   1.243
56936W        W24004  39.015  19.591  14.285
56937W        W24005  13.254  11.663  11.425
56938W        W24006  17.569  36.984   0.747
56939W        W24007  18.767  24.123  14.923
56940W        W24008  12.219  14.221  11.610
56941W        W24009  23.207  41.322   2.345
56942W        W24010   1.332  37.454   1.741
56943W        W24011  21.186  14.300  10.924
56944W        W24012  31.475  42.973  12.011
56945W        W24013   5.370  15.664   0.741
56946W        W24014  27.029  11.693  14.847
56947W        W24015  41.359  30.100   0.326
56948W        W24016  20.744  42.324  14.839
56949W        W24017  40.866  28.065  14.928
56950W        W24018   7.384  13.330   2.761
56951W        W24019   9.807  11.325  13.860
56952W        W24020   7.792  19.728   1.428
56953W        W24021  25.090  18.564  13.791
56954W        W24022  24.629  23.037   4.243
56955W        W24023   2.963  29.598  10.566
56956W        W24024   1.299   6.313   3.368
56957W        W24025   2.902  36.896  14.902
56958W        W24026   1.314  30.021  13.954
56959W        W24027  26.572   5.428  13.051
56960W        W24028  33.510  23.710  12.523
56961W        W24029   5.837  17.734   2.892
56962W        W24030   5.855  35.901   3.762
56963W        W24031  14.205  25.713   3.357
56964W        W24032   3.261  10.731  11.466
56965W        W24033   5.337  27.559  11.019
56966W        W24034   3.333  30.934   0.917
56967W        W24035  39.062  11.802   2.188
56968W        W24036  41.836  16.774  10.599
56969W        W24037   2.758  18.265  13.387
56970W        W24038  32.607   8.165  14.338
56971W        W24039  32.114  27.537  13.364
56972W        W24040  21.755   6.744   2.247
56973W        W24041   7.830  32.911  10.621
56974W        W24042  21.223   4.206   4.833
56975W        W24043  11.758  34.554   3.373
56976W        W24044   2.229  16.221  12.905
56977W        W24045  43.785  40.466  13.354
56978W        W24046  19.705  32.114  14.429
56979W        W24047   1.816  38.441   2.678
56980W        W24048  12.782  14.676   4.242
56981W        W24049   5.792   1.924   2.783
56982W        W24050  12.648  23.634  13.953
56983W        W24051  23.049  10.705   3.658
56984W        W24052  11.788  44.005   4.286
56985W        W24053  37.050  15.707   0.896
56986W        W24054  26.484  30.130   4.833
56987W        W24055  29.443   3.323   4.813
56988W        W24056   4.739  31.468   3.186
56989W        W24057  39.979  35.455  14.960
56990W        W24058  28.436  16.699  12.517
56991W        W24059   5.831  26.666  13.944
56992W        W24060  13.239  34.863   3.769
56993W        W24061  24.077  10.844  14.365
56994W        W24062   3.331  25.155   0.317
56995W        W24063   1.425  22.722  14.447
56996W        W24064  16.795  14.221   2.837
56997W        W24065  26.500  42.892   1.419
56998W        W24066  19.114   7.273  10.951
56999W        W24067  33.461  26.662   0.243
57000W        W24068   9.347  34.067  14.928
57001W        W24069   3.907  22.150  10.474
57002W        W24070   4.878  11.363   0.932
57003W        W24071  11.757   5.211  11.419
57004W        W24072  23.527  26.965   3.788
57005W        W24073   3.809  36.050  13.345
57006W        W24074  29.499   7.896   4.318
57007W        W24075  23.612  35.447   1.716
57008W        W24076  28.618   1.449   4.299
57009W        W24077  18.617  24.656   3.379
57010W        W24078  17.754   2.387  11.396
57011W        W24079  13.636  30.105  14.014
57012W        W24080  31.075  36.953  14.347
57013W        W24081  33.502  37.065  13.885
57014W        W24082   6.707  24.066  10.626
57015W        W24083  19.690  36.441  14.397
57016W        W24084  32.089  39.435   4.245
57017W        W24085  19.130  25.713  14.857
57018W        W24086   1.851   8.344  13.880
57019W        W24087  21.568  32.131  11.017
57020W        W24088  32.468   8.763  12.397
57021W        W24089  40.537  10.245   5.157
57022W        W24090   4.437  24.677   3.364
57023W        W24091  17.564  29.537   1.256
57024W        W24092  25.494   0.955  10.926
57025W        W24093  11.770  35.026  14.931
57026W        W24094  19.238  33.421  13.436
57027W        W24095   2.322   2.815  11.979
57028W        W24096  29.544  23.110   0.733
57029W        W24097  39.962   3.406   2.405
57030W        W24098  21.186  40.366  12.848
57031W        W24099   9.675   2.800  14.312
57032W        W24100   5.865   8.884  14.454
57033W        W24101  27.629   1.733   4.172
57034W        W24102  11.771  27.077  14.969
57035W        W24103  10.374  24.184  13.376
57036W        W24104  38.927  17.135  10.157
57037W        W24105   9.681  21.050   4.171
57038W        W24106  15.823  11.782  10.935
57039W        W24107  19.120   5.220   3.321
57040W        W24108  38.491  37.366   4.683
57041W        W24109   1.873  21.620   1.373
57042W        W24110  35.544   4.900  12.003
57043W        W24111  32.088  13.334  13.460
57044W        W24112  16.091  22.123   1.928
57045W        W24113  20.605  14.272   0.357
57046W        W24114  33.982  26.648   4.259
57047W        W24115   1.828  31.905   0.755
57048W        W24116  14.738  38.416   2.202
57049W        W24117  12.810  27.069  14.405
57050W        W24118  22.611  13.761   4.177
57051W        W24119  16.804  34.503  13.928
57052W        W24120  36.001  26.603  14.379
57053W        W24121  30.915  16.658   9.507
57054W        W24122  35.908  10.316  10.922
57055W        W24123  19.645   5.353   4.160
57056W        W24124  17.592  32.502   0.267
57057W        W24125  36.070  43.402   3.708
57058W        W24126  10.652  39.002   4.328
57059W        W24127  34.435  40.848   2.836
57060W        W24128  36.942  29.576   3.244
57061W        W24129  37.862  21.100  14.468
57062W        W24130  12.804  23.567   2.684
57063W        W24131  13.285  19.700  12.895
57064W        W24132  10.274  18.100   0.883
57065W        W24133   8.827  10.821   4.261
57066W        W24134  40.022   5.310   0.469
57067W        W24135  17.143  11.151  10.558
57068W        W24136  29.043  31.577  10.549
57069W        W24137   0.775   8.828   3.854
57070W        W24138  17.632  43.901   0.839
57071W        W24139  28.502  32.462  11.499
57072W        W24140  23.122  22.100  14.427
57073W        W24141   7.881   0.972   3.354
57074W        W24142  30.437  14.815  11.081
57075W        W24143  20.546   1.249   2.714
57076W        W24144  35.508  13.758  12.396
57077W        W24145  33.969  15.605   4.822
57078W        W24146   7.903  28.114  10.404
57079W        W24147  34.371  36.423   2.298
57080W        W24148  14.307  35.383   0.268
57081W        W24149  40.407  10.263   0.332
57082W        W24150   4.211  38.371   3.802
57083W        W24151  16.679  29.665  11.091
57084W        W24152   5.852   3.884  11.434
57085W        W24153  36.411   2.392   1.829
57086W        W24154   3.832  43.316  12.940
57087W        W24155  22.126  40.529  13.432
57088W        W24156  42.286  24.212   1.780
57089W        W24157  16.742  37.574  14.426
57090W        W24158  29.600  20.250   1.327
57091W        W24159   9.828  13.145  14.301
57092W        W24160  15.753  35.943   2.733
57093W        W24161  13.299  18.609   4.604
57094W        W24162   8.815  38.505  13.441
57095W        W24163  29.476  30.485   1.763
57096W        W24164  43.960  36.460  12.570
57097W        W24165  42.456  13.818   1.351
57098W        W24166  10.651  17.144   3.166
57099W        W24167   5.330  10.355   0.255
57100W        W24168  26.028   2.347  11.976
57101W        W24169   8.811  11.132  14.845
57102W        W24170  33.473   5.829   2.823
57103W        W24171  33.415  28.650   0.260
57104W        W24172  33.003  11.351  11.965
57105W        W24173  18.203  23.649  14.475
57106W        W24174  12.675   2.912   1.253
57107W        W24175  44.269  21.246  12.521
57108W        W24176   8.843  37.338   0.789
57109W        W24177   0.485  27.488  11.979
57110W        W24178   6.836  20.636  12.836
57111W        W24179  40.983  44.791   3.230
57112W        W24180  32.940   8.375  11.429
57113W        W24181   3.279  14.227   4.638
57114W        W24182  23.584  31.125  12.364
57115W        W24183  10.267  21.593  12.422
57116W        W24184   2.365  17.182   0.731
57117W        W24185  21.076  10.872  11.516
57118W        W24186   4.280  18.077  11.374
57119W        W24187  32.976  34.406   2.347
57120W        W24188  32.078  20.040  13.515
57121W        W24189   7.760  30.001  12.427
57122W        W24190   5.854  37.543   3.371
57123W        W24191  20.163   3.449  11.991
57124W        W24192  39.481   7.256   0.744
57125W        W24193  34.491  11.315   0.389
57126W        W24194  30.143  21.740  10.496
57127W        W24195  21.550  24.505  10.940
57128W        W24196  13.245  43.873  11.103
57129W        W24197  24.578  27.982   1.866
57130W        W24198  12.685  11.853  10.617
57131W        W24199  27.019  41.942   2.405
57132W        W24200  11.732  29.122  11.371
57133W        W24201  13.223  44.776  11.005
57134W        W24202  19.113  23.687   2.855
57135W        W24203   7.857  17.094  12.061
57136W        W24204   8.213  38.518   2.201
57137W        W24205  40.895  35.081  12.825
57138W        W24206  30.538  10.832   3.844
57139W        W24207  26.481  15.627  10.979
57140W        W24208   8.817  12.207   4.764
57141W        W24209  25.522  21.583  11.506
57142W        W24210  24.221  16.595   2.728
57143W        W24211   6.703  14.791  14.946
57144W        W24212  32.991   2.277   2.783
57145W        W24213  31.112  14.654   0.815
57146W        W24214  31.043  28.168   5.274
57147W        W24215  17.617  30.646  12.058
57148W        W24216  10.799   6.913   0.914
57149W        W24217  15.589  36.547   1.321
57150W        W24218  38.369  33.552   3.187
57151W        W24219  35.433  15.774  10.571
57152W        W24220  32.946  25.631   3.819
57153W        W24221  17.601   7.725  13.906
57154W        W24222  18.644  21.249   4.692
57155W        W24223  43.920  35.914   4.690
57156W        W24224  39.897  27.482   1.427
57157W        W24225  33.054  39.441  10.952
57158W        W24226  32.516  27.636  14.767
57159W        W24227  40.026  32.049  11.971
57160W        W24228  34.604  17.283   3.715
57161W        W24229  34.974  44.858  11.878
57162W        W24230  26.474  21.088  13.508
57163W        W24231  42.454  42.828  11.480
57164W        W24232   1.350  11.248   0.756
57165W        W24233  41.393  28.608   0.263
57166W        W24234   4.827  20.106   0.254
57167W        W24235  18.618  34.392   4.674
57168W        W24236  41.502  24.013  12.078
57169W        W24237  36.911  19.161   0.398
57170W        W24238  12.752  40.363  12.075
57171W        W24239  21.757  36.881  14.972
57172W        W24240   9.172  33.523  10.961
57173W        W24241  24.690  10.342  12.501
57174W        W24242   4.859   2.286   4.784
57175W        W24243   7.723  21.649  13.416
57176W        W24244  38.371   0.399   1.713
57177W        W24245  38.854  25.158   4.779
57178W        W24246  12.238  12.714   1.433
57179W        W24247  42.820   3.399   5.177
57180W        W24248   3.952  18.569   1.700
57181W        W24249  19.682  39.888  14.771
57182W        W24250  32.052  20.039   3.194
57183W        W24251  16.750   2.436   1.893
57184W        W24252   3.336  16.730   1.780
57185W        W24253  14.182  39.321   1.831
57186W        W24254  31.065  33.588   1.827
57187W        W24255  15.201  15.280  14.465
57188W        W24256  43.459  28.458  12.356
57189W        W24257   0.476  27.155   3.779
57190W        W24258  22.042  40.484  12.958
57191W        W24259  26.621   0.748  12.540
57192W        W24260  24.201   7.268   5.301
57193W        W24261  17.587  33.555   0.397
57194W        W24262  33.521  32.594   3.794
57195W        W24263  28.936  36.010  11.481
57196W        W24264  33.024  21.040   1.875
57197W        W24265  30.058  42.816   1.859
57198W        W24266  33.042   6.360  13.878
57199W        W24267   8.752   6.417   1.697
57200W        W24268  17.622   4.712   3.283
57201W        W24269  36.941  27.147  13.006
57202W        W24270  22.248   9.860  10.642
57203W        W24271  22.736  37.401   2.806
57204W        W24272   8.869   6.396   1.267
57205W        W24273  25.697  43.834  14.818
57206W        W24274  14.728  14.693   3.249
57207W        W24275  15.300  20.147  13.044
57208W        W24276   5.800  21.684   0.901
57209W        W24277  43.368  15.643   2.798
57210W        W24278   8.870  43.915  11.906
57211W        W24279  28.059  28.003   4.633
57212W        W24280  31.568  14.096   0.479
57213W        W24281   4.780  11.129   3.686
57214W        W24282   0.751   1.814  14.977
57215W        W24283   3.254  11.749   0.449
57216W        W24284  11.360  23.213  13.528
57217W        W24285  20.726  44.777  11.525
57218W        W24286  41.532  13.139  13.470
57219W        W24287  35.104   4.436  13.459
57220W        W24288   9.329   2.316   0.782
57221W        W24289   7.223  25.204  14.884
57222W        W24290  16.692  16.201   2.352
57223W        W24291   6.762   3.365   2.270
57224W        W24292  12.300  14.174   4.730
57225W        W24293  40.891  15.248   2.847
57226W        W24294  40.336  19.187  12.411
57227W        W24295  10.379  12.769  10.531
57228W        W24296  19.655  26.203  14.985
57229W        W24297   7.293   6.789  14.843
57230W        W24298  35.883  18.702  10.595
57231W        W24299  39.929  20.156  14.404
57232W        W24300  33.051  19.226  11.440
57233W        W24301  12.654   3.378  14.810
57234W        W24302  27.684  21.251   0.893
57235W        W24303   2.954  28.935  11.571
57236W        W24304  26.597  21.582   1.710
57237W        W24305  38.470   5.206   0.363
57238W        W24306  42.876   7.907  10.976
57239W        W24307   1.339  25.031  13.315
57240W        W24308  34.979   4.941  11.612
57241W        W24309  42.780  35.916  12.980
57242W        W24310  39.397   4.804   0.871
57243W        W24311  13.732   9.360  13.816
57244W        W24312   2.350  44.872   4.612
57245W        W24313  35.560   2.277   1.301
57246W        W24314  19.721  14.667   2.339
57247W        W24315   4.330  16.635   2.782
57248W        W24316   1.379  43.932  14.968
57249W        W24317  20.578   7.872  11.928
57250W        W24318  29.435  17.178  13.954
57251W        W24319  28.023  22.132   2.286
57252W        W24320  35.998  23.506  13.970
57253W        W24321  39.821   6.806  12.457
57254W        W24322  30.504  29.588   4.799
57255W        W24323  41.410  35.929  12.436
57256W        W24324   1.825  26.130  13.011
57257W        W24325  41.018  42.326  14.769
57258W        W24326  12.318  38.884  13.421
57259W        W24327  21.018  21.726   1.333
57260W        W24328  25.497  40.987  13.929
57261W        W24329  44.909  23.655   0.914
57262W        W24330  29.968  12.227  14.301
57263W        W24331  34.568  10.789  11.096
57264W        W24332  24.215   1.972  11.598
57265W        W24333   0.272   7.744   3.301
57266W        W24334   0.839  23.699  12.975
57267W        W24335  34.432  28.452  12.410
57268W        W24336   8.382  16.244   2.383
57269W        W24337  10.870  44.479  10.888
57270W        W24338  18.761   2.324  14.477
57271W        W24339  13.167  40.837   3.720
57272W        W24340   4.870  31.143  14.759
57273W        W24341  22.007  31.528   3.180
57274W        W24342   8.266  21.042  10.483
57275W        W24343  29.586  33.015   3.151
57276W        W24344  27.579   9.258  13.477
57277W        W24345  13.608  17.697   4.761
57278W        W24346  18.722  23.091  13.878
57279W        W24347  41.346  42.320   2.681
57280W        W24348  39.344   5.213  10.968
57281W        W24349  29.952  40.935  14.407
57282W        W24350   8.758  42.884   0.844
57283W        W24351  18.185   3.429   3.643
57284W        W24352  22.556  32.985   3.171
57285W        W24353  21.074  23.082  14.760
57286W        W24354  23.196  36.871  14.011
57287W        W24355  12.761  32.553   1.905
57288W        W24356  41.407  10.778  10.559
57289W        W24357  28.495  11.270   1.824
57290W        W24358   6.188  15.823  13.363
57291W        W24359   5.205  24.525   1.812
57292W        W24360   5.439   8.340   4.790
57293W        W24361  44.937   7.684  10.478
57294W        W24362  24.197  42.860  14.896
57295W        W24363  21.037   4.398  14.855
57296W        W24364  13.609  12.347   0.916
57297W        W24365   5.781  30.521   0.356
57298W        W24366  33.604  10.374   1.860
57299W        W24367  30.077  20.208  13.867
57300W        W24368  22.697  44.761   1.702
57301W        W24369  24.575  35.031   1.334
57302W        W24370  16.232  39.880   2.743
57303W        W24371  32.941  11.273  14.305
57304W        W24372  37.416   3.878  12.392
57305W        W24373  33.968  21.083   3.676
57306W        W24374   8.259   4.809  14.896
57307W        W24375  31.991   5.313   4.805
57308W        W24376   3.283   4.720  12.881
57309W        W24377   8.878  26.172  14.950
57310W        W24378  18.095  35.102  14.403
57311W        W24379  12.638  14.716   3.759
57312W        W24380  17.219  18.623   2.275
57313W        W24381  21.130  14.682  13.434
57314W        W24382   7.711  22.144   0.862
57315W        W24383  15.711   3.930  12.999
57316W        W24384  23.239  20.127   4.181
57317W        W24385  26.630  12.343   1.723
57318W        W24386  18.639   4.347  13.432
57319W        W24387  20.123  17.735   0.358
57320W        W24388  13.823  17.595  13.864
57321W        W24389  43.447  30.581  13.002
57322W        W24390  33.000  14.597  13.010
57323W        W24391  30.600   9.164  14.973
57324W        W24392   3.809  18.167  10.410
57325W        W24393  12.313  17.778  13.840
57326W        W24394  35.858  14.160  11.893
57327W        W24395  31.122  21.149  14.974
57328W        W24396   6.190  29.450   4.298
57329W        W24397  41.856  15.760  14.379
57330W        W24398  42.967  25.151   4.276
57331W        W24399   9.778  20.265   3.867
57332W        W24400  17.698  14.650   2.381
57333W        W24401  33.579  12.346   1.297
57334W        W24402  19.629  33.080   4.125
57335W        W24403  43.331   8.891  12.851
57336W        W24404  20.749   8.371  14.958
57337W        W24405  15.091  10.152  10.960
57338W        W24406   6.858  42.381  13.862
57339W        W24407  12.756   7.836   4.825
57340W        W24408   5.293  25.098   1.876
57341W        W24409   1.273  15.712   2.253
57342W        W24410  41.340  33.046   2.318
57343W        W24411  22.013   0.373  11.530
57344W        W24412  36.534  44.980  14.024
57345W        W24413  22.657  44.998  13.480
57346W        W24414   2.421  11.209   2.182
57347W        W24415   3.455  13.291  14.853
57348W        W24416  22.711  44.468  13.035
57349W        W24417  27.109  39.005  14.413
57350W        W24418  21.223  12.820   1.822
57351W        W24419  24.687  18.659   2.699
57352W        W24420  15.772  37.576   0.458
57353W        W24421  25.635  23.061  10.486
57354W        W24422   2.768  37.016   2.255
57355W        W24423  35.929  28.015   3.331
57356W        W24424  15.648  12.663  12.381
57357W        W24425   6.399  20.268   9.472
57358W        W24426  20.711   1.756  13.001
57359W        W24427  41.361  19.624   3.358
57360W        W24428  14.154   0.795  11.569
57361W        W24429  34.997   9.210   2.282
57362W        W24430  19.049  26.589   0.392
57363W        W24431  17.149  13.254   3.315
57364W        W24432  31.405   1.925   4.177
57365W        W24433  44.322  24.229   0.289
57366W        W24434  33.061  29.120  10.628
57367W        W24435  24.483  17.066  12.836
57368W        W24436  25.075   1.785  12.943
57369W        W24437   4.437  28.043  12.005
57370W        W24438  34.443   7.278   3.358
57371W        W24439   1.926   8.220   1.446
57372W        W24440   5.722  10.735   2.847
57373W        W24441  35.027  35.379   2.235
57374W        W24442  26.033  19.283   0.815
57375W        W24443  11.648  10.651  12.362
57376W        W24444  19.250  17.250   3.809
57377W        W24445  38.416  17.169   2.889
57378W        W24446  42.444   4.886  14.813
57379W        W24447  12.711   3.802  14.383
57380W        W24448  12.748  19.153   1.700
57381W        W24449   3.928  33.919   1.334
57382W        W24450  13.277  38.420  13.353
57383W        W24451  39.481  13.721   1.425
57384W        W24452  42.403  31.459   3.646
57385W        W24453  20.631  19.273   4.705
57386W        W24454  22.058  36.937  12.525
57387W        W24455  41.438  39.484   3.742
57388W        W24456  30.430  32.406  12.495
57389W        W24457  24.162  37.409   0.745
57390W        W24458  37.060   1.965   4.315
57391W        W24459  42.443  35.032   0.842
57392W        W24460  28.000  38.018  10.907
57393W        W24461  17.199  18.652   3.271
57394W        W24462  43.943   5.921  11.556
57395W        W24463  43.814   9.333  14.809
57396W        W24464  20.039  37.898  12.993
57397W        W24465  31.999  12.821   3.231
57398W        W24466  34.007  29.000   3.240
57399W        W24467   8.725  22.062  13.053
57400W        W24468  25.153   2.227  12.504
57401W        W24469   8.185  32.430   3.793
57402W        W24470  19.082   7.703  14.859
57403W        W24471  37.915  25.106   4.119
57404W        W24472  22.634   5.323  14.803
57405W        W24473  29.034  24.207   4.652
57406W        W24474  29.547  21.593  13.493
57407W        W24475   6.913   3.925  12.979
57408W        W24476  19.253  12.217  12.996
57409W        W24477  25.990  12.127   2.723
57410W        W24478  19.568  40.488  11.594
57411W        W24479   3.314  43.773   4.633
57412W        W24480   1.457  10.812   3.188
57413W        W24481  37.957   4.389  11.965
57414W        W24482  25.536   9.699   0.881
57415W        W24483  13.180  39.438   3.246
57416W        W24484  40.386  43.858  14.398
57417W        W24485  12.342  34.059  13.518
57418W        W24486   4.358  27.542   0.749
57419W        W24487  29.661  20.701   4.187
57420W        W24488  17.106   0.450  14.839
57421W        W24489  36.041  12.789  13.018
57422W        W24490  29.585  35.380  13.955
57423W        W24491   5.380  42.353  13.880
57424W        W24492  26.013  32.427   1.356
57425W        W24493  17.783  18.261   2.389
57426W        W24494   4.787  31.520  14.294
57427W        W24495  11.711  42.404  14.815
57428W        W24496  41.822  12.293   3.170
57429W        W24497  40.450  22.669  14.344
57430W        W24498  12.339  31.646   4.320
57431W        W24499  27.454   7.712  10.964
57432W        W24500  12.729  38.515  12.887
57433W        W24501  30.975  43.449  14.839
57434W        W24502   4.830   9.203  12.351
57435W        W24503   9.368  25.680   2.736
57436W        W24504  15.678  43.922   5.287
57437W        W24505  38.426  26.141   3.696
57438W        W24506  44.888   1.480  11.374
57439W        W24507   4.424   2.327   2.277
57440W        W24508  10.356  23.224   3.857
57441W        W24509   8.309  29.659  12.515
57442W        W24510  31.429   1.942   4.736
57443W        W24511  41.440  12.124   3.242
57444W        W24512  21.071  40.532  13.817
57445W        W24513  37.934  26.652  10.050
57446W        W24514  38.912  12.834  12.032
57447W        W24515  11.843  28.604   0.874
57448W        W24516  30.121   8.251   4.802
57449W        W24517  35.059  30.531   2.401
57450W        W24518  39.499   1.434   2.874
57451W        W24519  34.433   3.782   3.368
57452W        W24520   8.665   3.391   5.196
57453W        W24521   5.317   1.362  14.918
57454W        W24522  15.780   2.939   4.711
57455W        W24523  18.212  15.678  14.309
57456W        W24524  29.972  19.211  12.367
57457W        W24525  23.127   4.207  11.460
57458W        W24526   9.769   7.856   4.123
57459W        W24527  42.951  24.166   2.831
57460W        W24528   5.345  31.134  13.914
57461W        W24529  26.981   2.423  14.980
57462W        W24530   3.314   8.223  14.894
57463W        W24531  27.674  43.868  14.313
57464W        W24532  28.449  28.444  13.799
57465W        W24533  20.600  30.079   1.295
57466W        W24534  36.086   7.284  13.523
57467W        W24535  24.061  36.359   0.298
57468W        W24536  29.057  17.734   0.288
57469W        W24537  22.190  23.053   0.932
57470W        W24538  17.695  17.578   2.211
57471W        W24539  41.325  14.106   3.791
57472W        W24540  40.361  16.210  14.899
57473W        W24541  13.774  32.565  12.868
57474W        W24542  34.949  32.976  12.452
57475W        W24543  12.172  43.906  14.032
57476W        W24544  36.009  34.544  12.962
57477W        W24545   9.825   3.724   0.751
57478W        W24546  35.967   4.809   4.715
57479W        W24547  28.679  28.049   1.773
57480W        W24548  29.051  22.115   2.235
57481W        W24549  22.661  17.620   4.164
57482W        W24550  25.995   9.260  10.614
57483W        W24551  35.519   6.737  14.881
57484W        W24552   4.396  26.130  13.002
57485W        W24553   7.798  30.005  13.811
57486W        W24554  21.071  29.561   4.257
57487W        W24555  43.377  20.739  12.975
57488W        W24556  16.718  31.944  11.078
57489W        W24557  41.813  17.655  11.030
57490W        W24558   3.863  16.718  13.833
57491W        W24559  15.737  38.486   0.318
57492W        W24560  32.007   8.691   2.768
57493W        W24561  26.534  32.937  14.365
57494W        W24562  37.012  26.054  11.878
57495W        W24563  19.050  34.916   2.329
57496W        W24564  41.483   2.812   2.813
57497W        W24565  11.826  12.638   2.758
57498W        W24566  25.507  33.405   1.347
57499W        W24567  39.526  41.445   3.710
57500W        W24568  29.095  44.796  11.101
57501W        W24569  21.069   2.285  14.994
57502W        W24570  12.246  10.150   0.252
57503W        W24571  43.840  21.065  13.384
57504W        W24572  13.710  24.979  11.598
57505W        W24573  28.115  19.671   5.311
57506W        W24574  31.003  31.025  14.770
57507W        W24575  32.078   6.409  11.560
57508W        W24576  38.511  43.493  12.346
57509W        W24577  34.111  26.532  14.491
57510W        W24578   6.324   8.244   4.264
57511W        W24579   0.486  22.725  11.479
57512W        W24580  27.971  25.470   4.301
57513W        W24581  42.981  30.040   0.315
57514W        W24582  39.039  44.401  10.545
57515W        W24583   1.732  39.388  14.903
57516W        W24584  15.087  25.533  10.889
57517W        W24585  41.386  42.373  14.908
57518W        W24586  29.999   5.295   2.698
57519W        W24587   4.713  26.988   0.882
57520W        W24588   2.878  26.674   0.864
57521W        W24589  15.699  27.608  12.016
57522W        W24590  11.370  32.602  14.398
57523W        W24591  31.418   9.289   1.840
57524W        W24592  10.633  32.585  10.942
57525W        W24593  43.944   3.805   4.744
57526W        W24594  42.447   2.750   1.904
57527W        W24595  31.592  34.467   4.222
57528W        W24596  22.069   9.714  11.099
57529W        W24597  23.512  34.547  13.039
57530W        W24598   3.333   9.263   0.484
57531W        W24599  34.459  30.651   0.825
57532W        W24600   1.328  41.927  12.059
57533W        W24601  38.046   0.453  14.964
57534W        W24602  43.301  11.802   0.824
57535W        W24603  10.643  40.798  14.312
57536W        W24604  39.429  21.721   2.277
57537W        W24605   5.803  24.688  12.404
57538W        W24606  26.644  38.438  12.485
57539W        W24607  13.666  36.940  13.016
57540W        W24608  14.268  19.165   2.710
57541W        W24609   6.340  27.990   9.941
57542W        W24610  12.119  22.029   2.253
57543W        W24611  32.568  16.273  11.968
57544W        W24612  39.862  14.145  11.393
57545W        W24613  30.078  26.540   4.640
57546W        W24614  15.649  34.088   3.815
57547W        W24615  40.856  42.852   2.265
57548W        W24616  35.587  10.280   4.788
57549W        W24617   7.313  32.030  13.815
57550W        W24618  18.175  30.618  14.787
57551W        W24619   0.325  19.603   3.384
57552W        W24620  27.042  29.566  10.407
57553W        W24621  24.625  30.969  12.382
57554W        W24622  38.922  17.063   2.219
57555W        W24623   0.384  25.607  11.426
57556W        W24624  14.320  21.575  14.004
57557W        W24625  30.460   8.687   2.825
57558W        W24626  16.219   6.839   0.787
57559W        W24627   5.708  40.451   4.306
57560W        W24628  26.140   6.902  14.347
57561W        W24629  28.930   8.400   4.744
57562W        W24630  11.271  41.434  13.499
57563W        W24631   5.193  37.376   3.787
57564W        W24632  14.246  36.910   4.203
57565W        W24633  29.544  26.638  14.765
57566W        W24634  15.633  39.830  12.425
57567W        W24635  23.057   0.248   4.128
57568W        W24636  34.952   2.460  11.460
57569W        W24637   2.853   3.407  14.464
57570W        W24638  34.400   6.708   3.269
57571W        W24639   1.275  24.979   3.851
57572W        W24640  43.987  12.835   2.319
57573W        W24641  34.927  25.630  12.835
57574W        W24642  29.640  33.407   3.805
57575W        W24643  14.267  14.690  14.821
57576W        W24644  38.536  42.998  14.011
57577W        W24645  18.203  36.982  10.628
57578W        W24646   3.226  29.670  10.636
57579W        W24647   2.735   3.797   1.834
57580W        W24648   2.899  29.036  10.928
57581W        W24649   9.217  15.704   2.370
57582W        W24650  22.511   3.934   0.764
57583W        W24651  20.677  43.386  13.548
57584W        W24652  39.462  17.290  12.358
57585W        W24653  19.124  35.063  10.404
57586W        W24654  13.697  28.457  14.934
57587W        W24655  30.916  22.201  13.876
57588W        W24656  30.073   0.275  11.511
57589W        W24657  28.664  39.526   0.798
57590W        W24658  26.100  20.248  13.349
57591W        W24659  29.619   8.177   3.852
57592W        W24660   3.250  41.811  11.404
57593W        W24661  43.807  36.859   3.229
57594W        W24662   3.261  20.176   1.419
57595W        W24663  29.982  30.570   3.769
57596W        W24664  15.692  24.615  13.893
57597W        W24665  43.012  35.441  12.567
57598W        W24666  42.818  40.994   1.450
57599W        W24667  17.700  44.890   1.810
57600W        W24668  14.115  26.034  12.960
57601W        W24669  13.835  20.239   1.848
57602W        W24670  23.675  34.592  10.604
57603W        W24671   4.324  34.907  14.386
57604W        W24672   0.859  19.215   4.277
57605W        W24673  22.531  31.614  11.054
57606W        W24674  15.160  16.126  12.042
57607W        W24675  32.517  31.009  14.361
57608W        W24676  30.505  23.714   0.766
57609W        W24677   4.266  26.015   4.302
57610W        W24678  19.187   1.925  14.835
57611W        W24679  37.993   0.889   3.332
57612W        W24680   1.332   6.412  11.097
57613W        W24681  13.753  33.445   2.415
57614W        W24682  15.682  26.024  13.796
57615W        W24683   6.374  17.220  12.364
57616W        W24684  37.883  40.014   0.824
57617W        W24685  16.578  42.509   1.437
57618W        W24686  26.994  33.094  10.568
57619W        W24687  21.717  10.162   3.643
57620W        W24688  42.454  29.035  14.500
57621W        W24689  44.879  17.263  13.432
57622W        W24690  32.068   2.451  11.410
57623W        W24691  18.685  20.675   1.717
57624W        W24692  13.734  15.629  10.426
57625W        W24693  34.486  25.125   1.826
57626W        W24694   9.787  22.735  11.107
57627W        W24695   1.943  25.613   2.836
57628W        W24696  24.164   7.219   0.444
57629W        W24697  39.914  18.134  12.350
57630W        W24698   3.428   0.477  11.893
57631W        W24699  21.531  13.163  14.460
57632W        W24700  40.475  14.689   3.206
57633W        W24701  20.678  33.401   0.394
57634W        W24702  26.104  35.403  13.869
57635W        W24703  10.321  14.732   1.269
57636W        W24704  39.405  13.797  10.486
57637W        W24705  27.062  27.987  12.500
57638W        W24706   2.282  29.048  12.501
57639W        W24707  10.302   1.414  13.842
57640W        W24708  19.237  17.260  14.502
57641W        W24709  11.254  43.826   0.246
57642W        W24710  18.771   3.759  14.974
57643W        W24711  28.929  37.483   3.696
57644W        W24712  12.176  31.067   3.223
57645W        W24713  13.679  15.212  13.938
57646W        W24714  17.072  10.702   0.242
57647W        W24715  21.633  14.805  13.827
57648W        W24716  28.607   5.709   0.870
57649W        W24717  16.678  43.429   0.439
57650W        W24718  35.096  27.964   1.836
57651W        W24719  43.359  16.260  14.391
57652W        W24720   3.428   7.207   3.695
57653W        W24721   4.251  14.145  10.469
57654W        W24722   4.787  44.764   1.357
57655W        W24723  22.519   5.725  11.600
57656W        W24724  21.237   1.828   5.178
57657W        W24725  39.525  28.621   2.229
57658W        W24726  26.129  39.552  11.082
57659W        W24727  10.158  20.083   4.142
57660W        W24728   3.362  44.464   3.648
57661W        W24729   5.425  32.548  13.470
57662W        W24730  42.391  19.705  13.519
57663W        W24731  25.185  31.434  12.940
57664W        W24732   5.294  25.118   2.888
57665W        W24733  30.919  14.255  13.514
57666W        W24734  34.938  21.154  10.113
57667W        W24735  35.449  16.146  14.301
57668W        W24736  34.409  37.999  14.941
57669W        W24737  15.256  30.946  14.382
57670W        W24738  11.317   0.812   0.743
57671W        W24739  18.234  12.191  11.054
57672W        W24740  18.057  16.260   4.715
57673W        W24741   0.333  34.508  14.330
57674W        W24742  43.475  16.202   3.362
57675W        W24743   7.270   4.716   4.321
57676W        W24744  13.149  13.335  14.913
57677W        W24745  36.409  36.899   1.935
57678W        W24746  15.178  35.857  11.590
57679W        W24747  43.434  36.909   2.813
57680W        W24748  42.316  29.036   4.713
57681W        W24749  12.139  21.635  13.357
57682W        W24750  16.274  38.550  13.850
57683W        W24751  22.600  21.602  10.920
57684W        W24752  36.523  13.826  10.458
57685W        W24753  12.119   1.860  13.964
57686W        W24754  33.045   1.262   4.746
57687W        W24755   4.376  10.834   2.229
57688W        W24756  33.903   5.775  11.406
57689W        W24757   2.453  33.381  13.877
57690W        W24758  44.327   1.817   2.683
57691W        W24759   3.948  38.328  10.407
57692W        W24760  12.700  43.764  14.966
57693W        W24761  33.035  38.943   3.170
57694W        W24762   9.332   3.848  13.361
57695W        W24763   1.337  10.660  10.908
57696W        W24764   8.162   2.260  14.329
57697W        W24765   3.856  33.483   1.836
57698W        W24766  28.989   8.353   4.296
57699W        W24767  11.825  15.271  13.050
57700W        W24768  12.276   4.234   0.946
57701W        W24769   7.857  33.617  10.501
57702W        W24770  31.143  41.295   5.190
57703W        W24771  11.320  31.036   3.243
57704W        W24772  31.409   3.867   0.923
57705W        W24773  32.002   6.705  10.936
57706W        W24774  13.795   9.162   2.725
57707W        W24775  30.146  38.956   4.235
57708W        W24776   0.407  38.981   4.260
57709W        W24777  13.264  40.399  14.907
57710W        W24778  18.263  18.184  13.327
57711W        W24779  29.142  29.652  12.413
57712W        W24780  16.801  13.634   4.767
57713W        W24781  21.048  15.094  11.486
57714W        W24782  17.249   4.918  12.428
57715W        W24783   5.208  10.196  10.532
57716W        W24784   3.805  33.410   2.189
57717W        W24785   7.294  15.120  14.962
57718W        W24786  36.884  24.988  14.961
57719W        W24787  17.584  20.594   4.218
57720W        W24788  33.118  37.509  12.928
57721W        W24789  27.643  44.004  12.858
57722W        W24790  26.152  15.800   2.741
57723W        W24791  31.106   1.335   4.319
57724W        W24792   3.332  16.778   0.824
57725W        W24793  14.274  23.096  14.923
57726W        W24794  11.711   9.882   0.290
57727W        W24795  41.322  37.834  11.468
57728W        W24796   8.169  30.157   3.714
57729W        W24797  35.421  18.097  10.919
57730W        W24798  17.769  21.020  14.805
57731W        W24799  30.518  21.562   2.374
57732W        W24800  42.914  21.752  11.022
57733W        W24801  12.247  41.528  11.981
57734W        W24802  12.147  34.986  13.926
57735W        W24803   9.313  22.616  11.387
57736W        W24804  30.919  29.993  14.861
57737W        W24805  12.117  32.589   2.414
57738W        W24806  16.264  19.623   5.742
57739W        W24807   3.758   8.297   3.656
57740W        W24808  43.419  26.090   3.382
57741W        W24809  20.624  15.242   0.811
57742W        W24810  15.084  18.586  14.900
57743W        W24811  39.996  40.942   4.626
57744W        W24812  14.595  38.847  10.937
57745W        W24813   2.329  23.142   2.334
57746W        W24814  41.823   7.781  13.058
57747W        W24815  30.000  19.725   0.859
57748W        W24816   6.366  27.664   3.793
57749W        W24817   0.268  17.130   0.953
57750W        W24818  27.692  28.612  13.508
57751W        W24819  34.456  42.783  11.863
57752W        W24820   2.763  34.004  12.983
57753W        W24821  12.212  40.876  12.983
57754W        W24822  32.594  32.023   3.755
57755W        W24823  16.310  36.453   4.686
57756W        W24824  24.505  13.790  11.399
57757W        W24825  43.903   2.397  11.536
57758W        W24826  43.321  37.051   2.185
57759W        W24827  28.068  31.543   3.655
57760W        W24828  20.608   3.363  11.923
57761W        W24829  37.540  18.701  10.958
57762W        W24830  28.979  28.611   0.741
57763W        W24831   7.231  20.104   3.644
57764W        W24832   7.675  24.502   0.392
57765W        W24833  34.080  30.154  11.949
57766W        W24834   0.764  30.989  11.559
57767W        W24835  11.349  24.667   2.221
57768W        W24836   9.163   5.412  14.853
57769W        W24837   4.887  42.787   1.250
57770W        W24838  33.446  15.185  14.423
57771W        W24839  38.985   8.761  13.535
57772W        W24840   8.712  17.600   1.863
57773W        W24841  14.705  16.678   1.382
57774W        W24842   3.757   4.912   2.871
57775W        W24843  15.744   5.344  11.123
57776W        W24844  26.180  33.900   2.863
57777W        W24845  23.620  34.979  12.414
57778W        W24846  37.516  29.092   4.734
57779W        W24847  11.287   5.208   1.427
57780W        W24848  16.217  38.361  13.504
57781W        W24849   7.379  22.118  14.943
57782W        W24850   9.865   4.220  12.561
57783W        W24851  29.593  27.074   2.214
57784W        W24852  42.397  19.536   2.355
57785W        W24853  22.693  37.376  12.010
57786W        W24854  29.526  19.622   4.708
57787W        W24855  31.913  40.496   4.227
57788W        W24856  31.903  36.530  11.976
57789W        W24857  17.143   8.365  14.496
57790W        W24858  35.034   1.870  10.541
57791W        W24859   2.924  44.397  14.833
57792W        W24860   0.470  19.160  10.488
57793W        W24861  25.215  22.558   4.672
57794W        W24862  20.679   2.874  13.377
57795W        W24863  23.197  11.178   1.398
57796W        W24864  17.254  36.416  14.443
57797W        W24865  11.807   2.269  13.517
57798W        W24866   9.699  13.285  11.865
57799W        W24867  12.277   9.818  13.906
57800W        W24868  44.491   3.341   3.824
57801W        W24869  40.038   1.256  12.893
57802W        W24870   3.353   0.906  14.860
57803W        W24871   7.822  34.063   3.718
57804W        W24872  24.120  26.982  11.034
57805W        W24873  36.969   6.249  14.491
57806W        W24874  22.553  14.256   2.228
57807W        W24875  29.086  12.856   3.717
57808W        W24876  15.164  11.770   1.422
57809W        W24877  32.598  18.219   2.884
57810W        W24878  14.150  16.194  14.965
57811W        W24879  26.465  32.001   4.187
57812W        W24880  30.508   6.258   2.235
57813W        W24881  12.687  10.379  14.807
57814W        W24882  41.292  33.416  10.975
57815W        W24883  34.446  26.476  11.536
57816W        W24884   7.688   5.376  12.027
57817W        W24885  14.793  27.466   2.734
57818W        W24886   3.334   8.864  14.996
57819W        W24887  40.483   3.891  14.396
57820W        W24888  17.263  29.670  12.935
57821W        W24889  40.016  30.466   3.379
57822W        W24890  30.973  26.207  12.914
57823W        W24891   5.277  28.491  12.079
57824W        W24892  34.406  35.531  12.863
57825W        W24893  35.414  12.212   3.682
57826W        W24894  21.715  37.377  14.319
57827W        W24895  11.700  37.517  14.401
57828W        W24896   7.793   7.708   0.400
57829W        W24897  34.517  32.015  11.989
57830W        W24898  23.232  18.692  12.456
57831W        W24899  21.726  24.701   1.277
57832W        W24900   0.827  17.703  14.979
57833W        W24901  42.977  37.384   3.630
57834W        W24902  29.502   5.733  12.956
57835W        W24903   2.894  36.880  11.903
57836W        W24904   0.825  11.795   0.296
57837W        W24905  39.028  29.000   3.686
57838W        W24906  19.076  11.784  11.465
57839W        W24907  13.245  16.646   4.600
57840W        W24908   4.367   5.767   4.805
57841W        W24909  23.572  26.608   4.232
57842W        W24910  22.696  20.263  11.912
57843W        W24911  16.573   5.863  13.423
57844W        W24912  40.027  12.827  11.605
57845W        W24913  40.812  22.063   2.184
57846W        W24914  29.637  14.716  11.437
57847W        W24915  24.481  40.368   0.282
57848W        W24916  37.912  11.177  14.889
57849W        W24917  31.495  21.248   0.940
57850W        W24918  42.881  12.159   4.711
57851W        W24919  26.598  17.574  13.470
57852W        W24920  40.810   6.683  13.539
57853W        W24921  20.256  24.031   0.336
57854W        W24922  32.119   4.329  13.329
57855W        W24923  30.117  10.290   1.817
57856W        W24924  36.446  19.616  14.400
57857W        W24925  44.315   9.301  10.422
57858W        W24926  20.115  30.522   3.175
57859W        W24927  14.300  25.052  14.978
57860W        W24928   5.793  30.041   0.303
57861W        W24929   4.443  17.296   0.954
57862W        W24930   1.837  11.847  11.031
57863W        W24931  26.512  41.462   2.371
57864W        W24932  18.593  37.884  11.564
57865W        W24933  35.994   3.377  13.386
57866W        W24934  26.679   3.222   4.328
57867W        W24935  11.710  15.769   0.402
57868W        W24936   1.892   2.923  14.861
57869W        W24937   4.844  24.121  13.047
57870W        W24938  44.367   0.984   2.798
57871W        W24939  16.292  38.434   4.685
57872W        W24940  12.351  15.590   4.802
57873W        W24941   7.835   5.214   1.233
57874W        W24942   1.324   3.846  13.000
57875W        W24943  40.868  37.354  11.372
57876W        W24944   6.210  15.150  14.286
57877W        W24945  26.595  33.571  14.771
57878W        W24946   4.919  13.283  13.011
57879W        W24947  20.272  39.042  13.051
57880W        W24948   1.843  12.685   1.444
57881W        W24949  11.687  27.566   0.459
57882W        W24950   7.737   5.250  13.344
57883W        W24951  23.707  27.491   0.960
57884W        W24952  14.232  31.490   2.407
57885W        W24953  33.624  11.734   5.133
57886W        W24954  20.711  24.690  11.372
57887W        W24955   0.453  19.094   0.441
57888W        W24956  14.232  18.132  14.880
57889W        W24957  40.044   1.862  13.317
57890W        W24958  31.028   8.330  11.414
57891W        W24959   7.219  11.139   3.700
57892W        W24960  36.911  23.626   2.411
57893W        W24961   4.921  18.683   1.287
57894W        W24962  20.553  16.302   1.431
57895W        W24963  15.294  40.513   4.216
57896W        W24964   0.848  40.442   1.253
57897W        W24965   9.381   6.392  12.345
57898W        W24966  21.147   2.964   3.194
57899W        W24967  30.483  25.575  13.522
57900W        W24968  42.392  26.107   3.147
57901W        W24969   3.874  41.848  11.914
57902W        W24970   4.735  31.557  13.485
57903W        W24971  22.078   2.436   1.391
57904W        W24972  20.174   1.950  14.390
57905W        W24973  19.623  19.075   0.408
57906W        W24974  27.681  28.132   4.750
57907W        W24975   1.366  40.303   3.156
57908W        W24976  12.225  18.158   1.398
57909W        W24977  20.068  27.966  14.289
57910W        W24978   6.862  10.761   0.924
57911W        W24979  39.407  34.992   2.725
57912W        W24980   9.327   9.337   1.221
57913W        W24981   3.440   0.280   1.389
57914W        W24982  25.992  30.649  11.445
57915W        W24983  30.982  30.465  11.548
57916W        W24984  25.047  15.206  10.945
57917W        W24985  30.101  16.774   3.840
57918W        W24986   6.759  33.602  12.341
57919W        W24987   4.878  12.217  14.873
57920W        W24988  44.790   9.883  12.926
57921W        W24989  35.468  43.814  11.010
57922W        W24990  21.093  23.065   1.432
57923W        W24991  19.666  11.811  11.479
57924W        W24992  18.085   7.685  13.439
57925W        W24993  40.857  31.940   1.917
57926W        W24994  40.029   4.830   2.413
57927W        W24995  27.544  16.679   2.667
57928W        W24996  23.698  42.017  10.569
57929W        W24997   7.898   8.363   4.285
57930W        W24998  18.272   4.795  14.299
57931W        W24999  36.014  44.491  13.941
57932W        W25000  16.216  25.002   4.747
57933W        W25001   3.819  19.259   4.310
57934W        W25002  36.008  22.741  12.037
57935W        W25003  32.421  20.202  13.937
57936W        W25004  40.022   6.262   3.199
57937W        W25005   8.727  38.450  14.027
57938W        W25006   8.271  31.043   2.849
57939W        W25007  38.332  24.544  11.580
57940W        W25008  26.060   0.892  14.969
57941W        W25009  16.744  12.642   0.891
57942W        W25010   5.301  23.497  14.022
57943W        W25011   2.758  30.482  11.570
57944W        W25012  41.982  34.603   2.249
57945W        W25013  41.487  36.496   3.150
57946W        W25014  36.542   1.386   1.234
57947W        W25015  39.045  35.397   0.946
57948W        W25016  32.886  39.949  11.477
57949W        W25017  12.618  23.208  14.778
57950W        W25018   2.924  39.822   2.215
57951W        W25019  37.012  32.031  10.534
57952W        W25020  40.409  15.615   4.652
57953W        W25021  16.112  18.632  13.945
57954W        W25022  25.037   7.794   3.758
57955W        W25023  10.788  21.591  11.959
57956W        W25024  15.275  33.002   0.339
57957W        W25025   7.189  16.165  12.526
57958W        W25026  25.026   6.789   3.690
57959W        W25027   2.455  22.131  12.370
57960W        W25028  17.726  43.472   0.438
57961W        W25029  40.320  19.576  11.112
57962W        W25030   8.729   2.763   4.307
57963W        W25031   8.748   2.797  12.972
57964W        W25032   5.810  14.249   3.199
57965W        W25033  11.762   6.688   0.286
57966W        W25034  23.571  28.166  11.119
57967W        W25035  26.974  17.599  12.049
57968W        W25036  18.748  38.919  13.904
57969W        W25037  20.522  18.254  12.350
57970W        W25038  16.629  13.186   4.175
57971W        W25039  22.166  43.272   4.688
57972W        W25040   2.954  32.134   4.305
57973W        W25041  17.236  24.224  14.955
57974W        W25042  33.563  11.372  14.970
57975W        W25043  33.099   3.252   4.264
57976W        W25044  33.414  24.503   5.208
57977W        W25045   7.822  23.568  14.363
57978W        W25046   3.328  42.834  14.492
57979W        W25047  43.784  18.165  14.781
57980W        W25048   9.812  37.519  13.972
57981W        W25049  43.898   0.377  14.868
57982W        W25050  40.444  34.869  11.891
57983W        W25051  43.462  18.633   1.287
57984W        W25052  28.098  31.040   4.116
57985W        W25053  39.509  16.791   4.327
57986W        W25054  28.027  43.978   0.777
57987W        W25055  21.533  26.201  14.002
57988W        W25056   1.391   5.721  13.792
57989W        W25057  31.441   0.449   2.377
57990W        W25058  43.465  36.921  13.307
57991W        W25059  33.616  25.506  12.555
57992W        W25060  31.490   4.927  11.856
57993W        W25061  41.520  26.623   2.271
57994W        W25062   9.353  17.158  11.919
57995W        W25063  36.550  19.142  12.565
57996W        W25064  42.802   6.709  10.925
57997W        W25065  34.920   5.364  14.882
57998W        W25066  24.501  28.489  11.566
57999W        W25067  37.010  39.556   3.847
58000W        W25068  21.061  21.224   3.334
58001W        W25069  14.818   7.251   0.331
58002W        W25070  44.389   5.873   1.846
58003W        W25071   2.358  34.611   5.787
58004W        W25072  21.666   0.421  12.417
58005W        W25073  16.225   4.814  10.136
58006W        W25074  15.233  30.158  12.404
58007W        W25075  16.256   3.844   3.842
58008W        W25076  29.010  11.825   1.432
58009W        W25077  22.742  15.746  14.889
58010W        W25078  15.806   0.257  14.004
58011W        W25079  36.936   9.364  14.400
58012W        W25080   7.814  44.341   3.808
58013W        W25081  13.658  29.074   1.425
58014W        W25082   7.327   6.867   0.731
58015W        W25083  24.717  33.095   2.239
58016W        W25084  35.050  11.729   2.237
58017W        W25085  35.900  13.288   2.249
58018W        W25086  19.056  20.651   3.359
58019W        W25087  31.084   5.426  14.903
58020W        W25088  28.576  22.627   1.756
58021W        W25089  24.502  39.042  13.791
58022W        W25090  15.650  38.820  13.452
58023W        W25091  13.151  44.421   0.962
58024W        W25092   7.414  11.735  12.089
58025W        W25093  24.213   3.388   4.251
58026W        W25094  19.131  40.303  13.850
58027W        W25095  39.817  16.221   1.225
58028W        W25096   2.393  42.449  14.960
58029W        W25097   1.424  10.333  14.381
58030W        W25098  34.488  21.209   2.884
58031W        W25099  15.113  13.767   0.416
58032W        W25100   4.838   7.342   2.679
58033W        W25101  11.773   5.729  10.145
58034W        W25102  41.995   4.762  10.893
58035W        W25103  35.100  39.971   3.703
58036W        W25104   7.688  14.723   0.280
58037W        W25105  26.122  39.398   3.865
58038W        W25106  10.280  27.017   4.183
58039W        W25107  19.701  41.323   0.880
58040W        W25108  23.691  39.818  12.347
58041W        W25109  19.758  40.867  11.565
58042W        W25110  29.577   2.897   0.811
58043W        W25111  19.609  30.165  10.028
58044W        W25112  17.786  11.176   3.670
58045W        W25113  44.942  16.083  12.570
58046W        W25114  22.638   7.374  14.032
58047W        W25115  37.847  43.874  10.551
58048W        W25116  13.762   7.740  11.542
58049W        W25117  17.578  41.415  14.313
58050W        W25118  12.129  39.383   4.735
58051W        W25119  27.170  44.898   2.696
58052W        W25120  29.135  37.055   0.801
58053W        W25121  34.880  16.307  11.012
58054W        W25122  38.480  30.638  14.003
58055W        W25123   0.899  43.275   3.772
58056W        W25124   6.758  43.800  14.828
58057W        W25125  25.032  44.454   2.321
58058W        W25126  29.438  19.209   1.228
58059W        W25127  36.477  24.035  12.825
58060W        W25128   7.878  36.381  10.491
58061W        W25129  22.740  14.274  14.796
58062W        W25130  14.813   7.194   2.868
58063W        W25131   2.262  28.160  11.531
58064W        W25132  14.244  11.803  12.825
58065W        W25133  34.384   4.400  14.964
58066W        W25134  14.308  14.330  11.378
58067W        W25135   2.388  26.510  13.807
58068W        W25136  44.915  41.520  11.947
58069W        W25137  34.511  41.329  10.547
58070W        W25138  18.561  25.993   4.687
58071W        W25139  10.351   5.788   3.753
58072W        W25140  38.871  31.540  10.549
58073W        W25141  16.779   2.347  10.991
58074W        W25142  30.598   2.320   4.209
58075W        W25143  44.425   2.250   4.712
58076W        W25144  38.980   5.827  14.387
58077W        W25145  30.162  20.543   1.319
58078W        W25146  44.846  30.621   1.812
58079W        W25147  19.226   1.882   2.312
58080W        W25148  29.973  34.547  12.374
58081W        W25149  19.097  22.545  12.970
58082W        W25150  12.716  23.604   2.270
58083W        W25151   7.246   4.730  12.914
58084W        W25152  40.383  13.731   0.363
58085W        W25153   9.258  25.992   1.288
58086W        W25154  29.049  16.812   0.326
58087W        W25155   1.453   1.393   3.810
58088W        W25156  36.089  28.111  13.348
58089W        W25157   7.338   8.706  13.934
58090W        W25158  10.845  26.189   0.374
58091W        W25159  17.659  42.810  11.886
58092W        W25160  30.157  44.316   1.442
58093W        W25161  21.083  26.069  11.413
58094W        W25162  15.123  17.661   2.208
58095W        W25163   8.731  44.338   1.256
58096W        W25164  25.660  38.363   0.800
58097W        W25165  33.082   7.894   2.745
58098W        W25166  10.222  44.388   2.285
58099W        W25167  15.261  32.529   3.201
58100W        W25168  41.856   7.909   3.307
58101W        W25169   2.405   3.444   1.749
58102W        W25170  12.854   1.270   4.689
58103W        W25171   6.405   6.847   4.656
58104W        W25172  36.945   8.693  13.898
58105W        W25173   2.427  20.088   3.385
58106W        W25174  19.212  23.689   1.725
58107W        W25175   5.878  25.204  13.915
58108W        W25176   9.709  36.959   4.327
58109W        W25177  28.141  28.116   3.150
58110W        W25178  13.635  19.676   1.703
58111W        W25179  28.509   8.868  13.413
58112W        W25180  24.020  31.613  12.486
58113W        W25181  31.613  19.578  13.412
58114W        W25182   6.920  24.557  13.487
58115W        W25183  32.964  16.799   2.816
58116W        W25184  32.493  19.595   1.212
58117W        W25185  11.221   7.899   3.345
58118W        W25186  10.373  14.751  11.865
58119W        W25187  31.942  27.004  12.004
58120W        W25188   8.350  44.774   2.273
58121W        W25189   4.432  10.756  13.961
58122W        W25190  25.039  35.995   1.880
58123W        W25191   8.304  14.704   2.210
58124W        W25192  40.494  31.995   0.760
58125W        W25193  14.255  25.642   4.238
58126W        W25194  17.557  42.319   2.824
58127W        W25195  32.490   5.723   1.240
58128W        W25196  23.153  30.048   1.288
58129W        W25197   7.751  41.803  12.432
58130W        W25198  15.739  42.418   0.936
58131W        W25199  25.526  20.261   0.913
58132W        W25200  27.983  10.171   3.364
58133W        W25201   8.690  16.162  14.306
58134W        W25202   8.751   4.307   4.314
58135W        W25203  43.329  43.380   0.819
58136W        W25204  11.767  32.070  14.988
58137W        W25205  39.522   5.215  14.422
58138W        W25206  24.532  30.576   1.412
58139W        W25207  13.208  29.587   1.348
58140W        W25208  35.099  20.733  10.454
58141W        W25209  14.622   2.237  13.473
58142W        W25210  19.699   7.249   3.781
58143W        W25211  26.493  22.138  12.926
58144W        W25212  16.736  38.453   2.379
58145W        W25213  26.957  18.604  14.994
58146W        W25214  28.543  42.969  13.804
58147W        W25215   0.817  30.083  10.443
58148W        W25216   5.875  12.786   0.767
58149W        W25217   2.280  18.752  12.498
58150W        W25218  17.739   2.778  12.419
58151W        W25219  24.103  39.433   2.681
58152W        W25220  34.481  37.337  12.091
58153W        W25221  16.131  41.831   0.458
58154W        W25222  23.139  41.311  13.950
58155W        W25223  26.651  12.839   0.409
58156W        W25224   9.321  26.673   2.763
58157W        W25225  11.762  11.168  10.633
58158W        W25226  16.206  18.233  12.851
58159W        W25227  35.478   2.805  10.997
58160W        W25228  14.319  18.622   0.278
58161W        W25229   7.678  23.668   1.933
58162W        W25230  29.565  30.110  10.585
58163W        W25231   8.789  28.601   0.478
58164W        W25232  41.834  32.494   1.276
58165W        W25233  27.038  32.597   0.852
58166W        W25234  34.075  19.598  10.950
58167W        W25235  28.497   7.359   0.838
58168W        W25236  28.502   0.317   2.290
58169W        W25237  13.164  34.384  10.901
58170W        W25238  34.977   7.791   2.865
58171W        W25239  37.915   8.868   2.276
58172W        W25240  33.590   7.836  13.521
58173W        W25241  27.982  40.489   1.397
58174W        W25242  19.659  23.734  13.499
58175W        W25243  19.684   1.832  13.529
58176W        W25244  27.687   0.849   2.191
58177W        W25245   4.787  35.433   4.759
58178W        W25246  15.729  22.208   1.718
58179W        W25247  17.199  41.951  14.420
58180W        W25248  35.566  16.642   4.209
58181W        W25249  30.059  32.927  11.541
58182W        W25250  21.255  25.573   2.835
58183W        W25251  13.281  20.121   0.791
58184W        W25252  28.159   8.350   1.798
58185W        W25253  35.455  44.755   1.327
58186W        W25254  42.001  15.634  13.505
58187W        W25255  22.678  25.507  10.973
58188W        W25256  16.737  44.972   3.303
58189W        W25257  14.824  14.817  14.339
58190W        W25258  11.207  42.431  13.920
58191W        W25259   9.289  22.527   1.230
58192W        W25260   3.423  40.523   3.357
58193W        W25261  36.398  12.230   2.745
58194W        W25262  22.218   4.238   1.414
58195W        W25263  29.125   5.747  14.888
58196W        W25264  25.081  29.122   1.305
58197W        W25265  26.573  13.177   4.618
58198W        W25266  31.018  38.457   0.340
58199W        W25267   5.207   4.303   3.655
58200W        W25268  19.079  27.941   4.758
58201W        W25269  34.462   6.372  12.860
58202W        W25270   4.910  36.349   0.290
58203W        W25271  13.185   2.429   0.358
58204W        W25272  23.669  13.122   0.736
58205W        W25273  33.937  26.507   4.780
58206W        W25274  34.592  10.336   3.694
58207W        W25275  43.860  43.820  14.863
58208W        W25276  20.748  13.153  11.418
58209W        W25277  33.963  29.599  13.480
58210W        W25278   5.213  11.222  11.091
58211W        W25279   3.795  15.772   2.797
58212W        W25280   5.877  37.078   4.269
58213W        W25281  13.335   1.321   2.822
58214W        W25282  34.060  19.042   2.800
58215W        W25283  40.861  20.037  12.058
58216W        W25284  39.042  25.145  13.545
58217W        W25285  13.818  41.951   4.751
58218W        W25286  34.446   0.974   1.440
58219W        W25287   1.873  30.024   4.672
58220W        W25288  29.924  43.768  13.386
58221W        W25289  26.507  26.460  13.804
58222W        W25290  30.053  33.505  12.481
58223W        W25291  11.652   5.803   1.876
58224W        W25292  17.223  10.295   4.290
58225W        W25293  38.923  25.104   2.784
58226W        W25294   4.795  17.798   3.155
58227W        W25295  26.634  25.103   1.275
58228W        W25296  18.708  18.151  13.539
58229W        W25297  32.521   0.935   0.452
58230W        W25298  30.996  27.559  10.469
58231W        W25299  18.276   8.884  10.453
58232W        W25300  38.849   6.701   3.162
58233W        W25301  44.488  13.139   2.276
58234W        W25302  24.629  33.423  11.013
58235W        W25303  17.597  11.161  12.359
58236W        W25304  44.356  16.160  10.507
58237W        W25305  40.038  41.320   1.300
58238W        W25306  25.184  26.968   3.340
58239W        W25307  22.677  41.890  11.477
58240W        W25308  14.732  31.989   2.335
58241W        W25309   5.371   4.239  11.393
58242W        W25310  11.262  25.143   4.126
58243W        W25311   4.359  42.493   1.856
58244W        W25312  12.638   1.331  14.504
58245W        W25313   0.800  44.390   3.280
58246W        W25314  20.130   9.780   2.189
58247W        W25315  21.131  11.317  10.940
58248W        W25316   5.879  24.057   2.185
58249W        W25317  33.617  35.956  13.961
58250W        W25318  39.849   9.218  13.940
58251W        W25319  34.540  29.110   0.816
58252W        W25320  35.056  34.980   4.756
58253W        W25321  14.722  36.450   2.282
58254W        W25322  24.208  34.927  10.931
58255W        W25323  31.077  13.631   2.858
58256W        W25324  14.242   4.858   4.778
58257W        W25325  11.344  41.833   0.422
58258W        W25326  22.069  11.273   1.385
58259W        W25327   1.970  28.583   3.217
58260W        W25328  19.180  15.701   4.837
58261W        W25329   4.925  18.667   1.743
58262W        W25330  19.547  32.944   1.705
58263W        W25331   5.862  22.708   4.718
58264W        W25332  14.287  22.569  14.391
58265W        W25333  42.821   5.883   2.204
58266W        W25334  38.826  40.484  10.072
58267W        W25335  25.510  20.177   4.288
58268W        W25336  28.448  13.757  12.404
58269W        W25337  18.095  16.252   4.165
58270W        W25338   7.860  21.102  11.610
58271W        W25339  33.454  18.656  11.374
58272W        W25340  43.485  16.587  14.828
58273W        W25341   4.852  17.695  10.920
58274W        W25342  36.017   5.356  10.577
58275W        W25343  38.871  36.870  12.503
58276W        W25344  13.773   8.700   0.460
58277W        W25345   3.839  34.099   0.294
58278W        W25346   0.414  27.095  11.000
58279W        W25347  33.591  40.828  10.602
58280W        W25348  20.741  28.536   1.847
58281W        W25349  27.622  21.656  14.923
58282W        W25350  23.622  12.356   1.341
58283W        W25351  16.802  17.567  10.994
58284W        W25352  38.339  30.130  12.869
58285W        W25353  16.089  19.206  14.322
58286W        W25354   0.938  35.416   1.858
58287W        W25355   0.253  38.430  14.799
58288W        W25356  36.962  32.075   0.287
58289W        W25357   4.820  34.049   2.233
58290W        W25358  33.497  42.330   3.355
58291W        W25359   8.389  38.369   2.884
58292W        W25360   5.847  18.250   0.965
58293W        W25361   7.394   7.302  11.088
58294W        W25362  32.972  11.171  13.446
58295W        W25363  29.058  39.894   4.673
58296W        W25364   4.793   3.382   2.807
58297W        W25365  33.452  17.799   4.652
58298W        W25366  10.216  40.485   5.265
58299W        W25367  34.092   4.797  10.031
58300W        W25368  25.476  16.303  14.422
58301W        W25369  34.495   8.388   4.197
58302W        W25370  28.103  24.159   4.778
58303W        W25371  30.075   9.340  13.908
58304W        W25372  31.066  39.813  11.126
58305W        W25373   9.182  25.094  13.372
58306W        W25374  14.251  41.836   4.651
58307W        W25375  24.570  11.304  13.887
58308W        W25376  38.440  14.684   2.885
58309W        W25377  20.758  27.049   4.754
58310W        W25378  20.615   6.877   0.836
58311W        W25379  29.601  14.819   1.255
58312W        W25380  42.466  31.408   2.223
58313W        W25381  35.958  44.789   2.869
58314W        W25382  10.760  40.986  11.072
58315W        W25383   7.218  26.535  12.995
58316W        W25384  40.522  23.232  10.459
58317W        W25385  31.072  10.209  14.811
58318W        W25386  17.620  24.608   0.474
58319W        W25387   7.912  19.188   0.377
58320W        W25388  28.162  24.094  10.916
58321W        W25389  44.393  37.067   2.712
58322W        W25390  35.918   9.882   4.663
58323W        W25391  17.724  20.260  11.373
58324W        W25392  40.951  35.434  12.941
58325W        W25393  40.494   5.696  14.854
58326W        W25394  28.939   0.491  13.898
58327W        W25395  11.791  33.059  10.974
58328W        W25396  22.161   1.360  13.309
58329W        W25397   7.212  20.751  13.015
58330W        W25398  24.724   4.777   3.198
58331W        W25399  33.520  26.595  10.074
58332W        W25400  32.570  41.990  14.021
58333W        W25401  17.169  34.561  10.891
58334W        W25402   6.757  44.918   4.617
58335W        W25403  32.613  22.664  13.021
58336W        W25404  27.943  23.668  13.423
58337W        W25405   4.926  29.581  10.404
58338W        W25406  36.452  40.487  11.053
58339W        W25407  22.133   6.737  10.981
58340W        W25408   6.817  33.404  14.864
58341W        W25409  15.782  43.923   0.769
58342W        W25410  29.032  35.580   3.159
58343W        W25411  17.784  43.808  10.494
58344W        W25412   8.665   6.288  11.970
58345W        W25413   7.699  28.653  14.913
58346W        W25414   4.888   3.377  11.029
58347W        W25415  17.303  16.126  12.844
58348W        W25416  20.271  39.553   3.300
58349W        W25417  36.847  44.848  11.405
58350W        W25418  43.844  19.132  12.923
58351W        W25419  21.140   4.330  12.047
58352W        W25420   2.242  42.895  13.325
58353W        W25421  25.623  25.193   4.160
58354W        W25422   3.235  27.062  14.022
58355W        W25423  40.379  30.578  13.437
58356W        W25424   4.404  15.308  10.984
58357W        W25425  20.272  34.524  11.588
58358W        W25426  43.408  33.563  13.024
58359W        W25427   1.833  13.138   0.738
58360W        W25428  32.916  26.541   3.745
58361W        W25429  36.356  25.547  12.975
58362W        W25430  13.222  34.470   3.821
58363W        W25431  37.063  20.696  12.893
58364W        W25432  10.270   3.412  12.432
58365W        W25433  13.749  20.601  11.586
58366W        W25434  12.264   3.911  11.924
58367W        W25435  29.927   0.868  11.865
58368W        W25436  11.841  10.676  14.459
58369W        W25437  22.118  10.366   0.451
58370W        W25438   9.813   6.240   0.368
58371W        W25439  18.240  37.088   3.229
58372W        W25440  22.028  23.715  10.490
58373W        W25441   6.377   3.868   4.330
58374W        W25442  12.175  16.229  10.983
58375W        W25443  30.501  21.182   4.278
58376W        W25444  29.926  40.328  11.434
58377W        W25445  21.584   7.734   2.190
58378W        W25446  30.110  30.060   2.685
58379W        W25447  29.921  35.110   1.262
58380W        W25448  39.815  39.847  14.885
58381W        W25449   1.278  34.467   4.708
58382W        W25450  40.458  12.763  13.397
58383W        W25451  26.145  23.504  11.903
58384W        W25452  32.522  13.321  11.059
58385W        W25453  38.986   4.895   1.809
58386W        W25454  10.817  13.280   3.853
58387W        W25455   9.187  13.657   2.895
58388W        W25456  18.165  21.024  12.931
58389W        W25457  22.522  14.138  11.861
58390W        W25458  28.944   3.874   0.333
58391W        W25459  28.519  33.389   3.866
58392W        W25460  38.514   1.859  14.292
58393W        W25461  30.936  43.352  13.049
58394W        W25462  16.170  23.115  13.315
58395W        W25463  16.319  17.802  10.634
58396W        W25464  20.637  36.391   4.246
58397W        W25465  44.842  30.022  13.964
58398W        W25466  33.891  14.116   2.868
58399W        W25467  24.715   8.193   3.225
58400W        W25468   9.661  36.040  11.917
58401W        W25469   7.861  35.103   4.743
58402W        W25470   5.397  38.035  10.461
58403W        W25471  12.345  37.532   4.780
58404W        W25472  15.115  35.916   2.703
58405W        W25473  37.028  28.633  14.492
58406W        W25474  27.065  27.013   0.444
58407W        W25475  38.451  26.185   4.766
58408W        W25476  18.581  32.017   2.220
58409W        W25477  13.758  37.865   4.276
58410W        W25478  27.676  16.751   0.464
58411W        W25479  21.531  22.564   0.820
58412W        W25480   2.939  32.963  11.553
58413W        W25481  39.518  34.014  13.978
58414W        W25482  34.404  40.443  11.979
58415W        W25483  23.218  28.969   2.781
58416W        W25484  28.978  25.043  13.005
58417W        W25485  10.692  30.500   4.692
58418W        W25486   4.716  14.225  10.531
58419W        W25487  26.470   2.286  13.971
58420W        W25488  17.125  26.987   1.241
58421W        W25489  15.141  38.340  12.389
58422W        W25490  34.382  40.363   3.832
58423W        W25491  16.100   0.401   4.712
58424W        W25492  14.663  32.036   3.840
58425W        W25493  28.132  10.797   1.747
58426W        W25494  43.310  31.611   4.746
58427W        W25495   5.288  44.971   4.337
58428W        W25496  13.287   4.264  12.901
58429W        W25497  12.738  41.906  14.910
58430W        W25498  13.750  27.531   4.199
58431W        W25499  30.147   5.818   3.360
58432W        W25500  43.888  13.797  11.501
58433W        W25501   6.769  42.281   4.273
58434W        W25502  18.105  30.112   4.198
58435W        W25503  12.339  39.325  13.918
58436W        W25504  31.150  43.921   1.407
58437W        W25505   2.327  29.446   3.812
58438W        W25506   1.433  17.619   1.394
58439W        W25507  11.718  34.608  12.502
58440W        W25508  29.156  33.480   9.924
58441W        W25509  15.658  13.244  11.940
58442W        W25510  40.894  10.806  13.817
58443W        W25511  26.603  10.688   3.299
58444W        W25512  10.163   7.685  13.961
58445W        W25513  10.211   8.807  10.011
58446W        W25514  21.735  25.092  13.360
58447W        W25515   0.488   8.700   4.160
58448W        W25516  31.916  14.298  13.832
58449W        W25517  12.134   4.411   4.720
58450W        W25518  43.776  36.866  13.025
58451W        W25519  41.488  19.560   0.274
58452W        W25520  33.004   2.730  14.310
58453W        W25521  32.920   5.347   1.808
58454W        W25522  20.691  14.632   2.301
58455W        W25523  15.582  24.481  12.579
58456W        W25524   3.749  19.145  14.855
58457W        W25525  43.842  38.897   2.791
58458W        W25526   4.761  41.802  13.357
58459W        W25527   6.801  21.167   2.891
58460W        W25528   1.382   9.848  10.909
58461W        W25529  10.842  32.120   9.970
58462W        W25530  39.409  39.435   0.336
58463W        W25531  38.067  21.697  10.431
58464W        W25532  43.359  19.115   1.789
58465W        W25533   0.297  30.549   4.166
58466W        W25534  26.068  43.401   0.377
58467W        W25535   7.392   4.427  10.456
58468W        W25536   0.355  32.431   3.684
58469W        W25537  37.354  25.967   4.303
58470W        W25538  18.784  35.097   1.424
58471W        W25539  18.744  23.556  10.127
58472W        W25540  20.275  24.155   1.416
58473W        W25541  23.660  10.656   2.769
58474W        W25542  24.018  41.964  10.564
58475W        W25543  43.783  16.785   1.785
58476W        W25544  15.152  14.688  11.532
58477W        W25545  25.021   6.248  14.818
58478W        W25546  29.006   2.345  13.824
58479W        W25547   9.804  24.074   2.710
58480W        W25548   7.823  28.556  11.483
58481W        W25549  28.566  32.985   0.287
58482W        W25550  18.617  35.371  14.397
58483W        W25551   2.918  35.032   2.320
58484W        W25552   9.815  23.530   2.272
58485W        W25553  32.035  33.967   1.327
58486W        W25554  10.698  16.232   1.387
58487W        W25555  41.308  23.697   1.918
58488W        W25556  28.000   3.414  10.984
58489W        W25557  33.579  34.032   0.936
58490W        W25558  29.640  24.521   1.224
58491W        W25559  16.809  34.438   3.283
58492W        W25560   3.784  44.902   2.731
58493W        W25561  15.315  13.795   4.215
58494W        W25562   7.900  31.643  14.367
58495W        W25563  15.580  37.439   2.712
58496W        W25564  20.169   5.205   0.363
58497W        W25565  28.533  38.017   2.349
58498W        W25566  27.990  43.315   1.742
58499W        W25567  33.100  12.718  13.952
58500W        W25568   3.351   2.794   0.923
58501W        W25569   0.352   5.694  13.808
58502W        W25570  25.575  19.076  11.993
58503W        W25571   8.858  31.459  11.383
58504W        W25572  27.018   0.381  13.500
58505W        W25573  30.082  28.493  12.502
58506W        W25574  20.150  24.066  12.364
58507W        W25575  42.409  43.505  14.787
58508W        W25576  19.260  27.943  10.547
58509W        W25577  33.482   7.316  14.339
58510W        W25578   6.329   4.901   4.656
58511W        W25579  32.503  28.141  14.773
58512W        W25580  31.466  44.951  14.336
58513W        W25581  29.446  22.518   2.256
58514W        W25582  34.504  37.406   0.281
58515W        W25583  22.519  26.676  10.601
58516W        W25584  14.665  23.205  14.782
58517W        W25585  43.388  26.689  10.941
58518W        W25586  15.736  15.645   5.219
58519W        W25587   3.230  28.084   0.354
58520W        W25588   7.740  14.249   0.760
58521W        W25589  44.824  40.913  10.572
58522W        W25590  26.590  33.961  12.835
58523W        W25591   4.746   2.958  13.881
58524W        W25592  35.022  21.739  13.017
58525W        W25593  27.473  34.895  13.965
58526W        W25594  27.167  37.915  14.858
58527W        W25595  36.937  14.616   3.713
58528W        W25596  10.711  39.994  12.524
58529W        W25597   7.849  31.633  11.528
58530W        W25598  40.817   3.416  13.845
58531W        W25599   1.460  30.946  13.346
58532W        W25600  20.681   4.419  13.797
58533W        W25601  32.597  27.070  13.399
58534W        W25602  23.551   0.915  14.343
58535W        W25603  44.490  13.118  10.561
58536W        W25604  32.004  36.460   1.437
58537W        W25605  28.085  35.604   0.298
58538W        W25606  40.001  10.704  12.372
58539W        W25607  33.007   8.699   1.700
58540W        W25608  21.722   5.766   1.796
58541W        W25609   3.916  26.528  12.535
58542W        W25610   1.972  44.488   2.205
58543W        W25611  13.226  12.839  13.008
58544W        W25612  41.419  30.970   4.317
58545W        W25613  32.624  30.531   2.236
58546W        W25614  42.825   8.815  13.045
58547W        W25615  30.089  28.551   1.269
58548W        W25616  20.088  20.225  10.569
58549W        W25617  24.614  39.323  14.461
58550W        W25618   1.247  12.631  10.938
58551W        W25619  10.183   4.266  10.135
58552W        W25620  17.114  10.853  13.348
58553W        W25621  32.118  10.838  14.438
58554W        W25622  17.726   3.269   4.659
58555W        W25623  21.614  37.865   1.897
58556W        W25624  10.834  41.309  14.291
58557W        W25625  38.915  20.704  14.820
58558W        W25626  19.627   2.412  14.497
58559W        W25627  34.896  19.627   1.865
58560W        W25628  17.127  28.503  14.988
58561W        W25629   6.883   4.877  10.022
58562W        W25630  33.899  35.359  11.904
58563W        W25631  21.554  27.592   2.674
58564W        W25632   7.856  41.841   0.926
58565W        W25633  12.283  34.077   3.221
58566W        W25634  31.420  27.989  13.013
58567W        W25635   4.860  34.429  10.934
58568W        W25636  40.979   4.748  13.373
58569W        W25637  14.808  38.854   0.874
58570W        W25638   2.349   7.379  11.486
58571W        W25639  13.796  33.585  10.440
58572W        W25640   5.796  23.040   2.672
58573W        W25641  39.063  31.502   1.410
58574W        W25642  40.845   7.710   3.162
58575W        W25643  43.955  29.491  14.760
58576W        W25644  27.614  34.481  14.876
58577W        W25645   1.827  40.391   4.625
58578W        W25646   0.873  38.461  13.844
58579W        W25647  13.841  31.601   2.319
58580W        W25648  35.442  31.430  10.947
58581W        W25649  36.406   3.806   1.431
58582W        W25650   4.767  25.679  13.477
58583W        W25651  37.474  17.796   0.816
58584W        W25652  21.087  29.132   4.650
58585W        W25653   3.853  43.401  12.012
58586W        W25654  40.398   4.379  12.414
58587W        W25655   6.310  38.882   2.800
58588W        W25656  13.810  42.833   1.933
58589W        W25657  25.085  41.988  14.352
58590W        W25658  25.710  15.144   0.904
58591W        W25659  18.154  11.792  14.802
58592W        W25660  38.058  27.522   1.351
58593W        W25661  37.558  42.460  10.427
58594W        W25662   3.357   4.229  13.991
58595W        W25663  44.881  19.747   3.156
58596W        W25664  26.996  11.277   4.237
58597W        W25665  13.733  27.565  11.598
58598W        W25666  23.080   9.653   1.761
58599W        W25667  26.525   7.870  13.876
58600W        W25668  36.900   3.888   3.771
58601W        W25669  10.733  15.611  10.142
58602W        W25670  21.583  43.288   0.403
58603W        W25671  37.468  34.028  14.893
58604W        W25672  21.230  25.524   1.214
58605W        W25673   1.346  10.733  12.935
58606W        W25674   4.700  27.633   1.854
58607W        W25675  25.474  24.191  10.930
58608W        W25676  31.040  34.577  14.388
58609W        W25677  36.960  31.938  11.857
58610W        W25678  39.832   6.295  13.042
58611W        W25679  42.827  12.306  12.991
58612W        W25680  30.562   3.844   4.794
58613W        W25681  37.844  12.803   0.398
58614W        W25682   5.726  20.170   2.722
58615W        W25683  32.965  36.418   0.480
58616W        W25684  26.982  12.831  11.913
58617W        W25685  22.252   8.357  13.831
58618W        W25686   2.856   1.830   4.738
58619W        W25687   3.805  33.415  10.602
58620W        W25688  33.927  27.681  11.411
58621W        W25689  27.542  42.306   2.279
58622W        W25690  13.114   5.893   4.319
58623W        W25691  18.558  14.702  11.557
58624W        W25692   5.885  35.091  11.405
58625W        W25693  32.032  20.591  14.314
58626W        W25694  26.640   4.757   0.314
58627W        W25695  33.403   3.754  10.524
58628W        W25696  32.494  26.463  12.056
58629W        W25697  44.460  34.454   3.802
58630W        W25698   4.880  12.185  11.971
58631W        W25699  31.936  11.178  11.539
58632W        W25700  11.286  36.921   0.887
58633W        W25701  40.964  17.578   4.830
58634W        W25702  27.596  40.535   4.788
58635W        W25703  22.500  18.632   2.840
58636W        W25704  25.021  12.829   2.898
58637W        W25705  40.402  21.052  14.357
58638W        W25706  33.559  11.625  14.362
58639W        W25707  35.420  27.034  11.396
58640W        W25708  44.957  13.207  11.914
58641W        W25709  17.068   1.962   1.819
58642W        W25710  16.308  25.987  10.937
58643W        W25711  44.825  17.109  14.279
58644W        W25712  26.583  36.975   4.655
58645W        W25713  43.441   2.310  12.513
58646W        W25714   2.934  24.211  11.983
58647W        W25715  34.471   1.851   0.754
58648W        W25716  37.552  22.729  14.802
58649W        W25717  17.784  11.156  12.045
58650W        W25718  38.456  14.182   0.760
58651W        W25719  37.087  22.708  13.935
58652W        W25720  24.229  23.722   2.839
58653W        W25721  40.459  10.160   2.209
58654W        W25722  36.395  37.372   2.880
58655W        W25723  34.412  37.454   2.319
58656W        W25724  43.446  25.202   3.182
58657W        W25725  36.420   2.373  13.941
58658W        W25726  43.488  42.369   1.405
58659W        W25727  18.709  44.382   3.798
58660W        W25728  41.010  10.837   4.676
58661W        W25729  42.003  29.072  11.020
58662W        W25730  14.810  23.223   3.852
58663W        W25731  14.788  18.562  14.884
58664W        W25732  42.914  23.065   3.858
58665W        W25733  43.289   5.694  13.348
58666W        W25734  29.933  10.180  10.551
58667W        W25735   0.259  12.291   1.279
58668W        W25736  25.054  32.126  10.501
58669W        W25737  35.978  19.201  10.584
58670W        W25738   4.884  19.667   4.622
58671W        W25739  31.148  13.124  14.959
58672W        W25740  13.138  42.499   2.358
58673W        W25741  27.075  29.587   1.346
58674W        W25742  15.632   1.455   0.246
58675W        W25743  23.569  42.831   1.351
58676W        W25744  41.788  25.095  11.554
58677W        W25745  32.589  28.470   3.302
58678W        W25746  12.185  39.818  12.529
58679W        W25747  26.194  35.386   4.197
58680W        W25748  21.154  22.215   0.418
58681W        W25749  11.806  27.626  12.068
58682W        W25750  38.549   1.243   1.748
58683W        W25751   9.850  40.446  13.428
58684W        W25752  37.469  13.645  10.566
58685W        W25753  22.124  27.983  13.033
58686W        W25754   4.268   4.894   1.428
58687W        W25755   1.459  20.259  11.588
58688W        W25756  21.697  19.636   1.767
58689W        W25757  35.902  10.177   1.436
58690W        W25758  13.736  20.748   0.859
58691W        W25759   4.884  13.642   0.956
58692W        W25760   8.163  30.034  10.462
58693W        W25761  28.171  18.684   2.287
58694W        W25762  34.611   0.411  14.932
58695W        W25763  25.104  31.965  11.437
58696W        W25764   3.352  26.062  12.568
58697W        W25765  18.555   8.882   0.310
58698W        W25766  20.116  23.509   4.612
58699W        W25767  10.269  34.999   4.194
58700W        W25768   1.428   1.351  14.495
58701W        W25769  23.059   3.841  10.960
58702W        W25770  22.506  38.531   0.845
58703W        W25771  40.440   0.465  14.855
58704W        W25772  19.254   2.431  14.893
58705W        W25773  33.127  40.927  12.864
58706W        W25774  10.851  24.988   3.732
58707W        W25775  11.329  16.770   3.198
58708W        W25776  18.179  30.425   3.383
58709W        W25777  41.891  42.485  11.612
58710W        W25778  44.268  43.777   4.303
58711W        W25779  40.935  23.042   4.269
58712W        W25780   2.409  21.096   1.329
58713W        W25781   0.748  20.092  14.992
58714W        W25782  22.548  29.614  14.311
58715W        W25783  43.362  13.837  12.865
58716W        W25784   5.218  11.797   4.271
58717W        W25785  14.113  16.650  14.378
58718W        W25786  16.184   7.300   1.761
58719W        W25787  17.078   0.400  14.332
58720W        W25788   7.345  27.510  14.959
58721W        W25789  15.313   2.899  13.809
58722W        W25790  27.511   9.717   2.407
58723W        W25791  38.543  30.484   4.817
58724W        W25792   7.203  22.045  14.463
58725W        W25793   7.350  42.875   1.214
58726W        W25794  27.065  34.380   4.185
58727W        W25795   5.813  27.558   1.801
58728W        W25796   3.317  43.789  11.023
58729W        W25797  33.893  33.459   2.407
58730W        W25798  26.188   0.826  13.836
58731W        W25799  40.482  41.936   1.264
58732W        W25800  24.676  25.713  11.054
58733W        W25801  33.401  13.148  13.820
58734W        W25802  17.171  37.409   2.364
58735W        W25803  31.962  31.903  13.022
58736W        W25804  42.311  19.262  11.400
58737W        W25805  38.077   6.802  13.462
58738W        W25806  19.611  22.746  14.907
58739W        W25807  37.887   5.224   1.228
58740W        W25808  23.006  20.262   2.311
58741W        W25809  18.268  23.020   0.295
58742W        W25810  12.353  28.473  13.996
58743W        W25811   5.342   4.276  14.366
58744W        W25812   1.847  33.082   0.414
58745W        W25813  11.638  27.460  14.437
58746W        W25814  21.690  42.900   9.950
58747W        W25815  31.033  36.922   2.705
58748W        W25816  34.088  26.189  11.987
58749W        W25817  37.498  18.115   4.633
58750W        W25818  39.853   2.934   2.802
58751W        W25819  30.093  37.542   3.696
58752W        W25820  24.169  20.652  13.378
58753W        W25821   3.813  30.967   4.199
58754W        W25822  40.548  12.342   3.281
58755W        W25823  11.318  21.223   0.375
58756W        W25824  44.856   0.283   1.304
58757W        W25825  31.003  12.246   4.228
58758W        W25826  39.043   6.197  13.889
58759W        W25827  16.280   3.933  11.985
58760W        W25828  37.523  25.580  12.860
58761W        W25829  43.344  17.755  12.901
58762W        W25830  23.230  24.213   4.293
58763W        W25831   0.256  37.395  11.416
58764W        W25832  10.850  43.805  14.299
58765W        W25833  39.398   4.730   1.310
58766W        W25834  41.464  12.282  11.443
58767W        W25835  34.425   7.174  13.400
58768W        W25836  32.019  17.151  14.493
58769W        W25837  42.368  17.795   2.761
58770W        W25838  15.109  15.235   3.367
58771W        W25839  28.537  28.629  12.941
58772W        W25840  38.059   7.305   4.296
58773W        W25841  15.288  22.057   3.218
58774W        W25842  17.765   3.831  10.893
58775W        W25843   0.937  33.947  12.856
58776W        W25844   5.827  17.172   3.728
58777W        W25845  28.540  38.869   0.833
58778W        W25846  16.201  25.989   0.457
58779W        W25847  12.329  25.966   2.337
58780W        W25848  23.990  42.428   1.445
58781W        W25849  39.049  28.020  14.338
58782W        W25850   7.280   7.355   3.822
58783W        W25851   4.242  31.569  13.938
58784W        W25852  22.545   8.181   2.382
58785W        W25853   7.239   2.874   0.339
58786W        W25854  27.446  40.409  13.832
58787W        W25855  28.042  13.248   4.315
58788W        W25856   0.436  17.169  13.346
58789W        W25857  32.885  44.371  13.865
58790W        W25858  36.968  25.540   3.673
58791W        W25859  14.688  30.422   4.239
58792W        W25860  30.478  38.988   2.703
58793W        W25861  43.006  33.472  12.092
58794W        W25862  26.659  20.055   2.232
58795W        W25863  18.710  22.152   3.202
58796W        W25864  35.928  12.709  12.342
58797W        W25865  10.731  20.559  10.608
58798W        W25866   2.464  37.566  10.511
58799W        W25867   5.692  24.623  13.986
58800W        W25868  11.332  13.671  11.942
58801W        W25869   4.942  12.135  10.559
58802W        W25870  19.590  35.066   3.696
58803W        W25871  14.115  21.538  14.880
58804W        W25872  26.590  12.706   0.887
58805W        W25873  12.647  34.864  13.850
58806W        W25874  18.722  34.926   0.743
58807W        W25875   1.861  26.572  11.026
58808W        W25876   6.354  38.988  11.070
58809W        W25877  21.243  23.559   0.944
58810W        W25878  27.967   3.392   3.206
58811W        W25879  12.142  32.407   2.701
58812W        W25880  24.639  36.522  12.045
58813W        W25881   0.456  28.171  13.434
58814W        W25882  20.216  23.510  14.026
58815W        W25883  13.299  14.283   0.347
58816W        W25884  18.052  27.629  11.610
58817W        W25885  11.788  17.189   4.225
58818W        W25886  29.477  43.911  12.477
58819W        W25887  32.628  43.495   2.810
58820W        W25888  43.431  35.396  12.089
58821W        W25889  27.668  20.726  12.456
58822W        W25890  10.671  33.128   2.356
58823W        W25891  41.399   8.766   2.398
58824W        W25892  23.150  19.775  14.893
58825W        W25893  42.459  39.926  14.339
58826W        W25894   2.788  14.661  14.852
58827W        W25895   7.667  35.862   2.816
58828W        W25896  13.143   9.772  14.317
58829W        W25897   5.396  35.047   0.849
58830W        W25898  13.176  17.233  14.016
58831W        W25899  40.971  17.151  12.886
58832W        W25900  25.206   2.897  14.429
58833W        W25901  36.349   6.886  14.788
58834W        W25902   1.333  28.458   3.751
58835W        W25903  37.413  27.647   1.761
58836W        W25904  24.072  15.254   4.115
58837W        W25905  35.920   2.434  11.390
58838W        W25906  20.212  12.249   2.852
58839W        W25907  13.731  25.068  13.052
58840W        W25908   4.308   6.914   3.168
58841W        W25909  12.226  40.466  13.504
58842W        W25910  20.253   4.226   4.834
58843W        W25911  38.470   0.782   1.450
58844W        W25912  36.412  20.701   0.436
58845W        W25913  37.847  24.076   4.194
58846W        W25914  21.652  35.861   4.126
58847W        W25915   4.343   5.869   2.409
58848W        W25916   6.781  36.037  12.972
58849W        W25917  10.308  25.110   2.419
58850W        W25918  26.689  15.778  13.919
58851W        W25919  32.063  23.526   4.703
58852W        W25920  16.187  31.990   0.818
58853W        W25921  42.025  19.239   0.895
58854W        W25922  43.363   7.797  10.476
58855W        W25923   5.211  34.548  11.511
58856W        W25924  34.900   6.288   1.267
58857W        W25925  34.976  17.582   2.800
58858W        W25926  41.862   0.784  12.491
58859W        W25927   8.165   9.665  14.318
58860W        W25928   0.362  16.726  11.548
58861W        W25929  30.599  15.713  14.911
58862W        W25930  40.526  41.907  14.321
58863W        W25931  16.231  27.578   2.202
58864W        W25932  29.477  29.995  14.399
58865W        W25933  42.912  10.857  10.494
58866W        W25934   9.860  13.317  10.907
58867W        W25935  23.081   4.909   3.346
58868W        W25936  23.496  23.004   4.350
58869W        W25937  23.683  13.704   3.251
58870W        W25938   6.761   1.860   1.379
58871W        W25939  31.552  37.527  13.854
58872W        W25940  39.903  31.945  13.311
58873W        W25941  38.394  20.564   4.242
58874W        W25942  22.183  29.559  10.941
58875W        W25943  33.618  10.343   0.303
58876W        W25944  25.684  31.600   1.780
58877W        W25945  22.713  29.467  12.411
58878W        W25946  15.125  22.185  13.885
58879W        W25947  11.241  33.611  12.922
58880W        W25948   8.894   8.689  11.101
58881W        W25949  32.047  14.106   1.881
58882W        W25950  24.211   2.416   4.275
58883W        W25951  19.249  25.590  10.967
58884W        W25952  31.135  27.163   2.256
58885W        W25953  31.026  29.574   2.813
58886W        W25954  28.946  27.038   4.760
58887W        W25955  14.696  33.082   1.871
58888W        W25956  16.732  11.195  12.442
58889W        W25957  15.818  23.024  11.043
58890W        W25958  12.801   6.764  13.961
58891W        W25959  19.068  14.142   2.293
58892W        W25960  43.844  39.484   2.689
58893W        W25961  27.499  34.576  11.097
58894W        W25962  31.410  33.491   3.349
58895W        W25963  12.677  37.908  13.858
58896W        W25964  24.694  28.507   3.276
58897W        W25965  24.007  21.201  11.989
58898W        W25966  26.686  42.484   4.266
58899W        W25967  10.855   6.754  13.916
58900W        W25968  43.006   2.229   1.379
58901W        W25969  15.683  40.489   3.351
58902W        W25970   7.226  28.158   5.205
58903W        W25971  37.877  30.639   4.128
58904W        W25972  24.586  29.470  14.972
58905W        W25973  35.561  18.619  12.416
58906W        W25974  10.306  31.964   0.961
58907W        W25975  37.889  15.630   0.829
58908W        W25976  39.044   0.897  12.868
58909W        W25977  42.490  32.029  11.030
58910W        W25978  13.285  37.964   1.305
58911W        W25979  24.686  25.080   3.670
58912W        W25980  15.773  37.866   4.191
58913W        W25981  38.425  20.551   0.450
58914W        W25982  38.364  17.571   3.643
58915W        W25983  43.432  42.302  12.520
58916W        W25984   2.920  29.633  13.846
58917W        W25985  34.514   9.394   3.273
58918W        W25986   6.783  30.110   1.782
58919W        W25987  27.111  25.581   1.246
58920W        W25988  21.667   4.847   3.689
58921W        W25989  22.108  16.234   0.862
58922W        W25990   8.183  36.591   3.295
58923W        W25991   4.902   7.276  14.840
58924W        W25992  29.038  10.210   4.777
58925W        W25993  39.543  15.580  14.407
58926W        W25994  29.465   8.713  12.419
58927W        W25995   8.209  22.251  10.946
58928W        W25996  28.066  21.030   1.856
58929W        W25997  44.442  38.364   1.850
58930W        W25998  18.629  42.506  11.068
58931W        W25999  10.141  38.977  14.802
58932W        W26000  22.664  37.579  13.951
58933W        W26001  12.320  14.235   1.396
58934W        W26002  23.571   9.234  14.961
58935W        W26003  33.907   4.911   1.247
58936W        W26004  17.301  20.240  12.850
58937W        W26005  15.750  42.933   9.997
58938W        W26006  34.951  35.907  10.022
58939W        W26007  14.750  33.595  12.576
58940W        W26008  40.456   6.761  14.397
58941W        W26009  17.627  38.891   0.363
58942W        W26010  30.625   0.878   0.887
58943W        W26011  41.799  35.897   2.398
58944W        W26012  36.085  19.574   4.601
58945W        W26013  33.568  42.794   5.199
58946W        W26014  35.085  30.475  13.910
58947W        W26015   1.975   4.807  13.872
58948W        W26016   8.231  24.074  10.971
58949W        W26017  15.115  30.470   1.931
58950W        W26018  29.977  38.944  10.928
58951W        W26019   2.810  15.650  12.413
58952W        W26020   9.314  43.857  13.905
58953W        W26021  35.567  18.790   4.309
58954W        W26022   3.329  43.309   4.721
58955W        W26023  39.050  43.895  14.390
58956W        W26024  30.498  25.666   3.772
58957W        W26025  34.981  29.635   4.300
58958W        W26026  28.178  34.927   0.731
58959W        W26027   4.885  14.692  12.088
58960W        W26028  22.646  14.613   2.394
58961W        W26029  36.925  30.063   0.424
58962W        W26030  27.059  27.464   4.617
58963W        W26031  11.219  20.585   4.646
58964W        W26032  32.469  41.437   4.656
58965W        W26033  13.681  32.489  11.898
58966W        W26034   8.395  13.156   0.868
58967W        W26035  27.107  33.565   0.301
58968W        W26036  32.902  18.670   1.293
58969W        W26037  29.064  36.505  13.971
58970W        W26038  19.560  25.208   1.764
58971W        W26039  40.986  27.138   2.177
58972W        W26040   6.773  30.446  10.521
58973W        W26041  10.188  37.520   4.345
58974W        W26042  23.209  17.596   0.788
58975W        W26043  16.289  39.814  10.531
58976W        W26044   2.774  14.661  13.821
58977W        W26045  29.600  34.473   2.853
58978W        W26046  41.453  18.074   1.393
58979W        W26047  36.998  40.494  10.947
58980W        W26048  40.539  37.846  10.570
58981W        W26049  13.627  26.671  13.409
58982W        W26050  20.097   0.333  12.052
58983W        W26051  11.815  29.173  13.475
58984W        W26052   4.796  29.963  13.392
58985W        W26053  39.940  42.980  14.835
58986W        W26054  19.200  41.339  12.914
58987W        W26055   2.389  41.020  12.344
58988W        W26056  35.096   4.413  14.435
58989W        W26057  29.075   9.395   3.808
58990W        W26058   4.840  29.054  11.117
58991W        W26059  44.350   0.925  14.809
58992W        W26060  17.563  35.071   2.253
58993W        W26061  23.046  36.020   0.478
58994W        W26062  40.944  40.371   4.722
58995W        W26063  41.903  21.520  14.009
58996W        W26064  37.044  12.330  12.456
58997W        W26065  26.470  24.632  11.062
58998W        W26066  36.408  33.982   3.713
58999W        W26067  28.089  21.605   9.933
59000W        W26068   1.256  25.573   2.329
59001W        W26069  44.420  35.102   0.775
59002W        W26070  40.496  15.806  12.456
59003W        W26071  36.975  30.517   4.637
59004W        W26072   6.298   9.262   1.260
59005W        W26073  35.533   7.901   1.749
59006W        W26074  37.967  29.465   0.885
59007W        W26075  43.998   3.291   1.776
59008W        W26076  24.703  26.576  11.606
59009W        W26077  11.265  13.679   3.219
59010W        W26078  43.771  28.547  11.546
59011W        W26079  14.246  11.136   1.368
59012W        W26080  11.222  31.428  13.388
59013W        W26081   2.842   6.697  10.406
59014W        W26082  43.499  16.781  14.321
59015W        W26083  32.499  36.978  10.531
59016W        W26084  18.168   5.429  14.317
59017W        W26085  24.653  27.594   2.794
59018W        W26086   0.911  34.419  13.837
59019W        W26087  27.959  32.136   3.825
59020W        W26088  12.180  22.143  11.565
59021W        W26089  16.772  25.509   3.640
59022W        W26090  38.520  42.021  12.423
59023W        W26091  29.110  18.201   2.383
59024W        W26092   2.450  21.027   9.928
59025W        W26093  31.501   2.386   0.881
59026W        W26094  22.089  17.275  10.978
59027W        W26095  42.990  23.638  14.770
59028W        W26096  30.483  16.642   2.270
59029W        W26097  38.460  43.276  12.835
59030W        W26098   7.784  15.184  11.066
59031W        W26099  30.468  16.598  13.063
59032W        W26100  33.009  35.010   4.174
59033W        W26101   5.715  24.704  11.964
59034W        W26102  31.586  41.928   0.783
59035W        W26103  43.419  25.114  11.483
59036W        W26104  39.863  29.985   1.932
59037W        W26105  26.525  35.017  13.357
59038W        W26106  18.610  16.091  10.985
59039W        W26107  16.768   0.412  12.029
59040W        W26108  37.484  39.826  13.937
59041W        W26109  27.085   0.963   0.354
59042W        W26110  21.523  31.957   2.359
59043W        W26111   2.263  35.057   1.376
59044W        W26112  13.747  10.792   3.229
59045W        W26113  34.536  24.722   0.924
59046W        W26114  23.643  18.692  14.406
59047W        W26115  17.219   1.800   1.419
59048W        W26116  42.494  17.745  13.856
59049W        W26117   5.387   2.359  11.988
59050W        W26118   9.334   4.881   3.274
59051W        W26119  40.978  21.195   3.236
59052W        W26120  25.066  43.802  12.918
59053W        W26121  32.128  26.154  11.096
59054W        W26122   8.361  20.633  10.529
59055W        W26123  27.964  18.771  12.938
59056W        W26124   2.925  17.569  12.379
59057W        W26125  11.791  10.315  11.520
59058W        W26126  15.322  28.019   4.776
59059W        W26127  16.594  15.320   4.612
59060W        W26128  33.460  35.050   3.778
59061W        W26129  43.296  11.773   1.934
59062W        W26130  28.945  27.657   1.811
59063W        W26131   6.790  31.106  13.358
59064W        W26132   3.277  31.495   2.703
59065W        W26133   8.273  31.135   3.316
59066W        W26134   2.463  27.986  14.986
59067W        W26135   7.335  20.626  12.499
59068W        W26136   6.839   7.259   1.264
59069W        W26137   1.449  35.955   5.293
59070W        W26138  38.998  10.284   3.735
59071W        W26139  27.047  18.655  11.065
59072W        W26140   9.788  42.889  11.586
59073W        W26141  30.028  20.228   2.893
59074W        W26142  17.256  30.063   1.410
59075W        W26143   1.763  21.212   2.827
59076W        W26144  43.932  43.313   4.606
59077W        W26145  32.556   7.881   0.819
59078W        W26146   6.813  38.525  11.570
59079W        W26147  11.804  26.610   2.315
59080W        W26148   5.408  42.022  13.037
59081W        W26149  43.826   1.454  10.578
59082W        W26150  35.889   4.935   3.358
59083W        W26151  32.119   7.304   4.720
59084W        W26152  44.906   8.256   3.802
59085W        W26153  22.603  20.539   0.951
59086W        W26154  15.311  23.633  14.025
59087W        W26155  28.465  13.793  10.030
59088W        W26156  24.191  43.451  10.918
59089W        W26157  39.032  27.033  14.761
59090W        W26158  27.608   8.220   0.354
59091W        W26159  29.492   8.726  10.024
59092W        W26160  13.642  40.398   0.835
59093W        W26161  22.157  40.404  13.860
59094W        W26162  23.023  34.587   1.720
59095W        W26163  22.208  11.274  14.934
59096W        W26164  12.668  21.247   4.281
59097W        W26165  44.822  44.867   3.863
59098W        W26166  11.338  23.126   4.618
59099W        W26167  24.212  16.237   4.220
59100W        W26168  12.348  39.045   3.834
59101W        W26169  21.728  11.250  10.475
59102W        W26170   0.915  35.897  14.821
59103W        W26171   0.911  35.919  13.879
59104W        W26172  11.665  44.351   3.646
59105W        W26173   9.356  26.687  13.893
59106W        W26174   3.337  43.974  13.057
59107W        W26175  26.667  12.816   4.835
59108W        W26176  32.923   7.665   2.419
59109W        W26177  24.218  41.293   4.802
59110W        W26178  36.096  33.015  12.859
59111W        W26179  33.016  20.087   2.747
59112W        W26180  35.023   9.204  10.932
59113W        W26181  31.898  10.287   3.370
59114W        W26182  31.617  38.835   4.655
59115W        W26183  14.228  12.232  11.484
59116W        W26184   5.435  41.965   1.212
59117W        W26185   8.801  25.695  11.457
59118W        W26186  15.695  30.630  14.825
59119W        W26187  31.531  42.337   1.699
59120W        W26188  20.249  33.961   1.349
59121W        W26189   8.319  29.992   1.321
59122W        W26190  25.469  42.986  13.462
59123W        W26191  36.370  29.660  13.020
59124W        W26192  40.314  44.791  11.424
59125W        W26193  24.725  43.413  13.953
59126W        W26194   0.357   9.245   0.333
59127W        W26195  24.066  22.111  13.849
59128W        W26196  14.648  13.683  11.873
59129W        W26197   5.765  15.271   3.835
59130W        W26198  34.374  43.956   4.686
59131W        W26199   6.226   3.332  11.498
59132W        W26200  38.331  24.062  10.485
59133W        W26201  14.230  41.293   3.323
59134W        W26202  33.594  16.671   1.853
59135W        W26203  11.805  16.567   2.261
59136W        W26204  18.630   5.721   0.756
59137W        W26205  16.692  18.293   0.869
59138W        W26206  44.458  36.982   1.442
59139W        W26207  13.170  15.153  14.023
59140W        W26208  32.627  39.856   2.846
59141W        W26209  25.108   0.800  13.509
59142W        W26210  33.113  12.830   3.149
59143W        W26211  34.917  12.808   3.810
59144W        W26212  35.941   9.174  12.386
59145W        W26213  35.462   1.276  11.572
59146W        W26214  37.416   0.322   9.998
59147W        W26215   3.884  12.777  12.961
59148W        W26216  21.183  24.495   1.360
59149W        W26217  27.460  24.537   0.870
59150W        W26218  23.719  18.727   3.846
59151W        W26219  28.011  24.055   2.219
59152W        W26220  11.169  10.173  10.160
59153W        W26221  13.665  34.029   2.749
59154W        W26222   0.372  18.173   1.425
59155W        W26223  43.347  39.372   1.356
59156W        W26224  27.186  18.660  12.554
59157W        W26225  33.936   0.865   4.205
59158W        W26226  32.891  25.652  12.490
59159W        W26227  26.143  25.577  14.816
59160W        W26228  20.108  34.369   4.751
59161W        W26229   7.711  23.127  11.911
59162W        W26230   2.855  13.185   4.622
59163W        W26231  36.408  10.729   1.298
59164W        W26232  42.454  28.957  11.071
59165W        W26233  27.069  31.438  10.911
59166W        W26234  40.979  16.748   4.778
59167W        W26235  16.578  27.587  11.508
59168W        W26236  35.369  38.492   4.693
59169W        W26237  20.668   7.318   0.856
59170W        W26238  25.549   0.846  10.495
59171W        W26239  43.891  27.530  11.867
59172W        W26240  31.031  37.532   2.808
59173W        W26241   1.320  26.653  12.917
59174W        W26242   7.280  28.615   2.209
59175W        W26243  37.088  19.756   2.266
59176W        W26244   0.821   3.846  14.365
59177W        W26245  40.477  35.031   4.736
59178W        W26246  13.225  12.786   3.187
59179W        W26247   2.302   6.854  12.997
59180W        W26248  39.357  27.563   0.858
59181W        W26249   1.462  19.168   0.329
59182W        W26250  37.021   1.248   0.444
59183W        W26251  28.468   8.810  12.352
59184W        W26252  39.018  37.383   4.700
59185W        W26253  39.812  21.122  11.373
59186W        W26254  15.224  31.516   1.372
59187W        W26255  36.978   7.733   3.740
59188W        W26256  40.053  35.859   0.389
59189W        W26257  41.446   3.403   4.197
59190W        W26258  26.051   2.743   4.662
59191W        W26259  20.190  25.542   4.790
59192W        W26260  31.108   7.383  10.888
59193W        W26261  16.244  32.103   4.745
59194W        W26262  36.883  23.538  11.372
59195W        W26263  19.115  12.165   1.308
59196W        W26264  35.554   7.401   0.927
59197W        W26265  42.450  33.897  13.024
59198W        W26266   3.784  28.468  10.520
59199W        W26267   9.706  35.424  14.839
59200W        W26268  27.180  16.316  10.466
59201W        W26269  25.714  11.731   9.927
59202W        W26270  20.736  37.914   1.401
59203W        W26271  25.644   5.856   3.306
59204W        W26272  18.714  27.038   0.382
59205W        W26273  23.167   6.905  10.607
59206W        W26274   0.859  25.479   0.451
59207W        W26275  42.460  29.560  13.515
59208W        W26276   6.762  27.023   4.831
59209W        W26277   1.909   4.252  10.603
59210W        W26278  11.327  26.011   1.750
59211W        W26279  29.551  31.415  13.983
59212W        W26280  33.928   3.826  14.318
59213W        W26281  22.718  13.331  14.011
59214W        W26282  16.779  30.065   1.841
59215W        W26283   0.351  15.292   2.807
59216W        W26284  38.901  28.994   4.289
59217W        W26285  36.914  24.984  13.865
59218W        W26286  14.811  19.179  11.962
59219W        W26287  36.025  34.608   4.233
59220W        W26288  40.392  44.009  11.608
59221W        W26289  27.618  17.649  12.437
59222W        W26290  19.591  33.935  14.483
59223W        W26291  16.731   3.267   1.422
59224W        W26292  42.411  21.690  10.407
59225W        W26293   9.734  34.890  11.910
59226W        W26294  30.525  38.923  11.948
59227W        W26295  42.881  33.069  14.462
59228W        W26296  32.611   7.894  10.420
59229W        W26297  35.969  13.748   3.357
59230W        W26298  17.653  39.314  10.993
59231W        W26299  25.040  44.279   1.262
59232W        W26300  20.552  15.201  13.472
59233W        W26301  22.026  39.409   1.273
59234W        W26302  39.535  29.578   0.889
59235W        W26303  22.540  28.045   3.633
59236W        W26304  44.312  14.699   2.240
59237W        W26305  15.780  10.795  14.381
59238W        W26306  37.530  13.770  12.356
59239W        W26307  40.350  44.833   4.247
59240W        W26308  25.479  35.085   4.227
59241W        W26309   6.238  42.862  13.790
59242W        W26310   0.377  14.750  13.047
59243W        W26311  19.657   1.302  10.910
59244W        W26312   4.765  41.854  10.635
59245W        W26313  10.234  10.855  13.474
59246W        W26314  18.247   7.817  12.553
59247W        W26315  38.007  35.507  13.817
59248W        W26316  42.361   0.453  11.926
59249W        W26317   1.365   4.717   3.670
59250W        W26318  41.038  12.226   3.176
59251W        W26319  27.452  42.931   4.316
59252W        W26320   6.919   2.875   1.891
59253W        W26321   0.412   0.905   1.257
59254W        W26322  43.922   8.394  10.954
59255W        W26323  44.263  32.938  10.632
59256W        W26324  37.023   4.392  11.557
59257W        W26325  41.317  39.533   4.321
59258W        W26326  38.035   1.268  10.590
59259W        W26327  39.385  21.570  13.845
59260W        W26328  11.352  33.002   2.324
59261W        W26329  41.439  42.881  12.425
59262W        W26330   6.837  33.902   3.823
59263W        W26331   8.695  37.909   2.675
59264W        W26332  44.825  22.506  13.990
59265W        W26333  44.349  35.525   0.865
59266W        W26334   0.976   4.220  12.831
59267W        W26335  16.586  28.481  11.409
59268W        W26336  21.552  22.608  14.452
59269W        W26337   0.932  19.090  12.556
59270W        W26338  11.245  20.153   4.305
59271W        W26339  22.190  11.769  13.060
59272W        W26340  21.087  29.089   1.322
59273W        W26341  29.029  35.593  14.399
59274W        W26342  43.461  25.647  11.922
59275W        W26343  32.420  24.022   0.411
59276W        W26344   3.279   2.362   5.262
59277W        W26345   0.830  43.012   5.247
59278W        W26346  41.973   5.802  13.917
59279W        W26347   7.721   0.257  11.462
59280W        W26348  37.480  44.300   2.668
59281W        W26349   8.691  34.877  12.092
59282W        W26350  10.367  24.582  14.905
59283W        W26351  17.160  33.941  13.494
59284W        W26352   4.411  20.587  11.583
59285W        W26353   3.435   7.369  13.317
59286W        W26354   1.438  43.407   3.797
59287W        W26355  10.753   5.794   2.283
59288W        W26356  11.743  42.808   3.180
59289W        W26357  40.523  11.653  14.961
59290W        W26358  44.927  23.689  13.799
59291W        W26359  15.823  34.458  14.997
59292W        W26360  21.220  40.412  14.940
59293W        W26361   6.333  31.443  12.395
59294W        W26362  42.962   6.902   2.344
59295W        W26363  23.134  20.688  11.886
59296W        W26364   1.775  32.132  14.398
59297W        W26365  24.682  12.293   2.850
59298W        W26366  16.086   6.338  11.044
59299W        W26367  35.395  18.247   3.832
59300W        W26368   5.756   2.371  10.636
59301W        W26369  39.994  24.636   1.777
59302W        W26370  25.468  20.262  14.762
59303W        W26371  19.265  30.147  12.916
59304W        W26372   9.736  26.545  13.867
59305W        W26373  35.393   1.343   1.885
59306W        W26374  26.701  18.217  14.760
59307W        W26375  34.894  34.419   2.398
59308W        W26376  35.993  32.120   1.735
59309W        W26377  26.695   3.710   1.901
59310W        W26378  26.132  22.087  14.464
59311W        W26379  36.352  12.328   4.742
59312W        W26380  28.531  12.691  12.859
59313W        W26381  16.116  25.561   3.761
59314W        W26382  25.182   3.903   0.876
59315W        W26383  30.151  23.502   2.405
59316W        W26384  29.930   7.911   1.421
59317W        W26385   9.311   6.682   2.339
59318W        W26386  17.123  13.680  13.485
59319W        W26387  27.664  25.037  12.359
59320W        W26388  10.852  14.779   1.357
59321W        W26389  20.229  20.155  12.466
59322W        W26390  12.304  36.502   1.713
59323W        W26391  23.726  13.272  13.806
59324W        W26392  43.813  16.257  11.411
59325W        W26393  18.074  36.535  11.942
59326W        W26394  16.270  42.015   1.345
59327W        W26395   9.187   6.290  13.501
59328W        W26396   3.844  17.583   0.790
59329W        W26397   9.819  22.731  12.087
59330W        W26398  25.482  27.644  11.052
59331W        W26399  41.978   8.668  11.041
59332W        W26400  20.587   0.975   0.928
59333W        W26401  41.871  19.619   2.248
59334W        W26402  25.035  26.998  11.877
59335W        W26403  16.639  33.449   3.711
59336W        W26404  24.229  23.079  11.476
59337W        W26405  17.580  37.516   3.847
59338W        W26406  43.851  28.535  13.375
59339W        W26407  34.966   0.288   1.880
59340W        W26408  27.479  42.453   4.288
59341W        W26409  23.004  30.965   3.291
59342W        W26410  38.554  18.161  12.505
59343W        W26411  27.964   5.354   5.101
59344W        W26412  30.117   3.805  13.335
59345W        W26413  11.687  10.841  10.416
59346W        W26414  31.947  27.647   3.834
59347W        W26415  33.074  16.628  10.937
59348W        W26416  33.958  17.238  12.986
59349W        W26417  13.637  24.012  12.905
59350W        W26418  41.422  18.576  14.283
59351W        W26419   4.401   3.878  13.941
59352W        W26420   8.843  17.566  10.910
59353W        W26421   1.786  31.037  14.822
59354W        W26422  36.421   3.949  12.537
59355W        W26423  12.187  25.613  13.824
59356W        W26424   8.715  11.705  13.935
59357W        W26425  43.373  30.477  14.816
59358W        W26426   2.791  43.833   0.402
59359W        W26427  43.456  28.046   0.294
59360W        W26428  34.983  17.781  14.293
59361W        W26429  21.708  27.063   3.172
59362W        W26430  37.442   9.725   3.831
59363W        W26431   9.246  39.042   0.338
59364W        W26432  34.500  21.749   4.660
59365W        W26433  18.218  41.310  13.064
59366W        W26434  20.539   8.714  11.004
59367W        W26435  11.293  10.178   1.420
59368W        W26436   5.381  10.203   3.686
59369W        W26437  22.663  41.420   4.332
59370W        W26438  14.817  36.576   1.435
59371W        W26439  36.469  36.543  13.543
59372W        W26440   2.869   5.387   0.739
59373W        W26441  37.544  25.597   4.277
59374W        W26442  22.112  42.363  10.627
59375W        W26443  25.549  18.090   2.232
59376W        W26444  31.439  16.109   1.932
59377W        W26445  29.626  25.573  14.897
59378W        W26446  24.588   8.734   0.819
59379W        W26447  29.935  14.643  12.467
59380W        W26448  38.887   9.709   4.784
59381W        W26449  40.515   1.970   2.707
59382W        W26450  16.681  34.952  14.771
59383W        W26451  17.597  26.515  12.394
59384W        W26452  19.208  42.425   2.736
59385W        W26453   7.325  11.190  12.486
59386W        W26454   2.912  26.635  13.794
59387W        W26455  30.029  18.705   2.399
59388W        W26456   6.426  11.294   2.266
59389W        W26457  24.634  20.273   1.433
59390W        W26458  16.263   5.836  13.481
59391W        W26459  33.112  27.608   0.728
59392W        W26460  34.606  26.506   2.189
59393W        W26461  16.579   3.347  11.588
59394W        W26462  39.827  10.805   4.735
59395W        W26463  20.715   2.453   1.891
59396W        W26464   6.295   5.761  10.980
59397W        W26465  36.942  23.057  14.274
59398W        W26466  36.093  32.579   1.402
59399W        W26467  24.139  15.087   0.958
59400W        W26468  27.002  12.833  10.634
59401W        W26469  15.225  31.047   3.376
59402W        W26470  17.109  24.554  14.432
59403W        W26471   5.352  32.448   0.306
59404W        W26472  27.451   6.342  12.570
59405W        W26473  11.294  19.709   3.686
59406W        W26474  21.745  21.572   4.144
59407W        W26475  18.073  38.065  11.019
59408W        W26476  31.127  41.384  12.834
59409W        W26477  43.958  32.454   2.782
59410W        W26478  20.080  22.161   0.369
59411W        W26479  18.683  42.913   2.346
59412W        W26480  24.122   7.682   4.238
59413W        W26481  41.817   3.402  14.858
59414W        W26482  43.302  26.518  13.914
59415W        W26483  29.981  10.151  10.988
59416W        W26484   2.305  24.114   0.836
59417W        W26485  23.987   6.798   2.847
59418W        W26486  43.326  34.014   0.873
59419W        W26487  16.285  24.003   2.331
59420W        W26488  13.703  11.710   0.440
59421W        W26489  37.032  11.827   2.712
59422W        W26490  28.091  32.032   1.437
59423W        W26491  18.589  38.953  10.545
59424W        W26492  34.904  17.113  11.488
59425W        W26493   5.207  36.576   0.763
59426W        W26494  20.134  32.025  13.457
59427W        W26495  30.085  13.200  13.887
59428W        W26496   8.806  37.351  12.001
59429W        W26497   1.749  36.093  11.034
59430W        W26498  16.205  43.769  13.883
59431W        W26499  34.548  23.499  14.915
59432W        W26500  23.592  35.564   2.814
59433W        W26501   9.866   2.414  10.587
59434W        W26502  20.179   3.762   2.887
59435W        W26503  22.548  36.512  10.457
59436W        W26504  11.681   5.293   1.850
59437W        W26505  10.727  19.597  14.427
59438W        W26506  30.480   0.340   2.687
59439W        W26507  10.724   0.274   3.381
59440W        W26508  20.592   1.430  13.813
59441W        W26509  34.408  10.140   4.209
59442W        W26510  28.535   8.886  14.359
59443W        W26511  16.617   2.825  14.791
59444W        W26512   6.318  23.027   4.679
59445W        W26513  37.861  12.677  14.350
59446W        W26514   3.279  39.989   4.291
59447W        W26515   2.907  39.490   3.766
59448W        W26516  34.394   1.732  11.606
59449W        W26517  40.968   7.207   3.323
59450W        W26518  34.003  30.606   1.839
59451W        W26519  43.840   5.193   0.341
59452W        W26520  29.634  22.515   3.763
59453W        W26521  29.658  44.769   2.831
59454W        W26522  36.480   0.961  13.512
59455W        W26523   5.736  17.786  14.933
59456W        W26524   7.735  16.743  13.001
59457W        W26525  22.219   9.271   0.741
59458W        W26526  34.866  22.167  13.973
59459W        W26527  43.480   5.428   4.749
59460W        W26528  31.944  11.154   0.411
59461W        W26529  21.146  43.858  13.355
59462W        W26530   8.809  16.572   0.324
59463W        W26531  38.542  20.624  13.441
59464W        W26532  28.017  17.577  10.603
59465W        W26533  35.931  33.940  11.867
59466W        W26534   6.772  36.970   0.286
59467W        W26535  32.494  43.458   3.851
59468W        W26536  17.566  14.308  11.468
59469W        W26537  32.454  35.408   0.385
59470W        W26538  13.767  21.257  12.036
59471W        W26539  24.594  24.040   3.324
59472W        W26540  10.289   1.967   3.698
59473W        W26541  25.564  39.446  13.954
59474W        W26542  44.829  41.980   3.224
59475W        W26543  43.464  31.517  13.481
59476W        W26544  28.031  30.592  10.019
59477W        W26545   6.331   8.286  11.904
59478W        W26546   1.422  17.758   2.862
59479W        W26547   7.282  30.473   1.347
59480W        W26548  43.366  37.872  11.906
59481W        W26549  10.864  21.663   1.211
59482W        W26550  29.584  35.509   5.179
59483W        W26551  14.621  32.465   0.788
59484W        W26552  41.979  14.209  13.018
59485W        W26553   8.803  20.070  14.887
59486W        W26554  21.159  33.943  13.997
59487W        W26555  28.934  24.004  12.533
59488W        W26556  32.542  31.063   3.306
59489W        W26557  27.010   6.214  11.021
59490W        W26558   1.880  18.712  11.864
59491W        W26559  30.635  22.618  11.606
59492W        W26560  13.181  35.987  14.415
59493W        W26561  34.535  34.595  14.972
59494W        W26562  30.029  16.137   3.674
59495W        W26563   9.164  37.978  11.955
59496W        W26564   3.765  22.532  14.384
59497W        W26565  26.519  38.502   4.769
59498W        W26566  26.177  36.528  13.917
59499W        W26567   2.762  38.963   2.287
59500W        W26568  29.532  27.962  10.060
59501W        W26569  25.218  39.325  14.905
59502W        W26570  25.037  37.061   2.817
59503W        W26571   8.810  19.196   2.717
59504W        W26572  28.678  20.652  12.068
59505W        W26573  25.142  31.429   2.722
59506W        W26574  43.365  12.127   4.292
59507W        W26575  33.552  32.953  13.443
59508W        W26576   9.211  10.328  13.815
59509W        W26577  35.072   6.782  11.990
59510W        W26578  24.608  41.796  10.565
59511W        W26579  25.962  31.641  12.423
59512W        W26580   2.364  31.447  10.430
59513W        W26581  23.721   5.923   4.710
59514W        W26582  36.921  24.016  14.460
59515W        W26583  13.138   7.270  13.040
59516W        W26584  19.623  16.102   1.251
59517W        W26585   6.277  41.015   0.410
59518W        W26586  38.476   6.380  10.557
59519W        W26587  30.475  29.955  12.449
59520W        W26588  16.078  20.032   2.407
59521W        W26589  23.731  11.700  14.878
59522W        W26590   4.840  36.353   3.373
59523W        W26591  33.090   5.800   2.392
59524W        W26592  44.779  16.159  11.094
59525W        W26593   9.175  13.744   0.909
59526W        W26594  28.945  10.700   2.401
59527W        W26595  30.155   9.851  11.416
59528W        W26596  16.292   2.735   2.379
59529W        W26597  38.936  11.829  14.383
59530W        W26598  34.382  30.069   1.328
59531W        W26599  32.101  28.989   4.708
59532W        W26600  22.102   4.355  14.499
59533W        W26601   0.310  41.026  11.026
59534W        W26602  33.476  22.541  11.553
59535W        W26603  24.049  43.474  10.470
59536W        W26604  19.225  34.613  12.832
59537W        W26605  22.725  32.122  10.542
59538W        W26606  15.754  16.095  12.484
59539W        W26607  44.825  27.503  14.899
59540W        W26608  42.854  21.594  12.016
59541W        W26609  28.018  15.243   2.336
59542W        W26610  22.166  41.437   0.947
59543W        W26611  43.975  33.047   2.416
59544W        W26612   6.750  36.526   1.273
59545W        W26613  42.935  39.395   0.855
59546W        W26614  33.973  16.681   3.181
59547W        W26615  16.678  30.088  12.864
59548W        W26616  35.895  10.379  14.030
59549W        W26617   9.239   7.198  14.378
59550W        W26618   0.877  14.110  11.439
59551W        W26619  35.943  43.466  10.889
59552W        W26620  42.490  44.778   4.774
59553W        W26621  25.984  41.531  14.443
59554W        W26622   6.766  14.221  14.849
59555W        W26623  21.142   8.856  10.974
59556W        W26624  25.522   3.713   2.409
59557W        W26625  26.553   1.414  14.357
59558W        W26626  26.136   6.695  10.931
59559W        W26627   3.218  26.028   2.181
59560W        W26628   3.335  12.760  14.907
59561W        W26629  15.783   7.845  14.393
59562W        W26630   2.265  30.624   3.755
59563W        W26631  44.379  22.543  11.526
59564W        W26632  38.919  35.048   3.778
59565W        W26633  42.428   6.425   2.737
59566W        W26634   1.828  23.671  10.438
59567W        W26635   3.427  38.387   1.801
59568W        W26636  28.637  33.101   1.381
59569W        W26637  33.494  15.815   3.806
59570W        W26638  43.879  31.501   2.873
59571W        W26639  16.796  23.161   4.290
59572W        W26640  38.026  37.963  14.278
59573W        W26641   3.315  41.855   0.865
59574W        W26642  27.086  20.568  10.525
59575W        W26643  33.603  26.483   4.196
59576W        W26644  13.210   1.830   0.818
59577W        W26645  18.143  21.253  13.922
59578W        W26646  41.996  35.993  10.459
59579W        W26647  18.641  14.796   2.742
59580W        W26648  19.694  44.396   4.823
59581W        W26649  21.137   2.916  14.442
59582W        W26650   4.809  44.823   4.625
59583W        W26651  41.944   9.850   1.803
59584W        W26652  12.632   2.448   0.739
59585W        W26653   1.790  40.417  13.946
59586W        W26654  38.027   3.243   3.326
59587W        W26655  30.920  41.477   1.395
59588W        W26656  43.356  17.086  11.478
59589W        W26657   3.333  12.835   1.782
59590W        W26658  33.595  32.956   4.621
59591W        W26659  29.571  19.556  10.587
59592W        W26660  11.359  24.709  13.028
59593W        W26661  38.012  15.598   3.629
59594W        W26662  17.616  41.519   4.303
59595W        W26663  24.177  21.551   3.155
59596W        W26664  41.923  21.706   1.794
59597W        W26665  14.223  41.902  10.922
59598W        W26666  27.129   5.905  11.966
59599W        W26667  10.728  33.405  12.462
59600W        W26668  29.501  35.920  11.516
59601W        W26669  39.481   1.853  13.064
59602W        W26670  28.181   4.322  13.396
59603W        W26671   3.299  41.455  14.027
59604W        W26672  10.227   5.840   0.405
59605W        W26673  32.404  25.629   4.233
59606W        W26674  35.593  39.810   0.803
59607W        W26675  23.529  34.510   0.414
59608W        W26676  23.172  39.471  14.385
59609W        W26677   7.365  35.360   1.314
59610W        W26678  31.051  32.956   2.417
59611W        W26679  18.114  37.955  12.926
59612W        W26680   3.758  25.620  13.801
59613W        W26681  16.586  36.853  11.432
59614W        W26682  39.341  11.141  11.537
59615W        W26683  31.611  15.201   3.328
59616W        W26684  40.960  33.119   1.393
59617W        W26685  38.964   5.769   2.872
59618W        W26686   3.330   4.751   0.889
59619W        W26687   9.663  32.491   3.705
59620W        W26688  10.815  20.030  13.413
59621W        W26689  28.154  41.508   2.702
59622W        W26690  29.584  29.433   1.767
59623W        W26691  15.781  29.492   1.279
59624W        W26692  37.890  24.700   1.232
59625W        W26693  26.653  28.669  14.968
59626W        W26694  17.657  21.656  11.876
59627W        W26695   6.795  41.006   0.950
59628W        W26696  42.526  17.626  13.518
59629W        W26697   9.842   4.327  13.487
59630W        W26698  35.997  16.147   4.827
59631W        W26699  36.527  20.617   4.339
59632W        W26700  40.470  23.679   2.338
59633W        W26701  22.153  17.580   1.864
59634W        W26702   5.806  39.375   4.714
59635W        W26703   5.214   3.890  10.985
59636W        W26704  35.366  28.622   4.256
59637W        W26705   5.206  22.114  11.419
59638W        W26706   7.746  13.290   4.722
59639W        W26707   9.377   5.922   3.855
59640W        W26708  11.718  14.717  11.473
59641W        W26709   2.852  30.498   0.331
59642W        W26710  12.621  15.149   0.445
59643W        W26711  12.328   8.723   2.745
59644W        W26712  40.512  14.672  13.803
59645W        W26713  15.175  13.820   2.774
59646W        W26714  42.797  33.569   1.894
59647W        W26715  23.640  26.985   0.837
59648W        W26716   6.899  21.034  14.957
59649W        W26717  18.564   2.863   0.361
59650W        W26718  19.697   9.340  14.909
59651W        W26719  26.090  15.238  12.868
59652W        W26720  15.228  35.994   3.271
59653W        W26721  25.213  16.598   1.765
59654W        W26722  16.646  17.581   3.306
59655W        W26723  39.417  32.467  10.617
59656W        W26724  18.743  30.627   4.183
59657W        W26725   3.888   4.221   2.760
59658W        W26726  42.896   5.321   1.248
59659W        W26727   4.375   3.459  10.901
59660W        W26728  35.481   6.391  11.041
59661W        W26729  36.846  35.480  12.924
59662W        W26730   8.720  30.517  14.364
59663W        W26731   4.885  20.252  14.294
59664W        W26732  37.410  44.349  13.360
59665W        W26733  25.492  39.873   3.209
59666W        W26734  20.102  11.823  11.870
59667W        W26735  42.775   1.381   4.696
59668W        W26736  42.444  30.028   0.457
59669W        W26737  16.091  12.792   0.378
59670W        W26738  34.376  35.093  11.857
59671W        W26739  38.061  18.217   3.326
59672W        W26740   1.916   6.698  14.872
59673W        W26741  31.473   0.416   1.754
59674W        W26742  28.136  37.003   3.321
59675W        W26743   0.272  42.494   4.186
59676W        W26744  19.642  23.733   2.310
59677W        W26745  23.175  20.033  11.888
59678W        W26746  23.503   5.716   3.629
59679W        W26747  14.709  16.801  11.945
59680W        W26748   4.783  13.128  13.793
59681W        W26749   0.851  20.563  13.457
59682W        W26750   1.239  36.568   0.322
59683W        W26751  21.153  44.850   3.845
59684W        W26752  30.613  39.930  13.985
59685W        W26753  43.844  29.604   0.412
59686W        W26754   4.281  25.008   2.760
59687W        W26755  16.187  10.145  11.043
59688W        W26756  39.983  11.364  14.328
59689W        W26757   8.788  18.610   4.251
59690W        W26758  36.351  17.670   0.893
59691W        W26759  29.176  34.408   5.083
59692W        W26760  34.383  26.995   1.779
59693W        W26761  28.052  17.728   4.732
59694W        W26762  37.423  44.336   0.286
59695W        W26763  25.027  40.389   1.895
59696W        W26764   7.691   9.657   3.692
59697W        W26765  16.614  16.282   0.953
59698W        W26766  25.564  44.435  12.574
59699W        W26767  28.941  32.135  12.900
59700W        W26768  18.182  35.876   2.715
59701W        W26769   1.927  39.049   3.777
59702W        W26770  27.447  15.238   9.652
59703W        W26771  17.564   6.293   0.846
59704W        W26772   7.313   2.721   4.723
59705W        W26773  33.069   9.792  13.369
59706W        W26774  44.791  30.995   3.635
59707W        W26775   5.247  14.794   0.726
59708W        W26776  31.597  38.067   4.817
59709W        W26777  44.362  10.273  13.941
59710W        W26778   9.726  34.969   3.855
59711W        W26779   9.386  38.937  10.112
59712W        W26780  16.618  13.671   0.417
59713W        W26781  23.040  12.667   0.448
59714W        W26782  40.903  15.691  13.026
59715W        W26783  37.034   4.222  12.452
59716W        W26784  22.696  24.081  13.345
59717W        W26785  37.445  31.090  13.919
59718W        W26786  28.676  32.542  14.283
59719W        W26787  16.625   2.848   3.368
59720W        W26788  39.388  22.504  10.482
59721W        W26789  27.968  17.235  11.088
59722W        W26790   8.682  37.980   0.313
59723W        W26791  20.174  42.478   4.676
59724W        W26792  12.780  34.423   3.786
59725W        W26793  33.624  34.061   2.274
59726W        W26794  16.632  30.624  14.978
59727W        W26795   7.279   7.290  13.533
59728W        W26796  18.567  15.782  14.287
59729W        W26797  20.241  21.591   1.702
59730W        W26798  33.394  42.511  10.947
59731W        W26799  40.856  22.633   4.826
59732W        W26800   8.835  24.725   0.399
59733W        W26801  29.451   9.735   4.151
59734W        W26802  16.657  16.567   2.377
59735W        W26803   0.820   3.421  10.412
59736W        W26804  21.257  10.152   0.854
59737W        W26805  39.844  36.862  12.989
59738W        W26806  22.620  33.017  11.450
59739W        W26807  31.052  21.583   1.824
59740W        W26808  11.197   5.901   3.300
59741W        W26809  41.337  25.131   1.211
59742W        W26810   4.886   8.693  14.805
59743W        W26811   0.860   3.734  12.909
59744W        W26812  39.823   2.354   3.756
59745W        W26813  35.521   0.809   4.227
59746W        W26814  31.533  34.039   1.409
59747W        W26815   5.259  26.671   4.740
59748W        W26816  29.629  18.669  10.558
59749W        W26817  25.710  21.666  10.448
59750W        W26818   8.862  24.537  14.947
59751W        W26819  42.781  28.028  13.816
59752W        W26820   9.240   1.409  10.015
59753W        W26821   0.803  15.800   9.940
59754W        W26822  28.443  15.742  14.427
59755W        W26823  34.005  28.556   4.283
59756W        W26824  26.130  37.550   4.311
59757W        W26825   2.428  12.783  12.010
59758W        W26826  22.693  19.063  13.314
59759W        W26827  40.392  13.700  12.854
59760W        W26828  44.416   3.396   2.205
59761W        W26829  18.237   2.230  13.387
59762W        W26830  36.093  44.393   2.799
59763W        W26831  19.082  25.148  14.032
59764W        W26832   4.239  22.610  14.027
59765W        W26833  43.851  40.826  12.092
59766W        W26834   2.331  18.620  14.833
59767W        W26835  27.449  43.848   4.214
59768W        W26836  44.860  44.476  10.980
59769W        W26837   0.932  25.140  13.892
59770W        W26838  37.985  39.458   1.279
59771W        W26839  31.446  32.095  13.541
59772W        W26840  39.404   7.417  14.516
59773W        W26841   6.697  18.236   3.372
59774W        W26842  22.219   8.298  11.427
59775W        W26843  15.725  22.589  11.870
59776W        W26844   7.355  24.533   2.179
59777W        W26845  36.368  36.573  11.437
59778W        W26846  32.608  14.816   0.957
59779W        W26847   9.231  11.681   9.948
59780W        W26848  38.411  16.578   4.267
59781W        W26849  21.043  39.468  13.962
59782W        W26850  26.557   7.837   2.284
59783W        W26851  38.909  27.156   1.448
59784W        W26852   7.892   9.806  12.517
59785W        W26853  25.706  24.593   3.690
59786W        W26854   1.855   3.807   3.238
59787W        W26855  13.119  19.130   4.320
59788W        W26856  41.794   9.717  10.479
59789W        W26857  12.678  28.524  12.904
59790W        W26858  44.447   2.261   4.249
59791W        W26859  17.635  34.373   2.893
59792W        W26860  27.646  34.565  11.573
59793W        W26861  35.368  33.497  10.460
59794W        W26862  40.341  43.494   4.234
59795W        W26863  13.739  25.709  13.885
59796W        W26864  19.052  28.983  13.798
59797W        W26865  27.480  32.586  12.862
59798W        W26866   8.290  21.530   0.441
59799W        W26867  19.211   6.400   1.282
59800W        W26868  23.542   0.865   1.256
59801W        W26869  28.643  22.075  12.840
59802W        W26870   6.325  15.738   4.794
59803W        W26871  19.576  16.605  11.041
59804W        W26872   2.299  30.975  12.933
59805W        W26873  20.721  24.591   3.283
59806W        W26874  33.913  31.146  10.904
59807W        W26875  27.128  25.080  10.460
59808W        W26876  37.428  36.016  10.465
59809W        W26877  27.195  22.700  14.765
59810W        W26878  28.004  23.664   3.739
59811W        W26879  21.079   9.721   1.851
59812W        W26880  15.669  21.181  12.052
59813W        W26881  27.584  39.549   2.742
59814W        W26882   3.443   8.215  13.882
59815W        W26883  20.621  12.846  10.412
59816W        W26884  38.933  31.140   0.783
59817W        W26885   0.764   9.886  13.027
59818W        W26886  13.155  38.544  13.806
59819W        W26887  24.007  34.892  12.903
59820W        W26888  24.593  15.107  12.514
59821W        W26889  15.083   4.731  10.515
59822W        W26890   8.840  21.149   0.305
59823W        W26891  25.206  22.140   2.215
59824W        W26892  38.559  30.951   1.894
59825W        W26893   9.799  14.828   2.340
59826W        W26894  13.609  37.578   0.348
59827W        W26895  20.628  11.750  12.066
59828W        W26896   0.832  37.338  14.012
59829W        W26897  17.684  41.894  10.419
59830W        W26898  14.786  30.428  13.970
59831W        W26899   5.225  26.050   2.256
59832W        W26900   9.805  43.850  10.890
59833W        W26901  30.639  10.220   2.827
59834W        W26902  35.031  27.459  13.022
59835W        W26903  39.847   1.881   3.788
59836W        W26904   2.921  15.616  11.590
59837W        W26905  22.136   4.250  13.395
59838W        W26906  40.475  22.662   0.293
59839W        W26907  27.657  32.399  14.981
59840W        W26908  26.177  23.725  14.798
59841W        W26909  30.930  35.527   3.676
59842W        W26910  40.006  31.633  10.589
59843W        W26911  21.599  18.198   0.359
59844W        W26912  32.968  39.857   2.219
59845W        W26913  22.631  41.297  12.997
59846W        W26914  13.145   3.262  13.316
59847W        W26915  34.050  25.133   2.189
59848W        W26916  19.242  38.034   2.677
59849W        W26917   2.931  17.180   4.296
59850W        W26918  29.597  23.493   3.673
59851W        W26919  34.935   4.780   9.998
59852W        W26920  24.505  21.573   0.783
59853W        W26921  28.547  28.101  12.393
59854W        W26922  10.203   4.277   1.922
59855W        W26923  14.604  20.210  10.469
59856W        W26924   9.183  13.692  11.546
59857W        W26925  43.491  11.815  14.361
59858W        W26926  34.501  37.554   1.342
59859W        W26927   1.819  26.574   1.917
59860W        W26928  28.124  25.190  11.501
59861W        W26929   2.336   5.385  13.512
59862W        W26930  30.996  35.863  13.919
59863W        W26931  16.717   6.422  13.397
59864W        W26932   0.365  43.783   4.334
59865W        W26933  33.534  38.918  11.889
59866W        W26934  29.591  14.785   2.201
59867W        W26935  44.818  35.858  14.417
59868W        W26936  39.366  31.466  14.340
59869W        W26937  17.164  26.594  14.390
59870W        W26938   9.776  11.842   2.844
59871W        W26939  22.223  40.818   1.335
59872W        W26940  32.954  14.818  10.617
59873W        W26941  21.048  25.504  13.435
59874W        W26942  18.598  33.113   4.604
59875W        W26943  34.876  24.082   3.338
59876W        W26944  36.980  44.860   1.331
59877W        W26945  41.431   7.287  10.931
59878W        W26946  18.771  13.709  14.834
59879W        W26947  38.382  43.325  11.068
59880W        W26948  16.720  18.670   3.871
59881W        W26949  37.897  17.099   0.397
59882W        W26950  16.681  10.170   3.298
59883W        W26951  16.304  15.635   0.393
59884W        W26952  24.712  28.095  13.467
59885W        W26953   9.274  32.575  11.509
59886W        W26954  24.631  14.232   4.656
59887W        W26955  41.519   5.846  12.375
59888W        W26956  42.350  22.215  13.496
59889W        W26957   4.393  19.240   3.680
59890W        W26958   3.897  39.850  11.036
59891W        W26959  39.906  26.522  11.376
59892W        W26960  38.455  39.405  13.809
59893W        W26961  44.364  44.498  10.010
59894W        W26962  22.128  32.887  10.904
59895W        W26963   1.912  18.681  13.530
59896W        W26964   5.694  14.662   3.304
59897W        W26965  39.356  29.037  12.560
59898W        W26966  36.085  37.405  14.310
59899W        W26967   2.460  33.455  14.334
59900W        W26968  23.050  23.109  10.591
59901W        W26969  37.882  38.069  13.964
59902W        W26970  42.956  11.836   4.773
59903W        W26971  31.438  19.247  10.976
59904W        W26972  40.852  37.367  11.859
59905W        W26973  10.288  14.236  11.575
59906W        W26974  27.185  35.358  14.514
59907W        W26975  32.987  23.657  12.037
59908W        W26976  36.023   2.872   2.849
59909W        W26977   8.844  31.113   5.191
59910W        W26978  14.603  19.075   2.301
59911W        W26979  38.404  30.996   4.209
59912W        W26980  22.142  39.817  13.369
59913W        W26981  33.912  37.402   2.819
59914W        W26982  40.991  29.554  12.034
59915W        W26983  34.016  25.614  13.499
59916W        W26984  26.030  15.769  14.475
59917W        W26985  33.444  30.962   4.816
59918W        W26986  35.370   4.923   1.384
59919W        W26987   8.694  43.354   3.823
59920W        W26988  25.090  12.817   3.630
59921W        W26989  15.201  26.961   2.254
59922W        W26990   3.893  35.063  10.894
59923W        W26991  33.580  31.961   1.285
59924W        W26992   0.761  41.443  12.954
59925W        W26993  27.513   9.376  12.360
59926W        W26994  44.343  29.921  10.604
59927W        W26995   8.333  37.499   5.086
59928W        W26996  23.222  19.065  13.815
59929W        W26997   9.272  25.539   4.763
59930W        W26998  31.584   7.705  11.601
59931W        W26999  10.166   0.826  14.418
59932W        W27000  12.739  33.477  14.985
59933W        W27001  13.260   5.817   4.838
59934W        W27002  39.456   8.402   3.746
59935W        W27003  15.243   7.183   1.321
59936W        W27004  31.914  41.039   0.469
59937W        W27005   5.782  35.512  10.994
59938W        W27006   2.382  38.424  13.933
59939W        W27007  32.083  44.322   0.273
59940W        W27008  32.535  23.666  12.580
59941W        W27009   6.255   2.315  11.446
59942W        W27010  23.561  14.605  14.971
59943W        W27011  38.066  24.637   4.196
59944W        W27012  33.029   0.781  11.004
59945W        W27013  22.568  40.052  10.998
59946W        W27014  38.832  17.134   2.868
59947W        W27015  16.733  27.055  14.906
59948W        W27016  26.651  24.565   4.231
59949W        W27017  25.471  36.054  12.847
59950W        W27018  27.141  17.208   0.395
59951W        W27019  36.444  25.045  10.479
59952W        W27020  44.800  24.639  10.427
59953W        W27021  37.029  44.459   0.474
59954W        W27022   8.184   5.254   2.394
59955W        W27023   6.256   2.867   0.398
59956W        W27024  25.629  30.658  13.488
59957W        W27025  28.057  32.973   0.900
59958W        W27026  37.557  27.044   4.242
59959W        W27027  31.587   9.241   2.787
59960W        W27028  19.117   0.745  13.380
59961W        W27029   3.352  15.085  11.028
59962W        W27030  34.054  24.036   3.670
59963W        W27031   9.824  19.164   1.366
59964W        W27032  37.377  40.025  12.436
59965W        W27033  33.465  15.106  13.816
59966W        W27034  41.816  36.943  12.958
59967W        W27035  34.396  34.116  13.907
59968W        W27036  10.373   9.840  10.529
59969W        W27037  39.333  33.508  12.866
59970W        W27038  28.147   9.819  11.461
59971W        W27039   3.443  17.083   1.851
59972W        W27040  28.171   4.298   2.879
59973W        W27041   0.333   2.408  11.580
59974W        W27042   8.313  43.930  11.505
59975W        W27043  29.466  32.581  14.922
59976W        W27044  14.304   8.281   4.159
59977W        W27045  33.526   0.852  13.455
59978W        W27046  17.252  40.426   2.255
59979W        W27047  37.359  16.187  11.118
59980W        W27048   1.316  16.102  14.463
59981W        W27049  29.071  18.085   2.860
59982W        W27050   4.223  18.666  11.468
59983W        W27051  24.724  32.552  12.878
59984W        W27052  10.210  41.507  13.469
59985W        W27053  37.367   6.722   4.831
59986W        W27054   4.240   5.828   0.383
59987W        W27055  11.317   0.920   2.251
59988W        W27056   7.776  17.096   0.468
59989W        W27057  43.289   9.225  12.349
59990W        W27058  12.764   7.286  11.953
59991W        W27059  26.141  41.973  13.011
59992W        W27060   0.822  36.353   1.905
59993W        W27061  34.991   0.806   3.795
59994W        W27062   0.977  26.703  11.872
59995W        W27063  28.503  31.975  13.356
59996W        W27064  43.011  11.250  12.911
59997W        W27065  33.393  23.124  10.631
59998W        W27066  27.164  21.716  11.901
59999W        W27067  43.370  25.501  12.558
60000W        W27068  21.725  23.227  11.978
60001W        W27069  29.429  34.066  11.517
60002W        W27070  25.117  25.500  12.910
60003W        W27071  30.958   4.302  10.521
60004W        W27072  24.139  37.841  14.459
60005W        W27073   8.694  40.036  11.591
60006W        W27074  35.509   2.332  10.496
60007W        W27075  24.514  10.352  11.554
60008W        W27076  15.105  43.285   0.309
60009W        W27077  40.467  43.412   2.299
60010W        W27078  29.482   6.289   0.403
60011W        W27079  13.633  39.441   0.921
60012W        W27080  33.511   5.427   4.674
60013W        W27081  25.003  11.773   2.367
60014W        W27082  22.007   8.385   2.749
60015W        W27083  32.581   1.477   2.339
60016W        W27084  33.460  18.691  12.441
60017W        W27085  30.077   2.888  10.901
60018W        W27086   2.861  35.554  10.965
60019W        W27087  23.535  43.490   2.731
60020W        W27088   5.788  38.517   1.912
60021W        W27089  33.975  35.446  12.440
60022W        W27090  42.900  25.051   2.377
60023W        W27091  12.338  37.017  14.825
60024W        W27092  15.125  23.641   0.369
60025W        W27093  24.523  34.396   2.709
60026W        W27094   4.269  24.708  11.080
60027W        W27095  18.061   9.238   4.153
60028W        W27096  34.072   2.393   1.781
60029W        W27097  16.271  27.031  13.339
60030W        W27098  18.630   4.223   3.657
60031W        W27099  11.685   7.294   2.679
60032W        W27100  12.296  35.569   4.282
60033W        W27101  35.990  29.146   4.344
60034W        W27102   0.742  44.337   0.429
60035W        W27103   6.198  30.929  11.504
60036W        W27104  38.331   6.204  14.281
60037W        W27105  43.498   3.256   1.906
60038W        W27106  43.508  43.855  14.323
60039W        W27107  31.524  14.122   3.223
60040W        W27108  20.059  10.154   0.371
60041W        W27109  43.438  25.529  10.636
60042W        W27110  21.150  16.293  14.275
60043W        W27111  27.166  24.597   3.170
60044W        W27112   0.828   9.313   0.820
60045W        W27113  21.678  28.445  11.407
60046W        W27114  42.823  16.075   2.257
60047W        W27115   6.768  29.099  10.639
60048W        W27116  29.472  31.905   0.816
60049W        W27117  28.465  13.219   0.849
60050W        W27118  31.984   0.797   0.325
60051W        W27119  12.736  26.149   2.728
60052W        W27120  43.010   2.286   5.295
60053W        W27121  30.576   9.240  11.945
60054W        W27122  37.468  11.271  14.821
60055W        W27123  34.878  35.941   3.320
60056W        W27124  15.588  43.310  14.481
60057W        W27125   5.849  20.061   4.146
60058W        W27126  32.634  30.070  13.446
60059W        W27127  26.691  22.515  14.010
60060W        W27128  26.177  38.393  14.784
60061W        W27129  10.837  35.390   4.727
60062W        W27130  39.962   1.893   3.192
60063W        W27131  21.061  30.038   1.814
60064W        W27132   6.714  11.765  13.481
60065W        W27133   3.323   3.434  11.963
60066W        W27134  17.799  38.451   2.867
60067W        W27135   8.221  41.962   2.761
60068W        W27136  40.388  27.495  14.801
60069W        W27137  29.563  41.313  10.991
60070W        W27138  36.995  44.291  14.948
60071W        W27139  29.603   6.880  14.461
60072W        W27140  39.514  17.143   0.761
60073W        W27141  35.502   4.240  10.958
60074W        W27142   8.812  17.757  14.829
60075W        W27143  42.793  22.038   0.258
60076W        W27144  11.356  16.775   4.328
60077W        W27145  28.455  36.948   0.326
60078W        W27146  16.172  30.163  12.535
60079W        W27147  21.645   1.811  13.472
60080W        W27148  36.940  19.179   0.841
60081W        W27149   6.367  16.622   5.161
60082W        W27150  19.091  32.096   2.695
60083W        W27151   8.208  44.924  10.479
60084W        W27152  24.024  35.005   1.267
60085W        W27153  44.313  18.084  14.910
60086W        W27154   1.468  29.936   1.887
60087W        W27155  25.983  27.621   3.685
60088W        W27156  33.907  31.470  11.957
60089W        W27157  27.613   9.206  11.516
60090W        W27158  18.130  32.517   2.698
60091W        W27159  28.544  37.027  13.878
60092W        W27160  21.748  36.841  10.557
60093W        W27161  22.625  12.631  12.878
60094W        W27162  31.439  33.473  12.988
60095W        W27163  11.683   0.845   1.323
60096W        W27164  15.274  20.069   2.412
60097W        W27165  29.484  26.616   1.283
60098W        W27166  21.046  43.509   1.768
60099W        W27167  35.492  35.453   2.241
60100W        W27168  43.417  18.738   2.768
60101W        W27169  42.002   8.307   4.772
60102W        W27170  25.548   1.356   3.787
60103W        W27171  31.410  40.302   0.890
60104W        W27172   4.927  27.102   1.794
60105W        W27173  15.659  26.472  11.515
60106W        W27174  30.017   0.383  14.404
60107W        W27175  43.851  34.067   2.815
60108W        W27176  32.979  35.392  11.084
60109W        W27177  20.607  26.485  13.409
60110W        W27178   0.416  19.253  11.104
60111W        W27179   5.722  13.124  11.577
60112W        W27180   3.276  27.085   0.293
60113W        W27181  43.497  27.086  12.568
60114W        W27182  12.162  25.675   2.232
60115W        W27183  27.160   9.366  11.608
60116W        W27184  31.523  33.560  10.539
60117W        W27185  23.506   9.252  12.081
60118W        W27186  44.758  17.205  12.351
60119W        W27187  18.758  33.125  13.530
60120W        W27188  15.128  12.172   4.597
60121W        W27189  23.564   4.203   1.846
60122W        W27190   5.392   8.352   3.170
60123W        W27191  11.630  32.455  12.053
60124W        W27192   2.261  42.400   3.756
60125W        W27193  12.334  32.471   4.324
60126W        W27194  24.124  35.464  13.019
60127W        W27195  10.858  11.766   0.839
60128W        W27196  11.705  21.036  11.077
60129W        W27197   5.760  21.186   3.209
60130W        W27198  35.520  14.193  12.390
60131W        W27199  20.686  17.737  11.381
60132W        W27200  33.996  30.503  14.455
60133W        W27201  35.539  38.908  12.090
60134W        W27202  31.410  17.104  10.929
60135W        W27203  36.390  42.469   3.265
60136W        W27204  37.543  20.123   2.296
60137W        W27205  36.450  16.267   3.695
60138W        W27206  24.513  15.819   0.835
60139W        W27207  36.540  21.533  11.981
60140W        W27208   5.895  14.676  14.910
60141W        W27209  35.397  12.686   3.203
60142W        W27210  20.196   5.390  13.442
60143W        W27211  31.516  19.673   2.287
60144W        W27212  28.047  21.611  12.875
60145W        W27213  23.016   0.480   3.176
60146W        W27214  24.688  38.494   1.794
60147W        W27215  43.835  32.458   1.906
60148W        W27216   8.189  15.224   1.333
60149W        W27217  14.234  15.183   1.252
60150W        W27218  34.464  38.048   4.695
60151W        W27219  17.577   7.719   2.756
60152W        W27220  26.076  32.993  11.941
60153W        W27221   9.241  29.561   3.832
60154W        W27222   5.878  23.645  14.392
60155W        W27223  32.580  44.401  12.864
60156W        W27224   6.742  28.489   4.216
60157W        W27225  10.696  36.856  10.610
60158W        W27226  13.215   7.832   4.325
60159W        W27227  42.983   0.260   1.756
60160W        W27228  37.039  33.000  13.923
60161W        W27229  23.564  35.491  14.859
60162W        W27230  33.033  35.989  13.545
60163W        W27231  18.618  43.385  14.867
60164W        W27232  38.862  13.652  12.387
60165W        W27233  13.281  28.675  13.380
60166W        W27234  24.094   4.256   3.716
60167W        W27235  18.220  35.947  13.416
60168W        W27236  19.706   0.412   0.382
60169W        W27237  36.018   8.707  13.916
60170W        W27238   6.899  10.826   2.825
60171W        W27239   4.881  29.050   4.251
60172W        W27240   9.691   4.813  11.919
60173W        W27241   3.718  36.988  12.046
60174W        W27242   4.442  13.192  11.498
60175W        W27243  15.278  11.236   9.452
60176W        W27244   3.239  20.084  12.854
60177W        W27245  29.507  31.897  11.536
60178W        W27246  39.898  13.706   2.179
60179W        W27247  32.053  16.174   2.312
60180W        W27248   1.866  11.795  10.478
60181W        W27249  15.298  35.032  10.442
60182W        W27250  26.641   2.949  12.007
60183W        W27251  16.199   1.468  12.828
60184W        W27252   2.936  13.333   1.723
60185W        W27253   5.218   1.863   1.266
60186W        W27254  41.985  22.660  13.968
60187W        W27255  18.653   8.750  10.069
60188W        W27256  38.014   7.240   4.838
60189W        W27257   0.365  21.225   3.310
60190W        W27258  38.378  24.977  10.483
60191W        W27259   4.903  19.148  14.951
60192W        W27260  10.245  39.886   4.779
60193W        W27261  28.034  43.980  12.088
60194W        W27262   9.865  29.927   3.339
60195W        W27263   9.209  19.158  14.478
60196W        W27264   8.276  28.558  14.976
60197W        W27265  15.326  21.034  14.302
60198W        W27266  43.819  37.924   2.251
60199W        W27267  41.818   9.183   4.227
60200W        W27268   2.740  24.169  13.525
60201W        W27269  23.130  37.840   3.699
60202W        W27270  19.776   1.468   2.805
60203W        W27271  39.005  18.067  11.881
60204W        W27272  16.720   6.403  12.479
60205W        W27273  11.343  42.280  13.536
60206W        W27274  28.476  26.062  10.619
60207W        W27275  40.318  37.518   4.278
60208W        W27276  22.514  44.008   3.738
60209W        W27277   3.897  24.189  13.866
60210W        W27278  19.730  39.387  14.003
60211W        W27279  28.953   4.436   3.671
60212W        W27280   7.286  12.754  11.947
60213W        W27281  10.862  22.616  12.475
60214W        W27282  41.984  21.183  10.005
60215W        W27283   5.746  20.607  12.371
60216W        W27284   3.895  19.068  13.000
60217W        W27285   0.807   5.862  13.368
60218W        W27286  29.601  12.838   3.269
60219W        W27287  33.612  26.955  10.540
60220W        W27288  32.502  38.945   0.345
60221W        W27289  30.160   9.669   1.275
60222W        W27290  17.194  30.084  12.442
60223W        W27291   8.723   4.270  10.452
60224W        W27292  23.217  40.460  10.137
60225W        W27293  19.733  41.869   3.848
60226W        W27294  38.849  31.604  10.985
60227W        W27295  22.659  16.654   0.388
60228W        W27296  27.046  22.722  12.017
60229W        W27297  30.432  39.396   4.243
60230W        W27298   6.292  24.680  10.926
60231W        W27299  42.417  36.362   0.852
60232W        W27300   8.875   8.366   3.193
60233W        W27301  15.096   5.765   0.954
60234W        W27302  34.916  40.487   5.179
60235W        W27303  31.626  17.078  11.943
60236W        W27304  41.519  29.033   3.726
60237W        W27305  44.812  29.121  11.017
60238W        W27306  21.033  43.860   2.902
60239W        W27307  21.054   0.761  12.873
60240W        W27308  43.764  26.047  14.998
60241W        W27309  28.144  11.812   1.371
60242W        W27310  20.187  33.041  12.947
60243W        W27311  12.824   3.768   2.856
60244W        W27312  22.645  33.983   1.925
60245W        W27313  10.247  24.046  12.870
60246W        W27314  18.211  34.067   3.241
60247W        W27315  28.971  35.386  10.136
60248W        W27316  40.521  10.245  10.510
60249W        W27317  14.252  44.301   0.904
60250W        W27318  34.467   9.738  11.906
60251W        W27319  23.537  26.504  13.542
60252W        W27320  26.152  27.128  13.472
60253W        W27321   2.936   6.399  13.308
60254W        W27322  44.940  24.539   0.283
60255W        W27323  30.511  41.346  13.510
60256W        W27324   5.266  34.381  11.000
60257W        W27325  31.406  19.193  12.579
60258W        W27326  31.491  20.184   1.813
60259W        W27327  10.802  18.100  14.760
60260W        W27328   2.956  43.294   2.747
60261W        W27329  13.685   3.787   0.853
60262W        W27330  32.042  27.951   2.284
60263W        W27331  23.078  15.250   1.854
60264W        W27332  24.209   0.957  10.630
60265W        W27333  18.780   2.350  14.816
60266W        W27334   7.856   4.755   3.759
60267W        W27335  33.922  40.808   4.728
60268W        W27336   4.819  33.581   3.843
60269W        W27337  28.056  17.080   4.249
60270W        W27338  17.200  24.696  11.951
60271W        W27339  34.057  26.050   1.394
60272W        W27340  39.347   6.351  14.947
60273W        W27341   6.781  34.109   1.832
60274W        W27342  28.565  24.109   0.730
60275W        W27343  26.465   6.917  12.446
60276W        W27344   4.769  27.126  11.375
60277W        W27345   6.781  12.324  13.399
60278W        W27346   9.725  32.002   1.883
60279W        W27347   2.344  18.193  10.931
60280W        W27348  33.914   6.196   1.222
60281W        W27349  37.472  44.413   4.775
60282W        W27350  29.478  25.978  12.935
60283W        W27351  16.597   7.283  14.924
60284W        W27352   9.796   0.863   0.428
60285W        W27353  41.483   2.359  11.505
60286W        W27354  42.370  32.450  14.922
60287W        W27355  21.173  33.122  11.074
60288W        W27356  29.970  29.002  10.997
60289W        W27357   8.792  36.094   2.789
60290W        W27358  29.928  36.425   1.834
60291W        W27359   2.754  12.660  14.767
60292W        W27360  30.939  29.104   3.245
60293W        W27361  40.018  14.329  10.632
60294W        W27362  20.752  31.406   1.246
60295W        W27363   8.795  44.917  12.992
60296W        W27364  40.532   6.854   2.341
60297W        W27365  24.701   2.237  13.912
60298W        W27366  30.561  34.480  12.346
60299W        W27367   7.270  23.035   1.255
60300W        W27368  33.558  41.468   5.291
60301W        W27369  10.142  27.668   1.268
60302W        W27370   9.283  34.370   5.204
60303W        W27371  39.474  12.207   4.206
60304W        W27372  31.918  44.385   4.801
60305W        W27373   4.273   5.313   4.335
60306W        W27374   3.416  16.304  12.950
60307W        W27375  21.259  24.593   4.220
60308W        W27376  22.049   0.902  11.940
60309W        W27377  12.208   9.757   2.799
60310W        W27378  19.697   6.717  14.870
60311W        W27379  17.142  28.641  13.337
60312W        W27380  23.643   4.435   3.166
60313W        W27381  15.256   9.266   3.184
60314W        W27382  28.046  21.741   4.693
60315W        W27383  28.604  34.901  11.437
60316W        W27384  11.362  42.294   2.825
60317W        W27385   0.332  42.490   1.716
60318W        W27386  10.690  16.079  12.001
60319W        W27387  18.704   8.836  12.478
60320W        W27388  44.478  19.163   2.321
60321W        W27389  21.526  11.719   3.657
60322W        W27390  12.356  31.567  12.522
60323W        W27391  31.969  12.695  10.049
60324W        W27392  38.376  40.031   2.800
60325W        W27393  40.488  15.716   3.155
60326W        W27394  44.873   6.270   2.313
60327W        W27395   7.782  13.331   2.232
60328W        W27396   0.395  35.946   1.390
60329W        W27397   8.816  31.107  14.407
60330W        W27398  11.287  13.271   4.262
60331W        W27399  13.187   7.382  11.075
60332W        W27400   5.797  23.988   4.148
60333W        W27401  22.678   5.924   2.372
60334W        W27402  44.000  26.634  14.903
60335W        W27403  33.501  18.562  14.435
60336W        W27404  28.953   6.731  14.503
60337W        W27405  39.821  44.970  11.901
60338W        W27406  21.597  35.362   4.828
60339W        W27407  35.970  15.168   1.263
60340W        W27408  12.663  34.048  14.773
60341W        W27409   4.860   8.890   2.261
60342W        W27410  43.925  15.270  11.426
60343W        W27411  37.938  22.727   3.249
60344W        W27412  25.132  37.361  11.465
60345W        W27413   4.252   1.353   0.440
60346W        W27414   2.860  30.975  12.952
60347W        W27415  41.000  24.673  12.886
60348W        W27416  13.737  22.173  13.968
60349W        W27417  23.017  37.343  12.948
60350W        W27418   5.269  30.916   0.469
60351W        W27419  31.417  13.788   9.676
60352W        W27420  27.154  39.059  12.983
60353W        W27421   2.955  11.683  10.491
60354W        W27422  12.321  27.594   1.755
60355W        W27423  36.540   1.756  14.368
60356W        W27424   2.432  11.631   2.786
60357W        W27425  24.656  39.509  12.064
60358W        W27426   4.735  24.611  10.121
60359W        W27427   7.298  16.618  14.814
60360W        W27428   2.453  26.988   4.123
60361W        W27429  33.117  15.696   3.173
60362W        W27430   9.809  43.781   4.719
60363W        W27431  23.595  18.771  12.080
60364W        W27432  13.147  30.164   3.254
60365W        W27433   7.396   7.264  10.510
60366W        W27434  42.907   6.419  12.474
60367W        W27435  30.548  22.519  12.857
60368W        W27436  11.812  29.498  11.920
60369W        W27437  26.543  23.037   2.752
60370W        W27438   9.822  18.073  12.576
60371W        W27439  10.297  40.821   3.720
60372W        W27440  27.183  13.661  12.509
60373W        W27441  40.034  34.512   2.726
60374W        W27442   5.861  28.013  12.431
60375W        W27443   1.264  32.025   4.210
60376W        W27444  30.555  40.359  13.022
60377W        W27445  41.457  18.254  10.502
60378W        W27446   8.383  36.928  13.830
60379W        W27447  10.151  31.408   1.414
60380W        W27448   9.315  24.526  13.028
60381W        W27449  14.164  44.423  14.860
60382W        W27450  16.120  33.556   1.307
60383W        W27451  10.175  24.168  10.450
60384W        W27452  10.187  44.380  11.054
60385W        W27453   6.295   3.365  11.966
60386W        W27454  29.159  33.101   2.770
60387W        W27455  41.840  33.033  12.436
60388W        W27456  15.643  23.654   0.418
60389W        W27457   6.218  18.790   1.318
60390W        W27458  24.532  24.029  13.541
60391W        W27459  36.926  21.707   3.294
60392W        W27460  22.180  42.425   9.545
60393W        W27461  19.188   7.838  11.490
60394W        W27462  31.594  12.618   3.640
60395W        W27463  39.014   6.700  13.912
60396W        W27464  38.517  31.648  10.925
60397W        W27465  38.370  35.603   3.330
60398W        W27466  23.234  11.737  10.644
60399W        W27467  14.651  42.865  14.973
60400W        W27468  30.422  34.892   0.263
60401W        W27469   0.815   4.784  12.085
60402W        W27470  12.765  30.156  11.993
60403W        W27471  18.087  11.371   3.315
60404W        W27472  23.579  18.114  14.984
60405W        W27473  18.708  23.607  10.577
60406W        W27474  36.538  40.810   4.634
60407W        W27475  35.855  32.078  13.394
60408W        W27476   9.679  28.676   0.952
60409W        W27477  23.678  27.080   3.373
60410W        W27478  19.763  40.362  10.538
60411W        W27479  21.662  41.016   2.816
60412W        W27480  13.296  30.453   2.298
60413W        W27481   4.811  28.470   1.227
60414W        W27482  38.969  34.383   1.914
60415W        W27483   2.461  22.542  14.419
60416W        W27484  40.860  16.103  12.095
60417W        W27485   8.864  17.778  11.379
60418W        W27486  29.117  34.012  14.332
60419W        W27487  11.839  27.567  10.503
60420W        W27488  41.517  33.890  14.969
60421W        W27489  29.462  31.572  14.319
60422W        W27490   5.778   2.884   3.244
60423W        W27491  12.282  18.772   4.245
60424W        W27492  20.186  32.414  14.947
60425W        W27493   9.303   1.766  13.966
60426W        W27494  38.508  13.650  12.828
60427W        W27495  38.994  20.584  11.034
60428W        W27496   5.911  14.804  11.430
60429W        W27497   4.851   1.454   3.235
60430W        W27498  24.059  31.045   3.190
60431W        W27499  36.455  31.488   1.787
60432W        W27500  22.240   7.764  13.830
60433W        W27501  25.655  39.378  14.822
60434W        W27502   7.734   6.858  10.611
60435W        W27503  38.068  16.672  12.355
60436W        W27504  21.731  27.607  13.821
60437W        W27505   3.391  15.630   2.853
60438W        W27506  22.550  40.893   3.204
60439W        W27507   0.402  12.233  13.356
60440W        W27508   3.402   9.881   3.849
60441W        W27509   7.742  35.499   2.747
60442W        W27510  24.090  13.267   4.800
60443W        W27511   4.431  34.103   0.335
60444W        W27512  37.884  13.830   0.755
60445W        W27513  31.430  44.457   1.371
60446W        W27514  40.465  10.751   2.771
60447W        W27515  35.852  28.578  12.390
60448W        W27516  27.655  37.975  13.007
60449W        W27517  17.154  23.143   3.210
60450W        W27518   1.848  30.515   3.209
60451W        W27519  18.659  44.369  11.377
60452W        W27520  19.110  15.619   1.903
60453W        W27521  33.946   7.393  14.896
60454W        W27522   1.284   3.717  12.352
60455W        W27523   9.739  41.364   3.376
60456W        W27524  32.905   8.784   4.787
60457W        W27525  28.603  39.824   3.178
60458W        W27526   7.718  13.707   1.211
60459W        W27527   6.226  16.691  11.002
60460W        W27528  36.422  11.216  11.959
60461W        W27529  17.293   9.231   0.960
60462W        W27530   6.343  36.856  12.362
60463W        W27531  28.677  42.346  10.545
60464W        W27532  17.081   8.198  13.922
60465W        W27533  11.667  26.169  12.366
60466W        W27534  20.680  20.073  11.913
60467W        W27535  10.229  21.201  14.003
60468W        W27536  38.488  19.713  10.520
60469W        W27537  39.980  22.221   1.425
60470W        W27538  20.752  36.543   1.917
60471W        W27539   0.262  25.527   3.698
60472W        W27540  16.204  30.916   4.760
60473W        W27541  25.503  30.067  11.993
60474W        W27542   9.733  12.160  12.045
60475W        W27543  11.337  14.795  11.457
60476W        W27544   9.667  28.645   2.248
60477W        W27545  43.912  22.641  11.912
60478W        W27546  42.337  27.519   4.164
60479W        W27547   8.808  26.511   1.324
60480W        W27548  39.839  41.808   3.685
60481W        W27549  42.869  43.369   2.282
60482W        W27550  15.708   1.482  14.876
60483W        W27551  16.666   8.789  12.349
60484W        W27552  12.362  14.704  12.404
60485W        W27553   2.891  44.258  12.535
60486W        W27554  30.158   6.350   2.728
60487W        W27555  26.543   8.360  12.938
60488W        W27556  17.062   4.703  13.010
60489W        W27557  13.808   4.764   4.625
60490W        W27558  44.357  17.741  14.341
60491W        W27559  26.017  11.684  12.388
60492W        W27560  43.390   3.400  10.538
60493W        W27561  30.059   9.334  11.589
60494W        W27562  31.511  34.072   2.271
60495W        W27563  22.193  43.374   3.351
60496W        W27564  11.259  15.763  12.896
60497W        W27565  36.992  44.820   3.771
60498W        W27566  44.411  43.793   1.882
60499W        W27567   6.217  18.261   5.129
60500W        W27568   8.720  12.137  11.925
60501W        W27569  14.164   1.871   3.653
60502W        W27570   1.437  23.538   2.752
60503W        W27571  24.188  30.050  10.631
60504W        W27572  30.548   3.765  11.432
60505W        W27573  31.036  40.432   1.293
60506W        W27574   6.310  34.450  12.392
60507W        W27575  34.954  15.173   0.267
60508W        W27576  36.063  20.653   0.291
60509W        W27577  18.264  36.895  13.538
60510W        W27578  35.885  12.353   4.615
60511W        W27579  28.593   9.336  14.280
60512W        W27580  33.896  19.746   0.269
60513W        W27581   4.448  23.557  11.928
60514W        W27582  13.345  31.043   0.259
60515W        W27583  19.695  36.578   2.838
60516W        W27584  41.372  21.239  12.050
60517W        W27585  27.575   7.235   4.301
60518W        W27586  42.323  35.981  14.966
60519W        W27587  25.984   4.262  10.497
60520W        W27588  39.490   5.815  13.449
60521W        W27589   1.759  21.616  12.386
60522W        W27590  33.933  41.970   4.332
60523W        W27591  17.628  44.777  13.907
60524W        W27592  11.312  12.133  11.590
60525W        W27593  25.062   8.818  14.988
60526W        W27594  27.553  16.768  14.452
60527W        W27595  25.962  21.568  14.773
60528W        W27596  33.901  13.682   1.855
60529W        W27597  13.149  26.689   0.809
60530W        W27598   4.768  36.004   0.422
60531W        W27599   5.814  30.485  10.972
60532W        W27600   5.274  17.081  11.048
60533W        W27601  18.172  16.193  13.054
60534W        W27602  29.160  23.529   2.902
60535W        W27603  43.985  20.671  13.958
60536W        W27604   3.271   8.178  11.867
60537W        W27605   3.781  23.200   4.250
60538W        W27606   1.468  19.644   2.715
60539W        W27607  13.621   3.295  13.432
60540W        W27608  14.332  35.919   3.199
60541W        W27609  32.042  11.318  12.506
60542W        W27610  25.123  36.542  14.847
60543W        W27611  26.656   0.984   0.780
60544W        W27612  44.958  33.942   3.268
60545W        W27613   4.358  19.093  12.886
60546W        W27614  27.548  37.472   3.270
60547W        W27615  38.388  24.518   3.649
60548W        W27616  28.079  14.234   0.856
60549W        W27617   7.851  21.560   1.767
60550W        W27618   2.946  24.218   1.391
60551W        W27619  31.904  28.645   2.737
60552W        W27620  14.209  28.646  14.796
60553W        W27621   0.773  23.506   2.272
60554W        W27622  34.507  32.968   3.790
60555W        W27623  28.982  39.388  14.355
60556W        W27624   5.278  35.445   3.820
60557W        W27625  23.115   5.741  11.527
60558W        W27626  36.516  44.784   4.251
60559W        W27627  40.886  15.104   4.781
60560W        W27628   9.270   6.909   1.846
60561W        W27629  38.968  11.144  12.559
60562W        W27630  32.499  34.427   3.830
60563W        W27631  28.031  29.643   0.418
60564W        W27632   9.682  42.518  10.535
60565W        W27633  42.310   2.390  10.915
60566W        W27634  27.683  21.194  11.916
60567W        W27635   2.269   1.925   9.995
60568W        W27636  21.580   3.779   4.754
60569W        W27637  22.529   2.251   2.765
60570W        W27638  16.104  34.909   4.156
60571W        W27639  22.690  39.330   0.951
60572W        W27640  19.739  41.971  11.542
60573W        W27641   9.167  39.918   1.313
60574W        W27642  13.746  41.904   1.210
60575W        W27643  38.827   6.861  12.878
60576W        W27644   7.183  14.627  13.005
60577W        W27645   9.713  38.333  14.511
60578W        W27646  22.564  25.164   1.919
60579W        W27647  38.329  21.581  10.520
60580W        W27648   8.307  13.636  12.865
60581W        W27649   7.370  29.100  14.806
60582W        W27650  43.500  13.793  12.023
60583W        W27651  11.665  32.925   2.244
60584W        W27652   1.966  18.598  11.123
60585W        W27653  17.184  10.384   2.674
60586W        W27654  16.573  12.805   0.433
60587W        W27655  26.519  21.542  14.841
60588W        W27656  37.555  44.979   4.814
60589W        W27657  32.583  42.922  13.440
60590W        W27658  21.194  36.921  10.552
60591W        W27659  16.265  31.624   1.437
60592W        W27660  43.000  13.740  14.392
60593W        W27661  43.000  24.630  13.885
60594W        W27662  37.966  22.159  10.455
60595W        W27663  36.587  25.522   1.742
60596W        W27664  26.472  36.020   1.424
60597W        W27665  34.604  39.358  13.802
60598W        W27666  44.851   0.785  10.468
60599W        W27667  16.659  17.640  14.337
60600W        W27668   8.220   6.236   1.318
60601W        W27669  31.552   9.782  12.088
60602W        W27670  13.344   8.713   3.729
60603W        W27671  31.425  32.048  12.563
60604W        W27672  11.341  16.196   3.240
60605W        W27673  13.163  30.540   4.273
60606W        W27674   9.672  26.012  14.902
60607W        W27675   0.452  12.637   3.695
60608W        W27676  23.608   7.742  14.464
60609W        W27677  33.999  20.584  10.620
60610W        W27678  16.301  26.643   2.709
60611W        W27679  41.817  16.782   3.217
60612W        W27680   2.228  38.067   0.893
60613W        W27681  23.523  15.675   4.166
60614W        W27682   8.225  34.870   3.373
60615W        W27683   5.860   2.794   2.308
60616W        W27684  33.478  22.627  11.984
60617W        W27685  33.004  14.824   2.834
60618W        W27686  36.872  42.297  14.321
60619W        W27687  15.797  35.892  14.930
60620W        W27688   8.387   7.689  14.500
60621W        W27689  29.923   0.410  12.370
60622W        W27690  41.396   9.697   2.767
60623W        W27691  30.993  44.309  11.904
60624W        W27692   1.958   8.729   4.667
60625W        W27693  36.947   1.815   0.399
60626W        W27694  39.985  29.609  12.450
60627W        W27695  22.028  11.650  10.515
60628W        W27696  21.073  30.420   2.889
60629W        W27697  27.531  27.952  11.070
60630W        W27698  36.952  40.808  14.937
60631W        W27699  11.633  31.466  10.505
60632W        W27700   3.887  21.739   3.376
60633W        W27701  16.582   8.891  14.009
60634W        W27702  18.652  30.655  12.996
60635W        W27703  14.659  41.401   1.849
60636W        W27704   4.431  34.527   1.859
60637W        W27705   8.383  30.152   2.278
60638W        W27706  11.731  38.326   2.247
60639W        W27707  27.004  19.087  14.849
60640W        W27708  42.986   0.413  10.515
60641W        W27709  42.900  14.722   4.691
60642W        W27710  29.667  28.074  12.494
60643W        W27711   7.821   7.300  12.528
60644W        W27712  14.327  28.604  13.820
60645W        W27713  36.888  12.835  14.826
60646W        W27714  10.147  43.837  14.780
60647W        W27715   6.749   5.691   0.928
60648W        W27716  41.969  34.526  14.895
60649W        W27717  36.348   7.386  10.422
60650W        W27718   8.761  18.738   1.216
60651W        W27719  41.508  13.668  10.942
60652W        W27720   5.331  35.481   4.617
60653W        W27721  23.995  43.832  13.019
60654W        W27722  19.655   9.302   3.688
60655W        W27723   5.933   1.846  11.392
60656W        W27724  33.876  34.093  13.873
60657W        W27725  40.916  35.044  11.606
60658W        W27726  17.243  16.076  13.378
60659W        W27727  12.320  44.315   5.656
60660W        W27728  37.917   8.851  12.050
60661W        W27729  12.157  16.127  12.350
60662W        W27730   3.747   5.925   0.465
60663W        W27731  29.925  40.397   2.295
60664W        W27732  30.009  24.685   4.654
60665W        W27733  30.940  26.695   3.382
60666W        W27734  37.421   4.845   4.726
60667W        W27735  30.020  24.199  11.565
60668W        W27736   1.264  15.246  13.517
60669W        W27737  26.557  27.587   2.399
60670W        W27738  36.940  22.687   4.247
60671W        W27739  25.016   4.864   1.293
60672W        W27740  18.278  28.130  13.959
60673W        W27741  38.361  18.073  13.018
60674W        W27742   7.736  39.871  12.511
60675W        W27743  14.681   8.721  10.958
60676W        W27744  38.880  41.507   3.174
60677W        W27745  39.852  38.569  14.418
60678W        W27746   8.670   2.469  10.560
60679W        W27747  20.760  10.348   0.427
60680W        W27748   2.248   7.733  11.490
60681W        W27749  26.954  16.773   4.661
60682W        W27750  33.545  17.103   4.191
60683W        W27751  33.962  32.463   3.289
60684W        W27752  18.204   0.811   3.645
60685W        W27753  29.964  29.615   1.899
60686W        W27754  23.730   3.817   1.298
60687W        W27755   2.883  26.989  11.030
60688W        W27756  20.084  25.580  12.441
60689W        W27757  15.817  18.097  11.917
60690W        W27758  42.843  21.561  13.898
60691W        W27759  16.316  32.612  11.534
60692W        W27760  39.465  13.716  13.400
60693W        W27761   1.288  30.561   4.283
60694W        W27762   6.370  31.054   4.292
60695W        W27763  21.028   0.493   1.234
60696W        W27764  17.073  40.844   4.287
60697W        W27765  21.197  32.581  12.023
60698W        W27766   7.240  36.973  14.765
60699W        W27767  38.901   9.321   3.858
60700W        W27768  26.584  26.153   4.661
60701W        W27769  10.292  23.723   2.894
60702W        W27770  10.833  41.791   1.242
60703W        W27771  30.048  21.218  12.922
60704W        W27772  23.240   0.968  10.477
60705W        W27773  19.640  36.526  13.464
60706W        W27774  13.181  11.676  14.495
60707W        W27775  40.881   8.707  10.603
60708W        W27776  35.493  33.590   4.597
60709W        W27777  11.319  14.789   3.733
60710W        W27778  21.089   0.446  11.557
60711W        W27779   3.337  42.847  12.859
60712W        W27780   3.228  44.416  13.444
60713W        W27781  35.486  21.635   1.882
60714W        W27782  35.099  30.959   1.788
60715W        W27783  26.955  37.428   5.130
60716W        W27784  34.049  30.599   0.966
60717W        W27785  29.571   9.178  10.471
60718W        W27786  28.643  13.723   1.788
60719W        W27787  13.199  30.950   3.186
60720W        W27788  36.497  21.747  10.992
60721W        W27789   9.261  38.528  10.614
60722W        W27790  33.473  26.633  13.039
60723W        W27791  28.076  14.295  14.510
60724W        W27792  39.408  27.995   4.139
60725W        W27793  19.676  30.643   0.281
60726W        W27794  20.270  22.122  13.392
60727W        W27795   4.822  32.568   1.871
60728W        W27796   2.898  30.478  12.835
60729W        W27797  23.092  28.676   1.792
60730W        W27798  42.004   1.457   4.170
60731W        W27799  39.403  44.010   0.818
60732W        W27800  25.680  41.383  14.872
60733W        W27801  41.889  39.506  14.330
60734W        W27802  44.779  34.953   0.301
60735W        W27803   5.737  29.448   3.717
60736W        W27804   6.268  29.016   2.766
60737W        W27805  10.869  22.741  12.960
60738W        W27806  27.535  23.134  12.927
60739W        W27807  30.959  21.546   4.771
60740W        W27808   2.315  40.957  11.906
60741W        W27809  22.242   5.332  13.912
60742W        W27810  36.078  37.551  10.636
60743W        W27811   3.401  15.743   1.882
60744W        W27812  19.163  23.558   3.778
60745W        W27813  41.845  22.572   3.358
60746W        W27814   0.759  29.612   0.896
60747W        W27815  25.540  22.721  11.500
60748W        W27816  11.343  36.048  13.984
60749W        W27817  38.934  20.054  12.929
60750W        W27818  40.935   2.419   0.401
60751W        W27819   8.833  42.406   2.724
60752W        W27820  19.213  31.551   4.715
60753W        W27821  30.091  42.386  13.969
60754W        W27822   6.336  34.464   4.635
60755W        W27823  37.901  40.327   0.813
60756W        W27824   8.262   7.775   4.138
60757W        W27825  25.611  17.188   2.217
60758W        W27826  26.569  36.533  12.984
60759W        W27827  20.053   4.867   3.219
60760W        W27828  25.606   4.782   4.141
60761W        W27829  37.034  34.883   3.205
60762W        W27830  16.196   0.417  10.427
60763W        W27831  19.767   7.880   2.665
60764W        W27832  27.141  24.631   4.162
60765W        W27833   4.702  40.333   0.425
60766W        W27834  38.343  20.140  14.031
60767W        W27835  16.672  32.998  14.377
60768W        W27836  20.094  17.299   1.432
60769W        W27837  36.402  28.540  12.907
60770W        W27838  44.789   4.359   2.279
60771W        W27839  39.928   6.229  11.891
60772W        W27840  44.791  32.409  11.506
60773W        W27841  44.974  21.150  13.879
60774W        W27842   5.730   4.392  14.299
60775W        W27843  34.014  29.543   4.714
60776W        W27844   2.316  37.556  14.459
60777W        W27845   7.303  38.046  14.391
60778W        W27846  36.527   7.858  13.913
60779W        W27847  35.903  26.604   2.231
60780W        W27848  20.532  37.354   4.289
60781W        W27849  14.602  15.128  10.560
60782W        W27850  15.101  30.549   2.323
60783W        W27851  18.779  10.374   3.692
60784W        W27852  17.644  22.630   1.363
60785W        W27853  40.024   3.317  11.919
60786W        W27854   3.847   4.751   1.325
60787W        W27855  44.361  36.383  13.544
60788W        W27856  20.172  23.683  12.854
60789W        W27857  35.440   7.253   3.317
60790W        W27858  36.441  11.836   0.431
60791W        W27859  19.264  14.237  11.108
60792W        W27860  23.658  28.180  13.976
60793W        W27861  16.655  17.181   3.269
60794W        W27862  38.341  26.606   1.744
60795W        W27863  30.446  11.272  11.110
60796W        W27864  16.603  14.740   1.895
60797W        W27865  12.134  13.802   0.757
60798W        W27866  23.087  27.609   1.867
60799W        W27867   5.712  21.534  10.452
60800W        W27868  10.732  27.482  10.933
60801W        W27869  21.254  20.124   5.221
60802W        W27870  30.000  21.533   0.882
60803W        W27871  18.547  33.540   0.251
60804W        W27872  17.065  10.330   3.166
60805W        W27873  39.514   8.262  11.562
60806W        W27874  37.431  37.489  12.515
60807W        W27875  37.925   0.310   0.396
60808W        W27876  28.113  14.155  10.954
60809W        W27877  38.908   7.757   0.819
60810W        W27878  18.235  40.990  13.317
60811W        W27879  33.584  30.521   9.989
60812W        W27880  13.179  29.508  14.765
60813W        W27881   5.806  14.699  11.018
60814W        W27882  34.925  42.368  10.981
60815W        W27883  43.481   4.780  13.440
60816W        W27884  26.114  13.326   0.861
60817W        W27885  30.440  38.057   3.238
60818W        W27886  25.000  17.618   1.291
60819W        W27887  10.295  41.335   2.312
60820W        W27888   8.216  22.079   4.658
60821W        W27889   6.293   5.864   3.795
60822W        W27890  18.775  40.047  11.923
60823W        W27891   6.823  35.962  11.933
60824W        W27892   6.285  18.142  13.316
60825W        W27893  26.509  10.347   4.197
60826W        W27894  24.672  21.546  14.304
60827W        W27895  11.168  38.028  14.435
60828W        W27896  34.492  11.289  12.940
60829W        W27897  15.668  31.908  13.876
60830W        W27898  42.797  31.917  13.805
60831W        W27899  38.361  12.163  13.313
60832W        W27900  30.066  32.141   1.904
60833W        W27901  39.913  39.816   1.804
60834W        W27902  33.558   7.818  14.346
60835W        W27903  25.130  15.764   0.480
60836W        W27904  34.486  37.886  14.467
60837W        W27905  24.655  21.651   3.748
60838W        W27906  28.000   3.409   1.266
60839W        W27907  10.344  32.564  14.452
60840W        W27908  12.297  29.589   4.250
60841W        W27909   4.802  40.318   0.827
60842W        W27910  26.097  33.018  14.015
60843W        W27911  12.215  12.670   2.180
60844W        W27912   2.401  14.686  10.625
60845W        W27913   2.957  14.201  12.917
60846W        W27914  36.868  16.702  13.412
60847W        W27915  33.947  20.612  11.506
60848W        W27916  31.438  19.651  13.870
60849W        W27917   6.271  21.240   0.277
60850W        W27918  44.001   5.426  12.991
60851W        W27919   7.684  18.790  11.913
60852W        W27920  30.565  16.215   5.626
60853W        W27921  17.689  31.075  10.431
60854W        W27922  38.446  18.722   4.152
60855W        W27923   5.238  29.089   0.278
60856W        W27924  42.911  15.258   1.932
60857W        W27925  13.718  39.455   2.779
60858W        W27926   0.317  41.360  10.489
60859W        W27927  27.161   5.355  11.860
60860W        W27928  36.086  13.230   1.881
60861W        W27929  43.783   3.281  11.933
60862W        W27930  40.026  15.701  10.582
60863W        W27931   1.327  39.427  13.535
60864W        W27932  19.169  16.316   4.741
60865W        W27933  29.423  20.217   3.721
60866W        W27934   8.212   1.464  10.081
60867W        W27935   6.774  20.737   4.150
60868W        W27936  34.002  21.040   0.760
60869W        W27937  36.870  43.363   2.198
60870W        W27938  18.264  41.996  11.049
60871W        W27939  12.349   2.765   2.691
60872W        W27940  34.075   6.293   0.786
60873W        W27941   3.734  38.969   9.986
60874W        W27942  24.602  22.104  11.014
60875W        W27943   8.351  44.869  12.455
60876W        W27944  39.505  22.198  11.001
60877W        W27945  41.891  35.470   0.253
60878W        W27946  33.397  39.844   2.419
60879W        W27947  21.144  12.610   4.214
60880W        W27948   0.264  31.943   2.261
60881W        W27949  41.892  26.959   3.159
60882W        W27950  25.007  20.621  14.030
60883W        W27951   4.424  37.414   0.445
60884W        W27952  11.867  31.545   0.878
60885W        W27953  29.921  42.391  11.396
60886W        W27954  11.331  30.656  14.873
60887W        W27955  34.614  31.999   4.705
60888W        W27956  22.201  43.766  11.390
60889W        W27957  10.832  11.669  14.921
60890W        W27958  13.204  25.149   1.753
60891W        W27959  23.593  37.480   3.856
60892W        W27960  35.868  42.884   3.657
60893W        W27961  11.274  32.011   1.367
60894W        W27962  44.935  42.029  14.297
60895W        W27963   3.869  16.696   4.683
60896W        W27964  21.187  21.520  11.403
60897W        W27965  24.216  23.240   1.295
60898W        W27966  34.978  10.867  13.807
60899W        W27967  30.513  23.031  13.889
60900W        W27968  16.285  34.054  10.445
60901W        W27969  28.002  24.489  11.077
60902W        W27970  42.971  41.947   4.693
60903W        W27971  33.598   0.803   2.257
60904W        W27972  30.516  36.890   4.313
60905W        W27973  30.950   6.792  12.091
60906W        W27974   8.313  13.110   1.873
60907W        W27975   0.452   0.258  14.412
60908W        W27976  16.112  12.757  12.003
60909W        W27977  19.544  35.427   3.299
60910W        W27978  10.785  35.433   2.374
60911W        W27979  13.705  21.583   3.222
60912W        W27980  35.059   1.850  11.909
60913W        W27981  34.592  35.041  14.966
60914W        W27982  19.640  24.103  11.519
60915W        W27983  41.885  21.081  11.029
60916W        W27984  39.989   7.843   4.120
60917W        W27985  44.972  18.683  14.772
60918W        W27986  21.139   6.756  12.508
60919W        W27987  21.057  38.984   2.839
60920W        W27988  28.492   3.271   0.407
60921W        W27989  36.480   9.372   0.413
60922W        W27990  38.880  43.360   3.214
60923W        W27991  30.507  42.849  13.803
60924W        W27992   3.363  25.996   0.422
60925W        W27993   4.862  11.159   2.177
60926W        W27994  43.292   7.679  14.437
60927W        W27995  39.496   1.263   3.184
60928W        W27996   7.682   8.243  14.965
60929W        W27997   1.472  29.539   1.884
60930W        W27998  38.495  29.139  11.559
60931W        W27999  35.096   6.297  14.283
60932W        W28000  17.268  24.706  12.908
60933W        W28001  21.204  21.190  10.541
60934W        W28002  14.597   6.912   2.202
60935W        W28003   0.265   0.436  13.319
60936W        W28004  42.977  44.008  11.421
60937W        W28005  41.016  44.278   3.277
60938W        W28006  11.142  15.322  14.318
60939W        W28007  17.643  15.310   1.302
60940W        W28008   0.437  16.308   3.330
60941W        W28009  24.707  14.724  11.516
60942W        W28010  21.593   2.826   4.739
60943W        W28011  32.909   6.324   4.245
60944W        W28012   4.769   1.773   3.260
60945W        W28013  42.861  16.134  11.425
60946W        W28014  33.410  39.448   1.357
60947W        W28015  22.572  30.101  12.525
60948W        W28016  28.930  33.995   2.238
60949W        W28017   0.346  18.158   0.770
60950W        W28018   9.713  16.102  12.053
60951W        W28019  16.234  23.986   1.313
60952W        W28020  34.486  11.187   1.256
60953W        W28021  20.715  14.784  14.002
60954W        W28022  23.152  44.298   0.769
60955W        W28023   0.296   1.298   2.386
60956W        W28024  34.919  13.655   3.650
60957W        W28025  41.307  15.327  12.431
60958W        W28026  23.143   0.327   0.833
60959W        W28027  11.868  19.666   5.089
60960W        W28028  44.270  10.760   2.198
60961W        W28029  13.629  20.098  13.547
60962W        W28030  34.909  31.599  13.838
60963W        W28031  25.974   1.879  13.828
60964W        W28032  32.079   9.816   4.664
60965W        W28033   5.735  23.146  14.418
60966W        W28034  40.836  29.599   1.343
60967W        W28035  25.015  29.438  14.324
60968W        W28036  17.674  40.315  13.842
60969W        W28037  14.663  26.156   4.802
60970W        W28038  33.449  22.034  14.030
60971W        W28039  38.432  44.828   3.657
60972W        W28040   2.454  21.701  14.342
60973W        W28041  10.716  31.910  10.612
60974W        W28042  31.585  10.873  10.526
60975W        W28043  29.616  21.109   5.130
60976W        W28044  34.038  37.437   3.351
60977W        W28045  19.602  35.885  14.975
60978W        W28046  34.545  38.516   1.718
60979W        W28047  33.100   6.211  11.611
60980W        W28048  11.345   5.279  10.616
60981W        W28049  13.841  25.080   0.449
60982W        W28050   9.240  39.348  11.431
60983W        W28051  35.100  25.564  13.982
60984W        W28052  43.489   6.711  12.551
60985W        W28053  28.597  15.187   1.216
60986W        W28054  36.045  12.697   3.229
60987W        W28055   8.235  40.549   3.669
60988W        W28056  13.642   5.898   3.353
60989W        W28057  25.074  30.588   0.347
60990W        W28058  19.611   2.361   1.792
60991W        W28059  39.459  29.496  11.490
60992W        W28060  18.656  30.589   3.288
60993W        W28061   2.734  17.561  14.416
60994W        W28062  10.683  38.036  14.338
60995W        W28063  17.275  23.104  11.383
60996W        W28064   4.285  27.691  10.557
60997W        W28065  19.055  44.360   0.781
60998W        W28066  21.691  43.967   1.316
60999W        W28067  42.432  39.900   2.796
61000W        W28068   9.270  25.052  12.365
61001W        W28069  44.434   1.768   0.408
61002W        W28070  35.013  11.730  10.032
61003W        W28071  44.962  39.007   0.836
61004W        W28072   3.890  24.046  13.445
61005W        W28073  40.361   0.964   0.357
61006W        W28074  14.786  25.492  11.976
61007W        W28075  30.080  23.036  13.036
61008W        W28076   2.837  37.019  14.449
61009W        W28077  34.964  32.598  10.541
61010W        W28078  36.549   0.429  10.408
61011W        W28079  18.777  21.058  10.587
61012W        W28080   1.245   1.334   1.861
61013W        W28081  17.787  22.628  13.496
61014W        W28082  14.216   9.256  12.430
61015W        W28083   4.442  24.226   3.813
61016W        W28084  34.541  39.336  13.030
61017W        W28085  10.850  31.068   3.695
61018W        W28086  31.564  37.979   0.390
61019W        W28087  23.119  16.115   0.372
61020W        W28088  20.590   3.251   5.302
61021W        W28089   3.413  18.646  12.895
61022W        W28090  25.676  15.678   3.374
61023W        W28091  44.295   4.748  14.415
61024W        W28092  38.342  22.192   1.295
61025W        W28093   2.356  22.582  11.481
61026W        W28094  39.971  30.103   2.682
61027W        W28095  34.500  26.603   1.233
61028W        W28096  20.639  17.590   3.272
61029W        W28097  18.775  34.888  13.940
61030W        W28098  29.584  32.068   4.273
61031W        W28099   6.886  12.803   0.852
61032W        W28100   9.365  42.434   4.657
61033W        W28101   2.957  18.764   0.276
61034W        W28102  24.629  15.088  14.429
61035W        W28103  44.874  33.618  11.371
61036W        W28104  25.679  37.887  13.044
61037W        W28105  20.103  16.777  12.457
61038W        W28106  29.524  35.103   3.630
61039W        W28107  40.809  41.996   3.843
61040W        W28108  17.200   7.828   4.248
61041W        W28109  41.294  38.457  11.493
61042W        W28110   7.308   4.792  11.944
61043W        W28111   8.780  24.169   5.212
61044W        W28112   0.928   8.884   5.169
61045W        W28113  26.011  12.195  14.342
61046W        W28114  14.695  42.929   4.316
61047W        W28115  14.213  31.955  11.970
61048W        W28116  20.572  28.956  11.590
61049W        W28117  18.165  21.556   3.230
61050W        W28118  22.562  40.422   0.846
61051W        W28119  36.056  12.758   1.757
61052W        W28120  33.944  42.479  12.838
61053W        W28121  15.598  18.614   3.800
61054W        W28122  14.116  38.934   3.847
61055W        W28123  18.280  12.135   3.309
61056W        W28124  34.064   7.196  12.541
61057W        W28125  29.001  43.288  13.343
61058W        W28126  38.540  22.694  11.422
61059W        W28127  28.157  39.889   2.682
61060W        W28128  38.333  10.311   3.849
61061W        W28129  12.293  29.576   4.740
61062W        W28130  13.744   3.710   4.604
61063W        W28131  24.608  31.970   3.676
61064W        W28132  38.062   3.349   4.288
61065W        W28133  43.959   0.334  13.440
61066W        W28134  19.705  24.704  10.530
61067W        W28135  19.173   9.265   1.903
61068W        W28136   3.825  11.327  12.983
61069W        W28137  39.888   0.964  13.814
61070W        W28138   0.358   7.222  12.049
61071W        W28139  29.510  21.639  11.921
61072W        W28140  39.425  19.693  12.830
61073W        W28141  33.082  33.002   0.889
61074W        W28142  23.702  25.619   3.302
61075W        W28143  25.025   1.278  12.848
61076W        W28144  10.777   9.345  12.560
61077W        W28145  29.636   1.398  10.991
61078W        W28146  42.886   2.757   4.703
61079W        W28147   1.260   4.325  14.371
61080W        W28148  44.502   7.371   2.672
61081W        W28149  19.059  42.929  14.288
61082W        W28150  21.124  20.586  12.854
61083W        W28151  31.062  31.522   2.774
61084W        W28152  42.031  17.627  14.807
61085W        W28153  40.531  28.113  11.548
61086W        W28154  40.825  27.545  13.011
61087W        W28155  17.179  29.614  11.570
61088W        W28156  25.520  28.013   0.343
61089W        W28157  32.575  17.561  10.495
61090W        W28158  35.003  15.807  11.585
61091W        W28159  14.626  22.100  14.388
61092W        W28160  20.613  27.977  11.595
61093W        W28161   3.803  32.484  12.085
61094W        W28162  29.038  12.138  13.858
61095W        W28163   5.268  37.893  12.941
61096W        W28164  31.485  43.867  14.831
61097W        W28165   3.298  38.970  12.390
61098W        W28166  34.013  38.549  11.090
61099W        W28167  42.483  35.500   0.258
61100W        W28168  13.154  43.309   0.333
61101W        W28169  24.133  10.858   4.141
61102W        W28170  23.146   7.298  10.967
61103W        W28171  33.127  42.797   0.831
61104W        W28172  42.444  25.122  13.943
61105W        W28173   9.246   5.775  14.857
61106W        W28174  28.580  27.479   3.385
61107W        W28175  41.492   8.375  11.045
61108W        W28176  22.738  14.610   1.328
61109W        W28177  25.501  26.106   1.845
61110W        W28178  44.983  11.140  11.600
61111W        W28179   7.847  42.895   0.453
61112W        W28180  24.167   8.872   4.294
61113W        W28181  29.159  29.115  14.894
61114W        W28182  42.859  13.727   1.430
61115W        W28183  37.894   3.404   3.671
61116W        W28184  30.944  16.795  12.427
61117W        W28185  33.910  44.798   0.365
61118W        W28186  14.290  32.041   3.824
61119W        W28187  10.212  39.478  12.413
61120W        W28188  41.991  14.213   1.415
61121W        W28189  39.869   5.263  14.459
61122W        W28190  23.027  40.502  11.986
61123W        W28191  37.375  39.552   4.253
61124W        W28192  22.070   7.792   0.813
61125W        W28193  44.362   8.405  11.866
61126W        W28194  12.236  34.583   3.755
61127W        W28195  32.112  14.738   3.707
61128W        W28196  16.121  34.895   2.224
61129W        W28197  37.371  40.996  13.457
61130W        W28198   0.449  22.055  11.486
61131W        W28199   9.265  35.988  10.923
61132W        W28200  33.001  39.386   0.742
61133W        W28201  11.258  34.980   2.753
61134W        W28202  17.172   0.748  14.479
61135W        W28203  20.077  22.211   4.294
61136W        W28204  38.026  16.177  14.956
61137W        W28205  29.111   5.367  13.477
61138W        W28206   3.336  33.538   1.702
61139W        W28207   9.267  42.974  14.968
61140W        W28208  10.806   6.836   2.260
61141W        W28209  25.981  12.637  14.331
61142W        W28210  17.212  41.491   2.359
61143W        W28211  22.516  39.408   2.371
61144W        W28212   1.840  32.545   1.716
61145W        W28213   8.654  42.419   1.928
61146W        W28214  11.372   7.242   1.326
61147W        W28215   5.393  32.528  14.397
61148W        W28216  42.832  22.545   1.332
61149W        W28217  18.270  28.953   1.892
61150W        W28218  25.688  31.141   0.837
61151W        W28219   8.339  41.832   1.820
61152W        W28220  33.491  14.735  12.566
61153W        W28221  23.004  37.072  14.815
61154W        W28222  19.168  32.491  11.084
61155W        W28223  11.225   1.328   3.790
61156W        W28224   4.704  34.545   3.376
61157W        W28225  12.635  26.166  13.540
61158W        W28226  11.301  42.898   4.636
61159W        W28227  18.709  13.305   0.376
61160W        W28228   2.853   1.965  10.612
61161W        W28229  42.431  11.232  12.992
61162W        W28230  11.176  24.638   0.362
61163W        W28231  38.428  31.132   4.755
61164W        W28232  17.601  18.204  13.019
61165W        W28233  13.690  21.184   2.888
61166W        W28234  32.967   8.884  11.438
61167W        W28235  34.565   7.268   4.302
61168W        W28236  41.910  18.091  11.984
61169W        W28237   2.440  37.381  12.986
61170W        W28238  41.950  12.782   2.385
61171W        W28239   8.233  16.227   0.912
61172W        W28240  35.367  12.202   2.745
61173W        W28241  38.839   5.209   3.715
61174W        W28242  40.826  15.792   3.288
61175W        W28243  13.182   9.382   2.417
61176W        W28244  17.694   8.181   2.342
61177W        W28245   5.881  43.501  11.375
61178W        W28246  22.052  12.772  13.807
61179W        W28247   0.367  36.086  14.963
61180W        W28248  40.331  35.485  11.061
61181W        W28249   9.367   4.826  13.543
61182W        W28250  43.443  19.754  13.826
61183W        W28251  12.224  23.047   1.217
61184W        W28252   0.813  12.197  12.014
61185W        W28253   3.374  28.591  12.519
61186W        W28254  40.050  29.623  14.901
61187W        W28255  42.914   0.779  13.791
61188W        W28256   9.663  18.075   0.955
61189W        W28257  29.458  35.059  12.842
61190W        W28258   5.842   3.721  13.843
61191W        W28259  25.590   4.364   0.726
61192W        W28260  26.582   4.936  12.888
61193W        W28261  30.522   3.726   0.794
61194W        W28262  36.377  16.595  12.827
61195W        W28263  20.076   5.387  12.368
61196W        W28264   3.459  30.548   2.740
61197W        W28265  43.358  37.032   0.377
61198W        W28266  32.027  40.406   1.316
61199W        W28267  25.518  26.113  11.033
61200W        W28268  41.943   6.373   2.871
61201W        W28269  20.032  23.509   4.173
61202W        W28270   2.248  38.058   2.397
61203W        W28271   0.757  39.541  12.504
61204W        W28272   1.926  44.899   0.916
61205W        W28273  28.538   6.359  11.383
61206W        W28274  29.444   4.319   0.895
61207W        W28275  40.016   5.831   3.258
61208W        W28276   9.801  44.754  13.443
61209W        W28277  43.856   8.279   3.182
61210W        W28278  32.481   6.303  13.974
61211W        W28279   9.166  23.116  14.301
61212W        W28280  44.291   1.380  12.901
61213W        W28281   9.824  18.140   3.830
61214W        W28282  15.185   5.311   1.248
61215W        W28283   1.959  12.638  11.936
61216W        W28284  17.585   9.300  13.791
61217W        W28285  21.667   7.289   2.679
61218W        W28286  17.296  32.456  10.570
61219W        W28287  24.603  38.530  11.601
61220W        W28288  17.713  23.544  13.026
61221W        W28289  12.777  39.444   1.714
61222W        W28290  11.724   9.787  13.330
61223W        W28291   2.361  13.640  10.892
61224W        W28292  24.612  18.076   3.784
61225W        W28293  37.898  36.942  11.939
61226W        W28294  40.380  14.310   0.732
61227W        W28295   0.893  30.638  13.997
61228W        W28296   5.903  26.996  13.424
61229W        W28297   0.899   6.294   5.139
61230W        W28298  24.230  19.552  14.970
61231W        W28299  24.550   3.886  14.305
61232W        W28300  13.296  24.053   0.927
61233W        W28301  32.460  35.424  12.556
61234W        W28302   3.871  37.465  10.572
61235W        W28303  30.961  14.677   3.869
61236W        W28304  30.600  23.489   3.757
61237W        W28305   0.297  17.134  14.939
61238W        W28306  38.004  12.794   2.189
61239W        W28307  37.897  41.020   1.757
61240W        W28308  19.156  14.742   0.390
61241W        W28309   8.789  20.173   2.417
61242W        W28310  14.608  25.080  10.075
61243W        W28311  10.756  22.684  14.352
61244W        W28312  16.611  44.900   0.317
61245W        W28313  44.490  43.381  14.816
61246W        W28314  27.968  41.507   3.721
61247W        W28315  30.979  16.795   5.159
61248W        W28316  29.941  20.205   1.870
61249W        W28317  31.566  28.160   1.764
61250W        W28318  13.783   3.432   3.697
61251W        W28319  24.094  37.039   3.339
61252W        W28320  43.440   6.253   4.114
61253W        W28321  30.037  27.162   3.207
61254W        W28322  42.785  17.715  13.995
61255W        W28323  19.052  36.856  10.421
61256W        W28324  27.953  14.780  12.466
61257W        W28325   8.861   6.742  10.906
61258W        W28326  40.392   7.399  11.517
61259W        W28327  22.662  38.021  12.974
61260W        W28328  42.322   8.392  12.949
61261W        W28329  22.656  31.606   4.713
61262W        W28330  23.613   8.672  14.429
61263W        W28331  11.638  13.341  11.027
61264W        W28332  42.018  30.501   2.707
61265W        W28333  17.742  23.044  14.333
61266W        W28334   6.236   6.207  10.542
61267W        W28335  12.832   6.316  14.482
61268W        W28336   9.671  26.165  14.490
61269W        W28337  42.946  13.690  13.456
61270W        W28338  22.561  28.485  11.974
61271W        W28339   2.261  11.168   0.884
61272W        W28340  17.714  35.944  14.350
61273W        W28341  23.233  38.848  11.903
61274W        W28342  32.521  38.830  14.326
61275W        W28343  37.844   1.860  14.876
61276W        W28344  35.953   9.216   0.375
61277W        W28345  25.102  44.502  10.946
61278W        W28346  25.158   8.874   2.890
61279W        W28347  22.166  35.414   2.259
61280W        W28348  10.675  18.610   3.812
61281W        W28349  42.948  37.950  11.427
61282W        W28350   5.367  11.621  14.385
61283W        W28351  17.168  18.212  11.058
61284W        W28352  37.533   5.217   1.330
61285W        W28353  41.019   8.291  13.385
61286W        W28354  23.623   5.392   0.343
61287W        W28355  29.555  19.283  14.785
61288W        W28356  22.023   5.332   1.434
61289W        W28357  24.185  20.233  11.955
61290W        W28358  40.988  33.493  12.846
61291W        W28359  11.213  34.600  12.985
61292W        W28360  12.728  32.138   3.282
61293W        W28361  11.320  21.640  10.435
61294W        W28362  39.474  15.737   1.929
61295W        W28363  19.743  32.564   2.748
61296W        W28364  22.746   5.320   2.756
61297W        W28365  15.273   3.832  10.903
61298W        W28366  38.413   1.809  13.809
61299W        W28367  20.161   5.900   2.253
61300W        W28368   4.753   0.301  12.939
61301W        W28369  16.651   2.395   3.719
61302W        W28370  29.575  24.171  12.426
61303W        W28371  10.379  34.601  13.491
61304W        W28372  33.879  23.532  11.086
61305W        W28373  20.538  39.452   0.792
61306W        W28374  13.765  24.511  13.907
61307W        W28375  13.736  28.006  14.936
61308W        W28376   6.303  24.057  13.940
61309W        W28377  24.665  16.261  11.606
61310W        W28378  10.290  38.997   2.708
61311W        W28379  20.600  37.438  14.358
61312W        W28380   2.807  22.234   0.315
61313W        W28381  32.999  15.208  11.390
61314W        W28382   6.293  31.509   1.904
61315W        W28383  39.042  20.168  12.383
61316W        W28384  23.087   8.681   2.207
61317W        W28385   5.425  17.112  12.576
61318W        W28386   5.719  14.296   4.714
61319W        W28387   3.854  30.019  11.418
61320W        W28388   8.214  29.019  11.515
61321W        W28389  12.153  40.053   1.922
61322W        W28390  28.655  16.242   0.267
61323W        W28391  34.479  41.964   4.787
61324W        W28392   0.379  12.739   2.722
61325W        W28393  19.108   3.796   3.339
61326W        W28394  14.749  38.959   4.346
61327W        W28395  13.182  44.343   2.727
61328W        W28396  16.593  36.928   3.349
61329W        W28397   5.921  13.259  12.482
61330W        W28398   9.710  37.995  11.394
61331W        W28399  18.784   1.905   0.729
61332W        W28400  11.834  33.576   3.656
61333W        W28401  20.728  32.088   0.325
61334W        W28402   1.259  14.194  14.787
61335W        W28403  11.255  41.318   1.915
61336W        W28404   0.334   4.239   0.281
61337W        W28405  23.156   7.326   3.776
61338W        W28406  21.637  12.332   0.426
61339W        W28407  29.614  19.277  10.634
61340W        W28408  41.016  37.082  11.882
61341W        W28409  28.064  30.439  14.855
61342W        W28410  29.598  29.162  13.012
61343W        W28411   0.390   6.760  13.350
61344W        W28412  23.087  30.563  14.453
61345W        W28413   1.294  36.988   4.346
61346W        W28414   1.280   0.275   4.312
61347W        W28415  14.590  40.051   0.855
61348W        W28416  28.029   2.844   1.417
61349W        W28417   0.800  39.428   1.452
61350W        W28418  29.667   6.188  13.477
61351W        W28419   5.747   4.754  11.592
61352W        W28420  16.226  26.683   2.318
61353W        W28421   1.869  18.692   3.258
61354W        W28422  40.415  16.138   0.460
61355W        W28423   2.740   4.396  12.417
61356W        W28424  42.797   1.968  12.078
61357W        W28425  13.611  25.632  12.549
61358W        W28426   8.164  43.957   0.311
61359W        W28427   2.270  27.187   1.280
61360W        W28428  30.606  21.530   1.883
61361W        W28429  33.009   6.801  11.092
61362W        W28430  41.521  29.475  13.908
61363W        W28431  38.463  41.924  13.951
61364W        W28432  12.349  43.460   4.248
61365W        W28433   0.492   2.415  14.971
61366W        W28434  29.118   3.405  11.957
61367W        W28435  16.781  21.187  10.482
61368W        W28436  40.033  19.539   1.411
61369W        W28437   5.215   7.377  13.470
61370W        W28438  10.255  19.670  14.281
61371W        W28439  41.998  25.525   0.859
61372W        W28440  30.513   3.315   3.732
61373W        W28441  33.901   1.868   3.777
61374W        W28442   2.905  31.065   1.422
61375W        W28443  11.171   7.395  12.824
61376W        W28444   1.261   3.907   1.768
61377W        W28445   1.876  23.173   1.417
61378W        W28446  16.723  36.503   0.807
61379W        W28447  12.154  14.597  12.016
61380W        W28448  14.294  36.561  12.064
61381W        W28449   7.195  19.611  11.120
61382W        W28450  33.465   9.329  14.801
61383W        W28451   4.350  36.557  13.391
61384W        W28452  41.451  41.323  13.914
61385W        W28453  18.784  42.804   0.396
61386W        W28454   2.332  22.154   1.414
61387W        W28455   3.953  25.649  11.978
61388W        W28456  14.222  37.545  11.382
61389W        W28457  32.038  39.463  11.018
61390W        W28458  29.103  37.504   1.373
61391W        W28459  17.694  33.509   3.253
61392W        W28460  32.443  20.208   4.277
61393W        W28461  36.567  32.563   2.692
61394W        W28462   1.877  23.647   1.764
61395W        W28463   3.879   8.877  13.976
61396W        W28464   5.269  13.309  13.901
61397W        W28465   9.691  29.114   3.234
61398W        W28466  10.195  23.605  14.499
61399W        W28467  36.447  42.956   4.656
61400W        W28468  43.975  28.485  14.372
61401W        W28469  38.992  39.333   4.745
61402W        W28470   5.921   7.857  12.377
61403W        W28471   4.778  12.668   2.704
61404W        W28472  14.300  13.798  13.003
61405W        W28473  21.200  42.964   2.315
61406W        W28474   9.694   8.777  11.015
61407W        W28475  33.107  20.060  14.392
61408W        W28476  13.316  43.483   1.799
61409W        W28477  36.410  41.422  10.118
61410W        W28478  31.098  17.555   3.821
61411W        W28479  13.264  17.243  11.030
61412W        W28480   0.471  17.295   4.182
61413W        W28481  32.504  44.793   1.836
61414W        W28482  34.597   0.783   2.818
61415W        W28483  30.476   9.148  14.508
61416W        W28484  38.030  10.276   1.814
61417W        W28485  17.577   4.248  11.879
61418W        W28486  27.633  35.892   1.813
61419W        W28487  20.589  32.098  13.430
61420W        W28488  25.668  33.116   4.192
61421W        W28489  18.664   4.940   3.168
61422W        W28490  21.092  14.173  12.560
61423W        W28491  34.092  14.603   0.483
61424W        W28492   5.370  20.738  13.364
61425W        W28493  24.720   4.743   4.680
61426W        W28494  15.323  30.549   0.803
61427W        W28495  37.514  14.702  14.343
61428W        W28496   5.194  16.189   2.775
61429W        W28497  30.937  36.531   0.924
61430W        W28498  28.057  14.196  10.522
61431W        W28499  22.037  13.298  10.552
61432W        W28500  41.303  43.516  11.945
61433W        W28501  40.986   0.773   0.355
61434W        W28502  29.135  26.142   1.850
61435W        W28503  40.827  10.706   4.250
61436W        W28504  23.008  30.629   2.390
61437W        W28505  29.460  35.992   3.657
61438W        W28506  42.824   5.283   2.772
61439W        W28507  32.097   0.317  10.020
61440W        W28508  31.076  10.775   2.741
61441W        W28509   1.815   6.326  10.994
61442W        W28510  34.078  12.829   0.964
61443W        W28511  24.207  30.114  12.427
61444W        W28512  16.244  31.635  14.307
61445W        W28513  26.185  11.691   4.801
61446W        W28514  10.308  14.235  14.429
61447W        W28515   6.775  26.464   2.741
61448W        W28516  30.582  11.356   4.661
61449W        W28517  40.011   3.760   3.754
61450W        W28518  29.958   7.693   0.811
61451W        W28519  30.957  33.525  13.899
61452W        W28520  24.486  40.974  11.402
61453W        W28521   0.403   4.271  11.441
61454W        W28522  34.053  43.804  11.524
61455W        W28523   0.434   1.308  14.395
61456W        W28524  14.593   3.293   0.778
61457W        W28525  22.094  14.328  11.066
61458W        W28526  18.114  33.990  10.446
61459W        W28527   7.303  25.195  12.494
61460W        W28528   2.436   8.858   3.795
61461W        W28529   6.312  40.971  10.425
61462W        W28530  32.009  33.938  12.949
61463W        W28531   3.426  16.208  11.541
61464W        W28532  18.720  22.533  13.514
61465W        W28533  18.124  16.235  11.973
61466W        W28534   8.294  13.736   1.354
61467W        W28535   5.217  29.958  12.474
61468W        W28536   8.754  39.863   1.782
61469W        W28537  43.431  31.065  11.050
61470W        W28538  24.706  22.656  14.925
61471W        W28539  22.565  20.186   1.909
61472W        W28540   3.951   9.317  13.861
61473W        W28541   7.677   3.422   1.314
61474W        W28542  34.991  28.024   4.183
61475W        W28543   2.425  24.999  14.443
61476W        W28544   0.873  21.708  13.830
61477W        W28545  38.529  14.689   0.877
61478W        W28546  23.589   5.410   2.221
61479W        W28547  15.153  27.014  11.985
61480W        W28548   2.911   7.754  13.029
61481W        W28549   5.904   7.415  14.998
61482W        W28550  41.816  15.796   0.309
61483W        W28551  32.004  35.545   1.854
61484W        W28552  12.844  35.107  14.851
61485W        W28553   0.326   9.349  13.939
61486W        W28554   2.892  35.036  10.978
61487W        W28555  21.582  10.636   0.784
61488W        W28556   5.361   0.359  13.835
61489W        W28557  40.501  23.635   4.299
61490W        W28558  40.431  37.897   2.753
61491W        W28559   6.373  19.270  12.060
61492W        W28560  28.645  42.357  14.911
61493W        W28561  37.861  18.546  11.977
61494W        W28562  20.763  10.354  12.523
61495W        W28563  16.671  26.075  13.022
61496W        W28564  20.241  30.977  11.420
61497W        W28565  38.007   2.851   4.778
61498W        W28566  41.348  33.111  12.450
61499W        W28567  37.360   9.831  13.877
61500W        W28568  22.133  42.871   2.200
61501W        W28569  43.349  13.679   2.670
61502W        W28570  36.952  30.429   3.208
61503W        W28571  29.005  18.131  12.980
61504W        W28572   9.212  28.543   0.303
61505W        W28573   7.857  33.411   2.812
61506W        W28574  23.112  26.077  13.060
61507W        W28575   1.772  22.178   0.346
61508W        W28576  17.752  13.698  13.818
61509W        W28577  34.073   9.707   3.737
61510W        W28578  42.425  11.801  12.556
61511W        W28579  25.473  31.917   1.873
61512W        W28580  43.323  34.548  11.000
61513W        W28581  24.629  29.090   0.953
61514W        W28582  35.454  39.043  14.988
61515W        W28583  40.543  39.986  11.112
61516W        W28584  34.065  37.088  12.875
61517W        W28585  14.269  34.899   3.289
61518W        W28586  12.160  21.128   0.438
61519W        W28587  19.080   0.848   0.441
61520W        W28588  16.296  23.079   1.750
61521W        W28589  33.548  44.423  14.973
61522W        W28590   9.375  16.248  12.364
61523W        W28591  13.816   3.901  14.469
61524W        W28592  38.943  30.502   4.773
61525W        W28593   8.271  37.448   1.258
61526W        W28594  17.182  12.174   0.900
61527W        W28595  23.601   1.362  11.589
61528W        W28596  23.492  27.582   0.442
61529W        W28597  35.959  17.285   0.888
61530W        W28598  41.855  23.081   2.224
61531W        W28599  16.229  19.138   3.282
61532W        W28600  13.161  15.249  10.441
61533W        W28601  39.063  30.918   4.238
61534W        W28602  22.251   6.681   0.409
61535W        W28603  40.498  17.163  13.885
61536W        W28604   3.789  36.450   3.743
61537W        W28605  39.511  32.096  12.005
61538W        W28606  40.362  15.191   2.867
61539W        W28607  20.702  16.266   0.265
61540W        W28608   6.720  35.519   2.826
61541W        W28609   5.699  31.434   3.236
61542W        W28610   4.928  40.307  12.908
61543W        W28611  14.601  21.622   2.676
61544W        W28612  26.699  15.147   9.931
61545W        W28613   1.873  16.108   3.754
61546W        W28614  27.163  17.640   0.352
61547W        W28615   2.238   1.876  14.381
61548W        W28616  32.934  21.689  14.353
61549W        W28617  20.622   5.300   0.756
61550W        W28618  11.808  30.466   3.829
61551W        W28619  30.464  13.619   2.374
61552W        W28620  38.857  42.786   0.357
61553W        W28621  13.158  26.000   1.408
61554W        W28622  33.003  38.000  14.505
61555W        W28623  42.994  24.508   2.701
61556W        W28624  17.787  20.140   1.216
61557W        W28625  17.139  24.632   1.752
61558W        W28626   2.307  20.741   0.426
61559W        W28627  24.213  38.979  12.565
61560W        W28628   3.256  42.952   2.316
61561W        W28629  29.091   4.370   2.743
61562W        W28630  13.728  25.573   2.342
61563W        W28631  33.544  34.557  10.407
61564W        W28632   4.883  42.314  12.358
61565W        W28633  33.608  23.014   9.977
61566W        W28634  29.150  16.277   4.737
61567W        W28635  42.966  39.843  13.025
61568W        W28636  18.139   4.231   3.260
61569W        W28637   4.735  41.885  12.854
61570W        W28638  19.578  23.596   0.837
61571W        W28639   9.786  29.495   0.785
61572W        W28640  41.493  38.563   4.811
61573W        W28641  43.810  44.353  13.058
61574W        W28642  44.393  40.993   2.823
61575W        W28643   9.202  33.002  11.908
61576W        W28644  30.073  35.898  12.829
61577W        W28645  14.186  19.600   1.874
61578W        W28646  32.620  15.196  14.014
61579W        W28647   6.261  15.815  10.076
61580W        W28648  31.972  43.317  13.899
61581W        W28649  40.417  12.353  11.092
61582W        W28650  16.710   4.759  10.630
61583W        W28651  19.641  23.114   0.767
61584W        W28652  37.448  14.635  11.003
61585W        W28653  39.981  15.741  12.901
61586W        W28654  42.300   0.985   2.781
61587W        W28655  42.845  28.555  14.799
61588W        W28656  16.695   3.762   1.702
61589W        W28657  18.721  17.675   3.281
61590W        W28658  42.798   3.761  13.919
61591W        W28659  34.375   9.732  10.920
61592W        W28660  19.647   2.425  14.898
61593W        W28661  26.498   1.865   2.230
61594W        W28662  16.621   4.802  10.910
61595W        W28663  42.914  12.272   0.817
61596W        W28664  10.246   3.911   3.821
61597W        W28665  20.687  19.630   3.750
61598W        W28666  28.608  13.603   2.374
61599W        W28667  42.306  20.085   3.367
61600W        W28668  25.475  23.090  14.440
61601W        W28669  34.957   5.934  13.416
61602W        W28670   8.657   1.378   4.178
61603W        W28671  28.948  43.340   2.204
61604W        W28672  11.249  40.317  11.892
61605W        W28673   6.199  18.062   0.479
61606W        W28674   2.232  15.292   0.885
61607W        W28675  30.590  15.723   3.701
61608W        W28676  31.410   5.894   3.764
61609W        W28677   1.832  37.521  14.395
61610W        W28678  24.616  40.967   0.803
61611W        W28679  42.944  26.635  11.404
61612W        W28680   4.763   7.346   1.769
61613W        W28681  31.106  29.021   2.241
61614W        W28682  41.023  27.549   3.639
61615W        W28683   2.874   1.319   2.368
61616W        W28684  24.569   2.861   1.864
61617W        W28685  17.231  19.284  14.289
61618W        W28686  40.324  10.762  14.430
61619W        W28687  34.980  35.897   4.832
61620W        W28688  18.099  36.422  12.976
61621W        W28689  42.797  19.584   1.699
61622W        W28690   4.808  41.372  11.054
61623W        W28691  32.492  15.303  13.347
61624W        W28692  39.948  40.810  14.315
61625W        W28693  32.616  15.590  10.527
61626W        W28694  41.514  20.139   1.247
61627W        W28695   7.285  39.007  12.953
61628W        W28696  43.816  15.648  12.422
61629W        W28697  10.692  38.941   1.732
61630W        W28698   2.363  44.274  11.601
61631W        W28699  19.125   3.362  14.927
61632W        W28700  18.167  30.648   4.607
61633W        W28701  35.903   1.425  14.950
61634W        W28702  40.797  17.273   4.790
61635W        W28703  25.989  25.015   1.420
61636W        W28704   6.829  26.580  10.914
61637W        W28705  35.967   6.879   0.443
61638W        W28706  26.517  15.202   3.154
61639W        W28707  21.708  20.622   4.274
61640W        W28708  29.002  43.845  11.926
61641W        W28709  43.474   2.379   2.757
61642W        W28710  23.663  30.615  12.875
61643W        W28711  14.285  11.861   4.253
61644W        W28712  10.871  34.111   4.293
61645W        W28713  20.732  13.122   2.300
61646W        W28714  10.736   0.278   4.629
61647W        W28715  11.800  13.787   2.688
61648W        W28716  30.573  19.571  12.364
61649W        W28717  14.231  19.719   2.352
61650W        W28718  27.510   4.795   1.310
61651W        W28719  32.108  13.237  13.001
61652W        W28720  17.069   1.779  11.502
61653W        W28721  33.565  27.622  13.548
61654W        W28722   7.792  34.382   2.778
61655W        W28723  10.370  41.336  10.583
61656W        W28724  36.930   7.689  13.055
61657W        W28725  31.916  13.308  10.140
61658W        W28726  10.844  39.956  10.934
61659W        W28727  20.677  15.691   1.267
61660W        W28728  11.670  29.993   3.680
61661W        W28729   9.390  41.505  14.927
61662W        W28730  36.938  12.311   0.929
61663W        W28731  29.516  40.924   4.726
61664W        W28732  20.066  42.891  10.446
61665W        W28733  20.623   8.793  12.443
61666W        W28734  39.435  42.493  14.871
61667W        W28735  21.048   5.855   3.212
61668W        W28736  39.538  20.113   1.337
61669W        W28737  36.920   1.808  11.933
61670W        W28738  17.732  13.838   0.304
61671W        W28739  39.848  18.566  11.587
61672W        W28740  18.174  19.617  12.984
61673W        W28741  31.077  27.137  13.542
61674W        W28742  37.914  37.077   0.269
61675W        W28743  12.852  14.623  13.392
61676W        W28744  18.232  32.911  14.891
61677W        W28745  40.314  13.222   0.254
61678W        W28746  21.035  24.514  14.973
61679W        W28747  14.127  19.596  11.068
61680W        W28748   2.745  34.458  11.939
61681W        W28749  30.559  33.013   1.362
61682W        W28750  25.106   8.387  10.617
61683W        W28751  12.245  17.719   1.436
61684W        W28752  10.304  31.033   0.755
61685W        W28753  38.906  35.411  11.557
61686W        W28754  24.115  44.980  10.529
61687W        W28755  16.256  19.132   9.571
61688W        W28756  42.406   6.779  13.930
61689W        W28757  26.072   7.317  12.039
61690W        W28758   6.712   5.373  11.593
61691W        W28759  16.638  36.077  13.920
61692W        W28760   9.850  34.593   0.402
61693W        W28761  40.912   8.314   4.600
61694W        W28762  29.628  28.154  12.086
61695W        W28763  22.168  11.187  12.432
61696W        W28764   1.934  21.621   1.831
61697W        W28765  30.042  25.976   2.734
61698W        W28766  26.507  24.610   1.264
61699W        W28767  18.637  44.468   4.235
61700W        W28768  41.427  21.670   2.293
61701W        W28769   3.299  32.131  10.465
61702W        W28770  11.152  20.212   2.818
61703W        W28771   2.935  28.602   0.315
61704W        W28772  31.502  35.393  11.450
61705W        W28773   9.182  27.098   2.701
61706W        W28774  34.449  14.766   0.408
61707W        W28775  17.133  27.522   3.636
61708W        W28776  10.825  32.566   2.411
61709W        W28777  10.866  44.977  14.856
61710W        W28778  26.015  29.627  10.525
61711W        W28779  29.518  31.071  10.896
61712W        W28780  29.042   9.803  14.989
61713W        W28781  30.108   5.245   4.342
61714W        W28782  18.208  31.011   2.756
61715W        W28783  44.346   5.850   4.828
61716W        W28784   0.392  41.397   4.727
61717W        W28785  44.379  29.491   5.257
61718W        W28786  13.316  33.406   1.210
61719W        W28787  31.574  31.978   2.678
61720W        W28788  33.020  14.614  12.569
61721W        W28789  30.109  39.836  10.608
61722W        W28790  13.308  34.526  11.985
61723W        W28791  24.124  17.150  13.032
61724W        W28792   0.864   8.674   1.934
61725W        W28793  36.539  12.330   4.207
61726W        W28794  19.084  15.633  13.898
61727W        W28795  40.344  13.719  11.013
61728W        W28796   3.300   5.305   4.291
61729W        W28797   4.330  42.782  10.445
61730W        W28798  28.167  13.295  12.977
61731W        W28799   5.353  35.365   0.963
61732W        W28800  24.203  34.422   0.742
61733W        W28801  24.536  16.681  12.995
61734W        W28802  10.245  13.155  13.035
61735W        W28803  36.970  15.214   0.404
61736W        W28804  16.568  21.600   3.857
61737W        W28805  21.186   8.324   1.216
61738W        W28806  24.042  24.699  11.985
61739W        W28807  31.471  20.232  11.558
61740W        W28808  27.122  17.185   2.698
61741W        W28809  44.760  42.510   0.948
61742W        W28810   3.242  15.804  10.080
61743W        W28811  13.677  34.563   0.757
61744W        W28812   0.956  42.801  11.563
61745W        W28813  12.691   4.876   1.771
61746W        W28814  25.999  34.937   3.859
61747W        W28815  33.540  13.291  10.944
61748W        W28816  22.535   7.354   3.727
61749W        W28817  40.954  36.409  10.992
61750W        W28818  24.632  12.220   1.726
61751W        W28819  32.621   0.912  12.353
61752W        W28820  24.179  44.763   0.834
61753W        W28821   2.725  20.762  14.782
61754W        W28822  28.132  24.699   0.292
61755W        W28823  28.934  39.850   2.189
61756W        W28824   2.762  18.697  14.445
61757W        W28825  44.837  35.894   1.313
61758W        W28826  16.219  35.853   4.289
61759W        W28827   1.243  28.644  14.348
61760W        W28828   0.939  16.080   0.806
61761W        W28829  20.717  30.062  13.323
61762W        W28830  21.245  31.033   0.463
61763W        W28831  37.020  33.407  12.453
61764W        W28832  10.306   7.322  10.557
61765W        W28833  27.513   1.291   0.854
61766W        W28834  19.148  30.649   1.236
61767W        W28835  20.724  13.121  13.896
61768W        W28836   6.816  39.833   2.751
61769W        W28837   8.788   0.820  13.043
61770W        W28838   6.333   4.839  12.510
61771W        W28839  44.492  42.397   0.772
61772W        W28840  32.400  30.592  14.929
61773W        W28841  34.949  39.338  11.012
61774W        W28842  41.975  23.197   3.220
61775W        W28843   4.733  42.998   3.712
61776W        W28844   6.363   7.299   1.317
61777W        W28845  27.674  28.116  13.349
61778W        W28846   9.241  36.924   2.219
61779W        W28847  28.510  42.891   2.832
61780W        W28848  30.601  44.475  11.948
61781W        W28849  23.653  14.196   3.226
61782W        W28850  13.124  23.014   2.336
61783W        W28851  29.120   8.246   0.834
61784W        W28852  13.171  19.720  10.152
61785W        W28853  38.855   3.387   4.155
61786W        W28854  37.987  13.818   4.794
61787W        W28855  21.042   7.258   0.247
61788W        W28856  28.632  12.295   2.887
61789W        W28857  32.080  17.297  11.442
61790W        W28858  39.429  44.404   2.746
61791W        W28859  22.250  32.113   5.130
61792W        W28860  14.297  39.333   0.738
61793W        W28861   3.460  11.360   3.233
61794W        W28862  35.368  30.156   0.275
61795W        W28863  36.485  42.338  11.529
61796W        W28864   1.263  12.250  13.022
61797W        W28865  14.123  42.300   0.901
61798W        W28866  35.977   4.902  12.514
61799W        W28867  36.052  17.154  10.908
61800W        W28868  12.799  11.656  11.887
61801W        W28869  36.384  32.078  12.340
61802W        W28870  17.638  22.140  13.928
61803W        W28871  25.036  39.351   1.848
61804W        W28872  31.634  27.669  11.597
61805W        W28873  33.494   6.818   0.773
61806W        W28874  39.029  23.104  10.429
61807W        W28875  20.186  22.694   1.800
61808W        W28876  20.588  12.630  13.933
61809W        W28877  19.132  41.969  13.845
61810W        W28878  30.470  17.143  14.772
61811W        W28879  35.589  23.989  14.785
61812W        W28880  35.430   0.841  11.984
61813W        W28881  33.473  43.011   4.247
61814W        W28882   4.320  41.924  10.911
61815W        W28883  23.640   5.903  13.385
61816W        W28884  39.815  32.392  10.986
61817W        W28885  35.049  21.195  11.420
61818W        W28886  29.440  33.030   1.731
61819W        W28887   4.835  40.894   2.818
61820W        W28888   2.844   5.230   3.793
61821W        W28889  29.533   8.680  10.536
61822W        W28890  11.750  26.626   4.213
61823W        W28891  32.140  35.860   9.973
61824W        W28892  36.063  19.145   4.681
61825W        W28893  41.032  37.026  10.547
61826W        W28894  17.249  38.561   0.343
61827W        W28895   7.851  24.694   0.799
61828W        W28896  17.220  26.000  11.573
61829W        W28897  16.180  18.577  14.405
61830W        W28898  16.699  39.321   4.655
61831W        W28899  27.987  42.396   5.118
61832W        W28900  40.303  11.276   4.751
61833W        W28901  23.221  37.516  12.472
61834W        W28902   3.822  23.629   2.409
61835W        W28903   6.339  25.623  12.546
61836W        W28904  43.498   2.229   1.706
61837W        W28905   3.432  16.743  12.834
61838W        W28906  12.249  22.572  13.309
61839W        W28907  36.847  29.599  14.957
61840W        W28908  22.558  18.575   4.748
61841W        W28909   8.371  42.400   4.767
61842W        W28910  37.957   3.377  12.467
61843W        W28911  33.489  18.120  10.040
61844W        W28912   0.895   8.343   0.443
61845W        W28913  20.697   7.331   4.615
61846W        W28914  14.197  11.710  14.379
61847W        W28915  10.714  17.244  12.092
61848W        W28916  38.054  42.860   4.227
61849W        W28917  31.987  34.074   4.833
61850W        W28918  33.969  27.051  11.090
61851W        W28919   9.858  23.541  13.329
61852W        W28920  25.660   9.832  13.478
61853W        W28921  38.962  38.373  14.346
61854W        W28922  42.792   4.904  11.600
61855W        W28923  17.666  43.900  12.414
61856W        W28924  10.685   3.284   3.252
61857W        W28925  37.444  37.566  10.624
61858W        W28926  39.051   5.881  10.449
61859W        W28927  10.188  17.722   0.869
61860W        W28928   9.668  26.519   3.363
61861W        W28929   7.675  18.780  11.388
61862W        W28930   0.955  21.193   3.757
61863W        W28931  30.658  40.901   4.345
61864W        W28932  26.961   6.278   0.870
61865W        W28933  26.019  40.004  12.898
61866W        W28934  42.955  38.985   1.806
61867W        W28935   5.304  31.142   1.860
61868W        W28936  25.978  23.641   3.683
61869W        W28937  39.946  42.784   3.810
61870W        W28938   8.222  30.081   1.922
61871W        W28939   1.872   1.890  13.431
61872W        W28940  20.630  32.124  11.992
61873W        W28941   8.175  15.162   2.303
61874W        W28942  20.709  13.741   3.171
61875W        W28943   0.252   6.273  14.023
61876W        W28944  25.983  41.037   2.707
61877W        W28945   4.767  28.965   4.794
61878W        W28946  24.691  14.697  14.982
61879W        W28947  40.043  29.553   3.640
61880W        W28948   1.469   8.794   2.669
61881W        W28949  25.042  40.841   3.770
61882W        W28950  25.488  37.417   1.367
61883W        W28951   0.419  18.218  13.912
61884W        W28952  31.615  41.404   4.315
61885W        W28953  21.077  37.843   4.680
61886W        W28954  37.523  21.185  11.908
61887W        W28955  27.594  17.749   0.363
61888W        W28956  44.869  19.717   3.780
61889W        W28957  15.268   3.330   1.279
61890W        W28958   6.185  24.691  11.483
61891W        W28959  37.533  16.690   2.859
61892W        W28960  23.037   9.303   0.917
61893W        W28961  42.022   5.372  11.438
61894W        W28962   0.787   2.282  13.396
61895W        W28963  20.623   6.867  14.798
61896W        W28964  32.936   8.312  13.940
61897W        W28965  38.453  31.455   0.248
61898W        W28966  17.738  38.342  11.417
61899W        W28967  14.320   0.407   4.226
61900W        W28968  16.606  19.121   3.707
61901W        W28969  18.120   1.263   1.779
61902W        W28970   2.901  42.335   2.406
61903W        W28971  35.923   3.286  10.453
61904W        W28972   4.903  37.429  12.924
61905W        W28973  24.691  35.997  13.427
61906W        W28974  40.896  33.990   1.924
61907W        W28975  22.567  19.159   3.248
61908W        W28976   7.251  18.703  13.417
61909W        W28977  29.494   9.804  12.399
61910W        W28978  24.133  40.933   0.777
61911W        W28979  13.674  42.467   4.188
61912W        W28980  13.320  10.662  14.486
61913W        W28981  38.953  15.787   3.801
61914W        W28982  29.057  21.061  14.970
61915W        W28983  37.565  31.472  12.486
61916W        W28984   4.732  33.607   0.745
61917W        W28985  33.106  10.821  14.459
61918W        W28986   9.758  38.535   0.457
61919W        W28987  14.739  34.104  10.916
61920W        W28988  39.386  26.642  13.794
61921W        W28989   6.239   4.898  11.040
61922W        W28990   1.349  33.954   4.184
61923W        W28991  17.604  30.577  12.844
61924W        W28992   7.909  22.647  13.512
61925W        W28993  36.914  10.238   0.434
61926W        W28994   4.839  26.108   4.639
61927W        W28995  44.868  44.979  11.999
61928W        W28996  28.034   4.405  10.058
61929W        W28997  34.597  19.085  12.018
61930W        W28998  25.542  11.649  14.370
61931W        W28999   3.351  25.707  13.407
61932W        W29000  14.335  32.579  14.882
61933W        W29001  27.658  26.625  10.892
61934W        W29002  44.414  33.116   0.471
61935W        W29003   9.295  16.650  10.407
61936W        W29004  26.575  18.575  13.045
61937W        W29005   2.839  32.412   3.636
61938W        W29006  23.639  38.932   1.789
61939W        W29007  10.250   7.398  14.479
61940W        W29008  18.568  31.427   4.294
61941W        W29009  18.571  22.151   1.803
61942W        W29010   4.388  24.220   4.318
61943W        W29011  28.932  28.024   2.751
61944W        W29012   4.720  24.120   3.182
61945W        W29013  23.684  37.537   0.351
61946W        W29014  41.309   3.340  13.976
61947W        W29015  31.642  44.980  12.052
61948W        W29016  43.974   2.332  11.858
61949W        W29017   9.721  12.138   2.385
61950W        W29018   7.349   9.820  13.396
61951W        W29019  14.243   7.884  13.918
61952W        W29020  23.649   6.729  14.905
61953W        W29021  20.576  11.631  11.040
61954W        W29022  37.348   6.208  11.422
61955W        W29023  34.915   7.335  11.484
61956W        W29024  16.173  15.696  12.398
61957W        W29025  31.065  12.755  13.308
61958W        W29026  37.975  27.577   4.172
61959W        W29027   7.855  42.824  13.804
61960W        W29028  25.092  30.014   4.316
61961W        W29029   2.836  41.821  12.393
61962W        W29030  41.039  34.599   4.635
61963W        W29031  19.051  37.450  14.377
61964W        W29032  10.753  38.518   3.338
61965W        W29033  25.215  33.048   1.278
61966W        W29034  27.952  35.993   0.303
61967W        W29035  13.223  22.521   2.289
61968W        W29036  37.452  40.843  12.973
61969W        W29037  24.716  29.574  13.335
61970W        W29038  43.801  43.820   3.380
61971W        W29039  40.036  34.614  10.926
61972W        W29040  36.480  32.046  13.394
61973W        W29041  26.616  12.152   0.955
61974W        W29042   0.779  16.660  13.839
61975W        W29043  40.473   6.902  12.491
61976W        W29044  12.149  28.977  14.973
61977W        W29045  44.314   6.749  11.462
61978W        W29046  16.705   4.400  13.455
61979W        W29047  26.566   3.352   0.251
61980W        W29048  39.432  13.241   0.452
61981W        W29049  12.243  19.081  10.442
61982W        W29050  22.640  13.350  14.930
61983W        W29051   1.348  25.970   4.618
61984W        W29052  28.569  26.664   4.207
61985W        W29053   7.786   7.370  12.095
61986W        W29054  13.773   0.381  13.392
61987W        W29055  27.041  41.390   0.483
61988W        W29056  10.640  22.095   4.766
61989W        W29057  22.095  28.018  10.450
61990W        W29058  21.559  33.071  12.953
61991W        W29059   7.271  15.308  11.588
61992W        W29060   8.384  41.439   0.799
61993W        W29061  16.655  41.353   0.266
61994W        W29062  27.045  36.572   3.168
61995W        W29063  31.600   1.262   1.424
61996W        W29064  15.204  19.275  13.406
61997W        W29065  38.939   5.212  10.947
61998W        W29066  22.132   6.819   0.769
61999W        W29067  31.008   4.830  10.947
62000W        W29068   3.942  33.021   2.228
62001W        W29069  11.806  24.696   0.752
62002W        W29070  10.697   8.729   3.865
62003W        W29071  43.326  32.438  12.882
62004W        W29072  26.067  25.049   5.136
62005W        W29073  14.214  31.417  10.624
62006W        W29074  41.969  25.158   5.176
62007W        W29075  22.504  23.140  10.428
62008W        W29076  33.973  38.409  13.403
62009W        W29077   2.331  14.284   0.928
62010W        W29078  24.083  38.422  11.110
62011W        W29079   4.795  30.604   4.316
62012W        W29080  26.564  14.253   1.719
62013W        W29081  17.695  42.809   2.705
62014W        W29082  12.775  10.757   4.137
62015W        W29083   7.737  18.750  13.547
62016W        W29084  28.653  19.727   3.210
62017W        W29085  29.927  22.661   0.300
62018W        W29086  24.996  35.509  12.566
62019W        W29087   2.271  27.979   9.984
62020W        W29088  33.489  25.665   2.322
62021W        W29089  44.954  21.112  12.569
62022W        W29090  39.014  16.291  11.104
62023W        W29091  19.226   0.456   1.266
62024W        W29092  41.520   3.728  11.089
62025W        W29093   1.873  38.995   2.391
62026W        W29094  35.013  15.656  12.520
62027W        W29095  43.781  20.638   2.223
62028W        W29096  28.554  19.114  11.406
62029W        W29097  12.208  22.181  12.073
62030W        W29098  43.923  36.378  13.378
62031W        W29099  10.696  43.999   4.122
62032W        W29100  41.814   7.689  14.384
62033W        W29101  19.668  10.169   4.671
62034W        W29102  31.953   3.406  14.450
62035W        W29103  24.654  13.613  14.782
62036W        W29104   7.878   6.416   3.191
62037W        W29105  39.499  40.406  13.540
62038W        W29106  44.378  44.497  13.346
62039W        W29107  22.593  17.221  13.858
62040W        W29108   9.343   2.373  11.483
62041W        W29109  23.114  34.023  14.908
62042W        W29110  40.475   9.817  12.966
62043W        W29111  18.594  29.620  12.828
62044W        W29112  37.969   2.777  12.370
62045W        W29113  36.938  19.642  12.491
62046W        W29114  22.733   2.275  11.065
62047W        W29115  16.805  20.262  12.352
62048W        W29116  37.510  16.081   1.367
62049W        W29117  34.103  23.215  11.601
62050W        W29118  30.116   4.742   3.745
62051W        W29119  21.078   8.725   0.921
62052W        W29120  28.464  24.160  10.993
62053W        W29121  22.544  33.607   3.866
62054W        W29122  21.226  22.567  10.975
62055W        W29123  10.646   7.332   1.405
62056W        W29124   5.778  13.144  12.826
62057W        W29125  11.745  23.571   1.875
62058W        W29126  35.003  12.144  12.406
62059W        W29127  11.163  14.152  14.801
62060W        W29128  19.080  20.114   5.593
62061W        W29129  27.034  32.987  11.914
62062W        W29130  18.280   5.743   4.175
62063W        W29131  38.069  35.047  13.939
62064W        W29132  30.638  10.290  11.074
62065W        W29133  11.850  26.524   4.633
62066W        W29134  20.201  30.419  12.943
62067W        W29135  15.322  14.274  14.019
62068W        W29136  26.056  17.247  12.576
62069W        W29137   5.892   5.713   1.326
62070W        W29138  33.447  32.069  12.086
62071W        W29139  10.741  20.273  10.936
62072W        W29140  44.355  43.482  13.893
62073W        W29141  40.915  14.624  13.023
62074W        W29142  13.239  41.394   5.091
62075W        W29143  40.465  39.424  14.968
62076W        W29144  44.933  39.821   1.927
62077W        W29145  40.319  11.829  11.089
62078W        W29146  43.880  44.759  14.923
62079W        W29147  16.249  10.260   1.733
62080W        W29148  41.484  25.020   0.395
62081W        W29149   7.335   2.364  12.884
62082W        W29150  36.519  19.704   2.341
62083W        W29151   1.804  36.394   9.966
62084W        W29152  31.134  28.978  12.431
62085W        W29153   9.801  42.423  12.348
62086W        W29154   8.873   1.933   2.338
62087W        W29155  11.847  40.050  13.389
62088W        W29156  11.192  17.751   3.649
62089W        W29157  12.276  27.676  14.857
62090W        W29158  27.555  32.585  14.451
62091W        W29159   0.450  26.150   4.609
62092W        W29160  18.682  37.062  13.031
62093W        W29161  37.842   6.335  10.060
62094W        W29162   7.815  19.052   4.142
62095W        W29163  24.030   4.787  11.531
62096W        W29164  37.343  16.690   1.930
62097W        W29165  41.862  26.996  13.033
62098W        W29166  43.836  16.672  11.475
62099W        W29167  23.095  10.293   4.189
62100W        W29168  31.092  11.846  12.826
62101W        W29169  33.065   1.415  14.860
62102W        W29170  29.641  20.716  11.903
62103W        W29171  14.269  19.065  13.837
62104W        W29172  22.607  43.380   3.356
62105W        W29173  20.550  32.621  13.520
62106W        W29174  30.110  40.374  13.921
62107W        W29175  21.200   5.208   9.921
62108W        W29176  32.962  33.613  11.376
62109W        W29177   2.267  37.919  11.584
62110W        W29178  21.134   0.757  14.335
62111W        W29179   9.153  36.434   3.328
62112W        W29180   4.375   3.819   4.278
62113W        W29181  26.458  12.702  11.525
62114W        W29182   0.308  11.847   3.646
62115W        W29183   3.870  23.600  14.927
62116W        W29184  19.717  17.705   3.766
62117W        W29185   4.404  36.997   1.905
62118W        W29186  39.322   1.933  13.311
62119W        W29187  32.467  33.088  12.528
62120W        W29188  21.029   5.918   2.278
62121W        W29189  17.657   8.783  12.530
62122W        W29190  17.304   1.423  12.825
62123W        W29191  24.637  29.940  10.418
62124W        W29192  43.940  34.508  14.352
62125W        W29193  28.011  17.118   3.290
62126W        W29194  24.559  38.464  13.850
62127W        W29195  23.992  39.450   1.243
62128W        W29196  15.718   5.294   2.383
62129W        W29197  24.717  43.294   0.405
62130W        W29198  24.204  43.352   4.675
62131W        W29199  26.978  39.963   4.250
62132W        W29200  24.649  21.623   2.776
62133W        W29201  32.098  34.537  12.008
62134W        W29202   3.713  30.592  13.797
62135W        W29203  44.894  22.730  10.964
62136W        W29204  14.261   0.977   4.223
62137W        W29205  44.316   1.743  13.873
62138W        W29206  30.428  42.447  11.082
62139W        W29207   5.755   3.430  13.897
62140W        W29208   1.443   9.843   3.249
62141W        W29209   4.747  26.678  12.875
62142W        W29210  37.052  13.844  11.426
62143W        W29211  39.316  36.530   1.716
62144W        W29212   6.232  21.248   3.835
62145W        W29213  27.538  17.153  12.042
62146W        W29214  40.011   9.778  10.547
62147W        W29215   7.257  19.565  11.430
62148W        W29216   0.815  31.469  13.504
62149W        W29217  30.098  33.101  14.781
62150W        W29218  38.410  15.121   2.742
62151W        W29219  33.488  30.570   4.132
62152W        W29220   2.339   5.719   0.374
62153W        W29221   6.909  34.999   4.307
62154W        W29222  37.493  29.512  13.047
62155W        W29223  40.393   0.804   3.147
62156W        W29224   7.212  36.042  11.475
62157W        W29225  27.182   9.281  14.393
62158W        W29226  36.530  37.875  14.853
62159W        W29227  20.232  28.008   3.705
62160W        W29228  15.780  21.554   1.277
62161W        W29229  14.831  11.150   4.626
62162W        W29230  37.084  20.177  13.848
62163W        W29231  14.759  22.051   4.641
62164W        W29232   9.178  32.905   1.293
62165W        W29233  38.329  17.641   4.717
62166W        W29234  31.054  26.153   2.848
62167W        W29235   0.420  24.169   1.749
62168W        W29236  38.333  23.674  11.104
62169W        W29237  42.880  28.475   0.771
62170W        W29238  33.617   2.305   0.328
62171W        W29239  42.987  31.519  13.513
62172W        W29240  19.236   7.199  14.902
62173W        W29241  24.510  34.887  11.539
62174W        W29242  29.157  43.473  12.359
62175W        W29243  18.222  23.572   0.329
62176W        W29244  12.166  25.107  10.439
62177W        W29245   2.783  40.025  12.050
62178W        W29246  33.883   3.445  12.553
62179W        W29247  42.501  37.545  12.897
62180W        W29248   4.300  24.683  14.289
62181W        W29249   3.240  28.552   2.268
62182W        W29250  40.954  40.836   2.208
62183W        W29251  24.107  28.562  14.455
62184W        W29252  39.402  12.825  11.537
62185W        W29253  20.242   2.262  12.407
62186W        W29254  13.205  37.079   3.651
62187W        W29255  39.465  43.864   3.327
62188W        W29256  39.884  27.631   3.775
62189W        W29257   6.338   0.869   3.681
62190W        W29258   9.203  17.270  11.573
62191W        W29259  44.943  38.527  11.892
62192W        W29260  36.366  44.390  10.154
62193W        W29261  23.683  38.921  13.488
62194W        W29262   4.394  14.223   3.281
62195W        W29263  18.683   0.930   9.933
62196W        W29264  37.404  39.882   1.780
62197W        W29265  40.476  13.805  10.435
62198W        W29266  43.463  19.587  10.993
62199W        W29267   5.251  32.605   0.794
62200W        W29268   5.699  41.798   3.812
62201W        W29269  16.087  27.129   1.223
62202W        W29270  20.564  21.252  10.515
62203W        W29271  24.096   2.842   0.857
62204W        W29272   9.660   1.483  14.765
62205W        W29273  22.026  25.546   3.800
62206W        W29274  41.453  39.928  11.895
62207W        W29275   6.708   5.333   2.785
62208W        W29276  32.571  39.450  12.887
62209W        W29277  11.230  40.823  10.919
62210W        W29278  41.332  43.514  10.563
62211W        W29279  20.590  36.532  11.895
62212W        W29280  29.513  42.971   2.373
62213W        W29281  41.459  13.317   2.829
62214W        W29282   0.899  44.445  11.957
62215W        W29283  43.787  17.792   3.833
62216W        W29284   8.788  32.439  10.618
62217W        W29285  31.934   3.298   4.656
62218W        W29286  32.525  40.029   4.320
62219W        W29287  34.873  23.536  10.560
62220W        W29288   0.851   2.441   3.676
62221W        W29289  44.297  19.699  10.054
62222W        W29290  17.636  29.664  12.372
62223W        W29291  43.300   3.746   1.440
62224W        W29292  36.414  38.015  13.498
62225W        W29293  17.127  35.996   4.262
62226W        W29294   2.879  36.437  14.467
62227W        W29295   8.764  35.988  13.494
62228W        W29296  22.115  42.024   0.740
62229W        W29297  32.097  10.869  12.912
62230W        W29298   2.448   0.822   2.343
62231W        W29299   4.361   9.684  14.303
62232W        W29300  33.548  10.372  11.066
62233W        W29301   5.418   6.394   0.942
62234W        W29302  25.567  25.632  13.988
62235W        W29303  14.589  35.974   4.263
62236W        W29304   0.255  21.191  14.395
62237W        W29305   3.325   5.324  13.857
62238W        W29306  11.287   3.349   2.855
62239W        W29307  42.922  13.303   0.843
62240W        W29308   6.872  12.153   4.277
62241W        W29309  15.234  17.653  13.932
62242W        W29310  36.056  15.305   3.752
62243W        W29311  35.604  32.105   2.697
62244W        W29312  17.737  16.654   4.239
62245W        W29313  23.611  30.076  14.319
62246W        W29314  21.180  10.726  11.110
62247W        W29315  12.779  36.878   3.362
62248W        W29316  33.993  18.210   0.417
62249W        W29317  32.515  42.786  11.948
62250W        W29318   7.807   2.291  11.089
62251W        W29319  27.457  22.565   3.865
62252W        W29320  32.481   7.295   0.340
62253W        W29321  41.887   9.350  14.971
62254W        W29322   5.852  17.063  14.961
62255W        W29323  24.147  21.694   3.864
62256W        W29324  17.127  10.694   0.907
62257W        W29325  26.145  24.040  11.073
62258W        W29326  12.807  22.520   2.291
62259W        W29327   5.882   5.698   0.427
62260W        W29328  24.228  44.989  12.070
62261W        W29329  34.398  41.824  13.545
62262W        W29330   2.394  41.823  12.018
62263W        W29331   0.835  42.350   2.188
62264W        W29332  35.077  26.525  12.002
62265W        W29333   3.878  34.036   3.348
62266W        W29334  44.897  14.747  11.409
62267W        W29335  14.254  11.300  14.025
62268W        W29336  33.602  15.650   4.808
62269W        W29337  29.112  25.685  10.560
62270W        W29338   2.896  40.491  12.066
62271W        W29339  30.964  44.365   4.206
62272W        W29340  32.995  30.498  11.982
62273W        W29341  17.158  14.675  12.888
62274W        W29342   1.819  14.229  12.921
62275W        W29343   2.921  21.238   4.838
62276W        W29344  26.530  34.963   0.884
62277W        W29345  20.156   1.885   3.177
62278W        W29346   7.400  40.805   3.353
62279W        W29347  19.177  23.229   0.272
62280W        W29348  30.091   5.765   4.304
62281W        W29349  34.962  41.019  11.078
62282W        W29350   3.395  21.632  14.758
62283W        W29351  16.696   3.892   4.741
62284W        W29352   2.845  30.628  10.425
62285W        W29353  14.702  15.804   4.170
62286W        W29354  13.342  21.514  14.296
62287W        W29355  36.526  21.237   3.354
62288W        W29356   4.393  26.469   0.382
62289W        W29357  43.464  44.488   4.792
62290W        W29358   1.799  12.276   2.235
62291W        W29359  22.720  36.907   0.274
62292W        W29360  11.358  40.473   3.255
62293W        W29361   6.224  30.913  13.030
62294W        W29362  43.415  42.467  11.597
62295W        W29363  28.090  32.500  14.983
62296W        W29364  22.074   5.276  12.895
62297W        W29365   7.687  38.041   1.305
62298W        W29366  22.224  18.625   3.769
62299W        W29367   0.358  17.216  13.904
62300W        W29368  36.988   2.882   1.816
62301W        W29369   1.387  29.631  11.405
62302W        W29370  10.756  25.004   2.722
62303W        W29371   2.750   1.951  13.450
62304W        W29372  26.642  32.457   0.413
62305W        W29373   8.750   3.729  14.778
62306W        W29374  20.725  38.560   1.427
62307W        W29375  28.073  41.002   1.877
62308W        W29376  37.547  19.636  12.001
62309W        W29377   5.757  14.820  12.532
62310W        W29378  14.228  17.063  10.615
62311W        W29379  18.642  22.009  14.331
62312W        W29380  38.062  35.079   2.292
62313W        W29381  27.627  16.237  11.003
62314W        W29382  42.855  30.519   3.199
62315W        W29383  32.929  27.013   2.201
62316W        W29384  34.990   7.689  13.504
62317W        W29385  22.730  12.811  12.408
62318W        W29386  32.121  28.161  12.454
62319W        W29387  33.579  32.127  10.527
62320W        W29388   1.793  38.456  12.969
62321W        W29389  25.148   9.776  14.896
62322W        W29390   9.364  11.324  10.515
62323W        W29391   1.875   5.928   2.351
62324W        W29392  31.579   3.354  11.125
62325W        W29393  42.509  30.922   4.828
62326W        W29394  31.596   7.375  11.061
62327W        W29395  39.513  22.072  11.479
62328W        W29396  37.014  26.506  12.416
62329W        W29397  39.810  20.527  14.428
62330W        W29398  42.374  40.054  12.370
62331W        W29399  33.543  19.633  14.021
62332W        W29400  39.048  43.838   3.192
62333W        W29401  18.165  13.341   3.849
62334W        W29402  11.859   5.266  14.420
62335W        W29403  12.298  34.474  10.511
62336W        W29404  42.367  25.220  12.493
62337W        W29405  29.970  22.563   3.673
62338W        W29406  23.198  22.173  14.825
62339W        W29407  40.990  31.495  11.412
62340W        W29408  33.606  37.370  11.109
62341W        W29409  31.566  19.733   1.786
62342W        W29410  37.008  39.422   4.742
62343W        W29411  26.121  38.944  13.378
62344W        W29412  43.428  11.221   0.769
62345W        W29413  43.792  31.072  14.298
62346W        W29414   8.751  31.645   0.297
62347W        W29415  32.629  13.685   1.871
62348W        W29416  12.853   3.841   0.384
62349W        W29417   2.384  30.472   1.296
62350W        W29418  19.604  19.210  13.805
62351W        W29419  21.164  18.068  14.378
62352W        W29420  25.144  29.096   4.646
62353W        W29421  42.375  28.489   1.290
62354W        W29422  29.970  31.096  11.065
62355W        W29423  11.168  30.926   1.737
62356W        W29424   7.234  14.684   1.741
62357W        W29425  33.001  42.856   1.838
62358W        W29426  13.618  31.549   1.828
62359W        W29427  19.631  26.678   2.795
62360W        W29428  24.707  37.967  14.946
62361W        W29429  28.107   2.380   3.651
62362W        W29430  17.652  26.085  13.401
62363W        W29431  13.344  10.751  10.941
62364W        W29432   5.254   3.774  13.370
62365W        W29433  44.880  15.698  14.905
62366W        W29434  19.267   1.931  10.966
62367W        W29435  43.950  20.230  10.933
62368W        W29436   0.882  21.254  10.423
62369W        W29437  12.652  32.108   1.783
62370W        W29438   1.770  22.027   3.839
62371W        W29439  30.915  15.684   1.699
62372W        W29440   3.938   4.708   0.834
62373W        W29441  36.376  20.537   1.721
62374W        W29442  18.115  23.116  11.408
62375W        W29443  21.537  27.093  10.627
62376W        W29444  39.458  14.205   0.727
62377W        W29445   1.250  35.554   4.616
62378W        W29446   3.432   4.815  12.529
62379W        W29447  27.998  26.609   0.449
62380W        W29448  24.121  44.928   4.351
62381W        W29449  16.615   4.818   4.834
62382W        W29450   1.346  22.190  10.578
62383W        W29451  38.484  38.440  12.928
62384W        W29452   0.837  28.961   4.768
62385W        W29453  26.022  29.096  14.383
62386W        W29454  13.312   4.405   4.627
62387W        W29455  28.091  16.584   3.673
62388W        W29456  18.551  22.518   2.837
62389W        W29457  37.478  41.469   0.324
62390W        W29458  32.100  34.956   4.158
62391W        W29459   4.723  40.385  14.340
62392W        W29460  16.223  23.230   2.189
62393W        W29461  31.904  29.098   2.815
62394W        W29462  13.175  12.724  14.432
62395W        W29463  15.794  11.747   4.327
62396W        W29464   0.841  43.411   1.439
62397W        W29465  34.503   7.780  14.931
62398W        W29466  10.141  12.213  11.587
62399W        W29467  35.382  37.838   2.682
62400W        W29468  30.480  27.598  13.933
62401W        W29469  43.386  33.447  12.436
62402W        W29470  20.551  39.028   1.314
62403W        W29471  12.348  36.579   4.832
62404W        W29472  37.058  29.928  12.422
62405W        W29473  21.097  27.019   0.348
62406W        W29474  28.452   6.259   4.115
62407W        W29475   6.202  10.307  12.909
62408W        W29476  11.744  19.543   1.734
62409W        W29477  40.017  40.383   3.822
62410W        W29478  24.990  42.789   2.858
62411W        W29479  35.954  37.023  13.010
62412W        W29480   4.410  42.513   1.365
62413W        W29481  30.979   1.740  13.945
62414W        W29482  21.530  28.125  11.378
62415W        W29483   1.482   3.805   2.835
62416W        W29484  34.587   8.404   3.362
62417W        W29485  22.163  44.786   2.291
62418W        W29486   5.810  20.587  11.557
62419W        W29487   3.304   8.307  14.406
62420W        W29488  39.810  19.113   2.885
62421W        W29489   0.969  21.639  10.633
62422W        W29490  24.184  24.035  10.988
62423W        W29491   8.313   9.325  12.852
62424W        W29492  41.418  40.306   2.364
62425W        W29493  34.047  35.364  11.567
62426W        W29494  16.176   5.743  11.577
62427W        W29495   8.682  10.307   5.231
62428W        W29496  41.039  26.671   1.896
62429W        W29497   1.445  20.637  11.894
62430W        W29498  27.605  42.016   0.316
62431W        W29499  15.615  22.660  10.938
62432W        W29500  42.407  22.589  11.917
62433W        W29501  16.617   1.296   4.303
62434W        W29502   8.780  29.581  13.957
62435W        W29503  23.033  37.378   2.249
62436W        W29504  35.487  14.604  11.915
62437W        W29505  40.913  20.034   0.771
62438W        W29506  26.979  13.167   4.340
62439W        W29507   8.403   0.862  12.833
62440W        W29508  38.978  12.640  11.559
62441W        W29509  14.795   2.462   4.810
62442W        W29510  39.385  12.624  12.907
62443W        W29511  25.582  23.120   4.725
62444W        W29512  42.500  30.062  13.991
62445W        W29513  14.253  36.978  14.961
62446W        W29514  10.259   5.343   2.753
62447W        W29515  28.037  42.828   0.453
62448W        W29516  32.551  15.083   0.254
62449W        W29517  16.083  44.895  11.489
62450W        W29518  26.130  13.630   1.418
62451W        W29519  12.319  41.496   3.212
62452W        W29520  40.536  14.632   1.371
62453W        W29521  16.225  37.366  14.019
62454W        W29522  25.513  19.115   4.710
62455W        W29523   7.767  21.535  11.959
62456W        W29524  37.952   9.668   4.227
62457W        W29525   8.283  34.005  14.310
62458W        W29526  19.145  12.223   3.263
62459W        W29527  33.926  33.074  13.310
62460W        W29528  33.467  41.812  10.020
62461W        W29529   2.372   1.747  12.366
62462W        W29530   2.886  16.260  14.283
62463W        W29531   3.891  41.461  10.002
62464W        W29532  15.636   0.972  13.952
62465W        W29533  20.266  11.328   2.753
62466W        W29534  21.743  42.490  13.387
62467W        W29535  26.553   3.844   3.734
62468W        W29536  43.321   7.771   1.785
62469W        W29537  22.703  24.528   1.319
62470W        W29538  14.626  33.512  10.560
62471W        W29539  33.489   9.309   4.719
62472W        W29540  24.686   2.414  10.587
62473W        W29541  17.165  39.936  11.571
62474W        W29542   0.267   8.712  10.611
62475W        W29543   4.317  10.796  10.416
62476W        W29544  12.165  32.127   0.360
62477W        W29545  40.430   3.331   0.818
62478W        W29546  31.557  17.724  10.482
62479W        W29547  42.461  30.615   4.152
62480W        W29548  25.991  42.999  10.513
62481W        W29549  43.849  39.833  13.420
62482W        W29550  19.714   2.945   0.774
62483W        W29551  23.504   6.331   3.324
62484W        W29552  12.335  16.741   4.714
62485W        W29553  27.525  15.168  11.431
62486W        W29554  31.064  41.523  10.946
62487W        W29555  31.503   5.687   1.252
62488W        W29556   2.933   7.389  14.352
62489W        W29557   9.150  35.068  12.082
62490W        W29558  11.704  11.133   4.813
62491W        W29559   7.289  41.385  14.449
62492W        W29560  38.900  10.757  13.462
62493W        W29561  39.388   0.399   4.752
62494W        W29562  13.770  43.274   1.361
62495W        W29563  13.747   7.691  12.002
62496W        W29564  29.044  25.194  13.985
62497W        W29565  25.709  27.538   0.870
62498W        W29566  25.541  13.155  12.034
62499W        W29567  41.511  18.566   1.383
62500W        W29568  12.319  34.410   3.385
62501W        W29569  32.568  39.547   0.822
62502W        W29570  13.710  15.581  12.885
62503W        W29571   2.879  26.179  12.521
62504W        W29572   5.809  36.002   4.656
62505W        W29573  10.200   6.810  12.984
62506W        W29574   0.456  21.197  12.448
62507W        W29575   9.348  44.821  13.853
62508W        W29576  34.972  34.472   1.878
62509W        W29577  41.502  15.243   3.809
62510W        W29578  25.706   2.396   2.278
62511W        W29579  21.037  11.262  12.441
62512W        W29580  22.570  15.601  10.966
62513W        W29581  36.461  40.819  13.525
62514W        W29582  34.085  32.913   4.173
62515W        W29583  25.083  12.649  11.578
62516W        W29584  44.951  16.669  14.820
62517W        W29585  25.024  43.773  11.501
62518W        W29586  17.075  21.574  12.925
62519W        W29587   2.814  16.616  12.376
62520W        W29588  18.066  44.309   4.671
62521W        W29589  40.326  44.492  13.841
62522W        W29590  21.138  24.561   2.181
62523W        W29591   0.928  44.468  10.597
62524W        W29592  24.529  23.177   2.897
62525W        W29593  11.130  29.424   0.248
62526W        W29594   9.718  42.776   0.334
62527W        W29595  28.542   5.370   3.631
62528W        W29596  23.565  27.946   0.288
62529W        W29597   4.839  34.519   3.664
62530W        W29598  18.768  41.919   2.761
62531W        W29599  44.340  43.348   3.145
62532W        W29600  19.715  39.434  13.324
62533W        W29601   0.975  20.112  13.970
62534W        W29602  19.725  12.731  13.350
62535W        W29603  19.549  20.539   4.308
62536W        W29604  22.621  31.482  14.465
62537W        W29605  17.732  30.577  13.436
62538W        W29606  22.618   8.242  13.809
62539W        W29607  21.194  20.696   1.735
62540W        W29608   3.734  34.564  13.931
62541W        W29609  23.185  44.456  14.422
62542W        W29610  15.108  18.280  11.038
62543W        W29611  37.425   3.844  13.330
62544W        W29612   9.383  26.644  14.504
62545W        W29613  15.618  34.593  11.461
62546W        W29614  20.218   5.246   1.337
62547W        W29615  36.363  15.728   4.647
62548W        W29616   3.226  13.218   1.270
62549W        W29617  31.054   8.285  14.464
62550W        W29618   2.312  11.240  13.417
62551W        W29619  27.094  26.625   2.730
62552W        W29620  33.084  21.595   0.793
62553W        W29621   8.738   3.840  14.513
62554W        W29622  15.134  20.099  11.047
62555W        W29623   8.719   2.436   4.625
62556W        W29624  24.627  10.649   4.317
62557W        W29625   7.685  40.323  11.575
62558W        W29626  14.699  32.395   0.257
62559W        W29627  21.177  20.750  11.446
62560W        W29628  24.202  26.996  13.512
62561W        W29629  33.511  13.280   4.647
62562W        W29630  39.939   9.309   1.212
62563W        W29631  33.420   0.321   3.254
62564W        W29632  23.659  40.320   1.818
62565W        W29633  19.573  43.314   5.242
62566W        W29634  12.133  21.185  12.442
62567W        W29635   8.659  19.758   0.899
62568W        W29636  25.678  10.179   2.743
62569W        W29637  29.517  19.243   3.257
62570W        W29638  18.612  42.287  10.441
62571W        W29639   6.362  21.178   2.702
62572W        W29640  26.618   0.381  13.482
62573W        W29641   3.335  21.619   1.413
62574W        W29642  17.782   7.711  13.495
62575W        W29643  15.214  26.036  13.823
62576W        W29644  23.144  25.685  10.588
62577W        W29645  26.972  32.432  14.934
62578W        W29646  15.772   3.764  14.870
62579W        W29647  44.271  35.957   4.626
62580W        W29648   5.306  23.195  11.883
62581W        W29649  27.579  30.625  10.475
62582W        W29650  38.041  23.666   1.723
62583W        W29651  31.124  11.633   0.367
62584W        W29652  10.175   4.721   5.307
62585W        W29653   4.761  15.267  10.485
62586W        W29654  20.195   9.365   0.366
62587W        W29655  20.669  16.138  10.447
62588W        W29656   7.787  26.022   0.327
62589W        W29657   3.829  33.023   3.272
62590W        W29658  19.266  44.768   2.775
62591W        W29659  31.110  15.318  13.930
62592W        W29660  28.628  20.268  12.081
62593W        W29661  28.501   9.822   2.250
62594W        W29662  41.971  32.495   3.262
62595W        W29663  43.431  10.367  10.637
62596W        W29664  40.512  41.523   5.249
62597W        W29665   7.755  20.598  12.438
62598W        W29666  28.947  42.009  14.946
62599W        W29667  36.437  14.232   0.806
62600W        W29668  20.236  14.098   1.869
62601W        W29669   8.817   0.939  13.842
62602W        W29670  30.615   5.216   4.748
62603W        W29671  37.969  27.037   4.816
62604W        W29672   6.693   5.692   4.760
62605W        W29673  16.195  28.002   0.810
62606W        W29674  25.714  30.586  11.455
62607W        W29675  43.788  35.084   1.914
62608W        W29676  10.273   7.773   0.866
62609W        W29677  44.794  34.887  12.077
62610W        W29678  28.470  39.011  12.388
62611W        W29679   0.354   6.854   0.253
62612W        W29680  26.005  38.543  12.370
62613W        W29681  24.089  21.552  11.888
62614W        W29682  13.751  34.394   3.148
62615W        W29683  35.510  34.097  14.830
62616W        W29684  41.906  26.199  10.547
62617W        W29685  15.695  27.180  10.141
62618W        W29686  25.653  21.260  14.445
62619W        W29687  29.496  43.350   2.346
62620W        W29688  21.086   2.817  10.924
62621W        W29689   0.430   6.197  14.448
62622W        W29690  12.723  37.575  14.337
62623W        W29691  43.369  24.702   0.845
62624W        W29692  20.735  34.102  14.421
62625W        W29693  37.969  32.894  13.505
62626W        W29694  27.466  18.790   3.312
62627W        W29695  24.062  42.831  10.065
62628W        W29696  12.753  15.820  11.446
62629W        W29697  21.708  34.406   4.170
62630W        W29698  20.577  16.667   0.476
62631W        W29699   2.389   9.704  12.416
62632W        W29700  31.453  10.714   0.735
62633W        W29701  32.059   8.315  13.319
62634W        W29702  24.031  21.090  12.442
62635W        W29703   3.319  32.133  14.355
62636W        W29704   8.351   0.424   9.940
62637W        W29705   5.392  30.046  13.034
62638W        W29706   5.910  44.858   1.835
62639W        W29707   7.234  25.606   2.750
62640W        W29708  34.984  40.436  12.408
62641W        W29709  43.290  34.608   4.231
62642W        W29710  13.115  28.435  13.881
62643W        W29711  21.238   8.405   1.701
62644W        W29712   5.778  41.921   1.698
62645W        W29713  25.538  39.024  10.474
62646W        W29714  35.531   1.264  14.285
62647W        W29715   4.374  26.037  10.624
62648W        W29716  10.792  44.443  14.332
62649W        W29717   6.302  14.231  12.391
62650W        W29718  42.339  10.804  11.387
62651W        W29719   5.363  33.915  11.895
62652W        W29720  21.669  37.395   0.375
62653W        W29721  33.567  41.861  12.970
62654W        W29722  41.964  33.041   2.847
62655W        W29723  42.014  11.373  10.446
62656W        W29724  40.379   3.440   3.318
62657W        W29725  43.919  23.233   0.908
62658W        W29726  25.005  28.951   0.842
62659W        W29727  10.768  13.780   0.287
62660W        W29728  23.199  22.244  13.435
62661W        W29729  33.029  13.663   1.830
62662W        W29730  26.467  31.448   2.748
62663W        W29731   5.693  28.459  14.462
62664W        W29732   7.357  31.950  14.878
62665W        W29733  28.463  40.400  14.366
62666W        W29734  19.609  14.727   3.793
62667W        W29735  32.910  44.367   2.774
62668W        W29736  32.461  31.119   4.321
62669W        W29737  39.994  34.982  14.985
62670W        W29738  31.129  36.451  10.586
62671W        W29739  14.115   6.331  11.419
62672W        W29740  37.978  37.899   4.139
62673W        W29741   7.793  13.700   4.770
62674W        W29742  21.185  32.530  11.067
62675W        W29743  12.208   6.426   2.322
62676W        W29744  22.162  40.533   3.379
62677W        W29745  26.013  17.595   2.199
62678W        W29746  40.031  12.674  10.621
62679W        W29747  15.108  43.512   1.376
62680W        W29748   2.746   9.686   3.855
62681W        W29749  20.218  15.630  14.937
62682W        W29750   9.778  36.040  10.936
62683W        W29751  16.141   1.779   2.181
62684W        W29752  35.903  15.222  13.479
62685W        W29753  32.446  19.679  11.516
62686W        W29754  44.479   7.852  14.514
62687W        W29755  43.991   7.806   3.765
62688W        W29756   5.717  18.672  13.461
62689W        W29757   7.364  15.763   4.768
62690W        W29758  28.065  26.027   3.323
62691W        W29759   0.359   0.278  11.951
62692W        W29760  40.936  22.247   1.261
62693W        W29761  26.193  35.852  14.380
62694W        W29762  34.913  36.510  14.829
62695W        W29763  28.647  37.424   2.720
62696W        W29764   0.765   5.286  12.499
62697W        W29765  33.023   8.378   1.699
62698W        W29766   8.181  39.937   3.183
62699W        W29767   0.289  39.898   1.807
62700W        W29768  20.743  38.376   0.904
62701W        W29769   1.948  43.381  14.895
62702W        W29770  37.846  10.138  12.571
62703W        W29771  21.159  26.650  11.389
62704W        W29772  19.150  12.342  11.985
62705W        W29773  10.320  33.089  13.346
62706W        W29774  36.055  33.485   0.370
62707W        W29775  29.464   5.701   2.312
62708W        W29776  38.885   5.423  12.425
62709W        W29777  43.317   9.201   0.310
62710W        W29778  22.722  31.424   2.788
62711W        W29779  39.387  35.571  12.033
62712W        W29780   7.835  16.650  12.051
62713W        W29781  36.432  38.993  10.639
62714W        W29782  41.914  26.966  12.078
62715W        W29783  26.051  42.850  11.435
62716W        W29784  26.014  21.227   3.630
62717W        W29785  22.743  42.885   2.361
62718W        W29786  33.485   1.440  10.151
62719W        W29787  29.432  20.232   0.406
62720W        W29788  10.646  38.979   3.660
62721W        W29789  40.897  40.879   4.160
62722W        W29790  20.683  43.910  10.474
62723W        W29791  41.521  25.989  11.002
62724W        W29792  39.485  29.001   3.269
62725W        W29793  31.473  43.303  13.927
62726W        W29794  25.627  41.422  13.797
62727W        W29795  14.296  20.536  11.454
62728W        W29796  42.969   9.291  13.883
62729W        W29797  30.583  43.856   4.774
62730W        W29798   2.430  31.915   2.778
62731W        W29799   4.917  27.117  14.499
62732W        W29800  14.592  29.638   2.214
62733W        W29801  44.828  22.611   3.328
62734W        W29802  12.639  11.310   4.745
62735W        W29803  16.185  11.669   2.228
62736W        W29804  12.801  33.571  11.921
62737W        W29805  42.836  18.132   3.686
62738W        W29806  22.506  19.172   1.398
62739W        W29807  42.983  38.402  10.942
62740W        W29808  39.947  36.868   2.769
62741W        W29809  36.482  16.588   3.349
62742W        W29810  11.623  19.230  10.499
62743W        W29811  23.639  30.427  11.592
62744W        W29812  20.683  32.584  11.005
62745W        W29813  15.651  38.905  13.985
62746W        W29814  38.558  43.018  14.853
62747W        W29815  34.952  44.763   2.260
62748W        W29816  25.613  19.652  13.503
62749W        W29817  22.709  20.043  13.403
62750W        W29818   7.279  43.438  11.424
62751W        W29819  15.715  29.079   1.745
62752W        W29820  26.107  21.743   0.909
62753W        W29821  14.625  10.324  14.001
62754W        W29822  25.572  40.503   4.658
62755W        W29823  34.532  37.894   4.115
62756W        W29824  31.085  35.890  10.642
62757W        W29825  30.131   6.699  12.985
62758W        W29826   7.898  44.259   1.731
62759W        W29827   8.767  26.509  11.505
62760W        W29828  24.117  22.501   3.644
62761W        W29829  32.452   3.727  10.947
62762W        W29830  40.314  24.202  12.909
62763W        W29831  36.358  30.073  11.927
62764W        W29832  43.405   0.827  10.979
62765W        W29833   0.934  36.844  11.065
62766W        W29834   5.715  40.884   1.283
62767W        W29835  41.404  10.700   3.306
62768W        W29836  19.071  28.934  14.491
62769W        W29837  16.590  15.101   0.259
62770W        W29838  21.725  19.133   3.295
62771W        W29839  12.304   4.403   3.802
62772W        W29840   0.261  25.683   4.251
62773W        W29841  10.178  26.648   2.252
62774W        W29842  42.800   3.380   0.748
62775W        W29843  33.087   4.942   1.443
62776W        W29844  29.919  12.174   0.906
62777W        W29845   8.242  17.561  12.865
62778W        W29846  21.675   1.791  11.613
62779W        W29847  18.552   9.733   1.407
62780W        W29848  31.602  27.587   2.878
62781W        W29849  42.353   5.866  11.004
62782W        W29850  21.156  41.944   5.245
62783W        W29851   2.734  24.489  12.928
62784W        W29852  22.062  30.057  10.971
62785W        W29853  23.103  10.224  12.985
62786W        W29854  21.758   3.849  11.946
62787W        W29855  23.714  37.368  14.452
62788W        W29856  16.221  43.933   2.342
62789W        W29857  22.674  20.527   3.716
62790W        W29858   0.471  40.538   0.738
62791W        W29859  27.475   1.973  10.965
62792W        W29860  10.289  32.435  12.013
62793W        W29861  40.387  15.262   4.753
62794W        W29862  20.593  27.650   0.282
62795W        W29863  30.131  41.385  13.931
62796W        W29864   2.263  37.891   3.758
62797W        W29865   8.342  32.514   2.778
62798W        W29866  17.085   0.274   0.848
62799W        W29867  40.824   5.435   4.648
62800W        W29868  13.799   8.846   2.762
62801W        W29869  24.181  39.471  14.861
62802W        W29870   4.380  39.856  10.544
62803W        W29871   7.818   2.778  12.086
62804W        W29872  11.274   9.372  10.406
62805W        W29873  24.647  43.932   3.663
62806W        W29874  26.649   6.323  12.435
62807W        W29875  23.155  12.143  12.827
62808W        W29876  23.006  27.964  13.479
62809W        W29877   3.230   0.306  10.158
62810W        W29878  36.456  37.344   1.306
62811W        W29879  14.801   4.417  14.011
62812W        W29880  20.528  44.788  12.987
62813W        W29881  11.286  10.766   4.606
62814W        W29882  16.690  38.515   3.208
62815W        W29883  13.140  26.606  10.450
62816W        W29884  17.233  29.605   1.833
62817W        W29885  21.569  41.836  11.568
62818W        W29886   6.337   7.235   3.752
62819W        W29887   6.251  34.907   5.248
62820W        W29888  13.837  14.641  13.916
62821W        W29889  36.563  20.154   0.299
62822W        W29890  37.525   5.697   2.766
62823W        W29891  21.031  37.058  12.972
62824W        W29892  10.747  34.016  13.796
62825W        W29893   9.845   7.336   0.843
62826W        W29894  35.085  22.735   5.315
62827W        W29895  12.845  12.355   4.735
62828W        W29896  34.959  26.575  10.952
62829W        W29897  27.544  41.007  14.466
62830W        W29898  38.336  22.053  12.854
62831W        W29899  13.746   2.380   0.334
62832W        W29900   6.211   4.943  12.871
62833W        W29901  25.610   9.693   0.283
62834W        W29902  22.055  35.895   0.444
62835W        W29903  35.052  27.057  10.478
62836W        W29904   7.197  23.529   1.747
62837W        W29905  42.964   8.242   4.681
62838W        W29906  11.287  11.145  12.006
62839W        W29907  36.373  23.999  11.931
62840W        W29908  44.496  27.603  11.420
62841W        W29909   1.885  18.139   3.826
62842W        W29910  44.463  40.037  13.976
62843W        W29911   9.752  16.165   4.123
62844W        W29912  32.998   2.242  11.065
62845W        W29913  10.293  20.083   2.863
62846W        W29914  42.456  35.473   3.156
62847W        W29915   6.232  27.088   1.924
62848W        W29916  10.213  16.249   2.246
62849W        W29917  19.190   1.401  13.520
62850W        W29918  20.582   5.870   0.762
62851W        W29919  38.913  44.441   3.740
62852W        W29920  21.167  39.040   2.418
62853W        W29921  33.080  33.444   1.716
62854W        W29922  33.046   9.795   1.733
62855W        W29923   8.862  25.038   1.804
62856W        W29924  36.582   2.793   0.365
62857W        W29925   0.324   2.250  12.503
62858W        W29926  12.803  22.690   3.236
62859W        W29927  39.883  30.422  13.360
62860W        W29928  16.598  12.148  11.920
62861W        W29929   0.397  11.230  10.593
62862W        W29930  20.666  14.764  11.564
62863W        W29931  17.688  33.989  13.939
62864W        W29932   5.199  44.926   2.799
62865W        W29933  32.963  19.104  10.945
62866W        W29934  43.419  18.097  10.493
62867W        W29935  21.172  15.761  10.583
62868W        W29936  13.724  13.227  13.028
62869W        W29937  16.745  19.058   3.255
62870W        W29938  37.883   8.235  14.387
62871W        W29939  43.438  12.279  11.113
62872W        W29940  42.342  34.033   1.785
62873W        W29941  13.201   1.376  12.001
62874W        W29942  38.832  36.438  14.915
62875W        W29943  10.838   4.265   4.613
62876W        W29944   3.397   8.401   2.761
62877W        W29945  34.898  39.521  13.542
62878W        W29946   5.373  34.556  11.995
62879W        W29947  21.063  10.701   0.764
62880W        W29948  43.386   6.330  13.460
62881W        W29949  40.381   0.435  12.566
62882W        W29950   5.893  22.692   4.163
62883W        W29951  22.557   9.199   4.609
62884W        W29952   4.269  13.724   4.191
62885W        W29953  12.273  38.931  10.900
62886W        W29954  13.111  16.126  13.877
62887W        W29955   2.762  12.759   4.745
62888W        W29956  39.980  32.569   4.765
62889W        W29957   2.449  14.727   0.359
62890W        W29958  19.151   3.334  10.413
62891W        W29959   3.241  22.135  11.499
62892W        W29960  39.870  38.060   2.264
62893W        W29961  10.659  31.637   2.267
62894W        W29962  34.907  32.911  11.015
62895W        W29963  25.617  42.805  11.499
62896W        W29964  27.516  25.031  14.507
62897W        W29965  17.570  23.550  13.901
62898W        W29966   4.708  31.462   1.743
62899W        W29967  25.121  41.977   0.931
62900W        W29968   3.404  21.080   0.310
62901W        W29969  30.065   5.320   0.471
62902W        W29970  19.739  21.210  12.488
62903W        W29971  33.014  18.590  14.005
62904W        W29972  15.233  29.661   1.428
62905W        W29973  30.975   9.245   4.652
62906W        W29974   7.223  11.346  10.931
62907W        W29975  12.313  32.007  11.457
62908W        W29976  42.442   5.207   2.396
62909W        W29977  35.392  41.485  13.312
62910W        W29978  41.958  22.143  11.946
62911W        W29979  32.447  14.106  10.902
62912W        W29980  12.657   2.803   4.742
62913W        W29981  16.210   1.816   1.232
62914W        W29982  40.903   2.260   3.333
62915W        W29983  11.857  29.974   3.148
62916W        W29984  44.349  12.836   0.847
62917W        W29985  37.562   5.923  11.992
62918W        W29986  25.218   5.205   4.113
62919W        W29987  28.488  40.961  14.020
62920W        W29988  42.934  25.995  14.029
62921W        W29989   5.755   8.759  13.968
62922W        W29990  21.163  30.157   0.251
62923W        W29991  16.728   3.404   5.218
62924W        W29992  23.187  23.013   3.385
62925W        W29993  26.073  29.568   3.706
62926W        W29994   3.245  40.949  11.538
62927W        W29995  40.853  32.478  10.446
62928W        W29996  30.420  21.152   3.260
62929W        W29997  10.739  25.704   1.271
62930W        W29998  37.927  37.559   4.830
62931W        W29999  25.993  29.442   0.306
62932W        W30000  28.006  33.057  11.606
62933W        W30001  37.352  17.267  11.916
62934W        W30002   4.273  33.434   0.873
62935W        W30003  27.551  21.750   1.368
62936W        W30004  35.586  39.354  12.448
62937W        W30005  44.273  18.087   4.307
62938W        W30006   6.189   0.853   5.183
62939W        W30007   3.895  33.054   5.212
62940W        W30008  29.962   1.750   0.803
62941W        W30009   7.668  44.866   4.221
62942W        W30010  28.963  38.453   0.935
62943W        W30011  12.702  15.217   3.149
62944W        W30012  25.501  37.542   3.714
62945W        W30013  34.376   5.368   3.328
62946W        W30014  10.272  42.947   4.252
62947W        W30015  23.635  19.187   1.253
62948W        W30016   4.297  24.064   2.372
62949W        W30017  17.591   1.864   1.389
62950W        W30018  11.730  28.136   1.698
62951W        W30019  18.237  38.325   4.602
62952W        W30020  34.381  23.228   4.695
62953W        W30021  44.341  28.031   1.842
62954W        W30022   7.402  41.930  14.341
62955W        W30023  20.207  21.667   0.765
62956W        W30024  25.485  33.889   2.795
62957W        W30025  31.464  33.575   5.254
62958W        W30026  31.954  36.091  12.070
62959W        W30027  22.525   7.230   4.244
62960W        W30028   7.295  30.486  12.348
62961W        W30029   7.671  18.253   4.141
62962W        W30030  29.033  33.515   3.250
62963W        W30031  31.952  23.672   2.777
62964W        W30032   3.746  22.631   4.310
62965W        W30033  12.173  44.474   3.644
62966W        W30034  14.276  15.691  11.879
62967W        W30035  28.099   2.273   2.411
62968W        W30036   4.812   4.710  13.042
62969W        W30037  33.415   8.168   4.129
62970W        W30038  11.850  37.516   0.844
62971W        W30039  23.616   0.481   1.405
62972W        W30040  22.102  37.418   3.223
62973W        W30041  23.610  34.980  11.927
62974W        W30042  25.088  27.168  10.978
62975W        W30043  24.570   2.813  11.094
62976W        W30044  40.024  32.930   1.404
62977W        W30045  38.448  21.523   3.637
62978W        W30046  27.165  22.524  12.859
62979W        W30047  23.174  27.679  10.453
62980W        W30048  13.328  33.556  14.994
62981W        W30049  30.585  39.917   0.958
62982W        W30050   7.691  24.156   1.271
62983W        W30051  18.171  31.046  10.581
62984W        W30052  16.275  22.503   0.828
62985W        W30053  39.004  35.878  10.122
62986W        W30054  12.166  16.585  11.866
62987W        W30055   6.837  17.758   1.367
62988W        W30056  11.689  27.985  13.425
62989W        W30057   2.459  27.460   2.818
62990W        W30058   9.880   6.898   4.254
62991W        W30059  17.642  31.997  14.479
62992W        W30060   9.188   4.897   1.240
62993W        W30061   9.688  23.197   2.830
62994W        W30062  15.215  31.944  12.442
62995W        W30063  16.770  43.903   1.749
62996W        W30064  27.651   3.761  14.352
62997W        W30065  11.807  24.511  14.990
62998W        W30066  18.673  20.562  14.319
62999W        W30067  41.370  38.966  14.872
63000W        W30068  21.609   0.754   0.816
63001W        W30069  26.689  44.987  14.463
63002W        W30070  33.131   5.343   0.246
63003W        W30071   4.264  13.766   3.242
63004W        W30072  24.064  22.250   2.758
63005W        W30073  40.341  44.883   2.813
63006W        W30074  35.065   6.194  11.870
63007W        W30075   1.916   9.329  10.953
63008W        W30076  27.018  31.520  14.840
63009W        W30077  21.721  43.408   3.235
63010W        W30078  11.832  43.439  14.855
63011W        W30079  40.941  35.020   3.353
63012W        W30080  37.547  36.378   5.293
63013W        W30081  27.600  22.117  13.476
63014W        W30082   3.288  28.469   1.445
63015W        W30083  31.458  43.424  11.390
63016W        W30084  36.440  15.293  13.003
63017W        W30085  18.177  44.815   1.310
63018W        W30086   5.402  31.561   3.169
63019W        W30087  29.494  18.123  14.347
63020W        W30088  26.975  18.123   0.340
63021W        W30089  43.887  30.056   0.387
63022W        W30090  14.767  44.878   0.256
63023W        W30091  20.120   3.879   4.335
63024W        W30092  41.431  19.615   1.259
63025W        W30093  28.484  14.307   1.301
63026W        W30094   6.715  28.678  10.962
63027W        W30095  12.129  41.822  10.531
63028W        W30096  32.394  16.165   3.651
63029W        W30097   8.238  44.784  12.978
63030W        W30098  17.292  43.889  13.472
63031W        W30099  27.995  19.071  14.868
63032W        W30100  19.662   7.198   4.782
63033W        W30101  42.486  42.976  14.291
63034W        W30102   1.342  40.042   4.195
63035W        W30103  35.439  13.312  11.053
63036W        W30104   7.880  11.140  12.528
63037W        W30105  14.645   1.314  14.846
63038W        W30106   0.923  31.109  10.044
63039W        W30107  13.658   5.920   0.939
63040W        W30108  42.352   1.382  13.950
63041W        W30109  37.892  41.342  14.393
63042W        W30110  44.330  16.611  12.013
63043W        W30111   6.402  44.788  14.968
63044W        W30112  37.049   8.319   0.260
63045W        W30113  33.995   8.858   4.288
63046W        W30114  35.498  27.058   2.283
63047W        W30115  24.038  25.625   2.845
63048W        W30116  38.995  14.703   1.395
63049W        W30117  11.784  28.943   3.240
63050W        W30118  33.621  18.748  12.010
63051W        W30119  21.056  44.402   4.125
63052W        W30120   8.706  39.026  12.850
63053W        W30121  24.212   9.648   2.804
63054W        W30122  13.770  20.153  14.022
63055W        W30123   8.299   3.323  13.436
63056W        W30124   4.409  30.067  13.890
63057W        W30125  41.447  20.613  14.419
63058W        W30126  41.482   7.284   1.875
63059W        W30127   6.206   2.466  13.382
63060W        W30128  22.237   7.724  11.029
63061W        W30129  36.470  16.807   4.174
63062W        W30130  31.094  15.579  12.834
63063W        W30131  26.163   6.296  13.002
63064W        W30132  25.150  30.910   4.619
63065W        W30133  22.648  37.455   2.317
63066W        W30134  41.379  15.169  10.965
63067W        W30135  13.220  17.127  11.858
63068W        W30136   9.154  23.565  12.850
63069W        W30137  10.690  22.228   0.480
63070W        W30138  11.860   0.356   0.274
63071W        W30139   3.412  21.064   3.786
63072W        W30140   7.305  31.538   0.440
63073W        W30141   4.753  15.598   5.297
63074W        W30142  26.202  27.584  10.433
63075W        W30143  41.017  40.013   4.734
63076W        W30144  11.191  21.239   1.331
63077W        W30145  41.794   7.329  11.927
63078W        W30146  42.854   8.681  10.088
63079W        W30147  16.720  44.772  11.052
63080W        W30148  27.147  13.801   4.726
63081W        W30149  38.429  20.113   0.933
63082W        W30150  24.188   7.381   4.342
63083W        W30151  33.125   9.643  13.923
63084W        W30152  22.171  19.646  14.356
63085W        W30153  23.195  44.409   1.448
63086W        W30154  22.019  13.628  12.011
63087W        W30155  25.691  14.111   0.869
63088W        W30156  24.033   8.240   4.751
63089W        W30157   6.250  34.060  13.898
63090W        W30158  39.936  35.075  13.946
63091W        W30159   4.787  33.066  11.420
63092W        W30160  11.784  15.107  11.479
63093W        W30161  21.669  34.057   2.246
63094W        W30162   9.286   3.930   0.961
63095W        W30163   4.842   0.320   5.191
63096W        W30164   7.766  32.998   3.724
63097W        W30165  28.177  13.324  14.911
63098W        W30166   6.389  20.653  12.541
63099W        W30167  12.742   7.270  11.537
63100W        W30168  13.329  29.513   1.743
63101W        W30169   0.973  16.103   2.713
63102W        W30170  39.478  11.795   0.288
63103W        W30171  35.896  28.457  13.963
63104W        W30172  40.904   5.708   3.151
63105W        W30173   8.361  23.697   3.674
63106W        W30174  24.113  31.636   4.226
63107W        W30175  24.583  15.265   3.813
63108W        W30176  44.275   9.658  14.768
63109W        W30177   9.356   2.286   3.710
63110W        W30178  15.156  40.051  13.892
63111W        W30179   5.818  41.464   4.812
63112W        W30180   1.245   9.742   2.699
63113W        W30181  29.126  27.551   3.828
63114W        W30182  41.949  25.497   1.730
63115W        W30183  15.160   8.742   2.343
63116W        W30184  18.153  12.848   3.794
63117W        W30185   9.329  38.467   1.321
63118W        W30186   7.263  33.014   4.762
63119W        W30187  33.021  41.343  13.902
63120W        W30188   8.174  43.275  10.538
63121W        W30189  10.177  24.618   4.296
63122W        W30190  35.940   6.772   3.295
63123W        W30191   3.773  34.092  12.377
63124W        W30192  34.955   3.302   3.849
63125W        W30193   1.270  19.153   4.648
63126W        W30194  25.711  12.626   1.712
63127W        W30195  18.289   5.437  13.479
63128W        W30196   4.805  42.515  13.014
63129W        W30197  13.255   2.432   1.372
63130W        W30198  38.821   1.846  13.473
63131W        W30199  24.677  28.544  11.914
63132W        W30200  31.528  16.297  11.126
63133W        W30201  25.192  10.799   3.308
63134W        W30202   5.879   7.717   4.241
63135W        W30203   5.890  16.646  14.458
63136W        W30204  43.288  22.550   4.216
63137W        W30205  44.310  33.460  11.875
63138W        W30206  42.329  31.459  12.035
63139W        W30207  36.412  20.266   0.756
63140W        W30208  29.144  42.447  12.862
63141W        W30209  35.891   9.886  14.478
63142W        W30210  44.488  40.988  12.947
63143W        W30211  41.923  30.658  13.859
63144W        W30212   6.218  40.501  11.950
63145W        W30213  35.110  11.660  10.559
63146W        W30214   9.669  41.923  10.512
63147W        W30215  11.724  29.012   1.393
63148W        W30216  14.252  29.029   4.654
63149W        W30217   6.771  13.706  14.379
63150W        W30218  13.176  33.979  13.314
63151W        W30219  16.216  20.743  13.930
63152W        W30220  41.401   5.245   0.271
63153W        W30221  44.301  36.045  14.456
63154W        W30222  22.151   8.872   1.250
63155W        W30223   8.314   2.388  11.962
63156W        W30224   5.802   0.292   2.901
63157W        W30225  13.787  13.150  11.537
63158W        W30226  22.665  31.901  11.923
63159W        W30227   5.438   7.909   4.129
63160W        W30228  31.504   3.863  10.595
63161W        W30229   1.911  31.430  13.949
63162W        W30230  39.475  17.136  10.577
63163W        W30231  29.536  21.641   3.370
63164W        W30232  34.926   2.783  12.349
63165W        W30233   2.395  29.600  11.884
63166W        W30234  43.819  43.839  13.053
63167W        W30235  12.281  30.627  10.984
63168W        W30236  23.705   1.316   4.833
63169W        W30237  23.556   7.352   2.844
63170W        W30238  35.861  27.554   4.671
63171W        W30239  11.706   2.923  12.488
63172W        W30240  29.169  38.998  13.863
63173W        W30241   4.333  12.622   1.380
63174W        W30242   7.868  17.078  14.764
63175W        W30243  33.550  24.592   3.264
63176W        W30244  40.871  10.810   2.821
63177W        W30245  42.358  43.451   0.778
63178W        W30246   2.458  10.862   0.751
63179W        W30247  26.473   5.699   4.218
63180W        W30248   2.282   8.258  13.366
63181W        W30249   8.806  27.988   4.129
63182W        W30250  34.946  43.003   0.459
63183W        W30251  38.055  11.321   0.382
63184W        W30252  19.219  39.880  14.510
63185W        W30253  22.741  40.505  10.552
63186W        W30254  12.324  24.046   4.155
63187W        W30255   4.868  32.523   0.387
63188W        W30256  14.143  41.491   1.893
63189W        W30257  28.671  36.881  14.901
63190W        W30258  44.890  24.723   1.754
63191W        W30259  21.678  40.824   5.757
63192W        W30260  26.508  13.191  14.282
63193W        W30261  11.202  40.841   1.769
63194W        W30262  17.670  27.070  10.975
63195W        W30263  16.741  20.264   3.736
63196W        W30264  34.074   7.867   0.767
63197W        W30265   5.838  24.026   0.953
63198W        W30266  21.663  11.822   9.942
63199W        W30267   2.898   6.401  12.942
63200W        W30268  42.491  32.552   1.794
63201W        W30269  24.487  20.116  11.920
63202W        W30270  28.665   0.825  11.884
63203W        W30271   0.782  30.147  11.078
63204W        W30272  17.298   4.419   1.324
63205W        W30273  35.434  23.690   3.664
63206W        W30274   6.318  36.465   2.884
63207W        W30275   8.768  30.642  13.010
63208W        W30276   1.959  39.393   1.298
63209W        W30277  19.621  24.580   3.264
63210W        W30278  33.502  40.524   0.409
63211W        W30279  34.095  40.370   2.371
63212W        W30280   7.189   4.211   3.675
63213W        W30281  35.915  11.192  12.956
63214W        W30282   2.362  14.655   2.322
63215W        W30283  27.149  11.779   4.275
63216W        W30284   4.340  14.588  13.985
63217W        W30285  29.527  44.476  10.910
63218W        W30286  12.625  25.515  10.922
63219W        W30287  10.769   9.389   1.413
63220W        W30288   1.284  37.431  13.326
63221W        W30289  11.855   3.878  13.428
63222W        W30290  17.284  40.495  10.947
63223W        W30291   1.892  24.057   2.850
63224W        W30292  30.424   3.261   3.383
63225W        W30293  29.555  32.462  12.577
63226W        W30294   7.791  15.277   3.833
63227W        W30295  37.959   9.376   2.809
63228W        W30296  37.560  36.375  11.465
63229W        W30297  29.017   5.325  12.395
63230W        W30298  20.736  25.558  12.569
63231W        W30299  14.168  35.863  11.907
63232W        W30300  20.062  34.417  11.938
63233W        W30301  34.989  24.038  14.944
63234W        W30302  42.856  32.597   2.375
63235W        W30303  25.538   0.388  14.339
63236W        W30304  40.345  32.629   3.759
63237W        W30305  14.124   6.710   1.812
63238W        W30306  22.997   4.877   1.724
63239W        W30307  35.453  34.545  13.332
63240W        W30308  32.893  17.662  12.980
63241W        W30309  21.043   6.889   2.241
63242W        W30310  25.657   1.318   2.829
63243W        W30311  21.747  13.744  14.921
63244W        W30312  23.650   0.461  11.538
63245W        W30313  34.421   0.959  12.515
63246W        W30314  33.924  19.726  14.903
63247W        W30315  33.383  31.570   2.751
63248W        W30316  19.163   7.880  12.381
63249W        W30317  31.476  24.114  11.967
63250W        W30318  44.503  39.418  10.065
63251W        W30319  36.402  18.741  11.882
63252W        W30320  26.122  32.974  14.804
63253W        W30321  17.750  17.191   1.845
63254W        W30322   1.323   9.189  13.900
63255W        W30323  24.634   5.925   2.400
63256W        W30324  18.747  27.528  10.593
63257W        W30325  26.481  33.910  13.438
63258W        W30326   5.866  17.284   3.203
63259W        W30327  12.753  26.703   0.266
63260W        W30328   8.823  43.369   0.795
63261W        W30329   2.401   3.288  14.888
63262W        W30330  18.168  44.963   4.719
63263W        W30331  18.243  26.482  12.407
63264W        W30332  22.668   2.749   0.923
63265W        W30333  22.545  43.978   2.266
63266W        W30334  11.277  18.089  10.422
63267W        W30335  15.224  18.253  12.474
63268W        W30336  32.060  31.908   1.292
63269W        W30337  43.977  44.963  14.382
63270W        W30338   7.883  23.004   4.708
63271W        W30339  44.473  44.497  11.572
63272W        W30340   5.928  32.036   0.817
63273W        W30341  29.476  24.037   1.925
63274W        W30342  42.801  29.599   3.689
63275W        W30343  16.799  22.697   0.329
63276W        W30344  43.273  27.584  10.575
63277W        W30345  34.003  28.439  12.357
63278W        W30346  18.656  32.919   1.359
63279W        W30347   0.967  12.636  10.989
63280W        W30348  34.919  42.811   2.885
63281W        W30349  20.560  27.611  11.008
63282W        W30350  13.313  26.575   3.696
63283W        W30351  25.013  14.234   4.775
63284W        W30352  12.712  24.223   1.330
63285W        W30353  34.053  20.185  12.365
63286W        W30354   3.418  27.670  10.912
63287W        W30355  26.528  44.425  10.548
63288W        W30356   2.811   4.921   3.351
63289W        W30357  14.805  24.985  10.548
63290W        W30358  17.237  31.608   4.728
63291W        W30359  24.584  30.913   1.844
63292W        W30360  11.226  30.955  13.408
63293W        W30361   8.708  17.214   0.386
63294W        W30362   5.320  27.605  13.389
63295W        W30363  42.824  18.287  12.360
63296W        W30364  38.536  34.942  14.442
63297W        W30365  29.638  13.349   2.216
63298W        W30366  26.666  35.854  12.553
63299W        W30367  30.993   0.905  10.415
63300W        W30368  30.138   2.774  12.032
63301W        W30369  14.589  21.712  11.093
63302W        W30370  24.048  27.553   0.479
63303W        W30371  22.536  25.018  13.858
63304W        W30372  23.602  22.660  12.343
63305W        W30373   1.888  29.090  12.900
63306W        W30374  36.871  18.739  13.839
63307W        W30375  14.756  34.887  12.356
63308W        W30376  23.722  11.818   3.859
63309W        W30377  20.253  43.458   4.788
63310W        W30378   1.361  36.039  14.921
63311W        W30379  43.324  14.252   2.667
63312W        W30380  33.622  21.050   1.309
63313W        W30381   3.455  27.657   4.250
63314W        W30382  20.759  44.820   0.755
63315W        W30383  10.800  42.484   3.293
63316W        W30384  40.421   4.237  12.006
63317W        W30385   7.706  18.281   3.781
63318W        W30386  24.656  26.585   3.797
63319W        W30387  17.705  18.125   1.864
63320W        W30388  11.643   4.444   0.476
63321W        W30389  13.277   7.714   1.724
63322W        W30390  38.060  35.986  11.080
63323W        W30391  17.164  31.142  13.542
63324W        W30392   7.309   7.886  10.598
63325W        W30393  38.396  43.413  14.347
63326W        W30394  17.150  35.910   2.684
63327W        W30395   5.800   6.714  13.812
63328W        W30396  34.543   2.327   4.254
63329W        W30397  33.531  17.799   3.761
63330W        W30398  25.646  44.913   0.326
63331W        W30399   7.833   6.263   3.649
63332W        W30400   2.877  13.318  11.464
63333W        W30401  31.939  25.164  11.375
63334W        W30402  30.492  40.033  14.292
63335W        W30403  38.441   8.869   4.222
63336W        W30404   2.817  32.474  12.461
63337W        W30405  28.058  29.166   1.435
63338W        W30406  11.199  26.170   4.185
63339W        W30407  34.406  32.567   2.867
63340W        W30408   9.227  43.787  14.836
63341W        W30409  31.918   2.855   3.194
63342W        W30410  27.031  34.880  11.910
63343W        W30411  40.319  43.891   1.268
63344W        W30412   2.821  23.579   1.926
63345W        W30413  13.669  39.953   2.689
63346W        W30414   2.923   7.221   4.191
63347W        W30415   0.404  25.015  13.876
63348W        W30416  34.888  12.799   1.746
63349W        W30417  24.535   8.811  12.036
63350W        W30418  17.768  32.417   2.304
63351W        W30419  35.069  27.584   0.811
63352W        W30420  27.488  36.488   3.742
63353W        W30421  26.187  39.813   2.294
63354W        W30422  31.957   5.297  11.423
63355W        W30423  15.278   2.442  10.631
63356W        W30424   9.268  30.421  14.356
63357W        W30425  18.223   5.884   0.847
63358W        W30426  11.775  11.823  10.552
63359W        W30427  20.729   2.401   1.446
63360W        W30428  34.432   4.836   0.352
63361W        W30429  13.778  26.613  12.834
63362W        W30430  39.374  40.930   4.767
63363W        W30431  23.117  37.011   3.731
63364W        W30432  20.176  32.128  12.983
63365W        W30433   5.278  44.982   4.740
63366W        W30434  20.077  21.196   4.323
63367W        W30435  24.599  20.625  10.535
63368W        W30436  13.309  26.197  12.384
63369W        W30437  13.225  12.165  13.012
63370W        W30438  22.670  26.684   4.198
63371W        W30439  36.032  42.289   4.275
63372W        W30440   7.696  10.666   2.792
63373W        W30441  42.365   8.212  12.419
63374W        W30442  12.177   9.861  12.966
63375W        W30443  15.589  39.335  13.853
63376W        W30444  15.804   0.296   1.785
63377W        W30445  18.590  26.976   2.235
63378W        W30446  30.048  11.198   0.300
63379W        W30447   9.767  35.096  10.898
63380W        W30448  43.799  34.610   5.603
63381W        W30449  19.045  40.038   3.199
63382W        W30450  28.105  44.491  11.882
63383W        W30451   9.336  27.476  14.970
63384W        W30452   0.424  24.096  12.876
63385W        W30453   4.802   0.876   2.412
63386W        W30454  41.925  30.915  13.348
63387W        W30455  23.586  25.497  12.868
63388W        W30456  24.067  31.922   2.673
63389W        W30457  21.074  40.937  10.078
63390W        W30458   2.832  17.676  13.830
63391W        W30459  31.463  31.497  12.431
63392W        W30460  14.281  30.582  14.910
63393W        W30461  35.490  36.962   1.695
63394W        W30462  10.636  32.024  11.514
63395W        W30463  29.136  11.751  14.904
63396W        W30464  41.848  21.526   4.725
63397W        W30465  12.843  41.489   3.783
63398W        W30466  21.734  20.264   0.732
63399W        W30467  17.213  43.450   4.825
63400W        W30468  40.042  16.288   3.288
63401W        W30469   9.691   3.787   2.349
63402W        W30470  36.381   7.786  12.092
63403W        W30471  12.701  16.766   2.201
63404W        W30472  24.107  25.166   4.684
63405W        W30473  44.804  38.515  11.494
63406W        W30474  40.375  38.510   1.875
63407W        W30475   1.831  37.410   3.721
63408W        W30476  18.724  36.896   4.786
63409W        W30477  40.963   0.399  11.885
63410W        W30478  27.039   6.418  14.415
63411W        W30479  31.503   3.827  11.497
63412W        W30480  20.716  22.607  14.410
63413W        W30481   9.356  43.301  12.523
63414W        W30482   6.752  36.050  10.639
63415W        W30483  38.073  40.339  14.499
63416W        W30484  42.368  26.203  13.024
63417W        W30485  15.734  13.691  12.877
63418W        W30486  29.479  40.813  11.043
63419W        W30487  27.064  39.952   1.350
63420W        W30488   5.702  36.467   2.820
63421W        W30489  30.600   7.236  13.989
63422W        W30490  10.213  34.886   4.672
63423W        W30491   1.830  43.930   4.173
63424W        W30492  28.170   9.250   1.330
63425W        W30493   1.785  16.767  11.026
63426W        W30494  20.611   3.918  12.520
63427W        W30495  39.914   5.250   4.669
63428W        W30496  44.959  25.542   1.252
63429W        W30497  25.214   3.335   4.219
63430W        W30498  19.705  20.611   3.149
63431W        W30499  36.951  15.202   2.707
63432W        W30500  27.064  36.983  10.961
63433W        W30501   7.875  35.407  13.882
63434W        W30502  31.627  21.553   1.441
63435W        W30503   4.731  15.583   2.892
63436W        W30504  26.994   9.709  12.896
63437W        W30505  37.061  34.989  10.893
63438W        W30506  18.647  39.950   0.295
63439W        W30507  28.507  42.003  14.288
63440W        W30508   7.732  14.781   2.395
63441W        W30509   4.214  36.071  14.807
63442W        W30510  41.817   2.779   4.823
63443W        W30511  33.030  40.416   2.312
63444W        W30512   2.770   3.430   2.178
63445W        W30513  11.818   3.396  14.006
63446W        W30514  29.062  21.591  12.490
63447W        W30515  14.264  40.851   0.288
63448W        W30516   8.299  15.324   4.317
63449W        W30517  17.130  21.239   3.747
63450W        W30518  18.195   9.840   1.702
63451W        W30519  40.461  41.363   2.702
63452W        W30520  37.893   6.720   4.261
63453W        W30521  28.998  25.080   1.750
63454W        W30522   9.746  30.551  12.979
63455W        W30523  13.335  35.507   2.873
63456W        W30524  17.689  19.634  13.932
63457W        W30525  42.309  31.119  12.832
63458W        W30526  35.559  20.271  12.391
63459W        W30527  26.033  15.254   3.789
63460W        W30528  34.597  43.770  11.055
63461W        W30529  17.555  24.662   1.312
63462W        W30530  24.142  11.800   5.297
63463W        W30531   1.869  31.963  13.808
63464W        W30532  32.136  24.033  14.939
63465W        W30533  15.214  10.831  11.516
63466W        W30534  42.485  15.187   3.156
63467W        W30535  33.420   6.404   0.801
63468W        W30536  34.931  22.245  12.352
63469W        W30537   1.975  40.802  12.508
63470W        W30538   0.329  10.307   2.211
63471W        W30539   5.238  40.501   4.250
63472W        W30540  27.478  30.556   4.757
63473W        W30541  22.709  39.995  12.063
63474W        W30542   9.659  28.983  10.957
63475W        W30543  32.631  18.187  12.931
63476W        W30544  21.559  38.834  11.899
63477W        W30545  22.253  21.264  14.939
63478W        W30546  36.475   9.868  14.001
63479W        W30547  29.505  30.117  14.886
63480W        W30548   5.327  40.361  14.915
63481W        W30549   0.438   0.849   4.648
63482W        W30550  17.259  39.052  13.855
63483W        W30551   4.721  43.335   2.866
63484W        W30552  23.722  44.973   3.771
63485W        W30553  36.025  29.643  14.408
63486W        W30554  34.095  23.003   4.735
63487W        W30555  42.845  33.387   1.410
63488W        W30556  39.395  16.203   4.638
63489W        W30557  38.050  41.901   0.387
63490W        W30558  32.937  34.065   0.251
63491W        W30559   9.366   7.370   1.366
63492W        W30560  44.883  43.432  10.892
63493W        W30561  34.881  21.168  12.063
63494W        W30562  35.884  18.699   3.258
63495W        W30563  44.279  29.108  11.379
63496W        W30564   4.217   4.427  14.990
63497W        W30565  13.700  20.257   0.732
63498W        W30566  31.974  42.829   9.997
63499W        W30567  37.945   6.910  14.892
63500W        W30568  39.914  23.219   3.686
63501W        W30569  39.537  25.584   1.894
63502W        W30570  22.580   1.750   0.480
63503W        W30571   5.261  11.332   2.414
63504W        W30572  41.810  26.506   1.849
63505W        W30573  35.568  15.731  13.993
63506W        W30574   2.393  29.974  14.977
63507W        W30575  31.127  25.706  13.827
63508W        W30576  24.638  35.543  13.493
63509W        W30577   1.734  16.702  14.963
63510W        W30578   4.220  25.075  13.502
63511W        W30579  25.692  36.411   3.310
63512W        W30580  19.780  36.547   0.462
63513W        W30581  41.002  11.860  12.034
63514W        W30582  11.309  30.953   4.814
63515W        W30583  39.981  34.887   3.779
63516W        W30584  21.245  17.716   0.336
63517W        W30585  22.203  38.356   3.330
63518W        W30586  29.074  21.171   1.313
63519W        W30587   7.908  11.311  11.019
63520W        W30588   4.265  39.433  12.489
63521W        W30589  28.572  31.588   3.668
63522W        W30590  15.791  22.132   2.251
63523W        W30591  16.085  32.998  14.845
63524W        W30592  18.586  16.811  12.540
63525W        W30593  12.705   3.711  14.840
63526W        W30594   8.850  39.535  14.483
63527W        W30595  17.750  37.475  11.112
63528W        W30596  40.480  13.838   0.842
63529W        W30597  13.606  38.380   2.243
63530W        W30598  39.911  11.160   2.384
63531W        W30599  32.088  25.185   3.743
63532W        W30600  35.911   7.735   3.247
63533W        W30601  17.746  20.737  11.024
63534W        W30602  23.076   5.895   2.827
63535W        W30603   5.237  24.057  10.511
63536W        W30604  37.582  40.460  11.922
63537W        W30605  18.177  31.914   1.369
63538W        W30606  25.657   4.274  11.874
63539W        W30607  33.935   8.872   1.242
63540W        W30608  10.747  15.282  10.505
63541W        W30609   2.402  39.994   0.386
63542W        W30610  23.587  42.895  12.054
63543W        W30611  33.015  40.447  13.899
63544W        W30612  41.883   8.195   3.709
63545W        W30613  39.467  16.729   2.855
63546W        W30614  25.976  25.141  11.941
63547W        W30615  43.905  38.330  14.476
63548W        W30616  42.991  22.561   4.180
63549W        W30617  30.631  22.701   3.656
63550W        W30618   5.753  44.932  12.554
63551W        W30619  28.009  15.238  14.470
63552W        W30620  25.166   3.325   1.408
63553W        W30621   6.858  28.122  11.001
63554W        W30622   8.769   7.776   3.853
63555W        W30623  43.489  13.632  14.485
63556W        W30624  44.363  44.385   5.279
63557W        W30625  44.005   6.761  12.066
63558W        W30626   7.706   8.673  10.587
63559W        W30627   4.325  40.522  11.916
63560W        W30628  27.123  27.587   2.857
63561W        W30629  34.458   6.744   2.828
63562W        W30630   3.219  35.567   2.218
63563W        W30631   7.707  34.436   1.798
63564W        W30632  13.605   5.715  11.921
63565W        W30633  40.841   4.268   4.692
63566W        W30634  44.344  40.811  12.574
63567W        W30635  18.269  29.132  12.553
63568W        W30636  32.583  11.848  14.374
63569W        W30637  38.929  41.314   1.847
63570W        W30638  25.010  23.554   0.922
63571W        W30639   2.371  11.345  14.867
63572W        W30640  31.098  25.482  12.385
63573W        W30641  14.229  38.560   1.332
63574W        W30642  40.986  15.170  11.955
63575W        W30643   4.875  35.450  12.973
63576W        W30644  38.889  42.778  10.915
63577W        W30645  20.632  34.573  13.889
63578W        W30646  25.495  11.826  12.838
63579W        W30647  22.725  16.157  10.603
63580W        W30648  35.016  11.802   0.914
63581W        W30649  28.506  35.510   0.353
63582W        W30650  39.412  30.112   2.689
63583W        W30651  37.527  35.931  13.478
63584W        W30652   9.748  21.724  11.449
63585W        W30653  24.702  22.190  10.444
63586W        W30654  38.029  42.464   1.354
63587W        W30655  41.959  28.034  12.075
63588W        W30656  28.998  11.272  10.426
63589W        W30657  20.623   2.790  10.916
63590W        W30658  13.846   1.749   0.354
63591W        W30659  10.732  23.177   3.172
63592W        W30660  36.396  43.325  14.994
63593W        W30661  32.940  37.916  11.431
63594W        W30662  32.500   2.891  10.898
63595W        W30663  11.130  19.681   3.218
63596W        W30664  16.243   7.383  12.992
63597W        W30665  32.127  23.607   1.384
63598W        W30666   9.786  28.972  13.804
63599W        W30667  35.580  44.867   3.693
63600W        W30668  22.115  39.958   9.974
63601W        W30669  36.449   1.403  13.978
63602W        W30670   8.370  11.191  14.991
63603W        W30671   3.332  34.502   2.854
63604W        W30672  23.634  12.324  12.889
63605W        W30673  23.607  28.946  14.459
63606W        W30674  27.052  29.649   0.935
63607W        W30675  35.479  13.256   4.280
63608W        W30676   8.403  31.567   1.401
63609W        W30677  36.428  41.970   0.877
63610W        W30678   2.789  25.633   4.695
63611W        W30679  12.779  36.400   3.251
63612W        W30680  27.525  10.274   1.934
63613W        W30681   9.201  24.621  13.905
63614W        W30682  39.559  31.075  14.375
63615W        W30683   8.172  21.657  11.518
63616W        W30684  36.920   0.879   2.714
63617W        W30685  38.992  18.249   3.181
63618W        W30686  42.375  29.638   3.718
63619W        W30687  34.105  37.399  14.927
63620W        W30688  25.515  35.874  11.917
63621W        W30689  25.662  11.141  13.965
63622W        W30690  35.880  26.192   3.189
63623W        W30691   1.844  20.646  12.874
63624W        W30692  34.073  26.531  12.924
63625W        W30693   4.278  11.865   4.113
63626W        W30694  23.121  29.427  12.362
63627W        W30695  22.566  25.063  12.884
63628W        W30696  10.857  12.166   3.840
63629W        W30697  38.911  22.242   2.736
63630W        W30698  40.429  11.858   1.787
63631W        W30699  32.931   3.738   0.361
63632W        W30700  31.634  28.009  12.365
63633W        W30701  26.618  38.821  12.522
63634W        W30702   3.905  12.174  14.997
63635W        W30703  37.413  29.926  14.478
63636W        W30704  23.508  30.939   1.756
63637W        W30705  10.699  19.647  11.447
63638W        W30706  40.470   5.766   3.158
63639W        W30707  41.310  28.640  14.853
63640W        W30708  40.389  36.041  13.006
63641W        W30709  38.564  19.047   3.799
63642W        W30710   1.790   5.802  11.057
63643W        W30711  15.195  13.271  10.889
63644W        W30712  18.068  43.855  10.589
63645W        W30713  29.601  12.335  10.451
63646W        W30714  21.561   1.939  12.867
63647W        W30715  16.084  11.204  10.447
63648W        W30716  12.298  21.728  11.897
63649W        W30717   0.910  25.605  14.989
63650W        W30718  28.074   2.231  14.420
63651W        W30719   7.205  10.149   4.314
63652W        W30720   0.257   2.749  12.478
63653W        W30721  19.046  24.679   0.842
63654W        W30722  25.075  38.927   0.310
63655W        W30723   8.385  24.982   2.339
63656W        W30724  19.763  37.024   3.241
63657W        W30725  31.909  38.536   0.897
63658W        W30726   5.219  40.425  14.508
63659W        W30727   9.373   9.388   4.163
63660W        W30728  11.369  32.486  14.831
63661W        W30729  14.800  39.520  10.452
63662W        W30730  36.891  11.652   0.847
63663W        W30731   6.400  12.673  14.978
63664W        W30732  32.453  34.478   4.223
63665W        W30733   6.375   3.393   2.250
63666W        W30734  12.139  28.466  12.378
63667W        W30735  28.186   6.792   0.424
63668W        W30736  16.624   5.742  12.385
63669W        W30737   5.401  13.829  14.445
63670W        W30738  29.502  28.129  11.597
63671W        W30739   8.180  28.014   3.287
63672W        W30740  22.148   2.340  14.302
63673W        W30741  39.393  20.226  11.986
63674W        W30742   6.422  11.277   4.167
63675W        W30743  21.697  38.995   4.198
63676W        W30744  12.835  10.160  11.596
63677W        W30745  35.479  37.430  14.837
63678W        W30746  38.050  37.384  12.079
63679W        W30747  24.576  39.555  11.464
63680W        W30748  35.027  17.248  14.347
63681W        W30749  21.624  25.704   1.731
63682W        W30750  41.376  12.664   2.739
63683W        W30751  25.712  10.376   3.828
63684W        W30752  19.773   1.744   0.939
63685W        W30753  44.455  38.463   4.830
63686W        W30754  36.983  35.965   1.234
63687W        W30755  42.985  43.499  11.101
63688W        W30756  28.001  31.106  11.948
63689W        W30757  10.200  28.132  12.025
63690W        W30758  32.568  32.476   2.824
63691W        W30759  37.891   3.324   0.291
63692W        W30760  36.927  14.219  12.533
63693W        W30761  23.732  32.109  10.925
63694W        W30762  25.114   2.463   3.190
63695W        W30763   7.365  43.363  14.476
63696W        W30764  18.188  42.967  12.992
63697W        W30765  32.544  14.111   2.697
63698W        W30766  10.708  24.061   1.930
63699W        W30767  32.063   9.268   3.353
63700W        W30768  34.084  36.058  14.798
63701W        W30769  22.669   7.180  11.042
63702W        W30770  29.940  37.863   1.306
63703W        W30771  17.555  31.460  14.924
63704W        W30772  44.838  42.024  10.604
63705W        W30773  26.564  23.698   4.339
63706W        W30774   2.854   1.827   3.233
63707W        W30775   2.330  11.637  10.403
63708W        W30776   7.311  21.584  10.529
63709W        W30777   0.977  37.874   4.140
63710W        W30778  28.087  27.972  10.581
63711W        W30779  28.501  19.040  13.437
63712W        W30780  17.127  26.522  11.493
63713W        W30781   8.273  14.180   0.298
63714W        W30782   8.841  43.951   1.363
63715W        W30783   7.214  37.459   4.802
63716W        W30784  39.990  35.382   1.413
63717W        W30785   6.790  10.684  10.962
63718W        W30786  29.585   5.306   4.294
63719W        W30787  38.442   8.852   0.784
63720W        W30788  18.750  43.854   1.413
63721W        W30789   3.457  35.455  11.990
63722W        W30790  42.002  20.567   0.743
63723W        W30791  22.997   3.443  10.620
63724W        W30792  29.062  28.975   1.821
63725W        W30793  20.709  29.136  13.524
63726W        W30794  14.325  37.894  10.986
63727W        W30795  28.659  38.556  14.948
63728W        W30796   3.347  36.077   3.241
63729W        W30797  36.049  25.583  11.980
63730W        W30798  43.418  11.260   2.741
63731W        W30799  42.371   8.865   0.328
63732W        W30800  11.756  19.207  12.016
63733W        W30801  26.644  34.109  12.508
63734W        W30802  35.098   5.757  12.002
63735W        W30803  43.835  25.707   4.293
63736W        W30804  35.023  36.526   0.352
63737W        W30805  33.012  42.434   3.757
63738W        W30806   9.843  10.331  11.959
63739W        W30807   4.418  17.621   0.405
63740W        W30808  39.446   6.305  11.532
63741W        W30809  24.129   4.272  12.363
63742W        W30810  23.494   4.351   4.735
63743W        W30811  27.641  10.344   3.637
63744W        W30812  32.435  38.837   4.260
63745W        W30813   0.954   2.937   3.666
63746W        W30814  12.180  11.338  12.967
63747W        W30815  33.112  26.590   0.396
63748W        W30816  11.676  14.604  10.613
63749W        W30817   7.816  38.853   4.345
63750W        W30818  26.019   6.849  13.988
63751W        W30819  21.104   6.744   2.849
63752W        W30820  28.665   5.401  13.030
63753W        W30821  15.281  23.999   2.751
63754W        W30822   8.322  34.007   4.619
63755W        W30823  44.338  41.924   1.834
63756W        W30824  44.355  26.617   5.270
63757W        W30825  17.761  42.974  13.473
63758W        W30826  28.616  25.214  13.506
63759W        W30827   7.908  36.044  14.377
63760W        W30828  40.911  11.715  10.447
63761W        W30829  41.313  38.840   2.721
63762W        W30830  17.079  22.741   1.432
63763W        W30831  30.519  29.987  11.950
63764W        W30832   1.908  44.376   1.357
63765W        W30833  32.907   8.750   0.735
63766W        W30834  38.474  17.196  12.022
63767W        W30835  44.495  41.532  11.413
63768W        W30836  44.400  16.274  11.529
63769W        W30837  32.985  44.445  12.910
63770W        W30838  25.086  22.564   0.942
63771W        W30839  29.486   1.470   1.812
63772W        W30840  42.815  32.400  10.513
63773W        W30841  16.628  40.050  14.379
63774W        W30842   4.419  32.608  11.118
63775W        W30843   2.422  39.931   3.793
63776W        W30844   6.804  37.938  11.987
63777W        W30845  23.113  10.339   4.691
63778W        W30846  14.100  23.611   0.411
63779W        W30847  34.524  20.527  14.873
63780W        W30848   4.722  12.630  10.986
63781W        W30849   5.239  40.435  11.123
63782W        W30850   1.948  26.049  14.426
63783W        W30851  25.627   2.373   1.391
63784W        W30852  24.202  24.617   3.383
63785W        W30853  33.936   2.964   3.802
63786W        W30854  39.032  10.353   5.150
63787W        W30855   5.729  17.193   2.874
63788W        W30856  17.762   3.742   1.429
63789W        W30857   8.850  38.838   2.730
63790W        W30858  34.984  11.779   5.173
63791W        W30859  22.669  13.351   1.844
63792W        W30860  26.470  41.917  12.980
63793W        W30861  34.574  34.552  14.369
63794W        W30862  20.204  41.930  13.328
63795W        W30863  11.856   2.233   1.800
63796W        W30864   6.226  33.382  14.946
63797W        W30865  35.465   5.925  13.394
63798W        W30866  43.405  16.639  10.927
63799W        W30867  15.706  25.980   1.349
63800W        W30868  40.431  22.711   1.859
63801W        W30869   2.402  37.481   0.270
63802W        W30870  13.756   0.292  10.508
63803W        W30871  17.721  31.415  11.936
63804W        W30872  17.713  14.131  11.872
63805W        W30873  28.438  24.677  13.926
63806W        W30874   4.742  33.073  14.765
63807W        W30875  15.771  37.509  14.335
63808W        W30876  42.369  25.474  13.376
63809W        W30877  28.051  39.033  13.929
63810W        W30878   5.716  34.112   4.725
63811W        W30879  27.541  25.108   1.843
63812W        W30880   9.890   5.326   4.672
63813W        W30881  34.374  31.601  10.493
63814W        W30882  35.046  13.324   4.717
63815W        W30883  21.147  11.862  11.417
63816W        W30884   3.382   5.889   3.629
63817W        W30885  15.589  27.464   4.282
63818W        W30886  43.017  41.834  14.396
63819W        W30887  11.747  34.955   3.640
63820W        W30888  37.045  25.489  14.945
63821W        W30889  32.053  21.518  10.546
63822W        W30890  12.289  38.904  11.936
63823W        W30891  12.244  40.799  13.911
63824W        W30892  29.037  27.649   4.609
63825W        W30893   6.189  10.862   1.392
63826W        W30894  42.312  31.043   1.883
63827W        W30895  43.805  33.444   4.698
63828W        W30896  25.578  36.879  13.004
63829W        W30897   0.416  18.234  12.433
63830W        W30898  43.324  22.007   4.180
63831W        W30899  24.042  36.556   4.683
63832W        W30900  34.116  22.248   4.798
63833W        W30901  36.920   3.226   1.709
63834W        W30902  31.566  21.235  11.465
63835W        W30903  35.961  19.115  12.967
63836W        W30904  34.457   3.252  13.015
63837W        W30905  36.879  39.423   1.896
63838W        W30906  27.573   5.851   1.249
63839W        W30907  44.329  33.508  13.978
63840W        W30908  41.934  39.049  10.990
63841W        W30909  23.122  14.817  14.333
63842W        W30910   3.786   8.394   2.344
63843W        W30911  10.865  30.523   1.367
63844W        W30912  37.503   7.841   2.246
63845W        W30913   9.878   5.241  13.037
63846W        W30914  38.404   4.271   4.829
63847W        W30915  43.792  32.959  14.768
63848W        W30916  13.739   0.754   1.785
63849W        W30917   7.194  19.220  13.904
63850W        W30918  22.157  16.236  13.407
63851W        W30919  34.536  28.503  12.020
63852W        W30920  12.839  36.487   3.745
63853W        W30921  43.931  40.313  14.460
63854W        W30922  21.105  37.850  14.302
63855W        W30923  17.203  10.294  10.896
63856W        W30924  42.990  20.054   0.455
63857W        W30925  25.688  20.553  14.316
63858W        W30926   9.890   7.680   1.814
63859W        W30927  20.235   9.705   3.775
63860W        W30928  22.679   7.209   0.292
63861W        W30929  30.012  44.362   1.856
63862W        W30930  26.585  34.555   3.647
63863W        W30931  24.552   6.282  11.038
63864W        W30932  39.017  30.111   3.632
63865W        W30933  13.330  18.145   0.430
63866W        W30934  44.008  37.998  12.862
63867W        W30935  38.998   2.936  12.467
63868W        W30936  30.441  29.516   0.385
63869W        W30937   1.835   2.743  13.459
63870W        W30938   3.322   9.185  13.496
63871W        W30939  25.604  18.105  13.817
63872W        W30940  18.595   2.453   3.358
63873W        W30941  37.085  13.260   4.160
63874W        W30942   2.261   6.871  11.379
63875W        W30943  12.262  35.449   4.740
63876W        W30944  31.477  26.049   1.708
63877W        W30945   9.260  15.197   3.307
63878W        W30946  18.091  20.580   2.752
63879W        W30947  42.344  33.412  12.881
63880W        W30948   6.251  44.950  13.046
63881W        W30949  20.263  18.758   3.183
63882W        W30950  18.207  13.623   3.732
63883W        W30951  14.672  16.688   2.393
63884W        W30952   6.389  34.484  13.506
63885W        W30953   3.766  31.122   0.752
63886W        W30954  30.949  32.888  13.011
63887W        W30955  11.279  15.225   0.887
63888W        W30956   5.838  29.592   4.355
63889W        W30957  42.330  17.630   0.397
63890W        W30958  20.102  26.474  12.070
63891W        W30959  41.334   7.208   2.700
63892W        W30960  19.284  36.487   4.800
63893W        W30961  30.507  15.798   5.589
63894W        W30962  35.074  10.866   3.655
63895W        W30963  16.665  14.166   1.892
63896W        W30964  37.361  32.630   0.380
63897W        W30965  20.080  44.442  11.092
63898W        W30966  34.101  41.996  12.837
63899W        W30967  28.105  33.100  13.835
63900W        W30968  34.459  28.960   4.669
63901W        W30969  17.557   6.211   4.793
63902W        W30970  32.102  30.596  14.901
63903W        W30971  27.013   4.318  10.558
63904W        W30972  40.442  26.495  12.469
63905W        W30973  13.133  44.397  14.446
63906W        W30974  12.631  26.187   3.244
63907W        W30975  17.755  32.422   3.839
63908W        W30976   8.212  42.964   0.874
63909W        W30977  15.089  28.980   4.643
63910W        W30978  36.846   8.169  11.886
63911W        W30979  25.029   3.850  12.977
63912W        W30980  23.172  12.226  11.108
63913W        W30981  38.569   0.492  12.874
63914W        W30982   8.872  35.860  11.005
63915W        W30983  43.421   0.883  14.870
63916W        W30984  12.672   2.373  13.960
63917W        W30985   0.751  35.591  14.439
63918W        W30986  30.417   1.414  13.929
63919W        W30987  35.905  39.417   0.407
63920W        W30988  35.592  29.645  10.413
63921W        W30989  16.740  10.713   3.189
63922W        W30990  29.455  42.777  13.412
63923W        W30991   8.803  18.588   1.852
63924W        W30992  42.403  40.530   2.294
63925W        W30993  31.512  13.126   2.281
63926W        W30994   1.964   2.951  14.019
63927W        W30995   6.809   5.934   2.721
63928W        W30996  14.230  30.506   4.293
63929W        W30997   3.721   0.461  12.038
63930W        W30998  16.166  17.767  12.052
63931W        W30999  30.540   0.868   3.274
63932W        W31000   4.412  14.709  13.362
63933W        W31001   2.471  41.329  14.396
63934W        W31002  35.984   1.964  14.331
63935W        W31003  23.199  42.929   4.220
63936W        W31004  18.250  27.980  10.137
63937W        W31005  21.644  14.154  13.324
63938W        W31006  37.056  12.151   3.697
63939W        W31007  36.001  38.988   1.925
63940W        W31008  34.567  15.204   4.696
63941W        W31009   7.324  21.641  13.409
63942W        W31010  25.510  17.637   0.782
63943W        W31011  13.605  40.541   1.704
63944W        W31012  10.319  28.576  11.006
63945W        W31013   6.784  29.568  12.348
63946W        W31014  44.366   7.378   1.295
63947W        W31015   2.261  26.572  12.042
63948W        W31016  25.514  17.071   1.899
63949W        W31017   8.227   8.836   4.599
63950W        W31018  22.995  37.049   1.827
63951W        W31019  30.106   9.699  12.949
63952W        W31020  28.999  26.645  11.001
63953W        W31021  36.583  35.990   0.431
63954W        W31022   6.787  16.595  10.619
63955W        W31023  27.195  24.664  12.938
63956W        W31024  30.998  18.100  13.501
63957W        W31025   2.900  10.147   2.369
63958W        W31026  41.014  19.281   4.799
63959W        W31027  23.664  19.604  14.328
63960W        W31028  32.130  10.704  13.412
63961W        W31029  41.332  36.083   3.333
63962W        W31030  17.292  17.203   1.401
63963W        W31031  37.898  26.122   1.758
63964W        W31032  18.206  14.127   1.306
63965W        W31033  12.304  11.360   3.629
63966W        W31034  27.666  42.938   0.343
63967W        W31035  34.580   3.338  11.446
63968W        W31036  32.099  17.223   5.124
63969W        W31037  39.365   4.418   3.222
63970W        W31038  23.585   1.912  12.836
63971W        W31039  18.072  10.374   5.266
63972W        W31040  13.151  24.974  12.966
63973W        W31041   0.346   1.428  11.935
63974W        W31042  41.402  11.161   4.178
63975W        W31043  10.217  18.160   0.461
63976W        W31044  27.620  15.579  13.378
63977W        W31045  13.747  43.807   1.835
63978W        W31046  32.098  17.775   3.716
63979W        W31047  25.168   7.880  12.949
63980W        W31048  32.543  39.324  14.764
63981W        W31049   7.366   4.329   0.775
63982W        W31050  17.588  35.000  10.510
63983W        W31051   7.709  15.163  13.316
63984W        W31052  20.715   1.807  14.383
63985W        W31053  43.477  23.117   2.352
63986W        W31054  36.421  35.458   2.373
63987W        W31055  32.131   6.411   4.130
63988W        W31056  27.679  12.778  10.917
63989W        W31057  25.011  39.328   3.367
63990W        W31058  21.627  25.046   1.408
63991W        W31059   4.812  27.122   0.247
63992W        W31060  20.724  10.381   4.648
63993W        W31061  41.373  21.717  12.954
63994W        W31062   9.842   1.240  13.381
63995W        W31063  38.860  30.931  14.281
63996W        W31064  40.804  15.794  14.847
63997W        W31065   0.940  18.673   4.681
63998W        W31066  44.844  21.701  10.437
63999W        W31067   3.438  20.045  13.392
64000W        W31068  38.377  40.989   2.777
64001W        W31069  36.864  35.902   4.138
64002W        W31070  39.841  29.094  11.866
64003W        W31071  14.823   0.802   1.743
64004W        W31072  14.815  39.945  11.597
64005W        W31073  10.638   3.857   2.294
64006W        W31074  13.159  13.331  13.004
64007W        W31075  40.409  24.676   2.272
64008W        W31076  11.137  32.939  13.947
64009W        W31077  17.086  42.930   0.468
64010W        W31078  15.597  36.548   5.132
64011W        W31079   5.700   2.445  12.980
64012W        W31080  19.641   1.781  13.963
64013W        W31081   6.814  20.653  12.564
64014W        W31082  21.546  41.891  13.910
64015W        W31083   4.905  34.062   0.869
64016W        W31084   0.427  42.925  14.407
64017W        W31085   1.283  35.881   0.850
64018W        W31086  10.646  38.871   2.840
64019W        W31087  15.098   6.326  12.439
64020W        W31088  27.605  21.130   0.410
64021W        W31089  24.617  13.753  12.947
64022W        W31090  23.140  29.533   0.775
64023W        W31091  26.666   9.337   3.800
64024W        W31092  15.622   9.821   2.702
64025W        W31093  39.824  37.967   0.271
64026W        W31094  39.888  10.242  14.419
64027W        W31095   0.360  25.104  14.383
64028W        W31096   7.781  38.431  13.319
64029W        W31097  17.158  30.653  11.120
64030W        W31098   0.883  27.970   3.170
64031W        W31099   4.727  13.732   4.309
64032W        W31100   2.358  34.591  12.363
64033W        W31101  13.678  35.052   4.163
64034W        W31102  36.588  42.808   2.208
64035W        W31103   9.816  31.938   3.295
64036W        W31104  19.565  10.730   1.791
64037W        W31105  33.464   1.751  12.830
64038W        W31106  41.422  38.027  14.398
64039W        W31107  10.335   0.284  11.506
64040W        W31108  24.682  44.771   3.768
64041W        W31109  10.330  15.203  10.931
64042W        W31110  27.519  19.535  12.875
64043W        W31111  26.481  16.737   3.725
64044W        W31112  34.394  21.194  13.546
64045W        W31113  42.932  39.981   3.838
64046W        W31114  18.156  37.420   4.179
64047W        W31115  36.998  35.406   3.749
64048W        W31116   0.765  24.142  10.072
64049W        W31117   2.838  12.309  14.000
64050W        W31118   1.790   9.814   2.705
64051W        W31119   3.374  41.843  14.791
64052W        W31120  15.583   4.429  10.945
64053W        W31121  29.124   1.919   2.812
64054W        W31122   3.446  41.339   0.305
64055W        W31123  44.926   2.861  12.393
64056W        W31124  28.637  12.710  13.956
64057W        W31125  20.197  25.079   1.302
64058W        W31126  34.913  29.538  13.886
64059W        W31127  29.085   6.422  14.955
64060W        W31128  44.417   2.828  11.964
64061W        W31129  34.079  30.067   0.884
64062W        W31130  18.294  16.654  12.936
64063W        W31131  26.545  28.014   2.813
64064W        W31132  25.488  26.017  12.063
64065W        W31133  18.206   3.740   0.289
64066W        W31134  40.023   5.284  13.307
64067W        W31135  12.688  23.690  14.766
64068W        W31136  32.453  34.069   4.774
64069W        W31137   5.743  36.368  12.410
64070W        W31138   4.852  18.603  11.068
64071W        W31139  11.197  38.990  12.854
64072W        W31140   7.305  26.563  14.828
64073W        W31141   0.438  35.886   3.693
64074W        W31142  38.833  29.965   4.213
64075W        W31143  37.003  32.621  13.320
64076W        W31144  31.111  18.732   3.292
64077W        W31145  22.728  41.900   1.326
64078W        W31146  29.962   7.405   3.760
64079W        W31147   2.736  12.333   3.163
64080W        W31148  37.404  30.621  12.556
64081W        W31149  44.924  13.773   1.304
64082W        W31150  23.708  41.342  10.602
64083W        W31151  10.844   7.748   1.882
64084W        W31152  14.291  21.620   0.900
64085W        W31153  18.734  38.073  12.047
64086W        W31154  24.540  38.844  10.078
64087W        W31155  29.000  42.946  12.373
64088W        W31156  18.171  40.814   0.411
64089W        W31157  12.294   2.383   0.307
64090W        W31158  21.132  41.030  11.372
64091W        W31159  42.023  32.481  11.973
64092W        W31160   2.720  11.273   0.372
64093W        W31161  29.027  44.882  13.037
64094W        W31162  21.657  22.575  14.955
64095W        W31163   9.837  21.570   4.328
64096W        W31164  30.553   4.928   3.255
64097W        W31165  12.329  38.867   0.304
64098W        W31166   7.350  18.224  11.377
64099W        W31167  18.778  36.564  10.643
64100W        W31168  43.764  14.786   2.767
64101W        W31169  39.979  41.940  12.039
64102W        W31170  30.162  39.987  11.500
64103W        W31171  26.586  37.356   4.275
64104W        W31172  29.143   3.225  13.314
64105W        W31173  12.210  43.976  10.530
64106W        W31174  32.072  22.533   1.289
64107W        W31175   5.836   7.184   1.697
64108W        W31176  30.623  32.900   4.202
64109W        W31177  28.057  24.028   1.706
64110W        W31178  24.529  26.045  14.852
64111W        W31179  21.235  20.697  10.506
64112W        W31180  29.014   3.934  10.937
64113W        W31181  40.831  39.538   1.227
64114W        W31182  39.462  13.694   4.735
64115W        W31183  12.740   3.323   2.856
64116W        W31184  15.154  37.420  10.631
64117W        W31185   2.771  33.958  14.802
64118W        W31186  24.539  32.600   2.736
64119W        W31187  24.106   5.701  10.489
64120W        W31188  26.482  20.769  13.989
64121W        W31189  11.275  35.066  14.763
64122W        W31190  28.633  39.844   0.731
64123W        W31191  43.495  33.087  11.457
64124W        W31192  37.530  34.578  12.954
64125W        W31193  41.378  24.194  10.920
64126W        W31194  19.690  29.664  12.342
64127W        W31195  19.272   4.911   1.717
64128W        W31196  38.013  15.790  14.290
64129W        W31197  37.934  21.222  10.606
64130W        W31198  18.563  37.957   4.154
64131W        W31199  42.292  10.299   4.157
64132W        W31200   4.729   9.301   1.927
64133W        W31201  43.884  15.089  10.964
64134W        W31202  42.424  26.956   2.236
64135W        W31203  34.458   3.396   2.841
64136W        W31204   1.927  31.555  13.044
64137W        W31205  28.466  42.945   1.366
64138W        W31206  26.095  33.616  11.964
64139W        W31207  16.696  33.959   0.353
64140W        W31208  25.968  10.873  14.944
64141W        W31209  35.938  27.171  13.509
64142W        W31210  40.006  33.987   0.354
64143W        W31211  27.578  28.176   1.853
64144W        W31212  44.399  24.708   0.253
64145W        W31213  19.219   6.220   1.848
64146W        W31214  30.610   6.287  12.523
64147W        W31215  20.682   2.778   2.195
64148W        W31216  12.249  21.070   3.284
64149W        W31217  20.540  19.174   2.214
64150W        W31218  28.980   2.234   0.856
64151W        W31219  13.302  14.740  10.501
64152W        W31220  23.500  11.789  12.884
64153W        W31221  10.806  24.027   3.728
64154W        W31222  31.600  29.529   4.808
64155W        W31223  16.315  20.571   3.673
64156W        W31224  13.194  37.875   1.852
64157W        W31225  44.494  26.604   2.210
64158W        W31226   0.453  22.203  13.486
64159W        W31227  37.982  27.977   4.736
64160W        W31228  29.502  26.571   0.855
64161W        W31229  30.059  20.612  10.520
64162W        W31230  22.520  13.808   4.663
64163W        W31231  29.484  44.871   0.909
64164W        W31232  17.666  44.295   3.250
64165W        W31233  30.132   4.707   1.910
64166W        W31234  17.236  30.099   0.885
64167W        W31235   7.699  16.729   1.875
64168W        W31236  33.392   3.731   2.234
64169W        W31237  19.589  42.414   4.198
64170W        W31238  20.110  36.034   0.383
64171W        W31239  43.415  10.203  14.845
64172W        W31240   2.952  26.108  13.851
64173W        W31241  26.671  36.405  14.859
64174W        W31242  23.592  35.070  14.976
64175W        W31243   2.944  14.183   2.402
64176W        W31244  20.578  27.177  14.323
64177W        W31245   9.228   1.406  11.859
64178W        W31246  15.616  25.682  13.307
64179W        W31247   1.930  24.110  14.983
64180W        W31248  41.334   7.235   4.772
64181W        W31249   8.788   3.896  13.413
64182W        W31250   6.197  42.976  11.988
64183W        W31251  33.044  40.934   2.284
64184W        W31252  21.630   0.862   1.292
64185W        W31253  19.096   8.666   3.824
64186W        W31254  32.525  12.207   4.614
64187W        W31255  12.731   2.914   3.687
64188W        W31256  30.528   1.856  12.870
64189W        W31257  15.662   7.236   4.321
64190W        W31258  29.018  20.265   0.471
64191W        W31259  43.302  39.823  14.791
64192W        W31260  10.730  31.113  13.468
64193W        W31261  25.104  24.109  14.390
64194W        W31262  40.413  30.580   5.316
64195W        W31263   5.765  38.853  11.547
64196W        W31264  15.577   7.876  11.515
64197W        W31265  35.876  37.960  11.600
64198W        W31266  31.524  43.361  10.640
64199W        W31267  16.311  28.573   4.761
64200W        W31268   9.300  12.680  13.956
64201W        W31269  42.030  30.509   3.194
64202W        W31270   2.296   3.892  14.971
64203W        W31271   9.881  41.332  13.979
64204W        W31272  36.455  33.874   3.283
64205W        W31273   2.243  30.434  11.420
64206W        W31274  39.403  15.621   4.349
64207W        W31275  19.622   4.752   1.925
64208W        W31276  34.579  24.681   0.465
64209W        W31277   3.305   7.184  14.494
64210W        W31278  36.915  13.710   2.690
64211W        W31279  42.913  11.825   1.361
64212W        W31280  40.525  39.975   3.239
64213W        W31281  17.798  37.998  14.387
64214W        W31282  39.502  28.017   0.284
64215W        W31283  11.657   6.851   3.737
64216W        W31284  42.903  23.155   2.767
64217W        W31285  28.643  33.933  12.556
64218W        W31286  38.827  28.986   2.294
64219W        W31287  40.378  10.339  11.061
64220W        W31288   6.886  27.956   3.743
64221W        W31289  33.610  39.944   4.684
64222W        W31290   1.461   4.258   1.252
64223W        W31291   4.737  32.885  13.326
64224W        W31292  40.915  21.701   3.810
64225W        W31293  11.629  43.422   4.718
64226W        W31294  11.236  10.195  14.928
64227W        W31295   1.796  14.337  14.019
64228W        W31296  39.895  13.680   3.203
64229W        W31297   1.846  37.081  13.047
64230W        W31298  26.499  13.215  10.909
64231W        W31299   9.682  28.084  11.090
64232W        W31300  22.601   4.205  11.038
64233W        W31301  43.775   8.782  12.850
64234W        W31302  20.534   1.440  11.009
64235W        W31303  41.484  44.963   3.848
64236W        W31304  30.122   2.308  14.383
64237W        W31305  12.683   6.805  10.419
64238W        W31306   7.229  36.443   0.368
64239W        W31307  38.545  36.017  13.970
64240W        W31308  37.926  36.432   0.428
64241W        W31309  32.896   0.820   0.783
64242W        W31310   5.256  25.070   4.779
64243W        W31311   9.729   7.301  10.924
64244W        W31312  43.971  42.005  13.472
64245W        W31313   5.705  18.138  14.787
64246W        W31314   5.696   9.651   2.676
64247W        W31315   4.749  36.085   1.873
64248W        W31316  28.621   2.340   2.674
64249W        W31317  43.996  11.245  14.884
64250W        W31318  21.712  19.759   3.870
64251W        W31319  26.659  30.508   3.328
64252W        W31320  15.702  19.151   9.544
64253W        W31321  14.650  19.653   1.289
64254W        W31322  43.883  43.425  10.584
64255W        W31323  32.926  18.112  10.636
64256W        W31324  19.117  36.856  10.974
64257W        W31325  21.599  23.997  12.963
64258W        W31326  25.519  37.877   4.167
64259W        W31327  27.100  23.203   0.287
64260W        W31328  21.209   0.963  10.413
64261W        W31329  29.534   1.297   4.605
64262W        W31330  40.534   0.449   3.153
64263W        W31331  26.193  28.112  14.447
64264W        W31332  14.703  22.084   3.241
64265W        W31333  21.127  25.696   5.302
64266W        W31334  40.884  39.047  12.412
64267W        W31335  10.655  41.038   0.335
64268W        W31336   9.160  15.699   0.433
64269W        W31337  39.379  32.424  11.502
64270W        W31338  23.171   0.822  10.958
64271W        W31339   7.212   7.271  12.441
64272W        W31340  23.590   4.838  12.076
64273W        W31341   7.854  16.711  12.546
64274W        W31342  15.172  41.787  12.039
64275W        W31343  36.425  40.496  10.563
64276W        W31344   3.938  38.909   1.384
64277W        W31345  43.823  31.458   4.341
64278W        W31346   5.405  25.068   3.244
64279W        W31347  41.356  43.839   4.614
64280W        W31348   9.715   7.840  14.337
64281W        W31349  29.142  13.323   0.323
64282W        W31350  31.021  11.767  11.585
64283W        W31351  13.630  31.969   1.925
64284W        W31352  19.147   3.901  13.993
64285W        W31353  41.945  42.001  14.792
64286W        W31354  21.548  15.717  11.411
64287W        W31355  37.087  10.836   3.246
64288W        W31356  42.454  20.761  13.336
64289W        W31357   1.454   2.293  11.492
64290W        W31358   7.704  12.231   1.444
64291W        W31359  17.665   8.312  14.413
64292W        W31360  13.818  43.843   4.679
64293W        W31361   6.850   2.371   4.314
64294W        W31362  32.513  27.620   0.321
64295W        W31363  17.139  29.051   3.368
64296W        W31364  32.081  24.151  14.347
64297W        W31365  40.351  41.018  11.410
64298W        W31366  15.677  12.355  10.406
64299W        W31367  42.953  38.926  11.459
64300W        W31368  31.988  38.516   2.860
64301W        W31369   3.721  20.191   3.319
64302W        W31370  32.479   2.762  12.006
64303W        W31371   7.855  44.420  12.077
64304W        W31372   9.164  33.090  11.469
64305W        W31373  34.052  25.078  10.480
64306W        W31374  26.695  15.313   2.280
64307W        W31375  12.784  41.389  14.480
64308W        W31376  17.608  42.986  11.564
64309W        W31377  28.652  18.188  11.518
64310W        W31378  24.715   3.263   0.830
64311W        W31379  36.034  15.219   0.766
64312W        W31380  24.536   2.874  14.473
64313W        W31381  24.687   0.400  13.452
64314W        W31382  14.744  34.471  13.339
64315W        W31383  27.508  38.921  11.609
64316W        W31384   5.381  35.364  11.088
64317W        W31385  14.723   5.402  10.406
64318W        W31386  41.821  29.074   3.261
64319W        W31387  28.995  27.036  13.378
64320W        W31388  34.401   9.334  11.988
64321W        W31389  44.926  23.238   2.685
64322W        W31390  12.252  25.192   4.300
64323W        W31391   4.235  14.171  11.004
64324W        W31392  20.266  12.231   3.220
64325W        W31393  34.873  13.622  11.933
64326W        W31394  23.137  33.403   1.862
64327W        W31395  35.529   2.752  12.477
64328W        W31396  16.765  43.817  12.000
64329W        W31397   7.679  15.288  14.940
64330W        W31398   9.651  15.707   5.212
64331W        W31399  21.530  26.572  13.799
64332W        W31400  42.800   6.818   0.437
64333W        W31401  19.570  20.188   0.338
64334W        W31402  28.618  31.596  11.528
64335W        W31403  41.345  37.886  11.980
64336W        W31404  41.959  37.411  11.408
64337W        W31405  26.055  36.499   2.703
64338W        W31406  10.274  26.029  11.881
64339W        W31407  16.629  30.915   4.321
64340W        W31408  12.358   1.784  12.847
64341W        W31409   0.310  36.475   1.373
64342W        W31410  17.561  15.138   2.366
64343W        W31411  35.422   1.741  12.344
64344W        W31412  35.868   9.210   5.222
64345W        W31413  33.095  25.081  14.397
64346W        W31414   1.243  11.150  14.812
64347W        W31415  27.114  15.084   2.874
64348W        W31416  14.233  12.824  11.888
64349W        W31417  26.525  21.566   3.865
64350W        W31418  28.106  37.998  10.148
64351W        W31419  22.095   8.271   0.756
64352W        W31420  39.842  25.681  14.999
64353W        W31421  29.064  43.277   1.443
64354W        W31422  32.613  41.387   5.247
64355W        W31423   3.759  24.097  12.878
64356W        W31424  11.703  14.167  12.998
64357W        W31425  24.166   0.254   2.786
64358W        W31426  40.329  27.566   0.868
64359W        W31427  39.346  10.283   2.807
64360W        W31428  34.437  22.082  12.552
64361W        W31429  33.555  19.102   2.800
64362W        W31430  41.968  34.505   0.956
64363W        W31431  21.102  17.748  12.476
64364W        W31432  33.399  17.704  14.416
64365W        W31433  38.016  43.963   2.312
64366W        W31434  34.412  37.442   0.866
64367W        W31435  38.400  20.230  14.794
64368W        W31436  30.979  22.008   1.310
64369W        W31437  32.089  44.788   3.639
64370W        W31438  39.988   7.323  11.933
64371W        W31439  18.163  34.953  11.412
64372W        W31440   1.846  13.664  12.524
64373W        W31441  40.442  20.661   1.805
64374W        W31442  39.486  24.652   3.742
64375W        W31443  15.323   9.292  13.056
64376W        W31444  44.841  13.670   4.234
64377W        W31445  18.684   7.180  14.277
64378W        W31446   5.439  28.549  14.382
64379W        W31447  37.052  26.095   3.262
64380W        W31448   3.878   4.296  11.543
64381W        W31449  23.116  26.458  10.631
64382W        W31450  33.609  12.250   1.927
64383W        W31451  29.061  15.110   0.759
64384W        W31452  20.189  40.502  13.022
64385W        W31453  39.038   2.404  14.451
64386W        W31454   2.400  10.710   3.230
64387W        W31455  27.113   1.382   0.952
64388W        W31456  22.521  15.190   4.704
64389W        W31457   6.692  35.071   3.824
64390W        W31458   4.241  41.359  14.276
64391W        W31459   1.300  32.443  12.898
64392W        W31460  16.181  43.884   4.272
64393W        W31461  22.090  27.997   0.483
64394W        W31462  31.977   3.456  13.373
64395W        W31463  16.262  29.526  13.517
64396W        W31464  23.120  40.535   0.264
64397W        W31465   7.786  13.805  12.536
64398W        W31466  35.417  21.018   5.212
64399W        W31467   7.678  28.005  12.923
64400W        W31468  34.973  19.736  11.873
64401W        W31469  34.889   8.286   2.229
64402W        W31470  32.941  22.132  10.986
64403W        W31471  24.505  38.933  11.424
64404W        W31472  34.603  18.195  10.611
64405W        W31473  39.396  43.436  12.976
64406W        W31474  32.485  39.519   4.607
64407W        W31475  39.823   3.410  13.441
64408W        W31476  33.885  16.680   2.878
64409W        W31477   9.823  21.156  14.472
64410W        W31478  10.669   0.987  12.555
64411W        W31479  40.909  42.517   0.790
64412W        W31480  41.855   3.808   3.234
64413W        W31481  28.500  31.988  14.426
64414W        W31482  40.475  28.985  10.077
64415W        W31483   9.759  42.822  10.918
64416W        W31484   3.790  35.997   4.301
64417W        W31485  10.275  28.039   2.806
64418W        W31486  12.127  17.635  14.786
64419W        W31487  27.044  17.739  14.815
64420W        W31488  34.484  18.210  12.412
64421W        W31489   9.654  16.221   3.759
64422W        W31490  17.188  31.017  13.903
64423W        W31491  22.064  13.599  14.390
64424W        W31492  25.121  19.560  11.572
64425W        W31493  39.904  25.469  11.995
64426W        W31494   5.369  25.489  11.542
64427W        W31495  20.707  36.905   1.781
64428W        W31496   1.267  18.204  12.897
64429W        W31497  36.921  20.660   4.684
64430W        W31498  23.073  40.823  13.009
64431W        W31499  24.224  35.100   0.472
64432W        W31500   2.881  32.004   1.879
64433W        W31501  14.290  39.058   1.896
64434W        W31502  35.497  37.462   3.165
64435W        W31503  20.646  16.317  11.567
64436W        W31504   2.249   1.467  12.537
64437W        W31505  11.145   0.864   2.894
64438W        W31506  11.752  10.273  11.924
64439W        W31507  36.379  16.091  14.348
64440W        W31508   6.763   1.963  13.415
64441W        W31509  43.856  29.521  13.857
64442W        W31510   3.389  37.528  11.007
64443W        W31511  30.566   4.449   2.217
64444W        W31512  12.849  19.283   2.198
64445W        W31513  44.837  13.191   3.318
64446W        W31514  31.993  32.140   3.178
64447W        W31515   7.869  35.463   0.338
64448W        W31516  23.008  40.315   3.747
64449W        W31517  12.348   5.744  11.097
64450W        W31518   6.308  11.633   2.818
64451W        W31519  44.481  10.366   0.757
64452W        W31520   1.801  20.137  14.914
64453W        W31521   0.334  43.315   3.194
64454W        W31522  35.397  27.951   3.346
64455W        W31523   5.779   3.241   1.726
64456W        W31524  44.381  41.976  13.339
64457W        W31525  29.963   4.924  12.913
64458W        W31526  16.268   9.730   2.197
64459W        W31527  25.988  16.629   1.355
64460W        W31528  22.150  43.999  10.501
64461W        W31529   5.695  37.452  10.478
64462W        W31530   7.853  26.506  10.630
64463W        W31531  39.021   2.834  12.926
64464W        W31532  36.409  13.836   1.816
64465W        W31533   3.747  11.740  10.997
64466W        W31534  39.875  27.130   3.211
64467W        W31535   3.310  14.166   4.334
64468W        W31536  25.173   5.237   0.479
64469W        W31537  34.525  12.248   3.670
64470W        W31538  34.090  11.680  13.055
64471W        W31539   4.841  42.460   0.956
64472W        W31540  29.499   1.938   0.952
64473W        W31541   5.198  39.024   1.919
64474W        W31542  22.070  30.552  12.509
64475W        W31543  18.072  36.971   2.845
64476W        W31544  24.028  40.936   4.313
64477W        W31545  31.140  33.080  12.032
64478W        W31546  11.697  21.731   1.292
64479W        W31547  14.635   3.749   1.403
64480W        W31548  12.649  25.218   2.215
64481W        W31549  17.612  14.834  12.066
64482W        W31550  29.933  32.391   0.815
64483W        W31551   2.824  11.233  10.488
64484W        W31552  34.524   4.338  11.473
64485W        W31553   9.676  39.405   2.255
64486W        W31554   9.163  22.583   0.294
64487W        W31555  21.201   4.733   4.292
64488W        W31556  23.181   3.851  14.466
64489W        W31557   6.319  24.618  14.292
64490W        W31558  43.380  38.439  13.947
64491W        W31559  24.501  36.578  11.605
64492W        W31560  34.977  34.453  14.389
64493W        W31561  12.231  25.651   2.891
64494W        W31562  27.470  25.631  14.786
64495W        W31563  30.979  28.942   0.358
64496W        W31564   1.440   0.460   1.730
64497W        W31565  16.117  19.650   4.771
64498W        W31566  13.282  18.246  14.996
64499W        W31567  18.122  24.182   2.390
64500W        W31568  14.241  24.119  14.864
64501W        W31569  24.694  15.312   2.722
64502W        W31570  12.821  13.792   2.255
64503W        W31571  38.527  40.009   0.369
64504W        W31572   0.831   0.871   3.263
64505W        W31573   6.199  12.795   3.219
64506W        W31574  32.098  42.513  14.366
64507W        W31575  24.612   5.853   1.925
64508W        W31576  10.244   5.211   4.205
64509W        W31577  40.475  15.794  13.407
64510W        W31578   0.415  19.669   2.892
64511W        W31579  33.913  11.177  12.041
64512W        W31580  35.035  35.039   0.266
64513W        W31581  30.016   4.334  13.976
64514W        W31582  27.138  41.936   1.262
64515W        W31583  35.560   3.452  12.470
64516W        W31584  32.547  37.565   4.614
64517W        W31585  16.808   4.868   3.679
64518W        W31586  14.276   5.306   4.297
64519W        W31587  40.923  34.078  14.420
64520W        W31588  23.532  37.570  13.515
64521W        W31589  35.458   0.403  11.035
64522W        W31590  32.499  39.450  11.027
64523W        W31591  16.127  25.570   0.931
64524W        W31592  17.734   5.818   4.192
64525W        W31593  30.937   9.360   1.768
64526W        W31594  34.447  11.224  11.576
64527W        W31595  33.952  37.570   3.812
64528W        W31596  12.807  37.877   0.911
64529W        W31597  35.038  41.836   5.275
64530W        W31598   9.211  28.445  11.984
64531W        W31599  19.612  21.101  14.885
64532W        W31600  33.104   9.157  11.878
64533W        W31601   6.845   2.239  10.945
64534W        W31602  24.189  22.679  10.633
64535W        W31603  44.767  25.199   1.226
64536W        W31604   7.912  19.202  12.095
64537W        W31605   8.781  39.823   2.385
64538W        W31606  28.170  28.455  11.373
64539W        W31607  21.626  22.547   0.409
64540W        W31608  14.647  26.087  11.417
64541W        W31609  35.455  22.596   2.873
64542W        W31610   8.757  18.159   0.737
64543W        W31611   8.248  43.782   3.844
64544W        W31612  44.772  14.235  12.858
64545W        W31613   6.769  20.257  11.006
64546W        W31614  15.636  13.201  10.442
64547W        W31615  32.029  12.672  13.458
64548W        W31616  10.273   3.743   3.378
64549W        W31617  35.561   0.433   2.780
64550W        W31618   1.382  41.319   2.314
64551W        W31619   9.377   8.898   5.192
64552W        W31620   7.818  40.992   0.401
64553W        W31621  16.585  14.761   2.228
64554W        W31622  15.821  18.635  11.529
64555W        W31623  31.545  21.599  13.326
64556W        W31624  25.474  13.231   3.182
64557W        W31625  34.502  11.677   1.254
64558W        W31626  35.534   9.680  13.912
64559W        W31627  19.128   3.719  14.812
64560W        W31628  26.988  31.574  13.823
64561W        W31629  38.846  29.012  11.427
64562W        W31630   4.244   4.844  12.530
64563W        W31631  14.794  25.684  11.468
64564W        W31632  29.572  38.497  14.373
64565W        W31633  42.385  29.133   1.328
64566W        W31634   9.320  28.989   2.370
64567W        W31635  10.223   1.821   1.261
64568W        W31636  20.142  13.112  11.533
64569W        W31637   0.884   9.663  14.862
64570W        W31638  37.969  33.900  13.512
64571W        W31639  34.475  10.190  14.360
64572W        W31640   9.652  38.912  14.359
64573W        W31641  22.061  12.323  14.432
64574W        W31642   3.810  43.882   0.866
64575W        W31643  10.201  24.077  14.509
64576W        W31644  38.339   6.322  14.032
64577W        W31645  22.738  21.172   4.195
64578W        W31646  40.948  26.998   3.758
64579W        W31647  21.253  36.549   4.753
64580W        W31648  34.423  42.884  12.360
64581W        W31649   9.234  30.560  12.402
64582W        W31650  17.212  30.955  13.032
64583W        W31651   3.895  18.127  11.961
64584W        W31652  18.614  35.552  12.485
64585W        W31653  39.059  35.878  13.977
64586W        W31654  38.972  29.973  13.366
64587W        W31655   1.364  41.906  11.111
64588W        W31656  11.311  44.850  12.053
64589W        W31657   4.943  43.926   2.276
64590W        W31658  44.421  28.504  12.913
64591W        W31659  21.120  23.027   3.754
64592W        W31660  28.004  17.793  11.481
64593W        W31661  39.347  42.950   0.882
64594W        W31662  31.472  42.966  13.331
64595W        W31663   3.731  44.858   3.291
64596W        W31664  35.555  36.841  11.601
64597W        W31665  44.778  43.437  14.277
64598W        W31666  17.100  21.738  14.410
64599W        W31667   9.225  41.868  13.347
64600W        W31668   3.251  32.543   1.739
64601W        W31669  27.148  38.534   2.183
64602W        W31670  32.529  21.259  12.022
64603W        W31671  35.001   4.876  14.302
64604W        W31672  23.610   9.236   1.235
64605W        W31673  19.158  42.784  13.896
64606W        W31674  20.755   7.795   3.164
64607W        W31675   2.365  31.454   1.716
64608W        W31676  34.095  40.373  11.922
64609W        W31677  43.978  39.808  14.892
64610W        W31678  42.820  36.566   3.733
64611W        W31679  11.777  25.140   4.204
64612W        W31680  23.048   1.313   3.180
64613W        W31681  23.557  44.265  12.910
64614W        W31682  32.117  13.749  10.026
64615W        W31683  12.628  21.145   9.973
64616W        W31684  39.515   1.918   3.766
64617W        W31685  28.983   0.771  12.510
64618W        W31686  20.575  44.504   3.678
64619W        W31687  22.532  11.266  10.571
64620W        W31688  35.896   6.182  14.314
64621W        W31689  17.192  38.496  12.008
64622W        W31690  22.167  12.284  13.372
64623W        W31691  27.558  12.174  12.461
64624W        W31692  19.207  29.590   1.334
64625W        W31693  32.903  15.184   3.316
64626W        W31694  10.765  14.111  12.396
64627W        W31695  10.181  25.560   2.849
64628W        W31696   0.774  38.971  12.031
64629W        W31697  11.217   3.368   1.350
64630W        W31698  29.925  35.908   3.827
64631W        W31699  42.387  16.197  11.457
64632W        W31700  33.528  29.465   4.307
64633W        W31701  15.658  30.027  11.107
64634W        W31702   7.676  13.143  12.054
64635W        W31703  17.648  11.141  14.948
64636W        W31704   0.265  10.727  10.474
64637W        W31705  27.489  21.231  10.057
64638W        W31706  44.456   1.753   2.369
64639W        W31707  21.110  16.604  12.341
64640W        W31708  26.677   5.851  14.392
64641W        W31709  38.459  17.713  11.538
64642W        W31710  17.128  16.643  12.025
64643W        W31711  28.013  37.460  10.894
64644W        W31712  27.183  15.176  11.907
64645W        W31713  32.016   6.691   4.676
64646W        W31714  10.376  35.081  11.588
64647W        W31715   3.854  12.657  12.522
64648W        W31716  21.717   2.828  12.467
64649W        W31717  22.686  41.888  12.907
64650W        W31718   9.730  19.105  12.424
64651W        W31719  25.003  25.523   0.803
64652W        W31720  43.846  33.465   9.460
64653W        W31721  12.744  42.999   1.759
64654W        W31722  25.491  20.707  12.477
64655W        W31723  41.016  27.514   0.407
64656W        W31724  24.686  13.345  12.422
64657W        W31725   4.836   9.253  11.883
64658W        W31726  10.708   6.359  11.510
64659W        W31727  11.195  26.198  12.065
64660W        W31728  44.794  44.804  14.489
64661W        W31729  42.806   0.877   3.794
64662W        W31730  41.439  15.584  11.562
64663W        W31731   1.320  16.669   0.914
64664W        W31732  21.568  38.500   5.134
64665W        W31733  28.643  22.658   0.414
64666W        W31734  30.597  23.160   1.406
64667W        W31735  29.090  17.746  10.518
64668W        W31736  26.119  30.978  12.883
64669W        W31737   4.854  41.910   2.744
64670W        W31738  17.174  12.332  11.563
64671W        W31739  43.839  13.811  14.457
64672W        W31740  11.256  29.511  14.376
64673W        W31741  36.985   6.865  12.001
64674W        W31742   7.192  10.730   2.761
64675W        W31743  19.171   3.356   1.317
64676W        W31744   8.725  28.554  12.448
64677W        W31745  10.172   2.455   0.776
64678W        W31746  11.314   1.409  11.599
64679W        W31747  17.126  33.578  13.380
64680W        W31748   2.872  21.676   0.798
64681W        W31749  40.948  38.569   0.738
64682W        W31750   2.941   3.353  14.982
64683W        W31751   9.716  33.076  12.056
64684W        W31752   6.330  33.606   4.173
64685W        W31753   4.759  17.182  10.491
64686W        W31754  41.013  36.442  11.512
64687W        W31755  20.118  26.666  14.948
64688W        W31756   8.751  34.893  13.031
64689W        W31757  26.626   7.354   0.769
64690W        W31758  13.826  21.253  10.472
64691W        W31759   2.786  39.519   4.742
64692W        W31760  17.280  39.877  13.317
64693W        W31761  15.317  27.460   3.363
64694W        W31762  19.159  27.496  12.931
64695W        W31763  39.543  40.326   1.437
64696W        W31764  42.914  15.663  10.629
64697W        W31765  22.737  17.097  12.990
64698W        W31766  36.979   9.361  11.074
64699W        W31767  31.646  38.487   3.332
64700W        W31768   3.226  34.024  12.999
64701W        W31769  16.634  25.697   2.251
64702W        W31770   5.725   4.371  11.382
64703W        W31771  15.193  22.667   4.308
64704W        W31772  30.651  41.931   0.465
64705W        W31773   3.808  34.612  10.417
64706W        W31774  38.427  27.488   3.737
64707W        W31775  42.420  25.026  14.851
64708W        W31776   1.937  14.103  11.606
64709W        W31777  34.098  32.471  11.591
64710W        W31778   1.346  10.279   5.137
64711W        W31779  23.187  21.142  12.532
64712W        W31780  26.102  13.604  14.480
64713W        W31781  33.987  40.871   2.888
64714W        W31782  11.247  12.773   0.273
64715W        W31783  11.631  30.570  13.996
64716W        W31784  39.972  19.221   0.807
64717W        W31785   1.880   7.317   2.269
64718W        W31786  43.937  31.993  11.415
64719W        W31787   6.918  24.056  10.960
64720W        W31788  11.628  29.155   1.873
64721W        W31789   3.852   5.435  14.392
64722W        W31790  33.557   4.917  10.449
64723W        W31791  20.576  20.104  12.995
64724W        W31792  16.662   0.268   4.776
64725W        W31793  28.181  24.092  14.402
64726W        W31794  31.065  44.836   2.801
64727W        W31795  36.019  15.282  10.446
64728W        W31796  44.484  26.635  12.978
64729W        W31797   6.388  27.521   2.196
64730W        W31798  20.083  29.483  14.945
64731W        W31799  26.540  18.116  13.906
64732W        W31800   6.268   1.336  11.983
64733W        W31801  43.861  27.999  13.966
64734W        W31802   6.727  19.233  13.978
64735W        W31803   4.780  40.443  10.579
64736W        W31804   3.372  36.549  14.364
64737W        W31805   6.705   4.866  14.842
64738W        W31806  27.101  13.744   3.650
64739W        W31807  25.608  10.667   0.252
64740W        W31808  37.880  27.185  14.279
64741W        W31809  18.215   6.757   3.696
64742W        W31810  42.429   0.954   2.262
64743W        W31811  14.819  33.533   3.802
64744W        W31812   7.259   6.413   0.464
64745W        W31813  10.207  42.870  13.543
64746W        W31814  31.466  12.290   1.919
64747W        W31815  41.397  18.096  13.891
64748W        W31816  41.437   2.904  10.509
64749W        W31817  26.115  19.662  11.398
64750W        W31818   8.210  36.885   1.804
64751W        W31819  32.564  13.119  12.551
64752W        W31820  27.601  36.454  13.821
64753W        W31821  32.058  40.407  12.911
64754W        W31822   0.259  27.627  14.857
64755W        W31823   6.195  36.382   2.288
64756W        W31824  38.905  15.646  13.308
64757W        W31825   2.744  22.575   1.451
64758W        W31826  30.602  17.159   4.745
64759W        W31827  30.122  39.985  14.474
64760W        W31828  21.512   4.215  14.303
64761W        W31829  21.158  39.011   3.228
64762W        W31830  13.251  25.213  10.547
64763W        W31831  21.617   4.364  12.374
64764W        W31832  30.914  13.776   3.691
64765W        W31833  36.905  25.188  11.541
64766W        W31834  17.580  42.954   3.721
64767W        W31835   8.661  29.108   4.336
64768W        W31836  40.834  42.795  10.620
64769W        W31837  18.178   3.325   4.778
64770W        W31838   9.853   2.425  13.010
64771W        W31839  26.164  15.203  10.643
64772W        W31840  19.188  18.077  13.390
64773W        W31841   9.831   0.820  11.954
64774W        W31842   9.812   0.831   3.808
64775W        W31843  39.438  26.543  11.594
64776W        W31844   1.887  18.201   0.416
64777W        W31845  32.900  29.487  14.341
64778W        W31846  17.233  17.165   2.340
64779W        W31847   3.275  18.718  12.560
64780W        W31848  38.073  32.459  10.641
64781W        W31849  35.518  40.936  10.475
64782W        W31850  36.444  31.928   3.753
64783W        W31851  16.216  24.664   1.378
64784W        W31852   2.943  36.587  14.951
64785W        W31853  23.534  37.510   0.962
64786W        W31854   7.365  35.501   4.730
64787W        W31855   6.866  29.561  12.916
64788W        W31856  19.083  16.722  11.034
64789W        W31857  11.786  27.512  11.418
64790W        W31858   2.291  37.849   4.755
64791W        W31859  29.443  41.856  11.927
64792W        W31860  16.739  40.362  10.913
64793W        W31861  35.063  27.169  10.931
64794W        W31862   5.770   8.775  14.774
64795W        W31863  42.003  29.111  14.821
64796W        W31864  21.618  24.221  10.547
64797W        W31865   2.327  26.610  12.462
64798W        W31866  31.434  42.877   4.723
64799W        W31867  35.968  42.959  13.526
64800W        W31868   2.299  10.245   3.779
64801W        W31869  24.534  12.195  13.348
64802W        W31870  20.560   5.928   1.419
64803W        W31871  35.904  29.584  12.028
64804W        W31872  29.046  13.724   5.638
64805W        W31873  29.487  33.050  13.337
64806W        W31874   3.883  44.885  14.490
64807W        W31875  25.491  31.135  11.907
64808W        W31876  28.130   6.920   4.714
64809W        W31877   8.824   8.194   2.207
64810W        W31878   7.801  25.129  12.860
64811W        W31879  42.407  44.797  12.011
64812W        W31880  44.920  10.695   2.336
64813W        W31881  33.431  37.884   3.302
64814W        W31882   6.724  43.393   0.941
64815W        W31883  38.003  20.650   4.246
64816W        W31884  27.629  26.002  13.332
64817W        W31885  17.150  30.061  10.021
64818W        W31886  37.483  37.073  10.430
64819W        W31887  36.503   9.323   2.837
64820W        W31888  25.689  13.692   1.397
64821W        W31889  26.576  40.474  12.366
64822W        W31890   7.742   5.711   1.724
64823W        W31891   6.310  12.618   2.398
64824W        W31892   9.690  23.162   4.136
64825W        W31893  20.243  15.632  12.577
64826W        W31894  36.035  13.312  10.425
64827W        W31895  19.236  19.192  12.395
64828W        W31896  15.766   6.362   2.824
64829W        W31897  42.348   7.846  13.021
64830W        W31898  27.640  13.238   4.148
64831W        W31899  14.599  13.348   2.399
64832W        W31900  31.430  34.079   0.771
64833W        W31901   4.207   3.787   4.823
64834W        W31902  18.723   6.799  10.517
64835W        W31903  35.031  23.652   0.308
64836W        W31904  23.639   8.693  12.899
64837W        W31905  20.122  22.113  12.359
64838W        W31906   4.320  41.020  13.464
64839W        W31907  17.107  11.659  14.961
64840W        W31908  12.732  44.000   0.932
64841W        W31909   9.720   9.240   3.842
64842W        W31910  23.141  39.912  12.419
64843W        W31911  32.940   9.306  14.999
64844W        W31912  44.916  18.774   2.259
64845W        W31913  32.039   8.281   0.883
64846W        W31914  36.368  32.435  14.329
64847W        W31915  38.964   6.298   1.695
64848W        W31916  34.867  27.572   1.340
64849W        W31917  23.619  24.676  10.976
64850W        W31918  33.578  35.468  12.485
64851W        W31919  39.538  39.005   0.767
64852W        W31920  23.632  20.699  13.434
64853W        W31921  42.867  41.495   1.802
64854W        W31922   4.730  39.538   3.633
64855W        W31923  10.186  24.645   1.413
64856W        W31924  31.477  26.185   4.144
64857W        W31925  39.359  34.392   3.684
64858W        W31926  26.491  43.336   3.261
64859W        W31927  33.062  14.697  14.781
64860W        W31928  32.392  43.464  13.406
64861W        W31929  14.693  36.579   4.165
64862W        W31930  43.333  19.108   3.362
64863W        W31931   9.740  29.495   1.356
64864W        W31932  32.936   3.867  10.579
64865W        W31933   4.280  31.449   1.304
64866W        W31934   4.385  30.551   0.361
64867W        W31935  41.857  11.143  10.965
64868W        W31936  19.154   1.334  11.961
64869W        W31937  17.250  43.502   3.808
64870W        W31938  23.511  23.236  14.484
64871W        W31939  16.237  26.634   0.352
64872W        W31940  16.317  27.018  14.896
64873W        W31941  34.079  19.756   4.624
64874W        W31942  33.043  39.356   2.365
64875W        W31943  24.078  40.976  14.382
64876W        W31944  36.891   3.832  12.579
64877W        W31945   2.253  18.142   0.332
64878W        W31946  21.234  44.338  12.441
64879W        W31947  44.481  24.189   2.219
64880W        W31948   9.328  10.263   2.322
64881W        W31949   8.200  27.021   3.718
64882W        W31950  23.517  28.163  11.966
64883W        W31951  38.444  23.713  14.980
64884W        W31952  42.384  22.564  11.036
64885W        W31953  18.698  33.474   2.881
64886W        W31954   8.199  10.292   2.813
64887W        W31955  23.554  24.203  11.579
64888W        W31956  31.404  37.904   4.116
64889W        W31957  43.005  31.412  12.843
64890W        W31958  12.149  22.059  10.510
64891W        W31959   1.845  38.030  11.387
64892W        W31960  18.094  17.652  12.965
64893W        W31961  15.631  29.089   1.415
64894W        W31962  39.842   6.372   0.440
64895W        W31963  28.537  22.045  10.921
64896W        W31964  17.678  12.271   0.928
64897W        W31965  10.363  27.632  11.890
64898W        W31966  17.293  40.873  11.971
64899W        W31967   1.278  27.622   4.315
64900W        W31968  26.027  23.225  12.425
64901W        W31969  25.060  39.856  13.809
64902W        W31970  15.146  17.748   1.331
64903W        W31971  38.878   1.745  13.821
64904W        W31972  18.753  35.880  14.861
64905W        W31973  38.867  37.488   9.930
64906W        W31974  23.033   3.890  11.941
64907W        W31975  23.728  22.695  11.569
64908W        W31976  34.466  27.592  12.898
64909W        W31977  16.151  10.650   1.354
64910W        W31978  22.731   6.819  12.836
64911W        W31979  11.257  36.058   3.671
64912W        W31980   9.286  26.031  12.090
64913W        W31981  44.766  28.482  13.328
64914W        W31982  19.756   5.699  10.994
64915W        W31983  34.074  13.789   2.381
64916W        W31984  29.589  27.957   1.444
64917W        W31985  13.692   8.185   5.093
64918W        W31986   6.873  23.697  11.526
64919W        W31987  28.510  35.399  11.606
64920W        W31988  33.069  20.159  14.787
64921W        W31989  42.308   4.935   3.866
64922W        W31990  21.028   3.818   2.896
64923W        W31991   5.257  12.806  14.301
64924W        W31992  42.905  40.828   1.820
64925W        W31993  26.047  22.156   0.302
64926W        W31994  30.129  22.566   4.180
64927W        W31995  23.110  13.227   0.906
64928W        W31996  21.069  28.175   4.688
64929W        W31997   5.787  38.823   0.465
64930W        W31998   2.253  31.486  13.923
64931W        W31999  35.521  40.538   2.833
64932W        W32000  26.055  21.613   2.286
64933W        W32001  29.167  32.421   5.583
64934W        W32002   6.783   4.443  11.031
64935W        W32003   9.809  11.867   1.386
64936W        W32004  27.616  16.666  14.932
64937W        W32005   4.914  27.168   2.261
64938W        W32006  27.652   6.730   2.881
64939W        W32007  27.962  41.522  14.027
64940W        W32008  19.584  34.382   2.893
64941W        W32009  29.144  15.240  12.533
64942W        W32010  41.296  15.326   4.167
64943W        W32011  37.862  14.235  12.476
64944W        W32012  10.281  24.016   1.917
64945W        W32013  20.602   6.424  10.474
64946W        W32014   6.688   3.240   0.958
64947W        W32015   0.319  31.966  11.872
64948W        W32016  23.514  35.935   4.170
64949W        W32017  25.987  38.897  12.383
64950W        W32018   2.903   0.833  14.463
64951W        W32019  39.965  44.861   4.661
64952W        W32020  18.141  31.114  13.515
64953W        W32021  13.841   0.478  14.857
64954W        W32022  14.106   8.331   0.960
64955W        W32023  14.240  24.619   1.746
64956W        W32024   6.918  23.034   2.287
64957W        W32025  15.084  14.118   3.244
64958W        W32026  42.478  14.100   1.788
64959W        W32027   7.194   1.280   2.180
64960W        W32028  22.703  27.643  12.358
64961W        W32029  13.817  11.361  14.343
64962W        W32030  44.378  34.026   2.779
64963W        W32031   7.879  44.864  12.917
64964W        W32032  25.550  22.124   1.276
64965W        W32033  13.231   8.167  12.483
64966W        W32034  23.734  30.000   3.733
64967W        W32035  25.586   3.738   2.668
64968W        W32036  31.120  40.470   4.333
64969W        W32037  31.580  19.754  10.961
64970W        W32038   0.881  43.284   4.316
64971W        W32039   3.403   6.857   1.714
64972W        W32040  11.723  29.540   5.215
64973W        W32041   5.228  38.510  12.887
64974W        W32042  23.134  10.808   4.713
64975W        W32043  18.648  21.253  11.388
64976W        W32044   5.881   8.325   4.767
64977W        W32045  43.479   4.827   4.753
64978W        W32046   1.379  42.890  13.348
64979W        W32047  42.014  34.551  14.445
64980W        W32048  36.877  23.554   4.261
64981W        W32049  39.539  17.704   2.845
64982W        W32050  19.118  41.339  11.101
64983W        W32051  17.594  38.378  10.462
64984W        W32052  43.918  24.139   0.862
64985W        W32053   9.369  10.147  10.960
64986W        W32054  40.334  38.394  10.409
64987W        W32055  41.445  20.683  12.020
64988W        W32056  11.231   3.217   0.444
64989W        W32057   9.697  13.600   3.751
64990W        W32058  31.040   1.353  13.919
64991W        W32059  39.413  40.946  14.950
64992W        W32060   7.388  40.938  14.985
64993W        W32061  29.560  23.992   2.844
64994W        W32062   2.261  38.492   1.808
64995W        W32063  40.945   6.391   3.838
64996W        W32064  10.774  35.891   1.929
64997W        W32065   2.730  35.051  12.573
64998W        W32066  42.785  11.845   4.344
64999W        W32067  21.034  38.950  11.404
65000W        W32068  35.463  23.726  13.372
65001W        W32069   4.730  26.148   2.833
65002W        W32070   3.442  33.419   4.605
65003W        W32071  29.000  15.206  10.979
65004W        W32072  26.962  42.822  13.369
65005W        W32073  14.134   6.837   0.853
65006W        W32074   1.898  11.157  11.493
65007W        W32075  12.179  23.705   2.365
65008W        W32076  29.966  36.034   0.396
65009W        W32077   3.709  11.682  11.560
65010W        W32078  15.167  38.988  11.916
65011W        W32079  33.473  15.636  12.914
65012W        W32080  24.068  41.473  12.031
65013W        W32081  41.039  12.674   2.234
65014W        W32082  25.574   0.979  14.895
65015W        W32083  22.146   1.743   1.261
65016W        W32084   2.746  13.319   1.349
65017W        W32085  41.516  36.907  13.811
65018W        W32086  41.888  17.718   4.705
65019W        W32087  12.338  22.648   3.384
65020W        W32088  27.482   4.306   2.214
65021W        W32089  10.167  18.716   3.823
65022W        W32090  42.441  43.346   2.680
65023W        W32091  44.308  35.877  12.879
65024W        W32092  22.165  41.009  11.432
65025W        W32093  44.301  33.918  11.568
65026W        W32094   5.851  28.523   0.941
65027W        W32095  17.580  39.912   3.191
65028W        W32096  23.714  36.373   0.912
65029W        W32097  39.420  35.108  10.432
65030W        W32098  23.090  28.024  14.431
65031W        W32099  34.113  40.324   2.893
65032W        W32100   5.198  13.695   4.131
65033W        W32101  19.704  19.578   0.908
65034W        W32102   3.382  29.983  14.788
65035W        W32103  35.053  23.672   4.283
65036W        W32104   0.257   5.932  10.503
65037W        W32105  19.631  13.288  11.076
65038W        W32106  32.531   3.760  11.526
65039W        W32107  19.044  39.375   5.300
65040W        W32108   0.898  43.969  12.363
65041W        W32109  28.653  30.460  13.310
65042W        W32110  30.636  24.551   4.729
65043W        W32111   2.750   9.152  11.868
65044W        W32112  41.884  11.825  10.522
65045W        W32113   0.327   3.950  14.871
65046W        W32114  11.207  31.122  12.924
65047W        W32115  13.239  44.334   3.361
65048W        W32116  25.176   2.470  11.486
65049W        W32117  34.589  33.059  12.042
65050W        W32118   6.683  43.819   4.683
65051W        W32119  42.413  37.977  11.884
65052W        W32120  12.137  37.995  11.039
65053W        W32121  39.434  40.346   0.919
65054W        W32122  20.677  12.812   0.294
65055W        W32123  21.654  14.284   1.221
65056W        W32124  29.960  37.844   0.282
65057W        W32125  42.797  20.583  14.926
65058W        W32126  13.789  41.368   0.833
65059W        W32127  14.338  26.127   3.311
65060W        W32128  28.535  21.538   2.286
65061W        W32129  40.481  20.219   4.701
65062W        W32130  31.442   0.823  13.033
65063W        W32131   7.743  23.554   1.295
65064W        W32132  30.912  27.086  12.397
65065W        W32133  40.976   0.326  11.372
65066W        W32134  13.806   7.249  10.988
65067W        W32135  23.081   4.818   0.902
65068W        W32136  33.599   7.314  12.538
65069W        W32137  40.867  41.412  14.012
65070W        W32138  34.071  31.914   1.911
65071W        W32139  12.705  20.031   4.632
65072W        W32140   2.845  30.586   3.646
65073W        W32141  11.142  14.312  13.971
65074W        W32142  11.147  18.157   0.325
65075W        W32143  37.934  24.613  12.962
65076W        W32144  42.428  21.070  10.568
65077W        W32145  10.836  19.229  14.906
65078W        W32146  23.073  37.458   3.255
65079W        W32147  43.915  35.107  14.023
65080W        W32148  17.237   6.854  10.538
65081W        W32149  13.829  30.027  13.540
65082W        W32150  39.920  16.762   4.750
65083W        W32151  18.594  43.915   4.635
65084W        W32152  29.931  28.182   3.293
65085W        W32153  23.176   5.851  12.060
65086W        W32154  22.093  23.508  11.501
65087W        W32155  13.704   1.860  13.491
65088W        W32156   5.362  26.499   0.929
65089W        W32157  21.746   6.826   1.352
65090W        W32158  34.549  10.759   4.197
65091W        W32159  12.726  40.511   2.889
65092W        W32160  20.558  29.976   3.632
65093W        W32161   8.778  24.535  10.567
65094W        W32162   4.942  14.114  14.985
65095W        W32163  10.320  18.176  13.045
65096W        W32164  15.656  13.781   4.804
65097W        W32165  44.003  30.537   3.643
65098W        W32166  27.049  34.995   2.264
65099W        W32167  34.997  38.547   4.288
65100W        W32168   0.865  34.075   2.805
65101W        W32169   2.394  14.207  14.345
65102W        W32170  41.521  43.476   3.367
65103W        W32171  14.135   3.755  13.457
65104W        W32172  12.655  18.255  13.313
65105W        W32173  18.750  36.590   3.196
65106W        W32174  16.231  17.595  13.393
65107W        W32175   8.870  43.445  10.426
65108W        W32176  43.284  10.190   0.456
65109W        W32177  43.947  14.607  11.058
65110W        W32178  34.444   7.910   2.721
65111W        W32179  22.741  25.696   2.247
65112W        W32180  41.955  17.634  10.492
65113W        W32181   8.789  27.965   9.968
65114W        W32182  10.670   1.771  12.940
65115W        W32183  31.038  26.012  13.482
65116W        W32184  18.657  42.502  12.873
65117W        W32185  18.263   1.479   3.208
65118W        W32186  26.573  24.537  11.521
65119W        W32187  32.417   6.872   1.420
65120W        W32188  34.978  38.854   0.893
65121W        W32189  35.592  35.417   3.655
65122W        W32190  44.397   1.463  13.464
65123W        W32191  26.650   2.408  14.431
65124W        W32192  14.636  22.090  13.494
65125W        W32193  37.960  23.047  11.063
65126W        W32194   5.377   1.803   3.207
65127W        W32195  38.837   3.356  10.947
65128W        W32196  44.363   8.319  10.554
65129W        W32197  17.692  27.637   9.551
65130W        W32198  13.203  32.072  14.378
65131W        W32199  15.720  42.827   3.777
65132W        W32200  44.344  30.163   4.335
65133W        W32201  18.177   4.824  10.439
65134W        W32202  16.686   3.375   3.786
65135W        W32203  16.695  11.175   1.815
65136W        W32204   4.792   6.263   3.822
65137W        W32205   5.814  32.930   2.224
65138W        W32206   6.279   6.417  11.539
65139W        W32207  14.718  37.372   1.838
65140W        W32208  43.991  12.632  10.435
65141W        W32209   3.423  39.475   1.918
65142W        W32210  32.992  30.996   4.742
65143W        W32211  21.615  24.490   1.834
65144W        W32212  11.701  44.844  14.326
65145W        W32213   4.717   1.324  10.987
65146W        W32214  33.529  27.662  13.905
65147W        W32215  30.640  24.139   0.420
65148W        W32216  35.106  39.943   0.287
65149W        W32217  31.972  32.030  10.944
65150W        W32218  41.467  36.035  10.909
65151W        W32219  32.105  36.470  12.411
65152W        W32220  19.671  14.120   1.319
65153W        W32221  24.142  23.045  13.503
65154W        W32222   2.435  34.537   2.693
65155W        W32223  14.232  36.059   2.314
65156W        W32224   0.925  17.658   0.318
65157W        W32225  28.546  20.060   4.319
65158W        W32226   3.225  41.907  13.917
65159W        W32227  29.604  44.503  14.969
65160W        W32228  27.079   2.899   3.648
65161W        W32229  22.015  35.884  12.069
65162W        W32230  44.841  19.730  12.986
65163W        W32231  19.635  20.059  11.386
65164W        W32232  42.783  16.141  13.940
65165W        W32233   1.770  25.962   2.220
65166W        W32234  12.158  12.633   2.816
65167W        W32235  24.562  25.209  11.461
65168W        W32236  44.941   9.322  12.050
65169W        W32237  30.485  38.016  13.799
65170W        W32238  31.899  13.268   4.779
65171W        W32239  25.628  40.331   1.289
65172W        W32240  37.967  35.502   0.413
65173W        W32241   6.216  30.017  13.330
65174W        W32242  13.215  20.040   4.826
65175W        W32243  23.039  39.835   5.716
65176W        W32244  26.579  30.495   3.871
65177W        W32245  32.978  38.528  11.056
65178W        W32246  14.630   9.348  14.470
65179W        W32247  33.019  44.424  11.023
65180W        W32248  43.927  12.195   3.822
65181W        W32249  35.102  37.950   0.474
65182W        W32250  36.355  35.027   3.222
65183W        W32251  33.966  16.262   3.796
65184W        W32252  25.217  37.429  12.069
65185W        W32253  26.026  19.269   2.228
65186W        W32254  35.963  26.054  11.110
65187W        W32255  38.015  15.631  14.880
65188W        W32256  36.855   5.385  10.515
65189W        W32257   3.421   9.775   1.308
65190W        W32258   0.281  34.065   0.404
65191W        W32259  30.601  33.961  11.595
65192W        W32260  11.213  26.593  13.036
65193W        W32261  38.852  29.481  10.476
65194W        W32262   2.895  28.084   2.778
65195W        W32263   5.213  28.455  10.501
65196W        W32264  14.787   6.824  13.916
65197W        W32265   6.912   0.950   2.813
65198W        W32266   4.206  27.577   1.742
65199W        W32267   6.803  14.189  11.385
65200W        W32268  23.099  35.924   2.810
65201W        W32269   9.247  33.899   3.297
65202W        W32270   1.808   8.256   4.282
65203W        W32271  39.435  10.349   3.653
65204W        W32272  36.925   0.797   1.295
65205W        W32273  40.837  18.663   4.670
65206W        W32274   6.338  22.181   1.361
65207W        W32275  11.327  11.821  14.438
65208W        W32276   5.318  30.959  14.956
65209W        W32277  31.076   5.925   2.387
65210W        W32278   0.301  14.165   4.657
65211W        W32279   0.464  26.470   4.604
65212W        W32280  27.446  19.588   3.204
65213W        W32281   4.883  10.309   3.862
65214W        W32282  16.575  32.074   1.393
65215W        W32283  24.200  39.062   5.170
65216W        W32284  34.380   1.268  11.993
65217W        W32285  33.488  28.644  11.869
65218W        W32286   7.900  13.646   3.658
65219W        W32287  34.072   7.683   3.251
65220W        W32288  20.659  14.625   4.188
65221W        W32289  31.621  30.944   0.805
65222W        W32290  17.663  43.005   1.901
65223W        W32291  35.874   1.806  13.030
65224W        W32292   4.327  26.560   2.263
65225W        W32293  22.181  20.274  11.409
65226W        W32294   0.838   7.878  11.021
65227W        W32295  21.608  10.632  13.475
65228W        W32296  21.048  12.247  12.553
65229W        W32297   3.709  19.247   0.931
65230W        W32298  42.986  24.979  10.920
65231W        W32299  38.963  33.396  11.585
65232W        W32300  19.723  13.648   2.723
65233W        W32301   9.293  40.512   0.782
65234W        W32302  18.062  40.929  12.444
65235W        W32303  23.086  18.654   1.365
65236W        W32304  31.934  39.894   3.695
65237W        W32305  17.162  38.943   0.429
65238W        W32306  10.154  12.814  12.403
65239W        W32307  23.175  22.111   2.350
65240W        W32308  10.875  36.068   5.238
65241W        W32309   2.846  28.097   4.835
65242W        W32310  29.125  40.476  13.458
65243W        W32311  41.425  14.673  11.557
65244W        W32312  28.660  37.571  10.573
65245W        W32313  42.408  37.402   0.361
65246W        W32314   2.792  13.268  13.352
65247W        W32315  32.398  24.521  12.911
65248W        W32316  38.386  29.532  14.952
65249W        W32317  28.980  23.226  10.545
65250W        W32318   4.283   6.800  10.630
65251W        W32319  31.540   8.802   3.782
65252W        W32320  31.591  43.404   0.810
65253W        W32321   7.706  43.395  10.583
65254W        W32322   8.369   0.341  13.405
65255W        W32323  36.383   3.240   2.362
65256W        W32324  14.275   4.791  13.946
65257W        W32325  41.040  12.623   3.331
65258W        W32326  33.956   6.832   2.393
65259W        W32327  10.154  14.222   2.675
65260W        W32328   6.210   7.877   0.920
65261W        W32329  22.649   0.271   0.827
65262W        W32330   0.914   0.378  13.386
65263W        W32331  16.739  35.587  12.996
65264W        W32332   4.723  36.063  11.375
65265W        W32333  11.858  12.308  13.818
65266W        W32334  19.254  34.973   1.370
65267W        W32335  35.056  37.001   3.853
65268W        W32336   9.204   5.380  11.488
65269W        W32337  36.899  31.079  12.044
65270W        W32338  43.359  27.145  11.482
65271W        W32339  30.522  36.871   2.805
65272W        W32340  31.024   5.246   1.353
65273W        W32341  43.783  20.736  13.525
65274W        W32342  36.870   9.345   1.317
65275W        W32343   7.804  18.552   3.870
65276W        W32344  22.142   1.463  12.485
65277W        W32345  38.883  27.590  13.966
65278W        W32346  15.299  12.239  11.582
65279W        W32347   3.801  18.718   0.790
65280W        W32348  37.976  36.873  14.275
65281W        W32349  44.980  21.706   0.808
65282W        W32350   0.870  42.918  13.443
65283W        W32351  33.969  38.472  11.586
65284W        W32352  19.682   7.883  14.288
65285W        W32353   5.309  18.254   1.295
65286W        W32354  35.381   6.365  14.797
65287W        W32355  16.190  12.219  12.880
65288W        W32356  18.545   9.787  13.488
65289W        W32357  15.131  16.637  11.543
65290W        W32358  31.902   4.241  12.567
65291W        W32359  42.484  43.420  11.072
65292W        W32360  12.633  20.262  12.464
65293W        W32361  24.145  15.160  13.463
65294W        W32362  17.587  22.578   4.775
65295W        W32363  38.863  34.913  11.404
65296W        W32364  30.483  12.182   4.133
65297W        W32365  19.171  43.943   2.352
65298W        W32366   0.780  36.552   2.377
65299W        W32367  39.473  22.557   1.901
65300W        W32368   8.874  33.882   2.689
65301W        W32369   5.861  20.580  13.336
65302W        W32370  13.610  18.765  13.873
65303W        W32371   7.691  38.916   4.698
65304W        W32372  11.768  37.536   5.158
65305W        W32373  38.535  44.948  11.372
65306W        W32374  12.782   1.761   3.632
65307W        W32375  21.567  16.294   0.963
65308W        W32376   8.696  32.077  11.969
65309W        W32377  21.737  28.006  13.544
65310W        W32378  36.898  24.486  13.812
65311W        W32379  11.735   8.211   3.341
65312W        W32380  22.741  41.868   4.185
65313W        W32381  28.523  33.598  13.920
65314W        W32382   5.277  33.047   4.682
65315W        W32383  30.074   4.791  11.996
65316W        W32384  11.227  13.277   1.899
65317W        W32385   6.894  17.114   4.345
65318W        W32386  18.743   5.715   3.842
65319W        W32387  24.704   8.321  10.515
65320W        W32388  26.557  43.791  13.543
65321W        W32389  22.144  11.369  11.899
65322W        W32390   3.240  18.200   1.766
65323W        W32391   8.841  33.104  11.111
65324W        W32392  16.116   0.926  14.919
65325W        W32393  37.045  32.010   1.238
65326W        W32394  32.602  36.510   0.476
65327W        W32395  10.307  35.924   9.940
65328W        W32396  29.120  28.932  14.310
65329W        W32397  14.635  24.010   3.340
65330W        W32398  24.093  19.069  13.535
65331W        W32399  32.412   0.823   3.636
65332W        W32400  34.423  37.033   1.890
65333W        W32401  20.048   0.405  12.847
65334W        W32402   6.414   4.334  10.462
65335W        W32403  11.866   9.256  10.965
65336W        W32404  36.084  16.136  13.889
65337W        W32405  17.276  12.704  10.901
65338W        W32406   7.404  39.812  13.790
65339W        W32407  12.351  22.692  14.432
65340W        W32408  44.951  33.120  11.551
65341W        W32409   9.674  31.072  13.823
65342W        W32410  32.626  16.226  13.050
65343W        W32411   5.304  32.393   4.718
65344W        W32412  26.061   6.183  13.851
65345W        W32413  33.981  33.386   4.301
65346W        W32414  21.103   6.402  11.968
65347W        W32415  26.514   0.425  11.046
65348W        W32416  39.320   7.232   4.284
65349W        W32417  41.298  29.465   4.310
65350W        W32418  16.809   9.257  13.382
65351W        W32419  23.101  30.648   1.236
65352W        W32420  42.320  41.889   4.270
65353W        W32421  36.481   5.309   4.757
65354W        W32422   1.889  33.398  12.833
65355W        W32423  38.428  15.255  12.385
65356W        W32424  40.922  17.773   1.229
65357W        W32425  20.712  33.131   0.354
65358W        W32426  37.876  29.653  14.401
65359W        W32427   1.894  12.810  12.900
65360W        W32428   2.256   2.304  10.448
65361W        W32429   2.905  28.578  14.434
65362W        W32430  13.187  30.159   0.270
65363W        W32431  23.709  42.511  11.934
65364W        W32432  28.930   5.779  11.015
65365W        W32433  41.965  25.483  11.872
65366W        W32434  16.579  41.324   1.724
65367W        W32435   1.445  23.629  12.556
65368W        W32436  40.458  28.155   2.683
65369W        W32437  39.492  11.811   3.336
65370W        W32438  29.150  34.536  13.492
65371W        W32439  41.309  43.811   2.369
65372W        W32440  18.229  17.759  11.574
65373W        W32441  38.371  43.834  10.442
65374W        W32442   9.683  42.284   2.742
65375W        W32443   8.828  17.098   4.164
65376W        W32444   5.864   9.696   2.275
65377W        W32445  20.233  18.731   2.245
65378W        W32446  40.386  12.168  14.794
65379W        W32447  41.442   6.392   0.960
65380W        W32448  17.116   2.370   2.855
65381W        W32449  14.690   1.907   4.652
65382W        W32450   4.425   2.899   0.483
65383W        W32451   0.923   1.903   1.871
65384W        W32452  13.705  34.018  12.054
65385W        W32453   2.845  21.525   1.303
65386W        W32454   9.175   5.381   1.719
65387W        W32455  22.209  33.387  14.965
65388W        W32456   1.899  38.902  11.918
65389W        W32457  21.719  32.491  14.994
65390W        W32458  34.606   6.899  14.836
65391W        W32459  24.527  20.630  14.881
65392W        W32460  20.542  14.157   2.890
65393W        W32461  22.525  34.608   3.788
65394W        W32462  14.820  24.589   0.825
65395W        W32463   2.281   4.746   5.199
65396W        W32464  37.060  21.672  10.963
65397W        W32465   0.782  14.238  13.009
65398W        W32466  41.384   7.411   0.929
65399W        W32467  10.333  35.965   3.842
65400W        W32468   8.168  18.098   3.370
65401W        W32469  21.688  44.849  11.468
65402W        W32470   8.320  29.638   2.900
65403W        W32471  30.065   9.228   4.115
65404W        W32472  29.609  21.122   0.324
65405W        W32473   3.890  28.561  13.327
65406W        W32474  43.864   2.838  13.873
65407W        W32475  16.133   2.888   4.249
65408W        W32476   4.365  24.070   1.296
65409W        W32477  31.645  44.280   3.210
65410W        W32478   5.761   4.898  10.643
65411W        W32479  43.861  13.696  10.503
65412W        W32480  25.173  29.109  11.516
65413W        W32481  39.540  26.096   4.353
65414W        W32482   2.881  37.989  10.602
65415W        W32483  18.096  28.960  11.100
65416W        W32484  22.023  23.511   3.829
65417W        W32485  39.027   8.397   4.275
65418W        W32486  17.621  28.121  13.910
65419W        W32487  21.094  10.700   1.376
65420W        W32488  33.545  40.996  13.811
65421W        W32489  27.483  32.022  14.881
65422W        W32490   6.244  35.976  11.948
65423W        W32491  23.986  40.471   0.892
65424W        W32492   0.254  20.557   4.138
65425W        W32493  37.519  41.324   2.743
65426W        W32494   3.931  10.196  12.378
65427W        W32495  37.863  41.878   1.392
65428W        W32496  38.841  35.902  12.518
65429W        W32497   5.230  17.798  13.911
65430W        W32498  36.500  14.752   0.779
65431W        W32499  28.566   2.294  13.341
65432W        W32500  41.868  12.766   3.668
65433W        W32501  19.273  30.066   1.891
65434W        W32502  38.351  44.901  14.914
65435W        W32503  36.547   5.376  12.971
65436W        W32504   9.774   2.446   4.614
65437W        W32505  12.255  29.006   4.272
65438W        W32506  34.957  14.218  14.858
65439W        W32507   9.741  32.892  12.511
65440W        W32508   4.799  39.023   4.245
65441W        W32509  38.545  13.114   4.151
65442W        W32510  43.855  15.086  12.492
65443W        W32511  11.201  35.474   4.747
65444W        W32512  35.878  10.270  14.418
65445W        W32513  15.753  31.416  10.893
65446W        W32514  41.517   4.930   0.762
65447W        W32515  28.017  44.337  10.008
65448W        W32516  30.548   3.753   3.825
65449W        W32517  30.564  44.484   3.704
65450W        W32518   9.806  18.083  13.358
65451W        W32519  20.688  25.485   3.146
65452W        W32520  30.098   2.334  10.432
65453W        W32521  30.553   1.395  11.496
65454W        W32522  17.069  32.626   3.866
65455W        W32523  26.017   5.406   0.920
65456W        W32524  33.402   7.800   0.851
65457W        W32525  38.058  23.097  14.284
65458W        W32526   4.374  21.110  13.455
65459W        W32527   7.735  41.311  12.839
65460W        W32528  24.177   6.209   0.429
65461W        W32529  39.957  34.991  12.538
65462W        W32530   5.341  25.054   4.164
65463W        W32531  15.789  29.027   3.634
65464W        W32532  42.837  29.990  13.965
65465W        W32533   7.848  35.013  14.781
65466W        W32534  17.660  28.980   0.853
65467W        W32535  15.328  35.863  13.424
65468W        W32536   2.275  11.267   1.892
65469W        W32537  30.092   7.316   4.125
65470W        W32538   9.870   8.401   0.432
65471W        W32539  12.202  31.970   2.848
65472W        W32540  28.575  36.090  12.857
65473W        W32541   1.446   1.476  12.993
65474W        W32542  13.265  14.105  11.941
65475W        W32543  23.716  22.013  12.856
65476W        W32544  14.801   6.217  14.798
65477W        W32545   2.878   1.294   3.665
65478W        W32546  17.583  26.188   0.948
65479W        W32547  42.523  13.331   1.814
65480W        W32548   2.240  34.506  13.813
65481W        W32549  29.147   7.697  12.028
65482W        W32550  21.240  17.787  11.116
65483W        W32551   7.276  43.368  10.611
65484W        W32552  24.563  23.149   1.739
65485W        W32553  32.438   9.365  12.083
65486W        W32554   4.922   4.313   2.880
65487W        W32555  24.032  10.634   1.346
65488W        W32556  25.073   7.736   2.820
65489W        W32557  25.169  34.471  12.947
65490W        W32558  35.518  10.804  12.525
65491W        W32559  28.989   2.903  12.954
65492W        W32560  22.013   8.862   0.474
65493W        W32561  16.755  27.503  11.982
65494W        W32562   2.324   9.318  11.922
65495W        W32563  12.184  42.801   0.869
65496W        W32564   7.745   9.193   4.643
65497W        W32565   6.802  19.197   1.785
65498W        W32566  21.714  24.114   0.256
65499W        W32567  32.103   6.864  12.077
65500W        W32568  17.789  30.504  14.370
65501W        W32569  16.647   7.710   1.790
65502W        W32570  38.389  41.925  14.334
65503W        W32571  28.078   4.227   2.206
65504W        W32572   0.758  39.353  14.504
65505W        W32573  12.624  13.168  14.357
65506W        W32574   1.276  18.562  12.863
65507W        W32575   8.206  42.786   3.205
65508W        W32576  30.994  15.697   3.630
65509W        W32577  22.534  22.731   2.262
65510W        W32578  36.047  18.126  12.084
65511W        W32579  28.155  25.679   0.417
65512W        W32580  17.239  31.051   1.910
65513W        W32581   2.228  26.010   1.723
65514W        W32582  29.636  13.633   1.767
65515W        W32583   4.363  17.592   2.413
65516W        W32584  44.332  19.215  13.460
65517W        W32585  14.701  37.386  11.946
65518W        W32586  25.695   3.788  14.787
65519W        W32587  33.092  24.724   2.275
65520W        W32588   8.683   8.742  13.331
65521W        W32589  42.824  24.587  11.499
65522W        W32590  26.104  12.799  13.425
65523W        W32591  41.396   6.205   1.795
65524W        W32592  38.427   9.807  10.476
65525W        W32593   7.792  44.815   1.769
65526W        W32594  22.628  14.826   0.865
65527W        W32595  21.518  31.075  14.427
65528W        W32596   1.263  11.294   3.846
65529W        W32597  35.433  27.047  11.034
65530W        W32598  11.865  36.094   3.257
65531W        W32599  31.016   5.873  13.476
65532W        W32600  25.502  39.856  14.903
65533W        W32601  20.048  10.233  11.095
65534W        W32602  40.954  12.263  10.483
65535W        W32603  37.570  43.891  12.579
65536W        W32604  13.812  25.998   1.249
65537W        W32605  42.511  34.539  12.362
65538W        W32606  33.942  43.275  10.443
65539W        W32607  23.673  23.143   1.929
65540W        W32608   3.231  36.008   3.862
65541W        W32609  40.313  17.147  14.884
65542W        W32610  11.262  12.321   0.922
65543W        W32611  18.250  22.724   4.240
65544W        W32612   9.737  38.049   1.707
65545W        W32613  42.794  30.113  14.373
65546W        W32614  25.015  22.062  13.953
65547W        W32615  36.545   5.254   1.757
65548W        W32616   8.824  26.509  11.017
65549W        W32617  13.662  12.317  12.458
65550W        W32618  12.155  36.552  12.983
65551W        W32619  32.888   6.891   3.662
65552W        W32620  22.528   7.710   4.613
65553W        W32621  15.251  21.571   5.246
65554W        W32622  10.653  38.451   2.834
65555W        W32623  37.886  23.005   3.342
65556W        W32624  19.234  43.403   0.955
65557W        W32625   3.216  32.053  13.317
65558W        W32626  37.525   6.277   1.396
65559W        W32627  20.224  39.320   1.338
65560W        W32628  42.423  22.033  11.488
65561W        W32629  29.077  27.143  11.960
65562W        W32630  26.529  39.011  10.596
65563W        W32631  39.023  40.867  14.886
65564W        W32632  41.957  33.499  10.991
65565W        W32633  15.767  44.926  14.340
65566W        W32634  34.109  27.079  13.055
65567W        W32635  42.489  41.319   4.299
65568W        W32636   2.951  12.760   2.832
65569W        W32637   5.745   6.698  13.021
65570W        W32638  21.583  35.373  10.459
65571W        W32639   0.762   2.372   1.772
65572W        W32640   5.386  19.126   5.580
65573W        W32641  37.440  19.625  12.560
65574W        W32642   0.312  44.833  13.422
65575W        W32643  25.617  42.311   3.233
65576W        W32644  16.092  15.302  14.879
65577W        W32645   6.409  35.358  13.953
65578W        W32646  17.265   4.411   2.180
65579W        W32647  14.676   7.360  14.307
65580W        W32648  41.323  10.689  12.875
65581W        W32649  40.042  23.521   0.742
65582W        W32650  22.593  24.049  12.091
65583W        W32651   7.408  14.109   4.668
65584W        W32652  33.547  43.349   0.796
65585W        W32653  17.234  22.083  11.537
65586W        W32654  26.460  42.812   5.102
65587W        W32655  30.573  28.578  13.996
65588W        W32656   0.865  30.620  12.565
65589W        W32657   5.897  13.318   0.273
65590W        W32658  43.503  11.263   2.310
65591W        W32659  44.885  43.404   1.903
65592W        W32660  18.672  23.137   4.747
65593W        W32661  23.993  18.210  11.562
65594W        W32662  44.900   9.706  14.472
65595W        W32663  32.973  16.209   2.296
65596W        W32664  33.926  24.529   3.662
65597W        W32665  44.884  16.677   0.905
65598W        W32666  40.515  22.096  12.342
65599W        W32667  40.811  38.987  10.906
65600W        W32668  21.677  34.535  11.088
65601W        W32669  15.763  11.775   2.814
65602W        W32670  27.451  18.606  14.360
65603W        W32671   0.325  44.354  12.022
65604W        W32672  27.631  18.100  12.423
65605W        W32673  15.100  19.224  12.538
65606W        W32674  36.948   2.292   4.819
65607W        W32675  10.170  31.151  14.313
65608W        W32676   4.415  10.298   2.860
65609W        W32677  11.240   5.700   4.666
65610W        W32678  11.237  22.572  13.830
65611W        W32679  36.003  25.136  11.470
65612W        W32680  20.549  41.316   0.454
65613W        W32681  35.946  11.180  11.946
65614W        W32682  29.146   8.843  14.378
65615W        W32683  15.094  13.123   3.718
65616W        W32684  21.590  23.011   2.360
65617W        W32685  44.879  16.196  14.009
65618W        W32686  30.040   3.861  14.771
65619W        W32687   3.954  44.010   0.379
65620W        W32688  27.637  40.927   0.762
65621W        W32689  27.541  39.874  10.945
65622W        W32690  29.056  19.706   4.144
65623W        W32691  41.036  33.450   0.849
65624W        W32692  21.675  18.554   1.335
65625W        W32693   1.341  30.524  10.444
65626W        W32694  24.545  38.895   3.327
65627W        W32695  10.650  13.750   3.758
65628W        W32696  36.510  27.495  14.464
65629W        W32697  39.417   2.729   2.410
65630W        W32698  42.967   0.914  14.470
65631W        W32699  16.155  24.100   2.835
65632W        W32700  11.129  16.153  13.931
65633W        W32701  26.560  37.408  11.478
65634W        W32702  10.260  20.557  14.291
65635W        W32703  28.499  26.483  10.541
65636W        W32704  37.563  43.483  13.856
65637W        W32705  34.377   9.841  11.446
65638W        W32706  24.991  20.568   0.245
65639W        W32707  24.169  26.674  12.933
65640W        W32708   4.849  44.836  14.985
65641W        W32709  30.028  42.022  14.951
65642W        W32710  17.794  12.844   3.376
65643W        W32711  10.649  34.878  14.505
65644W        W32712  33.475  44.492   0.418
65645W        W32713   1.905  33.418   3.765
65646W        W32714  42.868  22.514   2.410
65647W        W32715  23.211  11.289  12.458
65648W        W32716  12.791  40.023  14.377
65649W        W32717  22.708  24.600   1.714
65650W        W32718   7.834  31.510  12.905
65651W        W32719  43.336   6.717   2.199
65652W        W32720  19.223   2.239   2.309
65653W        W32721  29.089   3.946  14.338
65654W        W32722  43.333   2.232   3.842
65655W        W32723  29.063   8.887  13.940
65656W        W32724   5.879  10.675   1.852
65657W        W32725  44.341  33.975  14.448
65658W        W32726  42.816  17.744  13.017
65659W        W32727  28.557   1.937  10.947
65660W        W32728  24.144  28.468  10.911
65661W        W32729  32.604  33.032  10.503
65662W        W32730  40.959  42.801   4.618
65663W        W32731  15.618   3.450   5.246
65664W        W32732  30.143  22.515   1.709
65665W        W32733  26.478   0.403  13.977
65666W        W32734  37.020  13.164  13.512
65667W        W32735  41.008  15.172   1.708
65668W        W32736  44.817   4.806  13.422
65669W        W32737  15.271  25.013  12.081
65670W        W32738  11.259  31.633   3.172
65671W        W32739  38.875   0.855   2.760
65672W        W32740  12.841  17.677   2.298
65673W        W32741  19.087  42.470   4.223
65674W        W32742  23.537  14.731  12.542
65675W        W32743  40.991  29.464  14.403
65676W        W32744  44.821  30.498   4.673
65677W        W32745  10.370  22.582  14.492
65678W        W32746  29.527  10.745  11.901
65679W        W32747  35.068  42.517   4.607
65680W        W32748  42.939  30.658   4.286
65681W        W32749   9.711   7.894  14.820
65682W        W32750   3.460   2.944  12.999
65683W        W32751   4.777   2.233  12.916
65684W        W32752  10.813  22.629   1.862
65685W        W32753   4.427  33.616   1.861
65686W        W32754   6.197  34.442   2.184
65687W        W32755  10.752  19.096  11.084
65688W        W32756   3.431  11.306  14.291
65689W        W32757  10.327  31.946  12.094
65690W        W32758   9.263  34.529   2.419
65691W        W32759  11.134  16.253   0.370
65692W        W32760  11.837  29.656   2.327
65693W        W32761  14.591  19.278  10.563
65694W        W32762  40.460  27.491  11.032
65695W        W32763   9.727  43.324   3.170
65696W        W32764  19.281  30.567  14.012
65697W        W32765  11.348  38.416  11.478
65698W        W32766  30.071   3.392  11.079
65699W        W32767  18.209  25.527   3.320
65700W        W32768  23.703  21.691  14.993
65701W        W32769  16.148  26.079   4.702
65702W        W32770  33.079  31.998  14.508
65703W        W32771  36.062   8.166  10.471
65704W        W32772   9.864  30.915   4.316
65705W        W32773  20.061  15.795   1.905
65706W        W32774   0.828   8.692  12.834
65707W        W32775   6.763  32.474  14.829
65708W        W32776  42.784   1.875   2.178
65709W        W32777  19.537  43.990   3.802
65710W        W32778  14.236  43.465   2.761
65711W        W32779  11.333  12.294  11.921
65712W        W32780   9.862  23.544   3.188
65713W        W32781   1.853  25.196   4.248
65714W        W32782  15.207  12.158  12.869
65715W        W32783  25.976   4.343   4.254
65716W        W32784  31.950  23.035  11.878
65717W        W32785   2.303  18.077   2.771
65718W        W32786  39.860  39.443  11.424
65719W        W32787  35.065  36.388  13.485
65720W        W32788  40.802  15.636   2.899
65721W        W32789   1.403  43.319  13.496
65722W        W32790  17.116  27.086  13.941
65723W        W32791  12.650  19.559  12.976
65724W        W32792  29.429  16.685  13.045
65725W        W32793  15.260  43.996  10.491
65726W        W32794   5.692  28.165   0.786
65727W        W32795  44.363  31.036  10.515
65728W        W32796  21.670  33.935   1.786
65729W        W32797  10.257  14.635   2.284
65730W        W32798  22.069  10.869  14.826
65731W        W32799  40.422  37.466  13.814
65732W        W32800  35.498  36.551   4.741
65733W        W32801  19.101  21.610   4.731
65734W        W32802  24.033  31.623  13.417
65735W        W32803  38.496  12.834  12.848
65736W        W32804  43.956  33.949  13.539
65737W        W32805  29.059  27.950   0.377
65738W        W32806  26.026  25.114   3.286
65739W        W32807  14.817  37.385  14.457
65740W        W32808  15.245   5.218  12.846
65741W        W32809  36.876  42.913  12.094
65742W        W32810  20.228  25.979   2.706
65743W        W32811  39.846  10.306  12.873
65744W        W32812  22.658  18.171  13.907
65745W        W32813  33.454  38.440   2.754
65746W        W32814  20.145  44.894   2.237
65747W        W32815  12.159  31.401   0.439
65748W        W32816   1.778  38.926   2.673
65749W        W32817   4.423  14.767  11.433
65750W        W32818  14.773  43.384   4.713
65751W        W32819  14.329  32.448   3.314
65752W        W32820  33.587  11.192   3.153
65753W        W32821  21.514  25.056  13.991
65754W        W32822  16.167  44.318   3.337
65755W        W32823   2.881  28.095  12.061
65756W        W32824  23.498   4.844   4.735
65757W        W32825  16.207  27.660   0.442
65758W        W32826  16.317  40.948   3.216
65759W        W32827  22.186   8.319   0.466
65760W        W32828  23.538   5.867   0.831
65761W        W32829   8.690  19.238   5.567
65762W        W32830  16.797  11.646   0.445
65763W        W32831  24.987  41.319  12.091
65764W        W32832  21.681  35.907  10.494
65765W        W32833   9.803  25.011  13.323
65766W        W32834  31.468  36.044   4.604
65767W        W32835   2.838   7.700   1.705
65768W        W32836  12.621  14.232   3.285
65769W        W32837   7.852  16.730   3.310
65770W        W32838  19.189   9.283   0.359
65771W        W32839  35.582  13.619   2.310
65772W        W32840  39.544  37.416  10.453
65773W        W32841  29.660  31.543  14.827
65774W        W32842  15.297  40.384   0.421
65775W        W32843  14.722  39.481   2.188
65776W        W32844  23.221  44.891  11.596
65777W        W32845   7.178   5.416   4.625
65778W        W32846   8.311  21.060   1.933
65779W        W32847  40.474  43.514   1.271
65780W        W32848   2.795  23.688   0.264
65781W        W32849   4.410   0.955  12.427
65782W        W32850  37.021   6.410   2.741
65783W        W32851  40.359  19.269   2.405
65784W        W32852  14.817  12.754  12.501
65785W        W32853  36.465  25.644  14.817
65786W        W32854  30.481  35.946  11.438
65787W        W32855  23.182   4.315   2.772
65788W        W32856  22.705  13.129  10.969
65789W        W32857  25.552  25.042  13.001
65790W        W32858  29.138  40.386  11.880
65791W        W32859   2.956   0.446   0.403
65792W        W32860   2.883  17.202  11.450
65793W        W32861  10.873  11.254   2.771
65794W        W32862  22.129  35.870   0.867
65795W        W32863   2.237  31.515   3.247
65796W        W32864  39.333  27.457  13.369
65797W        W32865  18.580  27.531   2.843
65798W        W32866  13.611  30.582   3.280
65799W        W32867  24.173  21.237  14.291
65800W        W32868  10.193  42.285   3.680
65801W        W32869  19.553  26.077   0.760
65802W        W32870  15.175  28.093   3.363
65803W        W32871   4.265  44.846  13.815
65804W        W32872  12.754  31.027  14.356
65805W        W32873   0.416  30.070   1.808
65806W        W32874  34.918  16.188  13.383
65807W        W32875  24.205   8.710  13.870
65808W        W32876  36.991  12.153   1.321
65809W        W32877  26.156  43.279  13.418
65810W        W32878  11.322  40.924  12.961
65811W        W32879  37.937  11.815   4.129
65812W        W32880  32.415  29.928  13.886
65813W        W32881  20.231  42.368  13.908
65814W        W32882  41.499   9.890  14.906
65815W        W32883  11.243  38.851   2.726
65816W        W32884  25.554  28.096   3.244
65817W        W32885  34.553  11.795   2.220
65818W        W32886  44.427  34.502   4.248
65819W        W32887  33.384  44.008  13.988
65820W        W32888  29.630   5.770  14.958
65821W        W32889   7.331  15.123   1.730
65822W        W32890  41.342  11.200   0.338
65823W        W32891   8.245   4.739  11.495
65824W        W32892   5.374   4.395   3.357
65825W        W32893  18.221  13.611  12.912
65826W        W32894  25.018  29.611  11.494
65827W        W32895  15.311  10.331   1.712
65828W        W32896  13.686   5.740  13.825
65829W        W32897  10.789  29.102   2.307
65830W        W32898  36.915   8.888   3.384
65831W        W32899  23.542   1.845  11.011
65832W        W32900  37.079   0.270  10.897
65833W        W32901  40.902  44.754   1.345
65834W        W32902  42.869  26.055   2.327
65835W        W32903   4.281   5.755   3.184
65836W        W32904  37.463  15.233  13.361
65837W        W32905  16.587  21.138   1.915
65838W        W32906   9.861  13.134  14.804
65839W        W32907  24.139   1.243   0.263
65840W        W32908   7.280  41.524   4.330
65841W        W32909  13.328  16.085   4.339
65842W        W32910  36.977  37.931   3.161
65843W        W32911  37.924  28.439   2.243
65844W        W32912   0.744  16.600  10.424
65845W        W32913  16.725   1.890   2.756
65846W        W32914  40.544  23.645   3.801
65847W        W32915  13.178  42.971  12.449
65848W        W32916  18.228   1.747   3.846
65849W        W32917  22.682   5.202   0.293
65850W        W32918  28.602  15.736   2.758
65851W        W32919  29.485  23.240  11.886
65852W        W32920  44.299  30.935  12.914
65853W        W32921  38.852  20.078   1.722
65854W        W32922   9.713  21.691   0.352
65855W        W32923  29.943  24.537  11.930
65856W        W32924  29.444   6.265  11.872
65857W        W32925   8.186  36.380   1.710
65858W        W32926  15.761  40.382  14.452
65859W        W32927   5.361  42.795   4.626
65860W        W32928  17.799  23.692   2.322
65861W        W32929   2.922   9.354  14.489
65862W        W32930  18.563  20.055  13.030
65863W        W32931  28.488   4.744   1.882
65864W        W32932   0.361  20.097   2.675
65865W        W32933  24.691  37.520   4.339
65866W        W32934  38.471  38.547  11.888
65867W        W32935  38.889   0.269   4.342
65868W        W32936  26.080  38.518  12.875
65869W        W32937   2.230  23.139   0.293
65870W        W32938  15.736   6.393   0.318
65871W        W32939  29.130   3.243  12.340
65872W        W32940  43.888  37.487  13.492
65873W        W32941  41.502  14.689  12.928
65874W        W32942  40.494  20.163   1.267
65875W        W32943  10.823  36.919   3.824
65876W        W32944  37.555  41.824  11.442
65877W        W32945  17.133  19.243  10.499
65878W        W32946  11.369  18.709  11.466
65879W        W32947  21.154  23.984   1.781
65880W        W32948   9.819  24.651   2.232
65881W        W32949   4.381   7.302   3.179
65882W        W32950  26.589  27.942  13.426
65883W        W32951  44.907  33.403   1.449
65884W        W32952  38.359   2.804  10.971
65885W        W32953  20.056  36.001  10.157
65886W        W32954  43.941  31.922  11.955
65887W        W32955   8.190  14.215   2.735
65888W        W32956  44.877   7.337  11.416
65889W        W32957  35.933  19.712   0.296
65890W        W32958  30.498  31.453   4.351
65891W        W32959  13.689  40.319   0.469
65892W        W32960  33.075  21.575  12.906
65893W        W32961  37.567   2.772  11.539
65894W        W32962  14.708  19.607  14.494
65895W        W32963  26.128  11.174  12.461
65896W        W32964  42.392  12.626   4.644
65897W        W32965  28.570  12.806   2.394
65898W        W32966  29.606  41.985  13.834
65899W        W32967   5.928   0.825  13.016
65900W        W32968   1.741   9.841   1.719
65901W        W32969  23.115  44.490  12.554
65902W        W32970  34.381   7.403   0.760
65903W        W32971  11.357  23.516   1.309
65904W        W32972  31.984  26.021   2.671
65905W        W32973  39.031  30.056   1.792
65906W        W32974  44.480  20.523   3.685
65907W        W32975  38.874  17.147  13.952
65908W        W32976  39.948  32.076  12.893
65909W        W32977  32.142  24.543  14.417
65910W        W32978   1.762  22.656   0.890
65911W        W32979  18.213  30.584   2.419
65912W        W32980  30.555   2.337   2.206
65913W        W32981  38.979  41.819   1.393
65914W        W32982  32.933  34.892   1.219
65915W        W32983   0.962  26.074   3.782
65916W        W32984   7.411  43.335   2.757
65917W        W32985  26.195  20.732  11.942
65918W        W32986  41.497  10.242   1.297
65919W        W32987   3.229  10.340  14.998
65920W        W32988  27.672  22.697   4.287
65921W        W32989   7.270  29.565   0.427
65922W        W32990  28.061   1.852  12.491
65923W        W32991   3.226   1.266   1.916
65924W        W32992  39.398  23.672  12.845
65925W        W32993  29.934  29.051   1.803
65926W        W32994  10.824  16.672  14.318
65927W        W32995  24.572  42.429   4.634
65928W        W32996  44.338  36.476   3.359
65929W        W32997  13.126  21.639  10.640
65930W        W32998  17.789  29.044   4.239
65931W        W32999  13.274  13.311   4.653
65932W        W33000  36.945  40.797   4.179
65933W        W33001   1.855  35.874   1.831
65934W        W33002  22.012  22.693   1.860
65935W        W33003  44.290   9.763  11.063
65936W        W33004  20.054  28.088  10.419
65937W        W33005  36.089  43.349  10.463
65938W        W33006   2.861   9.339  13.523
65939W        W33007   1.836  10.290   3.645
65940W        W33008  19.149   4.265  14.816
65941W        W33009  14.728  25.126   5.103
65942W        W33010  34.414  33.963  14.872
65943W        W33011  33.544  27.957  11.974
65944W        W33012  19.626  37.933   4.288
65945W        W33013  29.501  28.522  13.546
65946W        W33014  19.258  36.963   4.631
65947W        W33015  43.360  33.984  12.383
65948W        W33016   3.908  10.754   2.875
65949W        W33017  37.383  26.036  11.073
65950W        W33018  16.571   2.244  13.374
65951W        W33019  13.132  13.675   2.861
65952W        W33020  41.359  18.645  14.803
65953W        W33021   1.252  43.972  13.478
65954W        W33022  37.065  11.640  13.927
65955W        W33023  33.984  16.236  12.492
65956W        W33024  31.645  29.155  13.054
65957W        W33025  11.644  19.249  13.826
65958W        W33026  15.767  27.090   1.218
65959W        W33027  31.936  15.243   2.684
65960W        W33028  12.290   1.829   2.770
65961W        W33029   0.842  28.182  12.560
65962W        W33030  22.079  23.682   0.353
65963W        W33031   3.849  39.526   4.304
65964W        W33032  13.807   1.364   4.713
65965W        W33033  18.682  28.011  13.546
65966W        W33034  29.436  13.235  11.034
65967W        W33035  34.867   6.868   3.197
65968W        W33036  30.501  13.256   4.272
65969W        W33037  43.961  40.993   2.879
65970W        W33038  14.099   1.239  12.827
65971W        W33039  40.450  23.568   1.245
65972W        W33040  35.953  32.441   0.356
65973W        W33041  13.299  14.829  11.394
65974W        W33042  39.015  38.396  11.861
65975W        W33043   2.959   9.235   0.900
65976W        W33044  44.294  26.644  11.106
65977W        W33045  30.589   1.831   4.292
65978W        W33046  32.587  13.760   2.273
65979W        W33047  20.670  33.916  14.889
65980W        W33048  43.896  20.106  10.435
65981W        W33049  36.866  16.636   3.773
65982W        W33050   4.365   5.791  11.033
65983W        W33051  15.661   0.341  13.384
65984W        W33052  39.453   0.870   1.879
65985W        W33053  30.095  37.512  11.435
65986W        W33054  19.212   4.448   0.426
65987W        W33055  20.064  20.049  11.513
65988W        W33056  44.872  15.202   3.742
65989W        W33057   5.890  34.574  14.387
65990W        W33058  41.819  36.363  10.575
65991W        W33059  31.035  18.724  13.456
65992W        W33060  20.132  44.439  13.500
65993W        W33061  28.973   2.836   0.321
65994W        W33062  24.006  14.148   4.738
65995W        W33063  28.475  14.734  14.880
65996W        W33064   9.661  26.967  12.934
65997W        W33065  18.581  25.540  13.881
65998W        W33066  29.148  17.120  12.360
65999W        W33067  17.209  11.724  11.434
66000W        W33068  13.839   5.790  11.022
66001W        W33069  33.044  11.767   3.702
66002W        W33070  36.505  12.238  12.493
66003W        W33071   8.683  13.605  10.450
66004W        W33072  22.109  30.506   3.252
66005W        W33073  22.529   0.325  12.928
66006W        W33074  17.704  23.228   3.844
66007W        W33075  34.926  13.165  10.635
66008W        W33076  14.759  10.246  10.622
66009W        W33077  38.955  33.122   2.368
66010W        W33078  44.343  25.163   1.451
66011W        W33079  16.683  14.758  13.465
66012W        W33080  10.144  17.110   2.297
66013W        W33081  17.087  39.048   1.755
66014W        W33082  27.981  35.975  12.377
66015W        W33083  18.257   1.341   0.887
66016W        W33084   6.270  11.214  13.813
66017W        W33085  19.645  22.620   3.641
66018W        W33086  41.471  27.969  14.883
66019W        W33087  39.332   7.686   4.610
66020W        W33088  27.575   5.437   3.341
66021W        W33089  30.460  42.812   0.868
66022W        W33090  41.804  16.568   1.867
66023W        W33091  14.736   5.879  10.995
66024W        W33092  37.906  20.701   3.262
66025W        W33093   3.950  15.679  14.834
66026W        W33094  17.757   9.872  13.940
66027W        W33095  18.564   2.364  12.565
66028W        W33096   2.423  28.984  10.530
66029W        W33097  28.162  26.608   3.176
66030W        W33098  24.180   4.735  13.861
66031W        W33099  13.842  25.524   3.755
66032W        W33100  11.360  36.929   1.313
66033W        W33101  19.172  13.668  11.504
66034W        W33102  29.517  42.822  12.849
66035W        W33103   8.710  28.676  13.416
66036W        W33104  37.391  21.663   4.218
66037W        W33105   0.334  24.205   4.731
66038W        W33106  39.362  15.257  12.930
66039W        W33107  17.129   0.300   4.309
66040W        W33108  24.601  31.521   0.482
66041W        W33109  43.886  23.009   2.192
66042W        W33110  30.616  35.577   3.216
66043W        W33111  27.017   1.460   3.191
66044W        W33112   5.214  41.346   2.692
66045W        W33113   2.257  39.827  10.533
66046W        W33114  14.250   0.407   3.369
66047W        W33115  36.900  44.878   1.777
66048W        W33116  13.262  42.921  10.957
66049W        W33117  37.431  40.900  11.998
66050W        W33118  39.408   4.322  12.524
66051W        W33119  11.138  22.086   0.932
66052W        W33120  32.614  43.345  12.841
66053W        W33121  12.214  38.926  14.855
66054W        W33122  36.919  10.180  13.032
66055W        W33123  17.123  22.578   5.149
66056W        W33124  27.541  11.216   2.671
66057W        W33125  15.722   1.258  12.995
66058W        W33126   1.446  26.664  12.579
66059W        W33127  13.290  17.565   1.395
66060W        W33128  16.254   6.764  12.998
66061W        W33129  29.144  22.564   0.917
66062W        W33130  31.608  20.650  13.364
66063W        W33131  12.223  28.176   3.702
66064W        W33132  37.938  44.883   4.766
66065W        W33133  40.489  12.291  10.416
66066W        W33134   6.352   3.772   1.854
66067W        W33135  21.175   3.434  11.983
66068W        W33136  35.097  43.985  11.893
66069W        W33137   1.743  11.190   2.729
66070W        W33138  32.044  29.113   4.142
66071W        W33139  11.157   5.394  11.485
66072W        W33140  31.961  39.374   2.240
66073W        W33141  23.546  41.023  13.797
66074W        W33142  29.479  39.826   3.696
66075W        W33143  40.320  26.510  14.786
66076W        W33144  28.439   7.861  11.376
66077W        W33145   6.407  36.516   4.606
66078W        W33146  27.588   7.870   0.368
66079W        W33147  28.983  18.198   0.422
66080W        W33148  44.808  44.774  10.497
66081W        W33149  26.078  16.705   2.698
66082W        W33150  31.404  32.888   3.249
66083W        W33151  28.652  18.190   1.225
66084W        W33152  26.679  22.216  13.839
66085W        W33153   3.835  12.359   3.684
66086W        W33154   9.368  23.159  14.004
66087W        W33155   6.695  34.031  12.058
66088W        W33156   5.201  33.506  14.475
66089W        W33157  10.761  40.359   2.321
66090W        W33158  21.706  37.426  11.411
66091W        W33159   2.316  43.968   3.342
66092W        W33160   3.257  39.480  13.413
66093W        W33161  30.158  13.220   2.342
66094W        W33162  41.938  29.494   3.302
66095W        W33163  33.001  11.678  14.424
66096W        W33164  29.147  35.528   4.124
66097W        W33165  18.645  30.969  13.331
66098W        W33166  15.583  27.688  14.294
66099W        W33167  18.056  22.739   2.796
66100W        W33168  37.506   5.843   1.385
66101W        W33169   4.921   0.745   4.667
66102W        W33170  33.421  13.199   5.172
66103W        W33171  38.845   9.358   3.199
66104W        W33172   8.764   8.882   3.630
66105W        W33173  24.022   1.878  13.903
66106W        W33174  35.462  23.129   3.770
66107W        W33175  22.655   7.909  10.065
66108W        W33176  28.632  11.655  14.772
66109W        W33177  18.590  22.188  12.393
66110W        W33178  32.983  31.929   4.657
66111W        W33179  30.025  32.017   3.792
66112W        W33180  18.654  39.065  14.496
66113W        W33181  10.778  18.616  11.434
66114W        W33182  29.517  42.302  12.969
66115W        W33183  38.926  32.961   1.385
66116W        W33184  15.185  15.639  13.396
66117W        W33185   1.462  16.132  12.025
66118W        W33186  29.999   2.342  11.980
66119W        W33187   4.804  15.631  13.798
66120W        W33188  23.049  39.041   2.272
66121W        W33189  41.493  39.344  14.338
66122W        W33190  26.459   4.389  11.598
66123W        W33191  37.939  36.888   2.692
66124W        W33192  36.429  36.509   2.848
66125W        W33193   5.836  29.941   2.803
66126W        W33194   2.745  36.060  14.758
66127W        W33195  12.266  36.044  12.890
66128W        W33196  42.454   1.896  14.888
66129W        W33197  41.522  43.942   1.829
66130W        W33198  24.208  35.579  13.840
66131W        W33199  24.725  39.017   1.867
66132W        W33200  42.330  41.844  14.403
66133W        W33201  24.121  39.549  10.487
66134W        W33202  31.461  15.219  13.403
66135W        W33203  26.095  27.538   3.352
66136W        W33204  35.892   6.891   2.884
66137W        W33205   0.815  35.411   4.151
66138W        W33206  14.764   3.301   0.475
66139W        W33207   0.372  13.286  12.368
66140W        W33208  44.780   9.873   4.634
66141W        W33209  11.666  17.239  11.015
66142W        W33210  18.621  13.317  10.593
66143W        W33211  10.758  16.573   4.260
66144W        W33212  42.810  12.300  11.920
66145W        W33213  37.887   7.894   2.736
66146W        W33214  14.239   0.456  14.836
66147W        W33215  17.170  16.181  14.940
66148W        W33216  44.372  39.921  10.891
66149W        W33217  19.118   9.358  12.577
66150W        W33218  33.130   0.844   4.213
66151W        W33219   5.864  10.254   1.230
66152W        W33220  32.568  39.034   2.380
66153W        W33221  27.471  17.556   3.674
66154W        W33222  41.295  41.864   2.419
66155W        W33223   1.852  33.604   4.289
66156W        W33224  31.996  44.818   1.391
66157W        W33225  38.072  28.093  13.430
66158W        W33226  43.996   9.316  11.907
66159W        W33227  22.043   9.148   0.301
66160W        W33228  34.598  36.445  14.993
66161W        W33229   8.839  13.271   2.195
66162W        W33230  26.555  21.096   1.225
66163W        W33231  40.446  21.606   2.853
66164W        W33232   4.434  36.537   0.372
66165W        W33233  41.534  32.511   0.364
66166W        W33234  38.341   6.395  11.120
66167W        W33235  10.754  41.037   3.804
66168W        W33236  21.208   2.801  14.794
66169W        W33237  32.996  16.218   4.728
66170W        W33238  12.792  23.581   1.703
66171W        W33239  42.514   8.390  12.058
66172W        W33240  25.175  40.391  11.512
66173W        W33241  14.313  37.062  12.066
66174W        W33242   4.836   0.379  10.099
66175W        W33243  26.559  42.987   4.739
66176W        W33244   5.856  18.069  14.458
66177W        W33245   9.306  13.262  14.367
66178W        W33246  15.770   1.746   1.719
66179W        W33247  44.310  29.919   4.715
66180W        W33248  40.888  35.371   2.341
66181W        W33249   5.271  36.470  13.307
66182W        W33250  41.862  22.723  10.941
66183W        W33251  35.913   2.863  14.948
66184W        W33252  23.997  26.518   1.860
66185W        W33253  16.770  15.167   0.786
66186W        W33254  12.689  36.917   2.846
66187W        W33255  26.167  40.932  10.972
66188W        W33256  24.984  20.523  11.966
66189W        W33257  18.569  18.076   0.274
66190W        W33258  19.137  20.134  12.436
66191W        W33259  19.574  38.338  10.590
66192W        W33260  23.069  28.600  10.580
66193W        W33261  17.649   6.306   1.871
66194W        W33262  13.175  13.776  12.440
66195W        W33263  41.358  35.455   3.169
66196W        W33264   8.257  20.065   2.284
66197W        W33265  15.761  43.478   2.803
66198W        W33266  40.399  38.828  12.012
66199W        W33267  20.261  28.495   4.655
66200W        W33268   9.266  18.715  12.886
66201W        W33269  17.140   3.939   4.754
66202W        W33270  38.416   9.840   4.322
66203W        W33271  27.611  39.379  10.467
66204W        W33272  44.944  29.082  14.349
66205W        W33273   9.709  29.602  12.890
66206W        W33274   6.775  12.780   4.613
66207W        W33275  13.178  25.117   5.305
66208W        W33276   0.434   3.723   3.705
66209W        W33277  16.133  35.061   0.857
66210W        W33278   9.168  41.537   5.157
66211W        W33279  36.396  25.981   2.286
66212W        W33280   3.367   3.266   1.413
66213W        W33281  19.264  40.959  11.494
66214W        W33282  32.427  34.919  12.449
66215W        W33283  33.460  20.033   0.950
66216W        W33284  43.988  23.218   1.274
66217W        W33285  41.803  13.717   1.362
66218W        W33286  16.139   0.249   2.213
66219W        W33287  19.636  40.361  13.440
66220W        W33288   3.218   6.368  11.452
66221W        W33289  32.438  27.027   5.571
66222W        W33290  17.616  34.424  14.444
66223W        W33291  17.604   6.397  10.603
66224W        W33292  16.704  30.469  13.493
66225W        W33293  16.626  38.041   0.474
66226W        W33294  25.160  39.840   3.171
66227W        W33295   3.820   8.162  12.882
66228W        W33296  24.621  35.407   2.306
66229W        W33297  19.755  37.934   2.818
66230W        W33298  40.979   3.747  12.834
66231W        W33299   5.907   1.755   0.293
66232W        W33300  29.931  37.929  11.443
66233W        W33301  42.806  14.801  13.800
66234W        W33302  14.650  40.442   0.381
66235W        W33303  38.062  25.632   3.250
66236W        W33304   2.366  21.178   0.271
66237W        W33305   4.837  19.603  12.445
66238W        W33306  28.614  11.215  14.381
66239W        W33307  15.325  35.982  12.504
66240W        W33308  10.737  36.559  10.428
66241W        W33309  16.635   7.256   4.254
66242W        W33310  38.918  30.614   2.218
66243W        W33311   9.827  34.870  10.643
66244W        W33312  32.046  27.675   2.338
66245W        W33313  32.602   0.248  13.895
66246W        W33314  22.100  20.610  12.555
66247W        W33315  25.578  26.633   2.356
66248W        W33316  13.656  43.376   0.423
66249W        W33317  25.219  21.148  13.396
66250W        W33318  18.295  29.635  13.507
66251W        W33319  13.314  28.052   3.750
66252W        W33320  17.227  44.419   1.265
66253W        W33321  16.674  11.268   1.330
66254W        W33322   3.367  32.468  12.843
66255W        W33323  17.719  13.190   0.452
66256W        W33324  12.176  17.772  10.563
66257W        W33325  17.128  12.243   2.831
66258W        W33326  30.433   7.902  10.479
66259W        W33327   5.775  40.537   2.780
66260W        W33328   6.699  31.006   2.846
66261W        W33329  16.203  19.078  10.025
66262W        W33330   2.464   2.451  14.955
66263W        W33331  35.949  28.475  12.037
66264W        W33332   5.234   8.390  13.994
66265W        W33333  23.525  27.571  13.858
66266W        W33334  23.698  18.764  10.919
66267W        W33335  19.201  15.110   1.867
66268W        W33336   2.926   7.694  10.547
66269W        W33337  25.511  29.933   2.237
66270W        W33338  28.033  36.998  12.449
66271W        W33339  13.207   1.916   5.107
66272W        W33340  31.027  41.881  10.918
66273W        W33341  34.605  18.708   3.764
66274W        W33342  14.247  25.047   1.308
66275W        W33343   3.769   8.321  11.968
66276W        W33344  12.795   8.830  12.346
66277W        W33345  39.321  44.918  13.325
66278W        W33346  32.577  28.070   4.722
66279W        W33347  16.292  11.159  12.371
66280W        W33348  22.510  11.136   4.727
66281W        W33349  39.976  19.570   0.278
66282W        W33350   6.398   4.254  12.542
66283W        W33351  17.777  35.035   0.312
66284W        W33352  24.115  14.257   5.231
66285W        W33353  37.351  10.231   5.184
66286W        W33354  13.814   6.800   4.210
66287W        W33355  22.699  42.819  11.504
66288W        W33356  44.426  24.710   5.152
66289W        W33357  31.105  25.511  11.888
66290W        W33358  34.531  17.666  12.996
66291W        W33359  12.130   2.369   4.759
66292W        W33360  17.300   4.321   1.879
66293W        W33361   0.437  41.811   0.728
66294W        W33362  38.949  11.161   1.439
66295W        W33363  36.010  27.176  11.379
66296W        W33364  29.153  34.601  10.979
66297W        W33365  41.894   8.663   2.869
66298W        W33366  26.658  22.078   3.840
66299W        W33367   8.166   6.283  14.956
66300W        W33368  32.490  20.635  12.094
66301W        W33369   5.744  26.206  13.949
66302W        W33370  31.407  26.619  14.997
66303W        W33371  13.815  36.081  14.948
66304W        W33372  31.629  36.033  12.966
66305W        W33373  41.425   2.326  11.978
66306W        W33374  13.282  25.056   2.257
66307W        W33375  36.560  17.136   4.174
66308W        W33376  35.394   9.164  12.558
66309W        W33377  24.221  18.193   4.692
66310W        W33378  35.439  42.957   4.124
66311W        W33379  29.641   6.416  11.406
66312W        W33380   5.329  35.455   4.344
66313W        W33381  20.660   0.783   4.209
66314W        W33382  38.436  27.070   4.321
66315W        W33383   2.914  19.738  13.859
66316W        W33384  42.423   7.749  14.323
66317W        W33385  16.738   1.762  13.395
66318W        W33386   0.385  37.045   4.599
66319W        W33387  33.526  32.569   2.337
66320W        W33388  34.867  18.118   0.930
66321W        W33389  25.031  40.367   2.724
66322W        W33390  26.579  28.482   0.346
66323W        W33391   2.415  19.084  13.317
66324W        W33392  18.632  14.161   0.412
66325W        W33393  34.980  21.683   4.666
66326W        W33394  18.100  39.046  14.927
66327W        W33395  28.477  41.337  14.474
66328W        W33396  28.982   0.754  14.884
66329W        W33397  37.423  18.245  10.634
66330W        W33398  41.912   6.202   5.141
66331W        W33399   3.452   9.197  14.416
66332W        W33400   7.328   8.389   4.824
66333W        W33401   9.694   5.397  14.492
66334W        W33402  11.868  30.485   4.761
66335W        W33403  24.013  40.444  13.515
66336W        W33404   3.403  12.779  12.948
66337W        W33405   7.792  12.656   2.767
66338W        W33406  20.256  21.680   3.721
66339W        W33407  31.621  23.992   2.247
66340W        W33408  43.285  28.663   1.805
66341W        W33409  44.376  19.567  12.049
66342W        W33410   7.761  13.161  10.931
66343W        W33411  37.002   2.325  11.455
66344W        W33412  28.556  40.911  13.326
66345W        W33413  14.827  40.989  10.966
66346W        W33414  16.228  36.354  13.961
66347W        W33415   8.282  31.627  13.454
66348W        W33416  39.951  11.156  13.860
66349W        W33417  14.205  21.253   0.247
66350W        W33418  21.630  42.317   1.383
66351W        W33419  27.061   4.234   3.704
66352W        W33420   9.222   6.739   3.745
66353W        W33421  34.973  14.138  13.909
66354W        W33422  23.007  11.851  13.808
66355W        W33423  29.963  15.715  12.014
66356W        W33424  11.863  42.510   4.619
66357W        W33425  18.570  14.259  12.052
66358W        W33426  14.157  39.923  14.407
66359W        W33427  11.139  10.144  11.888
66360W        W33428  10.208  10.864   3.753
66361W        W33429  37.370  41.421   3.865
66362W        W33430  42.031  18.057  13.385
66363W        W33431   2.805   2.434  11.980
66364W        W33432   6.789  35.026  10.476
66365W        W33433  42.880  27.685  11.395
66366W        W33434  36.065  18.103   2.886
66367W        W33435  37.956   2.472  14.868
66368W        W33436  20.067  25.039   4.116
66369W        W33437  34.067  31.465  12.558
66370W        W33438   0.841   2.250  11.087
66371W        W33439  31.493  11.268   3.195
66372W        W33440  19.549  28.180  12.990
66373W        W33441  11.628  22.242  11.031
66374W        W33442  14.776  36.463   1.898
66375W        W33443   7.713  29.956  11.516
66376W        W33444   0.334  12.666  12.868
66377W        W33445  31.102  17.558  14.439
66378W        W33446  25.641  39.356   0.362
66379W        W33447  29.641  12.847  11.529
66380W        W33448  14.131  22.626  11.968
66381W        W33449  40.808  42.990   5.312
66382W        W33450  28.937  38.532  11.931
66383W        W33451  15.108  26.543  12.475
66384W        W33452  41.955   7.319   4.710
66385W        W33453  34.946  26.060  13.960
66386W        W33454  18.573   5.926   4.275
66387W        W33455  13.143  21.719   2.246
66388W        W33456  30.052  39.315  14.391
66389W        W33457  37.534  32.102  12.421
66390W        W33458  42.282   5.372   2.725
66391W        W33459  15.746  25.031   3.302
66392W        W33460  11.756  14.159  11.561
66393W        W33461  17.198  37.996  13.479
66394W        W33462  42.460   1.302  11.030
66395W        W33463   5.896  11.311  12.370
66396W        W33464  24.199  17.672  11.886
66397W        W33465  18.562  31.007  12.846
66398W        W33466  12.688  31.648   2.729
66399W        W33467  44.957  23.005  12.377
66400W        W33468   2.348  11.832  10.123
66401W        W33469  21.023  43.422  13.812
66402W        W33470  14.761  27.563  14.374
66403W        W33471  34.614   3.796   1.437
66404W        W33472  12.304  27.138   3.288
66405W        W33473  14.254  22.168   0.750
66406W        W33474  23.513   2.936  10.625
66407W        W33475  28.106   7.824   2.315
66408W        W33476  40.016  40.421  14.301
66409W        W33477  11.260  11.218  10.638
66410W        W33478   8.735  35.579  14.981
66411W        W33479  15.265   8.215   4.246
66412W        W33480  23.240  28.170   1.850
66413W        W33481  26.989   0.857   2.825
66414W        W33482  24.216  10.324  13.524
66415W        W33483  29.922  16.304  12.468
66416W        W33484  10.770   5.783   4.351
66417W        W33485  15.754  11.779  11.465
66418W        W33486  23.106  38.517  11.932
66419W        W33487   3.909  19.617   1.856
66420W        W33488  17.307  33.498   0.320
66421W        W33489  22.699  38.934   1.380
66422W        W33490   7.244   4.767   1.784
66423W        W33491  12.657  16.168   1.321
66424W        W33492  10.171   4.703   2.726
66425W        W33493  33.545  12.664   1.301
66426W        W33494  26.088  21.143  12.539
66427W        W33495  17.191  26.524  10.978
66428W        W33496  24.707  34.376  10.512
66429W        W33497  35.083   5.434   1.392
66430W        W33498  33.999  28.507  13.869
66431W        W33499   5.367  15.271  13.822
66432W        W33500   0.493  15.783  10.890
66433W        W33501  44.971  36.890   2.793
66434W        W33502  43.279   9.316  12.936
66435W        W33503  18.174   2.876  11.055
66436W        W33504  13.266  27.013   3.294
66437W        W33505  37.475  14.308   2.331
66438W        W33506  17.798   6.810  14.810
66439W        W33507  10.183  17.624   3.146
66440W        W33508   2.933  24.023   2.331
66441W        W33509  40.965  30.585   1.257
66442W        W33510  12.140  12.185   1.292
66443W        W33511   8.315  12.319   1.860
66444W        W33512  28.499   0.288  13.924
66445W        W33513  32.950   7.373  11.515
66446W        W33514  30.116  34.026   2.190
66447W        W33515  33.462   5.361   4.137
66448W        W33516  19.237  14.650  12.088
66449W        W33517  38.459  16.714  12.024
66450W        W33518  19.204  36.084  14.310
66451W        W33519  42.899  27.073   4.752
66452W        W33520  37.390  11.185  14.399
66453W        W33521   4.918   5.196   2.767
66454W        W33522  31.912  43.395   1.355
66455W        W33523  18.279  29.456  14.857
66456W        W33524  27.061   4.264   3.207
66457W        W33525  21.691  16.707  11.028
66458W        W33526  11.796  11.797   1.296
66459W        W33527   3.932   2.382  11.530
66460W        W33528  10.723   0.782  14.330
66461W        W33529  17.781  39.925   2.192
66462W        W33530  17.295   2.864  13.456
66463W        W33531   9.650  34.592  11.559
66464W        W33532  33.403  33.125   9.967
66465W        W33533  44.349  31.136   3.716
66466W        W33534   5.762  38.925  11.077
66467W        W33535   8.356  25.072  12.999
66468W        W33536  21.261  34.442   1.440
66469W        W33537   8.734  21.057  14.814
66470W        W33538  43.349   6.837  11.009
66471W        W33539  17.156  22.663  10.099
66472W        W33540   7.344   3.416   2.813
66473W        W33541   8.820   6.791   2.762
66474W        W33542   2.353  39.840  12.439
66475W        W33543   3.435  24.530  10.961
66476W        W33544  11.280   2.230  14.502
66477W        W33545  40.052  29.009   3.209
66478W        W33546   1.254  26.488  13.520
66479W        W33547  20.052  18.559  14.315
66480W        W33548  21.710  23.229   3.780
66481W        W33549  21.717   9.250   0.864
66482W        W33550  32.056   1.236  12.893
66483W        W33551  32.967  30.958   4.246
66484W        W33552  23.539  26.557  11.868
66485W        W33553  40.882   1.474   0.329
66486W        W33554   9.301  40.381   0.420
66487W        W33555  28.070   8.312   2.803
66488W        W33556  20.693   0.981   3.167
66489W        W33557  15.631  33.513  14.829
66490W        W33558  34.452  19.536   3.216
66491W        W33559  32.399  35.036  14.347
66492W        W33560  19.649  13.253  13.045
66493W        W33561  16.722  23.190  12.992
66494W        W33562  21.602  40.426  11.485
66495W        W33563  38.976  19.684   4.302
66496W        W33564  22.651   2.792   3.166
66497W        W33565  23.678  35.495  14.424
66498W        W33566  18.270  27.525  13.455
66499W        W33567  11.155  24.113  10.443
66500W        W33568  32.431  24.016  13.471
66501W        W33569  30.081  25.513   1.828
66502W        W33570   8.729  29.630   0.857
66503W        W33571   8.840  20.054   1.854
66504W        W33572   6.423   8.366   1.280
66505W        W33573   5.826  44.448  11.408
66506W        W33574  30.574  27.599  13.499
66507W        W33575   2.345  17.598  14.812
66508W        W33576  33.014  13.781  13.403
66509W        W33577  20.056  17.795   2.354
66510W        W33578  38.828   9.269  10.944
66511W        W33579  15.259   2.738  13.535
66512W        W33580  21.717  29.637   2.347
66513W        W33581  41.316  13.670  11.542
66514W        W33582  32.097  19.669   4.669
66515W        W33583   3.787  26.492   2.324
66516W        W33584  25.042  33.956   4.798
66517W        W33585  11.689  22.054  14.397
66518W        W33586  18.243  41.355   3.170
66519W        W33587  39.895   3.227  11.114
66520W        W33588  33.014  18.185   4.131
66521W        W33589  31.016   6.274   1.295
66522W        W33590   8.663  23.515  14.474
66523W        W33591  34.893   2.395   2.706
66524W        W33592  22.585  27.198   3.641
66525W        W33593  25.202  38.520  10.509
66526W        W33594   0.267  30.425  10.554
66527W        W33595  21.095  38.904  14.503
66528W        W33596  36.051  19.744  11.505
66529W        W33597  13.344   4.206   1.749
66530W        W33598  42.880   6.274  14.477
66531W        W33599   3.303  16.264   3.228
66532W        W33600  18.571  24.570   2.749
66533W        W33601  25.700  20.746  13.516
66534W        W33602  38.037   1.942   0.762
66535W        W33603  29.969  36.099  10.520
66536W        W33604  27.118  17.128  14.016
66537W        W33605  36.061  20.035  11.453
66538W        W33606  25.185  22.238   0.435
66539W        W33607  22.068  30.427   4.274
66540W        W33608   3.919   6.397   3.829
66541W        W33609  23.536  26.172   1.723
66542W        W33610  27.141  41.395   2.831
66543W        W33611   5.774  12.314  13.340
66544W        W33612  17.303  11.798   4.799
66545W        W33613  17.655  21.153   2.884
66546W        W33614  27.978  24.055  14.896
66547W        W33615  25.103  30.097   1.280
66548W        W33616  15.325  13.205  11.961
66549W        W33617  10.745  14.179  11.475
66550W        W33618  28.168  10.656  12.355
66551W        W33619  17.777  12.213  14.825
66552W        W33620  36.875   0.789  13.444
66553W        W33621  18.736  31.092  13.806
66554W        W33622  33.461  40.000  11.441
66555W        W33623   7.408   2.836  11.960
66556W        W33624  31.101  25.616   3.378
66557W        W33625  34.379  24.230   1.824
66558W        W33626  16.242  31.473  10.979
66559W        W33627   6.269   8.781   5.205
66560W        W33628  10.185  42.893  11.565
66561W        W33629  26.058  10.660   2.741
66562W        W33630  20.181  14.759  13.529
66563W        W33631   9.319   8.340   4.630
66564W        W33632  23.239   3.293   1.408
66565W        W33633  24.602   7.236  14.815
66566W        W33634  26.658  38.823   0.785
66567W        W33635   7.842  32.914  14.822
66568W        W33636   3.841  10.351  13.400
66569W        W33637   8.297  10.257   0.887
66570W        W33638  16.646  13.323  13.799
66571W        W33639  12.758  39.505  13.418
66572W        W33640  38.415  32.981   3.780
66573W        W33641  29.497  31.942  14.960
66574W        W33642  14.287  33.057  14.912
66575W        W33643  18.551  19.770  13.947
66576W        W33644  10.812  30.415  11.982
66577W        W33645  27.184  42.408  13.849
66578W        W33646  35.959   9.163  10.601
66579W        W33647  24.568  22.512   1.432
66580W        W33648  18.251  13.167   4.716
66581W        W33649  41.020  25.170  12.900
66582W        W33650  15.194  12.309  12.437
66583W        W33651   6.746   9.364  10.570
66584W        W33652  41.032  13.788  13.367
66585W        W33653  41.323  42.525   3.660
66586W        W33654  32.010  40.977  11.534
66587W        W33655  30.965  40.041   3.790
66588W        W33656  36.963  29.439   4.120
66589W        W33657   2.317  17.658  10.553
66590W        W33658   3.418  21.170  10.485
66591W        W33659   1.321  28.054  11.428
66592W        W33660  16.676  32.923  10.626
66593W        W33661  10.852  26.503   2.732
66594W        W33662  39.833  37.998   0.926
66595W        W33663  18.101  20.087   4.252
66596W        W33664  32.074  41.499  11.005
66597W        W33665   6.266  41.979  13.505
66598W        W33666  42.887   6.740   3.271
66599W        W33667  16.087   4.368   2.236
66600W        W33668  15.230  42.890  14.985
66601W        W33669  39.864  10.240  12.344
66602W        W33670  17.062  34.503   1.818
66603W        W33671  31.537  37.406   0.372
66604W        W33672  36.893  32.087   0.938
66605W        W33673  15.182   2.370   3.675
66606W        W33674  37.394   7.368  14.478
66607W        W33675   2.755  35.545   3.783
66608W        W33676  31.037   9.879   1.776
66609W        W33677  34.108  37.514  11.031
66610W        W33678  15.596  42.443  12.018
66611W        W33679  24.014   6.371  12.405
66612W        W33680  15.735  23.156   1.265
66613W        W33681  43.292  43.765   2.782
66614W        W33682  40.894   3.955  14.333
66615W        W33683  35.472  23.609  14.491
66616W        W33684  32.968  10.791   2.687
66617W        W33685  37.422   8.214   2.839
66618W        W33686  25.168   5.372   0.927
66619W        W33687   3.916   3.438  10.092
66620W        W33688  29.991   1.881  14.469
66621W        W33689   2.750  10.182  11.611
66622W        W33690  30.966   4.367   2.745
66623W        W33691   0.970  13.162   4.230
66624W        W33692  27.146   7.252   3.307
66625W        W33693  27.131  19.680   4.122
66626W        W33694   7.869  20.680  10.437
66627W        W33695  17.179  20.272   3.776
66628W        W33696  39.524  23.670  14.836
66629W        W33697  31.573  32.886   9.482
66630W        W33698   0.356  38.939   0.389
66631W        W33699  24.125  25.085   5.305
66632W        W33700  24.186   8.179   1.219
66633W        W33701  23.178  33.580  12.895
66634W        W33702  11.313  39.888  13.510
66635W        W33703  38.337  36.524  11.524
66636W        W33704  37.491   3.371  10.496
66637W        W33705  33.383  10.362  13.940
66638W        W33706  20.529   1.966   4.298
66639W        W33707   6.711  18.079   2.673
66640W        W33708  43.015   9.643   4.738
66641W        W33709  12.796  33.609   3.783
66642W        W33710   6.384  38.518  14.497
66643W        W33711   4.721  42.860   0.826
66644W        W33712  20.106  37.897  12.031
66645W        W33713  32.483  30.538   2.848
66646W        W33714  40.806  40.014   2.418
66647W        W33715  24.503  23.233  10.478
66648W        W33716  17.234  35.424  12.964
66649W        W33717   0.408  27.456  11.540
66650W        W33718  22.083   9.344  12.576
66651W        W33719  36.896  38.840  10.416
66652W        W33720   1.300  30.591  14.275
66653W        W33721  25.988  39.865   3.779
66654W        W33722  18.157  32.433   4.311
66655W        W33723   0.312  12.158   1.725
66656W        W33724  32.478  26.166   3.789
66657W        W33725   9.879  10.791   1.379
66658W        W33726  34.043  30.064  10.542
66659W        W33727   5.830  40.313   4.834
66660W        W33728   5.837  32.594  11.054
66661W        W33729  12.234  13.129   3.308
66662W        W33730   0.253  18.777   1.304
66663W        W33731  42.894  32.596   1.868
66664W        W33732  20.147   7.191   0.762
66665W        W33733   5.393  16.164  10.939
66666W        W33734  44.420  39.503  10.463
66667W        W33735  21.591  10.812  12.534
66668W        W33736   6.426  42.353   3.724
66669W        W33737  30.642  12.738   4.293
66670W        W33738  43.828  38.045  15.000
66671W        W33739  28.617   3.357  11.975
66672W        W33740  34.079  25.154  11.488
66673W        W33741  19.591   6.830   0.443
66674W        W33742  36.363  43.488   1.414
66675W        W33743  22.662  11.227   3.267
66676W        W33744   7.680   5.418   3.853
66677W        W33745  16.213  10.763  11.928
66678W        W33746   3.287  25.148  11.083
66679W        W33747  20.524  23.502   2.304
66680W        W33748  24.075  23.007  12.411
66681W        W33749  42.010  13.217  11.411
66682W        W33750  39.348  43.435   2.800
66683W        W33751  40.907  39.470  12.467
66684W        W33752  41.786   7.304   2.715
66685W        W33753  13.733  30.047   0.959
66686W        W33754  20.610  42.291  14.499
66687W        W33755  31.504  30.978  13.929
66688W        W33756  38.540  44.991   4.628
66689W        W33757  29.056   3.413  12.974
66690W        W33758   3.763   1.915   4.283
66691W        W33759   7.185  19.772   1.363
66692W        W33760   0.801   4.266  10.888
66693W        W33761   1.392   7.185   4.667
66694W        W33762  17.237  36.027  14.842
66695W        W33763  19.594  39.474   0.465
66696W        W33764  23.234  34.471  14.909
66697W        W33765   6.779   9.253   4.170
66698W        W33766   2.961  21.572  12.560
66699W        W33767   7.817  11.188  11.502
66700W        W33768  43.328  20.072  11.939
66701W        W33769  33.960  33.390  14.954
66702W        W33770   1.349   5.249   3.809
66703W        W33771  22.128  33.477   3.705
66704W        W33772  39.903  18.245   3.859
66705W        W33773   4.380   0.376  12.515
66706W        W33774  14.182  44.880   1.417
66707W        W33775  39.847  16.797   1.376
66708W        W33776  31.506  11.270  14.794
66709W        W33777   8.394  20.746  12.417
66710W        W33778  17.757  36.933   4.782
66711W        W33779   9.709   5.425   0.857
66712W        W33780  12.272  22.699   4.729
66713W        W33781   0.467  34.556  14.789
66714W        W33782  37.417   0.926   5.162
66715W        W33783   0.817  37.919  14.430
66716W        W33784   5.718   7.257  11.589
66717W        W33785   4.832  18.778  13.026
66718W        W33786  19.621  17.268   2.748
66719W        W33787  43.433  27.033  10.986
66720W        W33788  25.648  39.813  12.931
66721W        W33789  40.507  17.151   1.766
66722W        W33790  41.816   7.842   2.775
66723W        W33791  42.507   1.941   3.716
66724W        W33792   3.288   9.323   2.769
66725W        W33793  23.054  10.766   1.775
66726W        W33794  21.158  42.023  13.834
66727W        W33795   0.832  29.515  13.861
66728W        W33796   2.737  25.068  14.952
66729W        W33797   0.987  13.670   2.793
66730W        W33798   5.915  40.877   0.736
66731W        W33799  27.037  23.147  11.067
66732W        W33800   8.200  29.528   4.153
66733W        W33801   1.878  17.263   1.374
66734W        W33802  17.169   4.378  13.803
66735W        W33803  29.481  14.322   2.877
66736W        W33804  36.959  17.797   3.180
66737W        W33805  11.317   1.926  11.611
66738W        W33806   7.253  25.021  13.896
66739W        W33807  22.526   5.223  13.953
66740W        W33808  27.984  39.415   4.727
66741W        W33809  35.378  31.068   2.343
66742W        W33810  25.474   8.825  11.963
66743W        W33811  28.484  23.533   2.228
66744W        W33812   7.263  15.708   1.408
66745W        W33813   3.764  27.027  13.314
66746W        W33814  40.333   7.285   0.946
66747W        W33815  21.689  37.455  14.817
66748W        W33816  15.328  13.732  13.462
66749W        W33817  14.692   3.796  11.504
66750W        W33818   2.388  21.066   3.629
66751W        W33819  30.659  18.623   0.834
66752W        W33820  21.629  37.439   3.755
66753W        W33821  13.164  17.270  12.965
66754W        W33822   4.374   4.909   1.915
66755W        W33823  34.514  23.028   2.255
66756W        W33824  20.632  13.744   1.778
66757W        W33825  25.574  12.359  12.482
66758W        W33826   4.419  44.368   2.783
66759W        W33827   3.234   4.812   1.779
66760W        W33828  32.032  37.412   0.941
66761W        W33829  25.213  25.154   0.901
66762W        W33830   6.338  43.845  11.391
66763W        W33831  23.556  11.357   4.159
66764W        W33832   9.345  33.625  11.536
66765W        W33833  23.622  35.557   2.339
66766W        W33834  15.751  41.834  14.869
66767W        W33835  13.784  29.432  13.897
66768W        W33836  21.227  35.536   1.695
66769W        W33837  30.485   3.327   4.184
66770W        W33838  37.939  10.705  12.838
66771W        W33839  43.287  19.221   0.442
66772W        W33840  28.465  28.149  14.400
66773W        W33841   4.762  12.235   0.356
66774W        W33842  15.084  41.511  12.828
66775W        W33843  13.320   4.907  13.033
66776W        W33844  13.623   6.390  12.478
66777W        W33845  18.237  13.837   2.370
66778W        W33846  22.013   4.259  12.879
66779W        W33847  41.367   1.783  11.119
66780W        W33848  38.013  25.217  11.452
66781W        W33849   0.767  26.481  14.342
66782W        W33850  41.907  33.425  11.376
66783W        W33851  30.039  23.106   4.741
66784W        W33852  28.544  26.665   1.877
66785W        W33853   3.344  29.618   4.696
66786W        W33854  11.244  36.399  12.966
66787W        W33855  39.365  33.569  12.055
66788W        W33856  10.193  19.584  13.828
66789W        W33857  40.323  42.421   1.373
66790W        W33858  12.264  23.227   2.293
66791W        W33859  27.004  44.764   1.778
66792W        W33860  14.721  10.281   1.897
66793W        W33861  22.081  20.092   3.649
66794W        W33862  35.878   2.324   1.368
66795W        W33863  42.873   5.880  11.916
66796W        W33864  12.739  10.798  11.062
66797W        W33865  30.479  32.594  10.407
66798W        W33866   8.281  41.968   4.289
66799W        W33867  23.673  17.570  12.024
66800W        W33868  29.019  32.896   0.441
66801W        W33869  38.325  19.220  14.507
66802W        W33870  38.906  35.009  12.079
66803W        W33871  30.159   4.394   2.786
66804W        W33872  44.412  36.385  12.067
66805W        W33873  43.797   7.734   1.291
66806W        W33874   3.771  15.249   3.154
66807W        W33875  18.292  26.189   1.301
66808W        W33876  32.983  43.864  12.972
66809W        W33877  36.038  18.114  14.852
66810W        W33878   6.856  38.948   0.813
66811W        W33879  36.951  14.180   2.224
66812W        W33880  39.492  10.151  13.375
66813W        W33881   5.765  31.004  12.484
66814W        W33882  28.981   6.685  13.318
66815W        W33883  42.525   0.259  10.555
66816W        W33884  31.908  41.422   2.889
66817W        W33885  32.121  33.934  11.068
66818W        W33886  35.575  35.574  14.338
66819W        W33887  41.334  31.012  10.623
66820W        W33888   1.945   1.437   3.245
66821W        W33889  42.799  17.713   3.849
66822W        W33890  13.611  37.972  14.978
66823W        W33891  35.550  11.805  13.885
66824W        W33892  25.215   5.905   0.853
66825W        W33893  44.918  39.900  11.594
66826W        W33894  44.487   9.224  13.802
66827W        W33895  33.477  10.148   1.353
66828W        W33896  18.601  36.998  12.367
66829W        W33897  43.801  15.228   1.356
66830W        W33898   9.651  27.063   0.450
66831W        W33899  35.094  43.443   3.364
66832W        W33900  17.681   0.290   0.845
66833W        W33901  37.424  24.019  10.529
66834W        W33902  32.630  43.924   0.793
66835W        W33903  24.030  31.143  12.014
66836W        W33904  31.446  37.374  13.037
66837W        W33905   7.771   3.276   4.319
66838W        W33906  34.471  33.534  12.457
66839W        W33907  32.486  44.267  14.900
66840W        W33908  26.195  27.034   3.332
66841W        W33909  14.300  14.673  11.096
66842W        W33910   5.403  31.899   2.789
66843W        W33911  25.551  15.581  11.561
66844W        W33912  23.002  15.662  11.060
66845W        W33913  36.021   9.366   1.391
66846W        W33914  10.644  27.554   0.873
66847W        W33915  13.739  35.002  14.435
66848W        W33916  10.700  42.463  11.420
66849W        W33917  27.195  17.707   2.838
66850W        W33918  38.030  42.333   4.152
66851W        W33919   1.267  40.900  13.929
66852W        W33920  22.030  37.069   3.234
66853W        W33921  25.509  37.391   3.219
66854W        W33922  40.375  21.073  10.981
66855W        W33923  20.695  26.696   2.868
66856W        W33924  37.889  37.506  10.107
66857W        W33925  12.320  27.018  10.548
66858W        W33926  17.159  44.469   3.637
66859W        W33927  14.831   6.387  10.096
66860W        W33928  13.795  44.899  11.538
66861W        W33929  33.937   2.866   1.347
66862W        W33930   1.394   0.435  13.028
66863W        W33931  17.767  20.738   3.641
66864W        W33932   8.791  13.808  14.416
66865W        W33933  12.736   0.844   3.651
66866W        W33934  30.956  43.375  10.946
66867W        W33935  18.197   8.674  13.542
66868W        W33936  14.272   8.173  14.844
66869W        W33937  25.641  33.125   3.762
66870W        W33938   7.270  23.072   2.678
66871W        W33939   1.924  36.033   3.338
66872W        W33940  25.989  29.581   3.234
66873W        W33941  28.001  42.418  14.390
66874W        W33942  17.089  17.576  11.126
66875W        W33943   3.260  23.092  13.395
66876W        W33944   3.388   8.243  13.459
66877W        W33945  42.866  28.116  11.903
66878W        W33946  29.531   3.454   0.835
66879W        W33947   6.198  39.857   1.829
66880W        W33948   8.868   0.340  11.989
66881W        W33949  23.995  22.621  14.488
66882W        W33950  25.676  31.019  14.776
66883W        W33951  18.217  19.039   4.788
66884W        W33952  11.772  30.006  14.378
66885W        W33953  31.927  32.584  13.802
66886W        W33954  44.935  10.189  14.916
66887W        W33955  14.298  22.164   1.239
66888W        W33956  10.312   2.444   1.258
66889W        W33957  36.379   8.770  13.795
66890W        W33958  27.073   3.364  11.889
66891W        W33959  26.470   8.830   2.722
66892W        W33960   1.458  31.063  11.610
66893W        W33961  23.611  20.081  13.943
66894W        W33962  31.054  28.625   3.698
66895W        W33963  25.532  11.721  13.824
66896W        W33964  40.308  11.650   1.305
66897W        W33965   7.309  41.395   3.780
66898W        W33966  27.070   2.955  11.950
66899W        W33967  18.669  31.404  12.481
66900W        W33968  29.489  15.605  10.116
66901W        W33969  18.119  24.499   4.139
66902W        W33970   5.264  18.680  13.021
66903W        W33971   8.800  16.723   1.866
66904W        W33972  22.190   8.179  12.943
66905W        W33973   0.307  23.568   0.744
66906W        W33974   0.419  37.915  11.492
66907W        W33975  34.104  25.588   4.608
66908W        W33976  14.647  35.931  10.157
66909W        W33977  22.616  20.162   0.734
66910W        W33978  21.533  37.508   1.329
66911W        W33979  17.103  33.545  11.454
66912W        W33980  32.589   7.896   1.835
66913W        W33981  17.704  36.980   1.750
66914W        W33982  25.161  16.200  12.992
66915W        W33983  15.169   6.903   2.729
66916W        W33984  44.395   3.867  11.988
66917W        W33985  22.039   8.292  12.487
66918W        W33986  41.838  44.406  11.605
66919W        W33987  25.480  11.278   1.882
66920W        W33988  24.599  12.815  14.018
66921W        W33989  32.467  36.004   3.870
66922W        W33990   0.410  12.697  11.436
66923W        W33991   7.382  16.141   3.365
66924W        W33992   1.312  32.135   1.250
66925W        W33993   4.425  21.086  14.398
66926W        W33994  35.388  23.063   2.825
66927W        W33995  24.595   2.468   1.842
66928W        W33996  12.624  28.179  11.119
66929W        W33997  16.583   4.779  12.954
66930W        W33998  36.014  15.697  12.398
66931W        W33999  28.107  29.023   5.106
66932W        W34000  23.691  33.455  10.475
66933W        W34001  22.671  15.724   3.695
66934W        W34002  35.412  40.460   3.192
66935W        W34003  10.254   1.342  13.058
66936W        W34004  11.780  26.597   3.387
66937W        W34005  30.603  25.045  11.400
66938W        W34006  38.046   1.363   1.321
66939W        W34007  29.946   1.822   4.639
66940W        W34008  38.433  20.666   3.165
66941W        W34009  22.067  12.181   0.905
66942W        W34010  33.609   2.297  13.865
66943W        W34011  35.546  26.679  12.024
66944W        W34012  25.060  40.490   4.155
66945W        W34013  36.036  24.610   1.768
66946W        W34014  27.461  15.202   0.330
66947W        W34015  43.413  29.557  11.495
66948W        W34016  43.971  12.832   4.673
66949W        W34017  30.927   5.237  11.991
66950W        W34018   2.874   5.305   1.374
66951W        W34019   6.310  25.975   2.330
66952W        W34020  11.153   9.689   1.781
66953W        W34021   2.374  44.370   1.365
66954W        W34022  16.571  28.571   2.695
66955W        W34023  38.941   9.673  13.384
66956W        W34024  35.396  12.123   3.227
66957W        W34025  10.210   5.300  10.545
66958W        W34026  25.991  22.726  10.980
66959W        W34027  28.572  18.614  14.818
66960W        W34028   3.425  13.295  10.601
66961W        W34029  40.528  19.698   2.770
66962W        W34030   5.293   9.827   0.297
66963W        W34031   2.889  15.606  14.438
66964W        W34032  14.710  15.274  13.866
66965W        W34033   6.206  28.047  13.517
66966W        W34034  29.655  37.427   3.798
66967W        W34035   1.839  39.829  12.517
66968W        W34036  25.208  11.664  12.064
66969W        W34037   6.298  16.168  10.056
66970W        W34038  25.620  31.620  11.476
66971W        W34039  24.569  41.330  12.903
66972W        W34040  25.580  33.954  11.541
66973W        W34041   7.665  11.733   5.248
66974W        W34042  23.089  10.153   3.345
66975W        W34043   6.869  32.518  12.397
66976W        W34044  31.101   8.755  12.916
66977W        W34045  37.409   2.456  11.571
66978W        W34046  34.032  21.692   3.817
66979W        W34047  13.167  31.945   2.207
66980W        W34048  41.312  37.900   2.276
66981W        W34049  41.809  30.066  14.398
66982W        W34050  36.471  44.406  13.384
66983W        W34051  10.218  18.694   2.217
66984W        W34052  43.490   2.293   1.333
66985W        W34053  39.991  32.085  10.538
66986W        W34054  19.134  20.172  14.408
66987W        W34055   1.329  17.145   4.769
66988W        W34056  40.355  42.837   1.223
66989W        W34057  24.614  28.124   0.282
66990W        W34058  33.928  30.461  14.796
66991W        W34059   9.393   7.398   0.251
66992W        W34060  33.517  30.414   0.828
66993W        W34061  43.440  14.175  11.519
66994W        W34062   0.769  11.678   4.200
66995W        W34063  37.406  31.440  14.362
66996W        W34064  29.459  34.017  10.990
66997W        W34065   3.290  23.137  14.288
66998W        W34066  21.223  44.482   1.441
66999W        W34067  44.422  31.472  11.579
67000W        W34068  14.165  15.759   0.773
67001W        W34069  21.549  35.534  14.345
67002W        W34070  14.671  41.836   4.249
67003W        W34071  29.596  19.209  13.905
67004W        W34072  38.385   0.316  11.028
67005W        W34073  31.099  40.488  12.070
67006W        W34074  18.560  28.993   1.808
67007W        W34075  41.925   8.779  11.923
67008W        W34076  17.225  22.674   3.822
67009W        W34077  22.516  38.887   0.942
67010W        W34078  36.030  10.266  13.343
67011W        W34079  23.234  33.419   0.274
67012W        W34080   8.344   4.918   3.179
67013W        W34081   1.881  16.130   2.357
67014W        W34082   7.730  27.518   0.805
67015W        W34083  41.014  20.206   2.341
67016W        W34084  34.579  37.377  13.319
67017W        W34085   6.789  12.325  10.542
67018W        W34086  32.449  42.348   2.198
67019W        W34087   7.757   9.180  10.617
67020W        W34088   2.419  22.638   2.226
67021W        W34089  33.407  31.421   0.295
67022W        W34090  39.368  24.095  12.494
67023W        W34091  10.848  28.637   3.212
67024W        W34092   9.167  31.474  13.940
67025W        W34093  38.860   1.305  10.644
67026W        W34094  30.542   5.204  11.029
67027W        W34095  40.410  22.024  10.925
67028W        W34096  14.635   6.781   0.334
67029W        W34097   2.424  25.709  14.977
67030W        W34098  36.485   1.776   0.246
67031W        W34099  33.618  39.917  10.461
67032W        W34100  22.567  11.184   2.702
67033W        W34101  13.641  39.417  10.404
67034W        W34102  35.878  28.989   3.246
67035W        W34103  25.195  35.071   3.779
67036W        W34104   2.236  37.084   1.932
67037W        W34105  35.539   2.312   3.233
67038W        W34106  27.526  25.478   4.230
67039W        W34107  41.028  18.276   4.813
67040W        W34108  28.456  22.744   0.906
67041W        W34109  38.944   8.279   3.666
67042W        W34110  12.284   2.302  14.969
67043W        W34111   7.203  20.099   4.839
67044W        W34112   2.336  39.552  13.054
67045W        W34113  25.701  33.410   4.145
67046W        W34114  13.121  19.043   4.637
67047W        W34115  35.045  43.289   4.631
67048W        W34116   9.762  34.523  13.406
67049W        W34117  12.709  40.809   3.816
67050W        W34118   8.366   8.223   3.795
67051W        W34119  16.760  12.148  12.947
67052W        W34120  43.971  15.293  14.486
67053W        W34121  14.641   0.886  14.310
67054W        W34122   4.876  25.043  14.975
67055W        W34123  17.170  13.668   3.714
67056W        W34124  43.510  21.613   4.352
67057W        W34125  19.777  38.465  13.427
67058W        W34126  14.617   3.422  11.582
67059W        W34127   0.889  37.367   9.947
67060W        W34128  16.274  20.120  11.916
67061W        W34129  34.087  16.271   2.888
67062W        W34130  19.086  23.678   2.221
67063W        W34131  33.992  30.506  11.412
67064W        W34132  21.586  12.327   4.721
67065W        W34133  13.188  18.224  12.064
67066W        W34134   9.295   6.779  11.913
67067W        W34135   9.344  24.068   0.888
67068W        W34136   9.318  32.420   2.181
67069W        W34137  16.587   1.845   1.835
67070W        W34138  39.838  43.006   3.250
67071W        W34139  18.110   7.746   4.242
67072W        W34140  14.245  38.967   2.781
67073W        W34141   8.191  40.468   0.345
67074W        W34142  40.809  15.102  14.942
67075W        W34143  42.985  22.688   0.770
67076W        W34144  27.551  39.942   0.900
67077W        W34145  17.683  14.645   2.795
67078W        W34146  22.708  30.513   3.671
67079W        W34147  28.163  13.243   2.717
67080W        W34148  31.517   1.318  12.361
67081W        W34149   6.416  18.103  12.836
67082W        W34150  32.908  21.034  11.568
67083W        W34151   8.395  43.513  11.863
67084W        W34152  41.788  28.085  11.398
67085W        W34153  11.190   4.276   4.716
67086W        W34154  35.373   6.364   3.286
67087W        W34155  15.108  17.150  12.934
67088W        W34156   7.390   0.916  11.462
67089W        W34157  36.400  44.901  12.043
67090W        W34158  36.886  42.513   0.322
67091W        W34159  25.018  26.018  10.893
67092W        W34160  29.159  21.154   4.617
67093W        W34161  16.221   2.284  13.928
67094W        W34162   4.204  23.185  13.872
67095W        W34163  12.814   7.405   0.823
67096W        W34164  43.336  15.690  13.064
67097W        W34165  38.048  10.179  12.903
67098W        W34166  32.116  34.564   3.724
67099W        W34167   4.817  37.365  11.046
67100W        W34168  29.472  38.513  11.995
67101W        W34169  31.104  10.245  13.999
67102W        W34170  29.091  26.585   3.640
67103W        W34171  35.018  43.018  11.525
67104W        W34172  28.601  25.123  12.382
67105W        W34173  44.361   6.676   2.320
67106W        W34174  37.500  34.990  12.879
67107W        W34175  24.020   3.720   3.687
67108W        W34176  15.588  11.773   5.197
67109W        W34177  19.552  33.047  13.853
67110W        W34178   6.761  19.599   5.605
67111W        W34179  10.204   9.273   0.805
67112W        W34180   8.217  28.941  10.407
67113W        W34181  25.967  44.344  11.077
67114W        W34182  16.107  39.548  10.940
67115W        W34183  18.626  20.558  13.343
67116W        W34184  16.746  38.936  11.963
67117W        W34185  44.934  42.498  13.842
67118W        W34186  37.523  24.528   2.704
67119W        W34187  26.163   1.799   3.698
67120W        W34188  16.755   6.887  12.011
67121W        W34189   2.227  25.476  12.343
67122W        W34190  36.038  41.955   1.321
67123W        W34191   0.447   2.724  10.903
67124W        W34192  26.142  42.908  11.121
67125W        W34193  19.187  44.816   2.234
67126W        W34194  16.607   8.273  12.409
67127W        W34195   7.709   6.871  12.463
67128W        W34196  28.949   5.432  13.885
67129W        W34197  24.983  39.505  11.968
67130W        W34198   4.435  10.340   3.835
67131W        W34199  18.089  16.202   2.674
67132W        W34200  11.214  25.142  10.930
67133W        W34201   7.712   3.884   3.175
67134W        W34202  13.202  35.014  11.409
67135W        W34203  27.516  27.007   2.666
67136W        W34204   5.740  20.600   4.616
67137W        W34205  27.029  29.458   9.937
67138W        W34206  23.629  44.871  13.903
67139W        W34207  28.647   7.353  12.013
67140W        W34208   2.367  35.067   4.782
67141W        W34209   9.327  40.468   1.898
67142W        W34210  26.194  35.592  12.539
67143W        W34211  22.688   4.938  12.033
67144W        W34212   6.278  26.624  11.042
67145W        W34213  37.387  28.929  11.562
67146W        W34214  28.620  40.507   0.420
67147W        W34215  19.191  42.840  12.371
67148W        W34216  18.673  30.416  12.508
67149W        W34217  10.288  40.958  13.466
67150W        W34218  42.520  26.562   1.897
67151W        W34219  15.690  37.511  14.822
67152W        W34220   2.328   3.282   2.768
67153W        W34221   2.805   2.878   0.958
67154W        W34222  21.240  27.676  14.017
67155W        W34223  13.730  36.367   0.956
67156W        W34224   5.245  16.754   3.703
67157W        W34225   4.415   0.293  13.056
67158W        W34226  26.676  12.278  10.983
67159W        W34227  20.733  42.863  11.552
67160W        W34228   7.260  40.318   0.893
67161W        W34229   2.886  12.121   0.348
67162W        W34230   4.864  30.928  10.607
67163W        W34231  29.595   0.444   4.239
67164W        W34232   6.805  43.003  13.954
67165W        W34233  25.514  15.709   3.720
67166W        W34234   3.315  24.187  13.452
67167W        W34235  44.983   2.815  13.937
67168W        W34236  34.952  34.470   2.780
67169W        W34237  35.497  39.481   3.823
67170W        W34238  38.907  29.996  10.902
67171W        W34239  37.888   2.794  13.340
67172W        W34240  13.135  15.310   1.882
67173W        W34241   4.739  14.112  13.884
67174W        W34242  28.544  14.201   2.834
67175W        W34243  30.982  37.033   0.284
67176W        W34244  42.890  12.351   2.879
67177W        W34245  16.179  43.951   0.922
67178W        W34246  10.752  12.790   3.631
67179W        W34247  40.849  18.725   4.190
67180W        W34248   8.297  43.465   0.811
67181W        W34249  39.840  34.984  14.283
67182W        W34250  19.703   1.893  13.041
67183W        W34251  42.030   4.745  14.292
67184W        W34252  20.629  20.575   4.622
67185W        W34253  14.600  38.464   1.221
67186W        W34254  42.820   2.804   2.341
67187W        W34255  42.947  27.106   3.195
67188W        W34256   8.270  12.361  10.577
67189W        W34257  28.534  13.719  10.593
67190W        W34258   2.944   1.358   3.250
67191W        W34259   5.391  25.121  12.863
67192W        W34260  19.053   6.239   2.681
67193W        W34261  15.777  22.630   1.312
67194W        W34262  32.130  35.872   3.301
67195W        W34263  17.633   7.320   4.681
67196W        W34264   9.819  28.617   1.696
67197W        W34265  18.170  39.528   3.332
67198W        W34266  19.198   7.773   0.909
67199W        W34267  35.057  42.493   3.224
67200W        W34268  32.531  10.160   0.857
67201W        W34269  15.206  22.613  13.491
67202W        W34270  28.485  33.544  14.425
67203W        W34271  38.967  28.666  14.832
67204W        W34272  10.690  21.102  13.426
67205W        W34273  31.603  33.952   3.723
67206W        W34274  43.484  41.933   1.347
67207W        W34275  29.986  13.168   5.237
67208W        W34276  12.849  17.271  12.529
67209W        W34277   3.864  22.504   2.821
67210W        W34278  15.315  15.613  14.840
67211W        W34279   7.773  17.592   5.616
67212W        W34280  16.659  43.779   3.172
67213W        W34281   1.832   1.416   0.839
67214W        W34282   2.942  40.341  10.535
67215W        W34283  39.532  31.616   3.868
67216W        W34284  36.092  27.526   2.348
67217W        W34285  42.026  15.168  12.422
67218W        W34286   8.854  28.674  11.106
67219W        W34287  15.306  35.033  12.555
67220W        W34288  31.127   1.839  14.994
67221W        W34289  10.692  36.901   4.332
67222W        W34290  10.770  18.756  11.927
67223W        W34291  13.268  13.294   0.247
67224W        W34292  16.719  16.708  12.953
67225W        W34293  30.426  25.682  14.483
67226W        W34294  32.492  18.174   0.442
67227W        W34295  27.163  38.040   4.284
67228W        W34296  16.280  39.884  10.945
67229W        W34297  31.083   6.905   0.802
67230W        W34298  29.147   4.720   1.845
67231W        W34299  17.150  43.294  10.500
67232W        W34300  13.233   1.326   0.746
67233W        W34301  10.791  13.742   3.280
67234W        W34302  34.550   1.373  14.029
67235W        W34303  39.946  43.018   9.968
67236W        W34304  11.776  11.258  11.033
67237W        W34305  30.475  27.000  12.565
67238W        W34306  15.083  28.037   0.455
67239W        W34307  15.796  35.550  11.873
67240W        W34308   3.319  32.397  11.941
67241W        W34309   4.932  17.674   4.128
67242W        W34310  18.186  33.047  10.928
67243W        W34311  21.586  34.899   3.163
67244W        W34312  23.174  24.610  14.400
67245W        W34313   4.811   2.780  11.427
67246W        W34314  30.991  16.672  14.975
67247W        W34315  37.342  33.445  10.910
67248W        W34316  24.651  32.047   3.237
67249W        W34317  24.152  21.125  14.009
67250W        W34318  36.443  11.807   3.772
67251W        W34319  43.774  16.643  12.869
67252W        W34320  39.475   8.682   3.800
67253W        W34321  26.016  36.929   0.247
67254W        W34322   1.376  40.883   0.441
67255W        W34323  21.749  44.450   3.790
67256W        W34324  25.040  35.541   3.173
67257W        W34325  34.592  34.455  13.963
67258W        W34326  24.611  44.448   3.147
67259W        W34327  13.144  39.919   2.417
67260W        W34328  41.451  14.594   2.849
67261W        W34329  11.709  30.653   5.291
67262W        W34330   6.303  19.271  14.786
67263W        W34331   7.359   9.729   1.738
67264W        W34332  25.469  41.966  13.018
67265W        W34333  24.519  12.149  10.521
67266W        W34334  17.718  39.880   1.807
67267W        W34335  11.652  26.048  13.393
67268W        W34336  17.620  15.729   2.192
67269W        W34337  37.924  41.806   4.739
67270W        W34338  24.118   6.229  13.418
67271W        W34339  13.687  17.581  14.394
67272W        W34340  34.082  28.447   3.862
67273W        W34341  13.346  10.190   4.724
67274W        W34342   2.308  14.301   1.437
67275W        W34343  37.395  17.564  13.319
67276W        W34344  30.103  37.523  14.930
67277W        W34345  14.833  27.047  12.419
67278W        W34346  30.643   0.321   1.915
67279W        W34347   0.915   1.829   0.949
67280W        W34348  29.612   8.845   2.177
67281W        W34349  14.630  30.087  12.065
67282W        W34350  29.149  42.989  11.378
67283W        W34351  18.142   1.470   3.701
67284W        W34352  26.490  38.046   3.208
67285W        W34353  20.649   4.757   1.853
67286W        W34354  33.455  32.129   2.371
67287W        W34355   2.406  27.684  14.941
67288W        W34356  11.743  10.216  10.435
67289W        W34357  34.489  12.294  13.939
67290W        W34358  13.210   3.895   1.753
67291W        W34359   1.374  36.487  11.881
67292W        W34360  43.005  22.687  13.346
67293W        W34361  27.565  41.824   1.370
67294W        W34362  35.450  21.566   3.346
67295W        W34363  39.474  31.127  10.632
67296W        W34364  21.105  35.924   4.254
67297W        W34365  21.076   1.339  10.508
67298W        W34366   8.746  34.073   4.126
67299W        W34367  42.815  44.310  12.958
67300W        W34368  18.053  24.029   3.167
67301W        W34369   2.298  25.683   0.360
67302W        W34370  11.195  24.607  12.343
67303W        W34371  28.960   6.740  12.341
67304W        W34372  34.070  35.935   1.730
67305W        W34373   5.726  31.123   1.364
67306W        W34374  39.990  34.954   2.207
67307W        W34375   9.660  25.651  13.961
67308W        W34376  19.557  13.717   2.284
67309W        W34377  27.986  40.032  11.929
67310W        W34378   7.357  26.173  14.828
67311W        W34379  39.372  15.680  13.527
67312W        W34380  34.018  33.620  12.426
67313W        W34381  16.153   0.941   1.716
67314W        W34382  42.404  40.455   1.246
67315W        W34383  26.535   0.787   5.227
67316W        W34384  38.967  31.588  11.862
67317W        W34385  18.152  27.138  11.962
67318W        W34386  14.208   2.926  10.585
67319W        W34387   5.226  42.437   0.794
67320W        W34388  35.583  27.554  14.774
67321W        W34389  32.565  39.328  11.940
67322W        W34390  10.343  11.738  13.018
67323W        W34391   3.838   5.379   0.317
67324W        W34392  13.644   1.892  13.012
67325W        W34393  27.511  27.168  11.425
67326W        W34394  44.921  38.980  14.882
67327W        W34395  34.093  35.551   2.700
67328W        W34396  10.869  36.062   4.206
67329W        W34397   2.263  32.514  12.430
67330W        W34398  23.607  21.155   4.610
67331W        W34399  22.189   1.944  12.411
67332W        W34400  16.284  44.384   2.233
67333W        W34401   8.352  39.935   3.760
67334W        W34402  26.470  44.916  13.961
67335W        W34403  24.207  20.211   4.744
67336W        W34404   2.413  35.861  12.986
67337W        W34405   9.149  12.226  10.544
67338W        W34406  24.697   2.395   3.174
67339W        W34407  23.683  19.204  10.558
67340W        W34408  30.915   2.283  12.476
67341W        W34409  34.516  43.861  10.604
67342W        W34410   7.711  29.084   9.957
67343W        W34411   1.762  32.925   2.213
67344W        W34412  41.021  24.029   1.349
67345W        W34413  43.808   9.884   4.293
67346W        W34414  29.643  36.351  12.054
67347W        W34415  40.850  33.402   1.932
67348W        W34416  16.722  29.025   0.961
67349W        W34417  13.843  22.145  14.922
67350W        W34418  25.478  35.941  10.059
67351W        W34419  11.219  30.089   3.709
67352W        W34420  18.093  37.852   2.681
67353W        W34421  21.737  44.950  10.958
67354W        W34422  34.493  25.149   3.779
67355W        W34423  25.680  20.214  12.441
67356W        W34424  31.506  15.206   3.712
67357W        W34425   9.733  23.518   2.834
67358W        W34426  15.725   5.395   4.697
67359W        W34427  37.866  22.089  10.997
67360W        W34428  31.137  18.057   1.273
67361W        W34429  10.198  39.988   0.894
67362W        W34430   5.933  11.639   3.369
67363W        W34431  37.004   2.332   2.370
67364W        W34432  14.662  15.655  11.955
67365W        W34433  20.251  29.645   3.185
67366W        W34434  22.161  42.808   3.251
67367W        W34435  37.348  30.945   3.647
67368W        W34436  19.548  31.515  12.510
67369W        W34437   5.242  10.711  12.359
67370W        W34438  33.460   9.861  14.974
67371W        W34439  21.050  25.515  11.992
67372W        W34440  44.347  30.641  13.515
67373W        W34441  29.952  40.518   1.878
67374W        W34442  42.308  44.359  14.436
67375W        W34443  22.522  28.030  14.373
67376W        W34444  24.986  31.641   3.217
67377W        W34445  30.442  13.770   0.302
67378W        W34446  18.746  28.001  13.859
67379W        W34447  31.634  32.393  11.880
67380W        W34448   9.200  35.975  13.966
67381W        W34449   5.278   9.361   0.816
67382W        W34450  42.522  17.760   3.381
67383W        W34451   9.362  28.038  13.943
67384W        W34452  35.544  13.802  11.924
67385W        W34453   5.917   1.442  13.442
67386W        W34454   5.402  31.932  13.876
67387W        W34455  26.136  15.192   2.881
67388W        W34456  19.219  23.127   3.352
67389W        W34457  35.921  19.271  13.352
67390W        W34458  33.109  40.421  11.991
67391W        W34459   2.804  31.052  11.513
67392W        W34460   7.184  11.772  14.465
67393W        W34461   0.803  12.263  13.473
67394W        W34462  16.286   6.201   9.988
67395W        W34463  37.918  12.345   1.884
67396W        W34464  44.348  16.764   0.954
67397W        W34465  25.631  35.537  12.908
67398W        W34466  27.648   1.476   1.926
67399W        W34467   7.283  39.339   1.742
67400W        W34468  37.404   3.712  13.935
67401W        W34469  27.140  24.504  11.577
67402W        W34470  22.698  38.412   2.755
67403W        W34471  15.711  41.364   5.144
67404W        W34472  19.117   1.431  14.505
67405W        W34473  18.733  37.519  13.910
67406W        W34474  28.177  28.611  13.312
67407W        W34475  30.043  36.557   0.291
67408W        W34476  16.714   4.353   4.239
67409W        W34477  10.165  30.509   1.784
67410W        W34478  12.134  32.046  14.816
67411W        W34479  10.640  33.020  11.869
67412W        W34480  14.231   6.794   2.716
67413W        W34481  24.079  40.519  13.833
67414W        W34482   8.187  13.683  14.500
67415W        W34483  40.510   8.309  10.977
67416W        W34484  14.714  32.011  13.364
67417W        W34485  39.320  36.538   2.398
67418W        W34486  38.967  11.840   2.841
67419W        W34487  26.678  23.147  10.984
67420W        W34488   6.908   1.908  10.436
67421W        W34489   0.868  32.428  11.059
67422W        W34490  41.369  11.803  13.988
67423W        W34491  36.033   9.888   2.809
67424W        W34492  16.201   2.259  12.380
67425W        W34493  44.390  29.043  13.970
67426W        W34494  25.620  40.935   0.727
67427W        W34495  12.731  31.986   3.639
67428W        W34496  34.916  19.131  14.955
67429W        W34497  10.740  35.548   1.293
67430W        W34498  35.029  14.305  12.915
67431W        W34499   6.358  16.758  13.437
67432W        W34500  22.155  11.769  11.606
67433W        W34501  10.290  35.874  12.046
67434W        W34502  30.094  13.818  13.384
67435W        W34503  31.916  33.400  10.421
67436W        W34504  39.888  39.538   3.370
67437W        W34505  13.263  14.636  13.489
67438W        W34506  20.227  33.972  14.997
67439W        W34507  30.022  23.696   0.286
67440W        W34508  36.089  18.598  14.819
67441W        W34509  10.676  39.973   3.336
67442W        W34510  28.036  19.718   1.213
67443W        W34511  11.196   9.363  13.915
67444W        W34512  33.938   7.684  11.429
67445W        W34513  12.205  14.287  14.393
67446W        W34514   5.872  14.627   1.908
67447W        W34515  21.638  29.642   4.734
67448W        W34516  29.426  31.559   1.217
67449W        W34517  33.878   0.420  11.412
67450W        W34518  41.421  34.974   4.148
67451W        W34519   2.940   9.160   4.302
67452W        W34520  12.794   0.287   3.380
67453W        W34521  10.771  15.268  13.029
67454W        W34522  40.520  28.021   5.302
67455W        W34523  20.109  12.684   1.883
67456W        W34524  26.953  10.647   0.742
67457W        W34525  33.060  37.976   4.255
67458W        W34526  30.525  28.542  14.366
67459W        W34527  42.963  31.033  12.993
67460W        W34528  13.690  18.100   1.415
67461W        W34529  36.590   2.430  11.379
67462W        W34530  43.460  16.738  13.986
67463W        W34531  23.099   9.393  11.122
67464W        W34532  11.312  13.685  14.275
67465W        W34533  37.339  39.876   1.392
67466W        W34534  24.130  35.015   2.833
67467W        W34535  42.825  42.490   3.201
67468W        W34536  13.274  35.043   3.169
67469W        W34537  12.618  14.626   0.927
67470W        W34538   0.389  22.659   0.364
67471W        W34539  33.423  40.320  12.920
67472W        W34540  23.499  40.852   0.351
67473W        W34541  30.124  38.043  14.476
67474W        W34542  41.986  26.010  14.972
67475W        W34543  42.387  13.242  14.482
67476W        W34544  27.598  27.023  12.463
67477W        W34545  27.658   1.806   0.867
67478W        W34546  34.538  43.385  12.350
67479W        W34547  17.579   2.950   1.409
67480W        W34548  35.052  34.908  14.455
67481W        W34549  28.441  37.348  12.959
67482W        W34550  44.271   0.389  11.126
67483W        W34551  35.932  44.992  11.557
67484W        W34552  10.250  34.566  13.911
67485W        W34553  12.140   4.732  13.425
67486W        W34554   9.709  12.141   1.392
67487W        W34555  15.191  21.708   0.759
67488W        W34556   6.402   1.411   0.464
67489W        W34557  34.554  26.962   0.352
67490W        W34558  25.662  34.412  12.033
67491W        W34559  28.556  31.148   3.805
67492W        W34560  22.570  38.060   2.292
67493W        W34561  34.965  20.044   0.422
67494W        W34562  26.107  16.607  13.307
67495W        W34563  25.585  20.566   2.388
67496W        W34564   4.865   4.720   2.391
67497W        W34565  32.139  34.013  11.972
67498W        W34566  17.150  31.451   3.695
67499W        W34567  36.994   3.261  14.867
67500W        W34568  37.359  14.625   0.373
67501W        W34569   8.743  40.982   0.809
67502W        W34570  42.920  10.240   2.395
67503W        W34571  39.333  28.530   1.696
67504W        W34572  14.703  44.909   4.173
67505W        W34573   6.784   9.300   1.337
67506W        W34574  29.942  35.422  11.454
67507W        W34575  25.981   4.792   2.805
67508W        W34576  36.875  17.089  13.855
67509W        W34577   3.915  22.502  13.416
67510W        W34578  19.151  12.200   2.738
67511W        W34579  33.479  29.973   3.646
67512W        W34580  31.431  10.221   3.175
67513W        W34581   2.951  11.778   2.795
67514W        W34582   8.316  18.671  11.388
67515W        W34583  24.095   5.228   1.234
67516W        W34584  14.280  22.605  14.000
67517W        W34585  22.104  38.380   5.119
67518W        W34586  21.518  20.113   0.362
67519W        W34587  10.814  30.493  11.583
67520W        W34588  29.152  24.501   1.256
67521W        W34589  19.083  14.683  13.926
67522W        W34590   9.652  13.338  13.987
67523W        W34591  29.597  14.202   4.271
67524W        W34592  35.024  34.096   0.445
67525W        W34593  20.744  18.075   0.436
67526W        W34594  15.680  38.853  11.592
67527W        W34595  37.080  17.143   1.334
67528W        W34596  29.058   0.925  13.317
67529W        W34597  21.720  33.615  14.882
67530W        W34598   7.689  36.015   4.608
67531W        W34599  38.412  31.506  13.010
67532W        W34600  40.952  44.426   1.881
67533W        W34601  11.348  10.384  11.559
67534W        W34602  36.084  10.695   3.653
67535W        W34603   9.723  37.534   3.346
67536W        W34604  38.937  32.020  14.424
67537W        W34605  23.074  14.251   1.877
67538W        W34606  39.881  42.033   0.423
67539W        W34607  42.318  36.358   3.385
67540W        W34608   6.334  28.077  12.462
67541W        W34609   6.196  38.045   1.737
67542W        W34610  19.757   8.293   2.214
67543W        W34611   5.405  24.142   0.398
67544W        W34612   8.239  24.694  11.909
67545W        W34613  28.643  16.813  10.551
67546W        W34614  36.450  30.442  12.395
67547W        W34615   5.319  42.020  10.634
67548W        W34616   1.898  36.006   1.379
67549W        W34617  23.184  28.996   3.843
67550W        W34618   3.454  24.169   3.186
67551W        W34619   7.259  42.359  11.568
67552W        W34620   2.805  11.197   2.308
67553W        W34621  20.237  35.982   2.903
67554W        W34622  22.011  12.183  10.478
67555W        W34623  39.948  42.434   0.853
67556W        W34624   5.357  38.410  11.957
67557W        W34625   4.851  29.070  11.863
67558W        W34626  34.063  29.634  10.501
67559W        W34627  21.612  12.839  13.393
67560W        W34628  14.818  39.468  11.958
67561W        W34629  40.880  14.320   2.801
67562W        W34630  11.172  40.014   0.285
67563W        W34631  21.556  34.103  13.505
67564W        W34632  36.965  38.538   4.608
67565W        W34633   5.231   7.825  11.884
67566W        W34634  15.184  16.685   1.724
67567W        W34635   0.763  40.955  12.460
67568W        W34636  36.939  23.692  14.375
67569W        W34637  29.561   5.394   0.369
67570W        W34638   4.704   1.927   0.727
67571W        W34639  30.566  17.629  11.929
67572W        W34640  23.641  12.184  10.893
67573W        W34641  34.023  34.021   1.293
67574W        W34642   9.738  40.813  12.858
67575W        W34643  27.564  33.529  14.980
67576W        W34644  38.828  34.518   3.201
67577W        W34645  25.479  15.187  14.027
67578W        W34646   8.851   8.285  14.459
67579W        W34647  30.090  32.455   1.357
67580W        W34648  35.955  26.498   3.305
67581W        W34649  23.044  26.040  13.356
67582W        W34650  11.801  29.586   4.834
67583W        W34651  40.364  32.943   1.356
67584W        W34652  15.201  35.988  11.021
67585W        W34653  18.669  17.574  10.591
67586W        W34654  36.404  19.247  13.341
67587W        W34655   3.846  42.431  12.423
67588W        W34656   3.809  26.960   0.835
67589W        W34657   6.250  40.466   2.291
67590W        W34658  44.972   9.814  10.910
67591W        W34659  22.622  14.134   5.283
67592W        W34660   4.909  23.511  12.525
67593W        W34661  25.076  40.405  14.470
67594W        W34662  15.672  32.611   3.782
67595W        W34663   3.239  31.084  14.313
67596W        W34664  13.756  28.105  13.501
67597W        W34665  17.581  15.153   1.714
67598W        W34666  21.754  13.611   4.120
67599W        W34667  41.815   2.858   0.806
67600W        W34668  43.867  34.606  12.963
67601W        W34669   2.295  12.241  13.842
67602W        W34670   0.761  10.873   1.766
67603W        W34671  18.573   1.460   0.427
67604W        W34672  39.557  38.538   0.367
67605W        W34673  33.978  39.357  12.360
67606W        W34674  33.122  28.637  14.371
67607W        W34675  21.090   3.951  12.531
67608W        W34676  35.538  10.171   3.324
67609W        W34677  36.000  23.713  10.972
67610W        W34678  36.366   2.432   0.954
67611W        W34679  25.123   9.295   2.276
67612W        W34680  24.018  14.654   2.749
67613W        W34681   4.713  37.401  13.817
67614W        W34682   0.815  26.683  11.091
67615W        W34683  44.872  17.631   0.262
67616W        W34684  28.446  34.464  14.900
67617W        W34685   5.405  12.311  12.891
67618W        W34686  18.646  10.682  11.590
67619W        W34687  17.768  37.997  12.058
67620W        W34688  17.147  37.895   0.247
67621W        W34689  37.917  28.967   1.811
67622W        W34690  44.983  36.485  11.473
67623W        W34691  37.391  14.700  11.464
67624W        W34692   9.267  27.954  12.983
67625W        W34693  30.002  41.367  12.096
67626W        W34694  40.050  21.106   2.773
67627W        W34695  36.949  38.518   3.724
67628W        W34696  41.959  19.590   3.795
67629W        W34697   5.379  18.187  14.391
67630W        W34698  41.880   0.930  14.298
67631W        W34699   2.462   2.815  14.448
67632W        W34700  16.703   4.307  12.851
67633W        W34701   2.393  29.162  11.986
67634W        W34702  28.461   9.310   4.789
67635W        W34703  35.416   5.430   1.295
67636W        W34704  27.635  43.270   0.771
67637W        W34705  39.929  13.282  13.923
67638W        W34706  40.337  23.062  11.881
67639W        W34707   3.327  37.384  11.900
67640W        W34708  39.038  19.193   4.164
67641W        W34709   6.389   4.796  10.045
67642W        W34710  37.568  40.996   1.850
67643W        W34711  31.516  12.204  11.390
67644W        W34712   0.907  32.057   5.131
67645W        W34713   9.879   9.788  10.601
67646W        W34714   1.770  18.081   1.421
67647W        W34715   5.198  25.979   1.291
67648W        W34716  14.273   6.404   2.310
67649W        W34717  24.063  44.882  12.561
67650W        W34718  26.115  20.763  12.494
67651W        W34719   1.358   4.792  12.906
67652W        W34720  21.584  38.515   2.296
67653W        W34721   8.183  12.697   0.742
67654W        W34722  29.024  37.920   2.345
67655W        W34723   7.769   2.240   3.744
67656W        W34724  38.838  39.051   5.295
67657W        W34725  18.734  15.209   0.385
67658W        W34726  39.010  38.448  13.454
67659W        W34727   0.445  18.756  10.923
67660W        W34728  39.811  30.622  11.586
67661W        W34729  23.735  18.091  12.082
67662W        W34730  39.465  40.446  10.519
67663W        W34731  32.519  17.250   1.788
67664W        W34732  40.440  20.654   4.259
67665W        W34733  22.213  12.714   4.156
67666W        W34734  40.497  21.091   1.882
67667W        W34735  21.181  31.518   3.169
67668W        W34736  14.810  41.827  11.462
67669W        W34737   1.960   0.887  13.367
67670W        W34738   9.260   3.405  14.463
67671W        W34739  13.349  42.402   0.390
67672W        W34740  21.717   4.716  12.856
67673W        W34741  42.786  27.477   0.923
67674W        W34742  40.459  15.752  14.786
67675W        W34743  13.300  35.519  14.296
67676W        W34744  17.119  35.011   2.839
67677W        W34745  27.516  26.619  12.002
67678W        W34746   9.153  36.416  12.573
67679W        W34747  12.349  27.989   0.855
67680W        W34748   4.363  35.900  12.943
67681W        W34749  13.195  29.082  10.415
67682W        W34750  10.142  37.462   4.727
67683W        W34751  27.606  18.747  12.376
67684W        W34752  37.514  44.288  14.767
67685W        W34753  39.488  11.747   2.231
67686W        W34754   4.214  25.526   1.401
67687W        W34755  23.193   1.914   1.753
67688W        W34756  19.601  44.369  10.446
67689W        W34757   4.810  20.740  12.486
67690W        W34758  39.383  44.987   3.183
67691W        W34759  36.509   4.754   5.139
67692W        W34760  11.324  13.844  12.501
67693W        W34761  23.236  43.409   4.599
67694W        W34762  31.075  39.367  11.965
67695W        W34763  17.740  12.353  11.955
67696W        W34764  35.971  41.937  10.547
67697W        W34765  21.601  30.106  12.368
67698W        W34766  26.104  37.840   1.827
67699W        W34767  25.522  42.802  14.922
67700W        W34768  14.259  29.055  12.481
67701W        W34769  28.458  42.878   4.802
67702W        W34770  12.825   8.168  13.032
67703W        W34771  44.327  18.737   3.674
67704W        W34772   1.828  30.940   3.294
67705W        W34773  29.500   0.744  10.958
67706W        W34774  16.088  19.662   0.449
67707W        W34775  43.948   6.875  11.382
67708W        W34776   8.790  10.662  10.492
67709W        W34777  31.433   8.849  11.455
67710W        W34778  32.475   4.829  11.907
67711W        W34779   8.384   1.769  14.394
67712W        W34780  26.463  21.152  10.515
67713W        W34781   5.395   3.266  13.025
67714W        W34782   1.793  31.605  11.601
67715W        W34783  39.014  30.040  11.543
67716W        W34784  14.717  40.843  10.502
67717W        W34785  18.732  44.918   0.276
67718W        W34786   9.301  34.884   4.786
67719W        W34787   9.193   1.761  10.628
67720W        W34788  34.516   3.795  13.956
67721W        W34789   8.371  27.034  13.522
67722W        W34790  37.879  28.946  10.960
67723W        W34791  11.356  40.543   1.256
67724W        W34792  28.462  25.686  13.319
67725W        W34793  39.351  27.513  12.010
67726W        W34794  23.108   4.335  10.418
67727W        W34795  28.934   8.721   0.349
67728W        W34796  18.191  11.257   2.337
67729W        W34797  10.712  19.165  13.437
67730W        W34798  13.230  26.619  14.374
67731W        W34799  33.530   4.875   1.697
67732W        W34800   0.875  27.687   4.160
67733W        W34801  14.256  30.473   1.784
67734W        W34802  39.930  10.178  13.473
67735W        W34803  33.474  36.513   2.305
67736W        W34804  16.594   5.747  11.860
67737W        W34805  19.184  27.574   4.246
67738W        W34806  30.550  16.073  11.413
67739W        W34807  11.858  12.142   2.866
67740W        W34808  33.970   6.865   3.338
67741W        W34809  18.075   5.270  11.519
67742W        W34810  10.705  24.993  12.870
67743W        W34811  11.147  23.090  14.848
67744W        W34812  22.157  11.348  11.578
67745W        W34813  31.986  40.868   2.275
67746W        W34814  34.046  24.159  13.835
67747W        W34815   0.872   6.873   1.212
67748W        W34816  24.997  12.283   1.723
67749W        W34817  17.266  39.550   1.362
67750W        W34818  19.752  11.357   4.237
67751W        W34819  15.175  38.973  12.853
67752W        W34820   1.408  39.839  11.034
67753W        W34821  43.413  23.675  14.023
67754W        W34822  19.049   2.922   1.868
67755W        W34823  44.958  37.405  11.992
67756W        W34824  43.407   0.298   4.315
67757W        W34825  38.955  18.136   4.333
67758W        W34826   2.756  44.445   1.859
67759W        W34827   1.771  22.176  14.944
67760W        W34828  13.842  38.005   2.220
67761W        W34829  36.922  38.059   0.922
67762W        W34830  43.438  17.771  12.530
67763W        W34831  26.646  36.849   0.814
67764W        W34832  34.865   4.878   0.380
67765W        W34833  43.469  21.105  11.006
67766W        W34834  22.529  14.224  10.471
67767W        W34835  41.343  27.132  13.528
67768W        W34836  41.893  35.935   5.093
67769W        W34837  26.991  21.575  14.959
67770W        W34838  30.471  15.314  12.832
67771W        W34839  21.180   8.381  14.280
67772W        W34840  10.853  24.664   3.210
67773W        W34841  23.068  19.714  12.563
67774W        W34842  22.107  15.124   2.891
67775W        W34843  35.603  32.075  11.856
67776W        W34844  35.087   3.414   5.282
67777W        W34845  24.997   8.273  13.350
67778W        W34846   2.854  39.350  11.405
67779W        W34847  41.997  17.634  11.612
67780W        W34848  12.622  43.381   2.802
67781W        W34849   6.923   6.714  14.428
67782W        W34850  44.351  33.468  13.398
67783W        W34851  17.289  32.037   5.280
67784W        W34852  11.746  28.677   2.196
67785W        W34853  34.512  34.487  11.095
67786W        W34854  30.458   3.723   2.299
67787W        W34855  24.686  24.094   4.599
67788W        W34856  28.603  28.439  11.465
67789W        W34857  30.961  34.479  11.439
67790W        W34858   1.294  23.158   0.759
67791W        W34859  13.263  36.978  10.643
67792W        W34860  11.142  39.556  11.569
67793W        W34861   3.896   7.234   5.164
67794W        W34862  39.919  28.176  11.066
67795W        W34863   1.845   1.466  10.535
67796W        W34864   9.206   5.717  12.063
67797W        W34865  40.371  24.091   0.470
67798W        W34866  27.036  34.480  13.862
67799W        W34867  12.820  29.439   2.902
67800W        W34868  17.662  17.098   2.203
67801W        W34869   3.454  11.692   0.891
67802W        W34870  36.359  11.737   3.208
67803W        W34871  41.531  41.538  13.459
67804W        W34872  35.474  32.464   2.690
67805W        W34873  16.178   4.399  13.866
67806W        W34874   6.413  28.028   1.394
67807W        W34875  43.003  41.002  13.406
67808W        W34876  10.736  43.421   0.394
67809W        W34877  28.438  20.042  10.534
67810W        W34878  25.081  39.478   4.250
67811W        W34879   5.290  12.275   0.424
67812W        W34880  42.401  41.461   2.826
67813W        W34881  30.625  24.501  14.917
67814W        W34882   2.227   7.324   2.359
67815W        W34883  43.764   4.371  11.386
67816W        W34884  31.135   6.423   3.282
67817W        W34885   0.262  11.849  11.572
67818W        W34886   7.891  26.194   3.341
67819W        W34887   2.799  31.466  13.811
67820W        W34888  21.033  22.601   3.285
67821W        W34889   0.422  37.497   0.847
67822W        W34890   9.161  33.589   3.693
67823W        W34891  30.507  13.174   2.672
67824W        W34892  23.553   7.250   3.152
67825W        W34893  13.723  14.620   1.897
67826W        W34894  41.331  37.836   0.313
67827W        W34895  44.414  21.137   4.703
67828W        W34896  43.907   2.901  14.472
67829W        W34897  27.096   9.679   1.882
67830W        W34898   9.206  32.397   1.334
67831W        W34899  20.526  30.982   0.352
67832W        W34900   6.328  29.134  13.486
67833W        W34901  32.032   0.394  13.399
67834W        W34902  24.511  16.268   3.197
67835W        W34903  21.167   3.714   4.146
67836W        W34904   3.292  44.482  12.861
67837W        W34905  36.970  32.443  10.409
67838W        W34906  39.000  16.619  11.980
67839W        W34907  13.635  39.318  12.358
67840W        W34908  20.174   3.308   1.448
67841W        W34909  42.825  20.578  11.896
67842W        W34910  21.557  39.533  10.934
67843W        W34911  33.087  35.573   2.888
67844W        W34912  37.044  30.031   1.834
67845W        W34913   7.721  17.243   4.722
67846W        W34914  22.679  14.305   9.923
67847W        W34915   5.931   8.785  11.449
67848W        W34916  29.030  16.297   3.271
67849W        W34917  29.616  29.990  13.421
67850W        W34918  13.645  12.167  13.418
67851W        W34919  14.284  30.967  11.456
67852W        W34920  44.442  17.172   5.242
67853W        W34921  27.661  38.936  13.453
67854W        W34922  18.110   8.788  11.455
67855W        W34923  26.965  28.454  10.597
67856W        W34924  11.810   7.680   0.752
67857W        W34925   6.762   6.916   3.244
67858W        W34926  28.570  16.597  14.944
67859W        W34927   4.838   0.384   1.720
67860W        W34928  40.900   2.943   2.817
67861W        W34929  33.104  33.045   3.326
67862W        W34930  35.050   3.270   4.289
67863W        W34931   9.792   0.954  13.472
67864W        W34932  15.661  23.530  10.611
67865W        W34933   5.751   1.300   1.857
67866W        W34934   6.725  33.520   4.673
67867W        W34935  20.217  42.298  10.968
67868W        W34936  16.673  11.261   3.770
67869W        W34937   9.348  21.063  14.329
67870W        W34938   4.285  43.347  11.980
67871W        W34939  31.953  29.512   1.393
67872W        W34940  39.957  17.100   0.440
67873W        W34941  23.502   0.431   0.262
67874W        W34942  40.922  12.766  13.973
67875W        W34943  25.590  15.640   2.847
67876W        W34944  38.430  22.693  14.892
67877W        W34945  12.258  17.681   0.877
67878W        W34946  26.520   8.330   2.369
67879W        W34947  16.193   3.807   2.686
67880W        W34948   0.424  34.071   3.722
67881W        W34949  18.574  27.495   4.726
67882W        W34950  43.456   2.966   3.335
67883W        W34951   2.441  23.106  11.866
67884W        W34952  38.069  30.562  12.526
67885W        W34953  34.522  14.195   1.726
67886W        W34954   2.916  43.926  14.772
67887W        W34955   9.744  37.995   0.459
67888W        W34956  19.653  30.045  12.495
67889W        W34957  10.339   4.724   1.840
67890W        W34958  17.081  35.604  10.003
67891W        W34959  35.511  13.834  13.046
67892W        W34960  28.112   5.913   2.370
67893W        W34961   8.831  27.659   3.251
67894W        W34962  11.682  40.022   1.840
67895W        W34963   5.813  44.883   2.808
67896W        W34964  41.836  12.208  12.373
67897W        W34965  18.264  15.590   1.252
67898W        W34966  17.633  20.600  12.547
67899W        W34967   6.701  25.965   0.383
67900W        W34968   3.948  40.419   1.254
67901W        W34969  23.669  41.008  10.161
67902W        W34970   6.234  41.370   1.788
67903W        W34971  12.817   5.883  11.447
67904W        W34972  13.288  39.046   0.306
67905W        W34973  37.878  17.702   1.868
67906W        W34974  33.438   3.893   1.880
67907W        W34975  42.879  40.868   3.684
67908W        W34976  43.914  21.518  13.006
67909W        W34977  44.489  21.043   0.890
67910W        W34978   1.251   3.326   4.776
67911W        W34979   1.951  37.467  11.495
67912W        W34980  18.564  14.256  11.064
67913W        W34981  15.710  33.921  13.037
67914W        W34982  18.593   1.250   0.746
67915W        W34983  43.772   6.842   2.370
67916W        W34984   2.438  34.011  13.455
67917W        W34985  42.780  25.077  12.023
67918W        W34986  11.287  24.579  14.397
67919W        W34987  23.686  15.144  10.466
67920W        W34988   3.395  11.763  10.455
67921W        W34989  25.666  25.524   3.315
67922W        W34990  23.651   7.371  10.492
67923W        W34991   1.349   1.749   3.323
67924W        W34992  37.082   1.300  11.416
67925W        W34993  11.710  25.571  13.314
67926W        W34994   7.738  20.072   1.701
67927W        W34995  42.936  34.048   2.818
67928W        W34996   9.354  14.769  13.025
67929W        W34997  12.742  10.322   0.902
67930W        W34998  43.909  29.975  11.007
67931W        W34999  11.622   7.283  13.986
67932W        W35000   2.369   0.400  13.359
67933W        W35001  13.137  19.726  11.375
67934W        W35002  40.503  42.335  12.943
67935W        W35003  43.925  10.379  12.956
67936W        W35004   6.880  18.561  10.080
67937W        W35005  30.022  28.593   1.723
67938W        W35006  26.617  29.504   3.286
67939W        W35007  11.773  19.566  12.854
67940W        W35008  22.058  27.945   1.330
67941W        W35009  26.966  19.186  11.549
67942W        W35010   4.881   1.753   0.352
67943W        W35011  15.774  11.837  12.529
67944W        W35012  26.648  35.420  14.306
67945W        W35013  35.582  25.502   2.772
67946W        W35014  30.935  32.886  12.510
67947W        W35015  33.616   1.976  14.939
67948W        W35016   8.685  28.067   4.642
67949W        W35017  32.422  39.473   2.357
67950W        W35018  40.970   3.388  11.870
67951W        W35019   9.266  18.076  12.483
67952W        W35020  21.656  30.060  13.393
67953W        W35021  35.085   5.334   4.701
67954W        W35022  12.777  42.850  14.448
67955W        W35023  19.077  41.334  14.774
67956W        W35024  26.489  44.370  11.900
67957W        W35025  11.861  14.157  13.423
67958W        W35026  11.313  35.983   2.802
67959W        W35027   2.941   1.389   0.909
67960W        W35028  35.513  13.787   3.190
67961W        W35029  26.536  38.326  10.635
67962W        W35030   8.841  21.537   3.659
67963W        W35031   1.453  14.625  13.543
67964W        W35032   1.393  18.150   3.805
67965W        W35033  31.407   0.957   1.414
67966W        W35034  34.601  37.952  10.465
67967W        W35035  41.517   1.740  11.452
67968W        W35036  21.631  36.845   0.368
67969W        W35037   6.271  20.035   0.248
67970W        W35038  20.234  24.683   3.635
67971W        W35039  11.269  26.017   2.879
67972W        W35040  18.553   9.661  14.282
67973W        W35041  38.976  24.715  13.517
67974W        W35042  24.663  15.771   3.149
67975W        W35043  33.581  39.521   0.286
67976W        W35044  19.112  22.691   4.189
67977W        W35045  10.238  42.030   2.881
67978W        W35046  15.644  21.164   1.404
67979W        W35047  34.511  31.990   2.694
67980W        W35048  38.054  24.534  11.096
67981W        W35049  26.128   9.889  10.603
67982W        W35050  34.102  43.878   0.886
67983W        W35051  43.347  32.036  13.908
67984W        W35052  15.822  38.524   1.770
67985W        W35053  39.852  34.460  13.475
67986W        W35054   4.740  32.597  11.607
67987W        W35055  33.547   1.870   4.324
67988W        W35056  43.475  20.100   4.617
67989W        W35057  34.502  18.200   0.798
67990W        W35058  30.143  44.894  14.978
67991W        W35059  19.051  25.198   2.886
67992W        W35060  11.698  30.470  10.470
67993W        W35061  10.782   3.922  12.475
67994W        W35062  27.499  23.065   3.324
67995W        W35063  29.562  18.709   4.814
67996W        W35064  24.489  22.632   1.852
67997W        W35065  23.607  17.222   4.655
67998W        W35066  26.470  34.112  11.108
67999W        W35067   9.227  40.802   0.351
68000W        W35068  17.781  38.355   3.204
68001W        W35069   0.806  38.840   4.283
68002W        W35070   7.271   6.887   4.660
68003W        W35071  30.589  22.640   0.392
68004W        W35072   6.782   9.765   0.888
68005W        W35073   7.883  24.196  14.489
68006W        W35074   7.856  11.223  14.011
68007W        W35075  34.981  30.131   1.294
68008W        W35076   9.371  27.155   1.841
68009W        W35077  35.017  21.551   0.264
68010W        W35078  26.019   4.799  11.902
68011W        W35079  12.812  24.176  12.927
68012W        W35080  19.572  39.432   4.350
68013W        W35081  10.798  34.454  11.564
68014W        W35082  25.710   8.186   4.281
68015W        W35083  31.443  30.020  12.949
68016W        W35084  40.859   9.847   1.931
68017W        W35085  32.131  19.060  13.035
68018W        W35086  44.881  15.606   2.737
68019W        W35087  19.071  24.061  11.401
68020W        W35088   4.711  25.579   2.852
68021W        W35089  23.594  29.971   2.185
68022W        W35090  13.328  11.319   1.919
68023W        W35091  13.767  27.622  11.870
68024W        W35092  29.460  21.557   1.398
68025W        W35093  43.957  38.016   3.321
68026W        W35094   4.847   3.750   1.364
68027W        W35095   4.299  43.980   0.397
68028W        W35096  44.785  44.272  10.062
68029W        W35097  35.934  39.034   4.650
68030W        W35098   5.701  10.762   3.302
68031W        W35099   4.911  30.436   2.732
68032W        W35100  31.500  18.674   3.871
68033W        W35101   6.378  41.335  11.104
68034W        W35102   9.758   4.297   4.652
68035W        W35103  10.184  15.601   0.858
68036W        W35104  12.711  24.193   3.209
68037W        W35105  28.434   3.949   0.352
68038W        W35106  14.745   2.776  11.564
68039W        W35107  12.725  42.843  12.045
68040W        W35108  14.637  26.522  12.521
68041W        W35109  42.932  39.410  14.362
68042W        W35110  33.881  37.485   2.199
68043W        W35111   7.774   8.374  12.354
68044W        W35112  24.211  40.450   4.741
68045W        W35113  31.131  39.480   0.847
68046W        W35114  25.093  14.319   4.287
68047W        W35115  30.474  16.204  12.070
68048W        W35116  20.258  34.002  11.493
68049W        W35117  40.510  35.599  14.369
68050W        W35118  12.223  16.103  11.430
68051W        W35119  33.963  33.968  14.834
68052W        W35120  36.431  28.584  13.937
68053W        W35121   8.760  30.472   3.674
68054W        W35122  25.542  24.491   1.795
68055W        W35123  11.761  18.782  13.825
68056W        W35124   6.406  41.788  11.003
68057W        W35125  38.356  41.331   1.272
68058W        W35126  14.199   8.741   1.408
68059W        W35127  42.419  10.249   1.758
68060W        W35128  38.954  33.119  14.006
68061W        W35129  24.023  19.594  14.313
68062W        W35130  11.849  20.179   3.159
68063W        W35131  33.090  44.473  11.385
68064W        W35132  25.057  44.896  14.285
68065W        W35133  12.837  15.747   3.262
68066W        W35134  17.722  21.087  14.330
68067W        W35135  37.025  28.449   4.178
68068W        W35136   0.303  30.164   1.222
68069W        W35137  36.425  33.461  12.082
68070W        W35138  12.321   9.756   4.744
68071W        W35139  31.507  16.702  11.397
68072W        W35140  12.203  15.123  11.973
68073W        W35141  44.855  11.627   0.726
68074W        W35142  32.505  35.483   0.765
68075W        W35143  32.609  32.507   0.881
68076W        W35144  25.488  14.186  11.868
68077W        W35145   6.833  44.791  13.516
68078W        W35146  35.593  30.526   1.813
68079W        W35147   2.729  26.591  12.979
68080W        W35148  42.358  30.452   2.797
68081W        W35149   4.834  37.974  12.052
68082W        W35150  27.692   1.351  11.527
68083W        W35151  40.360  12.233  13.036
68084W        W35152  21.570  17.307   2.186
68085W        W35153  11.795  41.836   1.420
68086W        W35154  25.636  39.849  11.490
68087W        W35155  24.541  19.674   1.900
68088W        W35156  43.305   1.409  13.831
68089W        W35157  12.333  25.688  11.449
68090W        W35158  16.599  22.725  14.377
68091W        W35159  26.544  13.607  10.894
68092W        W35160  37.985  43.447   0.817
68093W        W35161   5.386   0.447  14.947
68094W        W35162  22.667  34.476  12.887
68095W        W35163  28.609  20.524   2.883
68096W        W35164  43.766  30.146  11.557
68097W        W35165   7.359  10.674   0.796
68098W        W35166  26.605  25.141   2.207
68099W        W35167  36.478  20.614   3.339
68100W        W35168  35.427  30.621   2.317
68101W        W35169   9.688   6.902  11.909
68102W        W35170  32.562   0.462   0.842
68103W        W35171   6.891  14.801  10.538
68104W        W35172  11.217   1.448   3.159
68105W        W35173  28.963  24.082   0.348
68106W        W35174  12.795  38.378   1.730
68107W        W35175  34.515  17.774   1.922
68108W        W35176  24.186   4.798   9.939
68109W        W35177  27.680   8.838   0.365
68110W        W35178  43.282  12.706   0.753
68111W        W35179  30.114  42.845  12.871
68112W        W35180   9.888  42.876   1.308
68113W        W35181  22.238  42.954  14.864
68114W        W35182  30.534  26.649  10.541
68115W        W35183  22.087  21.233   3.823
68116W        W35184  27.993  19.558   2.407
68117W        W35185  35.512  35.378  13.531
68118W        W35186   5.314   6.309  13.531
68119W        W35187   3.278  34.474  13.945
68120W        W35188  30.474  30.938  14.277
68121W        W35189  22.044  29.076   2.301
68122W        W35190   9.215  44.847   0.359
68123W        W35191  21.682  32.517  13.949
68124W        W35192  11.834   2.264   4.248
68125W        W35193  41.949  11.187  12.464
68126W        W35194  14.765  33.451  13.056
68127W        W35195  43.791  32.973   3.199
68128W        W35196   8.670  12.765  12.576
68129W        W35197  18.732  38.493   1.788
68130W        W35198  42.812  33.434   4.828
68131W        W35199   2.290  39.523  14.968
68132W        W35200  13.603  15.148  13.533
68133W        W35201  31.614  29.665   4.250
68134W        W35202  33.612   2.949   0.788
68135W        W35203   0.891   8.183  11.927
68136W        W35204  17.172   7.668  10.607
68137W        W35205  25.702  37.087  13.392
68138W        W35206  21.562  18.718   3.305
68139W        W35207  11.670  20.220  14.509
68140W        W35208  30.980  40.821  12.421
68141W        W35209   7.187  44.382   2.804
68142W        W35210  23.533  12.164  13.515
68143W        W35211  21.647  10.877  14.291
68144W        W35212  40.810  39.315  13.923
68145W        W35213  36.402  43.451  11.923
68146W        W35214  40.867  21.191   2.881
68147W        W35215  44.267   6.250   3.212
68148W        W35216  17.086   3.447   3.271
68149W        W35217  27.518  41.396   0.961
68150W        W35218  33.601   8.741   5.087
68151W        W35219  39.469  13.234  11.095
68152W        W35220   4.429   2.823   2.302
68153W        W35221  10.744  44.999  14.380
68154W        W35222  15.687  10.697   3.683
68155W        W35223  17.291   0.432   1.910
68156W        W35224  17.094   7.772   1.394
68157W        W35225  24.684  42.940  10.432
68158W        W35226  32.563  12.700   5.134
68159W        W35227  19.681  33.876  11.892
68160W        W35228  19.619  15.717   4.231
68161W        W35229  34.576  34.517   4.209
68162W        W35230  27.124  44.983   0.251
68163W        W35231  25.059  23.220   1.756
68164W        W35232  40.864  26.462  12.878
68165W        W35233   5.780  41.356   3.703
68166W        W35234  31.456   6.775  14.010
68167W        W35235  25.044   7.179  10.433
68168W        W35236  12.818  15.802  13.877
68169W        W35237   6.835  21.514   1.341
68170W        W35238  24.984   3.288   3.810
68171W        W35239  27.945  12.740  10.070
68172W        W35240  21.558  21.699  14.430
68173W        W35241  21.196  23.188  13.336
68174W        W35242   5.396  26.155   2.677
68175W        W35243  32.083  21.673   3.359
68176W        W35244  16.117  41.496   1.744
68177W        W35245  43.833  28.599  14.774
68178W        W35246  34.978  39.827  12.856
68179W        W35247  24.544  10.825  11.411
68180W        W35248  21.172  18.090  13.880
68181W        W35249  43.929  29.519   4.632
68182W        W35250  18.589   5.696  11.525
68183W        W35251   5.895  32.093  14.512
68184W        W35252   7.370  41.430  13.023
68185W        W35253  16.151  22.549  14.394
68186W        W35254   7.211   7.210  12.046
68187W        W35255  20.664   3.308  10.486
68188W        W35256   9.647  40.444  13.874
68189W        W35257   1.764   7.869   0.937
68190W        W35258  29.001  35.957   2.776
68191W        W35259  31.028  29.611   1.319
68192W        W35260  32.579  34.460   0.883
68193W        W35261   8.322  37.984   1.391
68194W        W35262  29.131  34.448   2.277
68195W        W35263  14.673  14.731   1.904
68196W        W35264  34.466  12.249   3.294
68197W        W35265  43.456  11.161  14.351
68198W        W35266   8.666   0.756  10.608
68199W        W35267  16.592  13.117  14.394
68200W        W35268   5.828  29.111  11.589
68201W        W35269   6.367  25.569   1.705
68202W        W35270  37.341  22.145  11.459
68203W        W35271  21.667  42.407  11.394
68204W        W35272   2.233  24.063   1.787
68205W        W35273  15.120  39.846  13.348
68206W        W35274  25.170  27.593  11.876
68207W        W35275  21.146  36.068   4.627
68208W        W35276   6.889  30.165  12.986
68209W        W35277  28.446  19.189   0.848
68210W        W35278  17.130   8.319  11.917
68211W        W35279  41.367   9.866  14.484
68212W        W35280  21.096   8.712  12.022
68213W        W35281  30.644  28.970  12.886
68214W        W35282  10.662   2.245  13.825
68215W        W35283   7.804  11.695  13.424
68216W        W35284  44.358  32.530   1.271
68217W        W35285  43.394   7.231   4.606
68218W        W35286  29.014   3.343  11.524
68219W        W35287  27.503  28.638   4.700
68220W        W35288  26.017   4.431  14.300
68221W        W35289  26.067  28.116   3.857
68222W        W35290   5.349  26.134  14.818
68223W        W35291  17.617  30.062  13.430
68224W        W35292  38.394  15.284   4.815
68225W        W35293   1.866  17.187   3.740
68226W        W35294  44.883  12.342  11.048
68227W        W35295  21.261  14.598   4.224
68228W        W35296  21.135   9.699  10.122
68229W        W35297  42.496  20.040   4.132
68230W        W35298  10.201  38.445  13.012
68231W        W35299  15.817   0.436  14.761
68232W        W35300   8.815  21.678   0.290
68233W        W35301  11.646  34.023   0.287
68234W        W35302  38.994  10.713  10.123
68235W        W35303  21.221   7.312  10.131
68236W        W35304  23.984  32.571   3.167
68237W        W35305  18.684  41.914   1.370
68238W        W35306  27.990  15.789   4.282
68239W        W35307  13.673  38.342  10.574
68240W        W35308  40.868  35.958  12.043
68241W        W35309  20.164  37.850  12.519
68242W        W35310  38.017  13.677   0.469
68243W        W35311  44.921  29.970   4.634
68244W        W35312  43.343  27.160  12.840
68245W        W35313  21.708  23.641  11.400
68246W        W35314   4.371  32.434  10.565
68247W        W35315  36.954   2.837   4.212
68248W        W35316   2.314  33.966   3.798
68249W        W35317  22.150   3.334   5.088
68250W        W35318   6.856  42.875  14.351
68251W        W35319   0.959  44.940  12.088
68252W        W35320  42.293  25.984  12.559
68253W        W35321   0.350  37.923  14.855
68254W        W35322  32.127   1.372   0.452
68255W        W35323  32.897  24.066  14.911
68256W        W35324  14.723  16.792   3.715
68257W        W35325  19.598  34.992   3.194
68258W        W35326  24.092  22.064   4.259
68259W        W35327   5.328  20.071  12.873
68260W        W35328   6.427  25.129  13.837
68261W        W35329   3.936  41.818  12.901
68262W        W35330  28.444  35.380   3.279
68263W        W35331  26.514  37.858  14.441
68264W        W35332  10.142  20.703   0.840
68265W        W35333  35.588  43.298  13.488
68266W        W35334  21.207  42.440   0.296
68267W        W35335  27.997  39.962   4.120
68268W        W35336  44.914   6.905   1.314
68269W        W35337  13.624  15.094   0.897
68270W        W35338   6.302   5.318  14.769
68271W        W35339   8.721  36.000  14.495
68272W        W35340   5.238  44.819  11.092
68273W        W35341   5.912  26.188   4.625
68274W        W35342  13.305   1.358  11.599
68275W        W35343  29.921  16.611  10.480
68276W        W35344  27.663  27.477   2.859
68277W        W35345  16.807  22.519   4.338
68278W        W35346   2.358  29.948  12.566
68279W        W35347  43.792  18.165  13.921
68280W        W35348   4.329  31.459  12.422
68281W        W35349   2.720  38.930  14.510
68282W        W35350  22.193   1.399  14.342
68283W        W35351  15.797  15.175  10.920
68284W        W35352  32.914  10.347   0.457
68285W        W35353   7.367  13.631   1.313
68286W        W35354  36.454  18.648  14.001
68287W        W35355  38.517  26.538  13.448
68288W        W35356  15.087  14.212  14.822
68289W        W35357  39.506  41.519  13.376
68290W        W35358   6.292   8.221   0.826
68291W        W35359   2.438  38.920   4.122
68292W        W35360  37.398  32.444  10.404
68293W        W35361  34.938  28.518  11.420
68294W        W35362  10.378   6.366   0.848
68295W        W35363  30.027  24.205   3.818
68296W        W35364   3.730  34.452   0.276
68297W        W35365  12.339   4.702  11.528
68298W        W35366  20.735   6.197  14.915
68299W        W35367   0.969  35.556   0.427
68300W        W35368  38.557  17.798  14.997
68301W        W35369  25.118   7.288  14.455
68302W        W35370  41.963  10.741   1.873
68303W        W35371  13.199  41.034   1.428
68304W        W35372  22.655  11.860   4.684
68305W        W35373   6.844   7.822  12.504
68306W        W35374  32.401  17.072   4.622
68307W        W35375  11.726  36.974   4.184
68308W        W35376  38.366   2.368  12.042
68309W        W35377  28.052  38.062  14.948
68310W        W35378  29.128  32.917  12.924
68311W        W35379  30.598  40.814   3.160
68312W        W35380   9.186  38.947  13.494
68313W        W35381  12.736  32.000   4.261
68314W        W35382  35.908  28.178  10.482
68315W        W35383  12.183  38.443  11.036
68316W        W35384  35.473   7.811   2.690
68317W        W35385  33.599  41.536  14.379
68318W        W35386  19.152  42.362   1.223
68319W        W35387  28.598  34.529   2.821
68320W        W35388  35.488  30.990  12.510
68321W        W35389  42.921  31.120  13.826
68322W        W35390  38.512  18.702   3.766
68323W        W35391  28.183  23.617   2.231
68324W        W35392   5.888  10.247   0.829
68325W        W35393   4.929  34.530   1.338
68326W        W35394  37.084   6.250   0.463
68327W        W35395  27.480  34.431   4.195
68328W        W35396   8.862  11.827  10.989
68329W        W35397  14.733  21.038   3.224
68330W        W35398  43.977  39.451   1.276
68331W        W35399  38.892  14.153  13.338
68332W        W35400   3.711  15.188  13.954
68333W        W35401  12.706  21.679   1.817
68334W        W35402  35.360  35.358  10.507
68335W        W35403  28.449  25.002  14.955
68336W        W35404  21.679  18.742  12.049
68337W        W35405   6.786  24.677   0.816
68338W        W35406  31.427  26.498  12.021
68339W        W35407  38.454  23.503  10.629
68340W        W35408  23.003   8.309   1.397
68341W        W35409  22.179   6.714  14.977
68342W        W35410  33.029  40.309   1.922
68343W        W35411  43.307  17.755  10.999
68344W        W35412  14.319  19.067   0.778
68345W        W35413  43.465   8.798  13.952
68346W        W35414  21.623  33.088   2.322
68347W        W35415  20.104   9.341  10.919
68348W        W35416  24.500   8.263  11.973
68349W        W35417   4.285  15.317   3.840
68350W        W35418  33.076  38.328   2.211
68351W        W35419  35.938  28.670   3.210
68352W        W35420  28.180  44.412   2.374
68353W        W35421  42.452   9.390   1.262
68354W        W35422  34.570  17.205   1.292
68355W        W35423  22.175  26.054  11.081
68356W        W35424  29.136   9.339   0.268
68357W        W35425   4.303  33.061  13.968
68358W        W35426  25.026   1.931  11.043
68359W        W35427  18.722  19.628   0.375
68360W        W35428  40.009  38.418   2.404
68361W        W35429  15.657  35.541  12.969
68362W        W35430   4.942  30.956   0.914
68363W        W35431  24.187  36.575   3.837
68364W        W35432  18.650  30.602  10.045
68365W        W35433  20.083  22.111   1.758
68366W        W35434  36.087  36.428   3.295
68367W        W35435  25.035  35.897  11.997
68368W        W35436  32.891   6.825   0.912
68369W        W35437  37.352  42.928   4.342
68370W        W35438  15.279   8.362  11.376
68371W        W35439  44.379  36.870   3.352
68372W        W35440   1.433   2.811   4.839
68373W        W35441  37.022  19.700   3.300
68374W        W35442  38.327  36.558   0.417
68375W        W35443  42.448  15.230  13.907
68376W        W35444   1.350   1.944  13.019
68377W        W35445   7.245   0.935   4.630
68378W        W35446  12.129  27.154   1.392
68379W        W35447  42.897  17.116  12.896
68380W        W35448  23.001  39.810   2.178
68381W        W35449  23.164  35.996   2.185
68382W        W35450  18.094  16.609   2.722
68383W        W35451   1.430  16.778   3.641
68384W        W35452   9.784  15.297   3.205
68385W        W35453  28.107   1.781   0.387
68386W        W35454  29.661  42.339   0.864
68387W        W35455  44.897  22.098   0.957
68388W        W35456  37.944  38.884   0.431
68389W        W35457  14.804  21.175   0.774
68390W        W35458  44.460  35.980  13.824
68391W        W35459  33.036  16.107   2.793
68392W        W35460  24.661  23.712   1.889
68393W        W35461   8.364  33.118  11.973
68394W        W35462  32.614  13.147  11.437
68395W        W35463  28.558   8.175   2.377
68396W        W35464  17.158  38.477  13.853
68397W        W35465  22.532   5.381  12.574
68398W        W35466   1.252  38.445   4.644
68399W        W35467  11.279  40.820  10.480
68400W        W35468  27.536  42.996  11.437
68401W        W35469  30.614  15.720   1.857
68402W        W35470  31.951  16.639  10.407
68403W        W35471  38.958  34.415   3.746
68404W        W35472  17.651  29.653  14.809
68405W        W35473  33.909  36.468  12.564
68406W        W35474  25.642  17.227  11.017
68407W        W35475  41.489  11.643   1.852
68408W        W35476  27.484  36.008  12.884
68409W        W35477  26.093  14.751  13.390
68410W        W35478   6.834   1.329   3.848
68411W        W35479  33.927  24.518  11.385
68412W        W35480  16.617  17.241   4.118
68413W        W35481  24.135  32.613  10.443
68414W        W35482  24.977  27.043  11.587
68415W        W35483  29.992   5.381   2.306
68416W        W35484   9.230  42.905   2.330
68417W        W35485  31.042  38.505   2.408
68418W        W35486  42.793  10.829   4.199
68419W        W35487   2.965  43.764   0.939
68420W        W35488  17.771  12.204  12.351
68421W        W35489  39.847  23.713   4.167
68422W        W35490   1.266  31.438  14.028
68423W        W35491  20.051  23.507  14.354
68424W        W35492   1.369  13.830   0.472
68425W        W35493  21.610  25.511  12.434
68426W        W35494  21.745  32.393   3.834
68427W        W35495  33.446  31.523  10.573
68428W        W35496   9.183   9.201  10.961
68429W        W35497   0.305  10.154  13.355
68430W        W35498  22.037   9.169  10.448
68431W        W35499  21.122  18.596   2.291
68432W        W35500  12.224  12.310   4.180
68433W        W35501  33.607  15.764  11.372
68434W        W35502  24.188  34.887   3.729
68435W        W35503  14.616  44.373  10.152
68436W        W35504   2.470  17.148  14.942
68437W        W35505  30.011  14.697   0.895
68438W        W35506  31.971  13.284   3.716
68439W        W35507   4.421  43.499   0.372
68440W        W35508  23.233  17.260   1.728
68441W        W35509  12.259  19.117  13.960
68442W        W35510  17.281  18.271  14.787
68443W        W35511  43.368  27.589   0.441
68444W        W35512  15.716  35.419   0.420
68445W        W35513  29.073  22.554  14.775
68446W        W35514  36.030  24.561   0.945
68447W        W35515   9.780   9.711  12.339
68448W        W35516  38.327  23.017  11.015
68449W        W35517  24.141  15.681   2.260
68450W        W35518  23.535  10.669   3.689
68451W        W35519  23.734   5.819  10.962
68452W        W35520  30.967  20.599   3.369
68453W        W35521   0.248  13.169   2.383
68454W        W35522  38.493   6.418  11.413
68455W        W35523  36.473  22.031   3.683
68456W        W35524  26.598  11.666   2.317
68457W        W35525  41.482  30.589  14.866
68458W        W35526  37.837  39.013  12.429
68459W        W35527  34.393  23.725   3.226
68460W        W35528  26.023  41.832  13.324
68461W        W35529   2.445   2.722   4.793
68462W        W35530   2.424  23.692  14.977
68463W        W35531  11.174  11.848   3.642
68464W        W35532  28.047  26.591   5.139
68465W        W35533   0.949  36.432  10.408
68466W        W35534  23.556   9.304   3.237
68467W        W35535  27.044   3.299   4.716
68468W        W35536  15.157  36.870  10.557
68469W        W35537  36.854   4.936   1.883
68470W        W35538   8.882  20.739   1.243
68471W        W35539   1.467  25.070  11.074
68472W        W35540  13.233  30.457   0.429
68473W        W35541  32.452  38.433   2.851
68474W        W35542  44.410  29.425   1.419
68475W        W35543   9.663  40.485  11.412
68476W        W35544  44.459  11.178  12.049
68477W        W35545  30.502   1.282   3.182
68478W        W35546  33.105  24.652  12.852
68479W        W35547   9.209  29.070   4.164
68480W        W35548  20.223  10.216  10.595
68481W        W35549  31.062  29.474  11.866
68482W        W35550  29.108  35.545   4.675
68483W        W35551  22.730  43.433  11.415
68484W        W35552  10.793  36.477   3.265
68485W        W35553   2.948  34.515   1.394
68486W        W35554  17.230  19.176  11.490
68487W        W35555  10.176  18.072   9.973
68488W        W35556  19.606   9.860   4.354
68489W        W35557  34.539   4.716  13.364
68490W        W35558  16.571   8.386  14.439
68491W        W35559   8.897  35.461   1.337
68492W        W35560   3.734  43.323  14.282
68493W        W35561  23.109  28.636   3.832
68494W        W35562  44.924  15.800  12.346
68495W        W35563  23.595  40.853  11.121
68496W        W35564  29.046  16.096  13.978
68497W        W35565   0.484  23.519   3.301
68498W        W35566   4.786   7.702  13.518
68499W        W35567  35.923   2.729   3.756
68500W        W35568  35.531  42.409   2.369
68501W        W35569  22.199  38.846   1.803
68502W        W35570  40.975   3.215   2.273
68503W        W35571  27.150  37.365   3.164
68504W        W35572  42.335  35.887   1.824
68505W        W35573  27.970   2.445  11.584
68506W        W35574  30.983  25.089  12.499
68507W        W35575   6.326  21.122   0.882
68508W        W35576  33.995   1.419   4.824
68509W        W35577  35.932  15.134   4.333
68510W        W35578  11.245   8.346   0.819
68511W        W35579  30.436  31.048  13.363
68512W        W35580  39.536  34.121   3.822
68513W        W35581  35.993  43.957  13.534
68514W        W35582  12.653   7.319   4.119
68515W        W35583  39.468  40.834  14.021
68516W        W35584  10.685  39.814   4.802
68517W        W35585  11.663   2.828  12.833
68518W        W35586  24.701  11.798   1.317
68519W        W35587  23.059  17.667  12.923
68520W        W35588   4.329  10.660  12.394
68521W        W35589  16.097   3.430  12.992
68522W        W35590  26.159  30.007  13.814
68523W        W35591  11.632   6.186  11.385
68524W        W35592  23.223  40.870   2.297
68525W        W35593  21.601   6.351   2.792
68526W        W35594  43.976  17.209  13.415
68527W        W35595  37.444  22.083  14.309
68528W        W35596  20.592  13.665   4.159
68529W        W35597  19.576  42.876  12.908
68530W        W35598   9.272  12.252   4.603
68531W        W35599   4.310   3.735  14.492
68532W        W35600  18.585  37.342   3.223
68533W        W35601  36.384   6.185  12.516
68534W        W35602  33.926  36.479   1.338
68535W        W35603  34.116  20.564  11.085
68536W        W35604  42.510  29.503  10.515
68537W        W35605  15.707  11.720  12.947
68538W        W35606  24.162  40.419  14.864
68539W        W35607   7.813  28.489   0.482
68540W        W35608  29.479  28.027  14.387
68541W        W35609  32.539  14.167   0.807
68542W        W35610   1.838  17.585  14.859
68543W        W35611  36.361  13.214   2.347
68544W        W35612  29.110  21.724   0.745
68545W        W35613   6.894  22.089   0.380
68546W        W35614  38.566  40.334  11.980
68547W        W35615  13.801  32.887   0.811
68548W        W35616  11.136  34.516  11.986
68549W        W35617   7.412   3.841  13.324
68550W        W35618  10.349  40.001   3.764
68551W        W35619  25.510  19.563  10.523
68552W        W35620  33.878  24.664  10.141
68553W        W35621  32.548  37.374  11.373
68554W        W35622  25.143  36.014   1.410
68555W        W35623  25.214  44.779   3.697
68556W        W35624   0.967  20.156  12.401
68557W        W35625  34.608  16.119  10.927
68558W        W35626  39.520  36.544   3.814
68559W        W35627  31.141  34.391  13.435
68560W        W35628  44.265  40.887  13.444
68561W        W35629  20.661  17.274   4.242
68562W        W35630  37.932  17.771   1.390
68563W        W35631   4.449  43.767  13.963
68564W        W35632  24.499  18.728  14.870
68565W        W35633  28.463   2.779   3.716
68566W        W35634  20.640   9.307   4.627
68567W        W35635  30.565   9.282  13.915
68568W        W35636  29.504  10.365  10.958
68569W        W35637  21.551   6.705  11.882
68570W        W35638  25.051  24.559  12.427
68571W        W35639  21.255   8.770   4.645
68572W        W35640  25.602  22.550   9.985
68573W        W35641   5.371  37.355  14.783
68574W        W35642  24.616  29.650  12.069
68575W        W35643   8.184  29.639  11.856
68576W        W35644  17.223   6.253   1.301
68577W        W35645  44.885  37.553   2.283
68578W        W35646  41.806  29.641   4.196
68579W        W35647  40.046  28.021  13.944
68580W        W35648  40.417  41.388  12.091
68581W        W35649   1.870  26.162   4.161
68582W        W35650  23.594  43.907   0.405
68583W        W35651  20.143  34.082   4.146
68584W        W35652  26.952  13.239   1.274
68585W        W35653  33.002  37.998   1.405
68586W        W35654  41.340  23.732  10.932
68587W        W35655  25.559  40.473   3.244
68588W        W35656  24.225  40.401   2.809
68589W        W35657  36.020   5.267   0.397
68590W        W35658  25.057  11.641  11.536
68591W        W35659   9.284  32.477  14.400
68592W        W35660  32.456  41.373  10.578
68593W        W35661  35.948  44.318   1.314
68594W        W35662  32.910  25.629   1.832
68595W        W35663   7.239  34.042  10.968
68596W        W35664   8.779  44.951   2.227
68597W        W35665  30.629  31.561   3.666
68598W        W35666  18.181   3.412   5.233
68599W        W35667  43.347  38.410   4.293
68600W        W35668  21.122   4.773  12.058
68601W        W35669   3.437  33.105   0.735
68602W        W35670   3.771   4.865   1.855
68603W        W35671  21.195  33.120  11.583
68604W        W35672  12.638   9.252   2.205
68605W        W35673  26.642   6.762  12.057
68606W        W35674   7.238   4.245  10.930
68607W        W35675   8.275  14.638   1.267
68608W        W35676  21.564  20.578   0.452
68609W        W35677  26.656  16.317  14.295
68610W        W35678   1.462  28.599   2.328
68611W        W35679  18.127  38.409   1.823
68612W        W35680   1.879  17.769   4.740
68613W        W35681  16.630  44.394  11.095
68614W        W35682  29.161  26.521  14.362
68615W        W35683  33.034  29.968   3.179
68616W        W35684  40.827   1.891   1.233
68617W        W35685  39.847  31.099  12.016
68618W        W35686   7.718  12.262   2.758
68619W        W35687  30.109   8.240   3.830
68620W        W35688   6.239  27.658  12.024
68621W        W35689  12.674   5.710  10.600
68622W        W35690  23.995  30.086   3.662
68623W        W35691   1.753  24.597   3.311
68624W        W35692  23.224  30.602  12.986
68625W        W35693  11.733  43.972  12.435
68626W        W35694  38.827  27.012   0.421
68627W        W35695  33.424   6.183   3.361
68628W        W35696  42.498   3.868   2.300
68629W        W35697  39.559  19.583   2.179
68630W        W35698   0.950  34.116  14.007
68631W        W35699  32.139   2.887  13.062
68632W        W35700  23.096   0.908   4.260
68633W        W35701   8.900  13.712  14.811
68634W        W35702   4.399  24.554   0.874
68635W        W35703  29.137  31.104   1.414
68636W        W35704   0.381  17.294  12.845
68637W        W35705  24.042   2.310   3.259
68638W        W35706  37.453   5.293   2.732
68639W        W35707  44.844  42.994   2.889
68640W        W35708   2.235  20.684  14.986
68641W        W35709  42.948   7.786  11.574
68642W        W35710  27.014  20.605  11.039
68643W        W35711  36.349   1.271  14.333
68644W        W35712  32.938  18.761   3.363
68645W        W35713  15.715   2.303   2.715
68646W        W35714  20.104  23.108  14.416
68647W        W35715  34.020  15.275  11.006
68648W        W35716  17.652  18.292   3.821
68649W        W35717  17.240  10.662   3.653
68650W        W35718  24.039  27.483  14.888
68651W        W35719  24.221  33.893  11.438
68652W        W35720  10.258  13.261  10.526
68653W        W35721  10.640  24.983   1.788
68654W        W35722  38.851  40.820  13.516
68655W        W35723  21.236   2.384  10.975
68656W        W35724  12.681  21.074   2.285
68657W        W35725  28.526  10.355   1.721
68658W        W35726  17.071  32.019  12.891
68659W        W35727  31.080  44.368  13.841
68660W        W35728  21.655  39.971   4.145
68661W        W35729   0.313  19.154   2.832
68662W        W35730  28.149   4.906   3.677
68663W        W35731   3.421  24.009  14.937
68664W        W35732  35.941  29.613   3.695
68665W        W35733  16.088  35.870  14.371
68666W        W35734   6.833  26.546  14.974
68667W        W35735  39.839   3.877  12.340
68668W        W35736  13.681  13.295   4.664
68669W        W35737   8.849  31.940  13.939
68670W        W35738  11.172  30.957  10.969
68671W        W35739  18.592  25.144   5.179
68672W        W35740  13.756  11.217   1.358
68673W        W35741   4.907  13.822  12.051
68674W        W35742   4.228  20.607   0.433
68675W        W35743  28.560  14.150  10.971
68676W        W35744  19.222   2.303   4.175
68677W        W35745  25.999   0.872  12.405
68678W        W35746  14.104  16.811  10.951
68679W        W35747  40.972  10.184   0.448
68680W        W35748  41.485  16.811  11.524
68681W        W35749  37.082  15.217   4.663
68682W        W35750   6.780  34.460  13.919
68683W        W35751  15.664  32.028  10.452
68684W        W35752  37.937  13.692   1.909
68685W        W35753  44.331  13.743   4.629
68686W        W35754  29.935  42.884   3.231
68687W        W35755  32.087  35.908  11.547
68688W        W35756  38.382  41.306   1.868
68689W        W35757  12.334  36.012  10.422
68690W        W35758  17.233  37.460   9.930
68691W        W35759  27.586  30.098  11.451
68692W        W35760   5.410  15.164  11.998
68693W        W35761  41.396  36.949   1.762
68694W        W35762  18.073  22.565   4.739
68695W        W35763  44.928  12.134  14.309
68696W        W35764  29.488  30.537  11.561
68697W        W35765  26.184  18.291   1.905
68698W        W35766  18.664   7.751  11.048
68699W        W35767  41.810  31.098   0.439
68700W        W35768  24.983  15.674   2.329
68701W        W35769  41.890  20.051  12.039
68702W        W35770  13.779   6.409   4.716
68703W        W35771  28.008  21.261  14.929
68704W        W35772   3.460  25.099   4.127
68705W        W35773  26.013  31.088  11.875
68706W        W35774  35.514  14.115  10.580
68707W        W35775   1.357  10.812  14.917
68708W        W35776  23.186  34.882  11.901
68709W        W35777  26.958  39.935   3.822
68710W        W35778  27.067  42.289   1.381
68711W        W35779  29.135  19.186   1.245
68712W        W35780   6.307  42.018  14.490
68713W        W35781  20.265  21.640  13.918
68714W        W35782  39.988   8.833  13.879
68715W        W35783  37.393  13.837   0.384
68716W        W35784  28.030  28.556   0.836
68717W        W35785  13.762  37.896  10.584
68718W        W35786   2.467   8.374   2.372
68719W        W35787  12.123  22.243  12.568
68720W        W35788   2.950  42.005   2.881
68721W        W35789  29.529  25.518   4.661
68722W        W35790  18.611  44.441  12.948
68723W        W35791   6.764  21.031   1.928
68724W        W35792  39.013  16.112  11.505
68725W        W35793  38.882   4.240  12.513
68726W        W35794   2.914  31.493   1.763
68727W        W35795  34.589   8.654  10.894
68728W        W35796   6.720   3.278  10.939
68729W        W35797  40.954  19.556   2.888
68730W        W35798  26.984   4.413   0.275
68731W        W35799  42.456  39.814  10.921
68732W        W35800  35.894  23.569  11.998
68733W        W35801   2.838  21.543  13.522
68734W        W35802  38.839  20.166   3.329
68735W        W35803  43.819  40.334   0.826
68736W        W35804  18.269   2.769   2.792
68737W        W35805  35.072   5.756  14.306
68738W        W35806   6.217  44.500   2.902
68739W        W35807  40.518  24.720  13.423
68740W        W35808  21.613  10.234   0.958
68741W        W35809   0.942  43.289  12.559
68742W        W35810   0.962  16.173   2.311
68743W        W35811  14.692  10.298  11.429
68744W        W35812  21.116  38.009  11.961
68745W        W35813  26.130  27.155  10.573
68746W        W35814  22.219  40.823   3.233
68747W        W35815  23.531  24.692  11.878
68748W        W35816  27.566  31.140   1.244
68749W        W35817  41.009  42.794  11.390
68750W        W35818  26.494  30.975   4.833
68751W        W35819  21.033   7.799   1.758
68752W        W35820  27.008  15.100  13.985
68753W        W35821  34.540  20.037   4.280
68754W        W35822   7.859  23.681   2.879
68755W        W35823  21.064  33.541  14.004
68756W        W35824  25.051  16.272  10.901
68757W        W35825  24.570  32.937   1.731
68758W        W35826  28.597  41.407  13.811
68759W        W35827  15.122  28.531   4.766
68760W        W35828  27.980  25.180   0.884
68761W        W35829  43.492  13.755  11.427
68762W        W35830  34.495   0.383  12.540
68763W        W35831  36.008  25.529   2.871
68764W        W35832  38.075   6.216   0.928
68765W        W35833  26.978   5.907  11.412
68766W        W35834  44.974  40.844   2.349
68767W        W35835  42.784  43.417   4.717
68768W        W35836  16.142  24.079  11.908
68769W        W35837  11.133  34.071  11.584
68770W        W35838  38.449  21.063   3.867
68771W        W35839  25.589  37.067   2.308
68772W        W35840  39.997  44.321  12.541
68773W        W35841  36.568  36.874   4.181
68774W        W35842  36.552  30.577   4.276
68775W        W35843  14.253   9.365   1.264
68776W        W35844  29.152  36.005   3.261
68777W        W35845  24.148  22.531   4.296
68778W        W35846  38.941  27.642   0.284
68779W        W35847  13.316  20.038  12.030
68780W        W35848   4.768  42.506  13.833
68781W        W35849  41.862  12.280  13.310
68782W        W35850  23.204  20.578  14.802
68783W        W35851  37.039  32.008   3.719
68784W        W35852  28.445   1.891  14.373
68785W        W35853  32.416  13.157   4.705
68786W        W35854  21.120  33.040  14.971
68787W        W35855  39.555  24.991  14.867
68788W        W35856   0.756  36.555  12.838
68789W        W35857  33.601  16.689   2.681
68790W        W35858   0.986  34.918   1.745
68791W        W35859   6.212   5.742  13.991
68792W        W35860   1.731  19.626  13.819
68793W        W35861   4.810   9.165   1.379
68794W        W35862  36.924  15.602   4.235
68795W        W35863  40.522  34.519   4.680
68796W        W35864  30.084  38.459  13.307
68797W        W35865  11.342   8.334  14.463
68798W        W35866   8.883  31.932   0.921
68799W        W35867  39.943   1.871   2.784
68800W        W35868  20.685  13.186  13.388
68801W        W35869  36.556  11.720   1.414
68802W        W35870   5.890  22.514   0.317
68803W        W35871  10.376  13.220  14.989
68804W        W35872  11.321  28.154   1.368
68805W        W35873  30.031  21.108   1.697
68806W        W35874  40.010  43.398  11.471
68807W        W35875   9.717   5.714   2.298
68808W        W35876  32.460  43.379  14.380
68809W        W35877   9.766   9.367   4.284
68810W        W35878  36.591  10.767   3.297
68811W        W35879  18.565   8.850  14.514
68812W        W35880  37.448  15.203  12.444
68813W        W35881  10.748  29.570   2.843
68814W        W35882  33.977  17.133  10.152
68815W        W35883  10.859  12.779   4.213
68816W        W35884  13.698  43.857  13.497
68817W        W35885   2.840  14.274  14.016
68818W        W35886  14.658   4.917  13.860
68819W        W35887  14.675  23.520   2.772
68820W        W35888  25.081   9.361  14.983
68821W        W35889  39.908  18.703   2.332
68822W        W35890  10.352  34.904  12.945
68823W        W35891  41.860  35.859   0.295
68824W        W35892  38.922  44.929  10.473
68825W        W35893   3.725  24.058   2.334
68826W        W35894  35.910  20.119   4.283
68827W        W35895  42.469  17.282  13.873
68828W        W35896  44.275  23.034  11.469
68829W        W35897   9.706   4.792   0.954
68830W        W35898  30.085   2.957  11.372
68831W        W35899   9.656  14.125  11.955
68832W        W35900  27.062   1.468  11.019
68833W        W35901  13.332  38.046  13.364
68834W        W35902  37.858  41.989   2.404
68835W        W35903  36.090  19.674  14.949
68836W        W35904  12.240   4.921   0.465
68837W        W35905  35.958  35.966   3.631
68838W        W35906  32.516  38.569  13.890
68839W        W35907  18.593  34.584   3.173
68840W        W35908   1.976  42.951  10.466
68841W        W35909  31.512  18.238   4.760
68842W        W35910   6.214  30.539   3.296
68843W        W35911  33.405  40.361  14.332
68844W        W35912  22.700  11.127   0.960
68845W        W35913  24.224  15.597   1.378
68846W        W35914   7.791   2.275   4.153
68847W        W35915  43.468  21.559   0.480
68848W        W35916  34.893   0.279   4.635
68849W        W35917  42.792  20.189  11.057
68850W        W35918  18.169  39.969  11.126
68851W        W35919  44.370  42.445   3.243
68852W        W35920  31.583  37.547  12.422
68853W        W35921   5.258  29.567  14.350
68854W        W35922  40.907  25.507   4.633
68855W        W35923  23.099  21.122   3.634
68856W        W35924  21.590   6.809  13.335
68857W        W35925  16.724   2.404   0.465
68858W        W35926   2.890  42.430  13.415
68859W        W35927   8.769  23.526   0.930
68860W        W35928  30.125   1.777  13.935
68861W        W35929  41.023  29.063   0.272
68862W        W35930  19.621  41.438  13.955
68863W        W35931   5.379   8.726   4.274
68864W        W35932  18.069   8.200  10.525
68865W        W35933   8.353  23.113   1.233
68866W        W35934  25.664  11.856  11.999
68867W        W35935  31.472  18.773   2.717
68868W        W35936   1.740   1.470   3.717
68869W        W35937   1.282  24.678   1.221
68870W        W35938   6.255   7.243  12.041
68871W        W35939  32.598  26.001   1.732
68872W        W35940  33.086  37.996   3.265
68873W        W35941  30.162  34.002  12.016
68874W        W35942  20.536  39.395   3.810
68875W        W35943   8.183  12.162   2.392
68876W        W35944  21.543  25.514   3.367
68877W        W35945  31.433  21.615   2.890
68878W        W35946  12.842  24.214  10.926
68879W        W35947   8.249   6.809   1.793
68880W        W35948   3.793  27.077   2.722
68881W        W35949  37.347  23.194   1.264
68882W        W35950  13.305  10.156  13.428
68883W        W35951  38.962  12.809   2.316
68884W        W35952  40.827  44.960  12.878
68885W        W35953  20.737   3.263   1.396
68886W        W35954  28.968  15.614  13.910
68887W        W35955  35.466  14.653   1.337
68888W        W35956  13.704   1.847  14.006
68889W        W35957   7.281  39.980  12.562
68890W        W35958  20.032  38.829   4.123
68891W        W35959  10.865   4.225  11.490
68892W        W35960  39.497  36.404  12.950
68893W        W35961   8.277  35.427   4.618
68894W        W35962  25.117  12.276  11.432
68895W        W35963  14.791   3.891   3.823
68896W        W35964  18.640  21.692   2.796
68897W        W35965  32.104  39.014  12.067
68898W        W35966  31.153  35.596   0.426
68899W        W35967  13.794  37.368   2.300
68900W        W35968  26.618   0.337   2.244
68901W        W35969   2.383  40.961  10.441
68902W        W35970  36.358  29.591   2.299
68903W        W35971  15.717  21.593   2.852
68904W        W35972  31.557   1.740  11.009
68905W        W35973  13.646   5.292   2.180
68906W        W35974  23.677  11.256   2.754
68907W        W35975  30.655  31.980   1.847
68908W        W35976   8.819  14.270  13.324
68909W        W35977  34.870  13.291   2.360
68910W        W35978   7.745   9.349   0.817
68911W        W35979  14.786  27.545   2.411
68912W        W35980  16.763  19.617  10.090
68913W        W35981  36.574  32.908  10.971
68914W        W35982  21.692  23.688  12.845
68915W        W35983  22.680  29.930   3.165
68916W        W35984  12.252  25.016   2.811
68917W        W35985   0.292  13.234   4.753
68918W        W35986  35.862  33.548  11.978
68919W        W35987  12.675  16.739   4.263
68920W        W35988   2.804  12.224  12.039
68921W        W35989  11.830  23.132   0.348
68922W        W35990   4.383  36.048   4.171
68923W        W35991  28.001  26.200   3.642
68924W        W35992  25.171  16.571   1.269
68925W        W35993  31.077   8.193   0.942
68926W        W35994  25.133  11.761  11.010
68927W        W35995  28.582   6.359   1.365
68928W        W35996  33.128  39.550   1.329
68929W        W35997  44.909  36.038   0.789
68930W        W35998  19.218  34.593   0.421
68931W        W35999  16.607  28.044   4.800
68932W        W36000   4.243  37.068   4.698
68933W        W36001  18.161  28.681   0.437
68934W        W36002  17.570  42.491   4.264
68935W        W36003  39.465  16.567  12.532
68936W        W36004  17.113   6.271  11.991
68937W        W36005  37.463  11.326  10.512
68938W        W36006  13.330   4.351  10.922
68939W        W36007   1.901  16.806   1.720
68940W        W36008   1.473   5.269   3.161
68941W        W36009  23.661  17.108   4.244
68942W        W36010  28.998   8.677   1.850
68943W        W36011  42.467  33.447   2.373
68944W        W36012  32.915  26.959   4.311
68945W        W36013  43.955  41.830   4.743
68946W        W36014  24.657  40.350   1.821
68947W        W36015  21.671  26.972  11.553
68948W        W36016  33.540  23.697   4.793
68949W        W36017  38.545  23.071  14.924
68950W        W36018  19.702  41.871  13.490
68951W        W36019   4.316  44.794   1.407
68952W        W36020  32.465  33.003   1.847
68953W        W36021  28.055   1.759  14.807
68954W        W36022  31.588  17.094   0.957
68955W        W36023  32.564  11.270  14.943
68956W        W36024  28.077  24.487   1.855
68957W        W36025  25.081  25.988   0.803
68958W        W36026  40.493  38.325   2.903
68959W        W36027  28.005   8.706   2.774
68960W        W36028  11.178   5.773  12.960
68961W        W36029  25.677  44.382   1.860
68962W        W36030  23.187  36.968  10.587
68963W        W36031   0.388  25.599  12.847
68964W        W36032  15.249  23.116  11.037
68965W        W36033  14.229   0.954  12.407
68966W        W36034  22.091  28.587   3.735
68967W        W36035   6.851  42.482   0.866
68968W        W36036  34.903   8.377   1.846
68969W        W36037  37.401   8.192   1.712
68970W        W36038  13.723  35.561  11.521
68971W        W36039  27.527   9.252  10.491
68972W        W36040   6.202  24.691   0.753
68973W        W36041  40.925   5.332  14.455
68974W        W36042  39.043   2.753   2.222
68975W        W36043   7.250  16.663  12.036
68976W        W36044   9.785  43.854  11.443
68977W        W36045  17.177  17.111  11.957
68978W        W36046  24.512  24.574  12.542
68979W        W36047  28.574  36.508  12.078
68980W        W36048  22.746  16.707  11.993
68981W        W36049  19.195  38.452   4.769
68982W        W36050   4.943  31.422   0.287
68983W        W36051  18.725  20.605  13.831
68984W        W36052  23.169  27.655   3.709
68985W        W36053  41.370  43.982   3.169
68986W        W36054  15.207  25.116   0.242
68987W        W36055   3.734  22.731   1.850
68988W        W36056   2.361   5.856   4.162
68989W        W36057  20.136  40.884  14.365
68990W        W36058   1.971  33.522  14.992
68991W        W36059  31.911  34.880   5.200
68992W        W36060  13.692  40.046  12.025
68993W        W36061  24.013  14.729  14.016
68994W        W36062   8.792  19.707  12.547
68995W        W36063  25.132  10.180  11.398
68996W        W36064   6.391  18.110   4.329
68997W        W36065   5.759  32.487   4.251
68998W        W36066  13.279  23.605  13.327
68999W        W36067  18.652  43.395   3.325
69000W        W36068   0.986  41.494   3.665
69001W        W36069  12.764   5.924   4.128
69002W        W36070  12.182  34.586   1.846
69003W        W36071  34.940  32.004   1.394
69004W        W36072  31.095   5.782  11.428
69005W        W36073  43.820   7.723  14.979
69006W        W36074  14.681  43.463  13.413
69007W        W36075  11.285   3.857  12.571
69008W        W36076  30.420  23.134  12.989
69009W        W36077  31.564  10.257  10.616
69010W        W36078  23.097  16.198   0.880
69011W        W36079  16.209  18.724  10.549
69012W        W36080  16.226  12.823   1.448
69013W        W36081   5.754   8.785   2.677
69014W        W36082  39.469   6.322   2.330
69015W        W36083  34.421  40.544   2.417
69016W        W36084  44.909  16.580   4.283
69017W        W36085  41.505  34.118   4.798
69018W        W36086  12.790  24.652   4.681
69019W        W36087  31.941  26.557  13.896
69020W        W36088  19.697  30.979  12.006
69021W        W36089   1.806  38.522  11.909
69022W        W36090  24.134   8.757  12.850
69023W        W36091  11.218  23.631  14.915
69024W        W36092  17.297  17.267   0.808
69025W        W36093  33.426  23.064   0.339
69026W        W36094   0.937  10.691   2.715
69027W        W36095  16.135  15.105   2.313
69028W        W36096  40.416  30.924  11.987
69029W        W36097  10.797   1.377  14.418
69030W        W36098  29.117   2.850  10.590
69031W        W36099  27.454  43.928   2.310
69032W        W36100  28.134  18.634   0.324
69033W        W36101   4.897  44.294  13.873
69034W        W36102   0.369   9.306  14.772
69035W        W36103  17.204   9.644   5.308
69036W        W36104  38.523   7.902   1.823
69037W        W36105  13.710   7.898   4.785
69038W        W36106  14.773  43.917  14.312
69039W        W36107   1.242  13.151   2.283
69040W        W36108  39.330  43.443   4.743
69041W        W36109   8.315  24.020  12.506
69042W        W36110  26.105   6.863   4.818
69043W        W36111  42.801   2.877  13.375
69044W        W36112  27.586  44.763   4.306
69045W        W36113  27.985  43.352   0.845
69046W        W36114   4.348  16.116   3.684
69047W        W36115  22.542  23.630   0.409
69048W        W36116  14.693  27.577   1.759
69049W        W36117   1.249  35.604   3.358
69050W        W36118   9.754  29.563  13.807
69051W        W36119  39.912  19.719   0.871
69052W        W36120  37.392  35.044   3.326
69053W        W36121  39.973  40.854   0.772
69054W        W36122  19.684  33.599  14.882
69055W        W36123  27.682  25.122  10.954
69056W        W36124  10.259  40.496  10.509
69057W        W36125  40.876  18.078  11.601
69058W        W36126  21.640  36.067  10.907
69059W        W36127  35.856  43.395   2.813
69060W        W36128  26.051  24.532   3.811
69061W        W36129   5.691   9.793   1.811
69062W        W36130  21.198  16.721   1.879
69063W        W36131  16.792  16.169  11.428
69064W        W36132  23.549  21.191   2.677
69065W        W36133  23.708  13.120   3.797
69066W        W36134  14.692  34.990   1.722
69067W        W36135  37.359  33.619   0.768
69068W        W36136  31.054  13.823   3.151
69069W        W36137  29.450  20.705  11.093
69070W        W36138  32.997  32.117   4.325
69071W        W36139  39.550  15.268   2.255
69072W        W36140  41.003   0.468  13.516
69073W        W36141   3.281  34.923   2.213
69074W        W36142  14.783   2.865   2.844
69075W        W36143   5.774   8.804   4.352
69076W        W36144  21.627   5.232   1.785
69077W        W36145  15.684  11.367  13.507
69078W        W36146  31.076  32.611  10.475
69079W        W36147  24.640  35.425  12.549
69080W        W36148   6.832  23.663  13.819
69081W        W36149   7.319  10.202   0.355
69082W        W36150  16.191  38.492  14.902
69083W        W36151  21.754  14.265  13.005
69084W        W36152  33.037  23.630  10.560
69085W        W36153  20.561  39.457  12.856
69086W        W36154  34.561  39.478  14.513
69087W        W36155  22.730  12.640  11.537
69088W        W36156  21.555  41.857   2.705
69089W        W36157  33.008  40.949  11.454
69090W        W36158  29.078   7.866   1.283
69091W        W36159  11.326  16.598  11.909
69092W        W36160  35.996  42.870  10.906
69093W        W36161  29.607  39.533  10.978
69094W        W36162  27.007  41.962  13.500
69095W        W36163   8.810   7.782  12.428
69096W        W36164  35.011  17.665   4.727
69097W        W36165   1.807   9.226  14.941
69098W        W36166   1.269  37.021   0.968
69099W        W36167  15.176  27.118  12.366
69100W        W36168   9.293  23.192  11.391
69101W        W36169  31.473  19.673   4.183
69102W        W36170  38.035  33.582  12.826
69103W        W36171  41.323  38.407   0.377
69104W        W36172  16.276  32.459   1.248
69105W        W36173  24.719  29.100  14.308
69106W        W36174  33.517  14.766  14.496
69107W        W36175  32.564   5.841   4.636
69108W        W36176  44.961  15.097  14.287
69109W        W36177   5.306  40.544   2.838
69110W        W36178  40.314  42.514  13.844
69111W        W36179  26.016   4.391  11.425
69112W        W36180  10.245  25.148  14.341
69113W        W36181  39.414   9.833  14.358
69114W        W36182   9.337  33.919  11.964
69115W        W36183  14.783  32.636  12.531
69116W        W36184   4.777   1.801  13.451
69117W        W36185   4.848  16.725   4.259
69118W        W36186  36.959  39.524   2.252
69119W        W36187  20.623  40.904  12.014
69120W        W36188  20.091   8.178   3.335
69121W        W36189  36.467  40.364  12.388
69122W        W36190  39.018  42.949   2.748
69123W        W36191  12.640  12.750  13.425
69124W        W36192  35.876  42.866  14.878
69125W        W36193   2.772  35.082   4.627
69126W        W36194   3.375  41.433  12.512
69127W        W36195  19.750  19.564   3.822
69128W        W36196  42.501  30.987  11.460
69129W        W36197   8.175  42.297  12.933
69130W        W36198  18.608  28.576   0.746
69131W        W36199  42.854  19.078  13.054
69132W        W36200  14.315  26.552  11.542
69133W        W36201  36.588  14.161   0.372
69134W        W36202  36.966  17.240   2.798
69135W        W36203  30.958   8.871   1.421
69136W        W36204  32.924  33.041   0.335
69137W        W36205  27.120   3.829  12.377
69138W        W36206  28.140   9.768  10.533
69139W        W36207  32.923  25.533   2.867
69140W        W36208   3.359  44.931  12.507
69141W        W36209  37.924  34.944   4.765
69142W        W36210  31.070  12.644  14.010
69143W        W36211  22.089  34.110  10.509
69144W        W36212   4.379  15.263  12.457
69145W        W36213  20.604  44.395   4.290
69146W        W36214  26.123  34.378  11.607
69147W        W36215  14.708  31.420  11.884
69148W        W36216  38.953  37.919   3.219
69149W        W36217  38.390  40.979  11.455
69150W        W36218  22.101  39.383  13.063
69151W        W36219  20.042  23.556   0.785
69152W        W36220  27.050  15.113  10.579
69153W        W36221   8.764  12.355  12.360
69154W        W36222  20.751  24.533  10.448
69155W        W36223   2.317   9.304   4.206
69156W        W36224  38.499  23.536   1.282
69157W        W36225  19.048  27.646   3.762
69158W        W36226   4.932  15.179  13.929
69159W        W36227  26.575  31.950   9.963
69160W        W36228  15.716  26.070  12.409
69161W        W36229  23.003  40.436  13.055
69162W        W36230  15.118  13.815   2.403
69163W        W36231  36.991   3.886   2.739
69164W        W36232  35.861  41.000   4.647
69165W        W36233  38.867  35.079   4.603
69166W        W36234   5.223  43.928   4.646
69167W        W36235  10.180  17.063   1.333
69168W        W36236  12.655   2.276   5.211
69169W        W36237   2.251  44.856   2.810
69170W        W36238  20.762  37.014  14.761
69171W        W36239  44.979  43.011  12.871
69172W        W36240   4.935  22.127  12.553
69173W        W36241   8.726   2.264   1.756
69174W        W36242  10.772  38.558  11.091
69175W        W36243  41.988   5.436   4.229
69176W        W36244   9.250  43.765  14.342
69177W        W36245  17.164  14.628  10.893
69178W        W36246  11.331  21.026  11.429
69179W        W36247  30.161   9.376   3.717
69180W        W36248  37.436  13.677   1.833
69181W        W36249  12.630  27.185  11.568
69182W        W36250  11.827  12.817  14.511
69183W        W36251  40.895  14.246   4.141
69184W        W36252  10.647   4.288   1.439
69185W        W36253  35.072   0.424   0.318
69186W        W36254  14.673  15.170  12.554
69187W        W36255  25.482  38.972   0.801
69188W        W36256   4.435  11.705   3.840
69189W        W36257  25.672  35.373   4.648
69190W        W36258  32.989  10.225   1.355
69191W        W36259   7.360   9.847   2.396
69192W        W36260  37.047   9.296  11.984
69193W        W36261  19.105  44.432  12.041
69194W        W36262  40.358  22.745   5.255
69195W        W36263  41.310  32.903  11.546
69196W        W36264  31.058   1.236   1.407
69197W        W36265  25.037  30.427   2.807
69198W        W36266  38.547  22.996  12.511
69199W        W36267   1.814  34.052   1.847
69200W        W36268  43.446   0.280   3.189
69201W        W36269  10.803  37.050  14.378
69202W        W36270  30.016  26.586   2.321
69203W        W36271  37.011  13.812  13.508
69204W        W36272  12.203   2.413   0.855
69205W        W36273  36.026  10.696   4.834
69206W        W36274  15.316  25.166  11.531
69207W        W36275  15.749  22.579  14.968
69208W        W36276  39.418  35.063   3.790
69209W        W36277  31.903  30.507   0.831
69210W        W36278  36.887   0.491   4.297
69211W        W36279  42.322  20.217  11.996
69212W        W36280   3.782  24.638   1.277
69213W        W36281  12.731  17.278  13.985
69214W        W36282  11.813  18.190  12.559
69215W        W36283  41.807  20.626  10.947
69216W        W36284  12.710  32.467  12.375
69217W        W36285  33.546  18.238   5.279
69218W        W36286   1.361  36.972   2.406
69219W        W36287  13.601  16.292  14.908
69220W        W36288   1.272  26.150   3.823
69221W        W36289  22.156  32.049  12.958
69222W        W36290  14.745  12.679  14.006
69223W        W36291  43.306  18.129  14.918
69224W        W36292   8.777  43.394   1.827
69225W        W36293  11.202  11.309  12.953
69226W        W36294  39.364  32.029  11.502
69227W        W36295  29.477  15.123   1.338
69228W        W36296  38.921  22.686  11.488
69229W        W36297  16.660   8.687  14.448
69230W        W36298  11.631   7.248  11.955
69231W        W36299   5.366  32.954  11.871
69232W        W36300  40.448  30.501  10.972
69233W        W36301  23.985  11.734   0.874
69234W        W36302   8.691  10.354  11.899
69235W        W36303  16.131   8.341  14.315
69236W        W36304   0.451   1.325  10.571
69237W        W36305  42.344  15.255   2.891
69238W        W36306   3.254   7.292   1.226
69239W        W36307  42.309  23.152   1.283
69240W        W36308   1.373  33.518   2.390
69241W        W36309  12.775  28.107  10.584
69242W        W36310  10.838   4.759  12.505
69243W        W36311   8.717  34.976   1.803
69244W        W36312  31.456  37.552   2.354
69245W        W36313   0.867   9.334  14.859
69246W        W36314  38.374  38.364  14.368
69247W        W36315  34.914  14.685  14.336
69248W        W36316  17.642  40.535   0.439
69249W        W36317  12.689   2.883   2.399
69250W        W36318  26.970  12.116  11.407
69251W        W36319  14.285  40.915  13.961
69252W        W36320   9.866  36.465  13.845
69253W        W36321   6.321  42.324  14.806
69254W        W36322  41.396  28.121  14.343
69255W        W36323  16.289  16.636   0.763
69256W        W36324  40.943  42.518   1.321
69257W        W36325  40.962  25.568  13.446
69258W        W36326   2.472  41.810  12.897
69259W        W36327  13.706   7.847   0.270
69260W        W36328  32.885  26.672  11.546
69261W        W36329  31.481  20.750   0.423
69262W        W36330  10.812  23.005   2.387
69263W        W36331   8.850   6.772   4.717
69264W        W36332  38.992  26.469  12.883
69265W        W36333  30.114  36.574   2.902
69266W        W36334   5.933  16.096  10.635
69267W        W36335  16.733  35.109  14.452
69268W        W36336   8.195  34.468  13.932
69269W        W36337  33.125  32.591   0.873
69270W        W36338  21.710  16.810  11.453
69271W        W36339  42.347  33.933  10.594
69272W        W36340  29.162  36.555   0.437
69273W        W36341  23.036  38.895   3.740
69274W        W36342  18.711  24.699   0.744
69275W        W36343  15.669  20.708  13.905
69276W        W36344  25.559  20.201  10.972
69277W        W36345  36.489  38.073   0.314
69278W        W36346  23.191  29.925   4.271
69279W        W36347  32.087   9.835   4.331
69280W        W36348  30.061  42.313  14.435
69281W        W36349  18.729   0.876   0.247
69282W        W36350  11.703  29.480  13.370
69283W        W36351  32.588  40.036   0.768
69284W        W36352  35.881   8.881  10.930
69285W        W36353  25.625  44.980   1.775
69286W        W36354  40.024  39.022  12.963
69287W        W36355  26.574  25.586  13.799
69288W        W36356  38.529  40.836  14.789
69289W        W36357   6.869  36.926  13.329
69290W        W36358   1.477  37.515   2.735
69291W        W36359  15.232  14.727   3.673
69292W        W36360  27.532  35.868   2.838
69293W        W36361  15.685  24.072  10.940
69294W        W36362  24.110  10.312  14.778
69295W        W36363  19.197  24.535   2.221
69296W        W36364  10.181  19.679   2.694
69297W        W36365  14.162  11.260  14.919
69298W        W36366  28.009  40.352  13.417
69299W        W36367  32.391   3.737   1.437
69300W        W36368  41.500  38.530  13.892
69301W        W36369   8.891  33.504  10.418
69302W        W36370  35.501  40.515   0.292
69303W        W36371  20.551  14.600   2.745
69304W        W36372  17.072  28.106   1.233
69305W        W36373  37.451   8.732   2.851
69306W        W36374   1.881  34.441  11.538
69307W        W36375  23.698  28.497  12.460
69308W        W36376   5.215  40.817  10.542
69309W        W36377  31.125   5.777  10.553
69310W        W36378  32.903  40.926   3.304
69311W        W36379  15.636  15.162   2.699
69312W        W36380  27.033  14.207  14.437
69313W        W36381   2.282  36.902   0.937
69314W        W36382  17.602  34.030   3.681
69315W        W36383  40.400  39.027   3.705
69316W        W36384  43.418   6.399   1.342
69317W        W36385  33.481  44.991   4.788
69318W        W36386  25.076  21.749  11.416
69319W        W36387  35.421   9.219   1.295
69320W        W36388  16.318  24.097   3.235
69321W        W36389  30.527  44.262  14.388
69322W        W36390  20.703  19.157  13.035
69323W        W36391  18.622  24.720  11.927
69324W        W36392  16.301  15.821   2.898
69325W        W36393  23.177  24.211  10.420
69326W        W36394  27.979  16.635  11.935
69327W        W36395  40.043  23.198  13.857
69328W        W36396  16.604  19.119  13.813
69329W        W36397   5.429  23.683   4.609
69330W        W36398   1.302  14.613   0.858
69331W        W36399  36.990  35.393  12.413
69332W        W36400   4.769  36.013   2.193
69333W        W36401  44.394  34.020   3.272
69334W        W36402   6.337  37.983  14.760
69335W        W36403   5.773   1.843  14.297
69336W        W36404  20.225  20.627  10.479
69337W        W36405  12.231   0.334   4.298
69338W        W36406  29.659  40.960   4.134
69339W        W36407  22.056   7.213   2.196
69340W        W36408  36.099  13.773   4.644
69341W        W36409  30.612  20.684  13.909
69342W        W36410  40.865  23.633   4.665
69343W        W36411  25.540   0.862   2.739
69344W        W36412   2.377  43.446   3.702
69345W        W36413  27.459  40.501  14.322
69346W        W36414  17.155   1.448  14.292
69347W        W36415  23.094   0.846   1.298
69348W        W36416  27.489  36.381  13.375
69349W        W36417   7.855  13.613   2.179
69350W        W36418  32.036  23.610  14.293
69351W        W36419  28.561  28.004  11.578
69352W        W36420  12.270  41.518  14.793
69353W        W36421  36.462  35.369  11.887
69354W        W36422   9.825  32.596   0.878
69355W        W36423  21.134  20.119  14.279
69356W        W36424  39.343   2.383  13.915
69357W        W36425   9.816   6.236  13.890
69358W        W36426  27.996  36.483   4.158
69359W        W36427   5.194  35.561  13.964
69360W        W36428  36.087  24.557   2.362
69361W        W36429  34.508  16.170   0.483
69362W        W36430  28.986  39.344  11.436
69363W        W36431  21.202   1.790  12.459
69364W        W36432   3.903  20.761  10.936
69365W        W36433  39.008  35.101   1.420
69366W        W36434  13.218  23.996  11.390
69367W        W36435  18.552   6.745  13.971
69368W        W36436  33.601  34.487  11.585
69369W        W36437   7.237  21.734  12.541
69370W        W36438  28.543  23.071  13.963
69371W        W36439  19.144   6.846  11.976
69372W        W36440  25.598  23.074   2.360
69373W        W36441  43.442  40.370  12.907
69374W        W36442  19.166  18.249   3.274
69375W        W36443  30.568  18.718   1.888
69376W        W36444   1.747   8.885  11.608
69377W        W36445  29.095  20.645   3.376
69378W        W36446  37.563  11.130  11.372
69379W        W36447  24.695  16.750  11.530
69380W        W36448  44.822  37.071  13.485
69381W        W36449  27.542  33.994  10.959
69382W        W36450  35.415  43.974   2.787
69383W        W36451  22.998  42.426   1.921
69384W        W36452  12.325  38.987   0.778
69385W        W36453   9.381  12.648  11.524
69386W        W36454   8.376  31.444  12.845
69387W        W36455   7.276  17.302  14.427
69388W        W36456  27.170  13.110  12.941
69389W        W36457   1.361   4.405  11.390
69390W        W36458  37.432  17.635   1.925
69391W        W36459   4.380  31.559   3.260
69392W        W36460  11.284  22.250   1.211
69393W        W36461  43.274   5.299   4.197
69394W        W36462  39.871  25.624   2.417
69395W        W36463  37.424   6.361   1.763
69396W        W36464  26.121  44.831   1.893
69397W        W36465  37.845  37.530  10.547
69398W        W36466   7.828  22.703   0.873
69399W        W36467  34.095  33.879  10.456
69400W        W36468  44.911  24.174   0.899
69401W        W36469  33.464  18.764   1.224
69402W        W36470  42.485  23.613   4.833
69403W        W36471  22.039   0.903   1.810
69404W        W36472  15.595  42.844   0.465
69405W        W36473  26.963  16.120  11.110
69406W        W36474  13.172  17.219  13.362
69407W        W36475  42.850   0.424  14.843
69408W        W36476   2.779  11.345   2.805
69409W        W36477  25.711   1.945   0.735
69410W        W36478  41.992  20.239   2.709
69411W        W36479   0.879  27.028  14.470
69412W        W36480  10.640   0.460   1.887
69413W        W36481   4.237   4.370  11.930
69414W        W36482   9.246  35.394   0.879
69415W        W36483  31.479  44.792   1.710
69416W        W36484  40.923   5.389   0.455
69417W        W36485  25.063  19.169  12.500
69418W        W36486  21.598  23.489  11.952
69419W        W36487  22.594   6.213  11.094
69420W        W36488   8.321  13.214   3.774
69421W        W36489  30.596   9.240  10.511
69422W        W36490  32.442   4.445   2.307
69423W        W36491  34.060  20.724  14.949
69424W        W36492   7.404  10.792  11.572
69425W        W36493  18.606  29.505   2.663
69426W        W36494  36.081   5.732  10.491
69427W        W36495   0.364   4.726  12.485
69428W        W36496  12.830  26.505  11.946
69429W        W36497  14.663  14.755   4.832
69430W        W36498  10.659  10.306  14.898
69431W        W36499  41.038  13.607  12.844
69432W        W36500  27.640  38.834  14.863
69433W        W36501  31.639  44.770   3.275
69434W        W36502  17.136  42.879  14.979
69435W        W36503  35.563  15.293   2.673
69436W        W36504  23.989  30.017   1.777
69437W        W36505  28.107  25.978  14.912
69438W        W36506   1.255  30.161   4.124
69439W        W36507  23.620   0.352  12.907
69440W        W36508   3.421  24.676  12.491
69441W        W36509  10.838  36.873  12.971
69442W        W36510  37.466  14.272  12.001
69443W        W36511  29.009  33.984  13.420
69444W        W36512   3.842  44.429  10.131
69445W        W36513   5.276  36.913  13.321
69446W        W36514  34.090  30.487   3.357
69447W        W36515  33.018  26.625   2.408
69448W        W36516  14.289  43.838  14.835
69449W        W36517  32.564  31.963  12.077
69450W        W36518   7.840   2.744   1.764
69451W        W36519   9.272  18.681  12.090
69452W        W36520   7.171  17.592   0.745
69453W        W36521  30.633  15.618  10.485
69454W        W36522  24.605  43.457  11.057
69455W        W36523  31.644  24.590  10.594
69456W        W36524  30.520  33.543   2.858
69457W        W36525  40.331   9.271   4.787
69458W        W36526  31.104  29.999  12.570
69459W        W36527  42.401   2.240   3.384
69460W        W36528  40.048  12.285  13.981
69461W        W36529  14.831  33.536  11.424
69462W        W36530  28.121  13.611   3.855
69463W        W36531  29.962  26.632  12.850
69464W        W36532   5.930   9.657   0.443
69465W        W36533  26.019  39.904   4.284
69466W        W36534  12.729   6.714  13.466
69467W        W36535   6.229  30.617  10.595
69468W        W36536  33.435  19.208   1.409
69469W        W36537   2.456  13.319   4.173
69470W        W36538  32.611   9.151  14.315
69471W        W36539  43.930  26.686  14.499
69472W        W36540  28.640  35.923   4.631
69473W        W36541  17.560   2.435  12.462
69474W        W36542  27.624  39.343   0.739
69475W        W36543  27.144  42.372  13.376
69476W        W36544  29.665  31.094  14.927
69477W        W36545  33.022  34.587   2.685
69478W        W36546  20.573  43.799   1.868
69479W        W36547  26.652  10.254  11.587
69480W        W36548  34.890  40.311   1.757
69481W        W36549  39.431  24.065   0.417
69482W        W36550  21.734   4.341   2.823
69483W        W36551  43.922  16.171  13.414
69484W        W36552  10.657   2.285   2.228
69485W        W36553   4.432  26.563   1.844
69486W        W36554  44.818  37.076   4.732
69487W        W36555  27.137  42.928  13.962
69488W        W36556  39.977  26.061  13.407
69489W        W36557  38.427   7.344   1.376
69490W        W36558   5.934  27.078  11.954
69491W        W36559  27.691   4.375  12.015
69492W        W36560   6.417  23.179   2.283
69493W        W36561  23.631  22.730  12.849
69494W        W36562  27.138   7.697  11.044
69495W        W36563  38.414  41.796  12.087
69496W        W36564  44.296  31.153   1.418
69497W        W36565  15.299   4.380   2.841
69498W        W36566  25.134  27.966   5.246
69499W        W36567  12.255  35.555  11.414
69500W        W36568  11.773  35.885   0.326
69501W        W36569  20.160  37.084   1.297
69502W        W36570  28.492  38.460  12.427
69503W        W36571   6.383  22.149  11.384
69504W        W36572  34.380  32.528   1.753
69505W        W36573  23.147  17.155   2.281
69506W        W36574  12.730  13.161   1.710
69507W        W36575  21.038  39.992   3.223
69508W        W36576   3.447  33.469   5.093
69509W        W36577  44.328  13.696   3.382
69510W        W36578  32.519  15.823   5.153
69511W        W36579   9.342  43.294  11.564
69512W        W36580  41.355  10.803  10.911
69513W        W36581   2.237  18.751   2.285
69514W        W36582   5.373  26.204  14.293
69515W        W36583  10.734  20.174   4.222
69516W        W36584   1.966  18.294  10.587
69517W        W36585  40.430  42.946  14.408
69518W        W36586  17.623   1.251  12.527
69519W        W36587  17.099  18.654  13.955
69520W        W36588  31.644  24.708   4.279
69521W        W36589   8.282  36.998   3.382
69522W        W36590  37.475  38.004   3.647
69523W        W36591  22.723  28.995   2.708
69524W        W36592   4.924  11.655  12.448
69525W        W36593  27.139  36.417  13.802
69526W        W36594   8.770  34.411  14.906
69527W        W36595  33.580  18.631  10.466
69528W        W36596  14.296  40.322  14.918
69529W        W36597  17.289  41.005   3.172
69530W        W36598  37.418  26.659   4.689
69531W        W36599  41.885  38.363   3.698
69532W        W36600  11.195  38.501   3.315
69533W        W36601  22.519  12.183   2.662
69534W        W36602  41.308  12.272   3.817
69535W        W36603  41.024  22.670   0.393
69536W        W36604  12.713  24.666   2.691
69537W        W36605  15.766  18.557  11.989
69538W        W36606  26.080  34.570   1.839
69539W        W36607   2.267  35.105   3.634
69540W        W36608  24.210  15.177  14.978
69541W        W36609  22.572  32.592  14.821
69542W        W36610  28.983   7.687   4.836
69543W        W36611  35.397  10.269   1.434
69544W        W36612  38.450  32.896   4.700
69545W        W36613  29.083  24.580  13.822
69546W        W36614   6.252   4.325  13.906
69547W        W36615  19.093  33.986   4.318
69548W        W36616  20.051  20.554   1.354
69549W        W36617  28.456   1.292   2.824
69550W        W36618   8.176  10.650   3.319
69551W        W36619  39.037   9.806   2.300
69552W        W36620  24.685  30.145  14.954
69553W        W36621  41.531  15.269  13.947
69554W        W36622  24.005  43.008  11.465
69555W        W36623   4.866  34.481  13.378
69556W        W36624  16.276  41.344  12.837
69557W        W36625  10.851  15.816   1.885
69558W        W36626   4.218  35.989   0.729
69559W        W36627   5.702  24.031   0.412
69560W        W36628   2.750  24.505  13.898
69561W        W36629  21.022  39.951  10.966
69562W        W36630   8.333  13.836  10.899
69563W        W36631  40.981  12.140  14.351
69564W        W36632  40.481  25.705   1.278
69565W        W36633   8.896  38.067   1.254
69566W        W36634  19.538  18.104   1.406
69567W        W36635  31.957  44.816   0.874
69568W        W36636  11.192  13.286   0.376
69569W        W36637  27.466  30.555   1.261
69570W        W36638   7.823  40.388   4.804
69571W        W36639  31.094  18.549  12.955
69572W        W36640  35.005  36.412  11.930
69573W        W36641  28.031  41.387   0.821
69574W        W36642  12.761  39.895  11.380
69575W        W36643  33.042  24.148   2.825
69576W        W36644  14.137  11.266  10.598
69577W        W36645   3.360   1.433   3.729
69578W        W36646  33.430  24.212   4.193
69579W        W36647  17.305  19.234   1.261
69580W        W36648  12.827   1.794   0.382
69581W        W36649  40.372  40.361  14.823
69582W        W36650  21.656   7.327   1.695
69583W        W36651  24.190  27.018  13.919
69584W        W36652  27.120   3.725   0.787
69585W        W36653  26.636   9.373   4.252
69586W        W36654   2.444   3.229   3.362
69587W        W36655  18.106   8.713  14.447
69588W        W36656   1.750  41.042  13.362
69589W        W36657  12.307  44.866   4.167
69590W        W36658  17.583  13.685  11.443
69591W        W36659  15.140  14.805  12.065
69592W        W36660  29.464  24.717  11.054
69593W        W36661  35.972   0.389  14.380
69594W        W36662   1.772  43.490  14.448
69595W        W36663  30.568   0.443   2.402
69596W        W36664  21.567  11.806  11.513
69597W        W36665  41.519   7.864  12.845
69598W        W36666  17.213   2.738   3.214
69599W        W36667  19.118  32.038   2.262
69600W        W36668  17.073  28.025   2.215
69601W        W36669  18.066   7.781  14.488
69602W        W36670  30.000  24.229  12.372
69603W        W36671  41.919  26.207  11.953
69604W        W36672  24.700  28.520   2.895
69605W        W36673  41.042  16.179  12.423
69606W        W36674  34.589  32.032  13.411
69607W        W36675  19.584   9.814   3.229
69608W        W36676  16.631  18.052   3.338
69609W        W36677  13.784   0.388   0.389
69610W        W36678  10.229  37.538  11.565
69611W        W36679  14.320  13.298  13.368
69612W        W36680  37.368  40.428   2.185
69613W        W36681  12.643  11.302  13.012
69614W        W36682  16.587  25.210   1.707
69615W        W36683  24.483  24.216   0.417
69616W        W36684   3.799  17.165  14.302
69617W        W36685  44.409  41.458  13.486
69618W        W36686  31.069  16.230   1.377
69619W        W36687  36.478  32.418  11.082
69620W        W36688  38.946  21.187  11.963
69621W        W36689   2.247  41.304  13.354
69622W        W36690  12.188  38.411   3.167
69623W        W36691  38.903   3.867   2.255
69624W        W36692   9.310  29.117  14.474
69625W        W36693  41.500  42.870   4.226
69626W        W36694  30.031   9.884  14.830
69627W        W36695  26.465   3.882   0.852
69628W        W36696   0.273  22.611   0.880
69629W        W36697   9.861   0.960   0.799
69630W        W36698  15.157  34.061   0.838
69631W        W36699  40.887  13.629  13.907
69632W        W36700  34.480  29.097  14.331
69633W        W36701  28.529  21.747  10.987
69634W        W36702   2.347  26.102   2.251
69635W        W36703   4.841   2.943  14.434
69636W        W36704  31.034  41.532  14.432
69637W        W36705  21.537  31.488   0.259
69638W        W36706  44.305  41.313  13.949
69639W        W36707   2.790   1.298  12.478
69640W        W36708  17.164  29.450  12.537
69641W        W36709   6.858  12.755  14.848
69642W        W36710   5.848  30.934  13.025
69643W        W36711   7.414  44.002  12.998
69644W        W36712   2.923  33.380  13.900
69645W        W36713  39.063   9.655  13.884
69646W        W36714   8.249  14.752  14.472
69647W        W36715  42.361  22.725  11.541
69648W        W36716  26.024   0.824   1.252
69649W        W36717  11.291  26.699  10.061
69650W        W36718  34.531  25.168  10.919
69651W        W36719  20.659  42.337   1.844
69652W        W36720  27.690   8.236  13.829
69653W        W36721  29.920   8.671   2.661
69654W        W36722  10.249  29.435  13.851
69655W        W36723   0.749   7.858   1.770
69656W        W36724   6.684   9.156   1.826
69657W        W36725  25.473  40.804   1.796
69658W        W36726  13.630   0.937   3.746
69659W        W36727  35.527   5.262  12.489
69660W        W36728   5.271   0.833  12.046
69661W        W36729  12.622  22.619  10.503
69662W        W36730  40.508  29.658  13.040
69663W        W36731  20.633  37.029   3.179
69664W        W36732  42.388   7.712   3.344
69665W        W36733  28.016  41.407   4.351
69666W        W36734  35.452  43.993   3.739
69667W        W36735  30.041   6.245  14.799
69668W        W36736  16.235   8.383  14.949
69669W        W36737   7.766  37.901  11.411
69670W        W36738  39.001  23.164  11.601
69671W        W36739  28.063  35.558  13.879
69672W        W36740  22.087  21.649   4.759
69673W        W36741  25.629   2.824   3.669
69674W        W36742   8.716  34.581   1.329
69675W        W36743  36.392  39.336  11.442
69676W        W36744  12.851  25.491  14.419
69677W        W36745  43.330  10.867  13.869
69678W        W36746  36.489   5.199  14.818
69679W        W36747  14.685   2.406   3.818
69680W        W36748  18.626  40.407   1.882
69681W        W36749   0.428  37.360  11.005
69682W        W36750  25.597   5.333   4.124
69683W        W36751  31.932   9.362  11.441
69684W        W36752  12.857   2.754  14.504
69685W        W36753  19.761   6.915   3.264
69686W        W36754  14.734   4.347  11.505
69687W        W36755   4.449  28.564   0.924
69688W        W36756  18.682  10.780   4.209
69689W        W36757  41.998   0.414  11.595
69690W        W36758  34.039  15.237   4.694
69691W        W36759  15.649   9.229  12.948
69692W        W36760  17.573  15.149   3.818
69693W        W36761  35.573  10.747   1.347
69694W        W36762  24.649   3.414   5.181
69695W        W36763  23.491  43.909   2.240
69696W        W36764  27.602  16.799   3.726
69697W        W36765   7.714  40.820   1.413
69698W        W36766  10.155   8.216  13.797
69699W        W36767   2.471  13.644   0.280
69700W        W36768  38.531  39.927  10.922
69701W        W36769  40.013  37.478  12.906
69702W        W36770  34.975  35.096  12.574
69703W        W36771  39.900  10.202   3.236
69704W        W36772  15.806  33.594   0.327
69705W        W36773  12.824  35.925   3.733
69706W        W36774  16.706  31.406  12.437
69707W        W36775  10.816  37.896  13.967
69708W        W36776   9.780   4.349  10.411
69709W        W36777  38.903  12.800   4.759
69710W        W36778  15.127  37.879   2.409
69711W        W36779  19.695  18.237  14.322
69712W        W36780  33.514  28.956   1.386
69713W        W36781   4.724  17.153  11.458
69714W        W36782  25.073   0.273   4.226
69715W        W36783   0.847  15.690   5.123
69716W        W36784   0.467  20.714  11.426
69717W        W36785  21.729  42.997   2.393
69718W        W36786  12.216   4.702   1.374
69719W        W36787  23.111  20.632   4.805
69720W        W36788   1.807  26.683  11.950
69721W        W36789  36.401  37.067  12.082
69722W        W36790  21.092  26.479   2.394
69723W        W36791  42.920  16.763   2.890
69724W        W36792  19.551  16.778   0.463
69725W        W36793   7.274   0.753   4.120
69726W        W36794   9.654  39.524   4.666
69727W        W36795  10.318  21.527   4.772
69728W        W36796  31.627  22.231   3.347
69729W        W36797  18.121  18.197   1.274
69730W        W36798  11.823  17.284   5.316
69731W        W36799   5.915  28.635  11.103
69732W        W36800  14.265  23.568  13.871
69733W        W36801  20.154  12.143  14.474
69734W        W36802  15.776  22.057   1.275
69735W        W36803  21.737   3.223   2.818
69736W        W36804   3.238   3.226  12.857
69737W        W36805  23.627  24.612   4.244
69738W        W36806  40.457  20.678   1.294
69739W        W36807  23.991  13.263   1.390
69740W        W36808   6.398  42.012  13.016
69741W        W36809   3.770  26.471  14.880
69742W        W36810  10.322  30.115  14.313
69743W        W36811   6.338  43.296  11.866
69744W        W36812   6.880   8.257  14.376
69745W        W36813  37.840  16.573  11.055
69746W        W36814  43.942  35.561  11.478
69747W        W36815  43.360   8.396   0.413
69748W        W36816  19.638  32.628  14.851
69749W        W36817   8.394  17.078   0.825
69750W        W36818   9.377  32.898   0.870
69751W        W36819  12.174  29.131   0.793
69752W        W36820  14.758  10.272   5.205
69753W        W36821  38.998  17.612   2.879
69754W        W36822  32.081  23.115  11.080
69755W        W36823  24.725  34.952   2.845
69756W        W36824  21.263  37.530   0.385
69757W        W36825  35.968  21.029  13.939
69758W        W36826   0.365  30.919  11.969
69759W        W36827  38.407  21.755   1.829
69760W        W36828   7.265  40.039  11.574
69761W        W36829  41.894  32.899  12.915
69762W        W36830  18.090   4.307   2.806
69763W        W36831  40.949  41.856   4.193
69764W        W36832  22.617  42.992  14.004
69765W        W36833  31.963   0.921   3.771
69766W        W36834  12.239   8.681   1.370
69767W        W36835  43.974  16.578   2.732
69768W        W36836  19.139  21.618  14.841
69769W        W36837  35.604  27.145   4.295
69770W        W36838  27.183  29.568   3.298
69771W        W36839  15.151  28.509  11.038
69772W        W36840   3.412  31.124  11.571
69773W        W36841  17.560  35.105  14.968
69774W        W36842  17.133  27.610   4.712
69775W        W36843  41.341  35.099  13.907
69776W        W36844  42.390   3.436   4.205
69777W        W36845  43.386  30.028  13.024
69778W        W36846  10.815   9.241  11.527
69779W        W36847  13.784  38.986   2.197
69780W        W36848  42.865  35.968   1.310
69781W        W36849  16.672  35.444  13.799
69782W        W36850  27.541   2.328  12.844
69783W        W36851  40.440  28.583   2.798
69784W        W36852  40.893  36.476   1.248
69785W        W36853  17.683   4.767   3.853
69786W        W36854  20.068  34.934   1.930
69787W        W36855  24.584  42.468  11.947
69788W        W36856  44.304   3.289   2.810
69789W        W36857  22.227  36.565   2.870
69790W        W36858  19.704  16.579   3.670
69791W        W36859   9.367  11.659  14.441
69792W        W36860   3.712  14.747  14.858
69793W        W36861  21.068  29.443  13.889
69794W        W36862  44.846  15.650  11.955
69795W        W36863  30.144   4.423  13.321
69796W        W36864   1.956  22.018  11.569
69797W        W36865  18.560  33.109  14.864
69798W        W36866  23.185   2.741   2.376
69799W        W36867  37.959   0.767   3.806
69800W        W36868   9.244   0.806   4.195
69801W        W36869  24.207  37.374  11.538
69802W        W36870  32.961  39.438  14.448
69803W        W36871   1.913   4.799  11.122
69804W        W36872  24.215   5.369  14.291
69805W        W36873  12.193  15.588  12.397
69806W        W36874  27.577  34.539   2.732
69807W        W36875  35.069  13.249  14.891
69808W        W36876  33.009  23.669   1.369
69809W        W36877  27.604  20.086  12.544
69810W        W36878  39.045   1.932  11.551
69811W        W36879  18.731  31.042  10.002
69812W        W36880  42.895  35.554   0.743
69813W        W36881   7.186   2.818  12.444
69814W        W36882  11.654  28.163   3.362
69815W        W36883   2.467  21.597   0.283
69816W        W36884  36.969  32.000   4.817
69817W        W36885   3.329  20.148  11.019
69818W        W36886  38.402  23.109  14.423
69819W        W36887  40.916  41.829   3.343
69820W        W36888  10.317   4.938  13.356
69821W        W36889  43.875  14.280   1.266
69822W        W36890  34.962   4.796   2.795
69823W        W36891  16.278  39.363   3.296
69824W        W36892  44.771   0.940  14.295
69825W        W36893  44.808  32.978  11.907
69826W        W36894  14.699  14.791  12.830
69827W        W36895  16.686  23.521  12.905
69828W        W36896   4.913  39.426   0.387
69829W        W36897  38.968  19.097   2.337
69830W        W36898  33.403   6.837   2.378
69831W        W36899   5.356   7.295   1.261
69832W        W36900  42.963   1.761  14.878
69833W        W36901   9.662  34.518   4.837
69834W        W36902  41.850  27.507  11.484
69835W        W36903   3.457  12.613  10.643
69836W        W36904  24.479  30.654   4.656
69837W        W36905   3.376  33.048   1.345
69838W        W36906  16.305  14.266  10.529
69839W        W36907  43.931  15.626  13.539
69840W        W36908  24.620  16.151   2.233
69841W        W36909   5.205  30.125   2.313
69842W        W36910  34.601   4.786  14.803
69843W        W36911  44.380  10.321  13.462
69844W        W36912   5.787  17.665   1.838
69845W        W36913  17.157  32.122  10.142
69846W        W36914  43.898  38.335   3.700
69847W        W36915  43.813  27.948   3.784
69848W        W36916  39.987  42.946  11.974
69849W        W36917  39.022   3.841  13.963
69850W        W36918   3.215  19.175  10.902
69851W        W36919  36.377  42.498  13.348
69852W        W36920  37.838  17.148  12.877
69853W        W36921  43.877  16.169   1.263
69854W        W36922  10.792  12.300   1.345
69855W        W36923   9.229  21.164   0.910
69856W        W36924   0.335  40.958   0.360
69857W        W36925   5.357  23.164   0.882
69858W        W36926  41.930  26.607   3.775
69859W        W36927  11.225  35.091  12.997
69860W        W36928  16.296  34.550   2.887
69861W        W36929   0.826   2.955   1.311
69862W        W36930  15.125  15.096   1.297
69863W        W36931  17.287  32.605   3.209
69864W        W36932   8.694  23.178   2.405
69865W        W36933  13.141  17.271   1.914
69866W        W36934  23.117  29.517   4.336
69867W        W36935   4.924  44.294  14.472
69868W        W36936  14.662  31.419  13.871
69869W        W36937  18.783  32.048  10.643
69870W        W36938  24.544   5.699  12.053
69871W        W36939  42.007  24.140  11.979
69872W        W36940  40.040  27.483  11.416
69873W        W36941   5.738  33.913   2.191
69874W        W36942  17.111  15.126   1.905
69875W        W36943  12.824   1.760  14.871
69876W        W36944  32.040  28.170   3.721
69877W        W36945  21.032  13.725   3.706
69878W        W36946  36.877  15.672   2.191
69879W        W36947  29.574  26.054   2.700
69880W        W36948   5.304   3.333   4.233
69881W        W36949  29.482  10.246  11.588
69882W        W36950  27.610  20.235   3.228
69883W        W36951  29.156  13.620   0.962
69884W        W36952  36.444  22.603   2.853
69885W        W36953  36.031  21.722   2.701
69886W        W36954   2.916   8.188  10.624
69887W        W36955  11.258   2.268  11.921
69888W        W36956  40.322  28.492  12.846
69889W        W36957  23.135  11.866  12.012
69890W        W36958   7.173  21.722   1.426
69891W        W36959   4.762  28.527  13.311
69892W        W36960   6.826  16.075   1.399
69893W        W36961  26.564  38.951  11.925
69894W        W36962   9.793  35.401  11.903
69895W        W36963   5.777   5.714   0.791
69896W        W36964  41.789  22.055  10.922
69897W        W36965  36.002  16.278  10.490
69898W        W36966  40.863  12.744   4.645
69899W        W36967  37.021  39.403  14.490
69900W        W36968  32.468   4.348  10.434
69901W        W36969   2.436  42.972   2.831
69902W        W36970   5.377   3.848   1.237
69903W        W36971  29.438  35.358   9.989
69904W        W36972  19.670  14.665   2.832
69905W        W36973  16.304  19.041   5.655
69906W        W36974  27.474   7.866   2.742
69907W        W36975   2.289  41.350   4.730
69908W        W36976  33.934  10.143   0.941
69909W        W36977  41.874  20.176  13.498
69910W        W36978  22.706   3.225   2.357
69911W        W36979  29.664  36.933   1.935
69912W        W36980   7.228   0.491  10.527
69913W        W36981  26.170  25.590   3.725
69914W        W36982  31.908   8.712  11.113
69915W        W36983  32.609   7.331   0.902
69916W        W36984  18.136  27.192  14.505
69917W        W36985   7.312  36.503   1.795
69918W        W36986  15.164  38.825   4.122
69919W        W36987  16.226  43.971  14.832
69920W        W36988  37.075  40.943  13.858
69921W        W36989  18.192   4.429   0.387
69922W        W36990  37.945  25.604  13.329
69923W        W36991   6.310  18.062  11.914
69924W        W36992  14.339   4.805   3.305
69925W        W36993  35.526   1.407   3.741
69926W        W36994  34.383  16.612   4.157
69927W        W36995  28.674  17.180   0.876
69928W        W36996  25.660  16.688   4.696
69929W        W36997  23.094  36.468   0.838
69930W        W36998  13.297  23.656  11.544
69931W        W36999   4.921  21.647  14.499
69932W        W37000  16.710  13.742  11.584
69933W        W37001  11.744  37.864   2.410
69934W        W37002  15.282  34.062   4.342
69935W        W37003   4.408  28.127  11.128
69936W        W37004  27.942  36.900   0.463
69937W        W37005  18.545  44.421  13.865
69938W        W37006  29.944  44.896  10.497
69939W        W37007  32.938   4.827  14.947
69940W        W37008  39.945  36.019  13.379
69941W        W37009  37.022   9.718  13.501
69942W        W37010  31.456   3.818   3.345
69943W        W37011  15.113  20.747  11.089
69944W        W37012  11.370  27.565  14.875
69945W        W37013  33.464  24.681   4.285
69946W        W37014   9.652   8.199  14.483
69947W        W37015   3.244  43.500   5.231
69948W        W37016  35.591  18.197  12.874
69949W        W37017  38.497  27.979  14.908
69950W        W37018  42.468  32.038  13.340
69951W        W37019  29.433  22.547   4.334
69952W        W37020  41.820  15.121  14.912
69953W        W37021  25.048  16.115   0.248
69954W        W37022  25.128  36.977  12.538
69955W        W37023  26.204   7.201   2.773
69956W        W37024  29.070  17.285   2.265
69957W        W37025  23.693  17.081  12.367
69958W        W37026  38.942  31.616   2.312
69959W        W37027  19.734   1.802   4.692
69960W        W37028  41.430  43.299   0.455
69961W        W37029  43.271  19.279   0.793
69962W        W37030   4.776  14.678  14.312
69963W        W37031  31.637  44.843  11.461
69964W        W37032  32.127  15.738   5.230
69965W        W37033  12.717  31.467  13.064
69966W        W37034  25.157  29.522  12.011
69967W        W37035  26.681  19.090  13.049
69968W        W37036  12.156  15.625  12.003
69969W        W37037  26.015  24.509   0.255
69970W        W37038   2.340   0.289   0.922
69971W        W37039  44.283  38.372   0.357
69972W        W37040  19.092  39.984  11.496
69973W        W37041  19.729  39.419  12.523
69974W        W37042  18.679   7.412  13.976
69975W        W37043  16.162  37.954   3.375
69976W        W37044   9.795   5.871  11.111
69977W        W37045  44.311   5.354  13.345
69978W        W37046  20.606  29.107  14.900
69979W        W37047   5.770  34.517  13.514
69980W        W37048  37.985  26.651  12.856
69981W        W37049  27.686  18.059   0.466
69982W        W37050  38.847  21.566  13.833
69983W        W37051  43.488  20.042   3.366
69984W        W37052  21.530  11.349   4.251
69985W        W37053  21.758   8.275   3.273
69986W        W37054  34.595  19.709   1.746
69987W        W37055  40.372  25.008   4.316
69988W        W37056   0.904  19.599  14.375
69989W        W37057  30.616  32.096  10.994
69990W        W37058   9.649  35.946   1.247
69991W        W37059  13.749   9.812   3.256
69992W        W37060  27.188  24.714   0.862
69993W        W37061   5.193   5.282  14.419
69994W        W37062  35.997  22.716   2.378
69995W        W37063  10.363  16.293   0.865
69996W        W37064  42.781  13.735   0.944
69997W        W37065  38.347  37.520  13.807
69998W        W37066  39.469  28.091  12.348
69999W        W37067   6.329  34.104  10.946
70000W        W37068  43.359  40.508  14.469
70001W        W37069  23.231  36.396  12.478
70002W        W37070  14.758   2.353   3.351
70003W        W37071  27.011  39.018   4.633
70004W        W37072   6.232   8.317   4.701
70005W        W37073  43.857  38.905   0.449
70006W        W37074   3.890   0.872   3.325
70007W        W37075   5.805   4.868   1.785
70008W        W37076  21.180  12.787  10.895
70009W        W37077  22.088  27.070  14.778
70010W        W37078  15.775   0.980  11.895
70011W        W37079   4.221  42.872   3.282
70012W        W37080  38.422   0.898  11.963
70013W        W37081   9.265  20.737   4.773
70014W        W37082  27.592  14.801  12.531
70015W        W37083  35.867   3.853  14.024
70016W        W37084  16.714  20.687  13.978
70017W        W37085  43.859  21.572   3.343
70018W        W37086   2.319   7.400   3.351
70019W        W37087  28.449  11.792  10.931
70020W        W37088   4.708   5.420  14.357
70021W        W37089   6.749  17.077   2.400
70022W        W37090  42.847   7.263  10.927
70023W        W37091  32.404  26.466  13.970
70024W        W37092   1.337  41.004   0.866
70025W        W37093  31.015  12.356  14.978
70026W        W37094  21.224  22.631   2.891
70027W        W37095  16.217  43.271  12.456
70028W        W37096   4.822  16.696   0.893
70029W        W37097   0.842   3.307  12.550
70030W        W37098  43.480  17.713  14.918
70031W        W37099  34.573   2.813  12.988
70032W        W37100  22.672  19.224  12.386
70033W        W37101  20.608  18.231   1.401
70034W        W37102  23.693  42.007   0.348
70035W        W37103  15.211  40.018  12.086
70036W        W37104  39.867  31.974  11.487
70037W        W37105  36.545  33.397   2.896
70038W        W37106  39.394   2.227   4.122
70039W        W37107  25.700  13.680  10.467
70040W        W37108  40.488   2.892  10.483
70041W        W37109   8.401  41.819   1.411
70042W        W37110  31.001   6.711   0.387
70043W        W37111  16.298   9.298  12.996
70044W        W37112  41.038  35.106   4.644
70045W        W37113  24.510  24.574   0.424
70046W        W37114   8.879   8.809   0.294
70047W        W37115  25.013  13.110  12.039
70048W        W37116  13.149  27.681   4.774
70049W        W37117  38.333  32.057   0.920
70050W        W37118  24.067  12.183  14.956
70051W        W37119  23.239  23.124   1.324
70052W        W37120  12.786  42.523   2.846
70053W        W37121  21.221  18.718   4.164
70054W        W37122  37.023  35.088  14.866
70055W        W37123   1.892  20.133  12.443
70056W        W37124   9.394  15.657  13.916
70057W        W37125  16.720  22.135  10.996
70058W        W37126  14.623  14.251   4.708
70059W        W37127  25.512  22.193  14.443
70060W        W37128   1.427   8.761   2.361
70061W        W37129  22.509  43.902  14.505
70062W        W37130   6.693  33.027   0.357
70063W        W37131  35.099   1.278  14.390
70064W        W37132   3.382  36.920  10.498
70065W        W37133  30.013  27.054   2.319
70066W        W37134   5.832  16.213   5.244
70067W        W37135   0.405   4.306   1.219
70068W        W37136  39.032  41.807  13.338
70069W        W37137  18.234  20.256   4.687
70070W        W37138  10.636   1.348   1.731
70071W        W37139  20.745   2.838   3.669
70072W        W37140  25.136  31.129   1.448
70073W        W37141  17.207  21.724  11.438
70074W        W37142   5.880  42.524  12.388
70075W        W37143  34.474   5.808   1.447
70076W        W37144  15.776  19.074  11.422
70077W        W37145   3.932  22.581   3.802
70078W        W37146   2.307  40.981   2.677
70079W        W37147  42.522   6.378   1.825
70080W        W37148  36.370  10.169   0.310
70081W        W37149  34.492  34.544  10.409
70082W        W37150  41.494  30.460  13.507
70083W        W37151   0.799  22.615   1.260
70084W        W37152   5.701  14.214  10.502
70085W        W37153  40.917  23.583  10.591
70086W        W37154  28.443  41.991  10.462
70087W        W37155  23.500  40.420   3.821
70088W        W37156   3.878  24.159   1.266
70089W        W37157   2.939   7.886  14.007
70090W        W37158  36.502   4.731  12.040
70091W        W37159  38.379   8.766  12.964
70092W        W37160  40.435   2.956   3.199
70093W        W37161  33.600  33.439  13.484
70094W        W37162  17.797  21.690  12.914
70095W        W37163  29.150   8.211   3.205
70096W        W37164  33.088  38.395  13.992
70097W        W37165  33.902  15.638   2.860
70098W        W37166  17.152  23.058  12.008
70099W        W37167  10.315  16.722   4.692
70100W        W37168   9.820   2.768   2.328
70101W        W37169   7.244  25.614   1.259
70102W        W37170  29.475  36.980  13.967
70103W        W37171  10.749  43.876   2.841
70104W        W37172   1.899  34.958  14.909
70105W        W37173  33.387  12.316  13.898
70106W        W37174  41.034  34.893   1.328
70107W        W37175   1.791  18.053  13.908
70108W        W37176  30.526  11.698   1.713
70109W        W37177  11.279  11.303  14.506
70110W        W37178   5.315   9.738   4.736
70111W        W37179  13.770  34.376  10.550
70112W        W37180  24.540  28.655   0.335
70113W        W37181  20.151  31.497  10.472
70114W        W37182   0.345  15.649   4.292
70115W        W37183  39.494   2.413   2.333
70116W        W37184  35.987  23.045  12.861
70117W        W37185  35.585  27.501   0.425
70118W        W37186  33.560  11.773   1.395
70119W        W37187   9.814  35.568  10.465
70120W        W37188  36.429  27.179  13.812
70121W        W37189  33.033  28.143   2.309
70122W        W37190  12.634  30.526   1.262
70123W        W37191  18.265  39.485  12.942
70124W        W37192   3.778  42.909   4.282
70125W        W37193  35.904  31.549  14.946
70126W        W37194   6.875  30.475  11.460
70127W        W37195  28.628  12.145   3.841
70128W        W37196  16.574   0.463  11.066
70129W        W37197  32.529  25.042   1.327
70130W        W37198  17.798  27.566   3.247
70131W        W37199  26.690   5.230   0.855
70132W        W37200  17.083  28.145   5.278
70133W        W37201  16.615   3.317  13.055
70134W        W37202   0.790  34.511   2.848
70135W        W37203  14.795  25.594  14.965
70136W        W37204   7.879   3.245   0.726
70137W        W37205  13.189   3.269   4.175
70138W        W37206   0.747  38.997  13.518
70139W        W37207  16.791  17.255   0.257
70140W        W37208  31.515  39.498   4.127
70141W        W37209  11.269  35.899   3.208
70142W        W37210  40.889  22.185  10.917
70143W        W37211  10.830  26.086   0.831
70144W        W37212  14.262  12.155   3.382
70145W        W37213  31.934  10.739  12.408
70146W        W37214  27.447  35.458  14.450
70147W        W37215   6.302  18.079   2.824
70148W        W37216  38.023  40.896  13.966
70149W        W37217  41.402  25.158  14.449
70150W        W37218   5.297  13.636  11.489
70151W        W37219  37.474  24.552  13.926
70152W        W37220  15.608  12.634   3.707
70153W        W37221  37.381  17.187   2.336
70154W        W37222  19.725   6.316   3.657
70155W        W37223  21.062  42.417  13.345
70156W        W37224  33.073  22.124  14.490
70157W        W37225  40.808  20.152  11.484
70158W        W37226  12.347  16.079   1.767
70159W        W37227  20.705  32.982   2.705
70160W        W37228   1.735   2.270   2.697
70161W        W37229  10.636  41.859  14.310
70162W        W37230  21.712  16.292   2.866
70163W        W37231  21.555   5.354   0.941
70164W        W37232  33.492  29.527   2.750
70165W        W37233   2.424   1.815   2.715
70166W        W37234  29.120   4.365   2.318
70167W        W37235  26.133  24.082   4.834
70168W        W37236  15.697  43.852   4.253
70169W        W37237   4.233  42.466   3.160
70170W        W37238  32.488  37.831  12.020
70171W        W37239  33.386  28.105  13.017
70172W        W37240  18.212  14.180  11.527
70173W        W37241   7.762   2.226  12.417
70174W        W37242  11.660  38.937  14.895
70175W        W37243  37.901  43.833   2.753
70176W        W37244  21.131  42.851  11.898
70177W        W37245  36.421  17.664  11.444
70178W        W37246  44.964  34.882  14.295
70179W        W37247  30.615  43.510  14.364
70180W        W37248  33.574   5.858  10.960
70181W        W37249  27.636   5.410  13.387
70182W        W37250   0.419  17.188   3.359
70183W        W37251  28.007  27.940  14.280
70184W        W37252   6.844   4.839  11.889
70185W        W37253  13.716   7.708   3.782
70186W        W37254   6.406  10.311   1.236
70187W        W37255  30.086  40.861   0.401
70188W        W37256  40.975  10.224  11.407
70189W        W37257  37.507  21.566   1.233
70190W        W37258  39.009  35.548  10.915
70191W        W37259   1.406  23.001  10.992
70192W        W37260  29.019  10.340  12.068
70193W        W37261  20.678   5.217  13.377
70194W        W37262  31.094  40.543  12.545
70195W        W37263   4.869  13.305   1.901
70196W        W37264   1.744   9.379  11.561
70197W        W37265  35.556  23.065   4.175
70198W        W37266   0.399   1.731  10.516
70199W        W37267  39.510  16.127  14.319
70200W        W37268  27.509   9.293   1.774
70201W        W37269  43.865  10.848   1.797
70202W        W37270  26.566   8.277   0.840
70203W        W37271  28.011  21.158   3.218
70204W        W37272   3.266   1.284   2.358
70205W        W37273  20.555  12.832  10.924
70206W        W37274   3.937  36.985   4.123
70207W        W37275  18.665  34.963  14.504
70208W        W37276  32.598  28.071  11.587
70209W        W37277  12.356   5.777   1.450
70210W        W37278  26.972  44.294   4.682
70211W        W37279  18.081  23.038  13.809
70212W        W37280  42.883   6.712  14.389
70213W        W37281  35.936  19.281  14.296
70214W        W37282  29.090   4.917  13.404
70215W        W37283  38.326   6.381   2.762
70216W        W37284  25.988  18.742  12.572
70217W        W37285   6.214  33.083  12.468
70218W        W37286  41.388  17.613   4.247
70219W        W37287   2.749  41.818  11.906
70220W        W37288  41.831  17.093  10.429
70221W        W37289  14.298  42.526   2.191
70222W        W37290  41.857   1.924   2.804
70223W        W37291  44.764  41.988   0.761
70224W        W37292  37.952   5.754  13.353
70225W        W37293   0.398  13.136  11.446
70226W        W37294  16.707  41.414  11.403
70227W        W37295   9.180  16.645   0.790
70228W        W37296   0.841  34.077  14.966
70229W        W37297   8.237   1.971  14.769
70230W        W37298  32.401  34.522   1.375
70231W        W37299  30.488  34.061   3.194
70232W        W37300   0.841  32.022  10.429
70233W        W37301  35.598  15.603   0.356
70234W        W37302  16.162  31.493   2.695
70235W        W37303   6.742   1.334   2.869
70236W        W37304  37.849  22.518   0.962
70237W        W37305   0.426  37.576   0.452
70238W        W37306  37.057  37.953  11.420
70239W        W37307  33.085   1.440  12.985
70240W        W37308  41.883   7.225  13.963
70241W        W37309  43.452   5.367   2.680
70242W        W37310  23.001   1.474  12.983
70243W        W37311  19.704  35.069  11.116
70244W        W37312  26.161   9.690  12.986
70245W        W37313  44.487  27.092  12.036
70246W        W37314  16.196  12.350   5.733
70247W        W37315  29.575  31.090  14.370
70248W        W37316  23.676   1.866  11.942
70249W        W37317  29.461   4.251  14.001
70250W        W37318  41.797  19.225  13.539
70251W        W37319  22.569  10.674   1.825
70252W        W37320  40.487   2.857   1.724
70253W        W37321  15.298  33.576  10.910
70254W        W37322  42.289  44.260  10.545
70255W        W37323   7.297   7.233   4.820
70256W        W37324  22.055   6.308  14.511
70257W        W37325  38.387   9.347  13.486
70258W        W37326  22.234  36.359  14.280
70259W        W37327  12.728  39.056  10.936
70260W        W37328   2.341  22.533   0.294
70261W        W37329  34.528   2.434   2.815
70262W        W37330  40.533  28.000  12.853
70263W        W37331   6.773  13.325  11.092
70264W        W37332   8.768  38.837  13.983
70265W        W37333  35.871  20.230  13.036
70266W        W37334  18.623  21.150  13.335
70267W        W37335   1.355  27.046   0.820
70268W        W37336  30.525  18.142   1.919
70269W        W37337  35.448  41.337   0.377
70270W        W37338  17.697  41.010  12.848
70271W        W37339  18.197  27.605   3.766
70272W        W37340  40.885  38.042   1.259
70273W        W37341  13.788  13.176   4.213
70274W        W37342  38.491   3.389   4.259
70275W        W37343  19.756  15.681   0.311
70276W        W37344  43.380  28.569   3.808
70277W        W37345  44.274   4.862  11.964
70278W        W37346  12.661   8.755   1.934
70279W        W37347  12.236  16.630   2.781
70280W        W37348  15.292  14.604   4.248
70281W        W37349  12.758  32.521   1.368
70282W        W37350  33.548  40.054  12.859
70283W        W37351   4.793  35.091  10.989
70284W        W37352   0.771  40.846   1.381
70285W        W37353  38.891  10.754   2.712
70286W        W37354  25.561  23.544  12.448
70287W        W37355   1.453  19.535   2.309
70288W        W37356  41.030  35.967   4.124
70289W        W37357  21.242  40.028  14.970
70290W        W37358   3.303  43.868  12.523
70291W        W37359  34.479  19.105   4.727
70292W        W37360   3.393  38.392  12.517
70293W        W37361   1.923  15.666   1.833
70294W        W37362  22.047  32.467   2.798
70295W        W37363   7.809  15.324  12.092
70296W        W37364  37.476   6.724   0.771
70297W        W37365  39.486  13.226  12.910
70298W        W37366  26.555  38.381   0.804
70299W        W37367  25.200   5.695  12.889
70300W        W37368  29.514  44.290   3.338
70301W        W37369  11.771  10.324  13.527
70302W        W37370   4.265  31.430  11.063
70303W        W37371  25.478  24.572  10.953
70304W        W37372  11.657  28.960   2.723
70305W        W37373  18.653  44.350   1.351
70306W        W37374  36.524  31.500  12.502
70307W        W37375  21.241  10.786   3.266
70308W        W37376  34.537  36.421   1.833
70309W        W37377  27.577  24.975   3.741
70310W        W37378  25.713  41.398  13.337
70311W        W37379  18.155  10.223   2.839
70312W        W37380   6.730  13.274  11.585
70313W        W37381  24.652  26.663  10.984
70314W        W37382  29.963  36.976   2.881
70315W        W37383  41.336   3.385   0.732
70316W        W37384  37.905  44.386  13.881
70317W        W37385  15.235  41.906   2.341
70318W        W37386  35.385  18.554   0.837
70319W        W37387  19.188  26.972  12.900
70320W        W37388  37.016  28.045   0.265
70321W        W37389   7.176  38.017   3.387
70322W        W37390  15.131  35.537  11.516
70323W        W37391   6.751  21.079  12.553
70324W        W37392  13.823  29.980   3.331
70325W        W37393  24.130  43.810  14.893
70326W        W37394   2.895  22.731  13.987
70327W        W37395  20.224  27.656   1.324
70328W        W37396  12.145  20.104   0.436
70329W        W37397  22.715  37.017   4.182
70330W        W37398   6.407   5.866  12.911
70331W        W37399  28.042  10.232   0.253
70332W        W37400  23.114  18.172   2.823
70333W        W37401  29.617  31.913   2.789
70334W        W37402  31.489   7.780   2.299
70335W        W37403  33.594  44.367   4.300
70336W        W37404  38.918  24.127   2.198
70337W        W37405   2.721  44.835  12.990
70338W        W37406   6.750  20.049  14.799
70339W        W37407   9.695  41.982  12.959
70340W        W37408  38.868  10.193   3.246
70341W        W37409   0.469  16.134   0.336
70342W        W37410  37.937  13.248  11.046
70343W        W37411  35.578  11.718   0.935
70344W        W37412   7.362  31.124  12.053
70345W        W37413  36.022  16.575   1.365
70346W        W37414  12.731  40.359   1.282
70347W        W37415  15.114  21.237   3.748
70348W        W37416  29.062   3.763  13.816
70349W        W37417  37.981   3.407   4.697
70350W        W37418  42.944  35.488  14.879
70351W        W37419  21.659  26.118   0.356
70352W        W37420  27.038  23.641  11.506
70353W        W37421   2.413  33.130   5.737
70354W        W37422  43.918   6.231   2.216
70355W        W37423  36.060  12.120  13.059
70356W        W37424   8.864   9.253  14.841
70357W        W37425   6.185  15.218   3.363
70358W        W37426  27.517   1.463   3.806
70359W        W37427  31.623  42.508  14.405
70360W        W37428  10.684  28.074   3.347
70361W        W37429  18.258  28.179  11.455
70362W        W37430  19.279  25.182   0.814
70363W        W37431  44.917  34.580  12.977
70364W        W37432  35.870  32.422  14.437
70365W        W37433  14.693   5.312   1.366
70366W        W37434  44.457  25.614  13.851
70367W        W37435  44.334   1.738  10.458
70368W        W37436   7.212  32.637  14.805
70369W        W37437  30.465   9.242   1.292
70370W        W37438  11.817  44.406   3.290
70371W        W37439  42.475  37.927  12.377
70372W        W37440  11.157  10.681   3.333
70373W        W37441  16.222  21.049   1.859
70374W        W37442   5.836  11.721  13.014
70375W        W37443  43.925  19.178  13.843
70376W        W37444   8.337  17.572   3.361
70377W        W37445  42.991  38.864   0.314
70378W        W37446   4.876  28.640  11.960
70379W        W37447  29.932   7.807   2.668
70380W        W37448  16.140  29.003  11.488
70381W        W37449  35.068  33.127   4.278
70382W        W37450   6.825  27.009   1.730
70383W        W37451   7.770  23.510  10.612
70384W        W37452  16.660  17.306   2.769
70385W        W37453   4.918  40.482  11.499
70386W        W37454  40.426  38.428  11.525
70387W        W37455  26.953  24.677  10.464
70388W        W37456   7.326  21.249  14.508
70389W        W37457  16.256  33.908  12.417
70390W        W37458  28.098  22.515  12.014
70391W        W37459  28.489   6.746   0.763
70392W        W37460   6.680  33.928  14.388
70393W        W37461  25.621  39.057  11.928
70394W        W37462  39.876  10.288  10.610
70395W        W37463  10.839  34.078  11.986
70396W        W37464  32.494  22.502  10.473
70397W        W37465  16.747  29.592   3.820
70398W        W37466   1.323  12.327  11.047
70399W        W37467  36.413  36.464   3.367
70400W        W37468   1.855  11.215   0.324
70401W        W37469  19.064  27.627   0.306
70402W        W37470   9.889  23.022   0.943
70403W        W37471   7.411  40.419  13.054
70404W        W37472   2.811  36.984  13.476
70405W        W37473  43.005  21.118   2.843
70406W        W37474  17.659   2.911   2.346
70407W        W37475  13.251   5.390  11.952
70408W        W37476  33.394  13.266   2.752
70409W        W37477   8.301  17.264  10.463
70410W        W37478  44.425  28.651   0.303
70411W        W37479   2.838  35.360   4.303
70412W        W37480  10.149  16.276  13.875
70413W        W37481  26.051   0.773  13.007
70414W        W37482  24.190   7.391  12.003
70415W        W37483   0.838   9.178   2.868
70416W        W37484   9.874  38.519   2.731
70417W        W37485   5.207  31.899  12.879
70418W        W37486  12.637   0.429   4.277
70419W        W37487  19.708  36.528  13.059
70420W        W37488  33.911   8.659  14.955
70421W        W37489   8.831   3.809  10.433
70422W        W37490  37.363  10.286  11.502
70423W        W37491   1.312  36.406   0.752
70424W        W37492   0.352   6.907   2.201
70425W        W37493  39.404  39.863   4.116
70426W        W37494  17.153   8.751   0.942
70427W        W37495  36.538  33.435   3.820
70428W        W37496   2.316  16.089   0.880
70429W        W37497  11.373  35.506   1.377
70430W        W37498  21.135  40.359  12.459
70431W        W37499  24.628  33.918   4.805
70432W        W37500   4.828  37.476   0.454
70433W        W37501  35.400  40.463   2.262
70434W        W37502  35.569  13.225   2.899
70435W        W37503   0.807  18.209   4.196
70436W        W37504  28.941   6.778   1.225
70437W        W37505  37.926  26.530   0.321
70438W        W37506   4.422  23.153   2.321
70439W        W37507  28.678  29.450   0.830
70440W        W37508   3.890  13.769   4.779
70441W        W37509   7.404  18.113   3.862
70442W        W37510  18.644  27.080   4.607
70443W        W37511  13.761   3.392   0.749
70444W        W37512   9.769  11.234   3.671
70445W        W37513   1.378  39.313   1.833
70446W        W37514  37.350  43.002  12.896
70447W        W37515   9.882  34.579   3.630
70448W        W37516  12.760   9.695  11.925
70449W        W37517   6.419  31.580   2.703
70450W        W37518  19.148   9.705  10.563
70451W        W37519   7.220  39.823   4.298
70452W        W37520  24.696  30.982  10.967
70453W        W37521   9.799  18.178  14.404
70454W        W37522  28.661  33.954  13.502
70455W        W37523  14.157  39.356   2.196
70456W        W37524  29.151  32.465   4.123
70457W        W37525  37.513   4.924  10.411
70458W        W37526  33.504   5.274   2.830
70459W        W37527   4.448  14.767  10.638
70460W        W37528  42.909  27.186   3.733
70461W        W37529  12.124  13.784   3.373
70462W        W37530   4.223   0.353  13.396
70463W        W37531  11.326  39.466  11.080
70464W        W37532  38.422  33.132  11.556
70465W        W37533  19.577  10.190  11.987
70466W        W37534  38.486  38.023  14.411
70467W        W37535  10.320  25.543  12.935
70468W        W37536  33.417  26.106   3.654
70469W        W37537  17.787   7.319   3.352
70470W        W37538  34.443  14.132   2.414
70471W        W37539   8.234  36.056  14.964
70472W        W37540  18.090  31.553   2.852
70473W        W37541  16.101  20.654  11.896
70474W        W37542  34.946  11.666  13.907
70475W        W37543   6.683  25.708   1.335
70476W        W37544  25.084  42.800  11.456
70477W        W37545  17.245  34.069  14.376
70478W        W37546  34.957  11.631  12.515
70479W        W37547  21.262  12.642  10.458
70480W        W37548  40.315   6.744   4.650
70481W        W37549  38.937  23.024  10.049
70482W        W37550  12.348   1.295   4.673
70483W        W37551  30.637  26.998  14.355
70484W        W37552   4.243  26.682  13.546
70485W        W37553   9.797  15.609   4.700
70486W        W37554  34.414  30.016  14.946
70487W        W37555  41.967   2.283   2.769
70488W        W37556  44.760  11.280  13.010
70489W        W37557  20.229  44.350   0.771
70490W        W37558  15.164  10.639   9.949
70491W        W37559  35.485  21.660  13.521
70492W        W37560  32.481  33.962   2.671
70493W        W37561   3.886  38.392  12.465
70494W        W37562  23.695  34.888  10.464
70495W        W37563  15.103  16.741   1.431
70496W        W37564   6.807   7.714   0.874
70497W        W37565  25.132   5.411  11.544
70498W        W37566  35.937  40.024   2.209
70499W        W37567  35.530   4.297   3.254
70500W        W37568  37.362  42.805   3.659
70501W        W37569   5.225  43.006  14.989
70502W        W37570  38.922   5.346   0.411
70503W        W37571  24.073  42.785   1.258
70504W        W37572  21.646  44.965   3.777
70505W        W37573  29.922   4.266   1.761
70506W        W37574  11.774  12.661   2.308
70507W        W37575   7.179  25.132   0.378
70508W        W37576  33.012  29.934  10.621
70509W        W37577  13.187   0.953  13.418
70510W        W37578  44.004   7.184   1.294
70511W        W37579  24.107   3.712   1.267
70512W        W37580  19.568  25.111   1.374
70513W        W37581  36.882  29.058   4.741
70514W        W37582   3.268   8.669  13.513
70515W        W37583   8.725  25.592  11.089
70516W        W37584  44.002  34.940   2.240
70517W        W37585  39.043  13.757   0.420
70518W        W37586  23.666   3.299  10.950
70519W        W37587  12.696  16.633   3.649
70520W        W37588  20.245   0.953   0.340
70521W        W37589  35.380  15.736  14.844
70522W        W37590  19.082  35.491   1.857
70523W        W37591  17.734  27.953  12.064
70524W        W37592   7.904  24.619   2.736
70525W        W37593  17.748  13.722   4.736
70526W        W37594  41.439   7.300  14.815
70527W        W37595   3.911  35.457   0.459
70528W        W37596   8.293   5.780   1.729
70529W        W37597  39.537  33.580  11.503
70530W        W37598   8.843  13.131  12.019
70531W        W37599  18.226   3.309  11.034
70532W        W37600  34.503  25.129   1.357
70533W        W37601  32.116   0.313  10.971
70534W        W37602  14.256   8.853   3.761
70535W        W37603  44.408  23.155   9.933
70536W        W37604   6.736  29.642   2.775
70537W        W37605  36.922  38.004  13.461
70538W        W37606  24.998  44.958   4.614
70539W        W37607   5.202  32.466   3.643
70540W        W37608  32.508  25.682   1.397
70541W        W37609   9.712  38.462  12.509
70542W        W37610  39.336  44.364  11.093
70543W        W37611   6.231  39.966   0.266
70544W        W37612   2.847  31.480  14.398
70545W        W37613  27.629  27.687   3.165
70546W        W37614  19.747  18.618  12.578
70547W        W37615   0.478  10.845   0.895
70548W        W37616   9.742   4.917  10.965
70549W        W37617  39.950  13.726  12.352
70550W        W37618   4.324   4.437   0.333
70551W        W37619  10.182  29.523  12.084
70552W        W37620  29.630   8.264  10.964
70553W        W37621  44.497  26.024   3.862
70554W        W37622  30.580   8.191  14.844
70555W        W37623   6.408  31.081  14.013
70556W        W37624  39.868   3.441  14.773
70557W        W37625  11.839   8.268  10.572
70558W        W37626  17.066  14.111  13.476
70559W        W37627  17.643  24.151  10.943
70560W        W37628  31.137  17.709  14.840
70561W        W37629   5.225  29.482   4.253
70562W        W37630   4.763  41.376   0.768
70563W        W37631   8.851  12.617  11.510
70564W        W37632  24.036  17.152  11.047
70565W        W37633  23.546   6.428  11.064
70566W        W37634  29.047   5.296  10.597
70567W        W37635  35.384   5.274   3.711
70568W        W37636  10.663   5.415   3.673
70569W        W37637   9.666  41.870   4.639
70570W        W37638  38.552  20.150   4.221
70571W        W37639  31.986  15.595   4.229
70572W        W37640  36.569  20.151  14.440
70573W        W37641   6.414  30.584  12.564
70574W        W37642  40.810  39.502   4.220
70575W        W37643   4.206  27.966   1.881
70576W        W37644   9.796  36.575  14.295
70577W        W37645  18.640   1.772  10.612
70578W        W37646  31.559   2.891  11.573
70579W        W37647   4.881  10.259   1.709
70580W        W37648  18.070  11.845   0.756
70581W        W37649   0.393  35.002   0.367
70582W        W37650  20.162   9.852  11.069
70583W        W37651  30.071  31.966  13.023
70584W        W37652  34.002  35.875   0.957
70585W        W37653  10.668  10.763   4.725
70586W        W37654  32.096   8.880  13.988
70587W        W37655  10.654  21.748  12.422
70588W        W37656   2.386   4.350  13.478
70589W        W37657  17.176  28.178  13.404
70590W        W37658  12.838  40.878   2.184
70591W        W37659  18.606   9.214   2.789
70592W        W37660  23.044  30.980  11.387
70593W        W37661   0.352  31.485   1.348
70594W        W37662  42.947   3.818  12.941
70595W        W37663   2.737  24.486   3.687
70596W        W37664  37.076  25.691   0.455
70597W        W37665  10.754   5.360  12.524
70598W        W37666  39.971  43.494  11.907
70599W        W37667  34.932  40.972  12.443
70600W        W37668  34.019   9.169  11.020
70601W        W37669  32.608   1.802  11.382
70602W        W37670  35.393  38.550  11.031
70603W        W37671  18.612  14.755  13.933
70604W        W37672  44.796   8.253  10.464
70605W        W37673  14.288  23.001  11.377
70606W        W37674   4.233  10.674  12.831
70607W        W37675  39.426   3.289   0.855
70608W        W37676  30.938  10.236  14.292
70609W        W37677  42.793  17.683  12.016
70610W        W37678  31.942  22.664  12.518
70611W        W37679  35.519  44.264   1.415
70612W        W37680  44.489  36.066   3.154
70613W        W37681  36.927  10.160  10.042
70614W        W37682  37.573   9.329   3.152
70615W        W37683   3.246  36.411   4.689
70616W        W37684  26.533   0.750  10.554
70617W        W37685   5.265  18.155  13.865
70618W        W37686   2.966  32.410  12.014
70619W        W37687  23.068  34.415  11.951
70620W        W37688  20.269   0.867   0.740
70621W        W37689  19.745  30.943  14.001
70622W        W37690  42.861   8.709   1.837
70623W        W37691  25.028   4.277  12.050
70624W        W37692  18.609  19.570   3.163
70625W        W37693   3.302  25.581   1.261
70626W        W37694   5.418  13.702   1.441
70627W        W37695  28.460  10.653   4.693
70628W        W37696   7.833  12.662  12.000
70629W        W37697  30.425   0.774  13.402
70630W        W37698  27.482  30.469   0.734
70631W        W37699  11.162  24.011  13.448
70632W        W37700  44.928  42.859  11.474
70633W        W37701   2.249  36.010   2.412
70634W        W37702  33.016  38.926   3.820
70635W        W37703  16.786  16.160   0.371
70636W        W37704  35.379  41.475  11.099
70637W        W37705  31.590  41.412   1.791
70638W        W37706  25.076   3.787  14.770
70639W        W37707  17.764   4.229   0.924
70640W        W37708   1.798  10.201   0.803
70641W        W37709   4.260  31.095  13.844
70642W        W37710  14.608  15.614   4.708
70643W        W37711  35.478   9.352   1.818
70644W        W37712  36.356  13.780   2.900
70645W        W37713   3.749  30.636   0.785
70646W        W37714  11.653  31.910   1.219
70647W        W37715  19.552   4.741  12.970
70648W        W37716  32.537  10.748  11.592
70649W        W37717   6.254  20.130   2.219
70650W        W37718   6.840  44.291  13.021
70651W        W37719  18.703  22.153  13.366
70652W        W37720  38.346  26.615   3.712
70653W        W37721  11.303  27.087   0.445
70654W        W37722   0.390   4.409   2.359
70655W        W37723  41.803  40.512  11.386
70656W        W37724  29.040  20.537  10.994
70657W        W37725  36.574  13.326   0.889
70658W        W37726  20.042  31.632   4.738
70659W        W37727  24.985   0.989   1.331
70660W        W37728  13.736  42.022  13.307
70661W        W37729  41.846   3.444  10.062
70662W        W37730  10.831   1.897   1.417
70663W        W37731  27.995  27.038   4.838
70664W        W37732  31.936  10.699   2.268
70665W        W37733  42.911   0.874   0.856
70666W        W37734  27.038  22.176   1.924
70667W        W37735  15.712  14.162  12.525
70668W        W37736  33.607  10.747   4.128
70669W        W37737  22.071  34.900  12.019
70670W        W37738  26.027  19.063   2.715
70671W        W37739  24.586  37.943   2.750
70672W        W37740  22.729   5.194  11.578
70673W        W37741  20.238  11.727   2.705
70674W        W37742  24.481   5.921   1.357
70675W        W37743  42.834  21.071  14.982
70676W        W37744  21.724  25.705   0.393
70677W        W37745  34.021  35.894   2.408
70678W        W37746   1.457  10.272  13.887
70679W        W37747  25.570   5.410   0.390
70680W        W37748  43.494  32.911   4.806
70681W        W37749  23.736  40.868   1.930
70682W        W37750  30.948  38.562  11.394
70683W        W37751  43.820  13.173   2.314
70684W        W37752   9.395  11.754   3.752
70685W        W37753  11.278  19.097   4.326
70686W        W37754  22.522  40.960   2.304
70687W        W37755  38.048  13.196   3.660
70688W        W37756  41.006  30.634  14.285
70689W        W37757  10.778  28.435  12.823
70690W        W37758  24.696  10.684  12.897
70691W        W37759  13.788   1.294   3.373
70692W        W37760  41.952  28.434   3.770
70693W        W37761   5.720  28.167   0.273
70694W        W37762  12.719   6.883  11.906
70695W        W37763  26.464  27.515   3.271
70696W        W37764  39.917   1.479   3.674
70697W        W37765  43.442   1.409  14.482
70698W        W37766  11.150  44.261   2.228
70699W        W37767  44.815  38.343   4.672
70700W        W37768  22.043  22.027   0.963
70701W        W37769  39.900  13.146  10.518
70702W        W37770  15.191  32.970  10.526
70703W        W37771   3.951  25.983   1.433
70704W        W37772  32.006  31.012   3.365
70705W        W37773   7.218  27.130  11.384
70706W        W37774   5.418  26.078   4.812
70707W        W37775  32.022  14.688   2.901
70708W        W37776  21.708  37.991  13.797
70709W        W37777  15.641  22.109   0.835
70710W        W37778   2.875   0.390  13.410
70711W        W37779  30.621  44.829   0.252
70712W        W37780   3.283  22.008   1.214
70713W        W37781   7.291  44.884   2.408
70714W        W37782  31.104   3.282   5.279
70715W        W37783  31.083  12.850   2.216
70716W        W37784   6.359  21.035   1.904
70717W        W37785  25.083  20.644  13.533
70718W        W37786  32.545  36.503   1.253
70719W        W37787  29.535   5.826   1.872
70720W        W37788  29.539  42.797   1.297
70721W        W37789  29.008  39.892  14.787
70722W        W37790  15.144  36.361   1.815
70723W        W37791  38.368  40.526   3.335
70724W        W37792  31.414  11.212   4.132
70725W        W37793  26.109  31.414   0.842
70726W        W37794  22.204  13.610  10.977
70727W        W37795   1.893  16.800   3.839
70728W        W37796   7.687  20.536   0.772
70729W        W37797  27.601   8.317  14.368
70730W        W37798  21.666  31.514   4.288
70731W        W37799   2.766  22.680   1.901
70732W        W37800   7.244   6.411  11.968
70733W        W37801  39.504   0.340  10.518
70734W        W37802   8.244  40.022   0.410
70735W        W37803  15.115  24.704  14.934
70736W        W37804  14.249  25.143  10.984
70737W        W37805  25.097   0.262   1.287
70738W        W37806   8.805  23.042  10.622
70739W        W37807  23.059   1.439  10.454
70740W        W37808  21.191   9.722   0.889
70741W        W37809  37.940  19.630  11.520
70742W        W37810  10.824   2.901  12.437
70743W        W37811   6.268  18.242  11.517
70744W        W37812  44.778  41.991   4.175
70745W        W37813  30.560  12.746  14.785
70746W        W37814  27.647  31.991  12.934
70747W        W37815  17.665  12.667  10.407
70748W        W37816  38.331   6.916   4.701
70749W        W37817  29.597  18.134  12.398
70750W        W37818  44.830  33.534   3.378
70751W        W37819   2.746  42.967  12.477
70752W        W37820  22.099  16.154  11.554
70753W        W37821  26.603  15.242   2.769
70754W        W37822  39.954  13.737   3.784
70755W        W37823  11.307  22.620  11.040
70756W        W37824  20.599   0.366   2.273
70757W        W37825  27.556  44.362   3.811
70758W        W37826  18.064  25.538   2.301
70759W        W37827  34.059  11.316   2.692
70760W        W37828  28.534   0.976   2.378
70761W        W37829   5.767  40.416  10.410
70762W        W37830  19.688  42.009   4.750
70763W        W37831  31.429  35.059  12.015
70764W        W37832  32.024  44.811   4.189
70765W        W37833  22.048   1.731  11.382
70766W        W37834   5.807  25.076  10.929
70767W        W37835  16.166  39.543  10.502
70768W        W37836  16.669   6.327  11.598
70769W        W37837  18.063  24.140  13.313
70770W        W37838  26.051  21.263  11.880
70771W        W37839  22.738  10.379  10.995
70772W        W37840   0.972  20.083  12.832
70773W        W37841  22.700  18.088   0.834
70774W        W37842  39.494  16.085   0.751
70775W        W37843   0.754   3.347   2.731
70776W        W37844  22.511  34.521   0.789
70777W        W37845  25.486  11.798   5.112
70778W        W37846   7.782  41.369  10.064
70779W        W37847  13.603  18.125  11.435
70780W        W37848  37.557   6.821  11.080
70781W        W37849  26.677  23.231  13.433
70782W        W37850  10.227  37.965   1.830
70783W        W37851  12.137  23.706  13.038
70784W        W37852  30.919  15.174   2.246
70785W        W37853   3.355  44.957  14.845
70786W        W37854  27.654  37.868  11.046
70787W        W37855   9.795  16.763   2.828
70788W        W37856  36.898  34.476  12.883
70789W        W37857  12.784  26.002   4.181
70790W        W37858   1.330  21.599  12.422
70791W        W37859  24.220  16.740  11.587
70792W        W37860  23.719  40.949  13.000
70793W        W37861  22.230   7.738   1.383
70794W        W37862  13.335  38.848   1.435
70795W        W37863  22.042   4.271  10.644
70796W        W37864  41.419  15.189   2.867
70797W        W37865  29.469   5.787   3.197
70798W        W37866  41.893  30.520   0.861
70799W        W37867  13.348  35.601   3.349
70800W        W37868  22.605  30.556  14.871
70801W        W37869   2.937  17.682   2.681
70802W        W37870  27.031  32.048  13.520
70803W        W37871  10.166  20.525   0.353
70804W        W37872   2.250  15.283   0.248
70805W        W37873  31.997  22.045  12.484
70806W        W37874  41.848  22.508   4.310
70807W        W37875  32.129  17.196  10.484
70808W        W37876  37.534  25.577   2.361
70809W        W37877   7.294   9.392  10.956
70810W        W37878   9.727  28.566   0.381
70811W        W37879  14.165   3.799  12.888
70812W        W37880   3.236  30.030  11.072
70813W        W37881  30.444  40.507  13.547
70814W        W37882  21.081   6.386   4.604
70815W        W37883  14.284  25.109   0.752
70816W        W37884  24.575  17.650  12.015
70817W        W37885   4.235  36.496  13.966
70818W        W37886  44.495  10.657   3.804
70819W        W37887  23.096  33.126   3.218
70820W        W37888  14.213  38.020  12.930
70821W        W37889  12.626  18.069   1.698
70822W        W37890  19.106  21.044   4.261
70823W        W37891  36.993   9.339  13.951
70824W        W37892  35.554  13.845   1.431
70825W        W37893  29.965   1.286   1.718
70826W        W37894  12.363  11.680   3.858
70827W        W37895   0.275  33.915  13.952
70828W        W37896  10.776  14.637  14.843
70829W        W37897  42.816  22.153   3.798
70830W        W37898  28.996  35.910   0.932
70831W        W37899  24.521  32.885  14.010
70832W        W37900   7.725  20.657  11.921
70833W        W37901  39.466  10.638  13.481
70834W        W37902  30.606   5.207   3.221
70835W        W37903   4.240   6.884   3.723
70836W        W37904  16.298   5.224  12.912
70837W        W37905  24.011  27.512   4.245
70838W        W37906  26.516  26.599  12.999
70839W        W37907  15.583  32.532  11.523
70840W        W37908   3.876   7.728   1.425
70841W        W37909   9.284  33.041  13.329
70842W        W37910  10.303  25.649  13.519
70843W        W37911   9.739  19.213  12.084
70844W        W37912  13.240   1.919   9.985
70845W        W37913  16.707  28.633   4.810
70846W        W37914  12.280   3.883   2.729
70847W        W37915  29.561  28.614  11.984
70848W        W37916  18.759  15.755   4.314
70849W        W37917  27.651  10.175  13.813
70850W        W37918  33.435  18.668  13.334
70851W        W37919  10.338  43.514  10.037
70852W        W37920  38.372   6.326   3.171
70853W        W37921  30.982  28.617  12.396
70854W        W37922  20.641   2.827  11.400
70855W        W37923  26.106  39.945  13.940
70856W        W37924  40.532  10.269   4.279
70857W        W37925  20.628  41.316  11.455
70858W        W37926  28.583  28.030   2.246
70859W        W37927  16.709  18.106  13.342
70860W        W37928  39.846   9.224  11.950
70861W        W37929  25.542  10.845  11.067
70862W        W37930  28.603  21.704   3.809
70863W        W37931  13.156  42.881   9.980
70864W        W37932  16.308  21.223  11.592
70865W        W37933   7.295  15.678  12.540
70866W        W37934  39.029  14.700   1.757
70867W        W37935  19.595  38.498  12.365
70868W        W37936   2.934   2.760  11.077
70869W        W37937   2.849  14.775   0.307
70870W        W37938  33.394  32.408   0.290
70871W        W37939  31.910   4.266  11.589
70872W        W37940  29.426  28.649   2.760
70873W        W37941   6.703  33.024  13.048
70874W        W37942   1.325  12.251   0.245
70875W        W37943  10.715  22.549   3.647
70876W        W37944   4.231   8.403   3.295
70877W        W37945  26.119  35.484   2.183
70878W        W37946   7.176  10.648  10.922
70879W        W37947  23.190  25.711  13.968
70880W        W37948  37.011  21.106   3.660
70881W        W37949  33.938   2.843   0.793
70882W        W37950  12.264  39.321  11.116
70883W        W37951  15.254  19.630  10.133
70884W        W37952  11.846  17.305   1.897
70885W        W37953  13.619  21.653   2.765
70886W        W37954  22.737   5.896  11.079
70887W        W37955   7.344   1.776   0.397
70888W        W37956  24.628  40.420  11.108
70889W        W37957  24.088  14.701  10.531
70890W        W37958  18.174  23.575   1.273
70891W        W37959   5.921  21.535  14.840
70892W        W37960  36.522   1.286   1.910
70893W        W37961   4.353   9.154   4.605
70894W        W37962  10.354  16.608   3.338
70895W        W37963  38.903  42.439  12.444
70896W        W37964  13.641  18.725   2.261
70897W        W37965  10.335   4.811   4.611
70898W        W37966  35.509  31.428   1.247
70899W        W37967  27.031   2.910  13.946
70900W        W37968  37.937  42.504  11.016
70901W        W37969  35.378  28.074  11.432
70902W        W37970  24.682   9.268   1.212
70903W        W37971  26.172  15.102  11.943
70904W        W37972  34.586   3.896   4.692
70905W        W37973  14.811  37.908   1.765
70906W        W37974  39.903  18.747  11.103
70907W        W37975   8.173  12.743   1.739
70908W        W37976  21.135  42.002  11.388
70909W        W37977  21.599  13.741   0.311
70910W        W37978   8.187  10.157  13.516
70911W        W37979  28.146  30.532   0.449
70912W        W37980  25.533  41.517   0.409
70913W        W37981  10.263   3.455   2.305
70914W        W37982  28.070   7.789  10.587
70915W        W37983  22.593  41.465  10.587
70916W        W37984   0.392  10.794  12.952
70917W        W37985   9.153  44.503   2.750
70918W        W37986   7.297  18.597  12.051
70919W        W37987   4.348  31.612   0.739
70920W        W37988  31.022  27.653   1.285
70921W        W37989  13.801  12.846   1.908
70922W        W37990  12.820   4.726  14.415
70923W        W37991  36.083   1.967   4.764
70924W        W37992   4.429  28.945  12.459
70925W        W37993  14.641   6.293   4.617
70926W        W37994  11.847  29.088   3.673
70927W        W37995  19.661  35.854   3.638
70928W        W37996  10.161  27.652  14.438
70929W        W37997  30.418  36.863  11.122
70930W        W37998   0.846  43.863   1.238
70931W        W37999  26.199  35.100  10.471
70932W        W38000  19.583  23.592   0.335
70933W        W38001  23.648  21.118   3.727
70934W        W38002  33.892   8.885   3.190
70935W        W38003  15.766  24.505  11.076
70936W        W38004  13.197  26.549   1.333
70937W        W38005   7.810  27.593   3.201
70938W        W38006  28.046  41.948  12.018
70939W        W38007  39.047  12.128  10.549
70940W        W38008   4.728  43.769   0.839
70941W        W38009  16.568  23.688   1.256
70942W        W38010  20.098  30.623   3.778
70943W        W38011  39.899  24.032   1.803
70944W        W38012  31.544  19.223  10.416
70945W        W38013  20.128   7.196   3.705
70946W        W38014  11.319   8.700   3.711
70947W        W38015  31.898  16.614  11.892
70948W        W38016  18.119   9.288   1.787
70949W        W38017   0.981  26.601  13.000
70950W        W38018   4.311  11.161  11.613
70951W        W38019  43.845  37.029  14.857
70952W        W38020  18.167   9.806   0.481
70953W        W38021  11.622  38.043   1.695
70954W        W38022   8.311   9.791   1.723
70955W        W38023  36.881  12.699  13.419
70956W        W38024   3.295  38.344   0.459
70957W        W38025  27.512  14.649   0.393
70958W        W38026   8.359  36.346  11.951
70959W        W38027  16.790   5.932   3.293
70960W        W38028  42.789  20.066   4.640
70961W        W38029   3.750  18.719  12.838
70962W        W38030  29.070  20.234  11.560
70963W        W38031   0.969  37.530   2.771
70964W        W38032   6.724  34.957  13.414
70965W        W38033  37.950  16.282   3.703
70966W        W38034  17.307  27.973   2.698
70967W        W38035  33.002  18.736   4.780
70968W        W38036  26.025  11.300   2.371
70969W        W38037  33.075  25.140   3.268
70970W        W38038  38.829  37.514  11.542
70971W        W38039  13.194  24.129   3.372
70972W        W38040  36.399  22.060   0.418
70973W        W38041  13.173  20.219  10.609
70974W        W38042  24.529  36.379  13.861
70975W        W38043   5.718  43.353  14.516
70976W        W38044  30.477  30.552   1.230
70977W        W38045   1.240  44.303  12.511
70978W        W38046  29.087  44.372  12.340
70979W        W38047   7.228  18.179   2.180
70980W        W38048  41.924  37.871  11.029
70981W        W38049  28.613  33.039  11.857
70982W        W38050   1.790  18.758  12.518
70983W        W38051  39.473  14.716  14.427
70984W        W38052  32.940  12.285   1.428
70985W        W38053  23.037  35.083  12.979
70986W        W38054  24.698  27.509   3.739
70987W        W38055  30.044  10.859   3.800
70988W        W38056  38.524   7.273  12.424
70989W        W38057  14.608  22.551  11.479
70990W        W38058  27.454  29.628  14.411
70991W        W38059  32.090  26.656   2.309
70992W        W38060  33.472   1.393   0.271
70993W        W38061  37.359  34.546   0.743
70994W        W38062  42.949  18.713   2.895
70995W        W38063   4.764  36.357   4.231
70996W        W38064  12.317  29.126  11.013
70997W        W38065  18.251  31.048   0.897
70998W        W38066   8.167  31.133  14.966
70999W        W38067  13.335  18.777  13.414
71000W        W38068   5.316  43.393   1.738
71001W        W38069  13.618  30.940   2.855
71002W        W38070  22.239   5.270  14.311
71003W        W38071  16.707  42.019   3.308
71004W        W38072  12.196   2.394   2.277
71005W        W38073   3.386  39.345  11.523
71006W        W38074  37.564  21.653  14.427
71007W        W38075  13.173  30.566   3.790
71008W        W38076   5.415  11.323   1.813
71009W        W38077  11.739  28.015  14.825
71010W        W38078  23.032  14.286  12.525
71011W        W38079   2.421  28.457  10.569
71012W        W38080  33.114  20.648  11.115
71013W        W38081  18.592   7.318   1.716
71014W        W38082   9.791  21.664  14.416
71015W        W38083  11.188  27.940  11.927
71016W        W38084  20.563   0.933   2.808
71017W        W38085  31.515  14.253   2.795
71018W        W38086  22.166  32.499  10.940
71019W        W38087  27.658  24.687  13.983
71020W        W38088  27.986  22.092  13.494
71021W        W38089  23.565   4.733  13.475
71022W        W38090  39.886  31.407   2.725
71023W        W38091   0.452  15.289   0.253
71024W        W38092  11.687   3.914   2.686
71025W        W38093  13.146   0.846   5.132
71026W        W38094  40.890  25.026   2.798
71027W        W38095  31.506  25.472   2.341
71028W        W38096  44.391  27.544  11.044
71029W        W38097  31.422   9.753   1.280
71030W        W38098  28.581  13.696  13.391
71031W        W38099  15.086  27.534  12.959
71032W        W38100  39.479  27.462  12.465
71033W        W38101   6.336   3.905   1.226
71034W        W38102  11.297  11.371  12.420
71035W        W38103  27.048  13.139  14.387
71036W        W38104   5.216   1.871   0.937
71037W        W38105  34.514  15.664   0.768
71038W        W38106  27.599  28.002   2.857
71039W        W38107  23.554  39.022   2.349
71040W        W38108  35.508  28.935  11.548
71041W        W38109   2.235  29.491  10.895
71042W        W38110  35.052   4.306  11.564
71043W        W38111   5.220  24.553  11.558
71044W        W38112   5.772  22.560  11.571
71045W        W38113  37.962   4.811   3.213
71046W        W38114  30.641   8.875   1.773
71047W        W38115  11.128   7.265  10.458
71048W        W38116   5.933  11.639  10.435
71049W        W38117  25.052  19.755  13.343
71050W        W38118   7.740  35.437  11.119
71051W        W38119  25.116  13.255   3.804
71052W        W38120   8.696   7.862   5.114
71053W        W38121  13.819  23.525   0.465
71054W        W38122  37.364  37.500  11.605
71055W        W38123  31.031   0.855  13.911
71056W        W38124  16.717  39.367  11.517
71057W        W38125  43.920  16.725   1.380
71058W        W38126  36.463  24.011   2.346
71059W        W38127  20.249  25.189   2.672
71060W        W38128  29.949  21.237   0.462
71061W        W38129  38.020  12.836   4.167
71062W        W38130  32.104  28.571   5.316
71063W        W38131  30.061  12.184  12.830
71064W        W38132  17.274  42.916   9.974
71065W        W38133   7.908  34.063  10.927
71066W        W38134  24.180  29.130   2.221
71067W        W38135  17.618  10.189   5.192
71068W        W38136  38.335  22.675  10.484
71069W        W38137  42.994  32.071   4.627
71070W        W38138  18.130  36.360   1.226
71071W        W38139  15.101  21.247   3.240
71072W        W38140  22.611  30.417  14.403
71073W        W38141   5.903  22.527  11.941
71074W        W38142  24.545  32.118  11.034
71075W        W38143  38.959   4.848   3.176
71076W        W38144  26.549  10.375   2.286
71077W        W38145  28.033  38.857  12.357
71078W        W38146  40.797  33.050  10.577
71079W        W38147  42.393  28.510   3.652
71080W        W38148  33.549  33.605  10.429
71081W        W38149   4.783  15.786  11.903
71082W        W38150  43.321  22.105  12.900
71083W        W38151  42.479  43.792   3.829
71084W        W38152  13.628  36.502   2.229
71085W        W38153  30.529  23.554  10.562
71086W        W38154  33.546  11.696  13.452
71087W        W38155  20.588  27.011   0.925
71088W        W38156  29.986  35.369  14.852
71089W        W38157  23.085   5.334  13.986
71090W        W38158   4.391   0.269   4.603
71091W        W38159  24.167  11.803   4.297
71092W        W38160  28.435  42.874  14.373
71093W        W38161  42.378   4.924  14.483
71094W        W38162  14.633  25.211   0.320
71095W        W38163   8.161  35.990   2.716
71096W        W38164   6.765  43.806  11.059
71097W        W38165   2.286  20.712  12.972
71098W        W38166  18.786  18.636   1.886
71099W        W38167  31.134  10.708  14.462
71100W        W38168  13.632   4.731   1.402
71101W        W38169   0.343  42.802   4.118
71102W        W38170  44.289  32.894  12.916
71103W        W38171  41.014  20.206   0.363
71104W        W38172  36.985  27.612   4.247
71105W        W38173  42.014  26.960   2.368
71106W        W38174  14.242  17.677  14.771
71107W        W38175  11.763   2.838   4.813
71108W        W38176   6.835  38.930  10.604
71109W        W38177   7.273   8.748   1.403
71110W        W38178  23.182  27.127   4.815
71111W        W38179   4.943  39.458  14.337
71112W        W38180  34.386  13.267  13.004
71113W        W38181  39.987   8.680   2.215
71114W        W38182  31.978   2.405  12.514
71115W        W38183   2.817  14.315   0.251
71116W        W38184  11.186  25.079   1.911
71117W        W38185  33.931  15.616  12.566
71118W        W38186  30.545   9.802  13.909
71119W        W38187  20.742  16.260  13.874
71120W        W38188  23.238  44.479   2.197
71121W        W38189  29.957  26.557  12.094
71122W        W38190  27.586  34.561  12.987
71123W        W38191  19.558  40.419  12.886
71124W        W38192  23.567  40.544  12.042
71125W        W38193   5.395  35.855   4.703
71126W        W38194  23.069  38.880  11.063
71127W        W38195   0.319  43.330  12.577
71128W        W38196  30.425  42.795  12.069
71129W        W38197  18.570  29.544   2.376
71130W        W38198  42.911  42.339  12.009
71131W        W38199   6.351  26.087  14.913
71132W        W38200  31.908  18.665   3.693
71133W        W38201   1.803  10.263   1.290
71134W        W38202  14.209   1.442  14.860
71135W        W38203  26.567  39.361  10.545
71136W        W38204   3.908  10.312   1.353
71137W        W38205   7.811   0.310   1.219
71138W        W38206  14.249  34.908   0.927
71139W        W38207  38.935  19.641   2.235
71140W        W38208  41.038  15.819   2.342
71141W        W38209  44.794  27.104  10.944
71142W        W38210  37.985  38.523  13.930
71143W        W38211  38.916   7.826  14.323
71144W        W38212  11.173  23.491   3.330
71145W        W38213  44.445  43.388   0.297
71146W        W38214  10.649   2.741   1.856
71147W        W38215  16.071   4.290  10.523
71148W        W38216  26.125  12.621   2.775
71149W        W38217  25.648  43.388   1.394
71150W        W38218  43.378  29.142   4.287
71151W        W38219  26.684  16.669  14.336
71152W        W38220  35.024   0.416  13.509
71153W        W38221  10.705  36.402   1.381
71154W        W38222  28.019   3.807   5.098
71155W        W38223   7.899  40.996  13.517
71156W        W38224   2.393  41.386   0.833
71157W        W38225  33.099   3.260  10.477
71158W        W38226  16.757  30.618  13.792
71159W        W38227  39.954  41.821  12.922
71160W        W38228  38.567  13.612   0.376
71161W        W38229  33.078  19.619  14.308
71162W        W38230  37.421  10.783   0.299
71163W        W38231  42.790  36.917  12.868
71164W        W38232  23.173  44.377   3.662
71165W        W38233  26.595  31.510  12.823
71166W        W38234   5.262  19.657  13.434
71167W        W38235  36.043   9.196  13.024
71168W        W38236  20.582  38.493   3.179
71169W        W38237  21.220  40.006  12.412
71170W        W38238  42.782   5.351   0.890
71171W        W38239  14.236  31.059   1.422
71172W        W38240  25.151   8.299  11.857
71173W        W38241  13.804  14.644  14.826
71174W        W38242  31.127  16.746   0.424
71175W        W38243  25.132  23.691  10.957
71176W        W38244   9.285  23.666   4.814
71177W        W38245  44.933   5.263   2.308
71178W        W38246  18.221  15.245   4.748
71179W        W38247  18.157  23.162  12.488
71180W        W38248  36.460  33.977   4.232
71181W        W38249  25.198  44.829  11.583
71182W        W38250  30.996  14.102   0.850
71183W        W38251  35.408  41.006   4.679
71184W        W38252  31.483  36.056  14.001
71185W        W38253  19.639  23.027  10.482
71186W        W38254  41.294   6.283  12.436
71187W        W38255  30.042  24.148   1.268
71188W        W38256  26.157  39.838  13.500
71189W        W38257  28.116  23.115   4.717
71190W        W38258  17.213  11.264   3.688
71191W        W38259  26.591  24.227   1.708
71192W        W38260  20.536  44.869   2.681
71193W        W38261  22.115  22.074   3.286
71194W        W38262  14.834  29.099   0.885
71195W        W38263  36.379  38.928  14.942
71196W        W38264   1.289  26.124  11.478
71197W        W38265  39.364  21.676  11.568
71198W        W38266   6.262  12.676  10.576
71199W        W38267  24.639   8.165  11.483
71200W        W38268  18.728   9.262  10.518
71201W        W38269  17.613  33.076   0.471
71202W        W38270  11.130  32.055   0.900
71203W        W38271  32.079  16.776   3.766
71204W        W38272   2.466   3.956  14.381
71205W        W38273  42.401  36.000  14.309
71206W        W38274  29.606  24.523  14.429
71207W        W38275  11.332   9.280   4.128
71208W        W38276   3.811  28.647   3.863
71209W        W38277  10.820  11.834  10.090
71210W        W38278  12.283  43.412   3.185
71211W        W38279   8.897   2.893  14.921
71212W        W38280  29.444  21.709   1.805
71213W        W38281   9.754  26.539  13.376
71214W        W38282  27.015   6.349  13.972
71215W        W38283  35.456  16.307   4.267
71216W        W38284  27.095  12.226   1.812
71217W        W38285  37.838  40.807   0.465
71218W        W38286  19.147  37.844   1.406
71219W        W38287  14.207  25.608  10.495
71220W        W38288  13.769  20.699   3.857
71221W        W38289  44.369   4.269  10.953
71222W        W38290  20.037   3.267   1.769
71223W        W38291  10.741   3.805  12.074
71224W        W38292  20.211   8.798   0.447
71225W        W38293  31.050  19.108  13.041
71226W        W38294   4.852   4.802  11.389
71227W        W38295  28.481  19.745  14.308
71228W        W38296  19.263   2.294  11.611
71229W        W38297   7.329  12.718  10.512
71230W        W38298   6.727   3.286  11.560
71231W        W38299   7.241  17.582  12.893
71232W        W38300  22.655   0.931   0.462
71233W        W38301  34.093  35.426  11.114
71234W        W38302  10.737   6.332   1.898
71235W        W38303   4.732  10.823  12.941
71236W        W38304  39.904   5.796  12.000
71237W        W38305  40.446  34.452   2.343
71238W        W38306   7.204  35.952  13.058
71239W        W38307  31.535  19.573  12.012
71240W        W38308   3.789  41.536   4.605
71241W        W38309  37.010   3.348  10.999
71242W        W38310   1.323  24.999   1.432
71243W        W38311  25.034  13.825   4.649
71244W        W38312  13.720   6.218   3.744
71245W        W38313  16.595   2.720  14.327
71246W        W38314   9.708  40.492   0.803
71247W        W38315  37.456  27.119  13.364
71248W        W38316  10.243  21.052   5.213
71249W        W38317   4.283  31.072  13.475
71250W        W38318  40.318  27.133  14.432
71251W        W38319  12.252  28.605  13.474
71252W        W38320  13.814   0.803   3.273
71253W        W38321  31.518  41.912  13.026
71254W        W38322  18.178   2.777   1.325
71255W        W38323  39.530   8.758  13.427
71256W        W38324  29.018   9.175  12.432
71257W        W38325  15.590  24.716   3.373
71258W        W38326  29.616   2.888  11.559
71259W        W38327  28.543   6.381  12.455
71260W        W38328  25.039   8.659   4.703
71261W        W38329   2.438  11.801  13.342
71262W        W38330  36.417  30.027  13.335
71263W        W38331  35.470  36.559  10.518
71264W        W38332  26.191  31.085   2.192
71265W        W38333  40.417   1.977   1.802
71266W        W38334   7.814  43.785  10.918
71267W        W38335  20.712  41.890  11.418
71268W        W38336  41.300  29.070   0.339
71269W        W38337   0.354  10.321  11.077
71270W        W38338   8.385  41.881   0.752
71271W        W38339   7.186   3.234  14.499
71272W        W38340  24.559  34.961  13.887
71273W        W38341  18.238  30.133   2.784
71274W        W38342  30.481  24.986  13.960
71275W        W38343  30.434  24.639   2.778
71276W        W38344  31.457  11.642  13.476
71277W        W38345  37.397  20.155   1.398
71278W        W38346  32.487  29.465  14.961
71279W        W38347  13.810  32.930  11.055
71280W        W38348  28.662  31.545   3.361
71281W        W38349  27.987  33.587  13.461
71282W        W38350   7.766  28.436  12.346
71283W        W38351  21.096  40.376   0.961
71284W        W38352  24.628  40.357  13.865
71285W        W38353  18.260  41.404  13.978
71286W        W38354  13.699  12.333  12.952
71287W        W38355  41.457  16.720   2.411
71288W        W38356  34.948  37.468   5.217
71289W        W38357   9.296  25.024  12.902
71290W        W38358  23.074   1.880   4.632
71291W        W38359  34.069  26.549   1.407
71292W        W38360  10.339  20.683   4.114
71293W        W38361  39.872  37.370   1.413
71294W        W38362  43.394  13.124  11.894
71295W        W38363  24.124  29.614   4.116
71296W        W38364   3.943  29.596   0.400
71297W        W38365  14.203  15.084   0.451
71298W        W38366   9.388  44.429   1.849
71299W        W38367  32.908  32.500   3.777
71300W        W38368   0.455   5.901  14.288
71301W        W38369  36.076  11.752  13.794
71302W        W38370   1.890  36.446  14.349
71303W        W38371  30.415  17.688  13.915
71304W        W38372  30.058   2.292   4.605
71305W        W38373  17.565  23.050  12.016
71306W        W38374   0.981  38.333  11.120
71307W        W38375  18.757  40.847  14.320
71308W        W38376  13.691  11.220  14.796
71309W        W38377  43.820  37.444  10.445
71310W        W38378  25.156  12.744   4.651
71311W        W38379   1.880   6.188  14.324
71312W        W38380  39.881  26.632   2.818
71313W        W38381  30.993  14.680  11.594
71314W        W38382  27.544  35.451   2.665
71315W        W38383   8.689  26.531   3.788
71316W        W38384  25.591   5.206   2.275
71317W        W38385  21.521  17.285  14.417
71318W        W38386  14.770  19.074  11.017
71319W        W38387  38.998  30.641   2.717
71320W        W38388  17.734  17.268  13.327
71321W        W38389  25.104   4.276  13.529
71322W        W38390  38.940   2.898   0.361
71323W        W38391  39.996  24.496  14.970
71324W        W38392  30.100  34.910  12.061
71325W        W38393  31.536  43.515   2.691
71326W        W38394  16.741  11.751  14.774
71327W        W38395  23.572  39.519  10.568
71328W        W38396   1.438  33.490  12.824
71329W        W38397  35.419  31.930  14.310
71330W        W38398  30.646  12.837  11.999
71331W        W38399  41.878  36.058  14.897
71332W        W38400  31.980  17.610  10.994
71333W        W38401  21.671  27.454   0.366
71334W        W38402  26.977  24.987   0.798
71335W        W38403  39.875  16.722   3.693
71336W        W38404  28.990   6.747   4.253
71337W        W38405  31.464  16.274  12.036
71338W        W38406   4.752  10.735   0.304
71339W        W38407  33.441  43.390   2.365
71340W        W38408   8.809  18.162   4.598
71341W        W38409  10.286  39.379  13.939
71342W        W38410  22.172  37.565  14.493
71343W        W38411  10.185   9.757   2.834
71344W        W38412  21.662  14.778  14.888
71345W        W38413  24.022  19.671   4.607
71346W        W38414   0.370  31.916   0.940
71347W        W38415  10.358  23.054  11.565
71348W        W38416  27.979  41.317   0.465
71349W        W38417   6.923  29.979  12.079
71350W        W38418  33.936  42.909   0.402
71351W        W38419  35.359  24.197  13.921
71352W        W38420  36.437  28.468  11.436
71353W        W38421   6.238   6.879  10.430
71354W        W38422  14.740  40.329  11.533
71355W        W38423  26.684  16.212   3.228
71356W        W38424  21.744  38.044   0.862
71357W        W38425  18.215  17.222   4.750
71358W        W38426   6.260  19.726   5.285
71359W        W38427  18.252  14.635  14.308
71360W        W38428  43.970  43.791   4.117
71361W        W38429   2.459  33.951   1.256
71362W        W38430  19.082  41.382   4.620
71363W        W38431  30.059  42.864   1.378
71364W        W38432  24.088  12.145  13.971
71365W        W38433  13.629  38.425   0.295
71366W        W38434   6.921  32.032   1.797
71367W        W38435  28.634  32.101   9.946
71368W        W38436   2.393  15.217  14.973
71369W        W38437  25.655  43.854   4.127
71370W        W38438  31.531  12.140  14.504
71371W        W38439  23.185   5.770  13.860
71372W        W38440  39.853  15.133  14.859
71373W        W38441   7.837  15.793   4.714
71374W        W38442   2.296  24.529  12.013
71375W        W38443  16.269  13.654  13.472
71376W        W38444   6.385  29.523   9.962
71377W        W38445  40.852  39.519  14.979
71378W        W38446  12.345   4.213   2.226
71379W        W38447  14.260   1.442  11.427
71380W        W38448  32.495  25.605  11.121
71381W        W38449   3.732  39.546   1.890
71382W        W38450  10.818  27.664  10.431
71383W        W38451  10.743  22.589  14.897
71384W        W38452  16.274  41.859   1.767
71385W        W38453   6.794  44.862  12.478
71386W        W38454  12.116  42.796  10.630
71387W        W38455  18.137   4.266   4.323
71388W        W38456  18.731   6.696   1.742
71389W        W38457   8.682   6.916   1.296
71390W        W38458   3.344  17.723   4.699
71391W        W38459  37.366   3.234   0.913
71392W        W38460  17.093   8.897  13.427
71393W        W38461   3.254   0.876   3.833
71394W        W38462  23.592  11.810   2.871
71395W        W38463  43.422  35.903   1.715
71396W        W38464   4.877  29.950   3.766
71397W        W38465  31.435  24.120   0.285
71398W        W38466  19.075   7.332   2.225
71399W        W38467  35.408   4.392   0.740
71400W        W38468  13.209   1.241   4.804
71401W        W38469  43.769  13.615  12.437
71402W        W38470  10.773  33.984  13.539
71403W        W38471   7.823  23.588  11.055
71404W        W38472  16.593   6.722   1.436
71405W        W38473   1.817  43.429  11.494
71406W        W38474  30.112  23.663  11.104
71407W        W38475  20.709  39.064  12.564
71408W        W38476  42.000   6.843  13.818
71409W        W38477  10.859  17.232   1.750
71410W        W38478  27.947   6.860   1.307
71411W        W38479  34.499  42.844   0.296
71412W        W38480  18.178  25.065   2.353
71413W        W38481  41.988   0.802  10.954
71414W        W38482  28.084   6.383   1.797
71415W        W38483   7.675  19.686  14.409
71416W        W38484   2.743  37.004   0.478
71417W        W38485  37.861  40.877   3.379
71418W        W38486  32.937  22.626   4.201
71419W        W38487  35.444  24.556  14.019
71420W        W38488  35.530  39.869   4.294
71421W        W38489  28.622  40.044   2.890
71422W        W38490  39.026  20.573  10.420
71423W        W38491  43.362  21.755   1.450
71424W        W38492  25.983  31.503   0.263
71425W        W38493  24.604   4.320   0.384
71426W        W38494  21.255  34.548  12.370
71427W        W38495  10.270  14.685   2.823
71428W        W38496  16.796  39.536  14.295
71429W        W38497   2.337  43.302   4.339
71430W        W38498  38.529  39.053   1.431
71431W        W38499  27.072  22.131  10.900
71432W        W38500   1.385  27.118  11.517
71433W        W38501  37.024  23.011   2.759
71434W        W38502  15.634  35.065   1.722
71435W        W38503   8.866   4.375   1.312
71436W        W38504  15.223  20.207   2.707
71437W        W38505  41.435  19.721  11.575
71438W        W38506  30.999  21.096  11.014
71439W        W38507  37.479  44.844   1.443
71440W        W38508   2.852  20.112  10.960
71441W        W38509  28.587  44.267  13.399
71442W        W38510  32.902  21.131  12.464
71443W        W38511  29.534   5.389  13.410
71444W        W38512  25.678  31.405  13.514
71445W        W38513   7.276   2.360   3.763
71446W        W38514  25.697  29.425   1.435
71447W        W38515  26.646   2.740  11.577
71448W        W38516   3.427  22.595  11.943
71449W        W38517  15.320  38.551  14.489
71450W        W38518  14.284  34.105  12.400
71451W        W38519  33.502   2.366   2.220
71452W        W38520  14.821  35.016   3.252
71453W        W38521   5.231  14.712   0.433
71454W        W38522  20.653   2.464   2.252
71455W        W38523  20.640  16.104   4.776
71456W        W38524  37.993  28.130   1.306
71457W        W38525  37.837  34.950   3.363
71458W        W38526  27.174  44.297  14.445
71459W        W38527  27.549   0.464  14.031
71460W        W38528  14.604  35.933  11.011
71461W        W38529   9.265  36.371   0.953
71462W        W38530  30.437  31.922   2.871
71463W        W38531  18.209  28.076   0.327
71464W        W38532  30.494  23.025  12.045
71465W        W38533   2.332  24.531  13.915
71466W        W38534   6.420  20.129   0.950
71467W        W38535  43.375  17.637   4.677
71468W        W38536  23.031  22.633   3.765
71469W        W38537   6.339   8.883  11.607
71470W        W38538  31.432  41.394  12.345
71471W        W38539   6.419  33.398   9.959
71472W        W38540   7.767  25.608  14.397
71473W        W38541  20.148  38.328   1.349
71474W        W38542  14.239  19.135   5.099
71475W        W38543   4.432  26.193  12.347
71476W        W38544  19.044  32.115  12.878
71477W        W38545  42.015  13.825  12.090
71478W        W38546   4.927  24.628   2.832
71479W        W38547  34.498   6.221  10.416
71480W        W38548  41.875  16.793   0.333
71481W        W38549  21.138  35.590  12.061
71482W        W38550  23.584  10.338  12.578
71483W        W38551  20.087   9.366  12.412
71484W        W38552  13.186   0.890   0.847
71485W        W38553  25.106  14.152   2.298
71486W        W38554   3.266  25.511   4.700
71487W        W38555  12.631   4.783  12.880
71488W        W38556  32.098  24.691   4.775
71489W        W38557   6.708  39.959  13.946
71490W        W38558  44.371  22.575  12.474
71491W        W38559   8.839  22.744  12.550
71492W        W38560   0.357  35.568  14.825
71493W        W38561  24.984  41.339   0.454
71494W        W38562   4.721  32.514   1.435
71495W        W38563  18.712   1.901   4.313
71496W        W38564  22.640  10.828   1.419
71497W        W38565  25.682  20.573   3.791
71498W        W38566   4.349  41.455   2.415
71499W        W38567  37.000  28.488  13.930
71500W        W38568  15.667  37.856  11.002
71501W        W38569  18.088  10.243   1.907
71502W        W38570  41.351  12.179   4.199
71503W        W38571  17.801  23.546   1.835
71504W        W38572  18.683  13.125   4.639
71505W        W38573  30.947   6.727   3.677
71506W        W38574  41.306  33.596  13.391
71507W        W38575   1.754  12.349  14.822
71508W        W38576   6.884   3.773  10.908
71509W        W38577  39.842  17.197  13.999
71510W        W38578  29.991  16.613  13.531
71511W        W38579  34.981   0.368  13.995
71512W        W38580   9.250  43.347   4.145
71513W        W38581  27.649  40.947   1.899
71514W        W38582  10.268  21.559   2.247
71515W        W38583  25.969  37.366   4.735
71516W        W38584  37.985  40.851   4.732
71517W        W38585  43.411   6.857   4.306
71518W        W38586   9.743  25.550  11.932
71519W        W38587  17.278  10.243  10.430
71520W        W38588   8.792   6.370  12.417
71521W        W38589  19.627  16.791   4.291
71522W        W38590  27.984  34.017  14.993
71523W        W38591  18.743   1.425  13.329
71524W        W38592  41.334  34.989   0.957
71525W        W38593  27.516  37.882   3.272
71526W        W38594   6.888  24.627   3.808
71527W        W38595  41.820  17.143   3.155
71528W        W38596   5.397  30.435   4.120
71529W        W38597  27.556   6.424  14.869
71530W        W38598  38.363  31.138   3.803
71531W        W38599  28.005  19.556   0.889
71532W        W38600  31.948  42.336   1.411
71533W        W38601  18.579  41.423  14.867
71534W        W38602  39.331  18.242   4.778
71535W        W38603  24.132  16.107   0.788
71536W        W38604  44.809  14.131   1.919
71537W        W38605  25.696   6.347  11.467
71538W        W38606  32.455  31.585  10.497
71539W        W38607  42.033  16.127   1.307
71540W        W38608  20.549  11.232   3.846
71541W        W38609   2.919   6.845  12.834
71542W        W38610   9.367  19.624   2.348
71543W        W38611  27.109  21.041   0.937
71544W        W38612  43.423  33.395   3.815
71545W        W38613  11.338   2.801  10.473
71546W        W38614  17.660  27.543   4.687
71547W        W38615  23.070  16.223  14.942
71548W        W38616  15.734  19.669  10.146
71549W        W38617   6.786  32.418  10.555
71550W        W38618  41.994  33.976  10.899
71551W        W38619  30.132  19.147   1.425
71552W        W38620   4.412  14.108  14.873
71553W        W38621  31.491   7.329   2.210
71554W        W38622  33.513  32.441   5.117
71555W        W38623  39.892   3.241   1.848
71556W        W38624  10.304   1.821   2.815
71557W        W38625   0.872  41.885   3.749
71558W        W38626  44.293  42.339   1.270
71559W        W38627  39.501   7.411   3.756
71560W        W38628   6.200   1.364   3.633
71561W        W38629   7.856  22.652   5.141
71562W        W38630  14.116   8.851  12.065
71563W        W38631  39.826  32.142   3.202
71564W        W38632  12.687  38.830   4.270
71565W        W38633  24.198  17.292   0.363
71566W        W38634  12.158  35.037   0.364
71567W        W38635   4.277  16.620   0.961
71568W        W38636   7.290  39.415  14.488
71569W        W38637  36.867  36.092   1.912
71570W        W38638   7.884   3.948  10.962
71571W        W38639   6.424  12.706  12.355
71572W        W38640  17.591  21.607   4.126
71573W        W38641  43.910  31.920  12.388
71574W        W38642  39.951  22.672   1.448
71575W        W38643  28.507  20.547   1.246
71576W        W38644  43.004  21.235   4.641
71577W        W38645   8.725  16.750  12.372
71578W        W38646   8.332  14.201  14.817
71579W        W38647  16.210  22.522  11.863
71580W        W38648   1.974   7.235  10.581
71581W        W38649  37.987  38.459  13.042
71582W        W38650  16.112  10.683   9.987
71583W        W38651  43.994  33.994  12.083
71584W        W38652   1.409  30.592   2.856
71585W        W38653  34.114  21.234  11.545
71586W        W38654  14.279  18.103  13.492
71587W        W38655   3.730  38.472  14.945
71588W        W38656   6.881  41.010  11.103
71589W        W38657  21.253  39.336  10.933
71590W        W38658  34.058   2.365  14.763
71591W        W38659  11.306   8.347  10.910
71592W        W38660  40.939  27.173  13.533
71593W        W38661  11.297  22.074  11.002
71594W        W38662  34.917   7.213  10.452
71595W        W38663  19.061  19.059  10.572
71596W        W38664  23.061  19.693   2.304
71597W        W38665   2.787  31.624  10.404
71598W        W38666  15.157  25.582  12.369
71599W        W38667   1.355   9.829  11.963
71600W        W38668  33.069  12.198  11.034
71601W        W38669   6.186  42.829  11.014
71602W        W38670   7.353   5.884  11.987
71603W        W38671  27.066  25.986  13.035
71604W        W38672  30.616  12.808   1.706
71605W        W38673  34.869  32.591  14.452
71606W        W38674  20.070  41.326   1.916
71607W        W38675  18.789   5.274  13.817
71608W        W38676  27.960  40.495  11.884
71609W        W38677   8.317  42.384   2.216
71610W        W38678  14.785  14.236  12.063
71611W        W38679   5.757   9.348  12.530
71612W        W38680  33.618  23.023  12.096
71613W        W38681  24.519  39.356   1.860
71614W        W38682  24.143  35.021   5.245
71615W        W38683  22.618  36.937   4.702
71616W        W38684   5.707   1.446   0.727
71617W        W38685  43.797   2.300   3.738
71618W        W38686  27.960  20.665   1.330
71619W        W38687  33.969  10.323  12.828
71620W        W38688  25.678   3.410   0.333
71621W        W38689  29.106  33.052  13.973
71622W        W38690  31.481  36.528   2.327
71623W        W38691   8.354  42.411  12.340
71624W        W38692  24.137  15.752   0.278
71625W        W38693  22.018  39.494   0.315
71626W        W38694  15.133  29.999   3.192
71627W        W38695   9.875   0.301  11.378
71628W        W38696  27.973  32.605   1.229
71629W        W38697  28.575   6.325   3.224
71630W        W38698   1.413  42.901   0.755
71631W        W38699   2.751  28.600   2.300
71632W        W38700  30.482  43.512  11.981
71633W        W38701  35.509  23.143   4.658
71634W        W38702   0.256  15.688  13.473
71635W        W38703  24.070  37.420   0.424
71636W        W38704   7.774   4.282  11.863
71637W        W38705  13.805  35.073   3.715
71638W        W38706   1.847   9.175   1.792
71639W        W38707  37.513  11.344   4.276
71640W        W38708  30.533  44.266  10.156
71641W        W38709  35.088  24.994  11.954
71642W        W38710  18.149   5.809   1.893
71643W        W38711  14.604  18.627   4.711
71644W        W38712  22.125  29.087  12.411
71645W        W38713  35.374  14.756  13.391
71646W        W38714  25.152  25.046   4.725
71647W        W38715  15.241  20.599   3.366
71648W        W38716  12.292  33.050   4.663
71649W        W38717  15.226  22.053   5.321
71650W        W38718  26.545  22.672  14.810
71651W        W38719  40.369  13.664   3.708
71652W        W38720   0.375  24.185   0.350
71653W        W38721  36.865  10.142  13.356
71654W        W38722   6.422  33.499   1.380
71655W        W38723  20.611  30.441   2.379
71656W        W38724  10.860  43.501   5.713
71657W        W38725  40.539  30.022   3.775
71658W        W38726   0.773  27.556  12.432
71659W        W38727  35.430   9.390  14.375
71660W        W38728   5.246  16.084  11.453
71661W        W38729   5.303  33.910   4.220
71662W        W38730  20.151  44.813  12.017
71663W        W38731  38.549   4.819  14.838
71664W        W38732  17.582  15.217  13.418
71665W        W38733  11.373   4.208  13.456
71666W        W38734  13.202   1.773   3.784
71667W        W38735   2.733  21.181  13.020
71668W        W38736  40.367  22.219  12.961
71669W        W38737  38.512  31.094  14.481
71670W        W38738  28.030  20.726   3.273
71671W        W38739  38.567  28.033  13.820
71672W        W38740  39.448  40.028   3.678
71673W        W38741   7.718   1.292   4.177
71674W        W38742  14.697  33.399  10.894
71675W        W38743  43.421   6.191   3.738
71676W        W38744   4.213  40.803  11.122
71677W        W38745  25.974  35.897   1.359
71678W        W38746  43.799  28.639   0.775
71679W        W38747  33.474  37.482  10.409
71680W        W38748  42.844   0.273   2.668
71681W        W38749  34.984   8.797   5.150
71682W        W38750  33.992   0.269   0.869
71683W        W38751  21.208  33.581  11.921
71684W        W38752   7.288  15.626  10.936
71685W        W38753   4.919  38.488  13.050
71686W        W38754  41.320  30.456  10.894
71687W        W38755  29.998  21.092   3.279
71688W        W38756   0.746  38.890  10.525
71689W        W38757  28.559  12.774  13.530
71690W        W38758  12.766  12.138  13.981
71691W        W38759   1.439  21.728  14.986
71692W        W38760  24.686  25.637  12.566
71693W        W38761   9.184  25.143  11.942
71694W        W38762  41.898  32.127   1.374
71695W        W38763  11.299  21.558   0.868
71696W        W38764  36.922  39.475   2.810
71697W        W38765  20.048  33.474  12.426
71698W        W38766  34.905  33.439  10.633
71699W        W38767  41.843  14.204   2.317
71700W        W38768  16.646  28.049  11.455
71701W        W38769  22.177  22.223   0.348
71702W        W38770  20.764   7.413   2.391
71703W        W38771  12.819  11.733   0.744
71704W        W38772  43.892  19.155   2.339
71705W        W38773  17.117  28.477  11.523
71706W        W38774  37.951  41.436   3.305
71707W        W38775   8.195  33.128   1.236
71708W        W38776   7.272  42.332   3.828
71709W        W38777  15.612  20.169   1.255
71710W        W38778  43.451  27.943  14.441
71711W        W38779  40.387  32.576   4.323
71712W        W38780  24.119  21.229  10.522
71713W        W38781  24.192   9.316  13.497
71714W        W38782  13.827  43.291  13.525
71715W        W38783  22.565   4.842   0.438
71716W        W38784  16.262  11.292   9.472
71717W        W38785  20.680   9.712  14.468
71718W        W38786  35.364  26.166   1.267
71719W        W38787  25.989  27.501  14.911
71720W        W38788   3.779  17.736   1.227
71721W        W38789  36.953   3.386  13.519
71722W        W38790  41.850  41.414   2.249
71723W        W38791   1.928   6.184   4.622
71724W        W38792  37.438  43.827  13.527
71725W        W38793  29.557  31.955  11.001
71726W        W38794  28.128  42.018   4.809
71727W        W38795  18.268  18.203  13.793
71728W        W38796   2.804  12.338  11.040
71729W        W38797  26.062  41.438  10.638
71730W        W38798  21.730  28.618   2.746
71731W        W38799  16.639  31.981  13.475
71732W        W38800  12.840  31.416  11.586
71733W        W38801   3.272   4.892  13.477
71734W        W38802  33.500  17.640  12.861
71735W        W38803   7.208   0.431   1.441
71736W        W38804  24.144  40.905  10.986
71737W        W38805  33.543  41.853   2.886
71738W        W38806   9.295  19.748  12.046
71739W        W38807  31.029   9.395  10.552
71740W        W38808   0.269  14.780  13.868
71741W        W38809  22.236  15.151   4.698
71742W        W38810   6.229  20.164   3.314
71743W        W38811  34.007   5.812   3.311
71744W        W38812  37.419  43.441  14.835
71745W        W38813   4.739  42.372   4.805
71746W        W38814  27.672  28.950   0.354
71747W        W38815  16.235  35.530  10.978
71748W        W38816  30.934  27.053  12.833
71749W        W38817  29.048  40.427   3.321
71750W        W38818  31.934   6.194   5.217
71751W        W38819  41.809   8.390  11.962
71752W        W38820  23.065  20.081  10.553
71753W        W38821  13.726   4.244  14.851
71754W        W38822  36.517  10.205  13.331
71755W        W38823  44.871  13.302  14.914
71756W        W38824  33.421  34.386  11.027
71757W        W38825  28.150  39.060  11.413
71758W        W38826  22.179   1.821   3.685
71759W        W38827  13.792   2.467   1.228
71760W        W38828  26.113  37.477   1.366
71761W        W38829   4.379  10.748  11.093
71762W        W38830   7.371  16.270   1.850
71763W        W38831   7.195  36.574   4.276
71764W        W38832  40.938  43.435  12.951
71765W        W38833  31.483  27.170  13.902
71766W        W38834  24.010  24.056  14.019
71767W        W38835  26.100  23.060  13.933
71768W        W38836   8.881  43.491   4.821
71769W        W38837  21.729   8.202  10.629
71770W        W38838  43.401  21.039   2.826
71771W        W38839  41.026  25.196   4.610
71772W        W38840  26.982  42.304  12.369
71773W        W38841  15.755  10.218   9.966
71774W        W38842   8.660   1.324   4.711
71775W        W38843  39.393  22.088   0.761
71776W        W38844  44.415  30.520  11.408
71777W        W38845  23.629  12.220   0.342
71778W        W38846  21.656  29.140   0.338
71779W        W38847  11.308  15.589   3.276
71780W        W38848  39.469  31.113  13.026
71781W        W38849  10.703  36.054   1.275
71782W        W38850  10.346   7.847   3.834
71783W        W38851  11.182  26.098  14.764
71784W        W38852  20.091  40.013  11.096
71785W        W38853  27.543   0.908  12.910
71786W        W38854  30.503  33.104  11.029
71787W        W38855  37.405  22.531   0.728
71788W        W38856   9.679  30.044  11.928
71789W        W38857   2.417  14.741  12.040
71790W        W38858  40.973  35.087   2.697
71791W        W38859  19.606  37.979  12.906
71792W        W38860   7.862  23.586  11.602
71793W        W38861  10.331  32.505  10.972
71794W        W38862  21.568  10.819   1.830
71795W        W38863  30.591  22.073  11.094
71796W        W38864  27.174  27.153   2.218
71797W        W38865   2.272  36.951  13.360
71798W        W38866  33.051  29.100   4.321
71799W        W38867  35.915   1.969   3.283
71800W        W38868   7.364  40.801   0.926
71801W        W38869  31.624   7.259  10.482
71802W        W38870  30.419  14.746   1.443
71803W        W38871  38.048  37.491   2.849
71804W        W38872  17.742  15.124  14.804
71805W        W38873  31.545  18.139   1.278
71806W        W38874  20.561   3.917   4.133
71807W        W38875  38.000  26.530  14.340
71808W        W38876  19.213  22.248  10.911
71809W        W38877  14.747  21.612   0.870
71810W        W38878  39.366  29.950   1.917
71811W        W38879   4.315   0.779   2.357
71812W        W38880  35.480   3.828  11.577
71813W        W38881  40.826  20.184   4.795
71814W        W38882  32.529  27.139   4.307
71815W        W38883  38.957   7.318  10.132
71816W        W38884  22.722  23.669   4.720
71817W        W38885  36.512  25.602  11.491
71818W        W38886   3.341  21.725  10.471
71819W        W38887  33.029  22.699  13.816
71820W        W38888  12.125  41.844   4.814
71821W        W38889  21.104  25.014  12.979
71822W        W38890  11.768  43.855  14.407
71823W        W38891  15.737  23.209   3.362
71824W        W38892   9.684  11.169  12.492
71825W        W38893  41.039  28.505   4.664
71826W        W38894  19.228  14.828  14.320
71827W        W38895  32.570  19.742  14.514
71828W        W38896   4.419  15.636  13.800
71829W        W38897  16.734  36.444   3.363
71830W        W38898  36.381  38.488  14.503
71831W        W38899   8.757  11.755  13.359
71832W        W38900  11.698  38.006  14.458
71833W        W38901  31.417  29.614   1.828
71834W        W38902   1.397  44.346   0.370
71835W        W38903  19.284  12.335  13.991
71836W        W38904  27.992  24.650   4.139
71837W        W38905   2.266  37.897  13.486
71838W        W38906   9.805  31.037   1.356
71839W        W38907  28.486  18.120   0.855
71840W        W38908  28.997  30.557  12.889
71841W        W38909  23.512   4.736  12.440
71842W        W38910  21.029  36.858   1.414
71843W        W38911  19.223  23.079   2.347
71844W        W38912  16.091  35.551   3.781
71845W        W38913  31.154  43.424  11.475
71846W        W38914  19.569  37.853   2.358
71847W        W38915  31.956  38.012   2.671
71848W        W38916  39.322  20.546  13.004
71849W        W38917  12.279  26.158  11.110
71850W        W38918   3.315  28.462   3.734
71851W        W38919  10.196  40.860  14.905
71852W        W38920  32.587   5.435  10.464
71853W        W38921  31.527  15.319  14.929
71854W        W38922  27.137  31.463  11.912
71855W        W38923  38.850   0.933   5.168
71856W        W38924   7.832  25.071   2.382
71857W        W38925  38.394   1.423   0.249
71858W        W38926  39.875  10.335  11.454
71859W        W38927  19.161   0.753   4.307
71860W        W38928  35.597  22.140   4.311
71861W        W38929   1.310   2.377   4.288
71862W        W38930   7.808  34.904   3.800
71863W        W38931  11.247  19.564  12.434
71864W        W38932  27.062  22.052  11.608
71865W        W38933  28.656  12.683  14.907
71866W        W38934  39.950   5.406  14.877
71867W        W38935   1.855  35.374   3.798
71868W        W38936  10.793  38.946  10.085
71869W        W38937  13.286  10.306  14.283
71870W        W38938  13.140  14.673   1.252
71871W        W38939  12.671  23.522  14.323
71872W        W38940  40.953  13.198   2.353
71873W        W38941  23.583  29.059   0.936
71874W        W38942   0.449  38.015   0.414
71875W        W38943  37.491  14.273  10.599
71876W        W38944  36.010  29.658   5.263
71877W        W38945  20.267   8.663  14.978
71878W        W38946   8.741  29.553  12.391
71879W        W38947  12.825  34.396   1.763
71880W        W38948  43.473  37.902   1.920
71881W        W38949   4.215  17.116  10.146
71882W        W38950  31.499  30.969  14.863
71883W        W38951   2.946  22.114  13.341
71884W        W38952  35.887  42.363  12.435
71885W        W38953  36.413  18.272  13.400
71886W        W38954   3.420  20.117  12.524
71887W        W38955  42.858  41.490  11.993
71888W        W38956  24.685  10.779  14.288
71889W        W38957  31.126  36.886   4.265
71890W        W38958  17.304  35.409  14.893
71891W        W38959  20.083  29.175   4.152
71892W        W38960  32.121   1.281   4.706
71893W        W38961  32.558  21.052   0.752
71894W        W38962  30.128  37.453   2.903
71895W        W38963   1.826  33.556  13.389
71896W        W38964  18.174  13.764   4.690
71897W        W38965  17.795  30.446   2.679
71898W        W38966  37.080   7.306  11.943
71899W        W38967  27.663  17.591   4.163
71900W        W38968  19.665  27.976   1.274
71901W        W38969  26.027  15.210  14.963
71902W        W38970  41.840  16.285   0.792
71903W        W38971  20.131   4.937   1.864
71904W        W38972  11.769  12.787  13.048
71905W        W38973   9.686   8.315  10.955
71906W        W38974  20.197  13.617  11.023
71907W        W38975  28.945  43.499  12.866
71908W        W38976  25.183  15.230  14.952
71909W        W38977  37.536  15.620   2.826
71910W        W38978  27.637   9.803  11.891
71911W        W38979  30.441   8.677   0.831
71912W        W38980  14.117   0.286   4.803
71913W        W38981  11.645  32.633  10.430
71914W        W38982  16.740  32.525  10.931
71915W        W38983  33.032   9.695  12.472
71916W        W38984  31.614   5.719  13.011
71917W        W38985   0.480   8.667   0.446
71918W        W38986  23.533  28.159  14.285
71919W        W38987  44.822  27.609   1.348
71920W        W38988  10.238   1.354   2.247
71921W        W38989  25.092  39.397   1.390
71922W        W38990  32.583  13.268  14.803
71923W        W38991  10.741  11.787  12.023
71924W        W38992  43.325  44.818  13.512
71925W        W38993   1.380  31.019  13.050
71926W        W38994  25.102  12.644  13.351
71927W        W38995   6.235  15.170   0.768
71928W        W38996  39.507  38.531  14.382
71929W        W38997  29.065  41.439  13.947
71930W        W38998  37.519  27.089   3.698
71931W        W38999   3.375  12.844  12.009
71932W        W39000  26.012  11.656  10.553
71933W        W39001  17.168  22.571  12.408
71934W        W39002  22.042   7.852  13.361
71935W        W39003   6.244  19.777   3.357
71936W        W39004  25.612  10.336  10.123
71937W        W39005  33.622   3.347   0.242
71938W        W39006  38.546  35.472  14.915
71939W        W39007  19.266  10.713   0.356
71940W        W39008  26.989  31.589   3.328
71941W        W39009   7.334  28.983   3.742
71942W        W39010  16.732  22.597   5.768
71943W        W39011  15.767  20.578  14.403
71944W        W39012  32.118  29.100   2.370
71945W        W39013   7.201  30.100   4.266
71946W        W39014  11.366  30.615  10.917
71947W        W39015  28.550  17.718  11.526
71948W        W39016  28.090  33.482   0.790
71949W        W39017   7.173   0.910   0.266
71950W        W39018   7.391  28.515   4.824
71951W        W39019  37.344  25.151  12.905
71952W        W39020  44.312  29.470  11.494
71953W        W39021  40.358  41.365  12.368
71954W        W39022   0.469  16.196   4.621
71955W        W39023  13.760  43.897  14.498
71956W        W39024  21.520  41.438   5.210
71957W        W39025  43.338  41.831   3.222
71958W        W39026   7.678   0.960   2.851
71959W        W39027  23.214  33.481   1.247
71960W        W39028  29.554  27.048  11.434
71961W        W39029  30.623  44.896  12.524
71962W        W39030  29.562  43.400   4.749
71963W        W39031  14.760   1.762  11.584
71964W        W39032   9.374  24.598   2.756
71965W        W39033  44.805  43.344   2.179
71966W        W39034   2.883   2.811   3.716
71967W        W39035  12.181  28.003   2.186
71968W        W39036  42.408  25.207   2.702
71969W        W39037   1.381  39.435   0.882
71970W        W39038  42.294   2.440  14.832
71971W        W39039  39.937  17.222   2.830
71972W        W39040  30.658  38.863   1.695
71973W        W39041  26.201   3.392  13.981
71974W        W39042   0.297  40.402  12.347
71975W        W39043   9.655  24.129  13.325
71976W        W39044  14.705  12.662   4.605
71977W        W39045  26.671  27.048  12.580
71978W        W39046   7.353  25.508  11.920
71979W        W39047  32.897  40.934  11.979
71980W        W39048  12.622  36.483   4.146
71981W        W39049  34.917  21.041  12.922
71982W        W39050   4.395  33.469   0.242
71983W        W39051  22.131  40.827  13.486
71984W        W39052  24.991  15.322   0.380
71985W        W39053  15.639  27.987   5.308
71986W        W39054  16.757  41.903  11.561
71987W        W39055  26.460  26.014   3.698
71988W        W39056  40.336  25.031  14.985
71989W        W39057   5.381  26.615   9.940
71990W        W39058  40.388  40.418   1.902
71991W        W39059  37.062   8.688   2.261
71992W        W39060   9.219  29.648  11.869
71993W        W39061  27.532  42.476  11.559
71994W        W39062   8.730  18.130  12.910
71995W        W39063  30.138  21.624   4.130
71996W        W39064  25.688  38.426  13.500
71997W        W39065  28.043  26.155  11.541
71998W        W39066  39.936  38.833   4.315
71999W        W39067  13.817   7.791  12.895
72000W        W39068   7.709  22.251  12.930
72001W        W39069  22.193  21.211  12.579
72002W        W39070  33.586  16.166  12.371
72003W        W39071  17.683   3.764   3.673
72004W        W39072  26.979  19.212  10.641
72005W        W39073   4.790  22.009  10.405
72006W        W39074  16.161   0.924  13.871
72007W        W39075  20.549   0.389  14.885
72008W        W39076  40.347  12.293  14.312
72009W        W39077  26.514   1.274   4.714
72010W        W39078  32.039  17.667  13.942
72011W        W39079  23.699  35.533  11.582
72012W        W39080   4.256   8.300  14.500
72013W        W39081  14.256   4.896  13.045
72014W        W39082  33.520   7.318   5.169
72015W        W39083  23.651  41.424   3.668
72016W        W39084   5.416  41.947   3.297
72017W        W39085  22.209  20.653  14.995
72018W        W39086  16.597  23.135  14.876
72019W        W39087   1.473  20.654  11.093
72020W        W39088  17.115  23.097   2.250
72021W        W39089  39.889  10.273  12.002
72022W        W39090  25.024  27.184   1.826
72023W        W39091  21.066   0.491  13.384
72024W        W39092  15.159  22.161   1.834
72025W        W39093   0.259   1.421  13.532
72026W        W39094  30.532  16.744   0.420
72027W        W39095  28.027   4.346   3.371
72028W        W39096  32.108  11.699  13.368
72029W        W39097  28.143   4.800  14.813
72030W        W39098   3.736  20.731  14.414
72031W        W39099  40.367  27.449   2.227
72032W        W39100  12.137  37.541  14.280
72033W        W39101  37.557   5.842   3.291
72034W        W39102  30.593  29.446  13.036
72035W        W39103  28.152   8.323  12.443
72036W        W39104   5.391  16.788  14.941
72037W        W39105  27.668  26.133   0.383
72038W        W39106   0.745  33.518  13.539
72039W        W39107   3.335  17.658  13.540
72040W        W39108  18.134  14.691  10.909
72041W        W39109  36.907   0.332   4.779
72042W        W39110  34.027   4.411  14.307
72043W        W39111  42.457  34.116  14.432
72044W        W39112   5.701  38.854   4.181
72045W        W39113   4.715  10.194  13.967
72046W        W39114  12.313  14.201   0.874
72047W        W39115  33.574  28.182   2.738
72048W        W39116  38.510  24.988  13.052
72049W        W39117  24.139  18.649  12.452
72050W        W39118   9.664  25.667   4.807
72051W        W39119  32.125  34.385  14.280
72052W        W39120  25.129  20.609   4.149
72053W        W39121   8.387  41.888  13.902
72054W        W39122  37.019  14.325   4.126
72055W        W39123  33.130  42.030  12.001
72056W        W39124  23.677  33.493  14.978
72057W        W39125  37.025   5.778  11.558
72058W        W39126   7.689   3.818   2.711
72059W        W39127  19.254   1.416   0.735
72060W        W39128   8.680  32.074   9.942
72061W        W39129  44.422  42.974  12.486
72062W        W39130   3.862  26.113  13.380
72063W        W39131  22.244   6.299   4.653
72064W        W39132  40.925  23.066  11.394
72065W        W39133   1.800   0.746   0.868
72066W        W39134  26.092  10.838   3.150
72067W        W39135  27.999  10.258  12.382
72068W        W39136   7.881  41.871   2.723
72069W        W39137  31.103  44.754   1.394
72070W        W39138  40.831  30.049   1.405
72071W        W39139  29.647  43.938   1.900
72072W        W39140  35.936  17.655   2.665
72073W        W39141  14.680  42.836  13.831
72074W        W39142  32.622   5.902  14.880
72075W        W39143  25.186  42.981   4.278
72076W        W39144  29.569  25.176   3.294
72077W        W39145  32.582   6.320   1.796
72078W        W39146   9.365  12.804  11.900
72079W        W39147  33.403   6.818  14.304
72080W        W39148  22.101   8.187   4.314
72081W        W39149   4.753  35.982   4.698
72082W        W39150  40.427  31.609  12.509
72083W        W39151  30.062  31.412   3.746
72084W        W39152   4.893   6.805  11.412
72085W        W39153   5.783   4.362   4.648
72086W        W39154   2.807  13.765   1.703
72087W        W39155  27.597  27.970  14.392
72088W        W39156   2.760  26.209  14.899
72089W        W39157  16.724  39.047  12.866
72090W        W39158   5.721   0.802   1.384
72091W        W39159  27.064   3.884   3.734
72092W        W39160  30.545  20.765  13.015
72093W        W39161  28.132  30.928   0.931
72094W        W39162  23.694  41.015   2.246
72095W        W39163  33.499   5.915   3.313
72096W        W39164  41.427  40.985   4.741
72097W        W39165   7.184  16.573   3.381
72098W        W39166  31.946  14.684  14.816
72099W        W39167  31.452  37.529  11.398
72100W        W39168   8.721  40.430   0.407
72101W        W39169  10.755  21.247  13.831
72102W        W39170  25.645  32.090  12.048
72103W        W39171   6.838  21.656   5.128
72104W        W39172   5.715  33.584   4.118
72105W        W39173   8.656  41.829  11.433
72106W        W39174  34.047   6.835  12.004
72107W        W39175  41.336  41.307  12.380
72108W        W39176  33.902  11.171  11.052
72109W        W39177  27.150  26.687   2.321
72110W        W39178  15.316   7.852   5.724
72111W        W39179  27.016  33.524  12.859
72112W        W39180  27.523  25.095  12.085
72113W        W39181   4.353  39.326  12.021
72114W        W39182  17.589  23.536   0.853
72115W        W39183   3.251  33.944   4.135
72116W        W39184  38.886  15.131   3.174
72117W        W39185   7.411  14.260  10.954
72118W        W39186  29.111  18.240   0.823
72119W        W39187  10.762  11.196   0.952
72120W        W39188  30.149  17.748   2.304
72121W        W39189  43.998  17.580  12.035
72122W        W39190  33.607  13.826   0.331
72123W        W39191  31.467  37.881  12.866
72124W        W39192  43.365  14.695   1.356
72125W        W39193  39.010  21.514   2.792
72126W        W39194   8.882  32.433   1.363
72127W        W39195  26.594   9.758  12.859
72128W        W39196   8.237  12.350  14.343
72129W        W39197  10.842  13.306  11.411
72130W        W39198  10.144  26.171   3.759
72131W        W39199  16.279  39.972  14.991
72132W        W39200  10.665  40.328   0.372
72133W        W39201  36.895  34.047  10.558
72134W        W39202  42.378  20.623   1.724
72135W        W39203  36.946  34.382  11.496
72136W        W39204  26.145  22.526   3.376
72137W        W39205   1.757   9.861   1.241
72138W        W39206  24.013   4.303   1.741
72139W        W39207   5.846  24.659   2.893
72140W        W39208  11.262  19.095   2.179
72141W        W39209  37.977  21.248   2.888
72142W        W39210  39.380  26.597   1.879
72143W        W39211   7.701  21.628   2.327
72144W        W39212   5.251  18.219   3.228
72145W        W39213  42.000  34.506  10.588
72146W        W39214  19.677  17.748   4.275
72147W        W39215  28.151   7.339   2.725
72148W        W39216  30.447  41.458  14.300
72149W        W39217  30.637  10.743   0.883
72150W        W39218  41.986  16.687  14.906
72151W        W39219  40.959  19.105  12.553
72152W        W39220   8.393  32.434  13.537
72153W        W39221   0.832  39.014   1.744
72154W        W39222  44.894  44.774  13.812
72155W        W39223  39.329   7.260   1.744
72156W        W39224  16.144   8.269   2.853
72157W        W39225  30.075  19.134   3.635
72158W        W39226   7.815  16.242   1.236
72159W        W39227   3.234   6.327   3.290
72160W        W39228   4.868  34.887  14.885
72161W        W39229  15.184  32.426   4.806
72162W        W39230   0.282  44.505  10.538
72163W        W39231  42.995  42.968   3.173
72164W        W39232  25.985  44.337  14.294
72165W        W39233   1.827  37.546  14.867
72166W        W39234   9.724  26.951  13.919
72167W        W39235   6.337   5.418  14.289
72168W        W39236   7.666  19.600  14.949
72169W        W39237  10.304  35.416  12.501
72170W        W39238   7.861  16.156   0.834
72171W        W39239  16.749  38.422   4.783
72172W        W39240  28.499  21.242   0.379
72173W        W39241   7.272  36.454   4.835
72174W        W39242  24.219  23.107   0.849
72175W        W39243  35.868   7.293  14.854
72176W        W39244  32.952  18.133  12.345
72177W        W39245   9.271   1.282  14.943
72178W        W39246  38.388  39.938  14.297
72179W        W39247   3.390  17.772   2.752
72180W        W39248  14.229  28.009  11.105
72181W        W39249   6.842  12.623   1.314
72182W        W39250  24.616  40.826  13.052
72183W        W39251   5.259  38.881   4.743
72184W        W39252  10.196   0.392  13.423
72185W        W39253  10.335   2.371  10.977
72186W        W39254   1.267  13.207   1.233
72187W        W39255  39.885  14.756   0.735
72188W        W39256  29.107  18.731   1.716
72189W        W39257  14.247  23.217  10.477
72190W        W39258  10.856  21.089   0.414
72191W        W39259   9.362   7.864  14.413
72192W        W39260  25.656   5.832  14.505
72193W        W39261  14.260   8.237  11.548
72194W        W39262   5.321  24.689  12.040
72195W        W39263  38.505  42.513  13.391
72196W        W39264  10.224  29.601  13.005
72197W        W39265  11.677  26.582  10.568
72198W        W39266  44.291   8.740  13.907
72199W        W39267   0.325  27.166  14.479
72200W        W39268   8.240  25.711   1.694
72201W        W39269   9.237   1.747   0.432
72202W        W39270  23.531  43.966   4.121
72203W        W39271  36.065  13.694  10.988
72204W        W39272  20.210  37.401  14.861
72205W        W39273  37.553  33.085  13.452
72206W        W39274  40.828  43.896  10.500
72207W        W39275  13.794   0.493  12.878
72208W        W39276  18.722   4.418  13.944
72209W        W39277  31.064  40.950   4.626
72210W        W39278  37.522  38.894   5.107
72211W        W39279  11.644   6.910  10.538
72212W        W39280  25.195   6.842  14.978
72213W        W39281  23.211  31.561   3.387
72214W        W39282  41.421  27.472   4.216
72215W        W39283  18.782  44.452   3.185
72216W        W39284  35.358  36.052  13.411
72217W        W39285  19.076  38.839   1.865
72218W        W39286  24.643  41.519  12.359
72219W        W39287  28.938  32.902  11.093
72220W        W39288  41.038   5.905  13.383
72221W        W39289  38.846  40.874   0.822
72222W        W39290   5.880  44.852   0.415
72223W        W39291   8.797  43.869  11.463
72224W        W39292   0.456  15.153   0.838
72225W        W39293  44.904  15.720   3.789
72226W        W39294  36.091  21.668   4.662
72227W        W39295  27.978   0.411   0.798
72228W        W39296   8.350  41.474  14.516
72229W        W39297  25.062  40.877  10.457
72230W        W39298  14.800   4.848   0.890
72231W        W39299  43.796  21.625  11.954
72232W        W39300  32.046  21.523  12.989
72233W        W39301  14.759   7.728  10.900
72234W        W39302  41.893  17.084   3.691
72235W        W39303   7.411   6.190   4.693
72236W        W39304  21.122  14.612  12.888
72237W        W39305  43.377  32.475  11.395
72238W        W39306  36.393   7.382   9.973
72239W        W39307  12.306  32.524  11.559
72240W        W39308  11.317  35.022   2.236
72241W        W39309  23.540   3.884   2.415
72242W        W39310   2.754  42.305   4.639
72243W        W39311  30.062  27.486   3.184
72244W        W39312   5.765  28.052  13.865
72245W        W39313  17.672  39.062   1.433
72246W        W39314  14.126  26.026   1.355
72247W        W39315   1.398  25.218   0.838
72248W        W39316  32.571   8.766  13.911
72249W        W39317  15.236  42.515   0.447
72250W        W39318  26.510  19.579   3.792
72251W        W39319  21.686   8.351  11.389
72252W        W39320  34.449   5.383   2.417
72253W        W39321  35.070  26.131   1.860
72254W        W39322  39.487  43.960  14.950
72255W        W39323   4.385   5.297   0.278
72256W        W39324  26.690  39.428  14.830
72257W        W39325  29.513  44.470  13.855
72258W        W39326  23.223  16.699   0.937
72259W        W39327  24.543  10.315  12.864
72260W        W39328  35.594   8.712   3.269
72261W        W39329  39.903  21.697   4.779
72262W        W39330  39.987  35.370  12.384
72263W        W39331  34.583  15.613   4.816
72264W        W39332  25.533  30.448   2.752
72265W        W39333  24.639   9.154  12.513
72266W        W39334   6.317  22.089   4.143
72267W        W39335  28.642  24.627  13.337
72268W        W39336   4.847  42.374  14.840
72269W        W39337  14.224  41.999   3.653
72270W        W39338  34.461  28.651   1.308
72271W        W39339  34.468   0.385  13.369
72272W        W39340  39.953  15.262   1.838
72273W        W39341  34.011   3.726  11.896
72274W        W39342  18.727  11.362   2.375
72275W        W39343  15.715  16.134   1.448
72276W        W39344  39.835  29.521  13.542
72277W        W39345  32.551  14.276   3.338
72278W        W39346  26.175  43.291   1.297
72279W        W39347  12.268   3.843  14.809
72280W        W39348  34.413  38.891   4.648
72281W        W39349  15.734  26.171  13.044
72282W        W39350  20.675  25.177  14.485
72283W        W39351  36.919  19.584   2.890
72284W        W39352  34.089   1.462  12.436
72285W        W39353  13.133   7.800   0.816
72286W        W39354   8.163  11.855  13.995
72287W        W39355  17.236  16.725  14.374
72288W        W39356  35.572   6.870  12.925
72289W        W39357   0.923  26.176  14.507
72290W        W39358  27.033  15.607   4.622
72291W        W39359  10.640   6.794   1.237
72292W        W39360   3.273  20.593   3.842
72293W        W39361  44.010  25.083  14.316
72294W        W39362  19.154   9.177   4.613
72295W        W39363  25.484   3.722   4.712
72296W        W39364  29.059  24.224   1.291
72297W        W39365  14.597  38.401   0.951
72298W        W39366  20.558  43.361   0.334
72299W        W39367   3.402   0.749  11.983
72300W        W39368  32.110  17.099  14.826
72301W        W39369  17.215  40.827   0.928
72302W        W39370  34.425  16.222   0.742
72303W        W39371  31.506  42.930   2.740
72304W        W39372  22.137  38.560   3.705
72305W        W39373   0.447  11.347  10.891
72306W        W39374  40.346  43.448   1.708
72307W        W39375  27.188  14.148  12.499
72308W        W39376  19.148  30.129  13.851
72309W        W39377  37.370  24.672  14.850
72310W        W39378  42.887   5.815   3.693
72311W        W39379  38.838  16.077   0.941
72312W        W39380  14.201  22.091  12.849
72313W        W39381  26.027   2.355  12.341
72314W        W39382  15.589  44.293  10.890
72315W        W39383  23.639  39.011  14.904
72316W        W39384  16.123  34.092  14.862
72317W        W39385  30.997  42.372  11.105
72318W        W39386  16.616   8.274   4.273
72319W        W39387  42.443   1.824   4.289
72320W        W39388  39.982  14.784  11.081
72321W        W39389  21.521  12.779  12.928
72322W        W39390  12.621  11.814   3.305
72323W        W39391  25.164  22.152   3.810
72324W        W39392  39.349  40.867   1.736
72325W        W39393  25.004  43.379   4.745
72326W        W39394  37.367  16.599   2.332
72327W        W39395  10.335  27.150   1.858
72328W        W39396  30.931   1.381  14.463
72329W        W39397  41.469  18.056  14.288
72330W        W39398  15.180   5.754  13.401
72331W        W39399  11.262  12.652   0.756
72332W        W39400  40.857   7.730  12.866
72333W        W39401   2.404  16.235   1.779
72334W        W39402   0.953  20.226   0.402
72335W        W39403   7.841  31.032  12.472
72336W        W39404  28.081  33.895  13.032
72337W        W39405  37.912  30.924  11.888
72338W        W39406  22.176  19.229  13.517
72339W        W39407   8.217   2.248   0.776
72340W        W39408  24.191  25.517   4.132
72341W        W39409  39.396  32.558   1.350
72342W        W39410  23.185   3.789   1.903
72343W        W39411   0.854   3.937   3.265
72344W        W39412   6.340  21.589  14.289
72345W        W39413  43.291  42.855  10.511
72346W        W39414  15.088  43.885  11.501
72347W        W39415  32.529  16.648  11.965
72348W        W39416  42.331  21.056   2.727
72349W        W39417  31.118   0.427  11.424
72350W        W39418  29.976  10.701  14.909
72351W        W39419  15.778  13.650  13.861
72352W        W39420  38.526  32.538  13.039
72353W        W39421  25.684  43.297  11.987
72354W        W39422  29.058  31.108  11.885
72355W        W39423   0.260  18.276  14.296
72356W        W39424  30.925  31.070   3.778
72357W        W39425   7.821   0.443   2.293
72358W        W39426  41.398  42.828   4.703
72359W        W39427  19.643   5.282  10.518
72360W        W39428  41.508   6.398  10.468
72361W        W39429  38.997   6.268   3.384
72362W        W39430   1.966   8.750   2.256
72363W        W39431   4.448  10.647   1.919
72364W        W39432   0.473   6.290   3.675
72365W        W39433   5.921  32.037   1.241
72366W        W39434   9.280  40.373  13.384
72367W        W39435  14.126  25.613   0.818
72368W        W39436  15.781  11.328  14.789
72369W        W39437   3.888  25.061  14.784
72370W        W39438   6.420  27.012   0.399
72371W        W39439  28.004  32.925   3.730
72372W        W39440  16.642  39.031  14.916
72373W        W39441   3.408   5.340  11.609
72374W        W39442  31.136  11.699   4.718
72375W        W39443  43.460  44.888   1.372
72376W        W39444   3.758   1.483  11.531
72377W        W39445  35.583  41.348  12.022
72378W        W39446   0.352  23.996  11.995
72379W        W39447  20.206  33.541   3.246
72380W        W39448  13.294   5.367  10.466
72381W        W39449  27.528  40.344  12.380
72382W        W39450   7.849  27.548  12.885
72383W        W39451  32.921  44.414   4.190
72384W        W39452  17.704  22.222   1.871
72385W        W39453  35.418  28.605  10.934
72386W        W39454  43.404  21.261  12.095
72387W        W39455  21.626   8.348   2.197
72388W        W39456  18.545   5.797   2.206
72389W        W39457  20.273  37.447  12.896
72390W        W39458   9.322  33.938   1.227
72391W        W39459  41.533  39.823   1.427
72392W        W39460  26.956   8.788  11.437
72393W        W39461  17.173  33.420  11.063
72394W        W39462  18.573   5.209  13.384
72395W        W39463  15.318  16.651  12.025
72396W        W39464   8.841  12.825   3.263
72397W        W39465  21.157  33.982   3.797
72398W        W39466   5.706  12.799  13.475
72399W        W39467  28.463  31.128  14.887
72400W        W39468  18.661  24.037   4.189
72401W        W39469   6.782  27.633  14.768
72402W        W39470  29.660  35.587   3.250
72403W        W39471  18.724  24.678  12.472
72404W        W39472   4.831  33.384   3.335
72405W        W39473  17.092  20.745   1.272
72406W        W39474   4.757  25.643   1.211
72407W        W39475  28.663   8.689   4.809
72408W        W39476  31.477  22.059  10.447
72409W        W39477  10.744  17.643   0.434
72410W        W39478  24.628  16.804  14.895
72411W        W39479  44.380  26.956   1.893
72412W        W39480  34.114  26.162  11.577
72413W        W39481  43.367  23.650  12.520
72414W        W39482  31.961  10.216  13.337
72415W        W39483  43.854  28.111   1.867
72416W        W39484   8.197  24.482  10.528
72417W        W39485  24.541  33.995  14.495
72418W        W39486  13.114  27.597  12.965
72419W        W39487  29.158  10.726  14.367
72420W        W39488  30.515  32.973   0.791
72421W        W39489  25.036   1.369   1.419
72422W        W39490  39.002   2.363   4.345
72423W        W39491  10.633  30.479   1.749
72424W        W39492   0.388  16.593   4.133
72425W        W39493  40.894  21.743   4.248
72426W        W39494  40.347  11.366   0.793
72427W        W39495   8.179  40.515  13.382
72428W        W39496  26.171  22.114  11.939
72429W        W39497  17.574  22.605   4.307
72430W        W39498  20.537  40.348   2.707
72431W        W39499  23.602  24.495   2.894
72432W        W39500  43.323  39.359   4.707
72433W        W39501   7.350  18.579   3.639
72434W        W39502  23.536  18.558   1.287
72435W        W39503  13.779  41.800  10.529
72436W        W39504  21.617  43.494  10.404
72437W        W39505   7.749  35.447  11.493
72438W        W39506  17.616  39.357  11.489
72439W        W39507  33.623  10.722  13.991
72440W        W39508  11.331  35.963   4.313
72441W        W39509  38.525  33.484   4.699
72442W        W39510  31.060  44.841  14.856
72443W        W39511  12.626   9.678   4.318
72444W        W39512  17.760  22.157  12.571
72445W        W39513  37.543  29.572  13.349
72446W        W39514  13.769  36.948  12.505
72447W        W39515  37.524   0.281  11.018
72448W        W39516  34.949  22.592  13.004
72449W        W39517  25.006   7.308  11.570
72450W        W39518  19.540  11.228  11.978
72451W        W39519  26.649   4.885   0.728
72452W        W39520  33.556  36.568   1.887
72453W        W39521  12.655  42.806  11.403
72454W        W39522  14.794  14.146   5.186
72455W        W39523  14.294   3.279   4.245
72456W        W39524  34.867  11.722  14.299
72457W        W39525  39.466  19.779   1.325
72458W        W39526   6.764  23.502   0.742
72459W        W39527  16.806   1.241  14.863
72460W        W39528  33.557  31.530   4.632
72461W        W39529   8.725  11.747   2.209
72462W        W39530  24.637  21.527   1.741
72463W        W39531  41.832  10.227   0.365
72464W        W39532  40.994  29.507  12.981
72465W        W39533  28.563  15.246   4.657
72466W        W39534  16.659  22.728   2.697
72467W        W39535  33.497   2.374  14.801
72468W        W39536  35.867  23.042   3.250
72469W        W39537  27.480  15.146   5.711
72470W        W39538   9.768  18.778  12.556
72471W        W39539   2.807  43.869   3.844
72472W        W39540  18.233  31.544   3.192
72473W        W39541  27.560  37.455  11.015
72474W        W39542  19.084  27.076   4.140
72475W        W39543   7.676  17.116  10.464
72476W        W39544   3.296  34.925   3.374
72477W        W39545  16.748  43.406   3.304
72478W        W39546  23.561  15.184  14.515
72479W        W39547  31.138  17.662  12.035
72480W        W39548  22.535   3.802  11.583
72481W        W39549  17.719  39.473  12.550
72482W        W39550   5.389  18.606   1.869
72483W        W39551   2.964  40.891  11.512
72484W        W39552  33.386  23.614  14.847
72485W        W39553  32.602  29.030   4.635
72486W        W39554  13.709  42.832   0.461
72487W        W39555  37.845  38.051   0.956
72488W        W39556   7.206   2.315   1.875
72489W        W39557  26.554  34.957  12.359
72490W        W39558   1.272  14.766   1.723
72491W        W39559  36.394   3.314   1.768
72492W        W39560  38.934  17.068   4.117
72493W        W39561  20.554  20.596   1.278
72494W        W39562   3.277  37.380   1.382
72495W        W39563  15.086  39.056   0.900
72496W        W39564  31.633  32.076  14.761
72497W        W39565   5.784   3.945   0.869
72498W        W39566   0.773  11.170   3.232
72499W        W39567  12.686  13.221   0.340
72500W        W39568   1.409   1.897  10.461
72501W        W39569   5.801  33.005   0.293
72502W        W39570  29.979  41.814   1.902
72503W        W39571  23.182  10.809  11.916
72504W        W39572  29.089  18.563  10.550
72505W        W39573  38.493  30.637  12.959
72506W        W39574  16.811  25.549  14.990
72507W        W39575  38.467  41.951  11.503
72508W        W39576  30.635  32.934   2.357
72509W        W39577   0.252  19.040  14.883
72510W        W39578  10.325   8.867  13.842
72511W        W39579  15.159  16.310   2.311
72512W        W39580  33.964  42.397  10.426
72513W        W39581  27.990  21.044  13.460
72514W        W39582  41.827  27.197  13.353
72515W        W39583   0.333   8.304  13.464
72516W        W39584  21.073  16.291   1.745
72517W        W39585  20.070  34.108   2.887
72518W        W39586  38.339  36.519   2.688
72519W        W39587  10.291   8.322   2.803
72520W        W39588  25.563   1.317  14.805
72521W        W39589  18.764  42.455   0.789
72522W        W39590  33.918  12.339   1.357
72523W        W39591  15.236  44.362  13.950
72524W        W39592  27.171  40.987   2.885
72525W        W39593  41.794  42.407  13.453
72526W        W39594   0.840   7.270  11.056
72527W        W39595  38.539  44.481  13.455
72528W        W39596  37.843  22.722   2.862
72529W        W39597  30.099  41.534  14.876
72530W        W39598  40.546  36.914   3.231
72531W        W39599  18.287  17.193   2.782
72532W        W39600  39.358  24.699   0.943
72533W        W39601   4.364  18.720   3.336
72534W        W39602   5.878  19.143   2.235
72535W        W39603  34.399  28.967   1.356
72536W        W39604  30.504  18.254   2.200
72537W        W39605  28.021  44.916  12.072
72538W        W39606  42.824  28.648   1.757
72539W        W39607  26.629  44.313  13.334
72540W        W39608  33.924  34.526   1.782
72541W        W39609  10.203  41.896  12.371
72542W        W39610   3.421  19.577  11.560
72543W        W39611  23.600  40.902   4.125
72544W        W39612  29.094  38.908   4.601
72545W        W39613  22.106  19.182  14.936
72546W        W39614   5.907  39.955  10.633
72547W        W39615   3.730  11.188  10.897
72548W        W39616  14.605  40.372   0.902
72549W        W39617  29.615  34.012  10.077
72550W        W39618  14.767  19.616  11.049
72551W        W39619  37.418   4.744   3.736
72552W        W39620   2.956  18.082   3.245
72553W        W39621  29.465  42.934   4.213
72554W        W39622  14.112  21.128  13.835
72555W        W39623  25.013  14.267  14.470
72556W        W39624   3.828  39.477   3.252
72557W        W39625  18.267   0.478   4.662
72558W        W39626   2.877  15.198   1.401
72559W        W39627   3.741  13.820  11.898
72560W        W39628   4.286  33.495   1.409
72561W        W39629  26.687  18.127  11.059
72562W        W39630  25.196  21.228   0.772
72563W        W39631  26.637  44.000  10.986
72564W        W39632   1.811   6.835  14.327
72565W        W39633  10.661  18.234  14.368
72566W        W39634  14.108   8.312   5.749
72567W        W39635  19.772  10.826   2.774
72568W        W39636  41.976  36.898  13.446
72569W        W39637  28.050  43.877   2.255
72570W        W39638  10.709  29.924  11.922
72571W        W39639  34.611  21.254   1.741
72572W        W39640  34.373   6.376  14.897
72573W        W39641  23.572  19.197   0.942
72574W        W39642  37.024  19.648  11.445
72575W        W39643   9.880   3.824   1.779
72576W        W39644  36.388  29.504   1.367
72577W        W39645  44.347   8.857  11.011
72578W        W39646  30.453   5.692  14.806
72579W        W39647   7.202  12.189  12.480
72580W        W39648  20.148  38.057  11.091
72581W        W39649  20.737  40.030  12.446
72582W        W39650  13.240  10.838   0.249
72583W        W39651  26.577  27.187  13.836
72584W        W39652  12.828  31.097  13.036
72585W        W39653  41.863   4.876   2.769
72586W        W39654  19.057  19.158   3.237
72587W        W39655  40.817  20.745  11.998
72588W        W39656  39.879  19.074   1.870
72589W        W39657   9.792   7.376   4.240
72590W        W39658   4.369   7.403   3.645
72591W        W39659  20.725   3.232  10.998
72592W        W39660  15.179  37.834  14.917
72593W        W39661   4.446  22.236  13.432
72594W        W39662   6.228  20.631   4.333
72595W        W39663   8.400  13.107   2.773
72596W        W39664  30.092  37.356  10.501
72597W        W39665  14.194  39.846  12.959
72598W        W39666   4.377  28.933   4.291
72599W        W39667  40.541   4.214  14.988
72600W        W39668  20.134  17.092  12.944
72601W        W39669   7.202   0.435   4.787
72602W        W39670   6.910  13.621   4.673
72603W        W39671   4.304  16.649   2.353
72604W        W39672  34.476  39.444  11.030
72605W        W39673  21.129  21.558  11.126
72606W        W39674  24.498  32.064   2.221
72607W        W39675   9.821  11.710   0.388
72608W        W39676  36.524  29.615  14.466
72609W        W39677  34.884   0.303   1.329
72610W        W39678  34.063  22.661  12.043
72611W        W39679   7.199  25.674   1.900
72612W        W39680  19.057   8.789  12.380
72613W        W39681  17.743   0.404  11.485
72614W        W39682  40.376  43.274   3.200
72615W        W39683  29.625  36.005   4.238
72616W        W39684  41.861  17.296   0.922
72617W        W39685   8.218  23.602   4.195
72618W        W39686   3.342  16.158   2.777
72619W        W39687  14.103  29.475   5.276
72620W        W39688  33.011  33.402  14.375
72621W        W39689  13.730  24.504   3.673
72622W        W39690   6.752   0.448   2.260
72623W        W39691  31.972  35.019   1.337
72624W        W39692  16.094   1.914  12.894
72625W        W39693   3.405   6.824   2.844
72626W        W39694   7.416  17.585  13.824
72627W        W39695   9.299  41.349   4.293
72628W        W39696   0.892  15.771  13.020
72629W        W39697  30.100  41.008  13.914
72630W        W39698  14.315  28.158  14.984
72631W        W39699  28.964  13.845   3.820
72632W        W39700  21.607  39.837  12.824
72633W        W39701  36.966  38.985   2.301
72634W        W39702  35.874  25.108  12.882
72635W        W39703  24.567  28.001  14.291
72636W        W39704   0.447   1.821  13.985
72637W        W39705  27.102   2.731  14.337
72638W        W39706   1.849   0.888   3.720
72639W        W39707  13.813   7.389  13.483
72640W        W39708  14.115  22.560   3.673
72641W        W39709  36.465  35.972  14.943
72642W        W39710   9.153  24.664   0.955
72643W        W39711  21.239  44.315  10.487
72644W        W39712   7.303  14.204  14.820
72645W        W39713   1.777  40.973  14.459
72646W        W39714   5.902  28.175  11.527
72647W        W39715   3.750  38.002   3.352
72648W        W39716  13.648  34.411   4.640
72649W        W39717  30.957   8.245   1.270
72650W        W39718  33.496  24.998   1.387
72651W        W39719  27.135   1.743   0.288
72652W        W39720  21.647   0.438   2.816
72653W        W39721   5.255   2.330   0.788
72654W        W39722  38.005  40.964  12.945
72655W        W39723  35.855  40.958   2.315
72656W        W39724   9.221  26.650  13.055
72657W        W39725  18.777  40.318   2.238
72658W        W39726  17.179   8.851  10.986
72659W        W39727  28.167  18.159   1.916
72660W        W39728  26.964  31.074  10.475
72661W        W39729   1.473  40.386   2.789
72662W        W39730  20.260  35.076  10.461
72663W        W39731   6.748  10.171  13.357
72664W        W39732  13.747  19.171   3.259
72665W        W39733  26.578  42.003   1.885
72666W        W39734  41.917   2.380   0.350
72667W        W39735  42.326   1.342   1.707
72668W        W39736  18.254  11.362   1.354
72669W        W39737  14.679  24.071   5.231
72670W        W39738  17.719  16.206   4.195
72671W        W39739   5.370  33.904  11.382
72672W        W39740  35.036  44.447  11.560
72673W        W39741  25.095   0.306   0.875
72674W        W39742  34.945  16.221  14.836
72675W        W39743  33.506  37.510  14.767
72676W        W39744  39.870  38.918   0.362
72677W        W39745  13.787  34.511   3.834
72678W        W39746  43.822   2.834  14.929
72679W        W39747  35.487  34.485   0.932
72680W        W39748  18.253  11.762  12.946
72681W        W39749   8.291  21.558  11.057
72682W        W39750  15.273   4.333  13.823
72683W        W39751  19.710   4.413  10.428
72684W        W39752  35.090  37.934  13.005
72685W        W39753   8.806   7.327   3.167
72686W        W39754  36.385  44.828   1.816
72687W        W39755  24.684  35.579  10.434
72688W        W39756   5.928  33.523  13.478
72689W        W39757  42.916  39.952   1.432
72690W        W39758  38.547  38.563  10.575
72691W        W39759  32.906   1.789   4.726
72692W        W39760  40.963  18.731   3.773
72693W        W39761  16.591  17.607   0.803
72694W        W39762  21.666  40.340   2.205
72695W        W39763  26.999   1.738   2.224
72696W        W39764   1.800   8.771  12.441
72697W        W39765   5.222  21.100   4.764
72698W        W39766  27.063  22.523  14.384
72699W        W39767   9.863  36.954  11.078
72700W        W39768   0.438  16.660   0.291
72701W        W39769  44.987  19.233   3.706
72702W        W39770  30.076  23.996  13.041
72703W        W39771   5.301  36.462   2.751
72704W        W39772  39.027  31.420   0.910
72705W        W39773   3.836  11.665   1.247
72706W        W39774  26.488  16.126   1.901
72707W        W39775  30.921  43.998  10.961
72708W        W39776  18.171   7.272   0.478
72709W        W39777  35.855  18.623   1.235
72710W        W39778  34.957  39.857   1.883
72711W        W39779  28.150  26.179   0.845
72712W        W39780  14.256  32.104   1.448
72713W        W39781  36.989   9.799  10.977
72714W        W39782  42.495  21.545  12.888
72715W        W39783  34.112  27.498  12.392
72716W        W39784   9.267  35.088   4.241
72717W        W39785  28.047  27.550   4.723
72718W        W39786  12.828  35.426   3.815
72719W        W39787   5.905  19.134  12.928
72720W        W39788  25.468   0.429  13.503
72721W        W39789  29.036   3.356   3.781
72722W        W39790  14.166  40.353   0.385
72723W        W39791   9.215  36.466  13.323
72724W        W39792  26.136  17.152  10.954
72725W        W39793  23.155  11.250   2.277
72726W        W39794  38.539   3.241  11.437
72727W        W39795  28.514  15.675   3.385
72728W        W39796  38.436  13.836   4.645
72729W        W39797   1.362  13.606  11.377
72730W        W39798  35.367  44.995   3.189
72731W        W39799  29.032  14.247   0.727
72732W        W39800  19.652  30.159   3.688
72733W        W39801   6.764   2.448  13.533
72734W        W39802  43.273   6.812   0.951
72735W        W39803  32.447  30.112  11.506
72736W        W39804  15.656  32.973   0.410
72737W        W39805  19.646  35.502   4.265
72738W        W39806  25.148  10.814   1.236
72739W        W39807  18.701  18.615  12.489
72740W        W39808  22.205  43.851   0.443
72741W        W39809  13.164  30.591   9.952
72742W        W39810   2.385   4.353   3.662
72743W        W39811  23.649   1.856   2.701
72744W        W39812   8.311  28.973  13.823
72745W        W39813  36.582  11.841   1.853
72746W        W39814  38.517  27.092  11.438
72747W        W39815   8.802   4.371  10.933
72748W        W39816   9.744   3.276   3.300
72749W        W39817  19.095  18.640   0.292
72750W        W39818   7.396  22.716   1.212
72751W        W39819   9.203  31.069   3.160
72752W        W39820  13.808  23.030  11.603
72753W        W39821   8.876  35.406  11.977
72754W        W39822  18.586  16.695  13.372
72755W        W39823  21.708  39.380   3.290
72756W        W39824  28.166  15.249  12.521
72757W        W39825  10.686  34.393  12.919
72758W        W39826   5.911  14.597   1.256
72759W        W39827  13.195   5.277  14.763
72760W        W39828  22.182  34.009  13.024
72761W        W39829  44.488  14.221  12.876
72762W        W39830   9.820  38.883   0.968
72763W        W39831  13.760  32.510  13.515
72764W        W39832  28.020  39.872  14.971
72765W        W39833   1.919  36.515  11.002
72766W        W39834  32.133  31.068  12.004
72767W        W39835  18.574  13.343  13.020
72768W        W39836  23.119  18.711   2.337
72769W        W39837  37.914  42.299  13.888
72770W        W39838  15.738   3.782  11.598
72771W        W39839  25.515  16.675  12.041
72772W        W39840   0.354  16.765   0.927
72773W        W39841  15.718  15.596   2.315
72774W        W39842  23.070   2.940   1.374
72775W        W39843   9.813  37.368   2.273
72776W        W39844  25.210  29.604  11.050
72777W        W39845  33.415  13.638  13.514
72778W        W39846  42.804  43.967  12.364
72779W        W39847  30.649  28.164   0.330
72780W        W39848  39.856  44.422   2.877
72781W        W39849  33.616  12.805   3.836
72782W        W39850  39.519  26.582   1.260
72783W        W39851   9.880  36.002   0.474
72784W        W39852  36.373  43.514   0.779
72785W        W39853  37.422   4.342  10.551
72786W        W39854  22.102   0.779   3.158
72787W        W39855  31.523   5.845   4.155
72788W        W39856   8.795  15.685  11.124
72789W        W39857  43.289  12.283  10.598
72790W        W39858  21.626  20.165  12.478
72791W        W39859  10.329  44.384   0.382
72792W        W39860  25.053  16.628  14.025
72793W        W39861  18.128  10.664   2.398
72794W        W39862  10.271  38.034  12.484
72795W        W39863  37.513  24.125  12.048
72796W        W39864   1.927  21.075   2.177
72797W        W39865  32.113  24.503   1.417
72798W        W39866   4.339  13.772  11.088
72799W        W39867  28.055   2.915  13.510
72800W        W39868  25.474   5.878  13.836
72801W        W39869  33.040  20.044   4.831
72802W        W39870  30.596  35.034  12.431
72803W        W39871   5.210  34.448   3.677
72804W        W39872  40.807  24.720  13.902
72805W        W39873  22.723  25.507  13.991
72806W        W39874  17.197  42.925  12.900
72807W        W39875   0.492   0.402   0.255
72808W        W39876  38.825   7.200   4.306
72809W        W39877  12.670  32.592   2.745
72810W        W39878  13.823   0.258   1.432
72811W        W39879  12.728  43.918   1.327
72812W        W39880  12.827  27.075   0.413
72813W        W39881  19.652  34.584  12.983
72814W        W39882  36.023  17.560   3.382
72815W        W39883   6.700  35.067   2.744
72816W        W39884  41.527   6.739  14.888
72817W        W39885  23.596  15.711  12.990
72818W        W39886  22.562  19.648   3.324
72819W        W39887  22.611   6.919  13.332
72820W        W39888  27.574  12.284   0.772
72821W        W39889  35.377  34.884   0.937
72822W        W39890  25.053   1.250   4.260
72823W        W39891   9.729   9.196  10.931
72824W        W39892  40.958  43.785  14.786
72825W        W39893  31.966  32.063  13.412
72826W        W39894  18.717  10.138  10.048
72827W        W39895  33.523  18.712   0.853
72828W        W39896  34.030  36.486  12.000
72829W        W39897  32.613  20.653   0.961
72830W        W39898  35.087  39.849  10.035
72831W        W39899  10.294  17.598   4.272
72832W        W39900  14.333  13.145  14.313
72833W        W39901  38.049  37.422   3.291
72834W        W39902  10.847   1.378   5.759
72835W        W39903  16.617  41.947   4.183
72836W        W39904  15.599   4.911  13.498
72837W        W39905  21.240  42.424   5.161
72838W        W39906  24.680  13.811  11.021
72839W        W39907  36.005  37.520  14.799
72840W        W39908  15.700  19.283  13.431
72841W        W39909  16.583  13.129  10.986
72842W        W39910  34.915  25.657  12.029
72843W        W39911  30.978  21.176   0.906
72844W        W39912  30.471  30.034   1.815
72845W        W39913   8.728   7.207  13.986
72846W        W39914   7.682  38.834  11.557
72847W        W39915  13.253  37.429   3.339
72848W        W39916  28.485  12.252   0.924
72849W        W39917   6.283  35.559  10.091
72850W        W39918  26.561  16.622   2.758
72851W        W39919  37.976   6.378  13.386
72852W        W39920  29.632  18.721   2.798
72853W        W39921  44.883  42.425  12.878
72854W        W39922  35.967  30.078  11.406
72855W        W39923  31.626  38.844  13.444
72856W        W39924  32.125   9.341  14.510
72857W        W39925  42.942  35.390  14.362
72858W        W39926  20.640  30.523   0.806
72859W        W39927  13.742  28.530  10.570
72860W        W39928  13.246  18.575   0.751
72861W        W39929  39.355  20.032   3.174
72862W        W39930  24.679  31.123   0.746
72863W        W39931  41.981  28.078  14.343
72864W        W39932  24.004  39.906   4.814
72865W        W39933  19.589  14.795  11.101
72866W        W39934  40.015   5.371   1.446
72867W        W39935  14.275  44.817   2.401
72868W        W39936   3.221  38.504  12.032
72869W        W39937  11.863  35.945   3.647
72870W        W39938  39.359   6.832   0.461
72871W        W39939  35.505   0.420   3.293
72872W        W39940  35.576  30.484  12.962
72873W        W39941  16.702  35.449   4.718
72874W        W39942  13.151  25.584   3.692
72875W        W39943  24.085  33.491   1.748
72876W        W39944  19.133  24.046  13.046
72877W        W39945  26.664  11.690  13.322
72878W        W39946  10.632  15.789  12.063
72879W        W39947  22.523  18.664   3.853
72880W        W39948  17.677  12.675  12.860
72881W        W39949   8.391   1.285  10.606
72882W        W39950  39.537  24.676   1.798
72883W        W39951   6.196   7.691  13.898
72884W        W39952  14.252  39.341   4.607
72885W        W39953   4.823  43.377   4.648
72886W        W39954   6.413  12.344  10.578
72887W        W39955   3.444  17.665   0.333
72888W        W39956  19.280   0.830  10.936
72889W        W39957  33.439   3.275   5.237
72890W        W39958  34.927  17.166  12.027
72891W        W39959  15.688  19.141  13.984
72892W        W39960  23.504   5.808  14.502
72893W        W39961  11.757  17.783   3.817
72894W        W39962  14.745  17.580   0.435
72895W        W39963  23.029  14.247  13.324
72896W        W39964  35.999  17.599  11.410
72897W        W39965  26.156   5.339  12.941
72898W        W39966  43.815  32.480  14.006
72899W        W39967   9.395  23.670   3.675
72900W        W39968   8.823  40.954   0.263
72901W        W39969  17.218  32.973  13.457
72902W        W39970  27.646  29.622  12.484
72903W        W39971   6.275  11.238   1.446
72904W        W39972   0.285  18.149   2.215
72905W        W39973   9.801  29.116  13.461
72906W        W39974  33.035  44.331   3.793
72907W        W39975  32.469   0.296  13.540
72908W        W39976  12.165  40.435   0.423
72909W        W39977  31.505   3.930  13.018
72910W        W39978  34.990  12.741   4.225
72911W        W39979  42.824  18.056   3.251
72912W        W39980   1.456  36.431  10.409
72913W        W39981  13.203  38.965  13.036
72914W        W39982   3.824  40.870   3.309
72915W        W39983  21.660  23.123   1.836
72916W        W39984  19.571  41.519   2.381
72917W        W39985  19.756  20.172   2.296
72918W        W39986  27.004  32.626  10.435
72919W        W39987  17.564   9.221  13.544
72920W        W39988  12.208  23.232  13.547
72921W        W39989  21.541   7.285  10.930
72922W        W39990  21.194  15.681  11.907
72923W        W39991  26.956   1.936   1.741
72924W        W39992  12.238  37.983   1.275
72925W        W39993   2.767  16.721   0.943
72926W        W39994   7.719   8.236  14.286
72927W        W39995  21.515  40.544   0.356
72928W        W39996  42.969  44.806   3.230
72929W        W39997   6.268  29.113   0.269
72930W        W39998  10.815  16.731   1.788
72931W        W39999  11.259   1.827   0.929
72932W        W40000  18.078   8.315  12.010
72933W        W40001  13.646   5.354   3.362
72934W        W40002   8.368  43.453  14.965
72935W        W40003  33.399  14.735   2.374
72936W        W40004  19.144  10.266   4.282
72937W        W40005  43.375  41.010  11.992
72938W        W40006  35.081  32.512   0.846
72939W        W40007  16.580  17.611  12.000
72940W        W40008  14.596  35.082   3.848
72941W        W40009  11.169  41.486   4.135
72942W        W40010   3.862   8.213   0.423
72943W        W40011  11.684  26.116   4.722
72944W        W40012  23.639  36.084   3.267
72945W        W40013  18.138  42.023   3.179
72946W        W40014   4.222   1.423   3.712
72947W        W40015   2.412  10.374  11.946
72948W        W40016  37.554   7.705  14.438
72949W        W40017  20.111  28.630   2.407
72950W        W40018   3.397   6.782   4.176
72951W        W40019  43.298  31.519   2.713
72952W        W40020   7.669  18.233   2.280
72953W        W40021  30.928   0.451  12.823
72954W        W40022  30.565  36.401   1.708
72955W        W40023  14.287  19.628  14.393
72956W        W40024  10.280   8.340  13.474
72957W        W40025  33.437  32.553  13.399
72958W        W40026  20.565  43.979   1.344
72959W        W40027  33.537  29.046  14.853
72960W        W40028   1.398   5.415  11.401
72961W        W40029  12.234  40.378  14.413
72962W        W40030  31.910  23.185  13.370
72963W        W40031  23.093  30.975  13.336
72964W        W40032  27.503  27.577   2.198
72965W        W40033   0.920  21.209  13.354
72966W        W40034  17.602  33.962   0.738
72967W        W40035  33.102   9.728  12.912
72968W        W40036  17.064  42.860   4.326
72969W        W40037   6.289  26.655   0.961
72970W        W40038  40.524   5.260   3.372
72971W        W40039   5.919  10.376  13.965
72972W        W40040  27.561  19.567  14.797
72973W        W40041  18.093   7.394   4.219
72974W        W40042  18.252   6.257   1.696
72975W        W40043  37.065  29.146   3.803
72976W        W40044  26.984  10.192   3.382
72977W        W40045  36.564  40.311   4.683
72978W        W40046   7.811  12.175   3.850
72979W        W40047   6.895  10.320   2.305
72980W        W40048  20.585  17.752   4.126
72981W        W40049   4.287  17.101   2.339
72982W        W40050  37.568  28.106   5.168
72983W        W40051   7.814  39.015   0.896
72984W        W40052   1.442  43.415   1.290
72985W        W40053  17.223  41.529   3.189
72986W        W40054  42.340  18.260  13.020
72987W        W40055  12.849  29.549  10.970
72988W        W40056  30.147  21.573  14.016
72989W        W40057  37.992  32.137  10.965
72990W        W40058   4.840  42.517   2.334
72991W        W40059   7.176   9.816   3.775
72992W        W40060  22.178  19.707   2.753
72993W        W40061  35.879  23.637   0.297
72994W        W40062  34.966  29.512  12.498
72995W        W40063  17.704   9.879   0.734
72996W        W40064  21.578  13.667   2.881
72997W        W40065  29.126  10.648  14.768
72998W        W40066  25.038   3.369   0.780
72999W        W40067  36.941  15.709   0.274
73000W        W40068  21.150  43.444   1.248
73001W        W40069  42.822  32.012  12.048
73002W        W40070  41.463   5.906  11.115
73003W        W40071  28.094  18.167  11.405
73004W        W40072   8.229  28.584  12.378
73005W        W40073  33.615  14.142  14.471
73006W        W40074  25.072   4.801  11.588
73007W        W40075  24.532   3.862  13.407
73008W        W40076   5.266  13.723  11.000
73009W        W40077   0.421  13.827   2.831
73010W        W40078  14.608   5.244  14.022
73011W        W40079   2.789  28.593   4.754
73012W        W40080  15.281   3.901   0.335
73013W        W40081  15.234  43.454  13.444
73014W        W40082   8.188   0.314   4.675
73015W        W40083  17.571  36.549   2.819
73016W        W40084  19.208  40.314   3.847
73017W        W40085  27.528  25.053  10.456
73018W        W40086   5.232  22.198   2.690
73019W        W40087  43.834  36.010   3.201
73020W        W40088   7.209  26.102   0.373
73021W        W40089  31.461  39.975   0.789
73022W        W40090  17.204   6.862   4.832
73023W        W40091  33.387  13.124   4.290
73024W        W40092   6.769   6.421  12.060
73025W        W40093   0.797  40.026   2.862
73026W        W40094   9.246  11.850  14.937
73027W        W40095  29.582  29.123  10.039
73028W        W40096  37.400  44.321  12.517
73029W        W40097  23.654   2.859   3.642
73030W        W40098   2.276   8.371   3.208
73031W        W40099  15.159  42.356   2.715
73032W        W40100   4.831  40.450  12.059
73033W        W40101   1.411   8.208  14.329
73034W        W40102  14.694   2.389  14.832
73035W        W40103  14.733  16.156  14.850
73036W        W40104   1.948  26.107  12.061
73037W        W40105  43.871  39.320  10.922
73038W        W40106   2.929  24.216   3.733
73039W        W40107   1.414  16.123   1.697
73040W        W40108  14.292  21.059   2.203
73041W        W40109   6.303  27.975  14.348
73042W        W40110  41.419   8.679   2.888
73043W        W40111   5.779   8.866  11.954
73044W        W40112  21.715   7.246   3.180
73045W        W40113  23.065  17.179   4.748
73046W        W40114   5.352  33.054   0.903
73047W        W40115  18.677  28.660   2.737
73048W        W40116   8.203  24.075  13.036
73049W        W40117  38.487  43.897   3.156
73050W        W40118  17.247   7.905  11.076
73051W        W40119  15.280  21.610  11.571
73052W        W40120  15.098  42.791  10.994
73053W        W40121  44.967   9.684  13.517
73054W        W40122  42.516  10.879  12.042
73055W        W40123  33.619  39.507  13.893
73056W        W40124  38.361  27.517   2.183
73057W        W40125  23.689  27.109  10.489
73058W        W40126  30.124  13.750  11.547
73059W        W40127  13.198  39.541  12.924
73060W        W40128  32.592  30.609   4.183
73061W        W40129  44.281  19.739  12.990
73062W        W40130   1.745   5.818  10.443
73063W        W40131  21.632   4.368  13.451
73064W        W40132  24.009  41.506  13.031
73065W        W40133   7.764  24.134   1.742
73066W        W40134  10.756  36.496   0.750
73067W        W40135   9.309  33.408  14.904
73068W        W40136  25.706  26.123  11.447
73069W        W40137  28.614  25.578   4.353
73070W        W40138  24.060   4.205  10.517
73071W        W40139  39.525   2.457  12.996
73072W        W40140  19.254  21.662  13.437
73073W        W40141  35.932  21.154   2.229
73074W        W40142  25.172  21.079   3.265
73075W        W40143  42.987  42.348  14.341
73076W        W40144  11.650  38.881   1.260
73077W        W40145  24.032  31.137  13.468
73078W        W40146  30.099  29.957  11.398
73079W        W40147  41.346  32.446  12.476
73080W        W40148  11.846  24.223  14.331
73081W        W40149   6.260  11.182  14.871
73082W        W40150  35.027  42.021  11.419
73083W        W40151  11.851  36.548  10.510
73084W        W40152   0.894  37.919  11.978
73085W        W40153  31.094   9.262  14.395
73086W        W40154  15.683  11.643  13.343
73087W        W40155  27.062   4.417  14.851
73088W        W40156   1.309  41.501  13.984
73089W        W40157  34.070  43.439   4.700
73090W        W40158   8.873  12.233   0.328
73091W        W40159  35.524  27.537  14.352
73092W        W40160  38.413  36.980   2.670
73093W        W40161  17.232  30.006   2.237
73094W        W40162  44.000   7.794   0.478
73095W        W40163   2.401  19.095  11.934
73096W        W40164  28.170  32.898  14.469
73097W        W40165  20.072  10.752   2.830
73098W        W40166  20.537  22.099   0.395
73099W        W40167  33.070  42.377  12.064
73100W        W40168  18.675  32.422   4.759
73101W        W40169  16.573  29.095   2.190
73102W        W40170  25.973   8.874   1.225
73103W        W40171  39.557  27.677   2.794
73104W        W40172  41.886  37.067  11.940
73105W        W40173   4.361  18.109  11.929
73106W        W40174   4.336  34.398   4.256
73107W        W40175  32.922  16.800  12.553
73108W        W40176   0.309  44.472  12.957
73109W        W40177  10.715  42.947   0.766
73110W        W40178   4.774   3.813   4.728
73111W        W40179  25.142  10.234   1.719
73112W        W40180  17.073  17.724   3.819
73113W        W40181  32.987  43.813   4.704
73114W        W40182  24.133  39.469  12.568
73115W        W40183  30.548  26.961  10.922
73116W        W40184  28.932   9.328   4.225
73117W        W40185  12.843   8.212  12.040
73118W        W40186  33.004  23.559   3.279
73119W        W40187  33.910  27.179  10.569
73120W        W40188  27.589  30.546  12.478
73121W        W40189   4.370   2.266   1.933
73122W        W40190  39.013  41.995  10.008
73123W        W40191   6.196  37.885   3.287
73124W        W40192  32.579   2.297  13.320
73125W        W40193  43.513  16.610   2.196
73126W        W40194  40.845  15.084  13.849
73127W        W40195  17.555  39.492   4.164
73128W        W40196  43.978  38.853   4.255
73129W        W40197  27.570   6.303   0.330
73130W        W40198  44.374  10.278   5.313
73131W        W40199  18.730  33.064   3.640
73132W        W40200   5.800  27.078   4.707
73133W        W40201  36.565  21.219  10.495
73134W        W40202  27.500  15.187   2.384
73135W        W40203  38.958  25.602  11.443
73136W        W40204  29.572   6.415   1.331
73137W        W40205   1.309  35.430  13.871
73138W        W40206  28.986  19.701   2.264
73139W        W40207  16.744  23.213  14.505
73140W        W40208  37.068   5.877   2.805
73141W        W40209   1.865   4.323   3.224
73142W        W40210  16.752  19.230   2.735
73143W        W40211  22.720  40.826  13.335
73144W        W40212  12.336  18.569   1.299
73145W        W40213  21.248  37.960   0.817
73146W        W40214  33.028  15.632   3.830
73147W        W40215  26.701  30.485   1.428
73148W        W40216  14.130  22.093  11.031
73149W        W40217   6.816  44.838  14.299
73150W        W40218  10.293  39.359   0.340
73151W        W40219  40.303  26.458   1.418
73152W        W40220  14.717  18.577  12.915
73153W        W40221   4.288  12.770   2.387
73154W        W40222  29.124  12.720  12.437
73155W        W40223  14.222  36.977  13.393
73156W        W40224   5.785   1.831   1.802
73157W        W40225  15.585  22.091  11.386
73158W        W40226  20.218   5.236  13.033
73159W        W40227  34.939   9.709  12.356
73160W        W40228  10.214  12.194   1.876
73161W        W40229  24.504  37.061  13.330
73162W        W40230  26.565  44.411  13.905
73163W        W40231  39.412  36.460   4.310
73164W        W40232  13.118  22.995  14.944
73165W        W40233   3.286  10.232   3.732
73166W        W40234  18.256  40.384   0.419
73167W        W40235  40.513   8.764   1.287
73168W        W40236   1.276  32.964   3.739
73169W        W40237   4.939  38.915   5.321
73170W        W40238  23.502  30.494  13.817
73171W        W40239  14.189  24.521   1.264
73172W        W40240   8.162  15.106   2.750
73173W        W40241  16.652   8.860   0.336
73174W        W40242  24.601  25.633  14.014
73175W        W40243   9.317  20.718   4.201
73176W        W40244   7.854  13.737  12.939
73177W        W40245   8.712  18.066  13.315
73178W        W40246  40.961  22.735  10.924
73179W        W40247   4.378  10.707  14.409
73180W        W40248   5.756  43.353  13.888
73181W        W40249   6.803  34.406  12.382
73182W        W40250  32.942  29.085  11.519
73183W        W40251  34.385  23.725  11.942
73184W        W40252   0.362  34.571   0.895
73185W        W40253  44.888  36.441   0.320
73186W        W40254  43.892   8.661   0.440
73187W        W40255  44.270  34.440   3.363
73188W        W40256  30.433  34.066   1.772
73189W        W40257  13.203  27.028  14.458
73190W        W40258  16.311  27.555   0.784
73191W        W40259  41.850  38.957   0.810
73192W        W40260  40.954  21.664  14.828
73193W        W40261  43.489   0.445  14.780
73194W        W40262  31.136  32.597   1.343
73195W        W40263  23.565  36.060  11.971
73196W        W40264  40.989  25.146   3.651
73197W        W40265  12.280  29.977   4.141
73198W        W40266  35.984   9.824  13.848
73199W        W40267  37.402  32.412   1.742
73200W        W40268  15.755  27.609  13.477
73201W        W40269  33.613  23.997  13.800
73202W        W40270  30.095   4.420   0.854
73203W        W40271  10.363  32.466   4.603
73204W        W40272  10.139  44.439  14.318
73205W        W40273  18.750   7.319   9.980
73206W        W40274  18.561   6.420  11.601
73207W        W40275  44.446   2.231  10.603
73208W        W40276  18.688  32.922  11.428
73209W        W40277  39.027  42.429   0.788
73210W        W40278  40.441  22.103  11.565
73211W        W40279  20.239  32.018  11.873
73212W        W40280  38.004  31.067   3.211
73213W        W40281  12.717  12.772  13.996
73214W        W40282  44.977  36.365  10.449
73215W        W40283   0.961   3.873  12.389
73216W        W40284   7.678   8.369   0.862
73217W        W40285  30.468  26.572  12.073
73218W        W40286  22.528  28.502   4.158
73219W        W40287   9.230   7.679  14.933
73220W        W40288  16.114  25.104  11.398
73221W        W40289  18.202   9.185  11.116
73222W        W40290  33.950   1.945   0.421
73223W        W40291   9.394  43.991  11.588
73224W        W40292   5.818   6.918  10.490
73225W        W40293  37.835  19.614   1.913
73226W        W40294  27.114  36.019   4.349
73227W        W40295   6.869  20.172   2.390
73228W        W40296  44.355  27.081   3.322
73229W        W40297  25.004  27.648   1.216
73230W        W40298  40.015  26.684   1.876
73231W        W40299  27.030  36.499   0.771
73232W        W40300  25.579   4.861  11.499
73233W        W40301  25.492  22.083   3.261
73234W        W40302  43.940  28.622   2.857
73235W        W40303  38.533  10.634   1.801
73236W        W40304  41.851  33.584   0.913
73237W        W40305  44.258  16.218   4.300
73238W        W40306  39.953   4.867   3.812
73239W        W40307  11.700  30.068  12.986
73240W        W40308  27.503  24.004   2.704
73241W        W40309  15.625   5.319   0.356
73242W        W40310  13.155  21.556   4.831
73243W        W40311  20.604   0.813  14.012
73244W        W40312  34.548   3.362  10.598
73245W        W40313  13.683  29.077  13.334
73246W        W40314  42.938  36.416  14.843
73247W        W40315   7.382  39.504  13.487
73248W        W40316  12.762  19.116  14.407
73249W        W40317  33.419  25.618  14.966
73250W        W40318  36.429  12.294   2.244
73251W        W40319   3.840  42.956  11.584
73252W        W40320  24.010  38.941   3.745
73253W        W40321  14.652   8.252  13.812
73254W        W40322  28.944  10.155  13.377
73255W        W40323  33.084  13.801   3.740
73256W        W40324   1.314  14.188   3.638
73257W        W40325   6.914   2.869  11.542
73258W        W40326  20.727   4.746  11.007
73259W        W40327   9.723   8.295   2.393
73260W        W40328  27.955   0.927  11.090
73261W        W40329  18.110  39.918   1.367
73262W        W40330  40.943  27.652  14.813
73263W        W40331  19.706   7.882   0.925
73264W        W40332   4.404   0.827  13.365
73265W        W40333  16.598  29.012   3.692
73266W        W40334  31.466  44.793  14.955
73267W        W40335  40.474  29.990  13.872
73268W        W40336  35.027  24.089  11.448
73269W        W40337   0.777  20.601  13.896
73270W        W40338  40.931   9.157   3.291
73271W        W40339  40.337  12.294  13.405
73272W        W40340  15.221  15.278  11.073
73273W        W40341  20.751   6.801  14.438
73274W        W40342  38.951  13.264   1.390
73275W        W40343  18.660   1.264   2.275
73276W        W40344  14.606  24.068  13.487
73277W        W40345  25.488  44.973   3.671
73278W        W40346  41.411  30.162   2.707
73279W        W40347   6.843  25.020  14.831
73280W        W40348  27.129   6.867  13.832
73281W        W40349  20.222  23.532   2.835
73282W        W40350  40.342  24.500  14.481
73283W        W40351  13.729  39.329   3.213
73284W        W40352  35.947  28.990  13.947
73285W        W40353  24.070  40.433   1.746
73286W        W40354   7.682  25.992  12.864
73287W        W40355  21.258  22.097   0.910
73288W        W40356  24.501  40.455   3.383
73289W        W40357  19.614  26.590   3.787
73290W        W40358  39.461  24.143  10.568
73291W        W40359  16.192  31.102   1.258
73292W        W40360   4.853  20.570  13.803
73293W        W40361  32.033   6.333   2.840
73294W        W40362  39.991  40.430  12.854
73295W        W40363  21.654  37.547  11.991
73296W        W40364  23.164  41.944   5.224
73297W        W40365  25.204  39.849   0.937
73298W        W40366   5.724  14.103  12.060
73299W        W40367  29.966  42.878  14.880
73300W        W40368  24.108   3.219  10.557
73301W        W40369   3.720  42.422  14.484
73302W        W40370  31.134  37.996   4.659
73303W        W40371  11.255   9.222   0.446
73304W        W40372   9.338  34.903  11.062
73305W        W40373   4.256  28.025  13.838
73306W        W40374  41.829   0.365   2.777
73307W        W40375  14.747  43.858  13.870
73308W        W40376  36.453   8.766   1.417
73309W        W40377  36.939  32.043   2.229
73310W        W40378  40.942  35.430  10.449
73311W        W40379  12.824   0.848  11.970
73312W        W40380  33.557  38.822   4.629
73313W        W40381  15.579  39.843   4.210
73314W        W40382  43.415  24.989   0.482
73315W        W40383  20.582   9.376  11.523
73316W        W40384  41.430   4.390   2.893
73317W        W40385  29.068  19.128   2.779
73318W        W40386  23.046  32.940   4.615
73319W        W40387   1.961  34.009   0.802
73320W        W40388  13.608   0.767   4.170
73321W        W40389  36.915  30.915   3.298
73322W        W40390   6.354   2.920   3.637
73323W        W40391  43.835   7.307  11.550
73324W        W40392  35.464  20.164  14.852
73325W        W40393  19.621  25.218  14.937
73326W        W40394   1.899  44.472  13.958
73327W        W40395  17.130  38.370  12.838
73328W        W40396  16.742   6.212  14.966
73329W        W40397  27.136  31.119  13.502
73330W        W40398  33.054  23.682   1.772
73331W        W40399   6.781  25.018   4.703
73332W        W40400  36.003  33.074  13.368
73333W        W40401  21.098  34.459  12.039
73334W        W40402   4.264  38.918  12.985
73335W        W40403  23.691  11.247  14.782
73336W        W40404  42.312  26.180  10.574
73337W        W40405  38.485   5.410   3.767
73338W        W40406  17.687  44.978  13.475
73339W        W40407  23.716  40.399  12.578
73340W        W40408  30.616  30.117   0.886
73341W        W40409  42.019   5.844   0.792
73342W        W40410  24.219  44.306  12.962
73343W        W40411  34.877  23.128   3.146
73344W        W40412  41.352  14.724   0.942
73345W        W40413  34.427  28.440  12.903
73346W        W40414  32.626  43.416  11.446
73347W        W40415  17.266  29.594   2.372
73348W        W40416   0.364  36.538   1.813
73349W        W40417  24.703  33.985  12.440
73350W        W40418  16.667  33.440  13.848
73351W        W40419  22.176  12.798  11.117
73352W        W40420  42.520  14.128  14.973
73353W        W40421  19.271   2.458  10.990
73354W        W40422  14.205  14.102   3.826
73355W        W40423  31.602  39.041   4.234
73356W        W40424  11.141  27.045  11.552
73357W        W40425  28.590  13.670  14.790
73358W        W40426  10.722  40.818  12.452
73359W        W40427  23.221  24.976   0.735
73360W        W40428  42.908  20.575   0.379
73361W        W40429  43.843   2.402   1.909
73362W        W40430   0.793   5.235   2.399
73363W        W40431  34.611  30.647  13.347
73364W        W40432  17.696  43.459  14.849
73365W        W40433  43.863  33.482  12.353
73366W        W40434  31.436  27.195  12.867
73367W        W40435   6.341  13.780   0.789
73368W        W40436  20.068  10.178   2.755
73369W        W40437  39.555  28.528  11.035
73370W        W40438  15.227  12.163   2.725
73371W        W40439  21.641  28.068   0.359
73372W        W40440  36.853   9.385   0.316
73373W        W40441   0.304  14.335  11.128
73374W        W40442  35.474   8.772  10.449
73375W        W40443   7.877   6.272   1.855
73376W        W40444  26.043  12.695   1.358
73377W        W40445  37.916  25.205   0.850
73378W        W40446  23.241  12.635   4.192
73379W        W40447   2.433  26.624   2.811
73380W        W40448  22.050  17.268   0.406
73381W        W40449  39.344  15.218  12.058
73382W        W40450  36.851  16.102   2.825
73383W        W40451  40.399  41.854  12.911
73384W        W40452  27.135   3.840  13.024
73385W        W40453   1.764  43.871   1.828
73386W        W40454   7.730  21.734   0.378
73387W        W40455  38.927  25.071  14.339
73388W        W40456  25.969  12.713   2.261
73389W        W40457  38.924  33.922  13.003
73390W        W40458  23.180  31.998  14.454
73391W        W40459  24.528   0.258   4.208
73392W        W40460  44.765  13.612  10.549
73393W        W40461  44.433  10.315   3.640
73394W        W40462  17.305  11.779  13.053
73395W        W40463  38.956  38.459  12.520
73396W        W40464  26.161  37.009   3.200
73397W        W40465  16.240   1.377   0.368
73398W        W40466  36.086  30.088   4.662
73399W        W40467  38.548  13.761  11.954
73400W        W40468  18.704  25.970   1.856
73401W        W40469  37.853   6.233  13.898
73402W        W40470  40.005  22.647   1.742
73403W        W40471  24.503  10.208   1.405
73404W        W40472  15.668   4.830   5.152
73405W        W40473  26.460  41.029   3.791
73406W        W40474  21.198  40.030   2.835
73407W        W40475  33.130  40.004   4.662
73408W        W40476   9.264  27.608   3.719
73409W        W40477   5.739  38.441  11.890
73410W        W40478  36.971  16.191   2.334
73411W        W40479  20.614  42.332   4.146
73412W        W40480   0.260  27.479  13.481
73413W        W40481   9.207  11.657  10.559
73414W        W40482  39.882  27.172  10.966
73415W        W40483  16.595   4.927  11.905
73416W        W40484  21.158  24.134   1.298
73417W        W40485  43.458   1.333  12.571
73418W        W40486  14.802  42.943   3.785
73419W        W40487   6.787  32.895   0.881
73420W        W40488  37.375  38.465   4.145
73421W        W40489  24.480  42.000   3.645
73422W        W40490  38.413  32.504  12.509
73423W        W40491  36.508  37.342   3.165
73424W        W40492  37.465  23.111   2.740
73425W        W40493  44.268  41.352   4.809
73426W        W40494  34.386  41.809  10.478
73427W        W40495  42.390  22.649   2.682
73428W        W40496  33.419  19.105  11.044
73429W        W40497  40.458   7.731  13.919
73430W        W40498  15.188  42.842  13.852
73431W        W40499  13.150   2.290  11.438
73432W        W40500  16.659   0.766   0.367
73433W        W40501   6.309  16.813  13.060
73434W        W40502  33.973  10.784   0.400
73435W        W40503  34.021  30.123   1.417
73436W        W40504  14.793  14.760  11.098
73437W        W40505  39.349  20.617  13.871
73438W        W40506   1.944   7.738  14.899
73439W        W40507  24.004  16.667  12.867
73440W        W40508   4.723  10.651  13.866
73441W        W40509  39.018  39.031   4.654
73442W        W40510  24.579  41.319  11.127
73443W        W40511  16.739  36.920   4.648
73444W        W40512  30.597  12.743   3.316
73445W        W40513  20.593  24.607  13.391
73446W        W40514  34.021  22.995  13.951
73447W        W40515  33.517  18.749   5.257
73448W        W40516   0.757  16.787   1.873
73449W        W40517  26.112  18.627   2.265
73450W        W40518  14.646  17.623  10.472
73451W        W40519  30.997   0.275   0.959
73452W        W40520   9.871  18.242   2.873
73453W        W40521   7.778  37.011  10.992
73454W        W40522  17.081  39.469  11.422
73455W        W40523   9.286  29.059  13.791
73456W        W40524  12.699   1.754  12.064
73457W        W40525   2.827  29.059   2.725
73458W        W40526  44.379   0.441  11.371
73459W        W40527   7.863   0.393  10.432
73460W        W40528  16.721  42.476  14.778
73461W        W40529  22.714   3.323  12.407
73462W        W40530  24.587  42.868   4.123
73463W        W40531  27.554  16.102   3.215
73464W        W40532  37.969  13.291  10.505
73465W        W40533  16.282  33.515  13.371
73466W        W40534  18.154  41.435  11.097
73467W        W40535  13.157  15.212  13.471
73468W        W40536  35.496  38.006  13.415
73469W        W40537  25.033  28.174  10.434
73470W        W40538  27.170  30.530   3.841
73471W        W40539  16.103  39.352   0.933
73472W        W40540  30.037   7.682   3.703
73473W        W40541  18.256  41.455  11.487
73474W        W40542  43.284  10.335   2.869
73475W        W40543   3.348  19.261  12.943
73476W        W40544  39.490  42.310  13.062
73477W        W40545  28.474  12.691   3.661
73478W        W40546  39.346   9.289  11.089
73479W        W40547  21.169   5.841   1.824
73480W        W40548  15.709  39.968   3.818
73481W        W40549  44.345  29.432  13.362
73482W        W40550  35.872   4.777  14.290
73483W        W40551   3.341  20.747   3.349
73484W        W40552  28.598  25.105   2.684
73485W        W40553  27.100  17.228   1.812
73486W        W40554   7.242  24.129  14.799
73487W        W40555  11.133  44.263  12.402
73488W        W40556   6.397   9.214   2.270
73489W        W40557  44.367   7.239  13.418
73490W        W40558  11.659  23.048   3.719
73491W        W40559  14.324  22.585   5.110
73492W        W40560  33.465  19.205   3.765
73493W        W40561  34.007   2.426   3.188
73494W        W40562   4.311  36.455   4.156
73495W        W40563  29.635   5.310   3.756
73496W        W40564  43.492  38.901  14.856
73497W        W40565  44.339  42.492  11.054
73498W        W40566  11.831  27.556  14.813
73499W        W40567  15.205   8.729  12.994
73500W        W40568  39.985   9.320   2.882
73501W        W40569  28.501   6.753   4.704
73502W        W40570   0.320  42.454  10.640
73503W        W40571  31.580   9.324  14.777
73504W        W40572   8.690   6.751  13.488
73505W        W40573  40.883  34.500   0.907
73506W        W40574   0.368   1.443  11.424
73507W        W40575  16.770  17.071   1.270
73508W        W40576  29.084  28.455  12.049
73509W        W40577  41.969  44.277   3.818
73510W        W40578   9.785  24.689   3.177
73511W        W40579   9.202  37.967  13.473
73512W        W40580  24.994  29.457   2.282
73513W        W40581  16.309   0.344  11.543
73514W        W40582  32.888  23.725  11.021
73515W        W40583  42.901  13.696  12.860
73516W        W40584  21.084  11.352   2.682
73517W        W40585  23.613  16.730  14.809
73518W        W40586  12.224  12.765   0.397
73519W        W40587  12.179  12.717  12.871
73520W        W40588  41.502  19.775  12.481
73521W        W40589  40.359   4.762   3.744
73522W        W40590  24.103  10.743  11.096
73523W        W40591  29.154  44.417   3.177
73524W        W40592  11.642  13.627   3.374
73525W        W40593  25.598   7.347   3.784
73526W        W40594  25.472  17.270   1.382
73527W        W40595  19.094  33.941   1.280
73528W        W40596  37.417  41.417  11.421
73529W        W40597  19.601   0.857  12.467
73530W        W40598  36.589   9.680   4.283
73531W        W40599  37.017  16.187  14.858
73532W        W40600  20.695   6.361  13.516
73533W        W40601   7.184   9.645   1.374
73534W        W40602  23.688  15.675   2.218
73535W        W40603  22.681  25.540   3.369
73536W        W40604   5.711  13.763  11.914
73537W        W40605   3.218  11.810  11.464
73538W        W40606  25.568  10.813   4.818
73539W        W40607  29.106  15.680  11.966
73540W        W40608  10.845   7.292  14.378
73541W        W40609  41.535  15.101   0.347
73542W        W40610   2.369  44.983  11.557
73543W        W40611  14.801  27.976  12.482
73544W        W40612  20.617  44.784  13.869
73545W        W40613   0.902  13.793   1.414
73546W        W40614  19.745  34.926   1.268
73547W        W40615  14.216  30.531  12.567
73548W        W40616  31.143  10.662  12.462
73549W        W40617  33.417  27.566  11.898
73550W        W40618  28.476  36.426  13.429
73551W        W40619  34.864  14.728   1.263
73552W        W40620   8.862  17.290  12.040
73553W        W40621  24.089   1.400  13.815
73554W        W40622   4.895  16.183   4.628
73555W        W40623  15.309  28.608   3.801
73556W        W40624  26.027  41.505  11.502
73557W        W40625  28.122  11.220  12.926
73558W        W40626  19.596   8.306   2.749
73559W        W40627  20.033  11.145  12.485
73560W        W40628   6.920  12.647  12.536
73561W        W40629   5.344  44.779  14.436
73562W        W40630  17.596  15.763  12.550
73563W        W40631  11.300  33.934  13.408
73564W        W40632  15.636  41.988   1.725
73565W        W40633  29.122  41.935  14.450
73566W        W40634  13.234  34.539   4.347
73567W        W40635  42.795  38.473   4.207
73568W        W40636  23.042  37.031  11.567
73569W        W40637  14.144   1.957  14.829
73570W        W40638  15.777   5.422   1.882
73571W        W40639  37.471  41.970   4.230
73572W        W40640   3.873  18.096  11.458
73573W        W40641  26.696  37.363  14.508
73574W        W40642  17.766  19.239  11.482
73575W        W40643  19.206  38.373   0.737
73576W        W40644  18.061  18.179   4.343
73577W        W40645  38.864  26.607   3.799
73578W        W40646  44.438  13.799  13.987
73579W        W40647  40.045  19.771  13.387
73580W        W40648  15.180  25.141   3.673
73581W        W40649  33.086  44.836  11.997
73582W        W40650  12.173  16.778  10.523
73583W        W40651  35.496   2.393   4.336
73584W        W40652  42.904   3.803  10.898
73585W        W40653  33.041  39.542  11.420
73586W        W40654  11.654  15.782  13.916
73587W        W40655  34.918   8.710  11.102
73588W        W40656  33.485  43.855   1.377
73589W        W40657  39.822  32.900   2.379
73590W        W40658  28.490  21.068   0.732
73591W        W40659   4.447  20.062  11.584
73592W        W40660  43.456  29.141   0.418
73593W        W40661  39.997  11.134  11.456
73594W        W40662  13.194  42.820   4.784
73595W        W40663  21.238  10.191  12.903
73596W        W40664  38.837  33.502   1.307
73597W        W40665  12.192   0.867  14.400
73598W        W40666  10.174  34.557   2.415
73599W        W40667  25.665  24.006  13.356
73600W        W40668  31.593  42.400   4.243
73601W        W40669   8.330   9.388  14.794
73602W        W40670  35.546  43.780  12.089
73603W        W40671  35.877  18.131  12.397
73604W        W40672  18.773   1.433   2.745
73605W        W40673  41.860  35.059  12.563
73606W        W40674  43.852  44.338  14.899
73607W        W40675  33.125  27.511  13.956
73608W        W40676  12.235  22.556   0.920
73609W        W40677  40.385  19.153  13.467
73610W        W40678  28.087   5.899   0.329
73611W        W40679  37.433  21.736  14.907
73612W        W40680  16.622  21.046  14.464
73613W        W40681  19.244   5.410  12.409
73614W        W40682  35.440  21.033   2.249
73615W        W40683  39.844   6.309  10.491
73616W        W40684  39.529  13.344  14.384
73617W        W40685  43.994   4.863  12.064
73618W        W40686  33.393  22.571   2.368
73619W        W40687  41.430  14.671  13.401
73620W        W40688   6.184   6.222  12.984
73621W        W40689  15.613  37.917   3.821
73622W        W40690  32.593  42.866  11.113
73623W        W40691  30.029   2.884   4.608
73624W        W40692   9.787   2.961  11.957
73625W        W40693  32.976  19.659  13.895
73626W        W40694  27.685   6.333   0.965
73627W        W40695   6.297  12.195   0.262
73628W        W40696  27.985  27.018   5.283
73629W        W40697  41.305  43.467   0.871
73630W        W40698   1.404  15.600   2.779
73631W        W40699  15.702  13.335   4.679
73632W        W40700  10.721  16.732  10.530
73633W        W40701  40.448  29.438   4.742
73634W        W40702  20.761  38.827  11.589
73635W        W40703  13.702   7.263  10.568
73636W        W40704  20.690  17.237   2.734
73637W        W40705  33.380  33.967  12.464
73638W        W40706  43.994  41.522  14.922
73639W        W40707  41.374  17.111  12.049
73640W        W40708  12.853  36.033   3.250
73641W        W40709  13.236  33.098   4.723
73642W        W40710  13.690   7.715   2.783
73643W        W40711  43.791  26.627   3.793
73644W        W40712  22.645   0.754   1.423
73645W        W40713  23.125  16.217  12.987
73646W        W40714  11.354  38.931  12.368
73647W        W40715  15.585  28.120  10.547
73648W        W40716  33.503  43.494  14.505
73649W        W40717  15.137  39.862   4.164
73650W        W40718   8.214  27.996  12.409
73651W        W40719  44.874  20.124  13.494
73652W        W40720  23.668  28.614  10.441
73653W        W40721  18.571   2.944   0.897
73654W        W40722  37.377  43.970   2.673
73655W        W40723  16.181   7.343  10.154
73656W        W40724   0.929  30.967  14.942
73657W        W40725  19.282  34.003  10.561
73658W        W40726  26.689  43.999  11.964
73659W        W40727  24.028  14.725   2.306
73660W        W40728  29.154  27.523   2.283
73661W        W40729  35.486  14.707   2.376
73662W        W40730  31.130  28.120   3.737
73663W        W40731  19.218  43.430   3.650
73664W        W40732   8.321  33.565  10.566
73665W        W40733  16.604  34.435  11.602
73666W        W40734   8.731  20.271   4.291
73667W        W40735  19.094  25.587  11.576
73668W        W40736  20.729  12.334   2.872
73669W        W40737  15.757  39.825  10.079
73670W        W40738  35.412  28.481  10.621
73671W        W40739  24.088   8.214  12.437
73672W        W40740  17.135   3.794   3.831
73673W        W40741  42.295  38.538   3.634
73674W        W40742  11.666  14.723   4.148
73675W        W40743  12.244  43.016   2.202
73676W        W40744  36.876  27.518   0.789
73677W        W40745  10.737  35.387  12.874
73678W        W40746  31.132   3.883   1.432
73679W        W40747  16.253  27.109   2.403
73680W        W40748  44.875  37.967   3.734
73681W        W40749  36.539  35.976   1.348
73682W        W40750  32.533   0.936  11.437
73683W        W40751  20.115  20.238   1.308
73684W        W40752  35.101   8.787  11.398
73685W        W40753  43.430  40.932  14.848
73686W        W40754  18.085   9.822   5.237
73687W        W40755  16.631  28.578   3.353
73688W        W40756  30.608   3.782  13.445
73689W        W40757   5.873   2.865  13.023
73690W        W40758  25.215  35.392   4.342
73691W        W40759  16.314  40.984   1.852
73692W        W40760  37.964  17.706   4.718
73693W        W40761  37.576  15.691   1.842
73694W        W40762  36.406  28.936   1.860
73695W        W40763  20.249  34.400   2.351
73696W        W40764  21.236   5.832   0.274
73697W        W40765   6.364  36.548   3.734
73698W        W40766  18.264  32.029   1.703
73699W        W40767   2.939  11.243   1.408
73700W        W40768  14.253  20.267  12.837
73701W        W40769  29.492   2.333   3.795
73702W        W40770   9.343  33.128  12.353
73703W        W40771  38.329  21.707   2.191
73704W        W40772  25.682  26.015  10.446
73705W        W40773   7.794   4.718  10.408
73706W        W40774   9.355   3.729  14.843
73707W        W40775  14.132  28.560   4.607
73708W        W40776  15.680  18.126   3.361
73709W        W40777  11.204  24.675  13.500
73710W        W40778  35.558   8.163   1.870
73711W        W40779  20.662  16.152   2.339
73712W        W40780  37.504  19.608  13.447
73713W        W40781  30.507  14.279  12.976
73714W        W40782  21.603   7.254  12.959
73715W        W40783  16.260  16.660  13.935
73716W        W40784  14.674  14.702  10.548
73717W        W40785   1.973  10.299  10.567
73718W        W40786  20.099  25.970   4.200
73719W        W40787  27.621  31.644   2.301
73720W        W40788  20.703  23.218  13.816
73721W        W40789  41.414  18.160   0.326
73722W        W40790  20.747  26.150  12.066
73723W        W40791  10.740  36.537  14.499
73724W        W40792  32.514   2.889   4.728
73725W        W40793   2.431   8.316  12.441
73726W        W40794  24.723   6.406   4.208
73727W        W40795  39.871  35.471  10.638
73728W        W40796  13.608  33.530  10.141
73729W        W40797  26.056  43.946   3.280
73730W        W40798   1.767  17.068  12.373
73731W        W40799  15.578  20.635   3.290
73732W        W40800   9.845  14.175   3.691
73733W        W40801  19.750  40.893   3.273
73734W        W40802  34.514  17.606   3.647
73735W        W40803  14.299  32.536   4.737
73736W        W40804   5.912  21.063   0.408
73737W        W40805  44.459  31.635   0.730
73738W        W40806  19.162  33.400  10.444
73739W        W40807   2.762  38.421   2.688
73740W        W40808  25.036   4.429   4.769
73741W        W40809  38.486   1.850   2.316
73742W        W40810   4.365  16.240  12.548
73743W        W40811  28.059  16.642   0.844
73744W        W40812  14.192  19.691   4.115
73745W        W40813  30.049  43.953  14.376
73746W        W40814  17.654  36.041  11.411
73747W        W40815  29.622  27.650  11.487
73748W        W40816  11.249   8.866  12.460
73749W        W40817  32.026  33.489  14.325
73750W        W40818  36.481  32.572   3.804
73751W        W40819  40.394  11.771  11.416
73752W        W40820  23.140  36.514  10.471
73753W        W40821  40.966  28.112   0.813
73754W        W40822  37.511  31.648  13.040
73755W        W40823   1.407  41.450   2.682
73756W        W40824  10.309   2.933  14.413
73757W        W40825   7.216  42.389  14.340
73758W        W40826  18.225  37.393  12.433
73759W        W40827  43.355  36.441   3.375
73760W        W40828  41.341  13.194  10.583
73761W        W40829  17.126  12.126   4.605
73762W        W40830  25.061  38.933  13.797
73763W        W40831   2.226  20.240  10.457
73764W        W40832  18.775   2.876   1.319
73765W        W40833   6.863  44.339   1.284
73766W        W40834  37.465  23.092  13.831
73767W        W40835   2.959  39.483  13.409
73768W        W40836  22.623   8.383   1.934
73769W        W40837  25.167  23.697   4.192
73770W        W40838   5.706  33.962   0.306
73771W        W40839  39.336   8.198  12.851
73772W        W40840  20.030  36.374   1.864
73773W        W40841  39.818  33.565   0.821
73774W        W40842  41.506  16.619   1.382
73775W        W40843   9.351  12.360  11.536
73776W        W40844  22.048  11.817  14.498
73777W        W40845  44.435  31.530   2.260
73778W        W40846  35.394  12.636  14.941
73779W        W40847  43.368  16.255  12.058
73780W        W40848  34.937  36.896  14.899
73781W        W40849  10.754  37.401  14.303
73782W        W40850  40.959   0.251  13.844
73783W        W40851  31.000  21.056  10.110
73784W        W40852  21.100  31.443   0.436
73785W        W40853  32.136  25.524  14.024
73786W        W40854  29.611  14.727  12.033
73787W        W40855  19.725  10.206   3.337
73788W        W40856  20.661  37.389   3.849
73789W        W40857   0.395  37.847   3.216
73790W        W40858  10.714   5.265  14.912
73791W        W40859  31.967  29.600   2.199
73792W        W40860  17.672  27.975  11.012
73793W        W40861  16.289  15.105   3.633
73794W        W40862  34.540   5.892   3.721
73795W        W40863   5.746   0.311  12.516
73796W        W40864  33.609  15.131  11.570
73797W        W40865  40.026  18.090   1.215
73798W        W40866  14.252  39.397  11.027
73799W        W40867  26.151  27.977  10.977
73800W        W40868  39.870   8.679  10.927
73801W        W40869  30.163  26.183  12.935
73802W        W40870   8.176  33.460  10.983
73803W        W40871  33.539  38.948   5.136
73804W        W40872  22.637   4.905  14.436
73805W        W40873  27.001  39.510   3.852
73806W        W40874  13.230  29.468   2.407
73807W        W40875  29.164  32.030   9.923
73808W        W40876  34.084  11.182  13.307
73809W        W40877  39.354  38.070  13.314
73810W        W40878   1.741  38.900  13.544
73811W        W40879  22.164   0.805  11.003
73812W        W40880  22.127   1.912  14.971
73813W        W40881  22.602  23.601  10.523
73814W        W40882  17.120   6.795   1.840
73815W        W40883  19.253  20.743   2.185
73816W        W40884  21.692  42.334   3.214
73817W        W40885  30.438  44.269  11.561
73818W        W40886  35.931  44.490   3.846
73819W        W40887  20.036  26.650   4.667
73820W        W40888   6.871  13.622  14.873
73821W        W40889  21.694  22.662  10.608
73822W        W40890  41.374  23.019   4.604
73823W        W40891   7.758   6.799   0.842
73824W        W40892   0.457   8.207   3.718
73825W        W40893   6.732  39.896   0.360
73826W        W40894   7.842  25.701   1.381
73827W        W40895   7.774  17.709   1.908
73828W        W40896   4.816   7.246   0.786
73829W        W40897  16.673  38.077   1.436
73830W        W40898  11.306   3.355  13.026
73831W        W40899  25.993   9.278   3.658
73832W        W40900  43.369  21.672   2.768
73833W        W40901  23.091  24.989  11.112
73834W        W40902  13.718  13.263   1.334
73835W        W40903  32.934  12.116  11.933
73836W        W40904  35.413  44.381  12.533
73837W        W40905  10.817  32.928   4.342
73838W        W40906  24.006  31.634   1.224
73839W        W40907  31.048  33.485   2.294
73840W        W40908  41.035  10.167  14.951
73841W        W40909   2.886  22.099  13.932
73842W        W40910  26.208  22.042   3.658
73843W        W40911  42.931  17.586   4.819
73844W        W40912  44.816   7.697   1.259
73845W        W40913  30.098  38.824   2.867
73846W        W40914  42.894  21.176  13.534
73847W        W40915  11.683  44.465   0.303
73848W        W40916  23.678  32.398  12.026
73849W        W40917  36.965   4.255  11.002
73850W        W40918  20.600  30.549   1.874
73851W        W40919  13.632  11.655  11.456
73852W        W40920   9.342  30.119  13.932
73853W        W40921   8.278  34.598  11.534
73854W        W40922  39.899   0.793  13.504
73855W        W40923  37.425  40.052  14.391
73856W        W40924  24.666  20.667   3.237
73857W        W40925  27.497  21.052   2.844
73858W        W40926  24.525  24.077   4.212
73859W        W40927   1.941   4.218   2.722
73860W        W40928  10.730  10.147   4.205
73861W        W40929  16.166  26.690  13.826
73862W        W40930   8.401  17.707  14.376
73863W        W40931   6.428  20.692   1.291
73864W        W40932   0.439  39.543  14.291
73865W        W40933  26.959  41.315   4.308
73866W        W40934  28.145  16.690  10.935
73867W        W40935  32.615   9.388  12.432
73868W        W40936  32.136   4.218   4.282
73869W        W40937  15.295  33.103   4.615
73870W        W40938  24.082   1.769   2.837
73871W        W40939  17.639  35.418   1.696
73872W        W40940  14.633  18.694   0.792
73873W        W40941  31.135  17.175   0.480
73874W        W40942  30.521  42.458   2.232
73875W        W40943  18.778  15.580  14.017
73876W        W40944  19.229   5.357  10.600
73877W        W40945  36.506  26.682  14.026
73878W        W40946  36.480  41.921  11.588
73879W        W40947  37.035   4.889  13.819
73880W        W40948   1.898  31.078  11.420
73881W        W40949  41.916  20.182  11.523
73882W        W40950  36.402  15.676   0.864
73883W        W40951  43.402  28.980  10.097
73884W        W40952  12.167   9.806   3.150
73885W        W40953  12.665  29.957   2.746
73886W        W40954   2.247  44.342   0.864
73887W        W40955  13.746  30.636   4.720
73888W        W40956   3.338  42.369  12.493
73889W        W40957  12.127  19.557   2.366
73890W        W40958  10.199  39.866  11.990
73891W        W40959  29.629  11.283  12.554
73892W        W40960  18.160  28.941  14.491
73893W        W40961   7.261  11.130  12.844
73894W        W40962  17.187  42.805   3.298
73895W        W40963   6.700  27.187   4.341
73896W        W40964  30.533  20.540   0.945
73897W        W40965  11.679   6.280   4.793
73898W        W40966  44.391  17.222  10.437
73899W        W40967   0.912  14.131  11.018
73900W        W40968  44.395  10.819  11.500
73901W        W40969   7.706  32.576  12.456
73902W        W40970   5.862  26.549   0.854
73903W        W40971  33.014  27.047  11.986
73904W        W40972  32.577  42.492   1.881
73905W        W40973  43.982  18.645  12.052
73906W        W40974  15.585  10.155   2.275
73907W        W40975  29.544  29.031   1.217
73908W        W40976   4.810  36.909  13.544
73909W        W40977   2.461  32.557  10.975
73910W        W40978  42.918   9.653   0.967
73911W        W40979  40.842  16.197  12.854
73912W        W40980  35.091  42.338  14.387
73913W        W40981  18.650  37.341  14.872
73914W        W40982   9.734  44.331  12.932
73915W        W40983  24.633  38.403  12.543
73916W        W40984  11.779  28.143  10.479
73917W        W40985  13.730  23.067  12.559
73918W        W40986  32.631  33.593  11.605
73919W        W40987  37.490  23.009  11.919
73920W        W40988  19.645  33.909   3.162
73921W        W40989   0.946  37.357  14.484
73922W        W40990  29.968  15.677   5.157
73923W        W40991  20.692  23.547   4.160
73924W        W40992  15.684  27.102  11.572
73925W        W40993  11.306  38.076   3.837
73926W        W40994  26.613  20.157  10.956
73927W        W40995   8.327   6.895  13.064
73928W        W40996  42.981   8.790   0.279
73929W        W40997  39.386  24.096   4.260
73930W        W40998   4.316  28.956  11.419
73931W        W40999  33.436  22.669   0.290
73932W        W41000  43.926  32.444   3.637
73933W        W41001  23.001  33.022   2.196
73934W        W41002  23.114  31.037  10.468
73935W        W41003  36.881   9.333   3.691
73936W        W41004  25.584  29.008   5.306
73937W        W41005  17.688  14.681   1.325
73938W        W41006  33.882   3.405  10.470
73939W        W41007  14.756   0.887   2.376
73940W        W41008  44.772  29.527   4.692
73941W        W41009   1.470  27.020  13.986
73942W        W41010   7.338  11.692   2.805
73943W        W41011  24.590  19.231  10.481
73944W        W41012   9.175  40.398   1.312
73945W        W41013  21.595  20.078  12.069
73946W        W41014  38.418  13.676   1.259
73947W        W41015  35.603  11.864  12.486
73948W        W41016  44.007  17.275  12.939
73949W        W41017  24.610  40.374  13.323
73950W        W41018   0.836  44.350  12.993
73951W        W41019  23.222   8.758  12.349
73952W        W41020  42.850  44.771   1.328
73953W        W41021  14.689  12.755   0.387
73954W        W41022  41.878  39.368  11.111
73955W        W41023  15.292  16.664  10.961
73956W        W41024  36.486  37.513   4.160
73957W        W41025  14.800  33.493  14.996
73958W        W41026  44.997  24.988   5.305
73959W        W41027  16.616  37.055   3.700
73960W        W41028  28.464  43.468  14.779
73961W        W41029  38.922  31.512   3.305
73962W        W41030  26.565  21.062  14.843
73963W        W41031   3.318  44.446  10.967
73964W        W41032  10.799  39.908  13.528
73965W        W41033   2.388  31.452  14.343
73966W        W41034  33.988  37.919   3.656
73967W        W41035   0.277  27.067  12.435
73968W        W41036  38.060  31.075   0.406
73969W        W41037  35.072  39.026   2.205
73970W        W41038  19.272  37.557   0.431
73971W        W41039  25.143   8.337   3.172
73972W        W41040   8.890  44.816   3.331
73973W        W41041  44.380  44.931  11.922
73974W        W41042   7.320  10.327   1.823
73975W        W41043  15.603  25.104   4.773
73976W        W41044  33.996   8.715  12.484
73977W        W41045  28.458   1.263  14.443
73978W        W41046  28.120  12.219  11.440
73979W        W41047  38.825  21.736  10.615
73980W        W41048  16.735  22.226  12.551
73981W        W41049  44.289   7.794   0.263
73982W        W41050  20.674   8.361   2.238
73983W        W41051  31.531   7.269   3.827
73984W        W41052  13.798   4.750   2.189
73985W        W41053  26.139  18.137  13.957
73986W        W41054  26.140  38.929  13.062
73987W        W41055  41.346  14.288  11.008
73988W        W41056  33.516   6.374  13.367
73989W        W41057   4.825   3.846   2.893
73990W        W41058  10.192  10.379   0.415
73991W        W41059  30.111  10.273   4.682
73992W        W41060  14.707   1.961  10.569
73993W        W41061  18.242  24.504  10.953
73994W        W41062  18.763  15.583  11.500
73995W        W41063  31.073   2.933   4.658
73996W        W41064  34.614  16.264  13.372
73997W        W41065  28.441   2.455   0.772
73998W        W41066  25.562  16.140  13.468
73999W        W41067  40.412  31.573  10.554
74000W        W41068  30.414  30.984   3.699
74001W        W41069  28.594   6.913   1.919
74002W        W41070  39.537  36.503  14.000
74003W        W41071   6.706  22.021   0.961
74004W        W41072  40.991  42.452   2.877
74005W        W41073  39.351  23.692  12.522
74006W        W41074  12.223  14.816  13.795
74007W        W41075  44.326  23.724  12.480
74008W        W41076   5.224  24.666  10.913
74009W        W41077  22.156  23.630  14.324
74010W        W41078  36.995  44.853   0.412
74011W        W41079  27.473  34.452   3.281
74012W        W41080  17.093  36.390  10.548
74013W        W41081  41.864   6.263  12.964
74014W        W41082  15.611  29.635  13.909
74015W        W41083  23.143  29.605  12.879
74016W        W41084  32.426  34.930   1.898
74017W        W41085  14.732  44.829  11.877
74018W        W41086   6.727  15.215   4.339
74019W        W41087   0.884   5.202  13.920
74020W        W41088   2.443  42.022   3.704
74021W        W41089  20.749  36.041   1.807
74022W        W41090  11.817  36.942   0.750
74023W        W41091  10.162  33.407   2.199
74024W        W41092  20.589  31.111   1.223
74025W        W41093  40.923  21.630   4.619
74026W        W41094  33.956   0.988  14.501
74027W        W41095  44.868  28.160  14.291
74028W        W41096  39.358  35.853   4.661
74029W        W41097  15.822  10.347   3.387
74030W        W41098  20.759  33.897  11.873
74031W        W41099  29.052  21.101  10.466
74032W        W41100  44.802  10.773  14.487
74033W        W41101  38.936   6.818  14.368
74034W        W41102  36.514  23.182   1.918
74035W        W41103  21.226   8.887   2.205
74036W        W41104   0.481  43.770  14.320
74037W        W41105  32.516   7.895   2.266
74038W        W41106  14.338  41.832   2.312
74039W        W41107  42.402  43.876   3.374
74040W        W41108  10.773  33.499  12.014
74041W        W41109  12.255  26.635  13.370
74042W        W41110  11.812  20.635  12.507
74043W        W41111   9.373  20.564   3.288
74044W        W41112  24.980  38.898  13.368
74045W        W41113  37.963  19.067   0.774
74046W        W41114   1.932  13.816  13.901
74047W        W41115  22.027  25.029   2.899
74048W        W41116  26.193  17.140   3.259
74049W        W41117   9.731  23.626   3.810
74050W        W41118   2.817   0.404   3.720
74051W        W41119   8.895   7.276   3.775
74052W        W41120  18.267   8.759  12.566
74053W        W41121  44.443  18.271   0.367
74054W        W41122  42.323   4.421  10.481
74055W        W41123   6.716  33.894   1.441
74056W        W41124  20.210  34.544   1.236
74057W        W41125  31.019   6.272   0.756
74058W        W41126  33.596  42.849   3.257
74059W        W41127   7.737  24.710  14.022
74060W        W41128  19.116  36.028  14.826
74061W        W41129  15.206   8.775   1.928
74062W        W41130  43.973  35.359  12.042
74063W        W41131   6.247  41.396  13.790
74064W        W41132  26.013   4.889   3.700
74065W        W41133  19.161  24.558  11.508
74066W        W41134  11.833  20.269  13.024
74067W        W41135  25.689  14.664  12.052
74068W        W41136  38.891  38.415   3.196
74069W        W41137  38.865  24.669  14.974
74070W        W41138  21.183   9.704  13.307
74071W        W41139  23.000  17.139  14.337
74072W        W41140  11.160  43.405   1.778
74073W        W41141  14.604  40.802   3.173
74074W        W41142  40.320  43.441  13.049
74075W        W41143  27.517   3.430   2.338
74076W        W41144  30.072  26.145   2.329
74077W        W41145  41.795  36.942   3.303
74078W        W41146  28.515  32.036  12.082
74079W        W41147  24.640   7.286   1.441
74080W        W41148  33.056  44.280   1.239
74081W        W41149  33.476  16.214   1.819
74082W        W41150  34.492  21.708   1.776
74083W        W41151   2.452  40.306  12.541
74084W        W41152  14.719  16.641  11.609
74085W        W41153  25.025  41.021  14.970
74086W        W41154  28.970  39.050  10.506
74087W        W41155  20.251  37.393   2.764
74088W        W41156   4.336  10.241  12.554
74089W        W41157  15.816  40.350   1.768
74090W        W41158  16.698   3.415  12.473
74091W        W41159  28.182  12.619  14.850
74092W        W41160  43.992  39.409   4.736
74093W        W41161  44.336  18.203  11.110
74094W        W41162  12.214  10.362   3.351
74095W        W41163  19.258  35.075  12.044
74096W        W41164   1.828   9.791  14.929
74097W        W41165  24.490  25.621  14.288
74098W        W41166  25.978  27.170   2.321
74099W        W41167  25.602   9.315   0.827
74100W        W41168  14.337  14.814   2.808
74101W        W41169  15.329  18.585  10.552
74102W        W41170   2.366  20.753  14.389
74103W        W41171  19.655  29.119   3.762
74104W        W41172  30.567  30.443   3.172
74105W        W41173   6.370   1.400  11.549
74106W        W41174  32.589  42.801  13.845
74107W        W41175  39.054   0.458  11.503
74108W        W41176   0.797  40.940  11.950
74109W        W41177  35.947   1.392  12.421
74110W        W41178   8.356  10.244  12.556
74111W        W41179  38.827  14.228  10.583
74112W        W41180  42.936  20.609   3.174
74113W        W41181  21.198  11.272   1.784
74114W        W41182  14.128   3.878   3.755
74115W        W41183  23.705   7.745  12.487
74116W        W41184   9.370  20.529  13.879
74117W        W41185   5.745  16.212  12.976
74118W        W41186  20.100  15.195   4.331
74119W        W41187  18.646  14.202  14.875
74120W        W41188  41.984  18.680  11.048
74121W        W41189   6.807  40.476   4.779
74122W        W41190  25.973  32.633   0.383
74123W        W41191  16.116  29.942  13.325
74124W        W41192  41.366  16.098   3.321
74125W        W41193  21.744   8.788  10.438
74126W        W41194   3.745  20.600   4.263
74127W        W41195  27.031  40.977  12.053
74128W        W41196  37.496  19.655  12.861
74129W        W41197  40.387  19.764  12.373
74130W        W41198   4.302  16.189   0.916
74131W        W41199   9.376  31.040   2.774
74132W        W41200  22.069  27.544   0.805
74133W        W41201   7.793   7.322   4.152
74134W        W41202  31.102  18.719   0.760
74135W        W41203  30.424  24.659  10.522
74136W        W41204  18.740  12.834   0.875
74137W        W41205  23.170  38.444   3.731
74138W        W41206  39.902   7.357   3.157
74139W        W41207  14.605  30.586  10.583
74140W        W41208  18.244  38.389   3.691
74141W        W41209   9.769  18.162  12.041
74142W        W41210   9.339  25.557  12.414
74143W        W41211  30.018   1.308  11.583
74144W        W41212   1.889  27.059  14.359
74145W        W41213  22.104   9.739   4.683
74146W        W41214  34.976  44.810   1.370
74147W        W41215   9.348  25.603  11.493
74148W        W41216  35.854   6.711  12.405
74149W        W41217  32.079  38.020  14.300
74150W        W41218  15.093  34.369   4.823
74151W        W41219  42.970  19.169   3.732
74152W        W41220   6.727  42.478  11.984
74153W        W41221  10.774  28.033  11.519
74154W        W41222  35.494  25.029   3.215
74155W        W41223  41.415  31.950  12.976
74156W        W41224   1.271   8.704   0.467
74157W        W41225  23.561  38.835  13.981
74158W        W41226  36.093  29.087  10.599
74159W        W41227   9.833  10.756   4.714
74160W        W41228  28.172  37.968   4.276
74161W        W41229  25.120  18.077  12.342
74162W        W41230  27.459  30.551  12.893
74163W        W41231   0.320  35.419   0.268
74164W        W41232  34.406   9.738  14.939
74165W        W41233   6.774  30.622   4.138
74166W        W41234  28.171  10.685  14.029
74167W        W41235  41.351  38.380  14.485
74168W        W41236  37.577  26.143  12.049
74169W        W41237  42.460  33.944  11.939
74170W        W41238  23.125  22.595  12.392
74171W        W41239   6.247  24.139   0.729
74172W        W41240  17.179  21.556  11.954
74173W        W41241  17.672  42.357  12.536
74174W        W41242  30.972  34.389  10.604
74175W        W41243  30.611  25.657   1.273
74176W        W41244   7.272  28.532  13.940
74177W        W41245   4.886  36.858  12.953
74178W        W41246   3.329   4.751  12.093
74179W        W41247  42.337  19.198   3.295
74180W        W41248  38.358  36.922  13.504
74181W        W41249   6.689  14.204  13.362
74182W        W41250  37.077   3.397   1.356
74183W        W41251  32.977   2.239   4.136
74184W        W41252  22.117   5.905   4.787
74185W        W41253  24.508   7.805   2.197
74186W        W41254  26.607  42.838  14.329
74187W        W41255  25.703  38.495   1.288
74188W        W41256  30.937  17.758   0.875
74189W        W41257   1.248  38.927  12.835
74190W        W41258  29.083  14.617  13.058
74191W        W41259   6.797   1.947   0.281
74192W        W41260  33.984   7.873  14.413
74193W        W41261   7.751  33.394  14.935
74194W        W41262   3.332  37.443  13.947
74195W        W41263  30.031  43.942   0.280
74196W        W41264  36.464   9.832   2.846
74197W        W41265  15.728   3.393  10.007
74198W        W41266   4.349  44.433   4.299
74199W        W41267   7.179  25.086   1.812
74200W        W41268  38.059   5.433  13.352
74201W        W41269  10.249   6.747   0.817
74202W        W41270  20.652  18.746   0.332
74203W        W41271  37.433  38.954   3.717
74204W        W41272  25.078  25.975  13.327
74205W        W41273  19.154  26.029   2.901
74206W        W41274  40.952  27.194  12.509
74207W        W41275  11.326  27.546   3.252
74208W        W41276  11.150  42.993  14.337
74209W        W41277  22.641  38.018   2.791
74210W        W41278  21.694  27.005   0.367
74211W        W41279  23.591  38.514   4.185
74212W        W41280  21.558  18.754  10.626
74213W        W41281  34.030   8.664  13.406
74214W        W41282  37.444  15.708  11.959
74215W        W41283  36.372  24.575   4.214
74216W        W41284  18.209  32.512   3.768
74217W        W41285  14.276  38.357  11.887
74218W        W41286  25.967  35.407  10.533
74219W        W41287  24.639  22.170   0.799
74220W        W41288  35.919  11.130   1.436
74221W        W41289  17.608  11.649   3.822
74222W        W41290  33.069  44.289  11.908
74223W        W41291   4.736  37.984   1.386
74224W        W41292  41.515  33.491  12.468
74225W        W41293  23.653   4.849   0.287
74226W        W41294  32.958  40.009  12.852
74227W        W41295  31.435  31.406   4.810
74228W        W41296  31.508  39.389  12.535
74229W        W41297  34.516  15.654   4.179
74230W        W41298  26.120  24.214  14.408
74231W        W41299  34.975  15.131  10.616
74232W        W41300   3.716  37.474  11.896
74233W        W41301  23.003   4.743  13.341
74234W        W41302  29.006   6.400   1.815
74235W        W41303   7.349  23.123   2.406
74236W        W41304  12.173  24.706  13.865
74237W        W41305  27.972   5.204  13.367
74238W        W41306  19.142  15.121  12.500
74239W        W41307  42.338  19.631   0.262
74240W        W41308   5.417  11.337  13.044
74241W        W41309  24.705  30.535   3.696
74242W        W41310  37.947  22.020  11.998
74243W        W41311  21.550   1.909   3.680
74244W        W41312  38.902  17.288   4.811
74245W        W41313  24.010   9.224  12.548
74246W        W41314  30.507  38.495  12.089
74247W        W41315  14.706  25.553   3.378
74248W        W41316  29.138  37.833  13.802
74249W        W41317   2.320  33.385  11.107
74250W        W41318  24.026  39.554   1.775
74251W        W41319  12.658  22.670   4.172
74252W        W41320  22.735  12.298   4.257
74253W        W41321   6.425  24.057   2.777
74254W        W41322   3.732  12.194  11.551
74255W        W41323  27.519   2.278   4.242
74256W        W41324   0.369  34.024   2.394
74257W        W41325  31.618  23.601   4.317
74258W        W41326   2.251  28.935  10.928
74259W        W41327  43.776   6.343  14.426
74260W        W41328  24.664  34.886  14.299
74261W        W41329   6.819   1.967  12.563
74262W        W41330   4.380  20.129   1.312
74263W        W41331   3.343  13.225  13.957
74264W        W41332  14.758  28.447   4.128
74265W        W41333  24.013  42.935   3.730
74266W        W41334  43.845  29.073  14.889
74267W        W41335  39.492  10.726   0.945
74268W        W41336  39.831  20.628  13.063
74269W        W41337  24.514  14.228  10.484
74270W        W41338   1.482  30.995   2.233
74271W        W41339  21.709  28.002   1.343
74272W        W41340  14.615  36.563  11.876
74273W        W41341  15.137  44.814  13.342
74274W        W41342  11.273   8.305   4.804
74275W        W41343  44.994  31.582   0.425
74276W        W41344  16.078   7.302  11.914
74277W        W41345   7.898  18.627   0.961
74278W        W41346   9.258   3.228   3.284
74279W        W41347   9.671  35.400  11.380
74280W        W41348   0.783  15.609   3.212
74281W        W41349  34.553   1.307  14.487
74282W        W41350  27.140  14.103  12.974
74283W        W41351  27.455  31.983   2.864
74284W        W41352   5.756   1.248   1.356
74285W        W41353  15.763  42.370   2.365
74286W        W41354  37.980  38.910   2.323
74287W        W41355  14.634  31.588   2.342
74288W        W41356   0.799  18.078  13.496
74289W        W41357  29.579   8.279   1.405
74290W        W41358  42.022  11.778   2.895
74291W        W41359  26.186  39.981   1.418
74292W        W41360  19.770  23.622   4.165
74293W        W41361   0.376   4.928   2.225
74294W        W41362  30.077  18.645  12.882
74295W        W41363   9.285   6.383  11.594
74296W        W41364  23.647   8.364  12.848
74297W        W41365  23.029  23.537   3.200
74298W        W41366  28.148  35.461  13.478
74299W        W41367  44.407  28.039   3.745
74300W        W41368  11.357  20.166  14.836
74301W        W41369  12.765  28.574   4.171
74302W        W41370  25.159  35.496  11.551
74303W        W41371  10.796  42.839  13.856
74304W        W41372  20.131  34.509  13.517
74305W        W41373  44.860  12.634  13.916
74306W        W41374   5.840  20.047   4.768
74307W        W41375  17.275   6.384   4.293
74308W        W41376  39.395   8.770  12.447
74309W        W41377   0.799   8.308  12.890
74310W        W41378   7.275  16.116   4.194
74311W        W41379   4.835   4.257   2.299
74312W        W41380  34.481  28.588  11.433
74313W        W41381   5.329  43.765   2.666
74314W        W41382  19.695  27.573   0.752
74315W        W41383  30.497  23.007  14.758
74316W        W41384  18.599  29.003  12.409
74317W        W41385  28.639   4.918   0.284
74318W        W41386  42.875  22.509  13.918
74319W        W41387  21.716  37.901   3.379
74320W        W41388  13.257  32.430  11.433
74321W        W41389   9.653   0.345  11.066
74322W        W41390  25.519   1.795  11.913
74323W        W41391  40.535  12.730  13.857
74324W        W41392  34.604   5.363   4.309
74325W        W41393  39.525  38.836  14.806
74326W        W41394  32.034   2.800  13.481
74327W        W41395  44.827  44.342   4.135
74328W        W41396  35.940  16.710   3.661
74329W        W41397  42.911   2.883   0.881
74330W        W41398  36.045  24.623  13.438
74331W        W41399   6.356  12.716   1.301
74332W        W41400  24.601   9.738  13.476
74333W        W41401  40.843   3.852   0.847
74334W        W41402  14.830  23.051   0.819
74335W        W41403   7.725  16.297   3.813
74336W        W41404  33.972  27.173  10.128
74337W        W41405   6.256   6.766   0.406
74338W        W41406   4.780  22.580  13.312
74339W        W41407  43.480   7.326   3.781
74340W        W41408  31.622   5.199  14.882
74341W        W41409  28.668  15.312  11.389
74342W        W41410  42.341  36.075   2.714
74343W        W41411   0.431   6.771  12.368
74344W        W41412   2.836   9.269   4.648
74345W        W41413  17.085  23.502  12.387
74346W        W41414  18.116  29.982  10.012
74347W        W41415  42.340   5.415   1.335
74348W        W41416  36.420  39.548  11.950
74349W        W41417  21.720  33.007  10.419
74350W        W41418  17.222   2.232   3.741
74351W        W41419  21.741  20.575  14.480
74352W        W41420  14.655  22.737   2.787
74353W        W41421   4.343  29.562   1.933
74354W        W41422   6.254  25.138   3.171
74355W        W41423  43.980  28.017  12.064
74356W        W41424   0.429  27.625  13.892
74357W        W41425  34.377  12.136  14.301
74358W        W41426  34.976  11.813  11.486
74359W        W41427  15.728   7.787   1.318
74360W        W41428  33.086   5.718  11.538
74361W        W41429   4.702  39.874  10.425
74362W        W41430  25.564   4.309   3.763
74363W        W41431   9.744  26.629   0.359
74364W        W41432  35.005   2.279   3.773
74365W        W41433  34.395  33.606  12.075
74366W        W41434   1.269  42.519  10.618
74367W        W41435  36.853  23.101   1.807
74368W        W41436  20.039  22.705  11.511
74369W        W41437  16.265  42.423  12.981
74370W        W41438  16.228  28.084  10.466
74371W        W41439  21.195  31.571   2.193
74372W        W41440   6.407  24.593  14.904
74373W        W41441  19.619  37.414  12.085
74374W        W41442  12.832  39.981  12.408
74375W        W41443   3.809  31.449   0.784
74376W        W41444  32.947  33.034   2.845
74377W        W41445   1.468  22.577  13.890
74378W        W41446  32.923  31.971  11.598
74379W        W41447   9.187  39.841   0.244
74380W        W41448  14.615   2.802  14.423
74381W        W41449   1.420  40.032  12.866
74382W        W41450  36.005   6.220  11.914
74383W        W41451   8.312  35.962   1.745
74384W        W41452  11.816  42.978   3.641
74385W        W41453  35.870  17.232   4.178
74386W        W41454   4.798  31.126   0.339
74387W        W41455  41.792  42.860  13.841
74388W        W41456  24.556  28.666   0.744
74389W        W41457  34.090  18.749  11.436
74390W        W41458  43.400  42.334  11.063
74391W        W41459  41.983  28.130   2.261
74392W        W41460  13.600   4.386   2.203
74393W        W41461  19.041  24.702  10.948
74394W        W41462  33.622  33.051  12.923
74395W        W41463  42.396  28.151   0.824
74396W        W41464  12.251  34.932   3.251
74397W        W41465  37.435  37.479  12.925
74398W        W41466  29.622  33.404  13.868
74399W        W41467  38.512  30.657   0.930
74400W        W41468  42.880   0.289   2.185
74401W        W41469  31.915  31.435   3.191
74402W        W41470  23.699  18.205   1.390
74403W        W41471  33.600  44.804  13.414
74404W        W41472  42.499  36.032  10.443
74405W        W41473  14.801  21.726  13.916
74406W        W41474  16.196  16.093  13.994
74407W        W41475  13.826  30.029   4.255
74408W        W41476  21.119  43.322   4.184
74409W        W41477   8.198   6.693   3.762
74410W        W41478   6.828  35.514  13.940
74411W        W41479   4.254  25.484  11.100
74412W        W41480  18.729  21.752   1.217
74413W        W41481  20.535  20.243  11.521
74414W        W41482  34.039   9.387  11.524
74415W        W41483  26.001  15.181  13.428
74416W        W41484  36.918   4.214   4.729
74417W        W41485   8.739  24.709  12.995
74418W        W41486  42.343  23.687  11.438
74419W        W41487  26.605   7.171   4.175
74420W        W41488   8.326  39.330   3.784
74421W        W41489  38.479  29.065  10.433
74422W        W41490  14.257  30.142  11.896
74423W        W41491  10.171  34.935  14.349
74424W        W41492   6.201   3.236  13.904
74425W        W41493  29.971   9.765   3.303
74426W        W41494  15.676  21.047   3.648
74427W        W41495   7.850  37.941  13.898
74428W        W41496  43.799  44.458  10.531
74429W        W41497  42.437  35.450  10.633
74430W        W41498  29.588   9.258  11.604
74431W        W41499   4.405   0.980  10.958
74432W        W41500  12.691  21.214   0.738
74433W        W41501  17.742  20.666   1.253
74434W        W41502  43.295  32.996   1.426
74435W        W41503  30.960  40.415   3.235
74436W        W41504   6.847   4.726   3.659
74437W        W41505  29.986  39.923   2.833
74438W        W41506   9.665  41.040  14.362
74439W        W41507  29.613  25.079   9.994
74440W        W41508   9.736  16.104   3.377
74441W        W41509  30.970  42.407  10.436
74442W        W41510   9.294  41.484  13.958
74443W        W41511   2.291  40.835   2.338
74444W        W41512  36.898  40.540  12.942
74445W        W41513  35.973  35.518  14.810
74446W        W41514  32.529  31.447   3.861
74447W        W41515  20.267  31.575  11.462
74448W        W41516   8.729   3.284   1.210
74449W        W41517  39.369  16.274  11.458
74450W        W41518   9.816  26.152  13.974
74451W        W41519   4.781   0.480  13.461
74452W        W41520  40.485  15.715   1.270
74453W        W41521   7.718  15.244   2.333
74454W        W41522   0.870  13.681  14.323
74455W        W41523   1.289  26.468  13.846
74456W        W41524  11.789  25.610   0.377
74457W        W41525  39.837   6.873  12.000
74458W        W41526   7.907  14.209  13.830
74459W        W41527   0.962  17.223   5.215
74460W        W41528   6.426  38.351   4.205
74461W        W41529  31.541   0.452  11.908
74462W        W41530   6.816  41.434  11.038
74463W        W41531  35.536   6.913   0.901
74464W        W41532  23.113  20.610   4.207
74465W        W41533   2.904  38.554  11.917
74466W        W41534  12.703   7.910  13.307
74467W        W41535   4.308  38.549   1.859
74468W        W41536   0.742  16.218  11.967
74469W        W41537  35.575  15.317  14.275
74470W        W41538  41.339  39.359   1.373
74471W        W41539  15.767  30.089  13.968
74472W        W41540   3.419  30.604   0.923
74473W        W41541   3.862  18.225   5.103
74474W        W41542  16.648  20.704   0.916
74475W        W41543   0.894  35.380  14.959
74476W        W41544   4.287   1.840  11.093
74477W        W41545   6.380   3.282   0.951
74478W        W41546  21.035  14.254   1.270
74479W        W41547   6.246  14.653  13.013
74480W        W41548  36.454  20.641   2.392
74481W        W41549  30.965  41.388  12.354
74482W        W41550  15.595  34.503  13.949
74483W        W41551  40.309  22.103  13.452
74484W        W41552  15.630  17.656   1.251
74485W        W41553  38.470  27.946   3.182
74486W        W41554   2.466   4.858   1.319
74487W        W41555  30.965   4.758  14.024
74488W        W41556  10.143  13.826  11.103
74489W        W41557  18.591  43.978   1.802
74490W        W41558  10.796  40.422   3.699
74491W        W41559   2.247  43.866  12.985
74492W        W41560  25.067  21.629  14.479
74493W        W41561  24.020  28.956  10.541
74494W        W41562  32.487  35.378   2.694
74495W        W41563   6.405  15.253   3.794
74496W        W41564  10.673  14.599   0.390
74497W        W41565  28.967  25.698  14.464
74498W        W41566  24.493   6.885  10.477
74499W        W41567  40.498  42.925  10.427
74500W        W41568  16.768  12.674   2.678
74501W        W41569  41.335   9.375   5.309
74502W        W41570  16.808  32.590   0.419
74503W        W41571   2.913  34.383   3.302
74504W        W41572  35.046   7.733  13.951
74505W        W41573   3.873  24.646   2.287
74506W        W41574  31.040  14.804   3.192
74507W        W41575  32.501  10.253   3.709
74508W        W41576   8.665   9.803  12.954
74509W        W41577  16.577  15.763   1.891
74510W        W41578   9.165  19.732  10.987
74511W        W41579   6.819  39.891  10.446
74512W        W41580   2.306  43.287  11.897
74513W        W41581   7.744  35.048  13.821
74514W        W41582  23.140  28.054  10.925
74515W        W41583  13.302  16.282  14.874
74516W        W41584  39.325  12.800  10.456
74517W        W41585   4.349   4.735   0.466
74518W        W41586  20.210  24.720  11.985
74519W        W41587  31.920   6.708  14.358
74520W        W41588  30.163  25.085   2.775
74521W        W41589   4.911  15.806   0.727
74522W        W41590  35.466  24.048  12.996
74523W        W41591  22.137  19.218   0.750
74524W        W41592  38.973  43.803   2.879
74525W        W41593  26.970  30.622  10.971
74526W        W41594  44.912  25.201  14.492
74527W        W41595   1.955  34.883  12.908
74528W        W41596  23.178  31.518  11.995
74529W        W41597   5.215  24.021  14.461
74530W        W41598  24.001  14.301  14.772
74531W        W41599  12.704  32.142  14.912
74532W        W41600  39.417  24.030  11.044
74533W        W41601   5.774  23.078   1.704
74534W        W41602   0.261  23.563   2.891
74535W        W41603   6.733  41.834   3.231
74536W        W41604  34.488   1.869  10.599
74537W        W41605  39.468   6.251   2.866
74538W        W41606  15.236  18.611  12.500
74539W        W41607   9.162  44.935  12.055
74540W        W41608  27.111  25.141  13.813
74541W        W41609  38.909  34.449  13.953
74542W        W41610  33.461   3.375   4.828
74543W        W41611  26.954   9.249   2.226
74544W        W41612  30.556  35.444  13.488
74545W        W41613  29.484  43.945  10.446
74546W        W41614  39.884   1.306   4.776
74547W        W41615  23.514  12.770   0.836
74548W        W41616   5.717  19.681   4.781
74549W        W41617  31.140  14.641  12.978
74550W        W41618  24.520  25.151  14.783
74551W        W41619  18.173  33.070  11.928
74552W        W41620  32.003   3.298   3.257
74553W        W41621  31.596  27.159   0.848
74554W        W41622  41.903  37.027   4.267
74555W        W41623  24.484   3.372   4.607
74556W        W41624  35.513  30.097  13.942
74557W        W41625  10.712  20.623  12.406
74558W        W41626  22.622  17.168  10.446
74559W        W41627  39.905  17.629   1.900
74560W        W41628  15.134  15.199  14.906
74561W        W41629   9.774  41.939   1.797
74562W        W41630  18.277  42.306  11.947
74563W        W41631   7.390  44.892  11.086
74564W        W41632   1.265  17.097  12.039
74565W        W41633  33.521  22.048   0.826
74566W        W41634  32.962  38.480   2.841
74567W        W41635  43.771  23.530   3.765
74568W        W41636  18.064  37.859   1.280
74569W        W41637  29.144  12.291   0.757
74570W        W41638   9.393  31.457   3.860
74571W        W41639  34.874   4.764   3.775
74572W        W41640  26.966  25.602   4.305
74573W        W41641  22.743  25.507  14.450
74574W        W41642  27.003  35.007  13.501
74575W        W41643  21.755  11.800   4.783
74576W        W41644  44.949  42.472   1.211
74577W        W41645  29.569  36.872   1.437
74578W        W41646  20.085  31.088   0.315
74579W        W41647  17.250  39.441  13.518
74580W        W41648  33.417  27.125  13.027
74581W        W41649   9.778   6.857  14.510
74582W        W41650  16.240  10.309  13.992
74583W        W41651   0.749  34.604   1.743
74584W        W41652  34.119   7.308  13.473
74585W        W41653   3.228   1.864  11.920
74586W        W41654  18.606  34.443  12.352
74587W        W41655   9.856  17.769   1.251
74588W        W41656  20.631   8.274   1.299
74589W        W41657  41.788  18.578  11.499
74590W        W41658  14.217   7.326  13.952
74591W        W41659  31.988  21.579   0.735
74592W        W41660  41.805  43.418  12.531
74593W        W41661  34.601  15.794   1.250
74594W        W41662  18.715  10.217   1.401
74595W        W41663  42.997  18.621  14.436
74596W        W41664  33.952  41.932  14.963
74597W        W41665  30.506  23.508   0.320
74598W        W41666  30.439  38.851  13.903
74599W        W41667  14.652  28.532   2.265
74600W        W41668  43.789   4.371   4.822
74601W        W41669  20.716  21.101   3.354
74602W        W41670  19.566  42.800  13.819
74603W        W41671   0.854   7.882  11.903
74604W        W41672  24.012  31.541   2.891
74605W        W41673  25.996  14.219  10.600
74606W        W41674  30.541  21.252   5.185
74607W        W41675  13.156  10.635  10.526
74608W        W41676   3.267   6.805  14.807
74609W        W41677  43.305   4.766  14.805
74610W        W41678  23.723   5.377   3.216
74611W        W41679  26.080  40.891   0.258
74612W        W41680  42.281  15.207   1.231
74613W        W41681  14.311   5.793   0.309
74614W        W41682  35.578  44.819   1.813
74615W        W41683   2.881  14.784   4.115
74616W        W41684  21.632  39.987   0.908
74617W        W41685   3.230  42.523   0.751
74618W        W41686   2.292  42.840   4.266
74619W        W41687  41.474  37.517  11.038
74620W        W41688  35.512  23.732   0.793
74621W        W41689  33.523   9.240  11.016
74622W        W41690  43.831  15.318  12.072
74623W        W41691  41.310  25.520   3.332
74624W        W41692  24.602  37.941   4.630
74625W        W41693  24.024  36.423  10.409
74626W        W41694  12.226  15.249  13.464
74627W        W41695  29.121  14.786  14.369
74628W        W41696  26.589  11.275  10.097
74629W        W41697  16.712  30.010   0.796
74630W        W41698  17.065   4.719   1.771
74631W        W41699  43.918  10.840  10.450
74632W        W41700  23.116  36.411   3.653
74633W        W41701  24.153  26.596   5.086
74634W        W41702  37.566   1.778  13.964
74635W        W41703  34.889  25.530   4.252
74636W        W41704   1.828  22.006   0.938
74637W        W41705  32.101   2.377  14.921
74638W        W41706  14.753  40.303   3.821
74639W        W41707   4.834  40.949   4.188
74640W        W41708   9.675  41.298   0.242
74641W        W41709  20.750  33.614   0.837
74642W        W41710   0.889   1.331  12.552
74643W        W41711  35.368  38.860  13.391
74644W        W41712  26.478  42.977  10.554
74645W        W41713  19.273  22.611   3.253
74646W        W41714   2.449  31.936  13.837
74647W        W41715  39.938  32.918  11.518
74648W        W41716  10.705  31.987   2.786
74649W        W41717  27.592  38.566   4.289
74650W        W41718  14.315  11.785   3.731
74651W        W41719  36.480  37.547  14.401
74652W        W41720  12.691  31.582  12.531
74653W        W41721  10.803  29.052   4.295
74654W        W41722   0.901  29.650   3.191
74655W        W41723  29.041   4.316  13.011
74656W        W41724  21.253  32.398   2.727
74657W        W41725  34.901   0.801   5.147
74658W        W41726  24.080  38.006   1.716
74659W        W41727  11.713   4.267   3.311
74660W        W41728   4.828   7.669   1.332
74661W        W41729  23.118  10.801   2.298
74662W        W41730  19.738  43.992   4.318
74663W        W41731  43.489  32.398   2.316
74664W        W41732   4.826  38.934   1.238
74665W        W41733  18.277  19.665  10.593
74666W        W41734  40.971  37.345   0.344
74667W        W41735   3.740  18.087   1.232
74668W        W41736  36.404  24.168  13.308
74669W        W41737  29.123  44.939   1.211
74670W        W41738   1.770  42.974   0.398
74671W        W41739  10.806   8.194  14.814
74672W        W41740   3.886  35.861  10.541
74673W        W41741  22.032  11.238   0.413
74674W        W41742  31.090  24.069   1.901
74675W        W41743  41.535  29.005   2.694
74676W        W41744   0.478  27.144   3.197
74677W        W41745  21.051  35.362  13.331
74678W        W41746  34.500  42.304   3.862
74679W        W41747  19.713  30.497  14.501
74680W        W41748  34.588  20.752  10.948
74681W        W41749  15.194  29.457   0.753
74682W        W41750  10.690  29.527   4.214
74683W        W41751  39.529  25.674   0.308
74684W        W41752  11.320  35.004   0.363
74685W        W41753  25.058  22.634  10.618
74686W        W41754  32.974  33.489  12.342
74687W        W41755  23.194  37.397   2.783
74688W        W41756   6.351   6.321  14.829
74689W        W41757  44.442   5.378  14.496
74690W        W41758  28.630  20.632  13.532
74691W        W41759  13.702  29.151  10.521
74692W        W41760   8.720  38.059   0.787
74693W        W41761  32.538  24.662   3.777
74694W        W41762   2.398  26.655   5.262
74695W        W41763  23.618   9.690   0.425
74696W        W41764  19.693  15.579  10.527
74697W        W41765  24.494   9.792   2.216
74698W        W41766  32.455  43.324   4.168
74699W        W41767   2.937  34.577  14.385
74700W        W41768  25.627  32.394  12.574
74701W        W41769  17.295  42.827  11.466
74702W        W41770  37.968  36.000  10.515
74703W        W41771  37.951  42.410  14.403
74704W        W41772   0.438   4.795  11.521
74705W        W41773  42.461   6.917   2.855
74706W        W41774  25.102  17.733   1.722
74707W        W41775  39.525  12.773   2.311
74708W        W41776  31.457  19.210   4.309
74709W        W41777  27.016  36.542   2.764
74710W        W41778  27.008  43.837   2.847
74711W        W41779  31.484  35.913  14.874
74712W        W41780  40.428  20.743   0.440
74713W        W41781  22.150   7.742  14.452
74714W        W41782   1.963  41.344  14.769
74715W        W41783  28.145   4.403  10.440
74716W        W41784  27.511   8.168  12.345
74717W        W41785  39.507  33.097  12.844
74718W        W41786  34.090  30.083  14.395
74719W        W41787  16.701  34.074  10.573
74720W        W41788   3.921  33.579   4.257
74721W        W41789  37.981  39.402   0.768
74722W        W41790   0.764   7.378   1.296
74723W        W41791  14.666  40.933   0.806
74724W        W41792  11.197   1.815   5.743
74725W        W41793  29.992  27.084  14.988
74726W        W41794  34.611  30.036   4.782
74727W        W41795  13.619  25.050  12.485
74728W        W41796  12.811  21.565  11.993
74729W        W41797   5.692  17.224  10.899
74730W        W41798   7.192  24.139   3.847
74731W        W41799  32.597  15.208   1.275
74732W        W41800  20.164  40.973   2.766
74733W        W41801  39.485  44.770  11.877
74734W        W41802  28.486   9.171   3.675
74735W        W41803   3.715  33.492   3.321
74736W        W41804  37.359  41.448   4.147
74737W        W41805  16.741  12.673   4.604
74738W        W41806   5.238  23.643  12.532
74739W        W41807  13.339  39.545   4.342
74740W        W41808   9.219  29.610  11.459
74741W        W41809   5.194  22.597   3.699
74742W        W41810   5.898  15.801  14.762
74743W        W41811  16.656  31.947  14.998
74744W        W41812   6.276  29.938   0.263
74745W        W41813  36.495   5.695  12.991
74746W        W41814  26.175  42.957   3.313
74747W        W41815  41.916   8.262   2.338
74748W        W41816  18.727   1.336  14.810
74749W        W41817  18.100   6.211   2.743
74750W        W41818  33.505  25.192  12.419
74751W        W41819   5.267  33.889  12.930
74752W        W41820   0.289  21.138   1.305
74753W        W41821  26.032  39.982  11.992
74754W        W41822  44.928  26.092   0.943
74755W        W41823   8.838  10.232   0.884
74756W        W41824  37.356  21.062   2.392
74757W        W41825  15.285  44.890   0.380
74758W        W41826  10.165   2.791  13.053
74759W        W41827  36.843   3.932   3.286
74760W        W41828  33.055  34.442  14.364
74761W        W41829   1.419   8.747   3.255
74762W        W41830  41.042  35.511   3.239
74763W        W41831  25.072  41.981   1.900
74764W        W41832  33.978  27.448   0.943
74765W        W41833  32.528  36.992  14.855
74766W        W41834  31.037   6.888  13.978
74767W        W41835  28.987  43.950   3.331
74768W        W41836  41.962   8.753  12.364
74769W        W41837  26.110   9.871   1.401
74770W        W41838  22.090  17.719   0.860
74771W        W41839   8.692   9.816   0.954
74772W        W41840   8.757  43.965  13.969
74773W        W41841  34.596  25.686   0.896
74774W        W41842  44.478  36.002   2.259
74775W        W41843  25.007  27.972   2.192
74776W        W41844  24.051  13.719  10.619
74777W        W41845   4.208  35.082   4.760
74778W        W41846  15.743  39.550  10.610
74779W        W41847  43.846  31.051  12.469
74780W        W41848  12.782   4.314  12.459
74781W        W41849  18.174   7.898   3.738
74782W        W41850  17.776  31.476  12.554
74783W        W41851  33.569  13.135   3.632
74784W        W41852  44.446  20.599  10.910
74785W        W41853  40.920   6.782  14.459
74786W        W41854   0.279  36.397  14.951
74787W        W41855   0.913  26.671   3.358
74788W        W41856  37.048  34.965  12.387
74789W        W41857  15.165  17.650  13.512
74790W        W41858  31.926  28.122  13.866
74791W        W41859  33.535  10.183   2.799
74792W        W41860  19.213  42.001  14.386
74793W        W41861  43.506  32.093   3.868
74794W        W41862   5.294  11.834  12.579
74795W        W41863  42.379  18.152   4.836
74796W        W41864  30.525  15.711   0.374
74797W        W41865  25.555  24.613   2.826
74798W        W41866  41.945  17.306   1.227
74799W        W41867  29.084  33.127   1.901
74800W        W41868  40.448  33.943   2.845
74801W        W41869   0.266  39.980   2.404
74802W        W41870   7.326  16.799   4.815
74803W        W41871  14.292  33.390   5.263
74804W        W41872  39.540  30.465   0.887
74805W        W41873  42.457  19.780   3.345
74806W        W41874   7.713   4.426  13.434
74807W        W41875  24.057  13.321  11.048
74808W        W41876  25.969  36.913   4.737
74809W        W41877  10.813   7.200  11.939
74810W        W41878  42.968  39.488   3.237
74811W        W41879  43.814   6.831   4.764
74812W        W41880  12.312   4.891  13.941
74813W        W41881   3.364   8.753  12.405
74814W        W41882  40.384  36.434  13.034
74815W        W41883  18.692  18.590  12.949
74816W        W41884   4.893  27.487  10.976
74817W        W41885  14.217   1.889  11.396
74818W        W41886  33.564  15.581   2.708
74819W        W41887  26.477  13.232  14.982
74820W        W41888  39.007  12.299  13.374
74821W        W41889  18.289  28.552  12.938
74822W        W41890  34.502  17.156   4.735
74823W        W41891  11.665  11.818  14.338
74824W        W41892  21.135   7.835  10.922
74825W        W41893  34.871   6.897  13.482
74826W        W41894  19.269  19.246   4.293
74827W        W41895  22.648  37.388  10.059
74828W        W41896   1.749  37.581  13.512
74829W        W41897  25.590  26.018   0.382
74830W        W41898   0.290  20.602   3.795
74831W        W41899  38.405  25.075   1.417
74832W        W41900   8.378   4.700  12.481
74833W        W41901  18.698   5.372  14.955
74834W        W41902  18.057   4.259  14.785
74835W        W41903  20.272  42.981  14.458
74836W        W41904   3.318  34.545  14.478
74837W        W41905  37.396  38.516  14.456
74838W        W41906  31.609  27.039   0.388
74839W        W41907   0.865  37.420   5.197
74840W        W41908  36.424  23.722  10.615
74841W        W41909  25.607  44.860  13.464
74842W        W41910  15.273   6.359   3.248
74843W        W41911  22.634   2.379   3.785
74844W        W41912   0.254  16.778  12.053
74845W        W41913  27.641  18.082  10.631
74846W        W41914  44.927  34.086   1.363
74847W        W41915  25.506  15.163   1.289
74848W        W41916  37.559   6.393   4.637
74849W        W41917  23.181  39.916   9.532
74850W        W41918  12.774  21.560  14.495
74851W        W41919  13.319   4.279   2.682
74852W        W41920  11.208   0.972  11.951
74853W        W41921  14.826   2.422   2.782
74854W        W41922  20.245  19.737  10.471
74855W        W41923  17.562  19.125  14.989
74856W        W41924   1.943  15.663  11.988
74857W        W41925  24.175  38.446  12.015
74858W        W41926  28.022   9.855  11.038
74859W        W41927  43.327   9.239  11.438
74860W        W41928   9.763  28.958   0.270
74861W        W41929   9.216  15.293   0.957
74862W        W41930  13.134  33.523   3.701
74863W        W41931  33.442  11.837  13.964
74864W        W41932   1.371  36.853  13.019
74865W        W41933  31.554  39.970  12.086
74866W        W41934   6.224  30.022   2.866
74867W        W41935  16.086  44.360  11.590
74868W        W41936  29.124  43.285   2.758
74869W        W41937   8.221  14.609   0.848
74870W        W41938  28.473   3.722   1.794
74871W        W41939  43.964  30.053  13.531
74872W        W41940   5.291  35.923  11.596
74873W        W41941  33.615  12.700   4.616
74874W        W41942  10.140  23.187  12.560
74875W        W41943   9.823  13.732   2.347
74876W        W41944   0.455  25.507   0.476
74877W        W41945  31.028  32.122  14.956
74878W        W41946  30.078  19.642   4.173
74879W        W41947  15.131  17.563  11.044
74880W        W41948  35.922  44.482   0.319
74881W        W41949  23.026  32.968  11.565
74882W        W41950  23.571  44.312  14.488
74883W        W41951  18.126  11.154  11.026
74884W        W41952  12.729  43.934   1.694
74885W        W41953   6.833   8.771  12.845
74886W        W41954  18.095  11.854   0.431
74887W        W41955  33.590   4.765  12.349
74888W        W41956  18.694   1.953  13.481
74889W        W41957  19.598  30.630   2.335
74890W        W41958  20.097   7.823  12.933
74891W        W41959  23.631  25.524   0.417
74892W        W41960   9.191  22.158   3.365
74893W        W41961  18.666  21.257  14.368
74894W        W41962  22.709  24.122  11.072
74895W        W41963  22.588  38.520  10.955
74896W        W41964  27.555  14.811   4.808
74897W        W41965  10.335  22.739   5.258
74898W        W41966  39.017  43.421  13.470
74899W        W41967   8.350  16.232  10.572
74900W        W41968  28.109  16.287   0.908
74901W        W41969  38.423  21.260  10.537
74902W        W41970  11.198   2.854  13.922
74903W        W41971   3.394  11.311   2.202
74904W        W41972  17.067  18.657  14.464
74905W        W41973  26.001  26.681   2.756
74906W        W41974  31.145  36.008  11.025
74907W        W41975  20.683  40.470   2.184
74908W        W41976  35.408  37.932  14.957
74909W        W41977  39.909  18.602  13.984
74910W        W41978  15.763  32.906   2.320
74911W        W41979  10.222   0.828   3.288
74912W        W41980  27.984  13.242  11.496
74913W        W41981  43.274  11.627  10.567
74914W        W41982  38.055   2.309   1.322
74915W        W41983  10.179   1.843  12.962
74916W        W41984  39.506  10.820   0.348
74917W        W41985  40.895  29.974  11.006
74918W        W41986  43.402   9.164  14.890
74919W        W41987  40.024  20.117  13.541
74920W        W41988  41.835  26.673  13.811
74921W        W41989   0.779  11.773  11.073
74922W        W41990   2.298  20.135   0.960
74923W        W41991  19.223  30.151  14.294
74924W        W41992  13.240  22.185   4.229
74925W        W41993  23.238  13.279  12.962
74926W        W41994  10.222  34.553   3.169
74927W        W41995  43.944   9.648  12.549
74928W        W41996  22.582  40.322   4.323
74929W        W41997  27.636  34.611   1.329
74930W        W41998   5.812  19.241  11.885
74931W        W41999  19.729   6.721  13.971
74932W        W42000  20.067  30.615   4.709
74933W        W42001   4.844  27.654  14.490
74934W        W42002   9.753  42.331   4.191
74935W        W42003   6.286   5.813  14.461
74936W        W42004   4.791  13.623  13.797
74937W        W42005   8.754  10.186  14.300
74938W        W42006  21.096   7.682  12.551
74939W        W42007   4.273   4.438   3.230
74940W        W42008  11.702   7.813   4.602
74941W        W42009  14.826  26.624   1.914
74942W        W42010  41.840  32.543   2.744
74943W        W42011  42.454  16.793  12.440
74944W        W42012  39.021  25.649  13.054
74945W        W42013  17.603   8.766  10.560
74946W        W42014  13.284  32.507  11.051
74947W        W42015  31.572  29.074  11.480
74948W        W42016  12.627   5.336   3.248
74949W        W42017  41.921  25.673   4.292
74950W        W42018  19.244  31.953  12.054
74951W        W42019  13.188  41.375  13.036
74952W        W42020  26.528   1.253  11.501
74953W        W42021  38.457  28.974  14.400
74954W        W42022  25.591  29.967  14.486
74955W        W42023  24.526  12.636   4.208
74956W        W42024  30.013  44.009   3.156
74957W        W42025  17.200  12.636   4.645
74958W        W42026  34.052  41.910   2.255
74959W        W42027  38.511   0.274   2.254
74960W        W42028  30.073  38.352  10.498
74961W        W42029  14.675   0.339   4.645
74962W        W42030  21.088  24.166   3.325
74963W        W42031  10.838   0.274  12.545
74964W        W42032  21.103   0.915   3.339
74965W        W42033  34.397  18.608   2.668
74966W        W42034   3.863  10.201  14.309
74967W        W42035  19.690  24.563   2.828
74968W        W42036  27.472  21.535   0.794
74969W        W42037  38.062  16.699   4.331
74970W        W42038   2.407   0.326   4.221
74971W        W42039  42.281  13.204   4.793
74972W        W42040   6.370   1.933   0.411
74973W        W42041  29.955  34.086   3.283
74974W        W42042  14.325  44.309   5.304
74975W        W42043  25.996  15.710   4.151
74976W        W42044   6.377  24.148  11.527
74977W        W42045  24.131  19.129   4.271
74978W        W42046  43.281  43.932  10.545
74979W        W42047  20.265  31.469   1.321
74980W        W42048   5.230   3.842  10.639
74981W        W42049  39.823  33.935  10.618
74982W        W42050  16.658  15.622  12.343
74983W        W42051  16.797  39.368   1.262
74984W        W42052  13.831  33.123   1.708
74985W        W42053  20.751  18.164   1.714
74986W        W42054  36.855   8.372  10.587
74987W        W42055   0.974  22.150  11.519
74988W        W42056  44.775  35.993  10.592
74989W        W42057   8.776  11.654  12.051
74990W        W42058  39.523  15.154  10.979
74991W        W42059   1.295  43.507  11.899
74992W        W42060  23.662  17.146  13.529
74993W        W42061  10.380  23.651  13.999
74994W        W42062   8.375  29.043  11.020
74995W        W42063  19.139  29.596   2.321
74996W        W42064  10.806  24.083  14.311
74997W        W42065   0.287   1.929   2.777
74998W        W42066  32.118  11.640   3.656
74999W        W42067  25.189  14.169  12.425
75000W        W42068  43.421   2.788  11.868
75001W        W42069  44.754  31.567  11.979
75002W        W42070   0.257  28.934   3.858
75003W        W42071  26.480  36.516  12.047
75004W        W42072  14.302  35.869  14.783
75005W        W42073  22.508   0.900  14.314
75006W        W42074  16.806   3.920   3.732
75007W        W42075  30.973  39.021   4.318
75008W        W42076  16.206  31.936  14.359
75009W        W42077  15.820   2.387   1.234
75010W        W42078  17.231  36.079  12.485
75011W        W42079  26.701  21.697  14.382
75012W        W42080   9.353  42.382  11.098
75013W        W42081  32.012  27.976  11.974
75014W        W42082  41.507  22.155  12.402
75015W        W42083  13.280  38.833   4.821
75016W        W42084   4.406  11.195  10.959
75017W        W42085  32.557  18.227   1.256
75018W        W42086  25.714  11.359  13.322
75019W        W42087   0.266  29.636  11.390
75020W        W42088  18.742  17.735  12.012
75021W        W42089   4.379   9.720   4.186
75022W        W42090   7.334  17.267   0.375
75023W        W42091  26.598  44.447   1.346
75024W        W42092  40.860  38.571   2.289
75025W        W42093  43.494  12.713   4.179
75026W        W42094  27.157  13.818  11.883
75027W        W42095  17.787  35.968  13.344
75028W        W42096  16.621  24.494  10.430
75029W        W42097  23.504  18.123  13.406
75030W        W42098  14.152   0.794   5.129
75031W        W42099  44.875  36.472   3.259
75032W        W42100  29.921  37.372   0.926
75033W        W42101  23.711  17.736   1.408
75034W        W42102  32.524  20.704   2.372
75035W        W42103  40.863  24.218   2.211
75036W        W42104  31.906  41.844   2.733
75037W        W42105   4.860   4.311   9.950
75038W        W42106  39.376  22.156   0.387
75039W        W42107   2.368   4.707   2.738
75040W        W42108  27.032  25.467  11.076
75041W        W42109  25.601  24.557   4.235
75042W        W42110   8.891  40.914   2.800
75043W        W42111  16.704  25.081  11.110
75044W        W42112  21.729  40.362  13.791
75045W        W42113  34.533  14.816  11.525
75046W        W42114  34.445  38.052   3.810
75047W        W42115  14.671  43.820  13.425
75048W        W42116  11.866  34.491   0.915
75049W        W42117  18.286  41.460   1.736
75050W        W42118  37.051  12.674   0.302
75051W        W42119   8.175  10.743  11.065
75052W        W42120  14.205  19.578  10.526
75053W        W42121  26.973   2.350  13.432
75054W        W42122  21.204   6.803   0.778
75055W        W42123  27.005  17.114   3.185
75056W        W42124  34.382   4.901   1.769
75057W        W42125  17.079  21.757  13.870
75058W        W42126  11.298   2.306   0.351
75059W        W42127   5.326  19.560   0.913
75060W        W42128  40.040  27.099   2.884
75061W        W42129  42.916   6.237  13.917
75062W        W42130  25.004  35.936   0.845
75063W        W42131   9.890  36.063   3.164
75064W        W42132  16.259   2.842  14.796
75065W        W42133  25.536  13.286  11.088
75066W        W42134   0.288  43.453   0.308
75067W        W42135  29.614  36.964  14.425
75068W        W42136  22.643  32.943   1.289
75069W        W42137   9.675  27.593  13.537
75070W        W42138  25.517   7.373  12.911
75071W        W42139  21.674  33.507  13.406
75072W        W42140   5.908  42.521  11.873
75073W        W42141   7.691  10.855   3.257
75074W        W42142  41.872  38.927  13.986
75075W        W42143   2.449  33.609  14.844
75076W        W42144  35.952   2.422  12.509
75077W        W42145  17.782  24.001  12.021
75078W        W42146  26.661  25.191   4.199
75079W        W42147  36.496   0.821  13.963
75080W        W42148  14.182  31.115  12.440
75081W        W42149  35.976  41.985  14.920
75082W        W42150  42.359  32.974  14.918
75083W        W42151  30.509   5.220  12.539
75084W        W42152   8.393   7.736   3.798
75085W        W42153  16.114  39.997   4.156
75086W        W42154  35.452  28.112  10.467
75087W        W42155  35.461  25.108  13.810
75088W        W42156  18.191  24.626   2.888
75089W        W42157  39.338  16.145  13.019
75090W        W42158   9.877  11.779  14.952
75091W        W42159  33.518  38.495  13.050
75092W        W42160   0.292  24.038   2.210
75093W        W42161  39.401  29.463   4.675
75094W        W42162  43.489  19.229   4.302
75095W        W42163  13.132  39.045   0.763
75096W        W42164  24.626  11.280   0.963
75097W        W42165  26.027  38.847  11.566
75098W        W42166  42.994  35.386   0.460
75099W        W42167  39.854   4.347  12.415
75100W        W42168  39.878   5.388   2.762
75101W        W42169   2.283  28.955  14.278
75102W        W42170  14.793  37.495   3.704
75103W        W42171  34.475  44.420   1.275
75104W        W42172   8.899  34.005  11.119
75105W        W42173  39.966  38.457   3.838
75106W        W42174  35.018   3.885  12.514
75107W        W42175  30.433  23.071   0.957
75108W        W42176  16.285  36.041   3.630
75109W        W42177  35.554  19.632   3.730
75110W        W42178   2.944   9.278   0.314
75111W        W42179  24.144  39.976   4.350
75112W        W42180  42.825   8.869   3.723
75113W        W42181   2.840  30.099  12.080
75114W        W42182  33.907  34.963   4.141
75115W        W42183  39.876  14.739   0.434
75116W        W42184   0.936  10.663  11.398
75117W        W42185  38.384  43.873   1.807
75118W        W42186  17.117  38.074  11.106
75119W        W42187  41.979  30.549  14.346
75120W        W42188   8.819  28.139  13.546
75121W        W42189  11.664  18.713  11.448
75122W        W42190   5.762  10.257   2.744
75123W        W42191   1.872   3.390   1.366
75124W        W42192  31.041  34.375  12.027
75125W        W42193  10.865  40.415   2.828
75126W        W42194  39.874  30.069  12.393
75127W        W42195   1.838  21.177   0.313
75128W        W42196  32.891   2.951   3.386
75129W        W42197  20.135  44.486   1.330
75130W        W42198   5.739   7.750  13.310
75131W        W42199  27.531  15.686  12.934
75132W        W42200  21.155  12.341  10.053
75133W        W42201  13.677  11.867   4.329
75134W        W42202  24.038  13.667   4.155
75135W        W42203  16.749  37.993   3.833
75136W        W42204  33.384  21.038  13.823
75137W        W42205  17.132  34.502  13.044
75138W        W42206  13.650  39.060   3.340
75139W        W42207  12.811  23.128  12.574
75140W        W42208  44.946  10.727   0.316
75141W        W42209   5.371   2.811  12.485
75142W        W42210  13.785  14.109   3.252
75143W        W42211   8.342  14.161   2.419
75144W        W42212  17.788   6.742   3.825
75145W        W42213  42.299  16.664   1.323
75146W        W42214  32.592  44.936  12.068
75147W        W42215  42.349   4.358   1.895
75148W        W42216  11.263  33.084  13.048
75149W        W42217  17.784   1.883  12.002
75150W        W42218  13.217   8.672  13.392
75151W        W42219  22.577   3.719   2.892
75152W        W42220   8.681  28.042   0.453
75153W        W42221  29.973  30.468  12.496
75154W        W42222  33.047  27.034  13.016
75155W        W42223  38.428   2.258   4.218
75156W        W42224   2.443   7.868  12.425
75157W        W42225   5.416  24.013   2.332
75158W        W42226  37.480   4.734   4.230
75159W        W42227  32.050  36.404  14.825
75160W        W42228  28.648  37.573  11.555
75161W        W42229  18.225  34.469   2.795
75162W        W42230  24.558   8.282  14.787
75163W        W42231  10.138  15.284   3.646
75164W        W42232  20.178  10.375  14.417
75165W        W42233  34.592  16.317  11.572
75166W        W42234  24.159  15.170   1.920
75167W        W42235  18.588  33.542  14.879
75168W        W42236  44.328   6.801   2.853
75169W        W42237  25.130  41.418  13.501
75170W        W42238  29.450   2.253  10.900
75171W        W42239  28.619  23.053   2.803
75172W        W42240  44.953  25.106  14.899
75173W        W42241  11.249  44.376   2.837
75174W        W42242  14.158   5.695  10.963
75175W        W42243  24.711  41.865  11.459
75176W        W42244  37.435  19.746  11.494
75177W        W42245  35.512   9.375   0.449
75178W        W42246  32.092  44.836  10.941
75179W        W42247   9.816  15.702   2.846
75180W        W42248  15.702  15.581  11.929
75181W        W42249  42.381   3.950  10.633
75182W        W42250   0.897  32.928  10.104
75183W        W42251  14.256   6.711   4.195
75184W        W42252  20.065  23.733  11.546
75185W        W42253  27.953   0.864  12.035
75186W        W42254  41.390   3.821   4.704
75187W        W42255  29.175  28.067  12.417
75188W        W42256  14.601  22.049  12.354
75189W        W42257  34.576  10.674   4.626
75190W        W42258   2.916  38.486  14.281
75191W        W42259  23.584   2.258  12.039
75192W        W42260   1.969  15.749  10.922
75193W        W42261  38.424  42.870   2.412
75194W        W42262  21.596   2.871   4.160
75195W        W42263  44.925  34.507   1.782
75196W        W42264  30.515  12.253  13.869
75197W        W42265   9.165  30.073  12.979
75198W        W42266  40.315  41.891   1.824
75199W        W42267  23.597   8.826   2.687
75200W        W42268  19.083  12.187  14.498
75201W        W42269   4.711   9.298  11.037
75202W        W42270  42.822  35.042   3.730
75203W        W42271  16.632  43.832   0.450
75204W        W42272  40.524  17.745  11.431
75205W        W42273  11.796  10.174   3.638
75206W        W42274  22.586   2.288   3.364
75207W        W42275  30.087  18.555  13.408
75208W        W42276  18.107  17.596   2.374
75209W        W42277  33.106  42.444   1.832
75210W        W42278  29.584  34.894  12.536
75211W        W42279  23.516  28.162   4.703
75212W        W42280  42.329  21.190   1.735
75213W        W42281  28.594  39.465  14.324
75214W        W42282  11.281  16.574  10.417
75215W        W42283  40.947   6.789   1.733
75216W        W42284  33.121  11.277   0.883
75217W        W42285  41.801  31.996   2.845
75218W        W42286  16.174  15.298  12.975
75219W        W42287  19.615  21.159  13.961
75220W        W42288  43.921  39.892   4.234
75221W        W42289  31.962  39.955  11.095
75222W        W42290  29.097  24.074  13.018
75223W        W42291  22.166   5.295   1.932
75224W        W42292  19.238  15.749   4.181
75225W        W42293  22.700  33.060  14.364
75226W        W42294  38.936  37.426  10.628
75227W        W42295  17.274  22.181  14.986
75228W        W42296  35.008  32.928   1.395
75229W        W42297  29.071  32.007  14.913
75230W        W42298  14.781  22.154  11.373
75231W        W42299  28.588  12.800   0.952
75232W        W42300  14.244  25.480   4.690
75233W        W42301  15.098  20.725   0.433
75234W        W42302  19.560   3.821  10.447
75235W        W42303  42.430  40.426   1.765
75236W        W42304  31.964   1.924  10.901
75237W        W42305   4.874  34.996   9.996
75238W        W42306  35.993  19.747   0.763
75239W        W42307  26.658  44.851   0.419
75240W        W42308  30.114  38.885   3.765
75241W        W42309  13.351  10.284   4.302
75242W        W42310  29.613  34.108   3.710
75243W        W42311  32.131  30.145  12.442
75244W        W42312  35.376   6.313  12.390
75245W        W42313  36.913  11.230  14.000
75246W        W42314  20.243  37.835   2.862
75247W        W42315  39.373  20.602   0.469
75248W        W42316   5.271  19.696   4.303
75249W        W42317  41.872  20.105   4.630
75250W        W42318  37.974  16.093  13.515
75251W        W42319  34.093  14.777   3.320
75252W        W42320  32.939   9.813   3.185
75253W        W42321  30.950  19.047   2.749
75254W        W42322   2.388  26.463   2.359
75255W        W42323  27.995   8.340  11.611
75256W        W42324  27.074   9.284   4.170
75257W        W42325  15.321  37.041  10.917
75258W        W42326  23.499   5.419  12.545
75259W        W42327  15.169  30.101  11.050
75260W        W42328  44.998  31.431   3.309
75261W        W42329  10.162  14.325  13.345
75262W        W42330   8.162  21.247  14.027
75263W        W42331  42.330  41.893  10.975
75264W        W42332  33.088  29.431  14.972
75265W        W42333  12.271  32.038   1.824
75266W        W42334  42.467  36.371  11.914
75267W        W42335  33.972  38.570   2.342
75268W        W42336   2.326  24.974  13.849
75269W        W42337  44.406  15.811  10.075
75270W        W42338   4.859  32.000  11.080
75271W        W42339  19.619  31.634  14.334
75272W        W42340  18.642   2.368  11.980
75273W        W42341   9.150  27.157  10.977
75274W        W42342  31.475  28.550   1.252
75275W        W42343  26.170  16.133  10.597
75276W        W42344  37.084   5.313  13.417
75277W        W42345  18.591  20.239   4.769
75278W        W42346   7.826  41.878   2.403
75279W        W42347  13.252  13.327   1.224
75280W        W42348   4.323  25.120   3.260
75281W        W42349   2.788   7.305  13.483
75282W        W42350  16.168  35.885  12.419
75283W        W42351  39.500  14.282   2.680
75284W        W42352  44.405  17.276   3.810
75285W        W42353  17.261  13.757  14.513
75286W        W42354  36.422  28.583   3.682
75287W        W42355  33.466  18.762   1.731
75288W        W42356  22.520  37.513  12.824
75289W        W42357  41.962  32.060  11.420
75290W        W42358  38.328   5.334  13.888
75291W        W42359  11.763   4.913  13.815
75292W        W42360  31.921  12.740   4.745
75293W        W42361  41.523  29.988   2.364
75294W        W42362  29.052  42.995  10.553
75295W        W42363  39.530   5.712  14.930
75296W        W42364  36.584  28.462   0.244
75297W        W42365  31.517  24.659  12.423
75298W        W42366  40.519   5.875  10.410
75299W        W42367  35.903  19.699  13.848
75300W        W42368  37.894  20.609   3.727
75301W        W42369  29.157   9.155   4.735
75302W        W42370  34.896  20.228  13.850
75303W        W42371  11.720  16.807  12.911
75304W        W42372  29.086  44.880  14.335
75305W        W42373  11.632  20.040   0.860
75306W        W42374  37.984  38.349  12.468
75307W        W42375  34.522  32.606   3.177
75308W        W42376  42.822  40.402  11.551
75309W        W42377  43.999  39.395  12.468
75310W        W42378  29.483  36.897   4.175
75311W        W42379  24.011  16.787  14.822
75312W        W42380  36.560  25.006  14.300
75313W        W42381  25.574  22.625   1.908
75314W        W42382   2.911  26.102   1.930
75315W        W42383  33.590   3.288   2.283
75316W        W42384  37.434  17.215  13.505
75317W        W42385  33.573  14.284   2.213
75318W        W42386  16.713  22.038  14.363
75319W        W42387  44.971  34.397  10.065
75320W        W42388  20.719  33.608  13.524
75321W        W42389  20.634  12.623   0.873
75322W        W42390  24.691  30.548  11.003
75323W        W42391  23.688  21.142   1.904
75324W        W42392  32.057  21.646  14.774
75325W        W42393  22.590  14.786   0.424
75326W        W42394   7.262  11.163   1.705
75327W        W42395  31.070  36.089   2.804
75328W        W42396  12.704  28.954   2.311
75329W        W42397   7.328  14.300  12.380
75330W        W42398  25.571   2.884   0.370
75331W        W42399  11.240   0.398   3.231
75332W        W42400  33.585  39.958   1.787
75333W        W42401  20.720  41.513  10.636
75334W        W42402  27.090  31.978  12.871
75335W        W42403   9.781  16.291   2.811
75336W        W42404  37.412  20.161   3.736
75337W        W42405  41.325   9.198  13.798
75338W        W42406  28.970  44.470  13.443
75339W        W42407   7.270  40.391   3.236
75340W        W42408   5.215  40.515  12.536
75341W        W42409  40.374  30.942  12.949
75342W        W42410  14.795  24.491  10.514
75343W        W42411   8.800  43.942  13.000
75344W        W42412  18.669  40.515   4.189
75345W        W42413   9.889  25.484  14.977
75346W        W42414   8.872  36.555   2.888
75347W        W42415  29.139  22.018   3.248
75348W        W42416   3.352  39.873   2.886
75349W        W42417  19.595  26.142  13.030
75350W        W42418  21.708  34.096  14.993
75351W        W42419  39.024  37.383  13.357
75352W        W42420  11.168  34.406  10.491
75353W        W42421  25.169   3.414  12.526
75354W        W42422  24.530   1.861   2.866
75355W        W42423  17.241  39.374   1.698
75356W        W42424   6.411  35.947   2.789
75357W        W42425   8.856   3.365   3.231
75358W        W42426  36.975  27.610  12.924
75359W        W42427  44.266  29.483  11.928
75360W        W42428  42.503  17.662   1.901
75361W        W42429   7.289   4.333   2.397
75362W        W42430  24.137  15.167   0.360
75363W        W42431  20.190   2.226   0.958
75364W        W42432  10.204  23.166   4.169
75365W        W42433  13.642  16.791   0.283
75366W        W42434  26.958  14.757   1.717
75367W        W42435  18.696  34.891   0.251
75368W        W42436   4.270  34.111   3.632
75369W        W42437  26.591  33.950   1.401
75370W        W42438   2.411  39.365   2.330
75371W        W42439  30.958  18.631   3.778
75372W        W42440   9.708   9.667  13.980
75373W        W42441  11.151  41.373  14.957
75374W        W42442  31.504  17.167  12.341
75375W        W42443   4.308  24.116  11.111
75376W        W42444  23.622  43.009   1.792
75377W        W42445   8.279  34.567   0.371
75378W        W42446   2.947  18.593  10.601
75379W        W42447   1.412  44.289   3.866
75380W        W42448  30.558  42.886  14.761
75381W        W42449   2.786   5.720  11.556
75382W        W42450  27.606  24.483  14.873
75383W        W42451   8.266  11.687   0.482
75384W        W42452  11.253  35.542  12.395
75385W        W42453  41.303  26.145   1.446
75386W        W42454  34.995  19.744  14.277
75387W        W42455   3.319  33.114  14.825
75388W        W42456  34.517  16.773   0.275
75389W        W42457  10.181   5.368   9.959
75390W        W42458  28.464   5.259   2.736
75391W        W42459  21.653  28.168  13.999
75392W        W42460  13.694  27.149   0.819
75393W        W42461  31.087  25.624   0.364
75394W        W42462  43.320  33.900  13.382
75395W        W42463  11.849   4.351   0.833
75396W        W42464  44.455  44.811   2.206
75397W        W42465  18.774  16.188   2.861
75398W        W42466  34.003   0.989   1.740
75399W        W42467  23.650  10.160   1.308
75400W        W42468  31.031  30.924   0.433
75401W        W42469  35.366   4.816   4.759
75402W        W42470  15.685  26.614  11.997
75403W        W42471  42.823  16.288  10.898
75404W        W42472  41.868  27.146   4.245
75405W        W42473  19.693   0.342  12.093
75406W        W42474  39.433   0.824   0.959
75407W        W42475  28.129  22.581   2.762
75408W        W42476   5.726  39.041  14.363
75409W        W42477  24.990  22.703   2.354
75410W        W42478   1.782  30.473  11.916
75411W        W42479  14.766  39.848   3.826
75412W        W42480  41.329   2.227   4.693
75413W        W42481  29.476  39.463  13.026
75414W        W42482   0.980  12.283   4.248
75415W        W42483  21.164  19.718   1.303
75416W        W42484  44.760  22.521  12.447
75417W        W42485  16.806  42.455   0.900
75418W        W42486  41.810  12.300   0.405
75419W        W42487   2.904  26.679  14.425
75420W        W42488  25.140  23.010  14.891
75421W        W42489  15.821  16.809  10.054
75422W        W42490  32.608  22.066  12.960
75423W        W42491  15.112   6.873  12.865
75424W        W42492  18.154   0.751   3.270
75425W        W42493   4.827   1.359   1.935
75426W        W42494  26.467  25.635   2.277
75427W        W42495   6.788  41.948   0.729
75428W        W42496  25.555  42.858  12.444
75429W        W42497  25.610  24.048   3.149
75430W        W42498  27.522  15.269   5.189
75431W        W42499  38.028  33.400  10.419
75432W        W42500   7.212  35.423  14.871
75433W        W42501  38.490  22.078  10.895
75434W        W42502   8.165   8.228   4.615
75435W        W42503   8.752  10.253  12.519
75436W        W42504  32.971  28.607   4.826
75437W        W42505   5.855  24.063  14.842
75438W        W42506  23.085  15.808   3.814
75439W        W42507  12.248  18.710  12.837
75440W        W42508  26.953  32.955  12.912
75441W        W42509   2.256  19.700   4.670
75442W        W42510   6.195  29.647   1.807
75443W        W42511  18.106  18.573   0.330
75444W        W42512  20.555  28.560   1.358
75445W        W42513  38.569   4.822  10.020
75446W        W42514  37.014  41.357   0.910
75447W        W42515  40.019   2.800   0.345
75448W        W42516  22.135  25.059   0.306
75449W        W42517  10.722   9.248   1.798
75450W        W42518  39.425  33.524   0.402
75451W        W42519  18.776  36.458  12.464
75452W        W42520  32.077  39.530   3.333
75453W        W42521  43.332  44.474   3.704
75454W        W42522  10.659  38.897  13.422
75455W        W42523  22.146  24.514  14.412
75456W        W42524   1.813  43.396   1.848
75457W        W42525  16.668  26.089   4.671
75458W        W42526  18.225   4.267   1.265
75459W        W42527  28.526  11.214  13.797
75460W        W42528  35.051  31.912   0.940
75461W        W42529  43.482   9.384   4.167
75462W        W42530   8.386  12.682   4.735
75463W        W42531   1.851  24.018   0.298
75464W        W42532   7.666  22.113  14.971
75465W        W42533  28.531  38.489  14.495
75466W        W42534   4.351  16.808  10.545
75467W        W42535  21.622  22.012   0.483
75468W        W42536  22.193   3.739  13.961
75469W        W42537  36.856   1.371  10.464
75470W        W42538  20.689  26.202   3.786
75471W        W42539  27.507  13.190  11.414
75472W        W42540  33.888  20.674  14.317
75473W        W42541  32.072  34.445  12.359
75474W        W42542   8.884  40.376  10.409
75475W        W42543  16.290  17.064   4.659
75476W        W42544  23.008  43.407   3.675
75477W        W42545  33.939  30.524   4.166
75478W        W42546  17.597  15.294  11.575
75479W        W42547  28.055   5.274   4.130
75480W        W42548  11.257   6.333  12.870
75481W        W42549  25.654  28.946  12.052
75482W        W42550  35.368  43.424   4.325
75483W        W42551  37.409  41.511   4.716
75484W        W42552  12.797  12.288  14.907
75485W        W42553  41.984  39.826   1.836
75486W        W42554  43.789   1.919  14.810
75487W        W42555   1.361   9.215  12.890
75488W        W42556   0.949  31.896   1.402
75489W        W42557  11.655  26.122   3.640
75490W        W42558   2.440  15.613   4.135
75491W        W42559  35.952  14.339   3.342
75492W        W42560  27.023  16.595   2.763
75493W        W42561   3.746   6.872   4.259
75494W        W42562  26.572  44.496  13.046
75495W        W42563  10.308  30.940   1.899
75496W        W42564  27.060  15.232  12.940
75497W        W42565  19.092  31.042   2.720
75498W        W42566  14.314   3.350  14.372
75499W        W42567  44.452   8.177   3.645
75500W        W42568   3.771  24.717   0.330
75501W        W42569  10.233  28.483  10.528
75502W        W42570  38.010  14.816  12.547
75503W        W42571  39.329  16.181  14.002
75504W        W42572  42.941  12.286  11.033
75505W        W42573  13.171  35.557  12.834
75506W        W42574  14.122  38.544  12.405
75507W        W42575  18.254  40.051  14.983
75508W        W42576   3.310  16.632   2.218
75509W        W42577  37.436  11.724  13.468
75510W        W42578   5.355  14.226   0.776
75511W        W42579  44.783  19.580  14.406
75512W        W42580  13.333  31.105   4.348
75513W        W42581  28.598  29.575  12.535
75514W        W42582  20.595  16.680  12.849
75515W        W42583   5.422  10.637  12.077
75516W        W42584  32.542   6.388   4.229
75517W        W42585  35.475  17.665   4.695
75518W        W42586  39.356  27.073   3.213
75519W        W42587  15.728  19.584  12.387
75520W        W42588  18.141  32.523   0.771
75521W        W42589  16.642   4.850   0.396
75522W        W42590  10.641  33.609   4.342
75523W        W42591  13.124  14.219   3.175
75524W        W42592  42.948  29.018  11.029
75525W        W42593   9.830  25.116   1.358
75526W        W42594  36.374  21.724   2.858
75527W        W42595  43.995  38.479  12.909
75528W        W42596  30.971  34.421   3.181
75529W        W42597   6.781  33.548  14.498
75530W        W42598  13.623  29.567  10.993
75531W        W42599  35.504  17.769  12.961
75532W        W42600  36.928  33.067   0.792
75533W        W42601  12.210   4.713   3.698
75534W        W42602  32.909   4.942   0.396
75535W        W42603  20.619  32.024   4.223
75536W        W42604  37.069   9.819  14.400
75537W        W42605  17.140  38.968  10.891
75538W        W42606   3.398  11.820  12.875
75539W        W42607  13.842  10.702  12.541
75540W        W42608  16.681  24.527   3.310
75541W        W42609  32.016   0.852   0.925
75542W        W42610  21.049  12.121  12.924
75543W        W42611  18.220  33.986   2.342
75544W        W42612  34.556  18.150  14.281
75545W        W42613  18.626   3.358   3.650
75546W        W42614  40.442  34.578  12.442
75547W        W42615  44.963  14.164  11.421
75548W        W42616  13.679  19.726   4.821
75549W        W42617   2.277  36.040   4.114
75550W        W42618   4.747  18.127   3.763
75551W        W42619  42.392  33.452   4.262
75552W        W42620  29.453  21.585  14.395
75553W        W42621  17.233  10.275  13.399
75554W        W42622  19.724  25.619  14.764
75555W        W42623  18.213  27.520   4.763
75556W        W42624  23.616  17.778  13.853
75557W        W42625   1.354  37.890  13.370
75558W        W42626  43.811  22.107  14.402
75559W        W42627  25.207   9.745  10.895
75560W        W42628   4.738  17.237  12.013
75561W        W42629  42.424  30.046   2.877
75562W        W42630  43.332  28.135   3.665
75563W        W42631  15.729  19.273   3.244
75564W        W42632  34.425  25.635   2.804
75565W        W42633  27.553  44.407  10.587
75566W        W42634  15.199  29.169   2.411
75567W        W42635   5.806  43.499   1.828
75568W        W42636   9.196  16.306   2.672
75569W        W42637  24.982  23.633   4.825
75570W        W42638   1.792  26.676   0.727
75571W        W42639  21.252  35.986   0.322
75572W        W42640  36.853  20.640  11.115
75573W        W42641  18.724  17.197  14.490
75574W        W42642  21.520   2.731  12.081
75575W        W42643  37.916  31.445   3.207
75576W        W42644  13.806  12.765  12.089
75577W        W42645  41.341  29.437   5.087
75578W        W42646  13.335  21.694   4.175
75579W        W42647  21.084  17.635  12.866
75580W        W42648  18.680  35.995  10.489
75581W        W42649  18.147  14.159  14.813
75582W        W42650   4.322  17.616  14.338
75583W        W42651  40.841  29.106  14.971
75584W        W42652  17.216   9.881   3.280
75585W        W42653  20.669   5.359   4.347
75586W        W42654  39.917  19.127  10.922
75587W        W42655   9.850   3.350   2.184
75588W        W42656  21.537  33.060  11.422
75589W        W42657  34.925  31.465  12.053
75590W        W42658  28.105  41.376   9.923
75591W        W42659  13.338  26.984  12.028
75592W        W42660  32.943  19.189  13.058
75593W        W42661  30.591  38.836  10.142
75594W        W42662  16.234   7.686  13.934
75595W        W42663  38.491  11.249  13.408
75596W        W42664  34.391  12.822   3.861
75597W        W42665  21.138   3.296  10.616
75598W        W42666  39.315  41.498   4.626
75599W        W42667  44.302   2.407   0.750
75600W        W42668  17.656  16.139   1.231
75601W        W42669   1.964  17.112  13.886
75602W        W42670  35.065  11.370  11.945
75603W        W42671   2.857  21.527  10.488
75604W        W42672  16.096   0.471  12.030
75605W        W42673  37.482  22.528   1.749
75606W        W42674  38.432  41.790  10.553
75607W        W42675  18.143  11.693  14.309
75608W        W42676  39.890   5.421   1.700
75609W        W42677  40.871   8.779   3.230
75610W        W42678  25.044  37.996  12.372
75611W        W42679  11.348  25.536   1.448
75612W        W42680  12.743   9.649  12.925
75613W        W42681   4.275   7.896  14.309
75614W        W42682  37.988   2.774   2.890
75615W        W42683   5.339  34.884   2.789
75616W        W42684  11.720   9.837  14.405
75617W        W42685  22.085  30.494  11.124
75618W        W42686  18.291   4.716  10.906
75619W        W42687  25.592  16.749  11.426
75620W        W42688   2.256   6.292  12.573
75621W        W42689   8.213  19.143  10.641
75622W        W42690  33.044  14.133  14.437
75623W        W42691  10.748  19.216   4.701
75624W        W42692  22.145  36.904   4.726
75625W        W42693  41.336  35.898  14.278
75626W        W42694   5.911  19.773  11.373
75627W        W42695  22.629   5.717  13.819
75628W        W42696  24.020  40.963   3.158
75629W        W42697  30.609  27.574   0.810
75630W        W42698  42.482  33.400   1.934
75631W        W42699  27.652  20.740   1.239
75632W        W42700  28.048  36.947   1.374
75633W        W42701   3.884  33.108   4.194
75634W        W42702  35.586  37.055  14.867
75635W        W42703  16.693  36.089  10.562
75636W        W42704  16.224  11.371   4.719
75637W        W42705  17.777  16.121   3.661
75638W        W42706  37.891   4.316   1.255
75639W        W42707  18.765  40.316  14.007
75640W        W42708  13.745   6.258  12.877
75641W        W42709  11.642  20.254  10.988
75642W        W42710  27.446  32.947  14.944
75643W        W42711  20.190  23.529  13.360
75644W        W42712  29.070  32.558   0.264
75645W        W42713  35.502  34.538  13.894
75646W        W42714  27.547   7.880  11.518
75647W        W42715  23.544   0.794   4.197
75648W        W42716  41.854  19.769  14.789
75649W        W42717   2.315  14.721   3.339
75650W        W42718  12.215  28.497   2.810
75651W        W42719  35.396  32.538  12.411
75652W        W42720  23.611  22.235  11.117
75653W        W42721  11.849  20.236   4.598
75654W        W42722  20.174  19.698   0.850
75655W        W42723   4.881  24.150  10.536
75656W        W42724   1.256   3.261  10.488
75657W        W42725  16.725   5.908  14.907
75658W        W42726  10.236  30.603   0.387
75659W        W42727  40.805   5.360  13.370
75660W        W42728  24.610  10.306  13.519
75661W        W42729   0.482  24.116  14.372
75662W        W42730  24.112  33.431   4.605
75663W        W42731  23.527  15.306  11.968
75664W        W42732  36.465  17.695  12.052
75665W        W42733  28.955   0.812   2.329
75666W        W42734  16.288   7.745  14.401
75667W        W42735  29.155   1.879   0.967
75668W        W42736  14.739   8.192  13.328
75669W        W42737  20.155  27.499  13.998
75670W        W42738  38.365   2.917  11.599
75671W        W42739  21.147  38.032   5.599
75672W        W42740   6.197   0.325  14.371
75673W        W42741  29.960  35.573  13.429
75674W        W42742  24.639  36.483   3.345
75675W        W42743  19.211  11.208   3.691
75676W        W42744  31.551  26.961   2.677
75677W        W42745   2.238  42.481   3.279
75678W        W42746  33.991  41.024  12.060
75679W        W42747   0.943  18.670  11.069
75680W        W42748  34.449  11.782  10.593
75681W        W42749  30.423  27.168   1.338
75682W        W42750  26.586  20.172  12.995
75683W        W42751   5.819  23.143  13.333
75684W        W42752  28.456  28.499   3.383
75685W        W42753  27.575  11.638   4.737
75686W        W42754  35.959  13.342   0.450
75687W        W42755  37.546  23.052   4.194
75688W        W42756  33.612  12.674   2.326
75689W        W42757  35.013  42.031  13.870
75690W        W42758  14.790  42.881  10.988
75691W        W42759  25.186   6.236  12.848
75692W        W42760   3.411  10.364  12.526
75693W        W42761  15.089  25.105  12.483
75694W        W42762  29.456  13.813  14.288
75695W        W42763  29.109  27.034   3.849
75696W        W42764  31.061  18.085   3.749
75697W        W42765   1.303  11.821   3.670
75698W        W42766   2.873   1.879  11.514
75699W        W42767  17.306  11.144   2.883
75700W        W42768  23.190  26.700   4.171
75701W        W42769  12.850  21.050  14.800
75702W        W42770  17.113  39.410  12.361
75703W        W42771  20.618   8.269  10.476
75704W        W42772  19.717   0.248  10.564
75705W        W42773  13.201  37.928   2.847
75706W        W42774   0.450  44.813   2.833
75707W        W42775  31.575  23.575   2.320
75708W        W42776   1.473  17.655   4.710
75709W        W42777   9.351  29.005  14.803
75710W        W42778  39.960  21.546   1.838
75711W        W42779  16.640  32.610   2.294
75712W        W42780  15.083  15.165  13.356
75713W        W42781  22.014  29.598  11.515
75714W        W42782  20.635  12.328   0.397
75715W        W42783  24.114   0.343  11.495
75716W        W42784  36.943  38.488  13.003
75717W        W42785  13.751   9.334  12.989
75718W        W42786  10.848   4.387   2.712
75719W        W42787  13.634  29.597   4.301
75720W        W42788  42.336  15.807   0.905
75721W        W42789  15.253  42.350   3.652
75722W        W42790  43.406   9.713  10.503
75723W        W42791   7.778  25.973   3.649
75724W        W42792  10.829  16.193   2.343
75725W        W42793  26.699  42.916  10.144
75726W        W42794  23.736  36.062   0.278
75727W        W42795  32.542  29.657  10.987
75728W        W42796  14.264   6.772  13.895
75729W        W42797  40.373  44.297   0.812
75730W        W42798  33.584  36.909  12.068
75731W        W42799  27.981  21.523  10.571
75732W        W42800  27.624  33.997  11.934
75733W        W42801   5.336   5.915   2.669
75734W        W42802   8.225   3.367   4.774
75735W        W42803   3.797  44.367  12.375
75736W        W42804  12.147  31.558   3.795
75737W        W42805   0.458  42.508   2.733
75738W        W42806  33.891  39.464  13.872
75739W        W42807  43.882  26.492   2.676
75740W        W42808  35.588   6.340  13.463
75741W        W42809   0.957   8.799   4.181
75742W        W42810  37.386  35.358   2.241
75743W        W42811  19.039  13.687   1.776
75744W        W42812  32.516  32.579   4.728
75745W        W42813  36.566  13.802   3.687
75746W        W42814  37.485  43.981  11.876
75747W        W42815  25.033  43.959   0.943
75748W        W42816   5.841  38.564   4.305
75749W        W42817  12.781  19.086   1.340
75750W        W42818  42.848  18.560   4.621
75751W        W42819  28.055  43.845  13.839
75752W        W42820  14.747  20.547   3.311
75753W        W42821   8.313   4.919  11.021
75754W        W42822  21.699  11.197   1.451
75755W        W42823   0.326   9.885  11.026
75756W        W42824   1.433  41.462  14.498
75757W        W42825  23.512  27.988   2.819
75758W        W42826  17.725  25.046   1.296
75759W        W42827   6.352   3.730   3.158
75760W        W42828  21.152  26.511   1.275
75761W        W42829   2.840  25.690  12.091
75762W        W42830  13.655  36.909  11.566
75763W        W42831  25.605  13.270  10.526
75764W        W42832   0.424  14.715  11.506
75765W        W42833  12.141  38.538   4.617
75766W        W42834  43.341  22.206   1.233
75767W        W42835  11.677   8.738   5.295
75768W        W42836  19.197  21.643  11.067
75769W        W42837  33.030   7.280   1.917
75770W        W42838  16.580  16.231  14.352
75771W        W42839   1.272  41.969  13.017
75772W        W42840  28.125  22.526   0.955
75773W        W42841  34.406  19.209  14.454
75774W        W42842  16.117   6.822  10.045
75775W        W42843  28.538  22.502  11.090
75776W        W42844   6.245  13.727  13.504
75777W        W42845  31.966   2.784   1.929
75778W        W42846  21.086  11.691   0.371
75779W        W42847  16.161  44.393   0.932
75780W        W42848  19.627  23.233   3.253
75781W        W42849  27.132  21.182  14.870
75782W        W42850  26.204  42.288  10.991
75783W        W42851  38.963  20.768   2.368
75784W        W42852  16.745  17.741  10.573
75785W        W42853   9.717  33.615   1.426
75786W        W42854  18.757  31.920  11.397
75787W        W42855  16.295  42.285  10.594
75788W        W42856   6.900  13.834   2.369
75789W        W42857  39.351  39.381  12.835
75790W        W42858   0.819  10.287  13.392
75791W        W42859  42.027  35.989  11.508
75792W        W42860  38.550  43.333   4.327
75793W        W42861  24.168  43.323  14.459
75794W        W42862  37.396  43.784   0.756
75795W        W42863  20.663  33.971  11.449
75796W        W42864  34.870  44.363   0.315
75797W        W42865  15.761  13.242   1.834
75798W        W42866  24.195  21.079  13.438
75799W        W42867  37.867   8.849  10.980
75800W        W42868  44.265  38.992   0.421
75801W        W42869  31.516  25.047  12.018
75802W        W42870   5.769  18.089  12.382
75803W        W42871  38.506  15.294  13.895
75804W        W42872  41.825  26.170  11.568
75805W        W42873   6.390   2.317   3.263
75806W        W42874  34.957  17.288  14.796
75807W        W42875  31.125  11.320  11.529
75808W        W42876   7.182   7.186   1.387
75809W        W42877   4.850  28.508   0.260
75810W        W42878   0.315  11.130   1.219
75811W        W42879  28.109  36.472   0.427
75812W        W42880  31.539  19.121  14.983
75813W        W42881   9.186   1.412  13.417
75814W        W42882  38.829   4.389   3.761
75815W        W42883   9.748   8.262  12.026
75816W        W42884  23.029  33.960  12.580
75817W        W42885   7.293  27.085  10.447
75818W        W42886  40.923  39.835   0.728
75819W        W42887  41.977  18.235  10.609
75820W        W42888  32.944  17.628   1.306
75821W        W42889   8.740  42.908  13.531
75822W        W42890   4.383  42.921   1.348
75823W        W42891  24.613   4.389  13.355
75824W        W42892   8.375  22.551   2.849
75825W        W42893  18.095  14.817   1.755
75826W        W42894  41.391  17.601   0.290
75827W        W42895  32.556  10.276  12.069
75828W        W42896  38.524  22.613  12.008
75829W        W42897  34.606  43.803  13.544
75830W        W42898   2.312  10.304  10.902
75831W        W42899  37.026  30.125   2.725
75832W        W42900  38.893  38.518  11.579
75833W        W42901  19.046   6.680   2.883
75834W        W42902  29.131  38.977   4.142
75835W        W42903  10.142  27.122   2.354
75836W        W42904  28.019  38.362  12.930
75837W        W42905  15.327  35.452   4.226
75838W        W42906  29.426  28.458  14.399
75839W        W42907  34.121  31.964   2.756
75840W        W42908   3.723  26.676  13.534
75841W        W42909   4.259  39.869   3.282
75842W        W42910  20.055  16.288  13.036
75843W        W42911  37.506  16.173  13.532
75844W        W42912  19.616  43.997  11.924
75845W        W42913  30.630  24.583   5.247
75846W        W42914  18.108   4.908   4.340
75847W        W42915   7.843   9.301   3.847
75848W        W42916   8.683   3.851   0.898
75849W        W42917  37.902  19.217  12.020
75850W        W42918  27.078  41.418   1.829
75851W        W42919  40.811  43.827  14.392
75852W        W42920  31.402   2.282   2.741
75853W        W42921  27.995  42.028   0.842
75854W        W42922  26.695  20.075   3.792
75855W        W42923  23.708  27.064   2.258
75856W        W42924  19.686   3.851   4.233
75857W        W42925  33.447  17.214  12.069
75858W        W42926  12.130   0.420   1.870
75859W        W42927   2.423   0.285  10.970
75860W        W42928  14.609  17.713  11.468
75861W        W42929  21.751  36.953  13.801
75862W        W42930  11.690  20.631   1.774
75863W        W42931  22.505  42.489  10.900
75864W        W42932  34.458  41.953  14.441
75865W        W42933  23.568  27.449   1.872
75866W        W42934   6.404  30.152  11.595
75867W        W42935  43.278   6.289   0.375
75868W        W42936  22.553  34.972   5.171
75869W        W42937  42.871  13.164   2.785
75870W        W42938  37.450  33.976  12.964
75871W        W42939   3.390  13.198   4.731
75872W        W42940   7.748   4.355   4.659
75873W        W42941  20.706  11.168  12.384
75874W        W42942  11.372  26.640  11.028
75875W        W42943  21.626  34.038   0.246
75876W        W42944   5.328  31.918  10.475
75877W        W42945  38.877  30.076  14.878
75878W        W42946   7.257  14.196  13.928
75879W        W42947  32.519   9.675  13.922
75880W        W42948   8.351  33.941   0.770
75881W        W42949  42.383  40.535  11.106
75882W        W42950  12.164  24.027   1.907
75883W        W42951  29.922  13.181   0.359
75884W        W42952  37.467  40.384   4.687
75885W        W42953  19.614  21.157  12.052
75886W        W42954   3.384  16.222   1.305
75887W        W42955  28.659  16.143   0.914
75888W        W42956  27.003  44.828  10.409
75889W        W42957  31.072  34.108   2.688
75890W        W42958  36.483   3.799   2.245
75891W        W42959  38.385  14.330  11.868
75892W        W42960   3.347  24.097  13.880
75893W        W42961  10.853  42.777   4.147
75894W        W42962  34.416  26.601   1.766
75895W        W42963  28.038  26.625  13.029
75896W        W42964  31.575  31.466   1.932
75897W        W42965  28.104  29.540  11.096
75898W        W42966  27.633  27.471   1.810
75899W        W42967   5.734  15.130   3.160
75900W        W42968  16.746  24.039  10.106
75901W        W42969  18.259  18.102   3.375
75902W        W42970  16.603  25.090   3.766
75903W        W42971  42.791  11.692   1.700
75904W        W42972  19.605  19.682   2.889
75905W        W42973  42.524  24.117   3.681
75906W        W42974  23.180  27.491   2.268
75907W        W42975  41.022  23.010  12.382
75908W        W42976   9.822  21.568  13.814
75909W        W42977   0.801   7.895   2.774
75910W        W42978   3.774  14.195   0.833
75911W        W42979  29.143  42.021   3.222
75912W        W42980  35.430  39.508   0.955
75913W        W42981  39.852  44.931  12.823
75914W        W42982  32.035  14.642   4.143
75915W        W42983  37.945  25.207   0.394
75916W        W42984  30.038  17.094  13.503
75917W        W42985  40.805  32.539  14.277
75918W        W42986  19.099  32.037  13.988
75919W        W42987  17.152  21.029  10.040
75920W        W42988  36.091  24.078  13.977
75921W        W42989  16.266   3.896  11.599
75922W        W42990  27.587  31.917  10.477
75923W        W42991  35.431  32.632   3.865
75924W        W42992   4.919  26.635   4.741
75925W        W42993  11.757  20.655  13.333
75926W        W42994   5.831  18.257  13.480
75927W        W42995  37.452  41.426  11.923
75928W        W42996  32.082   8.400   1.311
75929W        W42997  31.955   4.358   1.781
75930W        W42998   8.396   7.272  12.887
75931W        W42999  18.788  34.980  10.597
75932W        W43000  10.745   8.330  11.867
75933W        W43001  32.924   2.923  13.960
75934W        W43002  41.896  23.133  10.952
75935W        W43003   0.945  14.318  10.025
75936W        W43004  42.347   1.238  12.545
75937W        W43005  36.365  11.757   0.837
75938W        W43006  37.045  31.630  13.980
75939W        W43007  36.027  33.601  14.857
75940W        W43008   2.866  43.764   4.749
75941W        W43009  39.858  38.488   2.762
75942W        W43010  44.961  18.244  13.010
75943W        W43011  21.751  18.658   1.728
75944W        W43012  44.443  23.155  10.404
75945W        W43013   2.294  13.661   4.328
75946W        W43014  12.327  35.506   2.721
75947W        W43015  18.106   6.783  11.057
75948W        W43016  34.448  23.681   4.270
75949W        W43017  44.005  16.113   4.708
75950W        W43018   7.880  40.502   2.710
75951W        W43019  32.938  26.160  12.502
75952W        W43020  12.685  28.054  14.439
75953W        W43021  28.102   8.807  14.819
75954W        W43022  13.786   4.933  13.882
75955W        W43023  24.996   5.286  13.812
75956W        W43024   0.870   9.845   0.441
75957W        W43025  39.989   6.892  13.503
75958W        W43026  27.072  41.808  12.539
75959W        W43027  37.578   2.767   3.322
75960W        W43028  25.176  38.506   4.344
75961W        W43029  12.643  20.713  13.501
75962W        W43030  33.590  14.694  11.060
75963W        W43031  11.825   0.968  11.488
75964W        W43032  21.563   9.690   2.296
75965W        W43033  13.280   3.761   3.670
75966W        W43034  24.124  17.599   2.331
75967W        W43035  25.137  20.069  11.580
75968W        W43036  41.448  32.932   1.914
75969W        W43037  41.947  32.891  11.944
75970W        W43038   5.792  18.617  14.387
75971W        W43039   9.797   7.861  11.393
75972W        W43040  10.195  24.543  14.354
75973W        W43041  42.397  11.154   0.243
75974W        W43042  32.059  37.055   4.699
75975W        W43043  29.972  27.594  10.011
75976W        W43044  35.499   7.187  13.858
75977W        W43045   6.377   3.305   4.702
75978W        W43046  22.015   1.916  11.090
75979W        W43047  35.566   2.804  10.578
75980W        W43048  40.462   9.192  12.830
75981W        W43049  29.587  10.681   0.347
75982W        W43050   1.753  20.761   4.146
75983W        W43051  22.115   3.901   4.719
75984W        W43052  25.041   5.351   2.313
75985W        W43053  15.800  17.603  13.985
75986W        W43054  42.511   8.696  12.961
75987W        W43055   1.245   5.932   2.686
75988W        W43056  15.125  18.569  14.502
75989W        W43057  41.791   9.295   1.283
75990W        W43058  12.803  33.128  13.866
75991W        W43059  35.585  24.070  13.384
75992W        W43060  10.330  36.400   3.766
75993W        W43061  41.967  12.134  10.451
75994W        W43062   8.398   9.281   3.665
75995W        W43063  10.264   4.248   4.335
75996W        W43064  17.260  34.039   0.966
75997W        W43065  17.152   6.285  13.023
75998W        W43066   8.768  12.627  14.851
75999W        W43067  17.619  31.914   5.272
76000W        W43068  14.698  11.240  14.781
76001W        W43069   8.359  42.940  11.940
76002W        W43070   3.316   1.291   1.439
76003W        W43071  34.015  23.134  14.394
76004W        W43072  10.275  35.870  11.426
76005W        W43073  12.236  15.773   3.839
76006W        W43074  29.521  17.146  10.640
76007W        W43075  44.868  24.521  11.092
76008W        W43076  22.602  29.455   0.253
76009W        W43077  32.396   8.743   2.368
76010W        W43078  35.046  39.020  13.817
76011W        W43079  43.443  36.845   3.713
76012W        W43080  40.883  19.675  12.891
76013W        W43081  30.914  14.646  13.548
76014W        W43082   8.386  18.186   1.741
76015W        W43083  24.561  13.607   4.124
76016W        W43084  27.036  30.455  14.853
76017W        W43085   9.214  15.223   2.217
76018W        W43086  34.390  42.970  12.967
76019W        W43087  30.972  26.480  11.112
76020W        W43088  18.261  39.037   3.662
76021W        W43089  33.535  44.390  12.520
76022W        W43090  13.221  11.228   2.309
76023W        W43091  25.183  11.681  12.961
76024W        W43092  36.545  16.310   0.837
76025W        W43093   3.458  28.944  13.956
76026W        W43094  20.659   1.468   3.232
76027W        W43095  34.463  21.080  12.907
76028W        W43096  15.703   8.780   1.272
76029W        W43097   5.850  36.356   1.352
76030W        W43098  16.116  13.143  14.460
76031W        W43099  17.638  15.795   0.413
76032W        W43100  20.526   5.417  14.877
76033W        W43101  29.489  39.887   4.225
76034W        W43102  32.929  16.807   4.600
76035W        W43103  30.657  33.454   0.789
76036W        W43104  31.525  22.027   4.729
76037W        W43105  41.384  38.976  13.954
76038W        W43106  37.548   5.395   2.181
76039W        W43107  41.985  42.004   1.771
76040W        W43108  21.260   7.376   0.846
76041W        W43109  17.203  15.745   4.190
76042W        W43110  17.592   7.908   4.830
76043W        W43111  25.509  40.875   2.186
76044W        W43112   1.931  35.539  12.072
76045W        W43113  18.548  37.994  14.358
76046W        W43114  29.618   8.689  13.401
76047W        W43115  30.026  15.697  14.344
76048W        W43116  43.271   3.852   0.317
76049W        W43117  41.518   9.643   0.405
76050W        W43118  30.620  17.775  11.056
76051W        W43119  17.667  18.187   1.295
76052W        W43120  39.497  42.986   4.313
76053W        W43121  19.686  37.947  14.769
76054W        W43122  27.172  35.902   1.279
76055W        W43123  29.163  36.514  10.107
76056W        W43124  16.143  16.114   3.376
76057W        W43125  25.140   3.775   1.807
76058W        W43126  12.736  30.061  11.583
76059W        W43127  19.727  19.131  11.452
76060W        W43128  28.593  13.727  11.104
76061W        W43129  23.992  13.657  13.361
76062W        W43130  37.065  20.208  11.569
76063W        W43131  14.820  23.559   4.155
76064W        W43132  23.649  29.574   4.772
76065W        W43133  29.593  24.116   5.296
76066W        W43134  26.979  35.944  13.447
76067W        W43135  35.584   2.283  11.507
76068W        W43136  44.466  16.657  13.904
76069W        W43137  34.396  30.434  12.527
76070W        W43138  35.051  30.915   4.225
76071W        W43139   4.894  22.716  12.990
76072W        W43140  12.347  38.435  14.830
76073W        W43141  31.906  28.649  14.822
76074W        W43142  39.844  24.624   0.754
76075W        W43143   5.415  22.228   1.244
76076W        W43144  44.449  13.785   1.883
76077W        W43145  38.504  18.194   2.203
76078W        W43146  43.976  26.024   3.151
76079W        W43147  14.828  38.361  10.939
76080W        W43148  12.266  41.454  11.440
76081W        W43149  32.022  30.486   4.215
76082W        W43150  26.479  10.144  14.930
76083W        W43151   0.305  16.267   2.776
76084W        W43152  29.438  25.702   3.332
76085W        W43153  25.110  21.700  14.944
76086W        W43154  19.565  36.978   0.839
76087W        W43155  14.668   1.436   0.275
76088W        W43156   6.382  30.459   2.823
76089W        W43157  43.815  16.308   3.170
76090W        W43158  22.061  22.088  13.875
76091W        W43159  16.597  40.008   2.201
76092W        W43160  30.057  13.734  14.374
76093W        W43161  27.567  42.776   4.658
76094W        W43162  10.874   7.699   2.369
76095W        W43163  32.407   4.902   4.142
76096W        W43164  39.042  12.168  12.357
76097W        W43165  44.501  10.253  10.035
76098W        W43166  37.869  20.039   3.374
76099W        W43167  19.734   6.816   2.888
76100W        W43168  39.446  35.387   4.647
76101W        W43169  28.063   1.903  13.819
76102W        W43170  28.971  35.483  10.933
76103W        W43171  11.190  38.518   0.963
76104W        W43172   1.765  41.501   1.420
76105W        W43173  32.594  18.286  13.538
76106W        W43174  34.406   1.254   2.224
76107W        W43175  40.529  23.734   4.684
76108W        W43176   6.363  32.940  11.480
76109W        W43177  12.161   6.232   4.665
76110W        W43178  31.528  13.166   5.290
76111W        W43179  40.028  21.751  12.095
76112W        W43180   1.316  21.019  12.926
76113W        W43181  35.513  28.672  11.413
76114W        W43182  12.814  25.561   3.784
76115W        W43183  26.633  13.222  12.920
76116W        W43184  16.695  27.670  12.579
76117W        W43185  28.053  12.203   4.760
76118W        W43186  18.581  22.653   4.312
76119W        W43187  29.538  43.880   2.293
76120W        W43188  12.721  21.616   2.890
76121W        W43189  23.136  32.532   0.813
76122W        W43190  35.077  37.054   2.402
76123W        W43191  39.410  17.139  14.018
76124W        W43192  20.641  21.032   0.388
76125W        W43193  38.869   2.794  11.071
76126W        W43194  40.343  33.116   4.349
76127W        W43195  21.097  12.153  11.530
76128W        W43196   6.283  43.926  11.043
76129W        W43197  18.553  31.950  12.554
76130W        W43198  35.094   0.899   9.953
76131W        W43199  41.414  43.815   4.268
76132W        W43200  28.084  20.054  14.787
76133W        W43201  42.349  33.119  12.883
76134W        W43202   4.357  21.254   0.338
76135W        W43203   6.368  16.671   4.839
76136W        W43204  32.548   2.408  11.491
76137W        W43205  44.292  29.099   4.228
76138W        W43206  36.517  21.565   3.764
76139W        W43207  13.304   9.311   0.257
76140W        W43208  26.584   2.283   4.646
76141W        W43209  39.469  40.324  14.965
76142W        W43210  38.834  17.721   3.276
76143W        W43211  20.534  16.760   1.784
76144W        W43212  42.495   7.324   2.730
76145W        W43213  43.442   7.877   2.666
76146W        W43214  12.337  34.016  13.800
76147W        W43215   7.690   1.746   2.770
76148W        W43216   2.377  11.629   0.731
76149W        W43217   6.352   5.768   4.301
76150W        W43218  31.476   4.382   3.304
76151W        W43219   6.235  37.083   3.866
76152W        W43220  25.533  11.358   0.367
76153W        W43221  12.741  14.757   2.351
76154W        W43222   1.807  26.090   1.754
76155W        W43223  19.053   6.395  14.873
76156W        W43224  19.586  31.628  11.554
76157W        W43225  44.298  24.088  13.001
76158W        W43226  11.200  15.750  10.905
76159W        W43227   7.178  36.582  11.499
76160W        W43228   3.807  38.363   3.267
76161W        W43229  29.582  11.792   1.420
76162W        W43230  21.092  37.552   4.269
76163W        W43231  35.590  14.660  11.531
76164W        W43232   1.869  43.959   2.273
76165W        W43233  29.493  24.062  11.545
76166W        W43234  17.591  40.998  13.852
76167W        W43235  40.408  29.918   4.829
76168W        W43236  22.661  42.953   0.744
76169W        W43237  30.525   5.426   3.741
76170W        W43238  14.742   9.170   2.876
76171W        W43239  24.707  32.525  13.893
76172W        W43240   6.765   8.380   2.382
76173W        W43241   8.894  19.777   1.759
76174W        W43242   7.794  30.162   0.959
76175W        W43243  44.951  14.640   2.884
76176W        W43244  12.735  35.008   2.350
76177W        W43245  13.320  27.972   3.206
76178W        W43246  25.509   9.386  10.501
76179W        W43247  36.516  27.563   2.899
76180W        W43248  11.268   2.892   4.290
76181W        W43249  29.079   6.301  14.500
76182W        W43250   8.275   0.921  12.061
76183W        W43251  14.642  36.064  13.426
76184W        W43252  12.849  22.066  13.395
76185W        W43253   9.350  42.934   4.816
76186W        W43254   6.819  23.119  11.409
76187W        W43255  33.381  16.142   0.300
76188W        W43256  14.791  25.535   3.836
76189W        W43257   8.882  21.207   2.815
76190W        W43258   0.443  23.034  11.394
76191W        W43259   7.245  27.586   3.762
76192W        W43260  19.618  26.553   1.909
76193W        W43261  41.856  12.174   1.444
76194W        W43262  17.738  27.542   2.666
76195W        W43263  42.837  44.836   3.741
76196W        W43264   3.868  12.663  13.363
76197W        W43265  36.526  27.455  11.877
76198W        W43266   7.760   0.943  10.996
76199W        W43267  13.746  11.230   4.734
76200W        W43268   4.919   9.856   0.773
76201W        W43269  13.684  19.583  14.999
76202W        W43270  28.131  25.181   4.804
76203W        W43271  35.049  38.915   4.756
76204W        W43272  11.668  17.273   2.726
76205W        W43273   8.347   1.748   3.303
76206W        W43274  32.476  27.059   2.779
76207W        W43275   0.453  14.616   1.762
76208W        W43276  31.452   7.826   3.724
76209W        W43277  26.994   1.801  13.922
76210W        W43278   1.381  36.955   0.470
76211W        W43279   3.815  14.792  14.485
76212W        W43280  13.233  32.597  13.026
76213W        W43281  22.034  29.064  12.016
76214W        W43282   8.304  26.596  13.014
76215W        W43283  10.205   3.885   1.392
76216W        W43284  40.909  11.229   0.463
76217W        W43285  41.938  29.105   4.176
76218W        W43286  16.787  11.238   4.642
76219W        W43287  28.090  43.780   3.862
76220W        W43288   3.921  34.475   1.741
76221W        W43289  15.633  19.570  11.427
76222W        W43290  20.030   5.909  11.039
76223W        W43291  16.702  31.000  10.919
76224W        W43292  39.520  18.072   3.712
76225W        W43293  11.835  20.563  11.444
76226W        W43294  21.590  26.673  12.488
76227W        W43295  27.561  10.235   4.158
76228W        W43296   3.258  20.211   4.341
76229W        W43297  25.652   5.878   2.270
76230W        W43298   1.346  35.548  12.561
76231W        W43299  31.505  27.534   0.352
76232W        W43300   2.309  27.152   0.382
76233W        W43301  27.518  30.581   3.279
76234W        W43302   7.905   0.863  11.427
76235W        W43303  43.928  40.543   4.817
76236W        W43304  20.707  35.964  13.324
76237W        W43305  11.256  25.128  13.792
76238W        W43306  24.637  34.914  12.361
76239W        W43307  37.830  14.756   2.852
76240W        W43308  30.606  33.008  11.609
76241W        W43309   8.879  30.111   3.734
76242W        W43310  10.730  27.477  14.343
76243W        W43311  22.217   7.740   2.299
76244W        W43312   6.680  27.097  11.953
76245W        W43313  10.874  41.987  11.484
76246W        W43314  37.914  15.792  11.115
76247W        W43315  11.298  36.845  12.971
76248W        W43316  41.037  35.057  11.917
76249W        W43317  21.021   5.332   3.362
76250W        W43318  24.657  22.731   4.675
76251W        W43319  44.376   7.669  11.923
76252W        W43320  39.041   1.402  13.392
76253W        W43321  16.281  43.934  11.544
76254W        W43322  40.369   7.701   2.846
76255W        W43323  14.261  28.466  13.518
76256W        W43324   0.742  27.073  12.576
76257W        W43325  27.604  15.623  12.350
76258W        W43326  12.670  11.284  11.047
76259W        W43327   7.406  28.945  10.521
76260W        W43328   8.327  40.833   3.369
76261W        W43329  25.039   6.315   5.238
76262W        W43330  34.037  18.113  12.917
76263W        W43331  19.155  19.110  13.346
76264W        W43332  15.175  44.259  12.979
76265W        W43333   8.893  34.904   2.860
76266W        W43334  31.028  39.338  14.003
76267W        W43335  17.592   5.222  11.405
76268W        W43336  34.866  24.506  12.913
76269W        W43337  36.863  18.655   0.353
76270W        W43338   9.237   8.225  12.008
76271W        W43339  23.542  30.531   2.349
76272W        W43340  13.797   5.842  10.595
76273W        W43341  15.765  31.026   1.433
76274W        W43342  29.173  11.315   3.199
76275W        W43343  35.487   0.864   0.948
76276W        W43344  15.157   1.241   2.413
76277W        W43345  43.423   0.462  11.422
76278W        W43346  42.902  32.014  14.962
76279W        W43347  39.899   2.751  13.432
76280W        W43348  40.436  40.924   1.802
76281W        W43349  39.554   8.329  14.779
76282W        W43350  27.948  17.089  13.430
76283W        W43351  23.135  19.226  11.010
76284W        W43352  38.968  36.893  12.082
76285W        W43353  33.577  17.063  12.928
76286W        W43354  40.907  44.315   2.859
76287W        W43355   1.298  36.054   3.177
76288W        W43356  41.507   0.305  13.537
76289W        W43357  18.697   2.392  12.990
76290W        W43358  37.970  39.349  10.955
76291W        W43359  19.079  20.650  12.566
76292W        W43360   5.832   7.402   4.120
76293W        W43361  19.589   9.740  11.594
76294W        W43362   1.949  37.520  11.018
76295W        W43363  16.250  12.231   9.569
76296W        W43364  34.966  31.500  10.938
76297W        W43365   3.442  43.421   1.261
76298W        W43366  36.925  27.991  14.412
76299W        W43367  36.363  28.943   2.903
76300W        W43368  25.503  18.297   3.822
76301W        W43369  27.687  18.162   0.948
76302W        W43370   4.227  14.642   3.768
76303W        W43371  43.282  22.577   2.390
76304W        W43372   3.725  30.119   2.181
76305W        W43373  17.664  25.510  10.414
76306W        W43374   2.404   0.859  12.892
76307W        W43375  40.040  43.959  11.868
76308W        W43376  12.649  33.424   2.736
76309W        W43377   4.817   1.264  10.572
76310W        W43378  18.709  25.191  13.889
76311W        W43379  10.263  32.622   0.385
76312W        W43380  42.427  11.715   3.363
76313W        W43381  27.128   5.704   3.656
76314W        W43382  12.334  33.027  14.762
76315W        W43383   5.378  38.387  10.507
76316W        W43384  16.228  16.757   1.857
76317W        W43385  38.538  28.988  14.992
76318W        W43386  13.295  23.158  14.460
76319W        W43387  38.976  43.318  13.865
76320W        W43388  10.667  27.614  11.920
76321W        W43389   9.848  21.082  13.548
76322W        W43390   2.464  14.673  12.461
76323W        W43391   9.314   9.846   3.147
76324W        W43392  31.520  37.960   1.842
76325W        W43393  30.652  26.579   1.414
76326W        W43394  18.118  15.743  13.963
76327W        W43395   2.448  16.729   0.426
76328W        W43396  23.233  28.078   0.920
76329W        W43397   8.778  39.420  11.020
76330W        W43398  18.584   1.770   2.219
76331W        W43399  30.579  27.016   2.885
76332W        W43400   6.389  20.556   3.738
76333W        W43401  23.626   8.874  13.488
76334W        W43402  33.969   5.920   1.736
76335W        W43403  17.644  32.958  14.833
76336W        W43404  33.567  30.615   3.630
76337W        W43405   4.379  29.940   3.765
76338W        W43406  35.910  28.000  14.344
76339W        W43407   8.221  18.059   0.425
76340W        W43408   6.385  36.052   1.257
76341W        W43409  42.967  21.658   4.196
76342W        W43410  19.233  12.792  13.977
76343W        W43411  25.094  14.128  12.916
76344W        W43412  32.598  19.175  10.574
76345W        W43413  17.170  17.746  12.508
76346W        W43414  39.957  25.112  14.970
76347W        W43415   7.713  43.840  11.960
76348W        W43416   4.845  35.369   0.316
76349W        W43417   4.381  26.540  10.570
76350W        W43418  12.624  29.538  12.376
76351W        W43419   5.807  12.121   2.419
76352W        W43420  10.773  19.258   0.260
76353W        W43421  16.791  38.546   0.835
76354W        W43422  42.333   9.185   1.761
76355W        W43423   9.266  20.596   3.781
76356W        W43424   3.379  42.294   4.322
76357W        W43425  12.137  15.321  12.871
76358W        W43426  23.144  34.560   4.719
76359W        W43427   7.694  37.450  14.794
76360W        W43428  17.774  40.859   4.692
76361W        W43429  16.123   1.915   4.350
76362W        W43430   3.762  13.300   0.401
76363W        W43431  14.158  14.304  12.870
76364W        W43432   7.373  37.079  12.015
76365W        W43433   2.422  17.745  10.984
76366W        W43434  19.535   7.773   1.926
76367W        W43435  25.515  44.299  14.921
76368W        W43436   0.743  10.781   1.283
76369W        W43437   3.346   5.377   0.763
76370W        W43438  10.155  44.489   1.701
76371W        W43439  30.523  30.457   3.743
76372W        W43440  29.131  36.418  12.549
76373W        W43441  36.443   5.309   3.177
76374W        W43442  36.412  26.629  14.317
76375W        W43443  44.935   7.681  12.861
76376W        W43444  21.134  29.518   3.236
76377W        W43445   3.758  33.056   9.941
76378W        W43446  13.116  24.500   4.180
76379W        W43447   5.738   9.841  10.476
76380W        W43448  19.601  25.040   3.247
76381W        W43449   3.347   8.672  12.955
76382W        W43450   4.325  18.137  10.538
76383W        W43451   3.867   0.419   0.375
76384W        W43452  22.210  36.533  10.974
76385W        W43453   0.840   2.793   2.246
76386W        W43454  33.097  36.531  14.893
76387W        W43455  19.618  27.991  13.937
76388W        W43456  24.481  13.130   0.301
76389W        W43457   4.242  30.104  14.513
76390W        W43458  40.506  28.114  13.898
76391W        W43459  25.159   6.209   4.226
76392W        W43460  12.354  23.554  14.318
76393W        W43461  21.511  39.509   2.855
76394W        W43462  28.013  11.136  14.395
76395W        W43463  28.451  39.936   1.912
76396W        W43464   2.468  18.715  11.464
76397W        W43465   0.291   2.823  10.414
76398W        W43466  37.392  20.257   0.812
76399W        W43467  33.563  41.333  11.880
76400W        W43468  32.027  32.132   3.740
76401W        W43469  14.646  30.059   3.852
76402W        W43470  40.879   7.693   4.800
76403W        W43471  10.695  19.223  10.641
76404W        W43472  19.745  39.046  11.394
76405W        W43473  32.464   7.856  14.470
76406W        W43474  36.949   5.272  11.494
76407W        W43475  39.991  23.191  13.478
76408W        W43476  29.955  26.031   1.404
76409W        W43477  28.976  20.540   4.709
76410W        W43478  40.043   9.830  11.555
76411W        W43479  34.111  14.145   4.247
76412W        W43480  24.202   1.959   4.802
76413W        W43481  42.952   7.246  13.966
76414W        W43482  44.906  29.590   0.905
76415W        W43483   0.760  44.321   3.856
76416W        W43484  35.083  17.714  13.929
76417W        W43485  21.739  33.024  13.518
76418W        W43486   7.325   3.357  14.810
76419W        W43487   7.867  16.789   3.720
76420W        W43488  24.170  24.201  14.860
76421W        W43489  20.750   4.359  10.453
76422W        W43490  24.491  17.185   3.311
76423W        W43491  32.509   5.295  11.003
76424W        W43492  17.783  29.593   1.862
76425W        W43493   5.756  20.213  10.581
76426W        W43494  25.186   6.913  12.566
76427W        W43495   9.250  12.822   4.645
76428W        W43496  44.263  11.280   0.869
76429W        W43497  31.146  22.028   2.325
76430W        W43498  40.480  44.499  12.870
76431W        W43499  31.474  24.564  13.357
76432W        W43500   9.203  29.090  12.438
76433W        W43501  13.117  33.468   4.605
76434W        W43502   4.856  28.469  11.455
76435W        W43503  22.543  28.506   1.781
76436W        W43504  22.624  40.923  14.457
76437W        W43505  15.213  36.413  10.968
76438W        W43506   0.467  44.763  12.424
76439W        W43507  43.290  41.342  13.998
76440W        W43508   4.311   9.800   3.197
76441W        W43509  18.701   1.878  11.494
76442W        W43510  30.932   9.780   4.689
76443W        W43511  12.350  29.085  12.551
76444W        W43512   7.855   9.704   0.890
76445W        W43513  25.215  16.127  12.037
76446W        W43514  42.324  35.441  13.961
76447W        W43515  20.197  23.600   5.197
76448W        W43516   2.879   8.678   3.694
76449W        W43517  19.620  10.704   1.378
76450W        W43518  43.018  34.390   3.186
76451W        W43519   3.459   9.673  11.557
76452W        W43520  15.641  34.917   3.786
76453W        W43521  37.913  44.292  12.045
76454W        W43522  12.784   0.889  13.315
76455W        W43523  16.768   7.377   4.616
76456W        W43524  34.471  24.008  11.532
76457W        W43525  40.408  30.603  13.932
76458W        W43526  25.477  42.371  12.057
76459W        W43527   2.380  29.666  14.902
76460W        W43528  11.135   4.398   4.209
76461W        W43529  35.044   6.366   1.932
76462W        W43530  22.693  13.301   3.233
76463W        W43531  17.162  25.553  10.523
76464W        W43532   8.655   1.452   3.174
76465W        W43533  12.836   6.277  11.564
76466W        W43534  12.159  24.548   4.296
76467W        W43535  16.280  19.056   0.431
76468W        W43536  41.297  44.846  10.590
76469W        W43537  29.091  17.300  12.000
76470W        W43538  29.150  32.601  11.069
76471W        W43539  24.641  43.272  14.906
76472W        W43540   1.327  32.636   1.862
76473W        W43541  25.099  43.446  12.995
76474W        W43542  32.972  35.027  12.566
76475W        W43543   5.904  18.077  10.963
76476W        W43544  38.885  42.782   0.788
76477W        W43545  16.699  29.442   2.865
76478W        W43546  20.748  23.237  12.369
76479W        W43547   1.347  23.610   4.258
76480W        W43548  32.069  18.755   4.744
76481W        W43549  33.495  36.481   4.337
76482W        W43550   5.705  22.536  12.930
76483W        W43551  38.553   0.280   4.617
76484W        W43552   9.352  38.923  12.478
76485W        W43553  30.913  30.972   3.295
76486W        W43554   0.390  21.703   2.394
76487W        W43555  14.674   1.306   1.434
76488W        W43556   8.174  41.861  12.859
76489W        W43557  31.966  36.467  10.575
76490W        W43558  15.192  24.489   4.598
76491W        W43559  40.995  20.213  10.564
76492W        W43560  31.453  30.155   1.403
76493W        W43561  40.861   6.424  14.389
76494W        W43562   9.833  17.274  10.910
76495W        W43563  42.959  11.239   2.684
76496W        W43564  18.286  32.603   1.757
76497W        W43565  24.587   1.447   2.364
76498W        W43566  34.450   7.815   4.661
76499W        W43567  37.379  39.534   1.418
76500W        W43568  13.176  40.483   5.225
76501W        W43569  34.374  36.846   0.925
76502W        W43570  13.243  33.099  10.512
76503W        W43571  25.169  14.308  14.920
76504W        W43572  16.257   5.310  10.540
76505W        W43573  39.843   5.801  13.870
76506W        W43574  21.022  19.154  10.553
76507W        W43575  21.136  43.459   0.278
76508W        W43576  30.000  24.137   5.093
76509W        W43577  38.541  19.051   4.151
76510W        W43578  21.629  44.437   3.353
76511W        W43579  31.613  35.856   4.304
76512W        W43580  43.392  21.127   3.273
76513W        W43581  28.511  33.626   0.301
76514W        W43582  21.611  11.863  13.327
76515W        W43583   2.256  41.527  11.883
76516W        W43584  21.038  38.336  14.465
76517W        W43585  30.616  11.158  10.469
76518W        W43586  19.047   5.869   3.687
76519W        W43587   0.989  31.933   2.818
76520W        W43588  27.071  12.297  13.494
76521W        W43589  33.432  31.985  10.022
76522W        W43590  20.573  28.013   0.813
76523W        W43591  33.931  36.008   4.320
76524W        W43592  38.027  42.285   3.334
76525W        W43593  10.377  23.109   0.275
76526W        W43594  20.553  10.677   2.752
76527W        W43595  22.669  17.770   3.170
76528W        W43596   3.372  33.028   1.767
76529W        W43597  38.359  36.359   3.186
76530W        W43598  43.381   9.771  14.514
76531W        W43599  39.861   6.681  10.426
76532W        W43600  38.510  31.923   2.411
76533W        W43601  32.889  21.201  13.025
76534W        W43602  11.742  13.710   1.279
76535W        W43603  30.087  26.506  14.785
76536W        W43604  25.051  12.655   4.328
76537W        W43605  10.139  42.022   3.226
76538W        W43606   8.212   4.757  13.811
76539W        W43607   1.401  24.997  12.970
76540W        W43608  34.946  37.899   0.803
76541W        W43609  39.491  32.056   0.296
76542W        W43610  43.492  28.674   1.316
76543W        W43611  16.172  37.532   3.790
76544W        W43612  37.892   0.494   3.734
76545W        W43613  23.588   6.693   0.755
76546W        W43614  22.726   4.236   1.932
76547W        W43615  17.158  22.636   9.441
76548W        W43616   2.826  23.047   0.343
76549W        W43617   5.434  17.640   1.274
76550W        W43618  12.802   3.748   1.744
76551W        W43619  43.927  35.439  13.799
76552W        W43620  30.944  41.538  13.915
76553W        W43621  26.194  32.979  10.951
76554W        W43622  18.212  16.312  11.032
76555W        W43623   5.764  21.194   1.917
76556W        W43624  32.052  14.321   3.295
76557W        W43625   5.365  17.271   2.249
76558W        W43626   7.366  13.279  10.556
76559W        W43627  39.058  38.076   1.417
76560W        W43628  21.257   7.820  10.579
76561W        W43629  25.013  22.645   3.332
76562W        W43630  33.543  38.831   1.915
76563W        W43631   6.237  39.034   4.340
76564W        W43632   6.778  16.163   1.869
76565W        W43633  29.941  36.035   1.929
76566W        W43634   8.357  31.526   4.140
76567W        W43635   9.267  37.886   3.810
76568W        W43636  42.452  34.025   2.685
76569W        W43637  38.852  39.053  12.438
76570W        W43638   2.433  30.914  12.354
76571W        W43639  10.659  25.016  11.576
76572W        W43640  30.620  21.149   4.804
76573W        W43641  29.036  32.095   0.737
76574W        W43642  17.145  20.567  11.607
76575W        W43643  33.410  32.518   3.203
76576W        W43644  19.094  36.468   4.336
76577W        W43645  39.469  41.941  11.005
76578W        W43646  15.751   6.721   0.944
76579W        W43647   5.309  37.510  10.561
76580W        W43648   9.784  21.652   1.793
76581W        W43649  23.540  32.408  13.444
76582W        W43650  25.216  14.765   0.864
76583W        W43651  32.444   3.241  13.460
76584W        W43652  43.503  11.165  10.624
76585W        W43653   1.295   9.263   4.118
76586W        W43654  31.484  11.284   2.679
76587W        W43655   2.766  28.522  12.531
76588W        W43656  28.566   5.431   4.121
76589W        W43657  40.488  20.532   4.632
76590W        W43658  11.131  16.133  12.495
76591W        W43659   5.244  38.428  13.535
76592W        W43660   8.809  32.100  10.644
76593W        W43661  44.385  14.320  11.399
76594W        W43662   0.323   4.893  12.859
76595W        W43663  12.149  42.853  12.403
76596W        W43664   3.461  12.309  13.413
76597W        W43665  24.063  33.908   2.758
76598W        W43666   5.341  39.049   0.334
76599W        W43667  35.050  43.862   1.844
76600W        W43668  31.949  18.589  14.996
76601W        W43669  34.410  14.289  13.999
76602W        W43670  26.676   2.250  14.943
76603W        W43671  22.667   2.415   5.096
76604W        W43672  22.215   4.429   2.400
76605W        W43673  38.924   4.921  14.781
76606W        W43674  25.600  29.559  10.530
76607W        W43675  36.548  37.988   4.835
76608W        W43676   4.316  11.254   4.160
76609W        W43677  18.620  28.160   3.726
76610W        W43678  40.808  25.708  11.039
76611W        W43679  14.655   9.644  12.400
76612W        W43680   6.305  27.492   3.326
76613W        W43681   4.244  25.173  11.390
76614W        W43682  11.189   5.800   2.415
76615W        W43683  29.948   5.744   1.877
76616W        W43684  23.600  22.712  13.433
76617W        W43685  33.559  13.247  11.543
76618W        W43686  16.137  30.429   1.785
76619W        W43687  32.482  23.651   9.925
76620W        W43688  42.363  31.052   3.813
76621W        W43689   2.420  32.888   5.112
76622W        W43690  44.995  31.091   1.825
76623W        W43691   0.985  26.602   1.384
76624W        W43692  30.567  41.908   1.915
76625W        W43693  44.503   8.714  14.824
76626W        W43694  10.163  16.685   0.920
76627W        W43695  35.540   2.925   3.721
76628W        W43696  41.904  19.175   4.161
76629W        W43697   3.753  37.863   4.676
76630W        W43698  11.291  20.169   2.216
76631W        W43699  26.020  22.541  10.441
76632W        W43700  20.735  39.984  12.071
76633W        W43701  34.435  38.382   0.848
76634W        W43702   4.347  28.140   0.889
76635W        W43703   0.354  19.576   0.791
76636W        W43704  18.588  19.637   2.329
76637W        W43705  26.170  20.195   2.734
76638W        W43706   4.850   4.698  13.513
76639W        W43707  26.195   0.979  13.374
76640W        W43708  11.700   0.264  12.472
76641W        W43709  12.233  38.015   1.810
76642W        W43710  37.369  37.086   4.826
76643W        W43711  20.743  42.902   3.265
76644W        W43712  34.420   8.867  14.943
76645W        W43713  26.118  32.917  12.381
76646W        W43714  24.632  11.660  11.898
76647W        W43715  41.933   5.815   2.198
76648W        W43716   4.702  21.530   2.742
76649W        W43717  34.425   5.926   0.899
76650W        W43718  24.482   5.324  12.378
76651W        W43719  28.039  30.553  13.021
76652W        W43720  25.470  22.143   0.837
76653W        W43721  19.142  13.317  11.532
76654W        W43722  12.620  30.080   1.911
76655W        W43723   1.284  15.691   1.407
76656W        W43724  11.229  37.019  11.491
76657W        W43725  42.911  19.071  11.030
76658W        W43726   0.911  26.620   3.739
76659W        W43727   3.767   2.362   4.710
76660W        W43728  14.323  44.398   4.607
76661W        W43729  16.587  43.317   1.788
76662W        W43730  22.040  24.590   4.128
76663W        W43731  38.063  42.929   4.642
76664W        W43732   5.304   4.864   2.317
76665W        W43733  19.627  32.041  12.902
76666W        W43734   1.416  35.560   9.952
76667W        W43735   4.323  39.884  12.034
76668W        W43736   7.757  32.631  10.501
76669W        W43737  27.567  34.874   4.151
76670W        W43738  30.560  24.521   1.227
76671W        W43739   2.394  18.666   5.096
76672W        W43740  13.700  33.915  11.019
76673W        W43741  40.957  37.425   0.771
76674W        W43742  24.693  25.002  13.914
76675W        W43743  11.821  10.190   0.861
76676W        W43744   4.410   1.851  14.311
76677W        W43745  40.873  11.719  13.034
76678W        W43746  27.104  11.292  13.440
76679W        W43747  14.128  43.854  10.490
76680W        W43748  10.726  36.019   3.235
76681W        W43749  38.500  17.766   2.809
76682W        W43750   3.215   8.659  14.015
76683W        W43751   4.449  25.670  14.941
76684W        W43752   0.804  21.019   0.729
76685W        W43753  41.827   2.742   1.888
76686W        W43754  44.757  26.609  14.456
76687W        W43755  20.092  34.091   4.735
76688W        W43756  24.494  16.191   1.752
76689W        W43757  40.326  33.616   0.945
76690W        W43758   3.449  29.557  12.541
76691W        W43759  42.030  22.062  10.442
76692W        W43760  13.690  28.568  13.439
76693W        W43761   9.686  29.449   0.443
76694W        W43762   7.853  28.465  11.099
76695W        W43763  22.252  20.124   4.610
76696W        W43764  37.418   9.206  12.561
76697W        W43765  18.183  26.159  14.028
76698W        W43766  39.496  11.823   3.710
76699W        W43767  22.617   8.407  11.471
76700W        W43768  42.794  28.544  13.803
76701W        W43769   8.195  42.990   3.700
76702W        W43770  44.905  31.946  11.900
76703W        W43771  21.223  38.369   1.756
76704W        W43772  34.111   5.298  12.506
76705W        W43773   3.370  21.047   1.896
76706W        W43774  35.063   9.149   3.264
76707W        W43775  35.464   7.343   2.291
76708W        W43776  25.200  36.842  14.859
76709W        W43777   2.894  30.083  11.493
76710W        W43778  25.590  30.529  11.112
76711W        W43779  39.844  17.125   2.351
76712W        W43780  29.653  15.148   2.339
76713W        W43781   2.307   7.187   4.250
76714W        W43782  24.164  11.358   2.749
76715W        W43783   2.376  22.242   4.173
76716W        W43784   4.811  15.782   3.341
76717W        W43785  28.464  31.640  14.453
76718W        W43786  17.658  25.094  14.761
76719W        W43787  37.490  22.607   2.362
76720W        W43788  29.025   0.460   1.872
76721W        W43789   3.388  28.066  13.939
76722W        W43790   4.910  14.340   1.354
76723W        W43791   3.417  32.011  11.391
76724W        W43792  26.110  11.155  10.953
76725W        W43793  10.161   0.259   3.763
76726W        W43794  34.892   2.255   1.783
76727W        W43795  33.035  36.080  13.909
76728W        W43796  35.386  14.097   2.897
76729W        W43797  21.236   7.360  12.033
76730W        W43798   5.297  42.360  11.113
76731W        W43799  42.460  17.792  14.767
76732W        W43800  32.500  19.612  12.070
76733W        W43801   3.839  23.062  12.000
76734W        W43802  18.554  14.745  10.588
76735W        W43803  31.477  10.245   1.316
76736W        W43804  31.114  31.980  12.545
76737W        W43805  24.581  12.184   1.310
76738W        W43806  10.301  14.744  11.407
76739W        W43807  25.491  44.951  11.610
76740W        W43808  35.449  30.932  14.419
76741W        W43809  16.650  16.637  11.911
76742W        W43810  38.983  38.416   1.285
76743W        W43811  37.394  22.641  12.881
76744W        W43812  21.251  37.997   5.263
76745W        W43813   1.774  19.175  12.861
76746W        W43814   6.360   9.368   3.345
76747W        W43815  36.474   0.413   4.798
76748W        W43816  33.394   5.771  12.898
76749W        W43817  23.153   8.685  10.621
76750W        W43818  30.531   5.236   4.227
76751W        W43819   7.763  20.148   2.259
76752W        W43820  22.623  24.221   2.711
76753W        W43821  18.645   0.394  14.289
76754W        W43822  14.785  31.990  12.463
76755W        W43823   5.763  22.027   1.227
76756W        W43824  27.554  29.157  11.059
76757W        W43825  21.121   3.338   1.781
76758W        W43826  12.794   1.760   1.425
76759W        W43827  25.977  12.257  11.891
76760W        W43828  27.539  24.210  11.532
76761W        W43829  36.854  27.689   3.683
76762W        W43830  11.844  15.254  12.445
76763W        W43831  43.856  17.146   1.219
76764W        W43832  28.552  32.103   2.671
76765W        W43833  12.271  14.777  10.453
76766W        W43834  36.477  13.186  12.987
76767W        W43835  19.670  26.680  13.461
76768W        W43836  30.134  13.706   1.275
76769W        W43837  25.613  22.113  13.974
76770W        W43838   9.798  37.504  14.892
76771W        W43839  29.105  19.168  12.967
76772W        W43840  34.889   6.839  11.013
76773W        W43841  35.417   7.843   4.213
76774W        W43842  37.904  42.339  12.486
76775W        W43843  16.674   2.842   3.724
76776W        W43844  16.185  26.476   4.197
76777W        W43845   6.223  17.085  10.422
76778W        W43846  11.796   1.378  13.427
76779W        W43847  36.592  39.830   2.890
76780W        W43848  33.556  30.610  13.897
76781W        W43849   6.280   4.704   0.929
76782W        W43850  18.136  36.008   0.882
76783W        W43851  19.582  35.380  10.979
76784W        W43852   6.303   7.699  10.528
76785W        W43853  31.088  44.446   3.668
76786W        W43854  37.854  41.809   3.818
76787W        W43855  12.174  15.130   3.665
76788W        W43856  37.579   3.399  12.941
76789W        W43857  39.990  31.627   4.233
76790W        W43858  25.159  43.966   1.776
76791W        W43859  39.367  35.052   2.255
76792W        W43860   0.929  35.466   4.607
76793W        W43861   5.196  36.919  10.929
76794W        W43862  22.612   3.269   1.721
76795W        W43863  38.952  19.238   4.724
76796W        W43864   6.859  30.999   4.831
76797W        W43865  26.500  12.791   1.860
76798W        W43866  31.584  33.969  10.930
76799W        W43867  27.679  12.273  13.900
76800W        W43868  26.552   5.276   2.270
76801W        W43869  34.983  16.250  14.478
76802W        W43870  26.652  33.606  10.957
76803W        W43871  15.296   2.877  11.970
76804W        W43872  26.071   3.875  10.418
76805W        W43873  29.521   3.733  11.922
76806W        W43874  30.492  24.020  12.021
76807W        W43875  36.430  20.683   4.622
76808W        W43876  39.882  17.084   3.356
76809W        W43877  21.754   6.894  13.998
76810W        W43878  44.289  36.476   3.685
76811W        W43879  32.424  23.233   0.477
76812W        W43880   6.787  38.461   3.722
76813W        W43881  11.674  26.152   1.225
76814W        W43882  32.010  23.057   1.358
76815W        W43883  20.538  44.795  14.904
76816W        W43884  41.963   2.471   3.656
76817W        W43885  42.296  15.203   0.804
76818W        W43886  35.066  39.857  14.813
76819W        W43887  22.099  26.962  11.028
76820W        W43888  38.380  44.906   3.195
76821W        W43889  28.146  39.997  13.908
76822W        W43890  23.120  24.565  12.832
76823W        W43891  34.509  19.101  12.954
76824W        W43892  22.560   2.259  12.893
76825W        W43893   5.326   0.767  13.436
76826W        W43894  29.423  17.654   1.284
76827W        W43895  36.035  36.944   2.674
76828W        W43896  19.643   2.817  13.459
76829W        W43897   3.904   5.693  11.571
76830W        W43898   0.977   0.970   0.286
76831W        W43899   5.699  11.710  14.375
76832W        W43900  36.567  40.003   1.374
76833W        W43901  21.603  25.592  12.085
76834W        W43902  22.644   4.922   2.342
76835W        W43903  30.021  28.112   1.380
76836W        W43904   6.399  25.012   9.929
76837W        W43905  37.410  11.697  14.908
76838W        W43906  36.965   5.711   2.320
76839W        W43907  33.113  13.107   0.768
76840W        W43908  15.712  10.675   1.840
76841W        W43909  33.024   7.416  13.967
76842W        W43910  28.574  17.124   2.324
76843W        W43911  43.986  41.374   1.836
76844W        W43912  27.946   8.888   1.790
76845W        W43913  13.349  44.364  13.982
76846W        W43914  38.408   3.848  14.821
76847W        W43915  28.137  36.075  10.928
76848W        W43916  24.149  20.160  13.518
76849W        W43917  30.641  18.053   1.215
76850W        W43918  22.074  17.115   3.868
76851W        W43919  42.988  12.270  12.422
76852W        W43920   2.396  23.002  13.995
76853W        W43921   5.740   7.294   3.366
76854W        W43922  37.380  18.606   1.325
76855W        W43923  26.986  21.749  14.448
76856W        W43924  25.218  24.029  14.870
76857W        W43925   1.864  36.574   2.728
76858W        W43926  24.220  42.465  10.890
76859W        W43927  15.718  30.552  10.012
76860W        W43928  36.511   4.889   3.293
76861W        W43929  44.394  44.891   1.449
76862W        W43930   4.744  27.583  11.597
76863W        W43931  33.599   2.964  12.527
76864W        W43932  11.234  10.252  12.887
76865W        W43933  32.103  24.036   2.252
76866W        W43934  11.628  34.069   0.932
76867W        W43935  22.606  22.539   5.308
76868W        W43936  27.045  26.075  11.479
76869W        W43937  11.661   9.378  14.436
76870W        W43938  34.045  34.480   0.755
76871W        W43939  21.667  22.026   2.743
76872W        W43940  24.208  25.530   2.275
76873W        W43941   9.268  10.300   3.309
76874W        W43942  33.992  12.153  13.044
76875W        W43943   3.804   5.316  13.800
76876W        W43944  30.149  35.853  14.801
76877W        W43945  39.005  13.262   3.294
76878W        W43946   2.281  17.728   1.905
76879W        W43947  43.287  16.639  12.345
76880W        W43948  18.568  12.259   4.234
76881W        W43949  15.316  23.615   4.659
76882W        W43950  22.524   7.207  14.809
76883W        W43951  24.103  23.241   4.825
76884W        W43952  20.709   4.352   2.759
76885W        W43953  22.046  40.893   5.201
76886W        W43954  18.699   3.832  10.574
76887W        W43955  24.652  16.611   2.321
76888W        W43956   9.844  39.495  13.542
76889W        W43957  38.044  23.590  11.007
76890W        W43958  21.519  29.016  10.470
76891W        W43959  40.949  12.303  11.855
76892W        W43960  22.594   7.196   1.439
76893W        W43961   3.816  23.674  11.022
76894W        W43962  44.460  15.273  13.478
76895W        W43963  18.054  20.107  14.332
76896W        W43964  36.033   8.882   4.645
76897W        W43965  16.214  30.585  14.027
76898W        W43966  42.293   8.741  12.018
76899W        W43967  34.102  17.599   1.934
76900W        W43968   0.916  23.580   1.379
76901W        W43969  24.612  11.806  14.022
76902W        W43970  38.417  42.310  14.501
76903W        W43971   7.782  15.737   1.448
76904W        W43972  24.101   1.836   1.790
76905W        W43973  13.674  32.553   3.817
76906W        W43974  36.018  32.960  11.384
76907W        W43975  18.112  28.161   1.422
76908W        W43976  20.223   5.819  13.864
76909W        W43977  29.546  36.090   2.729
76910W        W43978  10.260  39.852  11.592
76911W        W43979  24.658   5.315   0.348
76912W        W43980  13.204  40.479   1.910
76913W        W43981  22.670   2.789  14.487
76914W        W43982  43.813  19.111   4.825
76915W        W43983  23.722  19.123   3.775
76916W        W43984  21.026  19.694   3.831
76917W        W43985   4.862  23.187  12.927
76918W        W43986  25.494  25.684   4.713
76919W        W43987   1.875  26.143   0.793
76920W        W43988  14.130  16.740   3.349
76921W        W43989  17.156  39.008  12.956
76922W        W43990  10.366  42.299   4.823
76923W        W43991  40.479   1.898   0.930
76924W        W43992  39.826  34.471  12.860
76925W        W43993   0.287  20.197  12.535
76926W        W43994  28.059   2.856   3.689
76927W        W43995  16.250  19.174   5.245
76928W        W43996   6.785  25.998  11.101
76929W        W43997  40.962  40.956  14.938
76930W        W43998  39.988   2.923  14.015
76931W        W43999  41.820  41.364  11.390
76932W        W44000  37.423   9.744  11.607
76933W        W44001  12.665  20.229  10.436
76934W        W44002  14.284   2.264  13.453
76935W        W44003   0.899  35.419  10.565
76936W        W44004  17.068  39.965  14.376
76937W        W44005  22.013  15.128  13.538
76938W        W44006  16.305  42.910   4.329
76939W        W44007  16.157  29.668  12.952
76940W        W44008  12.216  30.606   0.740
76941W        W44009  12.223  38.832   3.310
76942W        W44010  28.115  21.629  11.082
76943W        W44011   8.293  19.226  13.970
76944W        W44012  30.100   7.228  11.127
76945W        W44013   3.252  19.270  11.957
76946W        W44014   0.436  34.949   5.229
76947W        W44015   2.844   3.254   3.304
76948W        W44016   1.356  17.101  12.555
76949W        W44017  14.212  22.157  12.437
76950W        W44018   8.234  23.017  14.798
76951W        W44019  24.548  19.261   4.315
76952W        W44020  28.185  27.056   2.233
76953W        W44021   5.872   7.367   3.843
76954W        W44022   8.177  27.521   2.394
76955W        W44023  31.467  39.857   2.686
76956W        W44024  14.242  33.080   3.373
76957W        W44025  31.055   5.772  12.905
76958W        W44026   1.933  29.141  11.431
76959W        W44027  26.162  11.849   1.341
76960W        W44028  24.646  25.638   3.651
76961W        W44029  14.101  43.885   3.319
76962W        W44030  26.472  29.630   1.413
76963W        W44031  12.791   3.455   1.709
76964W        W44032  38.551   5.790  12.031
76965W        W44033   9.678  24.139  10.926
76966W        W44034  13.710  42.829   0.807
76967W        W44035   8.299  23.222  13.936
76968W        W44036  38.515  29.436   3.245
76969W        W44037   6.379  31.046  13.468
76970W        W44038  15.581  37.998  12.853
76971W        W44039  28.578   3.812  10.421
76972W        W44040  23.097  13.740  12.557
76973W        W44041  43.283  43.424  11.935
76974W        W44042  20.626  21.667   2.806
76975W        W44043  41.015  40.901  13.877
76976W        W44044  19.665  26.667   2.356
76977W        W44045  24.083  38.967   4.191
76978W        W44046   7.182   7.291  12.891
76979W        W44047   3.743  18.653   3.655
76980W        W44048  39.883  14.136   2.195
76981W        W44049  19.068  28.056   9.932
76982W        W44050  10.226  44.811   0.771
76983W        W44051  25.652  18.545   4.641
76984W        W44052  43.378  29.127  11.545
76985W        W44053  44.869  14.773   3.155
76986W        W44054  27.454  39.526   3.739
76987W        W44055   4.741  13.635   1.283
76988W        W44056  20.677  21.676   3.293
76989W        W44057  36.566  38.405  11.587
76990W        W44058  19.555  28.662   3.161
76991W        W44059   2.731  12.654  11.557
76992W        W44060  24.596  22.107  12.449
76993W        W44061  42.426  16.075   0.895
76994W        W44062  34.607   3.903  11.562
76995W        W44063  17.754  13.176  12.963
76996W        W44064  12.116  14.784   1.773
76997W        W44065  22.205  32.555  13.962
76998W        W44066   6.763  29.657  10.440
76999W        W44067   8.235  33.933   0.291
77000W        W44068  44.287   9.862   3.282
77001W        W44069  13.732  20.752   3.224
77002W        W44070  10.767  42.298  10.626
77003W        W44071  25.203  13.727  12.057
77004W        W44072   9.787   5.896   1.291
77005W        W44073   1.762  28.591   1.841
77006W        W44074  28.486   7.707  13.465
77007W        W44075  44.269  44.331  14.829
77008W        W44076  17.785  18.785  12.974
77009W        W44077  42.448  38.558   2.807
77010W        W44078  31.032  28.521   2.386
77011W        W44079   3.426  15.755   0.967
77012W        W44080  35.881  43.502   0.278
77013W        W44081  38.503  20.561  14.883
77014W        W44082  35.010  24.001   4.611
77015W        W44083   2.404  15.170  14.477
77016W        W44084  11.738   0.352  11.943
77017W        W44085  17.228  41.404  11.482
77018W        W44086  11.142  32.621   3.688
77019W        W44087   2.338  17.776   3.182
77020W        W44088   4.431   0.795  12.861
77021W        W44089  31.938  25.219  10.546
77022W        W44090  39.452  30.609  12.904
77023W        W44091  21.173   6.708   0.276
77024W        W44092  19.628  15.658  12.956
77025W        W44093  13.262   7.207  14.867
77026W        W44094  39.354   1.899  14.846
77027W        W44095   9.662  43.477   2.846
77028W        W44096   0.354  36.071   2.845
77029W        W44097  42.851   3.247   2.407
77030W        W44098   8.400  44.936  11.013
77031W        W44099  36.448   4.730  11.486
77032W        W44100  22.051  13.315   1.431
77033W        W44101  41.929  20.161   0.447
77034W        W44102  31.973  30.083  14.320
77035W        W44103  26.008  44.397  14.985
77036W        W44104   2.247   2.732   0.305
77037W        W44105  23.215  19.238  10.500
77038W        W44106  33.016  27.469   4.316
77039W        W44107  20.663  44.279   1.283
77040W        W44108  20.086  44.961   1.265
77041W        W44109  26.619  28.088   3.165
77042W        W44110  28.178  22.668   3.815
77043W        W44111  11.247   9.273   2.748
77044W        W44112   6.344  43.996   0.732
77045W        W44113  37.957  32.421  12.839
77046W        W44114  41.973  19.653  10.548
77047W        W44115   6.245  17.063   0.451
77048W        W44116   5.375  10.177  11.948
77049W        W44117  43.785  21.163   0.471
77050W        W44118  17.181  11.191   0.773
77051W        W44119  30.085  43.280   1.227
77052W        W44120  10.257   2.760  11.494
77053W        W44121   0.357  38.020  10.475
77054W        W44122  40.940  14.618   0.811
77055W        W44123   0.915  25.013   4.329
77056W        W44124  20.687  21.608  14.500
77057W        W44125   6.699  36.566  12.348
77058W        W44126  17.144  30.461  13.470
77059W        W44127   5.862  41.903   0.306
77060W        W44128  11.140  23.644  11.889
77061W        W44129  21.174  31.115   4.155
77062W        W44130   5.917  26.048   1.899
77063W        W44131  29.656  42.301  12.365
77064W        W44132  27.116  26.979   4.290
77065W        W44133  23.612  39.358   3.792
77066W        W44134  44.422  34.600   1.757
77067W        W44135  10.384  25.030  13.852
77068W        W44136  20.149  42.013   2.238
77069W        W44137   9.869  33.913   2.684
77070W        W44138   8.236  22.080  13.407
77071W        W44139  33.621  31.509  14.780
77072W        W44140  23.120  31.983   2.681
77073W        W44141  29.116  28.110  13.356
77074W        W44142  30.938  38.421   0.853
77075W        W44143  36.883  33.879   2.405
77076W        W44144  26.534  34.598  12.562
77077W        W44145  30.005  29.148   0.362
77078W        W44146  43.012   1.889  13.510
77079W        W44147  41.789  39.383   4.814
77080W        W44148  16.773  23.539   5.099
77081W        W44149  20.577  32.051   5.089
77082W        W44150   0.772  25.569   4.199
77083W        W44151   7.729  29.424   4.652
77084W        W44152  22.033  36.480  10.463
77085W        W44153  14.134  20.612  12.378
77086W        W44154  34.032  26.679   1.714
77087W        W44155  18.278   8.230   4.634
77088W        W44156  17.159  37.528   5.169
77089W        W44157  33.544  11.763   1.795
77090W        W44158   2.400  20.236  13.883
77091W        W44159  12.780  42.299  10.492
77092W        W44160  14.703  33.951  12.372
77093W        W44161  18.604   1.809   5.301
77094W        W44162  25.671   0.319  11.070
77095W        W44163  24.511   1.391  11.556
77096W        W44164  32.032  16.137   3.287
77097W        W44165  23.623  18.748   2.684
77098W        W44166  11.804   5.798  12.859
77099W        W44167   9.790  14.177  14.313
77100W        W44168  43.938  36.844  14.455
77101W        W44169  33.490  39.458  10.949
77102W        W44170  11.866  26.458  13.449
77103W        W44171  22.598  27.602  14.850
77104W        W44172  18.173  44.481  12.484
77105W        W44173   1.928   2.262   3.251
77106W        W44174  35.005  25.567  10.575
77107W        W44175  11.623  38.921   2.415
77108W        W44176  15.639  34.055   0.351
77109W        W44177  28.581   0.902  10.637
77110W        W44178  16.650  32.577  13.044
77111W        W44179  24.202  12.231  14.339
77112W        W44180  44.465  14.130  14.512
77113W        W44181  16.155   0.354  12.402
77114W        W44182  43.303   0.986   3.290
77115W        W44183  12.177   4.245  12.032
77116W        W44184  15.660   7.895   5.646
77117W        W44185  39.501  10.182   0.274
77118W        W44186  44.312  26.027  12.507
77119W        W44187  39.537  38.025  10.407
77120W        W44188  22.998   2.416  11.899
77121W        W44189  37.442  14.309   3.164
77122W        W44190  24.032  36.012   4.287
77123W        W44191  25.204   9.376   0.809
77124W        W44192  31.018  40.958   0.325
77125W        W44193   2.842  18.215  14.947
77126W        W44194   3.444   0.913   0.737
77127W        W44195   4.244   9.223  11.592
77128W        W44196  19.262  42.906   1.830
77129W        W44197  16.735  28.561   9.650
77130W        W44198  42.489  30.118   1.364
77131W        W44199   5.390  44.911  12.360
77132W        W44200   2.404  30.542  14.777
77133W        W44201  18.126  34.868   3.787
77134W        W44202   6.717  40.854  12.943
77135W        W44203   2.436  36.531   0.431
77136W        W44204  30.079   5.739   1.412
77137W        W44205  31.516  24.696  14.900
77138W        W44206  24.554   3.730  10.448
77139W        W44207  30.055  33.944  12.492
77140W        W44208  28.150  24.713  14.837
77141W        W44209   6.830  11.757   0.874
77142W        W44210  24.535  25.126   4.167
77143W        W44211  17.165  28.051  14.820
77144W        W44212  17.065   3.298   1.917
77145W        W44213  19.234  40.482  12.357
77146W        W44214  37.044   4.799   0.937
77147W        W44215  43.871   7.223  13.331
77148W        W44216  10.328  26.529  12.912
77149W        W44217  36.382  14.761  12.936
77150W        W44218  14.219  15.656  10.620
77151W        W44219  22.211   3.821  11.474
77152W        W44220  26.521  33.423  12.873
77153W        W44221  42.804   5.858   2.861
77154W        W44222  23.053   7.266  12.063
77155W        W44223  37.863  24.493   2.316
77156W        W44224   1.285  37.366  10.624
77157W        W44225  20.614   0.315  12.430
77158W        W44226  16.626   2.829   4.795
77159W        W44227   4.887  43.375  11.378
77160W        W44228  34.533  42.457   3.244
77161W        W44229  13.188   7.274  14.515
77162W        W44230   7.227  35.595  12.386
77163W        W44231   5.733  38.376   4.757
77164W        W44232  14.334  34.063   0.761
77165W        W44233   7.271  42.018   0.369
77166W        W44234  15.329  20.231  12.431
77167W        W44235   3.228   3.414  13.979
77168W        W44236   6.831  40.322   0.796
77169W        W44237   0.477   5.882   1.263
77170W        W44238  13.840  19.726   2.871
77171W        W44239  38.980  14.146   3.852
77172W        W44240  31.536  27.077   2.301
77173W        W44241  34.409  20.083  12.497
77174W        W44242   4.443  25.486   0.889
77175W        W44243  41.319   4.263  10.982
77176W        W44244   6.685  36.409  14.481
77177W        W44245  39.877  28.613   1.416
77178W        W44246  30.020  12.735  13.002
77179W        W44247  31.610   6.267  12.344
77180W        W44248  44.865   2.842   2.344
77181W        W44249  31.527  30.650  10.567
77182W        W44250  26.014   9.385   0.731
77183W        W44251  38.024   1.455   4.143
77184W        W44252  28.182   9.785   1.444
77185W        W44253  25.213  17.071   3.861
77186W        W44254  25.605  12.260  10.501
77187W        W44255  19.764  39.021   4.257
77188W        W44256   4.429  39.895   1.400
77189W        W44257  10.152  17.168  12.537
77190W        W44258  18.693   0.352  14.984
77191W        W44259   2.366   4.370   4.656
77192W        W44260  23.039  41.444   0.760
77193W        W44261   2.233  23.625   0.791
77194W        W44262   7.348  15.726  13.412
77195W        W44263  22.145  37.076  10.929
77196W        W44264  24.635  14.287  13.452
77197W        W44265  34.599  30.030  14.281
77198W        W44266  24.547   4.241  12.996
77199W        W44267  41.449  24.481  12.903
77200W        W44268  44.454   0.331  14.921
77201W        W44269  35.488   6.857  10.435
77202W        W44270  42.403   4.862   2.782
77203W        W44271  30.652  28.043   5.216
77204W        W44272  16.674  37.868  12.097
77205W        W44273  27.110  27.964   3.255
77206W        W44274   6.424  33.070  13.317
77207W        W44275  37.403  15.635   3.687
77208W        W44276  31.914  26.459  10.955
77209W        W44277  34.410  21.095  10.945
77210W        W44278  39.940  23.564  13.353
77211W        W44279  25.513  12.277  12.000
77212W        W44280  42.476  26.597  11.100
77213W        W44281  28.180  14.646   0.869
77214W        W44282  29.009  38.843  13.325
77215W        W44283  24.063   8.806  10.982
77216W        W44284   0.854  14.700  13.942
77217W        W44285  39.019  23.137  12.399
77218W        W44286   1.778  43.888  11.447
77219W        W44287   9.725  31.622  13.874
77220W        W44288   0.974  25.697  13.327
77221W        W44289  23.664  22.246  12.527
77222W        W44290  30.063  43.819   3.825
77223W        W44291  14.211  28.150   2.727
77224W        W44292  34.109  42.391   0.462
77225W        W44293  28.935  23.581  11.126
77226W        W44294  38.930  40.895   2.896
77227W        W44295   0.457  20.033   1.210
77228W        W44296  34.976  23.596   0.889
77229W        W44297  39.532   5.259   4.121
77230W        W44298  34.002   7.702   1.921
77231W        W44299  39.486  18.650  11.042
77232W        W44300  31.149  32.414   0.382
77233W        W44301  34.504  39.879   3.157
77234W        W44302  31.908  25.696   2.768
77235W        W44303  17.613  36.423  11.979
77236W        W44304  26.503   9.336   0.924
77237W        W44305  26.078  31.023  13.421
77238W        W44306  30.151  36.963   2.218
77239W        W44307  43.889  14.669  12.864
77240W        W44308   5.319  39.851   3.148
77241W        W44309  32.528  33.603   4.601
77242W        W44310  18.554  34.052  10.952
77243W        W44311  13.770  39.001   0.966
77244W        W44312  38.451  39.465  12.976
77245W        W44313  42.358  25.167   4.148
77246W        W44314  17.736  24.227  12.916
77247W        W44315  43.466   7.898   4.251
77248W        W44316  29.518  44.505   2.783
77249W        W44317  34.380  36.442   0.795
77250W        W44318   9.773  37.550  14.361
77251W        W44319   1.870  20.225   0.392
77252W        W44320  32.987   3.905  11.040
77253W        W44321  14.266  20.650  14.501
77254W        W44322  24.717   4.784  13.820
77255W        W44323   5.897  32.906  14.026
77256W        W44324  31.525  24.489   2.709
77257W        W44325  34.090  25.514   1.229
77258W        W44326  12.179  34.091   2.240
77259W        W44327  18.759  14.295   0.737
77260W        W44328  41.940   1.307  11.920
77261W        W44329  27.536  13.608  10.931
77262W        W44330  28.031   5.711   3.373
77263W        W44331  44.341  28.131   1.351
77264W        W44332   3.288   6.319   0.284
77265W        W44333  21.725  28.930   4.712
77266W        W44334  14.264  28.579   1.774
77267W        W44335  25.202  28.491  13.796
77268W        W44336  25.549  41.863  11.384
77269W        W44337  38.988  28.640   4.284
77270W        W44338   2.242   6.291   3.309
77271W        W44339   5.430   8.877  11.021
77272W        W44340  32.988   7.221   4.243
77273W        W44341  42.490  23.016  11.029
77274W        W44342  22.591  15.734   4.798
77275W        W44343  35.880  15.648   3.691
77276W        W44344   8.722  22.251  14.427
77277W        W44345  43.869  28.533  10.594
77278W        W44346  10.216  26.129   0.791
77279W        W44347   1.438   5.784  12.970
77280W        W44348  28.560  20.541   0.277
77281W        W44349  24.072  22.658  12.978
77282W        W44350   7.851  43.795   3.334
77283W        W44351  35.888  30.462  13.909
77284W        W44352  32.626  23.526  14.503
77285W        W44353   6.861  13.739   3.711
77286W        W44354  19.119  29.586  11.113
77287W        W44355  38.846   1.434   1.788
77288W        W44356   6.228   7.400  14.782
77289W        W44357   1.242  35.873   3.784
77290W        W44358  42.026  17.189  11.938
77291W        W44359   1.377  35.487   0.406
77292W        W44360  40.353   2.252  14.905
77293W        W44361  35.959  27.625   3.288
77294W        W44362  40.047  27.973   0.938
77295W        W44363   1.935  35.030   2.301
77296W        W44364   9.785  12.293   4.831
77297W        W44365  18.790  22.242   1.406
77298W        W44366  17.724  33.460  12.515
77299W        W44367  44.495  27.602  13.945
77300W        W44368  26.533   4.254  13.315
77301W        W44369  23.666  34.393  13.899
77302W        W44370  38.040  20.563   1.331
77303W        W44371   3.783  14.603  10.942
77304W        W44372   4.942   9.344   2.401
77305W        W44373   5.827  43.778   2.689
77306W        W44374  35.050  33.049  11.392
77307W        W44375  23.541   2.373  14.366
77308W        W44376   6.903   1.903  10.985
77309W        W44377  13.679  23.690   4.772
77310W        W44378  21.543  27.942  13.003
77311W        W44379  18.283  35.451   3.287
77312W        W44380  17.717  11.656  12.056
77313W        W44381  13.661  29.646  11.588
77314W        W44382  33.030  25.615  11.545
77315W        W44383   9.304  28.642   0.737
77316W        W44384   0.868  13.636   3.799
77317W        W44385   8.826  34.399  10.031
77318W        W44386   2.342  30.061   2.883
77319W        W44387  17.208  22.604  13.417
77320W        W44388   0.766  27.089  11.488
77321W        W44389   5.271  15.758  13.347
77322W        W44390   8.307  43.441   4.219
77323W        W44391   5.841  37.946   3.821
77324W        W44392  39.809  25.710  14.302
77325W        W44393   3.713  17.062   2.196
77326W        W44394  38.418  41.431   4.343
77327W        W44395  34.053  30.937  13.027
77328W        W44396   0.838  35.488   5.651
77329W        W44397  11.152   4.388  12.988
77330W        W44398  28.492  42.386   0.761
77331W        W44399   3.928  39.914   3.804
77332W        W44400  29.973  42.897   0.871
77333W        W44401   4.283   3.264   1.700
77334W        W44402  43.376   8.362  10.515
77335W        W44403   5.322  31.573   2.380
77336W        W44404  41.933   3.870   3.716
77337W        W44405  31.128  31.939  10.489
77338W        W44406  44.435  20.050   2.896
77339W        W44407   3.255  14.134   1.759
77340W        W44408  35.507  29.046   2.878
77341W        W44409  25.657  30.990  10.645
77342W        W44410  31.457   7.768  14.285
77343W        W44411   1.904  37.053  11.015
77344W        W44412  25.187  11.761  12.407
77345W        W44413  28.617  18.662   1.838
77346W        W44414  36.004  13.753  11.485
77347W        W44415   8.808  14.150  11.984
77348W        W44416   9.685  20.681  11.486
77349W        W44417  35.038  15.202   0.926
77350W        W44418  12.816   0.966   1.733
77351W        W44419  14.633  31.947  14.848
77352W        W44420   6.834   3.921  13.799
77353W        W44421  24.508   5.822  12.417
77354W        W44422   4.420  31.129  14.448
77355W        W44423  28.612   2.242  14.342
77356W        W44424  13.273  12.759  13.932
77357W        W44425  25.079  12.136   0.390
77358W        W44426  12.307  39.443  14.326
77359W        W44427  22.710  28.030   0.297
77360W        W44428  32.056  33.414  12.464
77361W        W44429   4.790  38.842   0.912
77362W        W44430   9.231  18.645  13.491
77363W        W44431  34.601  38.539   1.251
77364W        W44432   2.425  17.284   4.268
77365W        W44433   8.856  30.990   4.141
77366W        W44434  24.024  30.088  11.903
77367W        W44435  37.415  23.687  11.561
77368W        W44436  40.841  21.551   0.400
77369W        W44437   2.896  26.053  11.424
77370W        W44438  36.045  35.095   3.217
77371W        W44439   8.306  25.511   0.737
77372W        W44440  36.524   4.933   4.826
77373W        W44441   0.913   1.924  11.400
77374W        W44442  43.910  36.475   2.888
77375W        W44443  32.034   3.391  12.866
77376W        W44444  20.156  26.067  11.464
77377W        W44445   3.448  36.470   1.901
77378W        W44446   4.290  32.088  12.085
77379W        W44447  40.015  25.166   1.839
77380W        W44448  42.000  39.370   0.320
77381W        W44449  30.951  19.714   0.305
77382W        W44450  28.961  29.947   4.626
77383W        W44451  33.971  23.235  12.964
77384W        W44452   7.678  10.325   0.256
77385W        W44453  15.712  26.041  10.599
77386W        W44454  15.821   2.306  12.846
77387W        W44455  39.838  36.537   1.429
77388W        W44456  21.603  17.133  13.942
77389W        W44457  44.997   2.460  14.001
77390W        W44458  33.035  28.584  14.785
77391W        W44459  44.275   8.711   4.680
77392W        W44460  44.335  31.428   3.695
77393W        W44461   0.811   2.757  12.972
77394W        W44462  21.035   4.406  11.421
77395W        W44463  21.591  21.160   1.901
77396W        W44464   3.447  14.827   2.830
77397W        W44465   4.390  23.213  13.495
77398W        W44466  26.044   4.266  13.478
77399W        W44467  43.780  22.582   4.239
77400W        W44468  34.489  12.132   2.309
77401W        W44469  20.040  35.453   2.391
77402W        W44470  19.132  11.738   4.678
77403W        W44471  44.462   7.880  11.557
77404W        W44472  23.042   2.380   0.765
77405W        W44473  28.435   1.449   3.846
77406W        W44474  22.530  29.118   0.351
77407W        W44475   7.731  22.142  11.604
77408W        W44476  31.964  31.986   2.346
77409W        W44477  30.438  19.144  11.084
77410W        W44478  44.474  34.964  11.859
77411W        W44479  16.313  27.511  13.837
77412W        W44480  32.926  31.926   2.187
77413W        W44481   8.832   1.859  10.456
77414W        W44482  24.523  13.108  13.925
77415W        W44483  18.563  29.658   0.823
77416W        W44484  28.621  14.821  12.940
77417W        W44485  22.520  17.290   2.684
77418W        W44486   5.878  43.443   4.258
77419W        W44487  16.120   3.367   3.283
77420W        W44488   7.863  36.987  12.527
77421W        W44489   6.423  29.666  13.400
77422W        W44490   5.826  22.733  10.904
77423W        W44491  30.127  15.189  12.530
77424W        W44492  28.661  17.693   4.221
77425W        W44493  25.175  31.412   1.821
77426W        W44494   3.295  27.613   2.237
77427W        W44495   8.807   5.299   3.267
77428W        W44496  33.039  29.986   0.818
77429W        W44497  13.274   4.212  10.494
77430W        W44498  12.160  25.075  13.879
77431W        W44499   4.381  43.852   2.360
77432W        W44500  26.957  35.466   3.630
77433W        W44501  43.897  19.780  13.498
77434W        W44502  28.462  12.670   3.324
77435W        W44503  22.174  37.544   5.094
77436W        W44504   6.879   7.197  13.431
77437W        W44505  20.716  10.718  10.560
77438W        W44506  22.195  37.529   1.895
77439W        W44507  15.092  40.486   2.307
77440W        W44508  36.500   9.363  11.948
77441W        W44509  27.535  30.559  13.840
77442W        W44510  19.071  20.195  13.329
77443W        W44511  13.674  16.611  14.473
77444W        W44512  38.459  25.554   1.763
77445W        W44513  14.629  33.106  12.039
77446W        W44514  30.005   6.823   2.220
77447W        W44515  35.905  23.037   1.732
77448W        W44516  11.666  15.264   0.279
77449W        W44517  15.672  28.174   0.845
77450W        W44518  21.633  31.010   2.721
77451W        W44519  35.385  31.061   1.434
77452W        W44520  20.221   6.298   0.961
77453W        W44521  15.622  18.618  12.576
77454W        W44522  17.620  32.944   3.795
77455W        W44523   7.842  24.039   4.150
77456W        W44524   4.766  40.378  12.398
77457W        W44525  31.448  18.762  12.057
77458W        W44526   0.960  27.446   0.318
77459W        W44527   7.755  24.707   2.248
77460W        W44528  39.047  22.529  10.942
77461W        W44529   5.436   5.814  14.811
77462W        W44530  44.304  38.023   0.746
77463W        W44531   6.917   2.944  13.377
77464W        W44532   3.861  13.291  11.112
77465W        W44533  31.107   0.399  10.429
77466W        W44534  19.121  34.568   2.205
77467W        W44535   0.315  11.135   0.288
77468W        W44536  13.725   7.673   4.268
77469W        W44537  24.670   0.779  11.099
77470W        W44538   4.852  24.975   3.162
77471W        W44539   7.242  16.172  11.059
77472W        W44540  37.473  24.974  11.877
77473W        W44541   3.360  38.396  14.022
77474W        W44542  40.957  31.995  14.988
77475W        W44543  18.205  33.570   1.229
77476W        W44544  44.455  42.344  12.829
77477W        W44545  26.000   9.718   3.236
77478W        W44546   1.784  43.017  14.901
77479W        W44547  18.622  31.580  10.061
77480W        W44548   9.345  27.000  12.437
77481W        W44549  35.884   1.863  14.980
77482W        W44550   6.302  42.903   4.156
77483W        W44551  26.100   5.859  11.031
77484W        W44552   7.218  17.253  11.490
77485W        W44553   6.296  37.061   1.268
77486W        W44554  33.099  21.604   4.704
77487W        W44555  24.616  28.056   4.162
77488W        W44556  12.734  40.491   4.292
77489W        W44557  41.344  16.120   2.237
77490W        W44558  38.352  43.286  13.471
77491W        W44559  23.691   4.789   1.291
77492W        W44560  32.081   8.353  11.523
77493W        W44561  40.347   1.736  13.989
77494W        W44562  26.101  19.537   3.642
77495W        W44563  16.176  14.740   3.196
77496W        W44564  26.165  44.901  12.971
77497W        W44565  18.670  16.719   2.723
77498W        W44566  32.618  37.913   3.791
77499W        W44567  17.747  43.370  12.857
77500W        W44568  20.141   1.442  12.831
77501W        W44569  18.731  25.486   3.829
77502W        W44570  19.246  31.959   3.292
77503W        W44571  35.360   9.683   4.326
77504W        W44572  13.226  42.489   3.330
77505W        W44573  16.142  31.567   4.136
77506W        W44574  40.823  43.503   3.805
77507W        W44575  33.933  41.349  14.452
77508W        W44576   2.308  14.189  13.960
77509W        W44577  38.509  16.575   0.756
77510W        W44578  38.523  40.466  11.603
77511W        W44579  23.173  17.203  11.560
77512W        W44580  31.580   4.835   3.670
77513W        W44581  44.451  34.445  14.939
77514W        W44582  44.799  32.445  13.350
77515W        W44583   3.334  16.170  14.491
77516W        W44584  10.345  41.964  12.823
77517W        W44585  19.538   7.198   0.348
77518W        W44586  33.044  15.705  12.895
77519W        W44587   2.264   9.231  13.924
77520W        W44588  13.333  27.611   3.185
77521W        W44589  41.409  42.488   1.878
77522W        W44590  43.884  13.838  13.961
77523W        W44591  44.767  21.263   4.675
77524W        W44592  12.327  26.486  12.382
77525W        W44593  30.570   8.793  10.971
77526W        W44594   3.784  14.757   4.157
77527W        W44595   7.244  28.163   2.227
77528W        W44596  37.561   5.878  10.994
77529W        W44597  24.205  17.615  12.984
77530W        W44598  11.196  27.999  11.588
77531W        W44599  39.411  30.005  11.526
77532W        W44600   4.716  30.076  14.840
77533W        W44601  39.519  18.687   3.198
77534W        W44602  27.618   3.925   3.705
77535W        W44603  13.270  21.233  10.114
77536W        W44604  31.047  16.132   2.813
77537W        W44605  41.808  31.498   2.233
77538W        W44606  24.700  39.369   3.714
77539W        W44607   4.221  12.277  11.107
77540W        W44608  44.800  29.647  13.514
77541W        W44609   9.688  10.184   3.267
77542W        W44610   3.930  13.767  10.592
77543W        W44611  36.381   7.712   4.745
77544W        W44612  36.544  34.088  11.372
77545W        W44613  12.764  28.955  12.465
77546W        W44614   0.937  22.556   3.677
77547W        W44615   9.885  20.656   3.849
77548W        W44616  24.995  39.929  14.374
77549W        W44617   9.775  25.011  14.879
77550W        W44618  30.502  40.502   4.332
77551W        W44619  35.461  11.193  10.587
77552W        W44620   9.395  31.519  13.025
77553W        W44621   7.774  17.760  13.504
77554W        W44622  24.573  33.073  10.420
77555W        W44623   5.763  42.468  10.479
77556W        W44624  44.408   6.244  14.393
77557W        W44625  12.622  35.949  12.373
77558W        W44626  18.666  27.571  12.062
77559W        W44627  22.641  22.655   2.705
77560W        W44628   0.986  44.392  13.888
77561W        W44629  17.792  11.287   2.853
77562W        W44630  17.599   1.257   3.338
77563W        W44631  41.499   4.406  12.379
77564W        W44632  36.995  22.530   1.853
77565W        W44633  25.053   9.265   1.701
77566W        W44634  26.204  36.465  14.806
77567W        W44635  39.936  35.007  11.573
77568W        W44636  36.996  26.675  13.027
77569W        W44637   5.311  29.959   1.823
77570W        W44638  42.022   2.744  13.879
77571W        W44639   4.420  43.767   3.205
77572W        W44640   9.362  27.150   3.224
77573W        W44641  10.315  34.392  14.392
77574W        W44642   9.810  30.579  13.528
77575W        W44643  10.354  27.496   0.264
77576W        W44644  26.613  41.865  12.415
77577W        W44645  43.447  13.131  12.450
77578W        W44646  31.118  35.365   2.362
77579W        W44647  40.464  36.022   2.317
77580W        W44648  28.077   6.712   2.418
77581W        W44649   2.385  16.811   3.826
77582W        W44650   6.234  21.684  11.895
77583W        W44651  33.062  18.168   1.864
77584W        W44652  29.048   0.912   2.718
77585W        W44653   7.337   8.765  14.958
77586W        W44654  26.991  20.546  11.419
77587W        W44655  33.595  29.029  12.426
77588W        W44656  13.673  16.664   2.289
77589W        W44657  18.638  43.997  14.981
77590W        W44658   5.379  39.557  14.996
77591W        W44659  38.453  10.644   3.314
77592W        W44660   8.336  40.989  12.451
77593W        W44661  40.811  33.444  11.888
77594W        W44662   1.343  40.834   1.708
77595W        W44663  33.590  17.561  14.013
77596W        W44664   1.472  20.663  12.930
77597W        W44665  37.399   5.705  14.409
77598W        W44666  24.645   0.913  12.851
77599W        W44667  18.559  14.611  12.383
77600W        W44668  43.973   3.269   1.426
77601W        W44669  42.448  25.017  11.970
77602W        W44670  21.178  29.143  11.899
77603W        W44671  27.690  13.710  13.537
77604W        W44672   9.199  22.066   2.862
77605W        W44673  18.760  35.549   0.920
77606W        W44674  42.318  35.919  11.855
77607W        W44675  39.344  19.688   0.324
77608W        W44676  42.499  11.861   4.756
77609W        W44677  26.678   2.922   3.224
77610W        W44678   2.442   0.854  10.473
77611W        W44679  21.705  26.188   2.754
77612W        W44680  26.492  25.697  11.055
77613W        W44681  21.143  12.177  13.966
77614W        W44682  22.130  43.021  11.981
77615W        W44683  24.186  28.458   2.732
77616W        W44684  10.194   9.278   3.369
77617W        W44685  25.026  31.912  14.759
77618W        W44686  33.041  15.102   1.748
77619W        W44687  39.839  38.938  13.487
77620W        W44688  22.209  21.754  12.044
77621W        W44689  24.601  36.403  12.911
77622W        W44690  23.205  35.383   1.232
77623W        W44691  13.331  14.179  13.813
77624W        W44692  22.113  17.254   0.900
77625W        W44693  37.473  25.204  13.483
77626W        W44694   3.383  21.555   0.876
77627W        W44695  23.016  35.508   2.281
77628W        W44696  32.926  27.077   3.767
77629W        W44697  43.910  35.994  10.517
77630W        W44698  30.133   3.401   4.631
77631W        W44699   0.827  10.790  10.614
77632W        W44700  19.225  18.229  11.483
77633W        W44701  23.679   1.462  12.936
77634W        W44702  40.308   2.740  13.909
77635W        W44703  16.077  12.333  10.967
77636W        W44704  16.142  16.768   2.753
77637W        W44705  28.070  13.328  13.473
77638W        W44706  19.598   1.376  14.320
77639W        W44707  30.948   9.262  12.572
77640W        W44708  41.018  20.752   4.148
77641W        W44709  35.074  37.039  12.879
77642W        W44710  22.189  40.987   1.854
77643W        W44711  19.737  12.150   3.773
77644W        W44712   2.834  22.653   0.775
77645W        W44713  18.639  35.951  13.482
77646W        W44714  24.625  37.053  11.527
77647W        W44715  43.469  31.995   1.365
77648W        W44716  29.538  44.851   3.755
77649W        W44717  10.730   2.400  11.433
77650W        W44718  32.541  10.290  12.831
77651W        W44719   0.308  40.870   3.258
77652W        W44720   8.869  29.562   1.251
77653W        W44721  29.020  17.572  13.353
77654W        W44722   5.838  15.647   4.790
77655W        W44723  32.972  17.718   2.311
77656W        W44724  18.665  42.003   1.935
77657W        W44725  11.732  24.129  14.785
77658W        W44726  33.468  19.074  12.359
77659W        W44727  23.041  10.830  13.330
77660W        W44728  30.013   0.335   1.852
77661W        W44729  36.521  24.221  11.549
77662W        W44730  37.371  35.874  13.023
77663W        W44731  12.757  16.641   4.689
77664W        W44732   4.931  17.252  11.066
77665W        W44733  27.483  17.289  11.036
77666W        W44734  29.073   9.239   2.668
77667W        W44735  31.936   5.695  10.893
77668W        W44736  30.016  31.554  14.913
77669W        W44737   6.364  12.738   0.364
77670W        W44738  32.451  21.258   4.154
77671W        W44739  19.536  23.063  10.928
77672W        W44740   7.232  16.103  14.363
77673W        W44741  38.453   9.284  14.900
77674W        W44742  25.629  33.941  14.877
77675W        W44743  38.966  11.297  11.907
77676W        W44744   6.857  26.161  11.895
77677W        W44745   3.927  22.105   3.332
77678W        W44746  29.062  32.440  11.940
77679W        W44747  12.273  38.375   1.234
77680W        W44748  30.644   0.294  11.570
77681W        W44749  36.944   2.907   3.287
77682W        W44750  36.025  14.294   4.135
77683W        W44751  21.181  28.048   3.747
77684W        W44752   1.789  20.547  11.387
77685W        W44753  14.316  44.815   0.457
77686W        W44754  16.199   3.326  10.436
77687W        W44755  14.778  11.355   1.320
77688W        W44756  24.597   6.224   3.635
77689W        W44757   1.938  42.479  11.946
77690W        W44758   4.791  39.039  12.863
77691W        W44759  14.685  44.410   1.301
77692W        W44760  41.519   4.286   3.684
77693W        W44761  37.063  43.883  11.592
77694W        W44762  37.887  10.156  10.455
77695W        W44763  23.728   8.400  12.339
77696W        W44764  18.231  27.586  10.159
77697W        W44765  17.159  43.988   1.924
77698W        W44766  32.082  20.536   4.651
77699W        W44767  20.215  24.126  14.432
77700W        W44768  28.621   8.789  12.857
77701W        W44769   2.799   0.320   0.750
77702W        W44770  44.414  40.499   5.237
77703W        W44771  37.562  25.508  11.562
77704W        W44772  15.115  36.457  12.510
77705W        W44773  12.320  15.304   0.380
77706W        W44774  26.082  34.068   1.351
77707W        W44775  24.536  42.319   0.246
77708W        W44776  43.499  11.368  13.413
77709W        W44777  38.961  41.789  11.486
77710W        W44778  16.195  28.165  14.344
77711W        W44779  40.969  16.594   1.249
77712W        W44780   4.321  38.439   0.374
77713W        W44781   3.860  13.316   1.328
77714W        W44782  13.714   5.247  12.050
77715W        W44783  30.123  40.982  13.507
77716W        W44784  27.460  23.215   4.283
77717W        W44785  17.786  20.254  13.313
77718W        W44786  24.004  14.236  12.905
77719W        W44787  26.493  26.198   2.190
77720W        W44788  43.429  32.141  12.358
77721W        W44789  16.308  23.190  13.052
77722W        W44790  18.278  14.819  13.870
77723W        W44791  16.250   9.700  13.477
77724W        W44792   6.331  25.640   3.658
77725W        W44793  22.533   0.829  10.417
77726W        W44794  31.046  31.454   3.276
77727W        W44795   6.346  15.789  11.036
77728W        W44796  21.610   7.864  11.956
77729W        W44797  17.666   0.316  13.471
77730W        W44798  18.661  35.962   2.753
77731W        W44799  16.706  43.340  13.862
77732W        W44800  26.069   8.391   4.691
77733W        W44801  35.581  18.187   4.178
77734W        W44802  39.891  15.810  13.930
77735W        W44803  31.505   9.801   4.623
77736W        W44804   6.845  12.340   2.272
77737W        W44805  27.953   6.361   4.610
77738W        W44806   8.818  29.130   0.294
77739W        W44807   7.842  19.628  13.847
77740W        W44808   9.235   8.894   2.794
77741W        W44809  44.753   3.832  11.890
77742W        W44810   9.176  23.078   2.793
77743W        W44811  27.516  18.571  11.078
77744W        W44812  14.684  32.941  14.940
77745W        W44813  42.969  19.778  14.858
77746W        W44814  12.767  33.573  14.321
77747W        W44815   1.451  37.833  13.849
77748W        W44816   1.750  28.534   2.258
77749W        W44817  29.566  43.962  14.908
77750W        W44818  27.666   1.955  14.440
77751W        W44819   0.360  35.976  11.608
77752W        W44820  25.558  44.998   3.242
77753W        W44821  22.523   2.923   2.739
77754W        W44822   1.445  34.048  11.115
77755W        W44823  11.820   1.412   4.722
77756W        W44824  33.424  36.376   3.301
77757W        W44825  34.526  31.012   4.205
77758W        W44826  14.614  28.972  11.963
77759W        W44827  18.054  10.683  10.457
77760W        W44828  42.390  14.256   0.937
77761W        W44829  12.853  41.326   0.471
77762W        W44830  10.318  20.607   1.345
77763W        W44831  17.749  16.246  10.426
77764W        W44832  11.188  37.548   3.765
77765W        W44833  10.145  20.689  13.853
77766W        W44834  37.372  37.959   1.772
77767W        W44835   5.438  40.869   2.707
77768W        W44836  34.418  42.019   0.951
77769W        W44837  32.084   2.771  14.310
77770W        W44838  43.917  42.890  10.988
77771W        W44839  34.492  40.933   2.305
77772W        W44840  41.304  17.245  14.324
77773W        W44841   5.304  13.349  14.405
77774W        W44842   3.786  44.877   1.888
77775W        W44843  29.022  23.171  12.405
77776W        W44844  20.110  39.472  14.020
77777W        W44845  33.010   5.746  12.889
77778W        W44846  21.644  19.731  14.394
77779W        W44847  31.443  43.848  12.089
77780W        W44848   2.358  29.982   1.415
77781W        W44849   4.839  42.012  14.988
77782W        W44850  12.227  19.123  13.390
77783W        W44851   5.325  37.468   1.745
77784W        W44852  41.972   5.821   0.407
77785W        W44853  35.492  15.188  11.102
77786W        W44854  38.914   2.747   2.743
77787W        W44855  44.807   3.748  13.982
77788W        W44856  44.284  42.875  11.128
77789W        W44857  17.081  34.926   2.222
77790W        W44858  20.217   1.775  11.926
77791W        W44859  16.776   7.840   1.338
77792W        W44860  33.011  44.840  12.508
77793W        W44861  38.830   7.202  14.961
77794W        W44862  17.608   8.734   1.923
77795W        W44863  19.151   0.938   2.820
77796W        W44864  17.661   4.704   2.863
77797W        W44865  30.649  15.283   5.722
77798W        W44866  44.950  31.631  11.446
77799W        W44867   5.193  31.045  11.485
77800W        W44868   2.758  41.022   3.803
77801W        W44869   9.315  33.944  14.350
77802W        W44870  25.686  43.993   0.330
77803W        W44871   7.408  15.223   1.385
77804W        W44872  33.580  14.191   4.117
77805W        W44873  13.225   2.344   5.280
77806W        W44874   0.370  41.818   1.246
77807W        W44875  33.564   1.789   1.368
77808W        W44876  34.409  35.871  13.056
77809W        W44877  10.789   1.285  10.104
77810W        W44878  17.078  39.051   4.181
77811W        W44879  30.921  18.696   1.407
77812W        W44880  18.549  35.443  13.524
77813W        W44881  12.171  42.894   1.776
77814W        W44882  11.348   4.395   3.371
77815W        W44883  25.202   5.849   2.403
77816W        W44884   7.811  35.967   3.792
77817W        W44885  13.289   2.322   0.890
77818W        W44886  17.302  21.188  12.475
77819W        W44887  27.461  36.011   3.630
77820W        W44888  24.132  21.661   4.201
77821W        W44889  17.193  14.657  14.460
77822W        W44890  34.443  32.618   2.281
77823W        W44891  19.773   0.752  11.089
77824W        W44892  43.354  38.419   2.265
77825W        W44893  16.699  31.012  12.490
77826W        W44894   1.259  44.889  14.443
77827W        W44895  27.640  30.430  11.928
77828W        W44896   9.658  37.939   1.213
77829W        W44897   1.432  31.521   3.327
77830W        W44898  11.774   6.899  12.447
77831W        W44899  28.070  23.037  14.767
77832W        W44900  16.304  34.583  14.937
77833W        W44901  27.547  31.069   0.871
77834W        W44902  32.438  34.447  12.857
77835W        W44903  35.483  33.030   3.672
77836W        W44904  33.399  40.041  14.414
77837W        W44905  37.974  10.857   3.264
77838W        W44906  33.068  24.163  10.483
77839W        W44907  34.582  33.054   1.714
77840W        W44908  16.745  25.627  12.836
77841W        W44909  11.658   6.888  11.870
77842W        W44910  13.782  33.505   4.830
77843W        W44911  42.504   0.958   1.802
77844W        W44912   5.197   0.969  14.321
77845W        W44913  27.591  15.709   0.825
77846W        W44914  41.300  18.276   2.348
77847W        W44915   7.847  36.405   3.829
77848W        W44916  38.326  24.716  12.346
77849W        W44917  24.607  33.064   3.333
77850W        W44918  31.920  10.819  11.066
77851W        W44919   2.805   6.765  11.502
77852W        W44920  31.526  20.539   1.282
77853W        W44921  44.504   0.775  11.438
77854W        W44922   1.733   9.243   1.324
77855W        W44923  29.014  16.714  13.883
77856W        W44924  17.191  27.627   2.365
77857W        W44925   0.299  28.955   4.184
77858W        W44926  10.364  26.680   3.304
77859W        W44927  38.457  36.029  14.348
77860W        W44928  11.829   6.222  13.481
77861W        W44929  12.163  43.790   1.448
77862W        W44930  21.730  22.252   3.263
77863W        W44931  35.994   5.892  13.388
77864W        W44932  11.170  29.440   2.407
77865W        W44933  41.425   3.740  13.061
77866W        W44934  33.459   0.413  14.843
77867W        W44935   4.906  26.637   3.262
77868W        W44936   7.234  27.052  14.401
77869W        W44937  21.606  33.511  12.961
77870W        W44938  29.442  23.637  11.496
77871W        W44939  31.091  10.333   3.312
77872W        W44940   1.761   2.279  12.460
77873W        W44941  13.114  11.626   3.779
77874W        W44942   8.667  28.988   1.210
77875W        W44943  25.621   6.860   4.810
77876W        W44944  38.932   0.429   1.302
77877W        W44945  34.114   5.370  12.868
77878W        W44946  33.058  16.288  12.532
77879W        W44947  27.659  44.860  10.600
77880W        W44948   1.977  42.026  11.609
77881W        W44949   3.825  40.806   3.787
77882W        W44950  18.595  19.760   5.158
77883W        W44951  10.344   2.814  10.927
77884W        W44952   0.344   4.360  12.850
77885W        W44953  13.126  31.583   3.325
77886W        W44954  24.707  44.849  14.877
77887W        W44955  28.479  43.354  11.913
77888W        W44956  35.968  18.644  11.858
77889W        W44957  26.504  18.713   0.813
77890W        W44958  29.088  29.152   4.835
77891W        W44959  23.992  12.313  12.515
77892W        W44960   1.276  37.013   3.713
77893W        W44961  33.427  15.810   5.267
77894W        W44962   5.418  29.997  10.498
77895W        W44963  19.535  43.469   4.341
77896W        W44964   4.421  37.432  12.495
77897W        W44965  10.704  39.354  13.914
77898W        W44966  32.557  20.600   3.253
77899W        W44967  20.039   4.748  12.420
77900W        W44968  30.133  16.287   1.387
77901W        W44969  24.695  20.749  11.930
77902W        W44970  24.478   0.310   1.828
77903W        W44971   7.785  39.898  10.584
77904W        W44972  36.397   2.835   1.859
77905W        W44973  28.556  12.822  11.553
77906W        W44974  37.939  27.999  14.441
77907W        W44975  20.754  25.162   4.637
77908W        W44976  41.373   5.348   0.813
77909W        W44977  40.493   6.349  12.484
77910W        W44978  12.224   0.286   0.958
77911W        W44979  35.908   1.949   3.660
77912W        W44980  18.170  40.395   2.307
77913W        W44981  30.444  19.578   4.830
77914W        W44982  29.982   0.404  13.486
77915W        W44983   5.716  39.358   3.767
77916W        W44984  12.837  27.993  12.430
77917W        W44985  39.537  14.160  14.894
77918W        W44986  37.539  33.550   3.175
77919W        W44987  28.023  14.179   3.246
77920W        W44988  16.809  13.315  13.422
77921W        W44989  23.176  37.352  13.338
77922W        W44990  42.858   5.876  10.406
77923W        W44991  13.657   9.803  14.907
77924W        W44992  40.848  24.193  12.882
77925W        W44993  15.773  22.092   4.799
77926W        W44994  29.503  37.986   2.858
77927W        W44995  41.878  40.967   0.772
77928W        W44996  15.320  41.391  10.485
77929W        W44997   8.746  21.163  12.380
77930W        W44998   6.423  35.439  14.417
77931W        W44999  40.418  36.522   4.161
77932W        W45000  13.192   2.293   2.292
77933W        W45001  32.133  10.859   1.364
77934W        W45002  22.681  32.460  13.817
77935W        W45003  42.842   5.331  10.589
77936W        W45004  18.051  25.135  13.470
77937W        W45005  19.693   9.289   0.434
77938W        W45006  39.931  26.977   4.686
77939W        W45007  33.434  19.576   3.680
77940W        W45008  11.759  23.030  12.923
77941W        W45009  20.600  38.905  14.405
77942W        W45010   8.360  40.831  11.881
77943W        W45011  22.209   9.650  13.430
77944W        W45012   0.875  35.943   4.282
77945W        W45013  35.462  35.517   0.471
77946W        W45014  27.086  30.060   0.729
77947W        W45015  26.161  17.657   1.821
77948W        W45016  24.557  31.913   0.313
77949W        W45017  33.952  10.267  13.795
77950W        W45018   9.162   3.914  14.400
77951W        W45019  18.051  38.400  11.860
77952W        W45020   8.679  23.217  13.943
77953W        W45021  22.155  41.320   4.669
77954W        W45022  42.807  35.912  11.908
77955W        W45023  18.252  16.735  12.551
77956W        W45024  22.074   8.389  11.910
77957W        W45025  30.131  43.884  12.939
77958W        W45026   6.388  34.005  11.540
77959W        W45027  34.427  28.032   4.619
77960W        W45028  37.438  12.751  14.420
77961W        W45029   9.284  37.574   1.404
77962W        W45030  44.277  25.685   2.276
77963W        W45031  18.776  44.461  12.012
77964W        W45032  31.130  34.925  12.094
77965W        W45033  25.552  15.792  12.067
77966W        W45034  13.750  43.965   3.285
77967W        W45035  20.667  38.976  12.062
77968W        W45036   7.828  14.289  11.387
77969W        W45037  36.504  43.980   0.778
77970W        W45038  13.188   6.342   5.226
77971W        W45039  23.178  36.510   3.231
77972W        W45040  14.144   2.438   0.243
77973W        W45041  17.308  30.079   3.318
77974W        W45042  22.708  10.322   4.293
77975W        W45043   4.234  40.505   2.706
77976W        W45044  34.869   2.824   0.784
77977W        W45045  39.484  27.529   3.244
77978W        W45046  41.521  28.999   4.147
77979W        W45047  38.914  23.221   2.811
77980W        W45048   9.320  28.998  11.112
77981W        W45049  32.557  40.015  13.888
77982W        W45050  42.419   4.434  12.032
77983W        W45051  44.470  41.377   0.356
77984W        W45052  34.947  37.410   0.911
77985W        W45053  12.720   2.299   0.440
77986W        W45054  17.786  29.983   1.398
77987W        W45055  11.214  31.944  12.854
77988W        W45056  17.124  39.030  10.074
77989W        W45057   1.458   8.842  14.331
77990W        W45058  29.011  37.465  13.339
77991W        W45059  19.533  28.518   2.376
77992W        W45060  29.636  13.807   4.294
77993W        W45061   9.870  23.557   4.675
77994W        W45062  24.191   5.927  14.416
77995W        W45063  12.172  43.357   2.788
77996W        W45064  13.648  12.270   2.364
77997W        W45065  12.801  43.382  13.900
77998W        W45066  28.160  27.533  10.991
77999W        W45067  44.469  26.640  10.531
78000W        W45068  20.078  18.170  11.002
78001W        W45069  13.301  22.547  10.141
78002W        W45070   1.317  21.041  14.804
78003W        W45071  41.367   0.768   1.361
78004W        W45072   4.922   1.314  11.446
78005W        W45073  24.090  19.208  14.427
78006W        W45074  32.910  28.961   0.945
78007W        W45075   9.884  14.642   3.725
78008W        W45076   4.734  38.556   1.247
78009W        W45077  32.396  41.864  12.482
78010W        W45078  15.601  38.018  11.598
78011W        W45079   1.420  18.589  11.080
78012W        W45080  38.480  42.874   1.920
78013W        W45081  33.896   7.406  11.994
78014W        W45082  15.769  12.628  14.014
78015W        W45083   9.223  35.594  14.019
78016W        W45084  30.933  11.343   3.819
78017W        W45085  31.989  35.510   4.211
78018W        W45086  10.141  29.501   1.768
78019W        W45087  40.826  43.473   1.385
78020W        W45088  26.560  19.102  14.782
78021W        W45089  42.378  43.809  14.352
78022W        W45090   2.746  34.580  12.838
78023W        W45091  33.107  36.369   1.898
78024W        W45092   7.670   3.395   3.159
78025W        W45093  29.142  29.174   4.336
78026W        W45094  28.956  20.594  11.549
78027W        W45095  39.971  39.373  13.492
78028W        W45096  36.859  20.103   4.644
78029W        W45097   6.232  32.540  12.416
78030W        W45098  32.088  43.985   1.231
78031W        W45099  33.620  37.369   4.660
78032W        W45100  10.822  13.115   4.829
78033W        W45101   2.358   2.918  13.041
78034W        W45102  40.520   0.956  14.289
78035W        W45103  28.106  21.671   2.196
78036W        W45104  33.535   5.363  11.898
78037W        W45105  25.545  34.109  11.039
78038W        W45106  26.978  40.543   4.814
78039W        W45107  39.504  20.240   1.703
78040W        W45108  20.756  18.627   1.702
78041W        W45109  22.742  44.380   1.363
78042W        W45110   5.335  30.939   2.728
78043W        W45111  28.578   2.408  14.864
78044W        W45112  42.298  28.621  13.327
78045W        W45113   4.763  22.228  12.064
78046W        W45114  25.512  21.079  11.980
78047W        W45115   7.808  10.228   0.904
78048W        W45116  42.992  25.995   3.275
78049W        W45117  42.893  32.933  10.068
78050W        W45118  40.006  20.068   3.735
78051W        W45119  44.392   4.208  13.816
78052W        W45120  24.032  42.493   2.368
78053W        W45121  12.728  30.481   2.728
78054W        W45122   5.438  42.961   0.830
78055W        W45123   5.733  14.191   2.338
78056W        W45124  21.103  39.013   9.489
78057W        W45125  31.963  31.434  12.953
78058W        W45126  39.507   4.924  13.045
78059W        W45127  10.138  33.999   3.840
78060W        W45128  42.810  34.519  13.820
78061W        W45129  41.998   2.259   3.386
78062W        W45130  26.017  30.643   3.368
78063W        W45131  11.168  19.256   3.836
78064W        W45132   7.236  21.513  14.863
78065W        W45133  34.937  44.983   4.323
78066W        W45134   9.820  34.577  12.433
78067W        W45135  27.005   6.236   3.793
78068W        W45136  39.937   1.867  14.824
78069W        W45137  20.266  31.571  11.989
78070W        W45138  11.325  25.507  13.545
78071W        W45139  12.727  31.920  10.992
78072W        W45140   2.755  27.607  13.324
78073W        W45141  11.693  14.822  14.336
78074W        W45142  44.914  19.663  11.550
78075W        W45143   3.425  33.060   3.317
78076W        W45144  40.956   2.809   1.274
78077W        W45145   2.445  37.008   1.283
78078W        W45146  25.631  21.022   1.867
78079W        W45147  24.214   5.783  11.533
78080W        W45148  40.002  24.091   1.302
78081W        W45149  22.028  29.473   4.329
78082W        W45150  44.933  23.985  11.000
78083W        W45151  29.656  34.084  11.885
78084W        W45152   3.373  35.864   0.375
78085W        W45153  44.991  34.957   1.289
78086W        W45154   4.914  33.490  11.398
78087W        W45155  35.886  38.054  10.555
78088W        W45156   3.222   2.390   4.245
78089W        W45157  13.169   6.236  10.602
78090W        W45158   9.686  38.391   1.276
78091W        W45159  38.870  38.824   3.147
78092W        W45160  22.632   7.679   3.634
78093W        W45161  17.732   4.866  14.957
78094W        W45162  28.571  39.951   0.388
78095W        W45163  40.401  37.388   0.727
78096W        W45164   8.656   6.911   2.209
78097W        W45165  13.790  44.816   1.355
78098W        W45166   8.384  35.017   2.874
78099W        W45167  19.107  36.382  13.338
78100W        W45168  31.633  33.435   1.407
78101W        W45169  19.040  33.025   3.348
78102W        W45170  11.858  13.119   0.921
78103W        W45171  31.418  43.888   1.437
78104W        W45172  11.666  35.406   1.389
78105W        W45173  14.169  25.697  11.914
78106W        W45174   0.248  32.590   5.202
78107W        W45175  43.361   5.257  12.079
78108W        W45176  21.054  10.304  12.066
78109W        W45177  21.216  21.718   4.746
78110W        W45178  16.661  37.073  13.047
78111W        W45179  42.299  18.775  13.341
78112W        W45180  22.184  40.368   1.422
78113W        W45181  17.118   9.295   1.409
78114W        W45182  33.883  20.628   2.279
78115W        W45183   1.850  23.734   1.451
78116W        W45184  17.241   1.978  12.474
78117W        W45185  37.877  38.955  10.023
78118W        W45186   1.307  43.967  13.830
78119W        W45187  38.382  15.115  11.980
78120W        W45188   5.330   9.670  13.943
78121W        W45189  22.239  18.182  12.875
78122W        W45190  23.693  22.735  14.354
78123W        W45191  38.411  12.247   0.432
78124W        W45192   3.248  17.123   0.296
78125W        W45193   9.690  37.517  13.537
78126W        W45194   5.730   8.762  12.458
78127W        W45195   2.835  30.021  13.368
78128W        W45196  44.827  34.472   0.332
78129W        W45197   3.394  20.084  11.383
78130W        W45198  44.394  37.964   1.408
78131W        W45199  29.078  36.043  10.580
78132W        W45200  35.450  41.862  13.451
78133W        W45201  36.966  12.335   2.833
78134W        W45202   5.916  10.789   2.381
78135W        W45203  27.450  17.584  11.437
78136W        W45204  11.328  36.940  14.027
78137W        W45205  31.403   7.351  13.957
78138W        W45206   7.334  27.673   4.606
78139W        W45207  35.476   8.266  14.027
78140W        W45208  21.547   5.783  10.908
78141W        W45209  31.916   9.210   0.824
78142W        W45210  19.158   4.825   0.771
78143W        W45211  28.115   2.368   4.599
78144W        W45212   1.790   9.716   3.825
78145W        W45213  26.520  34.923  12.984
78146W        W45214  16.244  42.975  10.980
78147W        W45215  28.631  11.247  10.960
78148W        W45216  31.964  16.640  14.385
78149W        W45217  36.973  31.019  14.283
78150W        W45218  18.663  40.808  12.386
78151W        W45219   6.237  21.141  12.852
78152W        W45220   3.847  41.369   2.828
78153W        W45221  14.783   4.367  14.377
78154W        W45222  10.363  17.206  13.848
78155W        W45223   3.275  15.631  11.969
78156W        W45224   5.814   8.245  13.345
78157W        W45225  43.934   8.344  10.628
78158W        W45226  25.161  14.802   1.392
78159W        W45227  31.480  26.666  13.884
78160W        W45228  30.943  42.856  11.035
78161W        W45229  24.523   2.300  12.544
78162W        W45230  15.678   4.892   0.907
78163W        W45231  41.823  20.070   4.210
78164W        W45232  17.247  31.647  12.448
78165W        W45233  35.027  27.168  13.358
78166W        W45234  18.096   7.360   1.407
78167W        W45235  35.387  35.916   0.303
78168W        W45236  31.131  20.563   2.853
78169W        W45237  24.610  21.716   3.214
78170W        W45238   7.721  10.216   2.410
78171W        W45239  25.509  24.018  12.450
78172W        W45240  32.002   8.333  14.458
78173W        W45241  13.827  27.482   3.283
78174W        W45242  34.574  14.786   1.366
78175W        W45243   7.667   2.463   1.699
78176W        W45244   1.746   2.448  13.912
78177W        W45245  42.288  33.109   4.707
78178W        W45246  29.172  37.040  14.774
78179W        W45247  15.092  42.945   0.774
78180W        W45248  23.139  25.207  12.577
78181W        W45249   9.276   2.271  12.368
78182W        W45250  36.515  27.544  10.594
78183W        W45251  21.109  31.622   4.339
78184W        W45252   6.860  13.232  12.051
78185W        W45253  34.057  15.670  11.608
78186W        W45254  13.669  12.207  14.011
78187W        W45255   0.911  27.978  14.288
78188W        W45256  38.896  39.434   2.395
78189W        W45257  26.659  20.545   4.304
78190W        W45258   7.879  31.995  13.857
78191W        W45259  42.372   5.887   1.786
78192W        W45260  25.210  44.823   0.443
78193W        W45261  36.063  38.368   0.354
78194W        W45262  15.816   7.213  14.922
78195W        W45263  10.312  28.467   1.843
78196W        W45264   0.922  28.086  10.898
78197W        W45265  34.468   6.798  14.439
78198W        W45266   9.173  24.563   4.342
78199W        W45267  17.659  10.646   0.481
78200W        W45268  41.432   0.436  10.642
78201W        W45269   4.719  31.616   0.827
78202W        W45270  21.521   4.771   2.400
78203W        W45271  10.274   7.222   5.139
78204W        W45272  26.962  32.021   0.859
78205W        W45273  16.075   7.300   2.741
78206W        W45274  12.682  32.963  14.433
78207W        W45275  27.000  39.055  11.949
78208W        W45276  31.504  10.776  13.836
78209W        W45277   2.952  29.994  14.012
78210W        W45278  20.559  10.265   5.088
78211W        W45279  34.578   2.821   1.729
78212W        W45280  32.987  18.250  13.357
78213W        W45281   6.902  16.648  14.367
78214W        W45282  26.502  32.463  12.446
78215W        W45283  40.815  22.542   2.207
78216W        W45284  31.505  40.307   2.731
78217W        W45285  33.554  12.778  12.989
78218W        W45286  29.524  17.603  13.457
78219W        W45287  16.125  15.110   0.750
78220W        W45288  15.608  36.573  14.467
78221W        W45289  20.227  42.820  12.885
78222W        W45290  41.837  41.002  13.021
78223W        W45291  29.934  10.141   1.318
78224W        W45292  37.488  16.145   0.321
78225W        W45293  30.152  44.333  12.408
78226W        W45294   7.782  26.607  12.465
78227W        W45295  21.593   8.756  14.434
78228W        W45296  16.267  20.713   0.849
78229W        W45297  37.364  17.067   1.300
78230W        W45298  18.216  44.796  13.441
78231W        W45299  11.722  44.426  14.871
78232W        W45300  33.428  39.381  14.467
78233W        W45301  13.641  33.875   2.228
78234W        W45302  14.204  14.794  13.980
78235W        W45303  38.940   8.804  13.868
78236W        W45304  33.438  27.179  11.089
78237W        W45305  14.655   5.830   1.384
78238W        W45306  11.809  43.292  11.556
78239W        W45307  31.483  44.987  11.124
78240W        W45308   6.181  12.638  13.356
78241W        W45309  19.697   1.274   1.916
78242W        W45310  14.328  31.055   4.622
78243W        W45311   4.876  22.518   3.176
78244W        W45312  12.140  19.160   2.219
78245W        W45313  25.642  38.036   0.341
78246W        W45314   9.160  38.008  13.905
78247W        W45315   3.293  19.693   2.662
78248W        W45316   5.284   8.771   1.402
78249W        W45317  32.025  30.934   1.421
78250W        W45318  31.966  30.450   2.856
78251W        W45319   1.919  43.312  11.948
78252W        W45320  16.223   4.797   1.923
78253W        W45321  23.646   5.320  10.623
78254W        W45322  42.442   6.253   0.957
78255W        W45323  38.463  14.209  14.025
78256W        W45324  39.425  19.547   1.755
78257W        W45325  40.488  44.901  12.435
78258W        W45326   2.354  39.038  11.924
78259W        W45327  13.160   9.685  11.871
78260W        W45328  21.051  31.092  14.013
78261W        W45329  13.240  39.955   3.660
78262W        W45330  43.419  10.376   4.612
78263W        W45331   0.404  35.551   0.729
78264W        W45332  11.691  34.099   2.832
78265W        W45333  33.467   9.260  10.047
78266W        W45334  29.942   0.341   3.714
78267W        W45335  43.314  14.691   1.831
78268W        W45336  43.831  30.909   1.701
78269W        W45337  17.640   4.943  10.929
78270W        W45338  40.525  38.927  12.410
78271W        W45339  26.491   8.305   4.144
78272W        W45340  20.199  24.165   4.120
78273W        W45341  43.455  12.356   2.892
78274W        W45342   7.198  27.963  12.519
78275W        W45343  29.556  23.068  11.510
78276W        W45344  40.380  13.163   4.337
78277W        W45345  15.814  16.318   3.153
78278W        W45346   9.854  34.417  10.496
78279W        W45347  28.458  13.193   3.179
78280W        W45348   0.463   5.693   3.725
78281W        W45349  44.785  37.884  10.968
78282W        W45350  30.086  39.506  12.342
78283W        W45351  22.675  15.269  11.604
78284W        W45352  10.722  18.686   1.754
78285W        W45353  23.640  15.145   1.261
78286W        W45354  18.133  26.189  12.378
78287W        W45355  20.750   8.310   3.150
78288W        W45356  44.338  21.717  12.925
78289W        W45357  31.593  29.977  11.504
78290W        W45358  41.529  41.492  10.514
78291W        W45359  29.115  26.208  14.380
78292W        W45360   1.345   7.387  14.857
78293W        W45361  32.486  24.594  11.939
78294W        W45362  30.927  25.220   3.758
78295W        W45363  30.434  38.969   0.258
78296W        W45364   2.281  35.064   0.455
78297W        W45365  12.305   5.193  14.499
78298W        W45366  22.067  29.061   0.896
78299W        W45367  14.209  20.140   1.894
78300W        W45368  26.514  15.619  11.424
78301W        W45369   1.753  30.992  11.866
78302W        W45370   5.729  27.100   4.350
78303W        W45371  16.809  13.734   2.297
78304W        W45372  32.487   0.422   2.345
78305W        W45373   9.748  16.133  13.367
78306W        W45374  22.115  17.102   1.258
78307W        W45375  32.606  33.905  10.581
78308W        W45376   3.908  31.418   1.876
78309W        W45377  13.131  36.886  13.505
78310W        W45378  43.419  14.798  13.956
78311W        W45379   5.783  42.444   2.665
78312W        W45380  22.673  29.572   2.359
78313W        W45381  10.219  40.899   0.839
78314W        W45382  39.504  20.682   4.341
78315W        W45383  27.949  16.275   1.390
78316W        W45384  43.329  40.034  11.592
78317W        W45385  15.772   1.365   4.776
78318W        W45386  19.560  19.283   3.333
78319W        W45387   7.774  12.352   4.779
78320W        W45388  16.134   7.417  14.341
78321W        W45389  39.970   0.967   4.301
78322W        W45390   7.714  30.628   3.197
78323W        W45391  11.260   9.373  12.493
78324W        W45392  26.087  17.151   1.777
78325W        W45393  10.636  26.547  13.990
78326W        W45394  36.909  10.153   4.810
78327W        W45395  13.773  40.430   3.853
78328W        W45396  27.513   9.300   3.344
78329W        W45397   0.460  39.923  13.477
78330W        W45398  43.499   9.208   2.876
78331W        W45399  26.620  19.553  13.548
78332W        W45400  18.668  23.626   0.476
78333W        W45401  43.972   2.343  12.396
78334W        W45402  20.183   4.851   0.743
78335W        W45403  35.515  17.229   4.209
78336W        W45404  13.780   7.760   3.379
78337W        W45405  34.013  12.328   3.272
78338W        W45406   0.801  30.484   2.283
78339W        W45407   1.271  23.049   0.412
78340W        W45408  23.226  38.919   1.747
78341W        W45409   3.360   0.278  12.577
78342W        W45410  17.616   1.832   0.833
78343W        W45411  17.098  42.409   4.687
78344W        W45412   8.294  18.275   1.291
78345W        W45413  36.012  27.675  12.434
78346W        W45414  13.281  27.600   0.291
78347W        W45415  36.402  29.958  13.871
78348W        W45416  30.957  18.093  11.938
78349W        W45417   1.775  41.958  13.358
78350W        W45418  16.703  37.977   2.364
78351W        W45419  19.684  40.985  13.055
78352W        W45420  30.913  20.141   2.699
78353W        W45421  43.412   5.330   1.776
78354W        W45422  35.364   3.761   0.799
78355W        W45423  37.347  41.503   1.738
78356W        W45424  30.951  12.257   3.706
78357W        W45425  15.748  34.377   1.739
78358W        W45426  17.759  38.425   0.309
78359W        W45427   5.430  26.505  11.975
78360W        W45428  25.667  39.474   2.863
78361W        W45429  31.905   9.873   1.857
78362W        W45430  40.866   2.315  12.560
78363W        W45431  19.111   2.930  11.020
78364W        W45432  18.186  28.585  11.987
78365W        W45433  39.911   3.860   1.737
78366W        W45434   4.762  15.735  13.338
78367W        W45435   3.781  12.715  11.607
78368W        W45436  27.619  17.289   4.324
78369W        W45437  10.702   7.698  10.410
78370W        W45438  44.452  16.075  11.989
78371W        W45439  36.507  31.067  12.529
78372W        W45440  41.346  23.226  10.999
78373W        W45441  10.153  29.480  13.375
78374W        W45442  13.759  19.645  12.440
78375W        W45443   0.398   3.340  12.926
78376W        W45444   7.188   8.176  12.937
78377W        W45445  27.511  21.650   1.837
78378W        W45446  34.044  41.518   1.747
78379W        W45447  27.622  33.063   0.788
78380W        W45448  44.504  18.590   3.276
78381W        W45449  37.956   8.891   2.795
78382W        W45450  25.063  30.473   4.253
78383W        W45451  22.591  40.407   1.808
78384W        W45452  26.524  41.378   9.955
78385W        W45453  44.854  13.306   3.710
78386W        W45454  27.611   1.335   2.792
78387W        W45455   7.804  31.569   4.113
78388W        W45456  20.056  15.221   3.198
78389W        W45457   6.221  40.932   4.194
78390W        W45458   6.227  12.726  10.120
78391W        W45459  38.563  29.028  13.055
78392W        W45460  39.018  25.114  13.023
78393W        W45461   2.874  24.664   0.742
78394W        W45462   4.392   0.262   0.311
78395W        W45463  15.322  37.019   4.300
78396W        W45464  10.815  16.097  14.968
78397W        W45465  37.337  41.347   2.415
78398W        W45466   8.323   0.332  12.089
78399W        W45467  44.983  13.260  12.440
78400W        W45468  26.991  19.613  11.012
78401W        W45469  30.084  29.502  11.867
78402W        W45470   1.908   1.882  14.769
78403W        W45471   4.325  24.610  14.771
78404W        W45472  38.957   6.805   0.776
78405W        W45473  17.758  39.376  14.474
78406W        W45474  29.973   5.791  11.950
78407W        W45475  30.488  20.239   1.742
78408W        W45476  32.452  35.914   3.187
78409W        W45477   5.386  29.015   0.897
78410W        W45478  19.099  14.753  12.911
78411W        W45479  19.045  41.970   2.336
78412W        W45480  22.132   4.229  11.572
78413W        W45481  36.028  35.399   0.332
78414W        W45482  42.851  26.969  12.018
78415W        W45483  42.295   7.679  10.510
78416W        W45484   3.778   1.258   3.701
78417W        W45485  12.789  32.404  11.872
78418W        W45486  39.342  17.717  13.859
78419W        W45487  26.060  18.615   1.711
78420W        W45488  32.890   1.932  14.491
78421W        W45489  11.266  31.435  10.642
78422W        W45490  23.685  35.865  13.834
78423W        W45491  20.657  23.197   0.961
78424W        W45492  30.922  38.000   3.255
78425W        W45493  16.088  20.183  14.984
78426W        W45494  35.582  19.764   0.808
78427W        W45495  18.643  33.454   1.856
78428W        W45496  25.596   7.893  11.481
78429W        W45497  29.964  17.278  14.340
78430W        W45498  12.266  38.358  12.368
78431W        W45499   5.234  19.631  13.831
78432W        W45500  11.181   0.973   0.272
78433W        W45501  28.058  10.376   4.164
78434W        W45502  25.072  31.613   1.407
78435W        W45503  14.191  35.032  14.917
78436W        W45504  12.357  39.976   0.246
78437W        W45505   1.741  41.953   2.214
78438W        W45506   0.826  16.744  14.858
78439W        W45507  18.250  31.023   2.381
78440W        W45508   1.336  33.423   1.283
78441W        W45509  17.581   1.796  11.460
78442W        W45510  40.426  35.955  14.454
78443W        W45511  15.776   1.355  11.932
78444W        W45512  32.088  38.465   4.179
78445W        W45513  41.519   6.246   2.842
78446W        W45514  39.822  27.480  14.864
78447W        W45515  17.723  14.813   4.792
78448W        W45516  13.621  26.002   2.773
78449W        W45517   6.365  14.154   2.845
78450W        W45518  34.926  30.048   3.830
78451W        W45519  10.715  13.604   1.423
78452W        W45520  37.557   1.762   3.327
78453W        W45521   0.269  27.178   2.232
78454W        W45522  43.347  42.919   4.147
78455W        W45523  21.689  43.510  13.846
78456W        W45524  13.178  43.440  10.509
78457W        W45525   9.826   5.697   3.673
78458W        W45526  42.912  10.843   2.739
78459W        W45527  31.063   1.755   3.151
78460W        W45528  10.245   7.836   2.864
78461W        W45529  29.581  33.485   1.771
78462W        W45530  31.465   3.356   1.819
78463W        W45531  30.433  41.534  11.113
78464W        W45532  33.012  14.801  14.391
78465W        W45533  33.453  16.649  12.556
78466W        W45534  41.410  27.191  12.065
78467W        W45535  11.690   7.845   2.819
78468W        W45536  11.143  33.936   1.321
78469W        W45537  39.418  21.531  11.017
78470W        W45538  17.742  36.540  10.941
78471W        W45539   5.315  13.232   2.309
78472W        W45540  16.301   8.738  13.503
78473W        W45541  42.003   8.824   3.805
78474W        W45542  44.765  30.606   3.279
78475W        W45543  10.246  40.393   2.883
78476W        W45544  20.256  25.203   4.835
78477W        W45545  30.538  15.788  11.096
78478W        W45546   8.365  27.056  11.549
78479W        W45547   1.452   4.323   2.838
78480W        W45548  33.383  14.227   4.682
78481W        W45549  31.489   9.810  14.023
78482W        W45550  11.206  19.146  12.825
78483W        W45551  18.165  34.516  10.508
78484W        W45552  12.651   4.710  14.963
78485W        W45553  28.161  30.524   4.194
78486W        W45554  13.633  33.030   3.223
78487W        W45555   5.898  20.165  12.844
78488W        W45556  10.859  15.605   1.422
78489W        W45557  16.746  14.320  13.330
78490W        W45558   0.964   6.782  12.085
78491W        W45559  28.150  11.267  13.361
78492W        W45560  22.090  36.841   1.744
78493W        W45561  40.875  42.379  10.411
78494W        W45562   1.806  27.676  10.431
78495W        W45563   3.273  31.092  12.565
78496W        W45564  11.751  19.698  10.030
78497W        W45565  44.380  35.399   4.687
78498W        W45566   6.844  13.165   2.886
78499W        W45567  24.137  15.722  11.457
78500W        W45568  38.432  24.027   4.672
78501W        W45569  36.952  23.208   0.389
78502W        W45570  27.613   8.843  13.934
78503W        W45571  26.576  29.584   2.276
78504W        W45572  16.309  27.197   1.881
78505W        W45573  28.578  44.010   3.164
78506W        W45574   7.295   9.880   2.737
78507W        W45575   9.258  18.115  14.498
78508W        W45576  15.693  28.177  12.425
78509W        W45577  11.129  36.571   2.353
78510W        W45578  38.009  38.326   2.366
78511W        W45579   8.404  30.481  14.841
78512W        W45580   7.893   9.149  12.915
78513W        W45581  28.614  25.096   1.355
78514W        W45582  21.636   5.911  14.948
78515W        W45583   1.946   5.891  12.003
78516W        W45584  10.180  38.921  10.431
78517W        W45585  17.196   2.854  12.358
78518W        W45586   6.900  39.371  10.484
78519W        W45587  29.109  14.678   2.418
78520W        W45588   0.821  16.745  11.382
78521W        W45589   3.445  24.626   2.733
78522W        W45590  34.907  32.531   2.731
78523W        W45591  11.128   9.308  12.031
78524W        W45592  35.107  42.518   2.359
78525W        W45593  42.300  15.276  14.281
78526W        W45594   6.791  28.083  14.356
78527W        W45595  40.522  29.040  13.508
78528W        W45596  11.221  34.914  13.828
78529W        W45597  21.607  16.229  11.047
78530W        W45598  25.173  22.710   2.697
78531W        W45599   9.296  28.167   2.753
78532W        W45600  39.810  36.418  14.963
78533W        W45601  28.186   5.311   1.834
78534W        W45602  43.294   4.830  14.331
78535W        W45603   0.750   2.755  13.962
78536W        W45604  15.233  22.692   0.859
78537W        W45605  38.428   7.816  14.891
78538W        W45606   6.257  42.405  10.471
78539W        W45607  28.953   5.325  12.894
78540W        W45608   5.249  43.961   2.289
78541W        W45609   9.240  31.036   2.203
78542W        W45610  41.344   1.332   4.144
78543W        W45611  34.422  25.150  14.005
78544W        W45612  17.727   9.239  12.472
78545W        W45613  11.234  19.099   2.758
78546W        W45614  16.702  37.563  13.506
78547W        W45615  27.661  29.581  14.807
78548W        W45616  26.612  40.022  12.935
78549W        W45617   2.805  17.092   0.780
78550W        W45618   1.881  11.684  12.861
78551W        W45619  14.809  23.025   2.846
78552W        W45620  29.020  25.206   2.879
78553W        W45621  28.122  28.639   4.685
78554W        W45622  40.379  15.095   1.793
78555W        W45623  25.623  18.645  13.506
78556W        W45624  30.529  35.447  11.530
78557W        W45625  40.481  38.859  10.596
78558W        W45626  24.161   7.667  11.467
78559W        W45627  10.377  17.625  14.003
78560W        W45628  37.347  19.281  10.915
78561W        W45629  21.198  27.685  14.914
78562W        W45630  34.089  18.092   2.900
78563W        W45631  18.255  36.043  11.451
78564W        W45632  31.488  42.005  10.580
78565W        W45633  28.160  20.528  11.438
78566W        W45634  43.390  15.220   3.374
78567W        W45635   4.244   3.809   3.849
78568W        W45636  21.166  22.057   1.860
78569W        W45637  23.730   2.824  13.855
78570W        W45638  41.427  16.265   0.273
78571W        W45639  34.120   9.392   2.846
78572W        W45640  40.024  12.689  14.967
78573W        W45641  41.805   4.265  12.022
78574W        W45642  15.739  16.746  11.031
78575W        W45643  28.049   7.228   4.215
78576W        W45644  18.217   9.366   1.349
78577W        W45645  37.006   1.828  11.486
78578W        W45646   0.419  30.464   0.423
78579W        W45647  40.381  38.561   2.301
78580W        W45648  39.046   7.384   4.610
78581W        W45649  18.769  14.329   4.649
78582W        W45650  21.065  35.081   1.425
78583W        W45651  19.192  32.950  12.977
78584W        W45652  15.179  34.561  13.397
78585W        W45653  36.969  30.051  11.474
78586W        W45654  11.799  24.159   1.856
78587W        W45655  32.410  43.445  11.033
78588W        W45656  15.324   3.767   1.887
78589W        W45657  21.692   1.846   1.239
78590W        W45658  10.758   2.851   0.897
78591W        W45659  35.573   6.816  11.428
78592W        W45660  40.819  32.433  13.478
78593W        W45661   3.263  10.685   2.700
78594W        W45662  33.526  41.497  12.481
78595W        W45663  22.670  25.171  10.076
78596W        W45664  44.315   4.394  14.817
78597W        W45665  14.171  23.654  12.044
78598W        W45666  43.876  42.496  12.060
78599W        W45667  32.402   4.278  13.019
78600W        W45668  25.518  23.575   1.396
78601W        W45669   0.482  43.312   3.719
78602W        W45670  44.009  10.666   1.438
78603W        W45671   0.443  40.819  14.013
78604W        W45672   5.233  15.111  10.448
78605W        W45673   9.673   1.808  14.397
78606W        W45674  24.088  42.449   1.922
78607W        W45675  21.086  25.509  10.935
78608W        W45676  34.048  33.000   2.902
78609W        W45677  25.709  39.462  11.606
78610W        W45678  24.161  12.124   1.447
78611W        W45679  23.176  28.954   4.681
78612W        W45680  25.070  22.243  11.392
78613W        W45681  26.978   3.384  13.388
78614W        W45682   0.289  23.021   2.317
78615W        W45683   6.742  28.174   0.886
78616W        W45684  17.201   3.827  12.490
78617W        W45685  30.560  20.701   1.426
78618W        W45686   5.242  42.451   4.294
78619W        W45687  40.910  24.197  11.978
78620W        W45688   1.398  11.786  13.892
78621W        W45689  10.763  15.580  13.415
78622W        W45690  38.007  29.611  12.365
78623W        W45691   6.754  33.528  11.087
78624W        W45692  32.517  39.984   1.279
78625W        W45693   5.412  32.423  11.973
78626W        W45694  38.941  36.480   2.886
78627W        W45695   8.282  24.715  13.335
78628W        W45696   8.285   3.371  12.012
78629W        W45697   2.404  12.157   2.686
78630W        W45698   1.324  29.079   2.182
78631W        W45699  30.605   0.818   1.221
78632W        W45700  18.705   5.327   3.831
78633W        W45701  35.472  22.097   2.776
78634W        W45702  41.421  41.850   0.877
78635W        W45703  44.490  32.000   2.239
78636W        W45704  44.347  27.186  11.524
78637W        W45705  28.492  27.121  10.961
78638W        W45706  13.264  36.059  12.888
78639W        W45707  14.594  31.140  13.825
78640W        W45708  33.928  17.735   0.410
78641W        W45709  11.626  27.514   4.336
78642W        W45710  39.486   3.331  11.398
78643W        W45711   1.439  13.741   4.239
78644W        W45712  10.790  43.941   0.477
78645W        W45713  32.930  27.544   2.198
78646W        W45714  11.313  32.555   4.282
78647W        W45715  13.333  20.596   2.236
78648W        W45716   6.243  25.161   2.808
78649W        W45717  42.440  43.917  14.790
78650W        W45718  18.225  14.745  13.470
78651W        W45719  29.015   6.409  11.403
78652W        W45720  19.736  28.135  13.467
78653W        W45721  20.175  17.761   1.862
78654W        W45722  44.302  41.424  14.478
78655W        W45723  30.908  34.482  14.947
78656W        W45724  29.477   8.670  10.954
78657W        W45725  14.174  39.521  13.873
78658W        W45726  40.975  40.930   0.936
78659W        W45727  24.632  23.506  14.387
78660W        W45728  10.174  33.948   1.763
78661W        W45729  12.719  22.134  14.344
78662W        W45730  35.009  26.467   4.166
78663W        W45731   9.332  15.584   4.129
78664W        W45732   6.889  40.872  10.425
78665W        W45733  22.051   7.898   4.678
78666W        W45734  40.896   3.252   4.604
78667W        W45735  21.643  30.577  11.557
78668W        W45736  23.553  39.894  13.962
78669W        W45737  35.399  25.122   0.343
78670W        W45738  42.843  35.371   2.712
78671W        W45739  34.902   5.302   2.250
78672W        W45740  25.691  30.061  12.934
78673W        W45741  30.554  29.549   0.731
78674W        W45742  21.660  23.691  14.327
78675W        W45743   2.342  11.149  14.457
78676W        W45744   2.802   0.802  12.876
78677W        W45745  19.051   4.758  12.513
78678W        W45746  40.045  23.509  13.020
78679W        W45747  42.300   4.438   4.241
78680W        W45748  19.267  17.766   1.234
78681W        W45749  43.337  34.395  12.960
78682W        W45750  22.184  32.004   0.727
78683W        W45751  39.995  29.043  14.847
78684W        W45752   3.791  16.716   4.297
78685W        W45753   3.329  15.170  14.500
78686W        W45754  40.330  36.965   4.122
78687W        W45755  30.413  37.477   1.800
78688W        W45756  32.467  21.109  13.517
78689W        W45757  34.101  23.177  11.940
78690W        W45758  34.958  12.292  14.323
78691W        W45759  34.578  20.748   2.323
78692W        W45760  39.856  22.594  13.421
78693W        W45761   5.834   9.263   3.187
78694W        W45762  27.083   0.452  13.856
78695W        W45763  17.141  22.201   4.798
78696W        W45764   0.252   6.848   1.738
78697W        W45765  35.899   9.151   1.844
78698W        W45766  40.460   1.377   0.752
78699W        W45767  19.629  26.673  12.455
78700W        W45768  33.045  25.158  12.874
78701W        W45769  25.554  28.174  11.395
78702W        W45770  41.964   7.414   3.333
78703W        W45771  19.760  32.107  13.823
78704W        W45772  26.540  37.579  10.913
78705W        W45773  26.080  38.457  13.994
78706W        W45774  19.188  22.587  14.022
78707W        W45775  44.862   7.209  12.981
78708W        W45776  43.423  40.480  10.010
78709W        W45777  13.220  11.306  12.866
78710W        W45778  16.646  19.564   1.274
78711W        W45779  10.260   8.393   2.186
78712W        W45780  15.613  31.069  13.546
78713W        W45781   2.845  37.529   2.263
78714W        W45782  17.606  37.854   0.808
78715W        W45783  10.368   9.749  11.509
78716W        W45784  29.161  31.436  13.386
78717W        W45785   1.290  38.459   0.316
78718W        W45786  25.575  38.824  14.893
78719W        W45787   3.272   3.764   5.221
78720W        W45788  11.276  27.115   3.190
78721W        W45789  39.325   4.329  14.486
78722W        W45790  42.001   1.736   1.812
78723W        W45791  30.978   0.328  11.023
78724W        W45792  36.998  11.824   1.393
78725W        W45793  42.365  20.669  14.338
78726W        W45794  31.450   3.749   1.866
78727W        W45795  19.113  20.649  10.513
78728W        W45796   2.967  37.387  13.802
78729W        W45797  37.920  10.728   2.372
78730W        W45798  21.093  15.731   4.784
78731W        W45799  14.157  26.678   4.818
78732W        W45800   9.667  11.648   4.196
78733W        W45801  33.910  11.273  12.559
78734W        W45802  12.172   1.888   4.259
78735W        W45803  35.909  43.901  14.879
78736W        W45804   5.413  44.818  11.468
78737W        W45805  32.924  18.567  11.042
78738W        W45806  28.143  11.810  11.947
78739W        W45807  13.811  28.160  10.988
78740W        W45808   4.734   6.319  12.897
78741W        W45809  41.956  44.902   2.804
78742W        W45810  21.104  22.697   0.847
78743W        W45811  18.705  33.453  13.953
78744W        W45812  36.475  20.549  12.918
78745W        W45813  44.885  31.984  10.484
78746W        W45814   2.333  26.692   4.151
78747W        W45815  18.558   4.205   4.718
78748W        W45816   0.487  38.860   4.805
78749W        W45817  19.163  20.766  14.425
78750W        W45818   0.360  24.098   4.326
78751W        W45819  42.785  33.426   5.219
78752W        W45820  29.581   0.880  14.798
78753W        W45821  22.247  16.284  14.337
78754W        W45822  10.642  15.119   4.629
78755W        W45823  22.508   3.858   1.920
78756W        W45824  25.672  31.629  13.916
78757W        W45825  43.923  23.585  12.026
78758W        W45826  43.013  24.983  12.863
78759W        W45827  14.208  11.322   2.765
78760W        W45828  13.800  12.315   1.342
78761W        W45829  24.209   0.463   4.814
78762W        W45830   7.885   5.768   1.382
78763W        W45831  22.725  24.645   3.185
78764W        W45832  27.137  40.021  10.469
78765W        W45833  21.077  23.714  11.513
78766W        W45834   3.835  23.021  14.853
78767W        W45835  30.952  44.352  10.994
78768W        W45836  43.853   0.839   3.182
78769W        W45837  39.459   0.965  10.908
78770W        W45838  38.965  42.867   1.302
78771W        W45839  34.492  15.136   1.242
78772W        W45840  24.128  27.114   0.424
78773W        W45841  27.029  31.633   3.704
78774W        W45842  42.289  33.434  14.803
78775W        W45843  17.083  42.347  14.482
78776W        W45844  19.095  25.697   3.768
78777W        W45845  18.224  36.515   1.792
78778W        W45846   9.250   8.163   3.686
78779W        W45847  43.975   3.900  10.947
78780W        W45848  38.014  19.184   2.370
78781W        W45849  20.536  11.713   1.283
78782W        W45850  29.528   6.417   1.760
78783W        W45851  30.035  18.238   3.726
78784W        W45852  42.973  21.528  11.448
78785W        W45853  28.983  41.968   4.683
78786W        W45854  42.496  15.618  13.430
78787W        W45855  25.524   2.956  11.458
78788W        W45856   6.700   1.349   3.194
78789W        W45857  24.986  23.497  10.441
78790W        W45858  11.293  13.769  10.480
78791W        W45859  20.579  33.533   3.151
78792W        W45860  13.343   4.770   2.759
78793W        W45861  40.996  19.554  10.896
78794W        W45862  39.919  17.591  12.875
78795W        W45863   2.410   8.717  10.086
78796W        W45864  19.197  24.724   2.895
78797W        W45865  25.176  40.474  14.780
78798W        W45866  43.961  44.466  12.435
78799W        W45867   0.468  17.690  10.903
78800W        W45868  16.093  39.995   1.812
78801W        W45869   9.761   9.355  11.397
78802W        W45870  40.033  25.627   1.339
78803W        W45871  28.145  25.193  13.891
78804W        W45872  19.083  15.201   4.271
78805W        W45873   2.327  24.061  10.565
78806W        W45874   3.792  30.126  13.958
78807W        W45875  28.500  28.446   0.428
78808W        W45876  28.672  42.924  11.461
78809W        W45877  41.395  32.505  13.855
78810W        W45878  42.520  27.507   0.854
78811W        W45879  42.926   5.218   3.215
78812W        W45880  14.310  17.068   5.145
78813W        W45881  36.554  15.745  14.321
78814W        W45882  36.980  41.385  11.127
78815W        W45883  30.514  34.592   2.360
78816W        W45884  33.040  44.441   2.257
78817W        W45885   1.762   8.396   2.184
78818W        W45886  19.574  26.549   0.906
78819W        W45887   3.422   9.351   3.806
78820W        W45888  29.642   3.789   1.371
78821W        W45889  19.043  36.378   2.265
78822W        W45890  44.790  41.502  14.780
78823W        W45891  18.052  43.921   2.204
78824W        W45892  38.037  21.039  14.884
78825W        W45893  25.572  13.162  13.501
78826W        W45894  31.496  18.585   1.419
78827W        W45895  38.964   0.334  10.463
78828W        W45896  16.121  13.343  13.314
78829W        W45897  12.659   3.853   1.443
78830W        W45898   4.762  35.435  12.551
78831W        W45899  42.428  35.878   2.198
78832W        W45900  32.917   3.251  12.942
78833W        W45901  26.981  17.666  12.948
78834W        W45902  32.074  16.269   0.366
78835W        W45903  29.042   6.373   0.767
78836W        W45904  31.965  11.844   4.303
78837W        W45905  13.798  36.523  13.501
78838W        W45906  28.088  42.842   4.826
78839W        W45907  13.846  31.477  11.119
78840W        W45908  23.987  20.544  10.542
78841W        W45909  14.187   4.237  11.579
78842W        W45910  20.071  26.604   2.676
78843W        W45911  18.568  31.038   5.115
78844W        W45912   2.370  42.912  14.407
78845W        W45913  32.566   6.365  11.612
78846W        W45914   8.307  40.482  14.314
78847W        W45915   7.299  29.487  12.373
78848W        W45916  25.124   5.698  14.447
78849W        W45917  30.485  40.506  11.002
78850W        W45918  37.388  35.403  11.908
78851W        W45919  35.070  41.011   3.732
78852W        W45920  13.349  35.955   4.137
78853W        W45921   1.452   0.895  14.015
78854W        W45922  38.350  42.801  14.299
78855W        W45923  35.448   0.308   1.850
78856W        W45924  18.122   6.290  14.366
78857W        W45925  35.896  41.505  10.537
78858W        W45926   0.820  41.972   3.197
78859W        W45927   4.295  22.718  11.380
78860W        W45928  44.269   5.244   0.338
78861W        W45929  28.516  40.826   3.803
78862W        W45930  35.082  43.857   4.305
78863W        W45931  40.992   9.805  14.339
78864W        W45932   1.752  18.670  14.026
78865W        W45933   3.282  24.024  12.487
78866W        W45934  23.992  30.068   2.687
78867W        W45935  11.232  10.364  13.527
78868W        W45936  12.335  15.133   0.783
78869W        W45937  43.363  44.852   3.677
78870W        W45938   4.760  12.262   3.842
78871W        W45939  42.508  18.615   0.328
78872W        W45940  11.210  15.126  12.535
78873W        W45941  29.111  44.355   1.304
78874W        W45942  39.393   7.772  10.639
78875W        W45943  35.022  16.097   1.263
78876W        W45944  33.425  14.268   3.827
78877W        W45945  27.108  12.727  12.360
78878W        W45946  11.665  41.806   1.720
78879W        W45947  13.328  27.681   4.145
78880W        W45948   3.391   4.352   1.278
78881W        W45949  32.992  33.099  13.499
78882W        W45950  36.355   8.862   0.397
78883W        W45951   4.277   8.178  14.862
78884W        W45952  20.238  44.902   0.401
78885W        W45953  20.656  32.142   2.839
78886W        W45954  10.742  27.037  13.964
78887W        W45955  40.371   2.356   4.324
78888W        W45956   3.418  35.531   1.431
78889W        W45957  33.929  42.364   4.142
78890W        W45958  15.307  15.593   0.306
78891W        W45959   9.760  13.131   2.760
78892W        W45960  33.981  27.043  12.564
78893W        W45961  42.879   9.320  13.529
78894W        W45962  25.667  37.986  14.506
78895W        W45963  22.594  11.621  10.496
78896W        W45964   3.833  43.008   1.418
78897W        W45965  22.129  31.117   4.268
78898W        W45966  13.704   4.891   0.817
78899W        W45967  14.826  14.712   2.849
78900W        W45968  32.516   3.215  12.096
78901W        W45969  15.175  13.322  14.764
78902W        W45970  34.506  15.766  10.065
78903W        W45971  16.128   3.939   0.409
78904W        W45972  34.434  39.955  11.999
78905W        W45973  12.635   0.449   2.793
78906W        W45974  44.928   5.914  14.359
78907W        W45975   4.907  17.096  10.134
78908W        W45976  34.558  24.653   4.181
78909W        W45977  37.556  37.086   2.395
78910W        W45978  11.283  27.684  13.432
78911W        W45979  19.257  44.473   4.279
78912W        W45980  22.711  34.612  14.837
78913W        W45981  23.097  25.577  14.326
78914W        W45982  41.997  11.634  14.991
78915W        W45983  30.433  27.054  14.812
78916W        W45984  21.520  43.826  12.899
78917W        W45985  44.418  23.995   2.887
78918W        W45986   6.201  33.031   2.738
78919W        W45987   7.398  16.120   0.955
78920W        W45988  42.006  26.606  12.376
78921W        W45989  39.886   1.775  14.477
78922W        W45990  13.315  23.548   1.878
78923W        W45991  28.960  17.139   1.848
78924W        W45992   1.437  36.503  13.508
78925W        W45993   5.209  44.757   0.476
78926W        W45994  27.992  25.565   2.401
78927W        W45995   8.843   0.947  14.393
78928W        W45996   3.391  20.254  14.917
78929W        W45997  14.281  18.104   1.220
78930W        W45998  26.964  29.109  14.488
78931W        W45999   9.708   0.338   2.771
78932W        W46000  40.053   2.840  11.020
78933W        W46001   0.976   0.863  11.879
78934W        W46002  29.546  10.867   1.826
78935W        W46003  16.771  38.460  12.963
78936W        W46004  26.107  44.381   3.863
78937W        W46005  20.644  23.996  13.893
78938W        W46006  25.086  26.493   2.212
78939W        W46007  20.670   3.886  11.591
78940W        W46008   2.318  12.167   3.176
78941W        W46009   1.455  29.616   1.221
78942W        W46010  25.110  32.415   2.825
78943W        W46011  40.497   1.257   1.303
78944W        W46012  35.858  35.372   1.383
78945W        W46013  34.448  18.635  10.955
78946W        W46014  39.064  40.855  11.041
78947W        W46015  28.963  33.954   3.155
78948W        W46016  26.965  29.974   3.250
78949W        W46017  37.358   9.306   5.292
78950W        W46018   0.426  10.381   1.707
78951W        W46019  24.111  15.582   0.746
78952W        W46020  31.527   7.337   1.801
78953W        W46021   1.277  44.392   1.351
78954W        W46022  38.917  22.044  14.014
78955W        W46023   2.284  30.456   1.803
78956W        W46024   8.393  38.338   4.227
78957W        W46025  17.730  21.139  11.989
78958W        W46026  15.661  31.418  13.887
78959W        W46027  26.000  23.492   1.909
78960W        W46028  15.583  42.834   4.738
78961W        W46029  35.398  41.309   2.180
78962W        W46030  44.421  15.702   3.266
78963W        W46031  40.535  22.697  13.043
78964W        W46032  36.914  37.901   2.382
78965W        W46033   0.347   5.422  11.083
78966W        W46034  32.596  15.151   9.451
78967W        W46035  20.727  38.055  13.873
78968W        W46036  14.693  41.504   4.598
78969W        W46037   2.954  44.351  12.060
78970W        W46038  14.191  22.548   0.262
78971W        W46039   7.298  15.107   0.769
78972W        W46040  28.655  39.491   3.174
78973W        W46041  28.032  23.723   0.405
78974W        W46042  29.101  16.634   2.889
78975W        W46043   7.268   4.210   1.213
78976W        W46044   2.891  19.602  14.961
78977W        W46045  12.162   9.887  10.413
78978W        W46046  42.011  19.268   0.312
78979W        W46047   0.884   2.751   4.213
78980W        W46048  14.307  40.359   0.775
78981W        W46049  21.135   5.253   3.678
78982W        W46050  25.010  28.048   3.339
78983W        W46051   1.409  16.740   4.647
78984W        W46052   1.776  44.918  10.911
78985W        W46053  40.357  26.531   4.760
78986W        W46054  19.655  44.369   3.845
78987W        W46055   0.459  10.146   3.211
78988W        W46056  15.782  15.142  13.000
78989W        W46057  41.510  21.580  10.492
78990W        W46058  22.598  20.722  12.964
78991W        W46059  14.242  41.450   4.774
78992W        W46060  32.070  13.707  11.502
78993W        W46061  12.245   3.735  12.843
78994W        W46062  20.730  39.486  11.123
78995W        W46063   0.402  34.050  14.809
78996W        W46064  22.665  44.843  13.044
78997W        W46065  30.463  14.830  13.827
78998W        W46066  37.953  23.182   0.920
78999W        W46067   9.675   5.394  10.526
79000W        W46068  41.371  43.488   2.674
79001W        W46069  20.105  22.127  12.931
79002W        W46070  32.026  15.291   0.390
79003W        W46071  11.253  39.511   1.315
79004W        W46072  42.907  34.007  11.879
79005W        W46073  12.306  12.700   3.306
79006W        W46074  32.116  18.570   3.343
79007W        W46075  35.852  37.980   3.377
79008W        W46076  11.796  18.082   1.920
79009W        W46077  17.230  17.271  13.854
79010W        W46078  24.161   6.235  13.842
79011W        W46079   4.805  19.051   5.108
79012W        W46080  16.309   3.336  13.883
79013W        W46081  44.497  41.977   3.698
79014W        W46082  14.636  21.255   2.896
79015W        W46083   5.286  27.156  14.285
79016W        W46084  13.730  27.498  10.931
79017W        W46085  43.989   8.691  13.814
79018W        W46086  23.599  16.735  11.562
79019W        W46087  15.633  40.849  12.901
79020W        W46088   6.709  17.635   1.824
79021W        W46089  32.110  15.242  13.801
79022W        W46090  21.209   1.381   4.612
79023W        W46091  40.876  30.997  14.920
79024W        W46092  29.065   2.836  14.288
79025W        W46093  10.835  33.598  14.914
79026W        W46094  25.559  11.130   0.878
79027W        W46095   2.471  17.143  13.924
79028W        W46096   1.364   6.370  13.050
79029W        W46097  42.901   8.827  12.340
79030W        W46098  18.213   5.781  12.434
79031W        W46099  39.991  29.589   4.728
79032W        W46100  31.513  44.298  13.971
79033W        W46101  19.142  25.066  14.351
79034W        W46102   0.450  22.204   0.313
79035W        W46103  39.041  32.048   3.187
79036W        W46104  19.170  14.618   1.775
79037W        W46105  30.949   4.260  13.349
79038W        W46106   7.257   1.779   0.848
79039W        W46107  16.721   6.836  13.994
79040W        W46108  40.471  13.214  10.950
79041W        W46109  37.533  37.490   1.272
79042W        W46110  31.611  34.520   5.226
79043W        W46111  10.198  35.359  11.550
79044W        W46112  26.007  16.099  14.006
79045W        W46113  39.444  26.975   2.679
79046W        W46114  27.455  40.026  14.981
79047W        W46115  22.117   7.849   4.194
79048W        W46116   8.888  33.027   0.935
79049W        W46117   6.796  22.152  14.833
79050W        W46118   2.804  25.082   4.617
79051W        W46119  36.415  27.035   0.965
79052W        W46120   8.283  10.644  11.537
79053W        W46121  41.983  15.224   4.187
79054W        W46122   6.333  42.501  11.462
79055W        W46123   2.763  27.574  12.039
79056W        W46124  31.473  29.162   1.835
79057W        W46125  32.028  20.260   1.714
79058W        W46126   4.717  44.422  11.037
79059W        W46127   7.728  26.119   2.873
79060W        W46128  13.614  35.104   2.693
79061W        W46129  25.216  29.468  10.542
79062W        W46130  21.262  41.829  14.812
79063W        W46131  22.576  29.996   2.717
79064W        W46132  19.629  20.545   3.629
79065W        W46133  25.537   5.364  10.418
79066W        W46134  26.664  24.975  11.941
79067W        W46135  18.246  44.886   4.324
79068W        W46136   3.389  28.026   4.716
79069W        W46137  33.914  11.222   1.849
79070W        W46138  34.536  26.466  10.495
79071W        W46139  22.232  44.850  12.052
79072W        W46140  31.000  41.818  12.090
79073W        W46141  23.663   5.305  14.425
79074W        W46142  26.976  39.039   2.394
79075W        W46143  33.594  34.080  12.020
79076W        W46144  26.486  36.433   0.839
79077W        W46145  30.586   8.799   4.142
79078W        W46146   6.260  11.247   3.294
79079W        W46147  36.006  26.557   5.243
79080W        W46148   2.465  41.993  10.493
79081W        W46149  30.017  41.042  11.863
79082W        W46150  39.358  41.907  14.794
79083W        W46151  32.600  38.023  14.297
79084W        W46152  11.257  13.202  13.337
79085W        W46153  40.910  41.477   4.686
79086W        W46154  25.205   3.860  12.020
79087W        W46155  16.124   8.666   2.747
79088W        W46156  23.051  26.207  12.388
79089W        W46157  33.125  20.531   2.704
79090W        W46158  40.808  26.137   4.353
79091W        W46159  14.761  35.970  12.528
79092W        W46160   3.366  25.028  13.362
79093W        W46161   1.249  24.012  13.423
79094W        W46162  11.293  44.829   2.792
79095W        W46163  34.604  32.545   0.248
79096W        W46164   9.750  41.883   1.267
79097W        W46165  11.659  31.618  11.871
79098W        W46166  31.915  10.850   0.483
79099W        W46167  22.730  37.578   4.710
79100W        W46168  39.475   7.699   3.185
79101W        W46169  26.567  20.654   5.148
79102W        W46170  12.211  39.511  11.992
79103W        W46171  24.065   0.967   0.352
79104W        W46172  34.555  44.348   0.446
79105W        W46173   7.724  27.147   0.877
79106W        W46174  31.908  33.890  13.441
79107W        W46175  34.946   1.379   0.887
79108W        W46176  32.613  37.550   3.742
79109W        W46177  11.316   3.786  11.562
79110W        W46178  37.514  18.788  14.998
79111W        W46179  14.142  36.403   3.788
79112W        W46180   8.230   8.678   1.777
79113W        W46181  31.991  25.614  13.020
79114W        W46182  44.505  21.568  11.997
79115W        W46183  40.378  24.620  14.014
79116W        W46184  33.918  36.863  14.433
79117W        W46185  12.622  12.339   1.417
79118W        W46186  19.222   5.695   4.646
79119W        W46187  10.863  36.865   2.351
79120W        W46188   6.198  16.769   2.394
79121W        W46189  31.055   0.798   3.286
79122W        W46190   6.262  14.107   3.807
79123W        W46191  38.443  31.541  12.522
79124W        W46192  19.281  39.809   3.698
79125W        W46193  20.729  32.391  14.482
79126W        W46194  26.642  22.555   3.339
79127W        W46195  28.476  39.443   1.783
79128W        W46196   1.334  26.041   2.720
79129W        W46197  33.530  13.833  10.462
79130W        W46198   6.252  33.605  13.319
79131W        W46199  43.303  39.430  13.797
79132W        W46200  18.701  42.456   2.246
79133W        W46201  21.672   3.846  14.293
79134W        W46202   3.437  29.116  12.830
79135W        W46203  20.712  26.662   0.833
79136W        W46204  34.023  35.857  12.035
79137W        W46205  42.363   8.888   1.909
79138W        W46206  12.257  27.547  10.459
79139W        W46207   9.803  20.231   1.838
79140W        W46208  35.534   5.726   2.691
79141W        W46209  16.800  11.708  11.856
79142W        W46210   4.777  31.076  10.991
79143W        W46211  26.604  13.341   3.181
79144W        W46212  26.176  42.970  12.558
79145W        W46213  25.096  29.445  14.895
79146W        W46214  37.519  35.392  12.998
79147W        W46215  41.488  20.623   0.895
79148W        W46216   7.341  43.914  12.453
79149W        W46217  25.472  28.546   4.145
79150W        W46218  25.111  13.292   0.908
79151W        W46219  44.428   5.409  13.904
79152W        W46220  40.920   4.289  11.108
79153W        W46221  27.480  32.471   4.808
79154W        W46222  34.917  38.982  10.069
79155W        W46223   0.289  18.275   4.306
79156W        W46224  36.992  12.183   4.690
79157W        W46225  40.959  43.805  13.480
79158W        W46226  19.185  44.854  10.468
79159W        W46227  40.877  11.783   1.420
79160W        W46228   2.392   4.354  14.797
79161W        W46229   7.680  35.421   4.350
79162W        W46230  11.819  21.214   0.443
79163W        W46231   5.236  22.996  10.966
79164W        W46232  11.256   9.713   4.654
79165W        W46233   2.342   3.422   4.731
79166W        W46234  38.929  16.783   3.726
79167W        W46235  41.434  14.795   1.384
79168W        W46236  43.889  44.911   4.625
79169W        W46237  17.782  35.601   2.664
79170W        W46238  15.761  35.520   3.810
79171W        W46239  13.678  25.106   1.846
79172W        W46240  18.224  25.993   4.119
79173W        W46241  31.972  31.948  12.050
79174W        W46242  18.180   9.255   0.767
79175W        W46243   9.846   2.833   3.823
79176W        W46244   0.902   5.414   4.688
79177W        W46245  23.102  12.284  11.388
79178W        W46246   6.732  22.702  13.419
79179W        W46247  24.702  22.035  11.933
79180W        W46248  20.157  42.913   4.284
79181W        W46249   2.252  40.862  12.979
79182W        W46250  17.764  29.992   5.107
79183W        W46251  20.066  12.235   0.481
79184W        W46252  30.589  38.511   1.865
79185W        W46253  25.608  20.528   4.152
79186W        W46254  36.979  34.013  14.975
79187W        W46255  21.018  44.894  13.843
79188W        W46256   5.392  36.010   3.180
79189W        W46257  44.914  10.806   4.763
79190W        W46258  13.283  14.313   1.388
79191W        W46259  27.548  43.983   0.483
79192W        W46260  23.236  21.150   0.336
79193W        W46261  12.197  36.977   2.847
79194W        W46262  32.525  36.891   4.274
79195W        W46263  31.130   6.887   3.310
79196W        W46264  16.092  23.639   2.316
79197W        W46265   1.867  22.711   2.692
79198W        W46266   4.321  29.063   0.463
79199W        W46267  39.544  24.618  11.037
79200W        W46268   6.350  32.019   2.333
79201W        W46269   2.393  24.050   4.801
79202W        W46270   7.227   6.869   1.824
79203W        W46271  29.958  14.637   2.801
79204W        W46272   8.201   4.367   0.921
79205W        W46273  20.118   7.362   4.234
79206W        W46274  28.961  16.799  12.557
79207W        W46275  24.129  39.827  12.004
79208W        W46276  41.402  43.275  11.486
79209W        W46277  23.553  31.067   1.403
79210W        W46278  32.518   2.867  14.802
79211W        W46279  23.996  24.123  11.893
79212W        W46280  10.165  37.466   0.307
79213W        W46281  10.664  14.307   1.435
79214W        W46282  12.624  43.933  13.538
79215W        W46283  37.882   3.906   3.233
79216W        W46284  23.187  29.666  14.507
79217W        W46285  17.749   9.828  12.072
79218W        W46286   2.316  16.721  11.882
79219W        W46287  40.542  23.558   0.919
79220W        W46288   0.963  32.421  12.935
79221W        W46289  43.279  44.277  12.416
79222W        W46290  40.333  28.159  11.999
79223W        W46291  35.014  37.510  14.515
79224W        W46292   2.911   3.760   3.184
79225W        W46293  20.676  30.518  13.534
79226W        W46294  16.175  25.081  14.971
79227W        W46295   2.456  38.004  12.053
79228W        W46296   3.728  21.591   3.839
79229W        W46297   9.888  16.668  11.528
79230W        W46298   1.295   6.321  11.481
79231W        W46299  26.698  35.894  12.964
79232W        W46300  36.581  24.693  13.510
79233W        W46301  42.779  34.374  13.046
79234W        W46302  36.455  25.153   3.270
79235W        W46303   4.353  20.753  10.488
79236W        W46304  39.509  11.310   1.778
79237W        W46305  39.873  29.471   4.136
79238W        W46306  20.693   4.735   3.162
79239W        W46307  35.966  43.282  11.607
79240W        W46308  34.527  33.950  12.828
79241W        W46309  18.155  34.955   2.419
79242W        W46310  17.218  39.391  12.004
79243W        W46311   8.178  18.569   4.226
79244W        W46312  11.189   5.897   2.810
79245W        W46313  22.599  19.142   0.942
79246W        W46314  34.906  41.324   3.386
79247W        W46315  17.276  32.547  14.507
79248W        W46316  35.553  19.253  11.476
79249W        W46317  24.141   6.702  12.958
79250W        W46318  17.646  18.132  11.532
79251W        W46319  23.716  28.065   0.843
79252W        W46320  14.335  28.631  14.284
79253W        W46321  16.089   4.288  13.391
79254W        W46322   1.313  42.360  11.542
79255W        W46323  37.450   9.887  10.064
79256W        W46324  30.480  12.818   3.699
79257W        W46325  27.467  10.657   0.412
79258W        W46326  10.180  29.595   0.471
79259W        W46327  12.263  41.365  10.907
79260W        W46328  34.378  20.613  12.369
79261W        W46329   8.203  16.223   1.273
79262W        W46330  32.588  12.347  11.440
79263W        W46331  37.430   0.932  10.517
79264W        W46332   3.762  36.058   2.264
79265W        W46333  35.984  22.099   3.849
79266W        W46334  44.342  31.574  10.891
79267W        W46335  40.502  40.343  12.040
79268W        W46336  13.197  34.515   4.750
79269W        W46337  26.625   7.822  10.985
79270W        W46338  43.402  43.454   3.185
79271W        W46339  37.013  32.569   2.208
79272W        W46340  18.641  29.111   4.272
79273W        W46341   2.289  13.286  12.377
79274W        W46342  27.476  39.924  10.643
79275W        W46343  44.377  14.328  11.877
79276W        W46344  30.938   9.659  13.969
79277W        W46345   0.883  32.098  12.472
79278W        W46346  40.904   1.739  12.958
79279W        W46347   0.932  15.720   2.770
79280W        W46348  23.562  43.871  10.419
79281W        W46349  16.627  40.350   1.783
79282W        W46350  35.858   0.830  10.404
79283W        W46351  44.960  13.692  13.863
79284W        W46352  42.517  15.610  11.978
79285W        W46353   9.174  31.630   4.686
79286W        W46354  41.865  44.417  14.900
79287W        W46355  33.892  36.532  13.853
79288W        W46356  17.777   2.854  11.098
79289W        W46357   2.945  22.998   2.225
79290W        W46358  33.493   4.725  14.818
79291W        W46359  26.046  42.880  13.400
79292W        W46360  26.703  28.000  11.372
79293W        W46361   0.876  36.390  14.000
79294W        W46362  24.136  29.526  13.837
79295W        W46363   0.846   0.925   3.841
79296W        W46364  19.573  32.427   3.770
79297W        W46365   0.348  31.433  10.499
79298W        W46366   9.654  10.319   0.373
79299W        W46367  32.905  29.643   0.818
79300W        W46368  11.627  29.007   2.412
79301W        W46369  31.035  40.948  10.897
79302W        W46370  37.560   2.360  12.905
79303W        W46371   9.803  23.125  14.796
79304W        W46372  33.064   2.279   3.145
79305W        W46373  41.853  36.959   1.836
79306W        W46374  32.607  23.220   3.784
79307W        W46375   9.304  16.605  13.507
79308W        W46376  30.921  37.929  10.559
79309W        W46377  26.600  19.075   2.752
79310W        W46378  14.811  34.981  11.977
79311W        W46379   5.287   4.302   2.858
79312W        W46380  12.223   8.878  12.839
79313W        W46381  35.388  21.703   0.253
79314W        W46382  27.138   4.739  14.288
79315W        W46383  14.830  43.822   4.244
79316W        W46384   0.863  24.000   2.876
79317W        W46385  19.692  22.219  11.111
79318W        W46386  38.354  16.645   1.852
79319W        W46387  39.406  34.431   2.729
79320W        W46388  38.532  40.388   2.292
79321W        W46389  11.334   1.280   0.926
79322W        W46390   3.439  25.651   2.747
79323W        W46391  21.250  31.085  11.515
79324W        W46392   8.657  33.423   2.790
79325W        W46393  11.349   7.731  12.931
79326W        W46394  33.536  29.583   0.948
79327W        W46395  43.805  25.572   0.802
79328W        W46396  44.854  24.690  11.520
79329W        W46397  36.394  14.230   4.172
79330W        W46398  40.816   1.923  11.569
79331W        W46399   6.234  22.632   4.310
79332W        W46400  14.716  34.537  14.463
79333W        W46401  25.984  27.637  12.848
79334W        W46402  16.712  20.656  12.824
79335W        W46403  13.723  41.994  11.477
79336W        W46404  38.471  11.849  13.504
79337W        W46405  28.002  22.028  10.950
79338W        W46406  42.333  13.678   1.827
79339W        W46407  12.699   4.886  10.959
79340W        W46408  38.864  36.058   0.778
79341W        W46409  42.301  31.454   2.690
79342W        W46410   0.883  19.604  13.498
79343W        W46411   5.724  41.987  12.488
79344W        W46412   4.343   5.831  14.899
79345W        W46413   7.215  34.049  10.593
79346W        W46414   1.250  19.117  14.320
79347W        W46415  24.713  43.334   3.308
79348W        W46416   3.776  26.106   2.690
79349W        W46417  42.292  10.284  13.816
79350W        W46418   2.760  40.921  10.933
79351W        W46419  30.997  30.968  10.913
79352W        W46420   4.928  44.888  13.863
79353W        W46421   0.787  17.655   2.780
79354W        W46422  21.686   9.716   3.827
79355W        W46423  40.429  39.510   3.800
79356W        W46424  15.163  38.952  13.465
79357W        W46425  32.634   7.275  13.543
79358W        W46426  22.163  38.961  10.988
79359W        W46427  16.155  16.673  11.434
79360W        W46428  22.608  40.504   2.296
79361W        W46429  28.454  12.611   0.483
79362W        W46430  40.017  22.016  12.357
79363W        W46431  24.199   3.948  14.971
79364W        W46432  34.064  43.785   2.342
79365W        W46433   3.927  22.201   3.750
79366W        W46434  20.055   3.346   0.726
79367W        W46435  25.678  12.681  11.542
79368W        W46436   8.771  20.704  12.914
79369W        W46437   8.684  23.699  12.867
79370W        W46438  40.355  25.097   3.630
79371W        W46439  13.166  19.266  14.760
79372W        W46440  22.216   3.722  14.389
79373W        W46441   6.911  31.073   1.794
79374W        W46442  42.344  33.949   0.828
79375W        W46443  15.212  15.118   4.210
79376W        W46444  43.016  21.020   4.174
79377W        W46445  32.514  17.177   3.161
79378W        W46446  15.635   9.767  12.468
79379W        W46447  17.213  44.952   0.811
79380W        W46448  42.381  14.752  14.973
79381W        W46449  30.015  26.101  12.003
79382W        W46450  20.698  34.908   4.179
79383W        W46451   2.441  19.247  11.421
79384W        W46452  26.499  35.457  11.489
79385W        W46453  13.841   1.311  12.981
79386W        W46454  23.101  15.662   2.663
79387W        W46455  38.568  13.192  12.529
79388W        W46456  43.364  24.617   1.857
79389W        W46457  35.386   3.762  14.929
79390W        W46458   5.413  27.997  13.541
79391W        W46459  29.620  32.430   3.852
79392W        W46460  17.112  11.735   3.665
79393W        W46461  32.039  25.091   0.321
79394W        W46462  29.425  24.002  12.919
79395W        W46463  12.623  16.122  13.061
79396W        W46464  39.973  15.681   1.712
79397W        W46465  15.319  30.557  13.413
79398W        W46466   3.857  37.049   3.292
79399W        W46467  35.072   8.759  14.811
79400W        W46468  20.208  35.107  13.949
79401W        W46469   7.780  31.590   3.224
79402W        W46470   3.261   6.733   2.306
79403W        W46471  19.748   7.317   2.745
79404W        W46472   3.271  13.806  12.003
79405W        W46473  17.767  20.184  13.006
79406W        W46474   4.227  28.583   4.195
79407W        W46475  40.321   5.310   2.867
79408W        W46476  19.084   6.790   3.767
79409W        W46477  30.020   3.431  14.447
79410W        W46478  37.557   6.886  14.922
79411W        W46479  14.274  14.757  11.963
79412W        W46480  15.290  24.163  14.806
79413W        W46481   8.870  21.749  12.939
79414W        W46482   1.415   0.352   3.208
79415W        W46483  24.117  14.834  12.945
79416W        W46484  19.046  15.196   2.345
79417W        W46485  25.061  40.878   4.202
79418W        W46486   6.738  27.972   4.312
79419W        W46487   4.893  27.030   4.799
79420W        W46488  22.040  26.028  11.395
79421W        W46489  16.269   5.244   2.833
79422W        W46490   1.250  26.998   2.894
79423W        W46491   7.889  14.760  13.052
79424W        W46492  16.266   8.722   1.882
79425W        W46493   7.338   1.945  14.009
79426W        W46494   5.859   6.345   1.810
79427W        W46495  15.111  41.813   2.867
79428W        W46496   4.726  40.930   0.483
79429W        W46497  12.312  10.642  10.438
79430W        W46498  40.356  36.910  13.960
79431W        W46499  37.972  24.709  14.466
79432W        W46500  42.441  12.804   1.401
79433W        W46501  32.899   4.823   0.964
79434W        W46502  30.598  22.064   4.795
79435W        W46503  38.872  23.150  13.938
79436W        W46504   2.392  17.215  12.521
79437W        W46505   7.802  28.589   3.277
79438W        W46506  24.647  42.306   2.820
79439W        W46507  15.633   1.761  10.617
79440W        W46508  29.512  12.242  11.872
79441W        W46509  14.797  41.358  11.494
79442W        W46510  18.780  11.623   1.787
79443W        W46511  25.513  22.684   3.196
79444W        W46512   5.840  13.265   1.366
79445W        W46513   9.257  21.177  11.066
79446W        W46514  31.405  21.208  12.863
79447W        W46515  10.740  14.309  14.936
79448W        W46516  26.176   1.823   2.841
79449W        W46517  15.176  13.757  14.965
79450W        W46518  35.445  30.452   0.755
79451W        W46519  19.180  32.628   1.393
79452W        W46520  20.686  34.547   0.822
79453W        W46521   2.298  33.015   3.307
79454W        W46522  24.179  26.625  13.343
79455W        W46523  41.983  32.525  13.321
79456W        W46524  13.790  27.973   3.314
79457W        W46525   6.738  20.667   0.944
79458W        W46526  26.066  38.375   1.831
79459W        W46527  40.889  31.075  12.853
79460W        W46528  23.998  34.978   2.232
79461W        W46529  14.295  22.638  10.034
79462W        W46530  42.494  40.034   4.321
79463W        W46531   9.682  40.452  10.524
79464W        W46532  23.688  20.726  11.577
79465W        W46533  28.940   6.852   3.211
79466W        W46534  20.127   1.871   0.479
79467W        W46535  25.124   6.387  14.302
79468W        W46536  18.186  10.731  12.026
79469W        W46537   3.851  42.315   4.829
79470W        W46538  42.810   1.357  12.864
79471W        W46539  16.145  27.566  12.084
79472W        W46540  26.656  28.528   3.218
79473W        W46541  44.008  41.370   1.255
79474W        W46542   7.295  17.760  11.563
79475W        W46543  39.877  27.519   2.279
79476W        W46544   1.412   9.848   1.745
79477W        W46545   8.225   4.848   0.914
79478W        W46546  35.993   5.408  14.449
79479W        W46547  11.303  18.682   2.693
79480W        W46548  20.234  30.120   4.187
79481W        W46549  16.689   5.923  11.024
79482W        W46550  20.156  35.600  10.946
79483W        W46551  14.644  42.822   1.389
79484W        W46552   7.279  14.211   0.311
79485W        W46553   9.881  20.070  13.861
79486W        W46554  21.039  32.964  10.142
79487W        W46555   4.299  25.583   2.340
79488W        W46556  18.714  28.485  14.293
79489W        W46557  11.651   2.270   3.191
79490W        W46558  29.086   9.172   3.313
79491W        W46559  43.848  27.093  12.899
79492W        W46560  37.954  13.297  13.312
79493W        W46561  43.807  15.737   0.875
79494W        W46562  38.545  40.982  10.446
79495W        W46563  16.614  26.457   3.745
79496W        W46564  27.016  21.212  11.473
79497W        W46565   4.717  39.868  14.858
79498W        W46566  11.643  38.050  13.820
79499W        W46567  35.989  22.009   1.247
79500W        W46568   9.289  25.699  14.849
79501W        W46569  41.321  37.468   5.157
79502W        W46570  19.772   8.361  14.011
79503W        W46571   0.824  11.704   3.246
79504W        W46572  32.971  23.146  12.430
79505W        W46573  22.130   4.711  13.935
79506W        W46574  15.633  38.941  12.532
79507W        W46575  22.628   6.230  11.571
79508W        W46576  12.229  23.504   3.703
79509W        W46577  16.275  25.976   1.816
79510W        W46578  27.582   1.734   1.367
79511W        W46579  19.535  24.561   1.829
79512W        W46580  13.795  17.285   1.435
79513W        W46581   7.192  28.457   1.356
79514W        W46582  30.019  42.460  10.901
79515W        W46583  24.534  28.983  13.818
79516W        W46584   9.834  17.588  12.023
79517W        W46585   9.242   4.905  12.070
79518W        W46586   7.743  27.598   2.788
79519W        W46587  25.489  24.026  14.466
79520W        W46588  14.695  44.262   4.723
79521W        W46589  10.672  30.656   0.269
79522W        W46590  41.488  29.438  11.005
79523W        W46591  30.109  13.841   3.747
79524W        W46592  36.538  16.099  13.349
79525W        W46593  30.947   3.262  13.021
79526W        W46594  40.329  27.688   1.449
79527W        W46595   7.373  25.564   0.914
79528W        W46596  19.100  43.766  14.301
79529W        W46597  20.210   7.274   5.187
79530W        W46598  33.977  29.576   0.741
79531W        W46599  29.665  32.448  14.449
79532W        W46600  26.029  16.645  10.572
79533W        W46601  26.567  43.507  14.811
79534W        W46602  16.258  21.100  12.417
79535W        W46603  20.140  24.670   3.263
79536W        W46604   0.474  29.987  10.574
79537W        W46605  12.644  14.622   3.386
79538W        W46606  38.914  11.785   3.826
79539W        W46607  34.433  15.739   3.836
79540W        W46608  29.016   6.282   3.288
79541W        W46609  30.522  33.948  13.541
79542W        W46610  26.591  23.066   1.920
79543W        W46611  11.269   2.889   3.226
79544W        W46612  43.324  38.494   4.793
79545W        W46613  42.821  12.268  13.322
79546W        W46614   3.257  14.231   2.748
79547W        W46615  21.188   5.888  11.584
79548W        W46616  37.432  14.239   0.899
79549W        W46617  34.588   2.369  10.632
79550W        W46618  25.492  15.758  12.343
79551W        W46619  23.542  33.615   1.777
79552W        W46620  10.768  33.493  10.992
79553W        W46621  34.062  12.126   2.740
79554W        W46622  26.531  17.567   4.180
79555W        W46623  24.106   8.197  10.495
79556W        W46624   7.799   2.961   3.864
79557W        W46625  11.801  32.532  11.537
79558W        W46626   5.911  17.231   0.244
79559W        W46627  22.087  14.774  13.813
79560W        W46628  14.629   9.824   2.662
79561W        W46629   6.219  23.712   1.831
79562W        W46630   7.760  32.600  11.993
79563W        W46631  31.088  36.041   4.645
79564W        W46632  18.556  31.618  13.031
79565W        W46633  40.011  43.883   3.302
79566W        W46634  20.219  12.622   4.675
79567W        W46635  37.017   7.749   4.638
79568W        W46636  44.418  32.075  13.040
79569W        W46637   9.218  19.229   0.425
79570W        W46638  41.411  36.414   5.273
79571W        W46639  18.075  29.520   3.702
79572W        W46640  20.694  18.602  11.535
79573W        W46641  33.407  18.204  11.558
79574W        W46642  27.538  21.598   2.861
79575W        W46643  40.459  32.401  11.922
79576W        W46644  11.841  25.611  11.957
79577W        W46645  42.979   5.764   1.800
79578W        W46646  12.314  44.382   2.769
79579W        W46647  16.210  25.581  14.294
79580W        W46648  13.226  37.474  11.062
79581W        W46649   7.407  18.754   4.161
79582W        W46650  26.558  34.960   1.213
79583W        W46651  41.464  19.229   2.739
79584W        W46652   5.729  26.005  10.557
79585W        W46653  41.032  36.362   0.344
79586W        W46654   4.322  26.042   1.314
79587W        W46655  24.163  29.496   5.086
79588W        W46656  34.417  32.060  12.380
79589W        W46657  44.471   0.326   0.369
79590W        W46658  43.406  31.979  10.917
79591W        W46659  24.715  29.920  11.864
79592W        W46660  39.435  37.876   4.198
79593W        W46661  38.457  32.919  13.899
79594W        W46662  23.064  34.867   1.245
79595W        W46663  15.713  34.069   0.810
79596W        W46664  41.947  29.072  13.919
79597W        W46665  42.841   4.442   4.159
79598W        W46666  30.053  28.467  13.024
79599W        W46667   1.340  39.370   1.329
79600W        W46668   8.306   7.888   0.808
79601W        W46669  17.195  40.006  10.042
79602W        W46670  13.238  41.344  10.523
79603W        W46671  22.650  24.604   2.846
79604W        W46672  19.106  34.397   3.805
79605W        W46673  10.236  43.353   0.269
79606W        W46674   7.236   5.855   2.779
79607W        W46675  38.335  31.455   3.768
79608W        W46676  43.399   6.215  10.464
79609W        W46677   6.915  39.468  13.993
79610W        W46678   5.287  11.231   3.299
79611W        W46679  19.147  25.972  13.928
79612W        W46680  15.679  29.140   0.943
79613W        W46681   6.385  39.811  14.772
79614W        W46682   5.731  38.874   0.865
79615W        W46683   5.762  41.307  14.404
79616W        W46684  25.600  34.956  13.901
79617W        W46685  18.199  25.475   4.120
79618W        W46686   5.737  27.512   2.293
79619W        W46687   4.769  36.396  12.429
79620W        W46688  32.627  31.922  13.338
79621W        W46689  16.284  10.689  13.040
79622W        W46690  28.975  14.279   2.386
79623W        W46691  29.561  23.734   4.272
79624W        W46692  27.985   7.193   1.819
79625W        W46693  35.568  12.650  12.382
79626W        W46694  11.814  10.373  12.836
79627W        W46695  26.183   9.171  11.489
79628W        W46696  42.303  43.377   4.680
79629W        W46697   5.211  18.781   0.349
79630W        W46698   6.350  14.823   1.708
79631W        W46699   6.370  31.620   0.456
79632W        W46700  12.610  16.785  13.420
79633W        W46701   7.175  42.847   4.646
79634W        W46702   5.853   2.347  11.033
79635W        W46703  24.617  34.371  12.867
79636W        W46704  26.048   7.898   3.310
79637W        W46705  26.509  12.237   4.766
79638W        W46706  42.973  32.579   1.349
79639W        W46707  26.665  35.507  11.004
79640W        W46708   4.737  18.564   2.750
79641W        W46709   2.278  38.540   2.728
79642W        W46710  18.657  44.346   2.339
79643W        W46711  34.966  37.399  11.994
79644W        W46712  16.126  31.008  12.427
79645W        W46713  13.140  36.363  12.413
79646W        W46714   8.360  28.485  12.007
79647W        W46715  17.755  32.973   2.849
79648W        W46716   3.345  29.919   4.785
79649W        W46717  28.937  19.735  12.857
79650W        W46718  21.645  42.449  14.026
79651W        W46719  31.410  23.010   0.343
79652W        W46720  24.518  41.432  10.601
79653W        W46721  22.152   0.346  12.465
79654W        W46722  23.181  12.640  14.798
79655W        W46723  18.294   5.255  11.018
79656W        W46724   7.802   3.825  13.456
79657W        W46725  27.457  41.888  13.791
79658W        W46726  13.749  41.443  11.886
79659W        W46727   3.748  16.113   0.944
79660W        W46728  37.955  18.199   1.756
79661W        W46729  20.536  31.573  14.503
79662W        W46730  41.411  28.508  11.048
79663W        W46731  43.916  44.352  13.898
79664W        W46732  20.119  39.357  11.551
79665W        W46733   1.845  31.576   2.711
79666W        W46734  34.118   1.790  13.519
79667W        W46735  42.421   2.379  14.333
79668W        W46736  10.255  31.441   0.479
79669W        W46737  44.309  17.096  14.852
79670W        W46738  42.444  37.478   1.416
79671W        W46739  29.467  11.270   2.876
79672W        W46740  43.772  23.697  14.423
79673W        W46741  37.994  27.645  11.488
79674W        W46742  24.167  38.865  10.539
79675W        W46743  13.227  16.111  13.490
79676W        W46744   4.783  42.335   4.147
79677W        W46745  30.122   2.259  13.014
79678W        W46746   1.416  39.846  13.921
79679W        W46747  13.715   1.432  12.533
79680W        W46748  24.710   3.866  11.122
79681W        W46749  42.963  43.822   4.344
79682W        W46750  37.846  33.088   4.179
79683W        W46751   4.281   9.817  11.527
79684W        W46752   3.751  40.797   4.214
79685W        W46753  24.717  15.224   0.300
79686W        W46754  21.257  23.649   1.795
79687W        W46755  12.826   5.880  13.055
79688W        W46756  29.620  44.823   1.448
79689W        W46757  26.080  15.737   0.277
79690W        W46758  25.707  22.617   1.245
79691W        W46759   4.931   2.242   0.892
79692W        W46760   2.335  21.251   5.173
79693W        W46761  33.893  43.020   1.416
79694W        W46762  14.758  42.385  13.991
79695W        W46763  30.592  27.014  11.596
79696W        W46764   0.815  15.583   1.443
79697W        W46765  35.108   6.239  14.012
79698W        W46766  35.416  14.265  13.352
79699W        W46767  19.562  37.393  14.759
79700W        W46768  44.489  42.510  13.896
79701W        W46769   7.388  23.188  12.427
79702W        W46770  19.732  22.049   2.898
79703W        W46771   9.270  32.098   5.105
79704W        W46772  37.003  25.702  13.424
79705W        W46773  16.722  17.572   1.845
79706W        W46774  31.021  39.046  13.513
79707W        W46775  39.846  30.491   0.962
79708W        W46776  39.345  36.030   1.374
79709W        W46777  35.512  44.364  10.003
79710W        W46778  22.703   0.334  13.487
79711W        W46779  16.230  23.727  13.508
79712W        W46780  44.990  14.282  10.619
79713W        W46781   5.346  42.983  11.539
79714W        W46782  29.004  34.049  10.630
79715W        W46783  10.152  35.393   2.385
79716W        W46784  18.556  35.523   1.308
79717W        W46785  30.021  30.978   0.860
79718W        W46786  28.471  44.784  12.040
79719W        W46787  13.251  20.091  13.836
79720W        W46788  42.341  42.524  14.451
79721W        W46789  31.515  13.687   3.179
79722W        W46790   4.426  14.782   3.296
79723W        W46791  35.362  16.640   1.748
79724W        W46792  36.355  28.442   4.318
79725W        W46793  41.980  17.307  13.485
79726W        W46794  19.183  37.556  10.454
79727W        W46795   7.233   0.429   3.823
79728W        W46796  23.074  22.077  10.453
79729W        W46797   6.740   3.856   1.730
79730W        W46798  20.562   1.376   2.297
79731W        W46799  21.607  42.855   0.290
79732W        W46800   6.907  42.023  14.865
79733W        W46801  25.079  21.620   3.635
79734W        W46802  25.545  14.237  13.414
79735W        W46803  26.119  21.554   4.678
79736W        W46804  13.189  35.572   1.826
79737W        W46805  35.443  31.020  12.869
79738W        W46806   1.783  34.408   2.213
79739W        W46807   2.364   5.371   4.691
79740W        W46808  40.000   9.728  12.462
79741W        W46809  20.617  17.198  12.999
79742W        W46810   5.774  31.948   3.742
79743W        W46811  12.648  40.903  14.018
79744W        W46812  15.620   8.802   4.699
79745W        W46813  21.673  16.296   3.205
79746W        W46814  35.396  43.411  14.853
79747W        W46815  20.118  29.425   9.505
79748W        W46816  38.073  21.129   5.307
79749W        W46817  23.183  35.581   1.728
79750W        W46818  41.398  38.396   2.244
79751W        W46819  35.936   4.744   0.481
79752W        W46820  36.574   2.428   3.746
79753W        W46821   7.267   3.809  10.950
79754W        W46822  20.539  42.786   1.254
79755W        W46823  43.436  24.087  13.541
79756W        W46824   2.454  13.787  13.437
79757W        W46825  11.221  32.057   3.259
79758W        W46826   8.209  12.253   0.328
79759W        W46827  36.926  40.411  14.418
79760W        W46828  10.380  23.062  14.009
79761W        W46829  20.272  36.402  11.557
79762W        W46830  13.696  18.094  11.069
79763W        W46831   8.369  35.586  14.372
79764W        W46832  25.475  20.100   1.219
79765W        W46833  14.769  19.767   1.839
79766W        W46834  32.137  22.038  13.367
79767W        W46835  40.891   3.785  11.404
79768W        W46836  34.462   1.756  12.426
79769W        W46837  16.801   8.812  11.871
79770W        W46838  40.516  23.060   4.299
79771W        W46839  14.793  18.645  12.500
79772W        W46840  20.738  38.552   1.748
79773W        W46841   3.217  16.743   0.427
79774W        W46842  24.705   5.286   4.332
79775W        W46843  22.556  21.064   3.719
79776W        W46844  31.627  14.810   0.467
79777W        W46845  32.065   1.764   4.811
79778W        W46846  19.548  23.621   1.419
79779W        W46847  20.237  22.014  11.573
79780W        W46848  43.859  40.314   4.217
79781W        W46849  14.148  15.654  11.402
79782W        W46850  33.061  12.855   4.347
79783W        W46851  20.741   8.806   0.250
79784W        W46852  26.598  26.980   2.288
79785W        W46853   6.341  43.830  13.842
79786W        W46854   8.297   0.354   0.936
79787W        W46855  41.483  10.265   0.903
79788W        W46856  44.382   6.294  12.859
79789W        W46857  23.168  11.172   4.822
79790W        W46858  26.201  28.673   4.760
79791W        W46859  33.591  24.090  10.027
79792W        W46860  39.852   5.348   4.245
79793W        W46861  34.474  40.005  13.794
79794W        W46862  36.851  12.289   4.264
79795W        W46863  18.211  38.431  10.552
79796W        W46864  17.138  36.424   2.782
79797W        W46865  14.687  12.820   3.351
79798W        W46866  17.771  17.171  12.857
79799W        W46867  18.212  33.482  12.832
79800W        W46868  39.539  12.699   0.374
79801W        W46869   6.679  39.349  12.489
79802W        W46870  33.533  12.266  10.434
79803W        W46871  24.543  23.997   3.699
79804W        W46872  15.779  18.087  13.063
79805W        W46873  39.352  37.852   2.253
79806W        W46874  32.011  25.503  11.900
79807W        W46875  12.226  29.918   1.342
79808W        W46876   7.867  28.035  11.890
79809W        W46877   5.241   3.855  11.536
79810W        W46878  38.539  18.260   4.242
79811W        W46879  19.668   3.250   4.632
79812W        W46880  30.598  12.338   4.670
79813W        W46881   8.684  37.417  11.548
79814W        W46882  29.494  14.820  14.466
79815W        W46883  26.479   3.757  10.927
79816W        W46884  43.384  35.993   9.957
79817W        W46885   8.818   8.711   5.312
79818W        W46886   4.806   6.289  12.495
79819W        W46887  17.585  26.502  11.541
79820W        W46888  39.924  39.902   0.913
79821W        W46889  24.062   1.408   2.746
79822W        W46890  17.563   3.455   0.796
79823W        W46891   5.833  42.931  10.482
79824W        W46892   9.227  41.438  11.996
79825W        W46893  23.708  41.301   0.423
79826W        W46894  22.726  18.783  11.072
79827W        W46895  20.177  39.380  12.567
79828W        W46896  30.023  36.966  12.057
79829W        W46897  32.543   0.856   3.244
79830W        W46898  13.133   2.732  11.431
79831W        W46899  44.839  24.652   3.728
79832W        W46900  24.658  12.344  14.403
79833W        W46901  25.608  41.979   1.708
79834W        W46902  24.136  17.666  10.600
79835W        W46903   8.766  16.188   4.643
79836W        W46904  15.605  39.936  11.560
79837W        W46905   3.761   7.851  14.841
79838W        W46906  40.452  27.686   4.649
79839W        W46907  11.747  36.589   3.324
79840W        W46908  31.117  23.151   4.239
79841W        W46909  17.621  39.529   1.710
79842W        W46910  40.822  27.488  11.531
79843W        W46911  21.516  13.835  12.524
79844W        W46912   5.902  28.587  11.448
79845W        W46913   0.303   0.840  12.996
79846W        W46914  18.563   9.317  13.887
79847W        W46915  40.477  14.203  11.986
79848W        W46916   1.973  33.012  10.927
79849W        W46917  42.016  22.579   5.150
79850W        W46918  34.042   9.334   0.908
79851W        W46919  24.175  40.891  10.549
79852W        W46920  12.288  33.467  12.549
79853W        W46921  12.260   8.257   3.267
79854W        W46922  41.872  29.132   5.138
79855W        W46923  16.201  11.318   0.350
79856W        W46924  23.564  10.750  14.822
79857W        W46925  14.211  37.514  11.944
79858W        W46926  44.429  19.627   2.780
79859W        W46927  24.203  19.286   3.352
79860W        W46928   0.365  31.571   5.773
79861W        W46929   8.190  40.342  12.960
79862W        W46930  13.302  26.545   9.956
79863W        W46931   1.752  44.924   0.437
79864W        W46932   3.354  13.246  11.455
79865W        W46933  14.190  23.097  11.904
79866W        W46934  12.822  37.396   2.871
79867W        W46935  28.958  12.255  14.863
79868W        W46936  15.296   4.414   3.676
79869W        W46937  13.729  18.242   3.812
79870W        W46938  34.872  13.166  13.890
79871W        W46939  42.879   2.320  12.391
79872W        W46940   0.988  40.837   3.858
79873W        W46941  44.324   1.839  14.428
79874W        W46942  39.316  32.634  12.838
79875W        W46943  27.610  41.874  11.974
79876W        W46944  30.110  44.838  13.343
79877W        W46945   7.893   4.229  12.377
79878W        W46946  38.880  36.396  13.016
79879W        W46947  15.103   9.209   2.206
79880W        W46948  39.549  11.728  13.917
79881W        W46949  21.564  38.455   1.901
79882W        W46950   3.799  10.145   3.739
79883W        W46951  30.493   8.671   0.262
79884W        W46952  21.722  28.125   0.784
79885W        W46953  33.050  43.826  12.052
79886W        W46954  32.490  19.218  12.550
79887W        W46955  17.278  16.763  12.376
79888W        W46956  40.811  15.782   3.824
79889W        W46957  40.015  41.980  13.384
79890W        W46958  43.896  36.582   3.157
79891W        W46959  40.375  30.075  12.849
79892W        W46960  32.959   6.239  10.896
79893W        W46961  28.161  21.164  11.439
79894W        W46962   6.374   3.425  11.127
79895W        W46963  14.114  34.865  14.031
79896W        W46964  44.269  16.205   1.844
79897W        W46965  34.083  38.882   2.373
79898W        W46966  30.922  12.147   0.339
79899W        W46967   2.244  18.162  13.468
79900W        W46968  33.407  12.254  14.456
79901W        W46969  38.868  31.928  13.489
79902W        W46970  23.606  41.968   1.291
79903W        W46971  30.072  14.340   3.271
79904W        W46972  30.416  42.894   1.375
79905W        W46973  15.137  23.232   4.660
79906W        W46974  21.746  30.042  11.535
79907W        W46975  32.438  26.023  11.085
79908W        W46976  39.854   5.742   1.750
79909W        W46977  14.109  40.497  12.379
79910W        W46978  35.379  41.858   4.666
79911W        W46979   9.277  41.895   2.724
79912W        W46980  36.471  35.045  11.983
79913W        W46981  44.771   5.381  13.876
79914W        W46982  21.537   0.774  12.857
79915W        W46983  43.318  15.094  10.596
79916W        W46984  42.431  26.200   1.754
79917W        W46985  19.152   2.721   1.387
79918W        W46986  34.487  36.061  12.544
79919W        W46987  37.380  37.537  13.444
79920W        W46988  25.701   7.240   3.186
79921W        W46989  32.952   0.442   0.784
79922W        W46990  35.454  39.053   1.815
79923W        W46991  44.274  11.741  13.967
79924W        W46992   0.813   0.460   4.337
79925W        W46993  26.157  17.592  14.978
79926W        W46994  28.049  13.770   0.419
79927W        W46995  31.631  32.432  14.464
79928W        W46996  17.576  25.625  12.429
79929W        W46997  36.996  19.678  10.568
79930W        W46998  24.056  39.388  13.979
79931W        W46999  32.090  40.984   1.273
79932W        W47000  11.147  13.799   4.268
79933W        W47001  19.641  31.110  11.495
79934W        W47002  28.125  35.427  11.389
79935W        W47003  21.139  14.663   4.730
79936W        W47004  22.640  25.180   3.171
79937W        W47005  40.002  24.607   3.772
79938W        W47006   3.920  40.020   3.201
79939W        W47007  35.423  42.804  14.914
79940W        W47008  29.541  40.803   2.306
79941W        W47009  35.875  12.801   4.674
79942W        W47010  29.612  14.334  13.483
79943W        W47011  17.223   9.314  12.566
79944W        W47012   9.852  29.149   2.401
79945W        W47013   9.748  20.263  11.045
79946W        W47014  16.786  44.283  14.332
79947W        W47015   8.260  15.212  11.963
79948W        W47016  19.567  39.998  11.490
79949W        W47017   0.832   5.699   2.387
79950W        W47018   3.936  29.480  14.843
79951W        W47019  32.450  17.565   2.674
79952W        W47020  43.350  31.494  12.044
79953W        W47021  28.183  42.493   3.347
79954W        W47022  16.077   9.743  14.291
79955W        W47023  40.488   5.298  11.934
79956W        W47024  27.179  31.055  12.577
79957W        W47025  32.399  43.291   0.354
79958W        W47026  30.909  44.767   3.781
79959W        W47027   6.748  42.953  11.009
79960W        W47028   8.808   5.762   2.374
79961W        W47029  30.457   0.920  14.802
79962W        W47030   9.649  20.626   4.122
79963W        W47031  35.865  33.991  13.828
79964W        W47032  13.304  20.727  14.025
79965W        W47033  14.161  19.746  12.849
79966W        W47034  22.597  18.656  11.960
79967W        W47035  37.026  16.627  13.997
79968W        W47036  42.903   7.239   2.712
79969W        W47037  36.032  44.305  14.972
79970W        W47038   2.259   8.332  10.960
79971W        W47039  23.202   7.725  10.997
79972W        W47040  24.115  33.621  12.902
79973W        W47041  23.586  12.833  14.407
79974W        W47042   1.336  18.128  13.418
79975W        W47043   8.674   8.319  12.430
79976W        W47044  23.121  44.461   4.233
79977W        W47045  20.270   4.230  10.624
79978W        W47046  27.596  17.280  11.377
79979W        W47047  14.102  31.619  14.888
79980W        W47048  20.121  32.606  11.035
79981W        W47049  39.430   9.715  11.107
79982W        W47050   7.728  10.709  13.810
79983W        W47051  21.177  13.732  11.994
79984W        W47052  34.068  44.303   1.430
79985W        W47053   1.476  22.513   3.193
79986W        W47054   2.897  24.712   4.120
79987W        W47055   8.354  11.754   4.689
79988W        W47056  13.209  23.110   2.835
79989W        W47057  15.723  19.684  10.463
79990W        W47058   9.193  14.762  12.456
79991W        W47059  22.059  13.252   1.705
79992W        W47060   1.326  37.833  10.547
79993W        W47061  17.134  35.574   0.903
79994W        W47062   0.330  16.104   0.833
79995W        W47063  33.595  10.798   1.858
79996W        W47064  40.444  20.537  11.059
79997W        W47065  39.971  14.740  14.319
79998W        W47066  25.092  11.682   1.780
79999W        W47067  40.995   9.752  12.868
80000W        W47068   1.938   0.846   4.333
80001W        W47069  27.685  16.179   4.825
80002W        W47070   7.198  24.153   2.840
80003W        W47071   6.900  34.100  13.857
80004W        W47072  31.612  32.489   2.816
80005W        W47073  44.885  14.259   3.347
80006W        W47074  31.991  18.257   4.140
80007W        W47075   6.915  19.658  14.439
80008W        W47076  31.959  14.641   1.282
80009W        W47077  19.121  25.192   1.307
80010W        W47078  37.831  26.951   3.650
80011W        W47079  26.066  25.990   0.728
80012W        W47080  24.601  36.073   1.270
80013W        W47081  16.231  25.216   3.385
80014W        W47082  20.713  40.956   0.763
80015W        W47083  14.135  35.575   3.834
80016W        W47084   4.271   3.312   0.741
80017W        W47085  16.569  33.515  14.365
80018W        W47086  35.034  17.767  10.603
80019W        W47087   9.659   3.416   4.781
80020W        W47088  26.077   8.252  13.051
80021W        W47089   8.324  40.833   1.871
80022W        W47090  21.677  32.049  10.437
80023W        W47091  17.627  32.436  13.002
80024W        W47092  26.109  40.327   3.251
80025W        W47093  36.446  30.422  14.995
80026W        W47094  28.558  36.984   2.661
80027W        W47095  22.618  18.244  12.575
80028W        W47096  39.934  22.523   3.702
80029W        W47097  22.213  43.956  14.285
80030W        W47098  41.975   4.274  14.993
80031W        W47099  30.579  22.730   2.275
80032W        W47100  30.634  34.953  12.030
80033W        W47101  31.558  23.025   2.884
80034W        W47102  15.610   0.390  11.408
80035W        W47103   1.304  34.376  11.516
80036W        W47104   0.420   9.191   3.210
80037W        W47105  25.610  41.460   2.285
80038W        W47106  22.007  44.879  12.482
80039W        W47107  26.004  35.602   4.826
80040W        W47108   1.820   3.923   0.303
80041W        W47109  39.862  32.052   2.232
80042W        W47110  13.709  39.985   3.696
80043W        W47111  40.957  34.115  14.811
80044W        W47112  21.683  34.391   1.908
80045W        W47113  43.905   6.834  10.962
80046W        W47114   9.727  36.580   4.641
80047W        W47115   2.381  38.904   0.308
80048W        W47116  43.383  29.478  11.969
80049W        W47117  36.350  37.492  14.882
80050W        W47118  44.288  42.365  14.489
80051W        W47119   1.860  31.048   1.327
80052W        W47120  16.748  28.959  12.372
80053W        W47121   1.339  44.472  10.443
80054W        W47122  22.597  36.459  14.827
80055W        W47123  10.776   7.821  14.314
80056W        W47124  19.156  34.003  11.476
80057W        W47125  12.771  21.588  10.966
80058W        W47126  37.041  40.024   3.660
80059W        W47127  23.493  26.184  11.436
80060W        W47128  17.248  42.331  11.496
80061W        W47129  22.013  23.236   1.785
80062W        W47130  43.427   8.299  14.910
80063W        W47131  20.562   6.249   2.878
80064W        W47132  21.083   5.920  13.529
80065W        W47133  43.947  24.675   4.328
80066W        W47134   8.264  12.746  13.930
80067W        W47135  20.176  24.137  13.505
80068W        W47136  31.418   3.897   2.320
80069W        W47137   8.792  37.516  13.873
80070W        W47138   3.906  37.339   2.204
80071W        W47139  43.428  40.876   1.745
80072W        W47140  32.494   9.197   1.369
80073W        W47141  12.203  23.124   2.900
80074W        W47142  40.943   5.272  14.905
80075W        W47143  40.500  37.020  12.999
80076W        W47144  43.989  28.938  10.904
80077W        W47145  19.041  27.503  12.091
80078W        W47146  34.476  35.529  10.404
80079W        W47147  16.279  21.625  12.359
80080W        W47148   4.384  15.589  13.485
80081W        W47149  21.523  40.315   1.775
80082W        W47150  36.491   7.689   3.300
80083W        W47151  13.670  33.568   1.901
80084W        W47152  18.785  35.063  11.431
80085W        W47153   6.250   2.308   2.682
80086W        W47154  23.002   9.229   3.224
80087W        W47155  39.484  24.659  12.410
80088W        W47156  12.798  17.561   3.317
80089W        W47157   7.258  25.595   2.366
80090W        W47158   6.681   0.289  13.474
80091W        W47159  35.566  29.600  11.881
80092W        W47160  34.569  39.016   3.312
80093W        W47161  33.122  25.205   0.258
80094W        W47162  14.647  34.584   3.682
80095W        W47163  10.146  24.014  10.086
80096W        W47164  44.423  33.020  13.491
80097W        W47165  13.831  26.046  13.035
80098W        W47166  16.794   1.317   2.269
80099W        W47167  33.603  23.171   1.777
80100W        W47168  28.497  31.539   0.747
80101W        W47169  13.791   6.746  13.487
80102W        W47170  27.972   2.721  12.866
80103W        W47171  21.087  33.929   0.474
80104W        W47172  16.263  30.627  13.313
80105W        W47173  35.388  40.899  12.997
80106W        W47174   9.760  43.334   1.228
80107W        W47175   3.896  12.210  12.577
80108W        W47176  29.633  14.168   1.740
80109W        W47177  37.480  20.664   2.262
80110W        W47178  21.114   0.830  12.013
80111W        W47179  31.153  34.408   2.698
80112W        W47180   8.709  43.508  13.464
80113W        W47181  33.922  15.170   1.252
80114W        W47182  20.595  31.647   4.767
80115W        W47183  32.889  42.921  11.411
80116W        W47184   4.341  29.495  12.051
80117W        W47185  41.973  13.108   0.315
80118W        W47186  30.015  16.203  10.099
80119W        W47187   7.183  39.824   0.876
80120W        W47188  37.831  33.920   3.738
80121W        W47189  22.725  42.956  10.986
80122W        W47190  32.627  18.195  14.474
80123W        W47191  41.347  29.603  13.448
80124W        W47192  35.950  23.151   1.334
80125W        W47193  18.174  29.050   2.677
80126W        W47194  42.413   3.335   2.351
80127W        W47195   9.267   7.754   3.324
80128W        W47196   4.744  21.541  10.629
80129W        W47197  27.996  28.567   1.710
80130W        W47198   7.230  24.191   1.775
80131W        W47199  38.440   6.916  13.433
80132W        W47200   2.337  35.375   1.821
80133W        W47201  32.574  40.457  14.342
80134W        W47202  38.443  25.679  13.308
80135W        W47203  22.543  23.655  13.049
80136W        W47204  32.416  22.742  14.857
80137W        W47205  43.830   1.340   4.639
80138W        W47206  11.235  26.070   1.431
80139W        W47207  32.903  44.792  11.073
80140W        W47208  22.559  26.177  14.473
80141W        W47209  32.036  29.027   0.921
80142W        W47210  20.074  13.131  14.856
80143W        W47211  14.814   5.385   4.343
80144W        W47212  25.695  36.063   2.694
80145W        W47213   3.881  27.477   0.835
80146W        W47214   1.751  28.476  13.440
80147W        W47215  14.272  42.516  13.503
80148W        W47216  40.318  28.535   1.712
80149W        W47217  31.451  17.195  14.461
80150W        W47218   5.796  39.959   1.439
80151W        W47219  39.969  43.314  11.067
80152W        W47220   0.390  19.684   4.193
80153W        W47221   6.241  33.968   4.633
80154W        W47222  22.012  21.703  11.084
80155W        W47223  28.443  31.916   4.162
80156W        W47224  39.889  36.947  13.970
80157W        W47225  20.134  28.547   0.289
80158W        W47226   0.968  14.308  14.945
80159W        W47227   0.383  11.215   4.318
80160W        W47228  39.533  39.827  11.059
80161W        W47229  24.038  15.726   3.327
80162W        W47230  39.948  44.902   2.702
80163W        W47231  41.988   7.379  10.645
80164W        W47232  17.579  36.431  11.596
80165W        W47233   9.217  35.053  11.501
80166W        W47234   1.305  10.258  10.569
80167W        W47235  12.179  22.199   1.771
80168W        W47236  29.632   7.266   1.381
80169W        W47237  33.030  10.670  14.014
80170W        W47238  14.692  22.741  10.935
80171W        W47239   5.840  12.615   4.352
80172W        W47240  11.630  16.667   1.260
80173W        W47241  16.305  41.920  12.943
80174W        W47242   8.860   3.873   0.281
80175W        W47243  22.215  16.792   1.826
80176W        W47244  24.657  33.955   0.905
80177W        W47245   4.774  35.057   2.862
80178W        W47246  31.036  29.967  11.123
80179W        W47247  42.857  15.299   4.343
80180W        W47248  10.869  16.784  11.542
80181W        W47249  38.327  29.437  10.976
80182W        W47250   8.893  11.143   2.679
80183W        W47251  32.608  44.903   2.318
80184W        W47252   6.411  25.171   1.361
80185W        W47253  30.146  40.900  14.758
80186W        W47254   6.737  29.119   4.735
80187W        W47255  10.289  38.829   4.779
80188W        W47256   8.294  24.527   4.742
80189W        W47257  16.153  13.684  11.400
80190W        W47258   3.714  31.978  11.470
80191W        W47259   4.256  38.326  11.411
80192W        W47260  21.200  29.525   5.091
80193W        W47261  42.497   2.267  10.444
80194W        W47262  18.705  39.944   0.867
80195W        W47263  36.899  29.049  11.436
80196W        W47264  29.501   5.318  10.946
80197W        W47265  33.025  26.103   1.912
80198W        W47266  36.063  28.023  11.967
80199W        W47267  40.037  18.231   2.252
80200W        W47268   3.228   5.897  11.506
80201W        W47269  21.169  14.787  12.021
80202W        W47270  28.058  33.562  11.449
80203W        W47271  27.957  25.165  14.317
80204W        W47272  10.871  26.164   1.828
80205W        W47273   2.945   5.759  13.995
80206W        W47274  38.358   4.742   1.784
80207W        W47275  43.432  43.347  10.477
80208W        W47276  30.035  23.062  14.951
80209W        W47277   2.799  38.568   1.284
80210W        W47278   3.302  24.981  12.927
80211W        W47279  31.595  39.901   4.684
80212W        W47280   6.682  26.519  12.435
80213W        W47281  26.999  14.110   1.442
80214W        W47282   9.878  17.723  14.931
80215W        W47283  41.499  37.551   2.383
80216W        W47284  30.496  11.212   1.859
80217W        W47285  19.166  25.491   0.470
80218W        W47286  18.246  39.894  14.451
80219W        W47287  43.014   4.256  11.513
80220W        W47288  26.552  14.683   3.709
80221W        W47289  17.667  36.929  11.981
80222W        W47290   8.343  31.916   3.694
80223W        W47291  24.022  39.902  10.631
80224W        W47292  12.183   6.858  14.494
80225W        W47293   6.902   3.853   0.384
80226W        W47294  34.561   0.958   1.776
80227W        W47295  14.812  33.605  11.908
80228W        W47296  10.245  10.302  10.129
80229W        W47297  36.375  31.097  11.463
80230W        W47298  22.615  41.807  13.796
80231W        W47299  25.605  11.270  14.470
80232W        W47300   5.400  41.805  11.924
80233W        W47301  42.391  44.965  14.942
80234W        W47302  42.282  39.444   2.756
80235W        W47303  22.248  16.114  12.858
80236W        W47304  20.531   9.886   0.448
80237W        W47305  38.984   5.836  11.909
80238W        W47306  26.554  40.469   2.203
80239W        W47307  10.305  40.527   1.367
80240W        W47308  29.105  24.976   5.130
80241W        W47309  42.909  42.386  14.868
80242W        W47310  22.711  13.133  13.435
80243W        W47311  19.730   4.344  14.867
80244W        W47312  30.498  19.116   0.859
80245W        W47313  33.882  38.541  14.983
80246W        W47314   2.294   2.440   4.801
80247W        W47315  44.404  20.231  10.488
80248W        W47316   3.790  16.189  12.382
80249W        W47317   4.234  35.928   4.759
80250W        W47318  42.347  29.122  10.435
80251W        W47319   2.841  18.631   4.343
80252W        W47320  24.612   2.388   0.449
80253W        W47321  24.541  11.239  11.408
80254W        W47322  41.915   4.910   5.316
80255W        W47323  14.151  25.202   4.632
80256W        W47324  12.708  21.700   3.851
80257W        W47325   0.964  42.387  14.862
80258W        W47326   4.260   1.343  12.842
80259W        W47327  28.142  39.998  10.576
80260W        W47328  10.200  38.330  13.969
80261W        W47329  31.570   6.809  12.360
80262W        W47330  39.365  39.467   1.827
80263W        W47331  39.486  25.023  14.471
80264W        W47332   6.921   0.480   3.338
80265W        W47333  27.191   7.300  14.021
80266W        W47334  33.433   1.391  13.485
80267W        W47335  29.602  44.279   1.765
80268W        W47336  43.504   7.696  10.916
80269W        W47337  23.715  24.222   2.299
80270W        W47338  11.810   4.708  10.126
80271W        W47339  33.950  24.640  10.601
80272W        W47340  40.339  42.779   1.880
80273W        W47341  31.044  37.937   4.139
80274W        W47342  44.897  27.162   3.813
80275W        W47343  44.983  42.373  13.456
80276W        W47344  17.556  12.267   1.862
80277W        W47345  34.444  32.564  12.048
80278W        W47346  30.544  24.706  12.358
80279W        W47347   8.364   3.889  13.358
80280W        W47348  41.900  20.528   1.302
80281W        W47349  27.151  16.576   1.918
80282W        W47350  34.986  20.557   1.341
80283W        W47351  12.650  24.502   0.454
80284W        W47352  16.118  43.313   0.882
80285W        W47353  26.053  22.708  11.532
80286W        W47354  31.428   4.810   3.368
80287W        W47355  43.356  35.994   1.359
80288W        W47356   4.714   9.874  12.939
80289W        W47357  10.200  13.220   0.955
80290W        W47358   0.973   1.739   1.353
80291W        W47359  22.658   7.335   3.374
80292W        W47360  33.620  20.190   1.728
80293W        W47361   7.674   9.163  11.919
80294W        W47362  38.978  28.001   2.764
80295W        W47363  13.616   0.773  10.046
80296W        W47364  43.435   5.761   2.822
80297W        W47365  43.826  12.143   0.798
80298W        W47366  33.982   4.315   3.759
80299W        W47367  11.660  13.179   0.295
80300W        W47368   1.764  43.844  10.556
80301W        W47369  39.063  35.503   0.415
80302W        W47370  40.480  30.571   0.270
80303W        W47371  31.554  11.793  12.853
80304W        W47372  43.306   0.877   3.811
80305W        W47373   7.769  29.164   0.426
80306W        W47374   3.399  40.973  14.333
80307W        W47375  10.748  15.609   5.204
80308W        W47376  34.115  42.390   2.380
80309W        W47377  39.372   3.403   5.312
80310W        W47378  41.322  41.927  14.423
80311W        W47379  35.025   4.343   3.728
80312W        W47380  16.713  12.832  12.441
80313W        W47381   3.763  19.711  11.864
80314W        W47382  40.012   5.853  13.417
80315W        W47383  15.246  27.132   3.290
80316W        W47384  43.835  23.125  10.546
80317W        W47385  41.972  24.998   1.724
80318W        W47386  27.991  42.950   2.863
80319W        W47387  31.117  12.238   4.835
80320W        W47388  34.872  40.462  13.901
80321W        W47389   2.793  28.668  14.817
80322W        W47390  12.746   5.194  14.340
80323W        W47391  35.915  28.459  11.380
80324W        W47392  11.285  38.440  13.427
80325W        W47393  35.471  43.418   4.731
80326W        W47394  27.064   5.923   0.397
80327W        W47395  19.184  29.048   3.664
80328W        W47396  38.943  10.311   2.399
80329W        W47397  13.737  34.913   2.400
80330W        W47398   0.341  19.259   0.902
80331W        W47399  42.813  30.428  11.920
80332W        W47400  11.808  25.627  14.922
80333W        W47401  20.529  21.181  13.323
80334W        W47402  18.078   3.356   2.393
80335W        W47403  20.765  18.741  14.766
80336W        W47404  44.848  17.562   1.310
80337W        W47405  40.332   4.265   3.702
80338W        W47406   8.311   5.259   0.937
80339W        W47407  31.604  22.098   3.712
80340W        W47408   4.368  23.571   3.716
80341W        W47409  27.517  16.806  12.370
80342W        W47410  32.953  36.505  13.332
80343W        W47411  38.426  14.325   2.693
80344W        W47412   6.821  25.165  11.926
80345W        W47413  18.262  34.508   1.286
80346W        W47414  10.154   0.491  14.002
80347W        W47415  15.666  17.587   0.257
80348W        W47416  11.684  32.410   1.717
80349W        W47417  19.701  20.059  11.995
80350W        W47418   5.763  37.028   0.887
80351W        W47419   3.898  25.470   4.281
80352W        W47420  25.537   6.778   2.337
80353W        W47421  20.052   6.777  11.518
80354W        W47422  12.165  32.096  13.051
80355W        W47423  44.985   8.774   3.207
80356W        W47424  41.488   7.359  11.484
80357W        W47425   7.269  18.727   1.853
80358W        W47426  21.226  31.016  11.979
80359W        W47427   6.842  13.221  10.414
80360W        W47428  25.143  18.165  14.936
80361W        W47429  16.624   3.875  12.370
80362W        W47430  22.070  25.210  11.392
80363W        W47431  21.154  36.918   4.239
80364W        W47432  20.565  34.370  14.845
80365W        W47433   2.311  25.067  14.999
80366W        W47434   5.349  21.512  14.473
80367W        W47435  21.062  30.453  10.488
80368W        W47436  15.272  38.421  11.598
80369W        W47437  10.347   6.884   4.282
80370W        W47438   4.335   4.240  10.419
80371W        W47439  35.468  41.511   0.851
80372W        W47440  37.395  10.709  13.502
80373W        W47441  33.956   4.344  13.972
80374W        W47442   0.424  18.678  12.362
80375W        W47443  19.177  13.277  13.011
80376W        W47444  36.575  42.928  14.339
80377W        W47445  34.891   5.414   0.479
80378W        W47446  37.064  43.388   0.858
80379W        W47447  15.254  29.996   0.835
80380W        W47448  27.464  42.376   0.391
80381W        W47449  41.300  11.686  11.059
80382W        W47450  18.095  40.016  11.906
80383W        W47451  29.158   8.655   3.359
80384W        W47452  13.273  12.349   1.917
80385W        W47453  14.215   7.242   0.251
80386W        W47454  15.302  39.526  11.962
80387W        W47455  33.432  43.510   4.337
80388W        W47456   3.932  17.642  14.822
80389W        W47457  24.604   0.785   3.728
80390W        W47458  30.055  35.558  11.036
80391W        W47459   6.246  24.545   4.150
80392W        W47460   8.832  28.653   2.324
80393W        W47461  22.715  22.639   1.290
80394W        W47462  29.520   7.834  13.982
80395W        W47463   5.703  39.000   2.894
80396W        W47464  23.156   4.283   0.424
80397W        W47465  38.337  44.360  14.348
80398W        W47466   3.837  19.666   3.169
80399W        W47467   6.737  40.441   1.391
80400W        W47468  37.837  29.661   3.284
80401W        W47469  14.225  32.442  12.041
80402W        W47470   3.713   2.812   3.672
80403W        W47471  26.652  14.608  14.286
80404W        W47472  29.454   7.410  14.469
80405W        W47473  32.493   5.359  11.612
80406W        W47474  26.130  13.201   3.357
80407W        W47475  13.808  14.176   4.804
80408W        W47476  28.161   6.875   2.863
80409W        W47477  18.669  12.785   3.831
80410W        W47478  42.792  18.115  10.956
80411W        W47479  15.743  11.320  10.552
80412W        W47480  30.628   1.780   3.175
80413W        W47481  41.823  38.057   3.796
80414W        W47482  41.848  24.064   3.789
80415W        W47483  12.241   4.745   3.363
80416W        W47484  36.093   1.406   2.770
80417W        W47485  32.558  32.437  11.956
80418W        W47486  19.190  22.574  10.971
80419W        W47487  11.297  11.633   4.345
80420W        W47488  42.904  30.119   1.699
80421W        W47489  26.588  25.164  14.774
80422W        W47490  30.078  17.094   0.866
80423W        W47491  32.062   7.846  12.915
80424W        W47492  32.948  23.056   0.441
80425W        W47493   9.225   4.318  10.447
80426W        W47494  17.083  42.027  13.056
80427W        W47495  37.540  34.517   4.697
80428W        W47496  42.810  10.661   1.752
80429W        W47497  40.479  29.969   0.951
80430W        W47498  14.317  15.150   3.724
80431W        W47499  44.271  36.363   0.457
80432W        W47500   9.197   0.766  14.318
80433W        W47501  31.533  12.804  13.815
80434W        W47502  11.701  24.688  13.538
80435W        W47503  43.978  12.147  10.928
80436W        W47504   8.211  16.272  14.772
80437W        W47505   7.272  31.099  13.345
80438W        W47506  25.699  17.239   2.833
80439W        W47507  20.555  38.960   2.265
80440W        W47508  16.667  36.559  13.511
80441W        W47509  13.158  30.457   2.805
80442W        W47510  22.046  19.535   3.236
80443W        W47511   4.268  29.565   0.338
80444W        W47512  15.274   1.292   1.870
80445W        W47513   8.193  35.009  11.449
80446W        W47514  16.084   1.387   2.192
80447W        W47515  38.025  16.236  13.060
80448W        W47516  37.879  16.605  14.279
80449W        W47517   6.784   8.842  11.906
80450W        W47518  15.717  41.992  11.591
80451W        W47519  42.955  10.774  12.470
80452W        W47520  14.304  10.677  12.519
80453W        W47521  13.170  44.332   0.443
80454W        W47522   3.223  32.554  12.375
80455W        W47523  13.189  14.652   2.352
80456W        W47524  26.049  14.283  14.964
80457W        W47525  27.519  24.551  12.383
80458W        W47526   8.309  39.412   2.402
80459W        W47527  32.444  28.125  12.555
80460W        W47528  20.087   6.843  10.554
80461W        W47529  42.292  33.407   1.239
80462W        W47530   9.659  27.956   0.744
80463W        W47531  18.772  12.229   4.640
80464W        W47532  29.464  15.768  12.884
80465W        W47533  26.017  33.019  13.351
80466W        W47534  43.877  37.882   2.744
80467W        W47535   4.915  16.577  14.990
80468W        W47536  30.613  11.864  12.051
80469W        W47537  22.675  23.726   4.183
80470W        W47538  37.854   5.240  13.018
80471W        W47539   8.267  43.917   2.700
80472W        W47540  15.713  44.966  10.131
80473W        W47541  15.302  14.290  10.569
80474W        W47542  22.579  18.144  14.393
80475W        W47543   2.835  40.892   1.797
80476W        W47544   6.853   9.230  14.343
80477W        W47545   5.249  15.753   1.797
80478W        W47546  18.787  43.014  14.922
80479W        W47547  20.203  37.080   2.235
80480W        W47548  21.173  19.090  13.358
80481W        W47549   9.326  43.008   3.170
80482W        W47550  26.181  40.872  11.409
80483W        W47551  18.590   4.922  14.864
80484W        W47552  29.553   7.838  10.536
80485W        W47553  26.630  33.574   1.800
80486W        W47554  23.500  31.592   0.314
80487W        W47555  29.434  10.245  13.384
80488W        W47556   6.358  37.842  12.055
80489W        W47557  42.372  17.268   0.278
80490W        W47558   6.244  37.966  13.447
80491W        W47559  27.130  34.377   1.843
80492W        W47560  28.970  27.196   1.721
80493W        W47561  44.395  33.976   3.866
80494W        W47562  32.947   3.399   3.861
80495W        W47563  29.141  29.464  13.927
80496W        W47564  21.748  18.270   3.650
80497W        W47565   1.816  35.966   2.369
80498W        W47566  41.023   1.427  10.480
80499W        W47567  26.625  41.962   0.830
80500W        W47568  27.004  16.812  10.579
80501W        W47569  16.254  35.953   1.306
80502W        W47570   1.943  38.457   1.713
80503W        W47571   1.907  16.573  10.597
80504W        W47572  16.219  24.547  12.827
80505W        W47573  25.675  43.388  13.336
80506W        W47574  40.316  39.890  11.387
80507W        W47575  17.572   4.306  12.923
80508W        W47576  36.512  26.620  11.067
80509W        W47577   3.434  19.127  14.949
80510W        W47578  36.488  14.678  10.916
80511W        W47579  31.544  35.534   1.729
80512W        W47580  18.268  43.821  11.972
80513W        W47581  25.080  27.069   2.317
80514W        W47582  12.667  23.206   1.916
80515W        W47583  32.471  22.161   0.412
80516W        W47584  41.383   7.826  10.958
80517W        W47585  33.445  16.764  10.423
80518W        W47586   5.229  40.960   3.213
80519W        W47587  20.623  44.312  12.929
80520W        W47588  41.421   0.931   3.784
80521W        W47589   4.415  10.361   0.331
80522W        W47590  25.708  27.534   4.137
80523W        W47591  30.597  25.083   2.304
80524W        W47592  28.560  20.197  11.420
80525W        W47593  24.082  29.947  13.926
80526W        W47594  22.180  11.320  11.109
80527W        W47595  35.078  32.944  13.847
80528W        W47596  16.154  22.501  13.358
80529W        W47597  24.640  40.370   4.814
80530W        W47598  18.151  43.899   0.270
80531W        W47599  26.484   0.801  12.922
80532W        W47600   0.445  23.643   3.868
80533W        W47601  30.569  39.383  14.005
80534W        W47602   3.856  32.529   3.680
80535W        W47603  20.761  22.143  14.992
80536W        W47604  25.202   3.739  13.839
80537W        W47605  31.611  39.993  11.034
80538W        W47606   5.384   0.413  10.913
80539W        W47607  22.118   3.302  10.515
80540W        W47608  43.287  23.621   3.220
80541W        W47609  29.613  22.665   0.463
80542W        W47610  31.430   4.850  14.308
80543W        W47611   6.205  19.216  10.414
80544W        W47612  23.500  37.033  10.509
80545W        W47613  19.130  33.428   4.345
80546W        W47614   4.938   6.876  13.367
80547W        W47615  35.461  21.218  13.954
80548W        W47616   2.930   8.676  12.984
80549W        W47617   1.362  17.791  13.395
80550W        W47618  19.558  17.203   4.692
80551W        W47619  41.311  10.313  11.557
80552W        W47620  42.860  27.475   2.822
80553W        W47621   2.959   4.925   3.796
80554W        W47622  44.917   3.335   2.862
80555W        W47623   7.287  37.946  10.902
80556W        W47624   7.767   8.369   1.436
80557W        W47625  11.205  33.034   4.660
80558W        W47626  24.098   3.833  12.923
80559W        W47627  12.667  12.793  10.959
80560W        W47628  26.490  39.912   3.861
80561W        W47629   3.951  21.670   1.861
80562W        W47630  23.573  31.540   2.253
80563W        W47631  16.619  11.791  12.566
80564W        W47632   3.286  11.686   3.853
80565W        W47633  20.207   1.840   5.090
80566W        W47634  42.338  20.046   1.855
80567W        W47635  33.079  43.867   4.294
80568W        W47636  21.621  17.788  11.970
80569W        W47637  32.892  26.047   9.583
80570W        W47638  27.110  22.177   3.755
80571W        W47639  33.062  27.516   2.668
80572W        W47640  23.052   2.290  12.485
80573W        W47641  17.283  23.540   0.333
80574W        W47642  27.562   3.749  10.454
80575W        W47643  41.836  18.593   2.255
80576W        W47644  12.257   1.425   1.841
80577W        W47645  31.969  26.576  10.602
80578W        W47646  40.424   1.415  12.353
80579W        W47647  20.617  17.284   3.867
80580W        W47648  39.018   7.815  10.614
80581W        W47649  17.286  35.087   4.200
80582W        W47650  14.177   1.321   2.178
80583W        W47651  40.989  44.285   0.889
80584W        W47652  40.035  25.523  13.533
80585W        W47653   9.698  31.069   2.884
80586W        W47654   5.237  33.937   0.883
80587W        W47655  29.592  11.634  10.148
80588W        W47656  31.011  11.757  12.028
80589W        W47657  24.096  11.365   3.805
80590W        W47658  42.370   0.474  13.018
80591W        W47659   4.414  28.962  11.028
80592W        W47660  33.517  28.962  10.575
80593W        W47661  16.705  19.080  12.982
80594W        W47662   8.716   7.767   1.336
80595W        W47663  18.250  28.099   4.227
80596W        W47664  36.550  37.431  13.999
80597W        W47665  33.026  21.219  10.610
80598W        W47666  31.428   1.864  10.603
80599W        W47667  33.934   0.797   2.362
80600W        W47668  23.075  25.682   3.695
80601W        W47669  20.685   2.745   1.360
80602W        W47670  34.065   8.838   3.801
80603W        W47671   2.294  32.986  11.538
80604W        W47672  11.318  40.912  11.601
80605W        W47673  38.846  17.563   0.373
80606W        W47674  19.135   2.895  11.606
80607W        W47675  35.043  35.870  12.863
80608W        W47676  32.978   9.832  14.812
80609W        W47677   9.261  18.740  13.924
80610W        W47678  30.417  23.538   1.706
80611W        W47679   0.298  12.312  11.031
80612W        W47680  11.330  27.052  10.432
80613W        W47681  19.099  43.950  13.436
80614W        W47682   4.378  25.638   4.630
80615W        W47683  25.096  13.202   1.229
80616W        W47684  24.598  17.775   3.379
80617W        W47685  42.781   8.747   4.114
80618W        W47686  35.861  14.782   3.165
80619W        W47687  23.205   0.890   2.862
80620W        W47688  28.994  36.573   4.286
80621W        W47689  40.408  38.054  14.940
80622W        W47690  21.745   7.324  14.876
80623W        W47691   1.881  13.799   1.803
80624W        W47692  36.352  20.167  14.971
80625W        W47693  30.140  44.287  14.304
80626W        W47694  37.936  17.126  11.961
80627W        W47695   5.898  13.709  14.439
80628W        W47696  35.544  32.505   0.728
80629W        W47697   9.694  27.944  14.020
80630W        W47698  11.845   3.822  14.378
80631W        W47699  37.532   3.843  14.827
80632W        W47700  25.995  24.182   4.250
80633W        W47701  24.190  16.676  10.017
80634W        W47702  26.985   3.246   5.259
80635W        W47703   1.854  26.666  14.882
80636W        W47704  14.224   2.269   3.791
80637W        W47705  34.883  34.396   0.325
80638W        W47706   7.331  25.540   3.274
80639W        W47707  39.983  25.687   4.729
80640W        W47708   1.470  22.645  13.447
80641W        W47709  37.011  35.986  12.368
80642W        W47710  32.900  35.022   2.894
80643W        W47711  37.520  14.155   4.160
80644W        W47712  22.524  16.694   2.398
80645W        W47713  27.614  29.056  13.322
80646W        W47714   7.315  32.063  12.396
80647W        W47715  28.540  29.112   1.816
80648W        W47716  29.643  14.656   0.332
80649W        W47717  34.086  18.156   4.224
80650W        W47718  12.704  20.134   3.821
80651W        W47719  22.592  16.777   3.321
80652W        W47720   1.742   3.318   2.188
80653W        W47721  17.137  44.441  10.074
80654W        W47722  32.125  19.213   3.278
80655W        W47723   8.694   6.342   2.235
80656W        W47724  37.376   7.841  12.824
80657W        W47725  16.711  40.983   3.813
80658W        W47726  30.481  15.133  14.327
80659W        W47727  33.440  40.470   4.793
80660W        W47728  44.402  35.995   1.322
80661W        W47729  30.968  23.093   3.686
80662W        W47730  38.432  28.661   1.723
80663W        W47731   6.854  26.631   3.224
80664W        W47732  22.592  25.995   2.355
80665W        W47733  41.358  29.103   1.362
80666W        W47734  41.843  35.397  14.861
80667W        W47735  36.096  35.988  11.434
80668W        W47736  43.374  24.607   4.275
80669W        W47737  41.979  37.390  12.843
80670W        W47738  32.913  15.583   5.196
80671W        W47739   8.899  22.510   2.729
80672W        W47740  32.480  36.499  10.463
80673W        W47741  14.784  40.460  10.536
80674W        W47742  26.592   5.318   2.723
80675W        W47743   0.338  18.202   0.288
80676W        W47744  18.221   0.938  13.970
80677W        W47745  26.625  31.906   5.117
80678W        W47746  27.099  30.591  14.314
80679W        W47747  41.321  17.613  12.430
80680W        W47748  12.843  33.624  11.511
80681W        W47749   4.839   8.661   0.404
80682W        W47750   8.359   2.805   1.254
80683W        W47751   1.923  16.744   4.183
80684W        W47752  42.842  31.546   3.165
80685W        W47753  40.545  21.748   3.735
80686W        W47754  12.850  18.075   2.857
80687W        W47755   9.226  19.165   2.356
80688W        W47756   5.880  30.592  10.567
80689W        W47757  15.786  20.680  10.903
80690W        W47758  41.009  19.553   3.344
80691W        W47759  18.254  15.104  12.896
80692W        W47760  39.005  24.571   3.239
80693W        W47761   0.797  44.005   4.319
80694W        W47762  20.588  30.654  14.450
80695W        W47763  16.804   3.241  13.915
80696W        W47764  42.914  14.285   4.719
80697W        W47765   8.252  19.064  12.079
80698W        W47766  24.020   7.309   2.863
80699W        W47767  40.926   6.830  12.573
80700W        W47768   8.175  24.546   4.239
80701W        W47769  20.239  21.241  13.927
80702W        W47770  21.670   5.699   2.865
80703W        W47771  13.707  41.825  11.013
80704W        W47772  12.823   6.829  14.917
80705W        W47773   5.868  30.547   0.836
80706W        W47774   9.330  38.531  11.574
80707W        W47775   9.185  31.486  14.978
80708W        W47776  21.572  40.448  12.856
80709W        W47777  35.024   0.879   2.410
80710W        W47778  22.123  26.496  11.527
80711W        W47779  27.081  13.172   0.292
80712W        W47780  34.997  37.015   1.357
80713W        W47781  41.955   5.918   3.722
80714W        W47782  26.052  39.367  13.900
80715W        W47783   9.261  21.692   3.175
80716W        W47784   4.884   9.704  11.464
80717W        W47785   2.835   0.796   2.380
80718W        W47786  15.648  40.835   0.442
80719W        W47787  21.647   2.269  13.343
80720W        W47788  42.329  35.074   0.418
80721W        W47789  14.197  34.583  12.488
80722W        W47790  10.373  39.927  11.021
80723W        W47791  32.442  12.283   1.415
80724W        W47792  33.924  30.531  12.364
80725W        W47793  23.214  26.494   1.253
80726W        W47794  41.969  23.544  11.559
80727W        W47795  22.513  28.098  13.902
80728W        W47796  33.947  31.071   1.384
80729W        W47797   2.349  44.919  10.461
80730W        W47798  10.144  28.040  14.901
80731W        W47799  36.897  13.836   3.701
80732W        W47800  31.614  28.435   2.419
80733W        W47801  19.048  23.080   3.832
80734W        W47802  15.582  38.940   0.818
80735W        W47803  19.204  15.248   4.666
80736W        W47804  42.936  11.673   0.737
80737W        W47805  35.037  24.647  11.857
80738W        W47806  17.720  31.443  10.527
80739W        W47807  26.082   7.269  11.375
80740W        W47808  30.602   0.468  12.041
80741W        W47809  36.583   5.245   2.775
80742W        W47810  29.138  14.338   3.284
80743W        W47811   5.247   4.889   3.378
80744W        W47812  40.034  44.260   3.666
80745W        W47813  33.070  31.915   1.751
80746W        W47814  44.380   6.407   3.800
80747W        W47815  29.994   1.431   3.203
80748W        W47816  44.340   1.467   0.364
80749W        W47817  40.513  44.305  10.480
80750W        W47818  31.446  23.136   0.913
80751W        W47819  21.059  11.313  13.320
80752W        W47820  35.949   6.222  13.356
80753W        W47821  15.609  43.356  12.436
80754W        W47822   4.871   1.953  14.024
80755W        W47823  35.063   8.762   0.368
80756W        W47824  28.560   3.225  10.618
80757W        W47825  15.611  41.326  14.490
80758W        W47826  18.636  42.895  10.063
80759W        W47827  28.935  30.519   2.367
80760W        W47828  24.575  42.524   1.699
80761W        W47829   8.854  30.636  13.340
80762W        W47830   2.400  32.131   0.332
80763W        W47831  34.566  11.292   3.841
80764W        W47832  36.480   6.269   2.407
80765W        W47833  16.733  31.060   0.476
80766W        W47834   6.291  25.590   4.291
80767W        W47835  40.441   5.753  13.058
80768W        W47836  24.093   2.387   2.217
80769W        W47837  44.882  11.752  13.542
80770W        W47838  42.022   2.301   1.711
80771W        W47839  40.946  24.061  10.437
80772W        W47840   3.264  30.121   4.300
80773W        W47841  12.227  16.662  12.975
80774W        W47842  39.445   6.706   4.633
80775W        W47843  15.150  38.064  10.505
80776W        W47844  27.145  10.178  14.767
80777W        W47845  20.084  41.494  10.939
80778W        W47846   9.684  17.631   4.217
80779W        W47847   4.224  37.484  12.046
80780W        W47848  40.487  37.863   4.802
80781W        W47849   4.350   9.359   2.306
80782W        W47850  36.073  32.560  12.375
80783W        W47851  11.742  17.112  14.358
80784W        W47852  19.666  19.164   1.835
80785W        W47853  38.471  26.102  12.072
80786W        W47854  27.119  37.043   4.754
80787W        W47855   8.371  34.116  12.991
80788W        W47856  37.514  15.620   5.173
80789W        W47857  39.369  16.229  14.889
80790W        W47858  31.445  14.196  13.396
80791W        W47859  22.075  14.334   4.306
80792W        W47860   8.825  34.457   0.800
80793W        W47861  34.436   3.889   3.736
80794W        W47862  10.171  33.894   2.868
80795W        W47863  14.789   2.823  13.524
80796W        W47864   0.850  15.205  11.063
80797W        W47865  36.947  24.656   2.181
80798W        W47866   7.813  42.461   0.931
80799W        W47867  22.535   6.843  14.492
80800W        W47868  14.769  17.706   3.831
80801W        W47869  25.195  39.996   4.619
80802W        W47870   7.382  43.827   0.384
80803W        W47871   9.377  42.281   1.794
80804W        W47872  18.095   6.387  12.859
80805W        W47873  32.046  13.316  11.860
80806W        W47874  39.432  30.981  12.043
80807W        W47875  14.744   0.418   2.260
80808W        W47876   7.307  18.784  11.431
80809W        W47877  34.988  32.425  12.541
80810W        W47878   9.309  14.202  12.388
80811W        W47879  38.033  18.727   0.478
80812W        W47880  27.482  34.397   0.434
80813W        W47881   0.434  25.712  14.379
80814W        W47882  25.213  20.646   2.262
80815W        W47883  18.718  32.961  14.368
80816W        W47884  18.097  27.060   3.686
80817W        W47885  16.207  27.017  11.541
80818W        W47886  34.064  17.164  12.476
80819W        W47887  28.045   3.864  12.558
80820W        W47888  17.637   3.356   1.393
80821W        W47889  10.707  24.000  11.547
80822W        W47890  17.623   1.442   0.918
80823W        W47891  10.312  31.596   3.699
80824W        W47892  41.297  39.515   4.633
80825W        W47893  40.014   6.193   4.727
80826W        W47894  21.020   2.838   2.392
80827W        W47895  30.619   9.299   0.893
80828W        W47896  31.935  28.487  12.957
80829W        W47897   9.167  43.871  12.571
80830W        W47898  10.311   1.256  11.404
80831W        W47899  30.579  35.530   2.255
80832W        W47900  36.914   1.400   2.847
80833W        W47901  13.108  36.019   4.623
80834W        W47902  28.962  43.432  11.018
80835W        W47903  41.981  23.066  13.997
80836W        W47904  10.863  26.643   0.480
80837W        W47905   6.890  34.384   1.740
80838W        W47906  17.107  24.045   3.740
80839W        W47907  41.534   8.285   3.150
80840W        W47908  12.796   8.233  10.469
80841W        W47909   7.384  15.205  12.377
80842W        W47910  35.397   9.268  11.512
80843W        W47911   5.309  12.161   3.712
80844W        W47912  40.350  21.552  11.586
80845W        W47913  12.653  25.640   4.838
80846W        W47914  43.445  19.649   1.424
80847W        W47915   2.361   3.875  10.961
80848W        W47916  29.583   9.861  14.371
80849W        W47917  34.099  25.088   3.191
80850W        W47918  23.209  27.665  13.307
80851W        W47919   9.800   6.202  10.545
80852W        W47920  20.100  18.752   4.224
80853W        W47921   1.774   7.200   4.636
80854W        W47922  38.477   3.323  11.110
80855W        W47923  44.816   6.354  11.404
80856W        W47924  17.199  23.699  10.086
80857W        W47925  41.365   2.328   0.249
80858W        W47926  18.226   0.364  12.539
80859W        W47927  39.910  34.095  14.482
80860W        W47928  44.847   0.371   4.682
80861W        W47929  33.031   4.398   0.443
80862W        W47930  19.243  21.249  10.070
80863W        W47931  13.222  15.263  10.908
80864W        W47932  15.644  19.706  12.069
80865W        W47933  33.014  25.138   1.307
80866W        W47934  44.371   2.453  12.374
80867W        W47935  25.633  13.327   0.892
80868W        W47936  38.074  15.780  13.450
80869W        W47937  18.574  13.165  11.489
80870W        W47938   1.900  36.492   4.790
80871W        W47939  29.606  15.120   0.918
80872W        W47940  36.572  19.705   0.369
80873W        W47941  22.127  30.106   0.885
80874W        W47942  25.123  40.025  13.350
80875W        W47943  14.828  14.619  13.910
80876W        W47944   8.284  44.314   4.126
80877W        W47945  38.998   8.752  12.823
80878W        W47946  20.749  35.864  12.872
80879W        W47947  34.557   7.408  11.987
80880W        W47948  11.749  21.695   2.249
80881W        W47949  32.539  37.949   2.230
80882W        W47950  18.680  39.550   2.830
80883W        W47951   2.344   1.281  11.128
80884W        W47952  19.048  39.047  11.465
80885W        W47953  38.920  32.924  14.907
80886W        W47954  12.276  32.965   4.199
80887W        W47955  39.405  12.833  13.534
80888W        W47956  17.238   6.418  11.502
80889W        W47957  12.822  36.941   0.421
80890W        W47958  36.523   1.290  14.877
80891W        W47959  36.421  34.487   2.373
80892W        W47960  16.242  12.124   0.741
80893W        W47961  21.608   1.290   3.744
80894W        W47962  38.901  39.502   0.250
80895W        W47963  42.433  33.035   1.441
80896W        W47964  36.376  25.586  11.129
80897W        W47965   2.824  33.495   1.302
80898W        W47966   6.236   5.688   4.771
80899W        W47967  13.831  23.659  11.030
80900W        W47968  24.479  15.297   4.305
80901W        W47969  22.207   5.414  14.869
80902W        W47970   6.725  36.028  12.503
80903W        W47971  41.888  28.596   2.691
80904W        W47972  35.855   3.451   1.882
80905W        W47973  33.406   9.264   1.715
80906W        W47974  38.496  39.317  13.414
80907W        W47975  36.891  43.293  10.909
80908W        W47976  39.424  20.060   3.790
80909W        W47977   3.247  20.638  13.485
80910W        W47978   9.834  39.539   2.875
80911W        W47979   1.317  29.522  13.855
80912W        W47980   6.424  35.520   4.712
80913W        W47981   5.834  27.529  12.442
80914W        W47982  39.973  13.117  14.515
80915W        W47983  22.665  28.529  14.785
80916W        W47984   0.487   8.171  12.031
80917W        W47985  37.383   9.743  13.348
80918W        W47986  38.453   2.921   2.860
80919W        W47987   6.216  25.559   0.810
80920W        W47988   5.271  29.104   3.227
80921W        W47989  33.968  19.200   0.423
80922W        W47990  11.236  18.565  14.972
80923W        W47991   7.399  42.796  12.872
80924W        W47992  36.872  23.144   2.302
80925W        W47993  31.052   2.902   0.343
80926W        W47994  28.450  25.161  12.973
80927W        W47995  36.049  42.503   2.663
80928W        W47996  42.818  39.456  12.507
80929W        W47997   9.858  17.571   0.801
80930W        W47998  29.662  43.789  14.347
80931W        W47999   7.394  39.410   0.903
80932W        W48000  19.668   4.939  12.473
80933W        W48001  17.731  44.802   4.329
80934W        W48002  32.060  17.099  14.004
80935W        W48003  10.338  40.042  13.430
80936W        W48004  14.236   4.724   2.419
80937W        W48005  10.374   6.723   3.253
80938W        W48006  26.582  16.744   4.184
80939W        W48007   9.746  29.532   2.869
80940W        W48008  17.645  43.972   4.791
80941W        W48009   8.682  39.416   4.728
80942W        W48010  16.753  29.505  14.830
80943W        W48011  14.177  20.624   2.264
80944W        W48012   1.288  38.041   2.679
80945W        W48013   1.428  30.511   1.793
80946W        W48014  26.564  13.176   2.389
80947W        W48015   1.921  27.957  10.536
80948W        W48016  36.058  10.350  11.467
80949W        W48017  27.000  35.450  13.388
80950W        W48018  31.443  17.208  13.452
80951W        W48019  18.150  40.886  11.059
80952W        W48020  21.113  11.849   2.875
80953W        W48021  43.847   1.401  12.370
80954W        W48022  24.981  13.113   2.274
80955W        W48023  36.482  10.812  14.325
80956W        W48024  10.244  21.651   0.879
80957W        W48025  39.345  25.477  12.005
80958W        W48026  31.090  36.989  13.414
80959W        W48027  29.424  21.655   3.789
80960W        W48028  35.489  34.568  12.541
80961W        W48029   2.957   7.234   1.787
80962W        W48030  26.973   8.337  10.487
80963W        W48031  30.490   7.678  13.840
80964W        W48032  16.288  18.231   1.226
80965W        W48033  27.046  22.563   3.781
80966W        W48034  24.156   7.352  13.916
80967W        W48035  39.547  12.159   0.749
80968W        W48036  35.064  15.183  12.961
80969W        W48037  12.170  10.636   3.204
80970W        W48038   6.279   7.232  13.064
80971W        W48039  38.823   2.371  12.490
80972W        W48040  23.570  14.738  11.950
80973W        W48041  32.069  15.613  14.441
80974W        W48042  42.968  37.030   1.347
80975W        W48043  27.507  44.810  14.407
80976W        W48044  34.022  29.655   3.220
80977W        W48045  41.018  14.721  12.480
80978W        W48046   4.285  12.815   0.383
80979W        W48047  44.333  19.159  10.557
80980W        W48048  20.203  28.029   4.714
80981W        W48049  29.552  34.071   2.401
80982W        W48050  27.950   0.812  11.487
80983W        W48051  33.961  24.987   0.823
80984W        W48052  37.977  34.413  10.532
80985W        W48053  27.687  27.955  13.984
80986W        W48054  42.484  21.035  11.089
80987W        W48055  25.559   8.346   4.717
80988W        W48056  40.936  26.626  12.347
80989W        W48057   4.274  18.640   0.356
80990W        W48058   8.684  19.619  14.504
80991W        W48059  23.077  21.120  10.551
80992W        W48060   5.793  25.564  12.501
80993W        W48061  14.748   6.688  10.994
80994W        W48062  10.220  20.694  12.434
80995W        W48063  32.057  35.948  10.642
80996W        W48064  20.609  38.353   4.130
80997W        W48065  28.645   5.847  14.841
80998W        W48066   1.752  19.150  11.598
80999W        W48067  39.873   0.290   4.331
81000W        W48068  27.069   5.321   1.706
81001W        W48069  33.573   0.336  12.931
81002W        W48070  40.848  15.141  10.450
81003W        W48071  43.963  10.666   3.779
81004W        W48072  43.906  23.095  12.523
81005W        W48073  12.700   3.752   3.718
81006W        W48074   5.853  33.507   4.744
81007W        W48075   5.705  28.039  13.500
81008W        W48076  42.020  10.734  13.957
81009W        W48077  16.141  17.296  14.481
81010W        W48078  43.022  11.134   4.197
81011W        W48079   3.258  17.252  14.853
81012W        W48080  10.313   5.358   0.358
81013W        W48081  35.949  31.480  11.987
81014W        W48082   7.807  19.225   1.238
81015W        W48083   6.375  43.366  13.928
81016W        W48084   1.771   2.823  11.084
81017W        W48085  36.522  28.617   1.918
81018W        W48086  21.745  23.038   4.144
81019W        W48087  31.944  25.068  11.927
81020W        W48088  43.269   2.784  14.338
81021W        W48089  11.252  40.304   0.307
81022W        W48090  43.778  14.096  10.548
81023W        W48091  43.862  35.036   0.338
81024W        W48092  31.631  19.575   2.710
81025W        W48093   4.912   3.342  12.480
81026W        W48094  10.832  30.439  14.495
81027W        W48095  31.902  18.596   0.411
81028W        W48096  22.139  14.617  13.343
81029W        W48097  19.623  44.398   1.288
81030W        W48098   7.790  22.604  11.861
81031W        W48099  10.645  18.610  10.440
81032W        W48100   6.700  32.394   4.346
81033W        W48101  28.004  40.358   0.343
81034W        W48102   7.208  21.136   2.742
81035W        W48103  11.319   5.200   2.273
81036W        W48104  16.211  38.472   3.791
81037W        W48105  17.260  25.112  12.969
81038W        W48106  34.888  14.237   0.959
81039W        W48107  18.598  30.452  13.348
81040W        W48108   9.793  40.345  12.555
81041W        W48109   4.867   4.255  11.378
81042W        W48110  10.835   3.816  12.948
81043W        W48111   8.895   2.866   3.180
81044W        W48112  19.259  19.698   3.760
81045W        W48113   9.741  43.414   2.368
81046W        W48114  30.554  19.667   0.804
81047W        W48115  21.712  26.519   2.793
81048W        W48116  24.632  11.341   3.337
81049W        W48117  29.087  31.623   3.302
81050W        W48118  19.662  42.471  12.519
81051W        W48119   3.837  38.928   3.835
81052W        W48120  16.117  38.028   1.776
81053W        W48121  35.385  12.155   1.374
81054W        W48122  16.683   7.762  14.937
81055W        W48123  15.671   9.335  12.551
81056W        W48124   1.796  20.554   3.285
81057W        W48125  29.014  15.620  13.414
81058W        W48126  40.314  40.442   1.261
81059W        W48127  24.154  28.630  14.856
81060W        W48128  19.558  15.607   2.280
81061W        W48129  33.926  38.032   3.319
81062W        W48130   7.270   5.748   1.398
81063W        W48131  14.798  44.453  11.983
81064W        W48132  29.573   6.329   2.333
81065W        W48133  40.307   9.737   3.664
81066W        W48134   5.235  25.492  13.337
81067W        W48135  36.407  27.157  14.310
81068W        W48136   6.209  42.424   0.911
81069W        W48137  40.472   6.200   3.370
81070W        W48138  12.352  17.094  12.518
81071W        W48139  14.707  44.880   1.880
81072W        W48140  26.506  38.834  14.024
81073W        W48141   4.938  22.695  10.544
81074W        W48142  13.290   6.274  11.424
81075W        W48143  30.602  41.800  11.521
81076W        W48144  40.043  39.984   3.756
81077W        W48145  15.584  39.428   1.912
81078W        W48146  12.280  43.904  14.323
81079W        W48147   9.757  30.487   2.293
81080W        W48148  40.960  24.981   2.203
81081W        W48149  25.122  21.066   0.315
81082W        W48150  30.419  42.962   4.743
81083W        W48151  43.780  35.498   0.746
81084W        W48152  26.182  34.389  14.405
81085W        W48153  16.253  17.127   2.331
81086W        W48154   4.723  36.546   4.606
81087W        W48155  34.942  28.453  12.883
81088W        W48156  11.724  40.860  13.494
81089W        W48157  29.007   6.879   4.790
81090W        W48158  38.566  10.186  12.497
81091W        W48159  40.427  41.465   3.228
81092W        W48160  29.094  37.943   4.216
81093W        W48161   1.287   7.172   1.237
81094W        W48162  15.179  24.567   1.859
81095W        W48163  14.699  26.107  14.330
81096W        W48164   3.923  26.613  12.977
81097W        W48165  30.533  43.838  12.449
81098W        W48166   9.212   5.242  12.915
81099W        W48167   4.723  13.266   1.237
81100W        W48168  30.917  26.143   1.294
81101W        W48169   2.405  10.651  10.998
81102W        W48170  44.368  32.613   3.233
81103W        W48171   8.219  32.982   4.703
81104W        W48172  42.960  31.408  14.911
81105W        W48173   9.723  22.164  11.376
81106W        W48174  38.900  39.331  13.505
81107W        W48175  19.132   2.799   0.925
81108W        W48176  30.937  39.975  14.304
81109W        W48177   3.222   5.340  12.850
81110W        W48178  26.205  34.474  12.380
81111W        W48179  36.407   9.760  11.573
81112W        W48180   9.382  38.828  11.994
81113W        W48181   4.244  33.066   4.701
81114W        W48182  15.311  24.123  13.837
81115W        W48183   5.277   2.743   2.317
81116W        W48184  21.022  31.998   1.433
81117W        W48185  42.473   6.402  13.435
81118W        W48186  40.959  22.996  10.476
81119W        W48187   7.359  22.209   2.366
81120W        W48188  21.725  37.908  13.323
81121W        W48189  43.455  41.844   2.692
81122W        W48190  35.007  29.951  13.014
81123W        W48191  21.232  22.586  13.809
81124W        W48192  38.968   8.731  11.047
81125W        W48193  13.150  21.114  11.097
81126W        W48194  37.470  20.118  12.368
81127W        W48195   6.273  14.669   0.774
81128W        W48196  12.726  41.998  11.606
81129W        W48197  36.480  30.042  11.550
81130W        W48198  37.056  43.515   0.348
81131W        W48199  18.735   9.689   5.118
81132W        W48200  41.911   1.831   4.177
81133W        W48201   2.364  23.537   2.728
81134W        W48202  25.143  37.464  14.315
81135W        W48203   6.741  41.458  14.356
81136W        W48204  26.207  20.201   0.324
81137W        W48205   2.884  38.330   2.340
81138W        W48206   3.786  33.001  13.963
81139W        W48207  43.897  20.158  12.427
81140W        W48208   7.233  21.189   4.638
81141W        W48209   7.742   4.207  10.414
81142W        W48210  13.258  23.141  10.513
81143W        W48211  25.690  20.108   0.269
81144W        W48212  43.807  10.341   3.649
81145W        W48213   5.790  12.308   0.391
81146W        W48214   4.307  33.458  13.807
81147W        W48215  36.568  16.198   4.689
81148W        W48216  40.499  38.406  13.978
81149W        W48217  41.504  14.677  14.007
81150W        W48218  17.651  41.308   0.733
81151W        W48219  43.380  38.037  14.331
81152W        W48220  21.037  11.753   4.327
81153W        W48221  44.336  27.977  13.012
81154W        W48222  35.955  38.414  13.914
81155W        W48223   9.382  18.090  14.932
81156W        W48224   5.349  33.572   2.290
81157W        W48225  44.957  33.550   2.668
81158W        W48226   2.366   2.327  12.429
81159W        W48227  34.007  32.954  12.004
81160W        W48228   7.697  30.120   0.294
81161W        W48229  13.246  18.788  13.795
81162W        W48230   7.889   3.741   3.731
81163W        W48231  42.835  35.916  13.473
81164W        W48232  35.939  20.531   4.833
81165W        W48233   9.680  31.418   0.856
81166W        W48234  23.139   4.274   3.795
81167W        W48235  25.497  23.141  14.965
81168W        W48236  10.368  18.099  10.560
81169W        W48237  20.625  44.911  11.003
81170W        W48238  13.193  23.617   4.310
81171W        W48239  28.158  23.497   3.302
81172W        W48240  28.620  42.857  11.961
81173W        W48241  30.915   2.844   1.385
81174W        W48242   5.840  29.960  12.342
81175W        W48243   4.856  32.441  13.060
81176W        W48244  19.236  15.749  10.591
81177W        W48245  29.075   9.795  11.422
81178W        W48246  40.329  44.832   1.405
81179W        W48247  12.794   4.238   4.695
81180W        W48248  27.627  36.885  14.888
81181W        W48249  33.485  15.083   4.606
81182W        W48250  31.038   7.764   0.355
81183W        W48251  27.944  29.948  10.095
81184W        W48252  15.597   8.379   3.332
81185W        W48253  31.024  25.547   3.836
81186W        W48254   8.802   5.768   1.695
81187W        W48255  23.634   0.770  12.838
81188W        W48256  32.473  21.241  12.971
81189W        W48257  39.314  25.663  11.497
81190W        W48258  40.801  43.355   2.282
81191W        W48259  21.568   9.216   3.654
81192W        W48260  14.756  41.468  13.846
81193W        W48261  21.558   8.822   5.083
81194W        W48262  25.137  32.046   0.444
81195W        W48263  27.966   4.777  11.000
81196W        W48264  42.862  24.596  10.437
81197W        W48265  21.098  13.261   4.799
81198W        W48266  29.098  29.446  13.511
81199W        W48267  28.487   7.232   1.327
81200W        W48268  13.624   5.750  12.962
81201W        W48269  44.479  25.553  14.831
81202W        W48270  24.673  37.045   3.785
81203W        W48271  13.262  41.520  13.414
81204W        W48272  27.614   7.262  11.860
81205W        W48273   4.884  44.778   1.716
81206W        W48274  39.833  32.009  14.491
81207W        W48275  11.270  16.640  14.826
81208W        W48276  40.350  16.586  10.415
81209W        W48277  29.051   3.933  10.532
81210W        W48278  30.472  35.427  13.911
81211W        W48279   6.705  13.149  13.317
81212W        W48280  28.493  29.080  12.828
81213W        W48281  11.671   0.916   2.693
81214W        W48282   5.778   3.955   3.204
81215W        W48283  31.053  32.064   1.807
81216W        W48284  29.115  39.503  14.829
81217W        W48285   1.358  40.516   2.229
81218W        W48286  34.514   1.822  12.081
81219W        W48287  27.535  43.797  13.488
81220W        W48288  15.724   6.359   2.351
81221W        W48289  44.843  31.645   4.171
81222W        W48290  23.595   1.928   4.838
81223W        W48291  35.983  27.068  12.552
81224W        W48292  23.189  23.681  14.432
81225W        W48293  28.617  34.573   0.357
81226W        W48294  23.228  31.487  12.982
81227W        W48295  32.458  25.006   1.770
81228W        W48296  43.408  43.445   4.714
81229W        W48297  12.619   6.335   3.325
81230W        W48298  11.705  12.269   1.927
81231W        W48299   8.334  26.985  11.909
81232W        W48300   8.752  39.025  14.876
81233W        W48301  10.667  14.167   1.913
81234W        W48302  18.067  35.035   1.889
81235W        W48303  33.580  42.862  10.426
81236W        W48304  36.021  42.886  11.426
81237W        W48305   1.954  23.733   4.343
81238W        W48306  33.093   4.252   4.717
81239W        W48307  39.456  32.554   4.171
81240W        W48308  19.285  23.999   2.316
81241W        W48309  33.129   3.322  13.888
81242W        W48310   5.368   5.343   1.426
81243W        W48311  10.657  18.276   1.903
81244W        W48312  27.521   4.855   0.762
81245W        W48313  10.806  37.075   1.251
81246W        W48314   0.438  13.173  13.057
81247W        W48315  39.332   1.853  12.496
81248W        W48316  38.861  16.732  10.901
81249W        W48317   5.787  40.029   3.693
81250W        W48318  32.581  27.180  10.588
81251W        W48319   2.818   1.745   0.933
81252W        W48320  33.587  35.592  10.110
81253W        W48321   4.314  12.847  10.575
81254W        W48322  38.420   8.860   3.758
81255W        W48323  11.766  13.626  14.943
81256W        W48324  13.277  12.339  13.367
81257W        W48325  20.662  41.839   4.654
81258W        W48326  14.189  10.165   4.152
81259W        W48327  17.133   9.208  11.000
81260W        W48328  36.993   2.848  11.022
81261W        W48329   8.342   5.809  10.520
81262W        W48330  33.067  23.490  12.396
81263W        W48331  22.199  26.057   4.638
81264W        W48332  35.471  42.425  12.410
81265W        W48333  40.864  14.314  13.392
81266W        W48334  14.319  40.542   1.740
81267W        W48335  33.933  27.641   1.337
81268W        W48336  43.469  38.375   0.771
81269W        W48337   6.276   6.805   3.200
81270W        W48338  33.922  22.585  10.596
81271W        W48339  29.091  23.575  13.508
81272W        W48340  44.968  19.752  10.587
81273W        W48341  24.222  37.955  13.924
81274W        W48342  14.646  38.054   2.849
81275W        W48343   8.814  39.982  14.422
81276W        W48344   9.258  33.072   3.242
81277W        W48345  12.289  12.823  11.604
81278W        W48346   5.701  30.081  14.790
81279W        W48347  27.137  34.926  10.990
81280W        W48348  23.196  37.440   5.137
81281W        W48349  39.544  20.708  14.923
81282W        W48350  24.179   4.877  12.349
81283W        W48351  44.802   6.822   4.681
81284W        W48352  20.159   3.839  13.992
81285W        W48353  30.466   6.354  14.947
81286W        W48354  13.106  34.486  13.451
81287W        W48355   1.298  24.540  14.317
81288W        W48356  37.454  36.913   1.348
81289W        W48357  22.150  30.446   2.700
81290W        W48358  26.023  44.861  14.998
81291W        W48359  14.255  42.299  13.874
81292W        W48360  35.568  37.348   2.716
81293W        W48361  28.098   8.205   4.264
81294W        W48362  36.036  23.607   3.229
81295W        W48363  39.541  14.142  12.342
81296W        W48364   7.869  34.423  14.379
81297W        W48365  19.640  17.719  12.864
81298W        W48366  44.776  14.097   5.126
81299W        W48367  21.246  34.034   2.692
81300W        W48368   0.364  32.895   2.810
81301W        W48369  21.713  38.477   0.309
81302W        W48370   7.689  28.183  13.984
81303W        W48371  14.742  36.098  13.059
81304W        W48372  24.649  28.116   4.717
81305W        W48373  27.135  39.896  14.285
81306W        W48374   5.922  38.974  14.779
81307W        W48375  26.618  32.459   2.370
81308W        W48376  10.144   5.257  14.760
81309W        W48377  28.654  25.576   4.635
81310W        W48378  27.665  28.601   2.890
81311W        W48379  39.465  16.627   0.834
81312W        W48380  34.403  38.497   4.643
81313W        W48381   3.223  12.252   0.353
81314W        W48382  31.577  10.316   1.715
81315W        W48383   8.238   9.811  14.769
81316W        W48384  34.098  14.338  13.351
81317W        W48385  23.701  31.410   3.683
81318W        W48386  24.620  24.549  12.908
81319W        W48387   2.326  19.684   3.379
81320W        W48388  18.634  26.975  12.558
81321W        W48389  21.556  15.175   2.262
81322W        W48390  37.510  21.190  14.451
81323W        W48391  13.756  26.107   4.266
81324W        W48392   7.381  15.657  14.833
81325W        W48393  44.869   8.260   3.186
81326W        W48394  21.730  35.864   3.867
81327W        W48395  28.651   4.766   3.817
81328W        W48396  17.278  44.000   0.465
81329W        W48397  14.679  39.447  11.105
81330W        W48398   0.953  22.524  13.357
81331W        W48399  39.977  28.144  13.000
81332W        W48400   0.336  14.714  13.465
81333W        W48401  30.068  42.414   0.936
81334W        W48402  41.815  23.173   4.177
81335W        W48403   0.320  38.987  13.316
81336W        W48404   3.286  18.725   4.636
81337W        W48405  14.255  19.225  13.544
81338W        W48406   1.392  13.332   3.199
81339W        W48407  15.668  26.094  14.364
81340W        W48408  21.106  26.697  13.852
81341W        W48409  43.959  16.221  11.892
81342W        W48410  36.368   5.326   0.480
81343W        W48411  23.529   6.883   3.289
81344W        W48412  18.182  34.369  12.467
81345W        W48413   3.846  18.121  13.961
81346W        W48414   2.248   9.713   3.823
81347W        W48415  12.835  23.145  11.044
81348W        W48416   9.660  12.759   0.965
81349W        W48417   1.814  29.986  12.868
81350W        W48418  17.749  35.020  11.537
81351W        W48419   9.262  15.731  14.793
81352W        W48420  21.675  39.972  12.351
81353W        W48421   1.474  14.159  11.551
81354W        W48422  21.256  24.503   3.194
81355W        W48423  37.416   1.480   0.758
81356W        W48424   0.379  10.648  11.423
81357W        W48425  17.268   5.320  11.430
81358W        W48426  18.715  22.522   3.673
81359W        W48427   4.914  15.112   2.716
81360W        W48428  15.262  26.538  11.894
81361W        W48429  40.457  19.738   0.395
81362W        W48430   3.333  16.700   3.764
81363W        W48431   8.270  40.877  14.326
81364W        W48432  28.120  42.966  14.413
81365W        W48433  24.490  35.474   1.750
81366W        W48434  31.035  40.504   0.276
81367W        W48435  29.429  23.022   0.329
81368W        W48436  28.966  15.686   5.241
81369W        W48437  32.492  28.170   2.405
81370W        W48438  29.471  11.163  14.477
81371W        W48439   4.942  20.578  13.317
81372W        W48440  36.360   0.355  10.995
81373W        W48441   4.350  35.999  14.385
81374W        W48442  14.797  10.251   2.683
81375W        W48443   0.783   4.332  11.564
81376W        W48444  44.422  33.039  14.761
81377W        W48445  35.466  17.135   1.921
81378W        W48446  39.454  11.126  14.832
81379W        W48447  13.126   8.291  11.397
81380W        W48448  12.766   8.173   1.737
81381W        W48449  35.439   1.817   1.817
81382W        W48450  14.697  11.343  11.574
81383W        W48451  27.064  11.671  13.836
81384W        W48452  22.578  41.014   2.728
81385W        W48453  32.622  33.944  11.928
81386W        W48454  25.702  28.500   0.874
81387W        W48455   6.858   0.253   1.362
81388W        W48456  10.875  25.628   4.344
81389W        W48457  12.724  40.380  11.075
81390W        W48458  26.555  25.023   2.701
81391W        W48459  38.417   6.378   0.394
81392W        W48460   4.379  13.625  13.062
81393W        W48461  40.404   7.692  12.551
81394W        W48462  35.999  15.669  11.973
81395W        W48463  32.089  21.218   5.122
81396W        W48464  36.848  29.573  13.978
81397W        W48465  34.965  14.240   3.201
81398W        W48466   8.659  40.864   2.244
81399W        W48467  38.020  44.758  13.426
81400W        W48468  39.539  38.498  14.922
81401W        W48469  35.873   0.413   4.127
81402W        W48470  15.588   5.758  11.938
81403W        W48471  11.136  36.995   0.271
81404W        W48472  35.865  30.939   0.854
81405W        W48473  30.658  24.064   2.201
81406W        W48474  12.356  38.350  13.498
81407W        W48475  18.599  25.567  11.917
81408W        W48476  13.280  19.042  14.313
81409W        W48477  28.502  21.687  12.982
81410W        W48478   1.768  23.606   3.315
81411W        W48479  44.471   3.449  11.120
81412W        W48480   2.328  22.510   4.115
81413W        W48481   8.821  31.636   0.841
81414W        W48482  33.477  36.070   3.176
81415W        W48483   0.423  18.666   3.357
81416W        W48484  42.917   7.291   4.186
81417W        W48485  17.133  26.034   3.386
81418W        W48486  10.768  24.077   4.714
81419W        W48487   7.883  43.471  12.539
81420W        W48488  43.486  43.854   2.352
81421W        W48489  42.003   9.887   3.838
81422W        W48490  37.853  12.855  10.908
81423W        W48491   2.729  34.598  13.441
81424W        W48492  42.285  11.714  12.962
81425W        W48493  23.550  43.800   0.741
81426W        W48494  21.242  34.385  14.391
81427W        W48495  26.521  24.135   1.258
81428W        W48496   8.808  16.782  14.418
81429W        W48497  44.915  34.063   0.786
81430W        W48498   3.834  28.934  13.971
81431W        W48499  44.387  39.026  10.481
81432W        W48500  16.087  34.007   3.303
81433W        W48501  23.599   1.370  11.866
81434W        W48502  32.418  23.004   9.646
81435W        W48503  41.412  15.289  12.953
81436W        W48504   4.724  29.615   5.162
81437W        W48505  21.535   5.234  12.008
81438W        W48506  23.529  12.847   2.806
81439W        W48507   3.946   8.816   3.672
81440W        W48508  31.545  27.626   0.875
81441W        W48509  21.521   9.345   2.359
81442W        W48510  29.666  28.675   4.143
81443W        W48511  40.929   2.348   1.758
81444W        W48512  25.061  22.054  10.604
81445W        W48513  11.628  24.509   0.440
81446W        W48514   3.217  33.435  11.578
81447W        W48515  19.774  15.648  14.967
81448W        W48516  43.912   3.724   0.305
81449W        W48517  38.947  36.491   3.825
81450W        W48518  16.619  28.644  12.966
81451W        W48519  44.321  24.995   4.831
81452W        W48520  11.758  42.509   2.722
81453W        W48521  29.108  28.476   0.303
81454W        W48522  29.112  42.811   5.110
81455W        W48523   7.189  44.501   3.307
81456W        W48524  22.091  22.608  11.555
81457W        W48525  14.822  31.070  10.467
81458W        W48526  42.458   3.922  12.491
81459W        W48527   6.203   8.840  10.543
81460W        W48528  37.526  18.130   2.761
81461W        W48529  32.062   6.355  11.909
81462W        W48530  29.920  42.374   2.699
81463W        W48531  32.049  38.076   1.892
81464W        W48532  21.148  18.687  11.935
81465W        W48533   1.380  33.571  13.791
81466W        W48534  30.623  16.762  10.986
81467W        W48535  40.482  26.979   0.319
81468W        W48536  42.971  24.089   3.167
81469W        W48537  34.902  24.076  14.469
81470W        W48538  41.537   7.797   1.816
81471W        W48539  17.660  39.373  11.949
81472W        W48540  27.143  22.718  13.400
81473W        W48541  27.940  32.506   4.798
81474W        W48542  14.197   6.207  10.628
81475W        W48543  16.591  33.482  13.368
81476W        W48544  11.243  24.210   2.679
81477W        W48545   1.276  36.478  12.557
81478W        W48546  43.968   3.886  14.512
81479W        W48547   1.834   1.860  12.528
81480W        W48548  33.022  19.639  14.912
81481W        W48549  23.218   7.785   0.469
81482W        W48550   1.361   5.256  14.026
81483W        W48551  27.451   5.745   4.646
81484W        W48552   2.323  39.933  13.460
81485W        W48553  19.757   1.857  14.451
81486W        W48554  37.541  16.212   2.221
81487W        W48555  25.215   4.893  14.502
81488W        W48556  40.044  38.043   1.750
81489W        W48557   8.215   7.794  11.381
81490W        W48558   0.967  35.937  14.397
81491W        W48559  39.503  39.960  14.031
81492W        W48560  44.915  26.082   3.678
81493W        W48561   8.365   3.901  12.862
81494W        W48562  25.111  39.472   2.244
81495W        W48563  41.340  10.657   1.285
81496W        W48564  21.701  21.256  10.942
81497W        W48565  26.178  12.219  13.364
81498W        W48566  37.085  35.381  13.339
81499W        W48567  44.773   2.955  10.955
81500W        W48568  12.186  16.650   2.357
81501W        W48569  18.063  37.559   1.889
81502W        W48570  10.322   1.972  11.512
81503W        W48571  16.242   4.798   4.262
81504W        W48572  37.547  14.718   2.825
81505W        W48573  35.855  11.284  11.415
81506W        W48574  28.459  13.186  10.423
81507W        W48575  41.533  17.741   0.826
81508W        W48576  37.535  14.268  13.064
81509W        W48577  23.092  11.795  12.899
81510W        W48578   4.920   5.230  13.434
81511W        W48579  12.808  35.566   1.931
81512W        W48580  13.673  17.281   2.184
81513W        W48581  34.932  31.140  10.437
81514W        W48582   7.387   7.391   2.772
81515W        W48583   0.411  37.908  13.325
81516W        W48584  15.608  17.693   2.411
81517W        W48585  34.453  27.104   1.428
81518W        W48586   9.150   1.901  10.896
81519W        W48587   5.332  36.917   1.740
81520W        W48588  18.745   7.844  12.928
81521W        W48589  39.951  21.041  11.879
81522W        W48590  14.774  16.112   2.742
81523W        W48591  30.516   1.399   0.317
81524W        W48592  30.622  27.650   4.127
81525W        W48593   9.347  20.251  10.549
81526W        W48594  31.416   5.378   0.445
81527W        W48595  10.255  11.253  13.999
81528W        W48596  17.261  17.779  14.860
81529W        W48597   1.307  16.575  14.385
81530W        W48598  36.378  24.196   3.193
81531W        W48599  33.035  31.992  10.987
81532W        W48600  26.466  33.532  12.007
81533W        W48601  10.155  29.634   1.363
81534W        W48602  37.432  27.577  14.460
81535W        W48603   0.290   3.332  13.366
81536W        W48604  25.673  30.437  14.380
81537W        W48605  31.134  34.078   4.314
81538W        W48606  39.901  26.050  11.063
81539W        W48607  29.544  10.870  14.869
81540W        W48608  31.089   2.254   4.746
81541W        W48609  28.550  24.113   2.805
81542W        W48610  35.869   0.329   0.759
81543W        W48611  13.787  37.566   3.257
81544W        W48612  39.858  19.232  10.547
81545W        W48613  28.118  38.034   4.788
81546W        W48614  43.784  14.318  14.343
81547W        W48615  34.588  30.911   3.688
81548W        W48616   7.372   1.872   2.411
81549W        W48617  40.872  42.513  11.024
81550W        W48618  27.550  30.965  10.513
81551W        W48619  13.350   4.889  10.423
81552W        W48620  10.167  38.355   2.815
81553W        W48621  41.029  31.567   4.222
81554W        W48622   0.413   7.667   4.157
81555W        W48623   9.268  23.531  11.018
81556W        W48624  25.141  25.635   0.276
81557W        W48625  15.769  24.015  12.457
81558W        W48626   3.444  11.637  12.461
81559W        W48627  34.501  44.813   2.737
81560W        W48628  15.182  34.433   2.791
81561W        W48629  35.465  44.285  11.869
81562W        W48630  10.747  43.797   5.709
81563W        W48631  37.865   9.807   2.753
81564W        W48632  33.493  43.913   4.635
81565W        W48633  17.676  23.118  13.793
81566W        W48634  40.336  29.556   1.363
81567W        W48635  36.985   1.971  12.505
81568W        W48636  39.527  37.396  13.980
81569W        W48637  36.894  20.562  14.421
81570W        W48638   6.267  40.045   9.979
81571W        W48639   7.338  13.812  12.499
81572W        W48640  27.615   5.912  14.988
81573W        W48641   3.291  14.615   1.303
81574W        W48642   8.249  35.405   0.921
81575W        W48643  33.022  14.834   0.308
81576W        W48644  32.087  27.196   3.277
81577W        W48645  41.418   3.221   3.808
81578W        W48646   6.914  16.776  13.447
81579W        W48647  16.140  42.860   3.827
81580W        W48648   7.781   3.422  13.545
81581W        W48649   5.409  24.981   1.354
81582W        W48650  27.973  25.648   1.774
81583W        W48651  15.711   3.753   4.174
81584W        W48652  29.027  13.707  10.013
81585W        W48653  28.478  44.923  11.391
81586W        W48654  17.226  14.297   2.401
81587W        W48655  34.554   6.331   0.931
81588W        W48656  33.089  18.069  10.916
81589W        W48657  12.831  20.632  14.980
81590W        W48658  10.721   6.901  11.881
81591W        W48659  12.725   5.758  13.810
81592W        W48660   7.187  40.867  10.912
81593W        W48661  32.535  42.792   2.833
81594W        W48662  27.510   8.280   3.649
81595W        W48663   3.758  20.140  12.429
81596W        W48664  16.706  23.129   1.757
81597W        W48665  17.219  35.435   1.415
81598W        W48666  12.703  29.052  14.016
81599W        W48667  44.359  15.616  12.488
81600W        W48668   1.362  34.001   4.812
81601W        W48669  14.257  12.121  13.473
81602W        W48670  35.441  36.871  12.903
81603W        W48671   9.643  39.881   1.296
81604W        W48672   5.356  18.203  13.003
81605W        W48673  38.884  42.376   0.374
81606W        W48674  10.174  14.689   0.755
81607W        W48675   0.463  22.192  14.307
81608W        W48676  40.319   2.463   2.302
81609W        W48677  36.546  12.669  11.548
81610W        W48678  28.939   2.966  11.586
81611W        W48679  10.242  31.454   0.820
81612W        W48680  28.620  18.133  12.045
81613W        W48681  27.979  20.135   3.662
81614W        W48682  41.000  42.483  12.846
81615W        W48683   5.338  10.220  12.541
81616W        W48684  18.694  19.536   9.935
81617W        W48685  37.545   9.710   2.254
81618W        W48686  32.004  23.641  14.847
81619W        W48687   5.743  35.072  12.438
81620W        W48688  14.210  41.316  10.937
81621W        W48689  41.513  10.677  13.545
81622W        W48690  31.433  32.021  10.431
81623W        W48691  24.023  44.430   0.246
81624W        W48692  27.664  30.621   3.707
81625W        W48693  27.677   2.342   2.858
81626W        W48694   6.420  16.778  11.389
81627W        W48695  11.779  32.904   0.931
81628W        W48696  34.443  34.607   0.837
81629W        W48697  37.478  37.934   4.253
81630W        W48698   4.383   1.339  11.428
81631W        W48699  33.539  13.268  13.369
81632W        W48700  40.891  22.099  14.974
81633W        W48701   2.233  31.028  10.482
81634W        W48702  40.484   5.735   0.351
81635W        W48703   2.470  19.717  14.848
81636W        W48704  37.447  21.710   2.196
81637W        W48705  16.733  27.000   2.179
81638W        W48706  23.503  15.740  14.363
81639W        W48707   8.749  19.070  13.891
81640W        W48708  25.563  36.978   4.206
81641W        W48709  41.873  26.698  12.003
81642W        W48710  16.166  11.832   1.345
81643W        W48711  44.779   5.822   4.656
81644W        W48712  36.081   8.294   2.861
81645W        W48713  37.440   7.689  10.614
81646W        W48714  14.207  23.098   2.184
81647W        W48715  39.536  31.050  13.403
81648W        W48716  22.051  22.250   3.683
81649W        W48717  33.432  40.926  10.963
81650W        W48718  37.542  19.121  13.842
81651W        W48719  21.749  36.511  11.498
81652W        W48720  20.549  39.058   0.958
81653W        W48721   9.754  10.823   1.799
81654W        W48722  22.250  35.391   1.812
81655W        W48723  22.075  42.358   4.299
81656W        W48724  24.544  35.906   3.162
81657W        W48725   2.278  14.253   4.666
81658W        W48726  42.000  33.011  13.946
81659W        W48727  33.455  29.532   3.866
81660W        W48728  24.507  31.904   5.153
81661W        W48729  42.928  32.590   5.118
81662W        W48730  18.192  12.813   3.285
81663W        W48731   7.716   2.795   0.938
81664W        W48732   9.742  29.072  13.001
81665W        W48733   8.780  16.796   0.772
81666W        W48734  39.390  40.452  11.394
81667W        W48735  12.164  44.438  13.024
81668W        W48736   5.714  37.842   2.740
81669W        W48737   0.488   0.382   3.740
81670W        W48738  21.212   2.423   3.825
81671W        W48739  17.733   7.223  11.032
81672W        W48740  25.584  33.452   3.186
81673W        W48741   4.918  29.444  11.101
81674W        W48742  38.853  34.458   0.260
81675W        W48743  25.693   9.361   3.665
81676W        W48744  32.585  15.611  10.106
81677W        W48745   9.888  26.596   1.694
81678W        W48746  15.591  10.305   5.096
81679W        W48747   9.176  43.376   4.713
81680W        W48748  14.340  16.161  12.824
81681W        W48749  37.050  38.969   3.755
81682W        W48750   1.796  33.084   1.290
81683W        W48751  43.283  30.563  13.915
81684W        W48752  39.901  19.749   2.188
81685W        W48753  34.537  18.275  13.466
81686W        W48754   0.457  26.505   1.427
81687W        W48755  38.476  39.418  12.574
81688W        W48756   4.419  34.392  12.839
81689W        W48757   0.403  15.738  11.555
81690W        W48758  33.057  22.708   3.776
81691W        W48759  27.175  28.155  13.048
81692W        W48760  22.678  43.344   2.879
81693W        W48761   0.866  33.946   3.634
81694W        W48762   3.812  39.011  13.516
81695W        W48763  28.945  36.988  10.954
81696W        W48764  30.567  31.569  14.890
81697W        W48765   0.851  25.660  11.855
81698W        W48766  32.563  39.432   3.835
81699W        W48767   0.396   9.154  12.410
81700W        W48768  37.868  41.040   4.207
81701W        W48769   6.407  40.471   4.617
81702W        W48770  23.178   2.455   1.253
81703W        W48771  15.816  42.328  12.411
81704W        W48772   6.794  34.534  13.313
81705W        W48773  15.190  11.665  13.825
81706W        W48774  44.850  30.101   1.416
81707W        W48775  41.454   6.241  13.827
81708W        W48776  22.562  26.108  14.011
81709W        W48777  14.295  44.469   1.895
81710W        W48778  24.636   6.397  10.427
81711W        W48779  22.511  19.547   0.789
81712W        W48780  34.452  28.653  13.882
81713W        W48781  37.888  11.256  13.865
81714W        W48782  22.237  10.703  13.396
81715W        W48783  39.830  35.375  14.351
81716W        W48784  11.848   8.216   2.375
81717W        W48785  16.199   9.774   1.392
81718W        W48786  13.150   5.390   4.285
81719W        W48787  29.433  30.468   4.138
81720W        W48788  23.602  21.752   3.756
81721W        W48789  28.960  16.114  10.960
81722W        W48790  20.159   7.352  12.954
81723W        W48791  31.149  33.957  12.545
81724W        W48792  30.078  14.125  12.523
81725W        W48793  28.527   7.911  12.930
81726W        W48794  26.549   1.867  14.317
81727W        W48795   6.793  11.173   2.361
81728W        W48796  22.533  18.695   0.938
81729W        W48797  24.979  34.905   1.927
81730W        W48798  39.002  25.036   2.416
81731W        W48799   4.846  11.323  13.420
81732W        W48800  17.206  35.471   2.781
81733W        W48801   0.248  37.070   3.353
81734W        W48802   3.799  12.206  11.013
81735W        W48803  16.590  11.174   2.199
81736W        W48804  39.468  39.506   2.847
81737W        W48805   1.884  18.622   0.965
81738W        W48806  18.068  23.204   1.810
81739W        W48807  41.472   5.302  14.966
81740W        W48808  23.710  32.629   2.858
81741W        W48809  29.537  28.940   0.431
81742W        W48810  18.723  18.080  14.940
81743W        W48811  11.159  12.225  11.054
81744W        W48812  35.523  10.805   3.250
81745W        W48813   2.226  44.350  12.859
81746W        W48814  17.750  24.115   4.640
81747W        W48815  15.319  28.620  13.897
81748W        W48816  37.443  43.979   0.272
81749W        W48817  25.981  13.265   4.136
81750W        W48818   1.933  25.598  13.938
81751W        W48819  42.364   0.347  13.863
81752W        W48820  44.005  11.854   0.427
81753W        W48821   4.348  17.106   0.458
81754W        W48822  25.590  27.104  13.815
81755W        W48823   3.234   8.764   3.286
81756W        W48824  42.474  26.164  14.770
81757W        W48825  20.688  10.735  14.787
81758W        W48826  19.755  23.702  12.851
81759W        W48827  15.200   0.262   3.731
81760W        W48828  22.697  26.678   1.443
81761W        W48829  25.528  35.003   0.354
81762W        W48830  13.329  16.099   1.360
81763W        W48831  41.511  43.860   1.414
81764W        W48832  21.157  31.467  12.901
81765W        W48833  26.561   6.211   3.201
81766W        W48834   0.422  32.505  14.506
81767W        W48835  26.534  16.117   0.270
81768W        W48836  13.670  12.843  10.934
81769W        W48837   3.798   4.901  11.571
81770W        W48838  29.025  19.766  12.081
81771W        W48839  38.366  25.602  10.608
81772W        W48840  40.967  21.754  12.835
81773W        W48841   5.260  25.582   4.223
81774W        W48842  24.043  30.473  12.385
81775W        W48843  36.018  25.006  11.026
81776W        W48844  23.565  42.024   4.119
81777W        W48845  36.554  40.882  10.895
81778W        W48846  15.114   7.812   1.805
81779W        W48847  40.901  34.030   3.375
81780W        W48848  31.065  26.969   4.722
81781W        W48849  26.598  32.491   4.654
81782W        W48850  22.540  26.630  12.462
81783W        W48851   8.175  31.008  12.513
81784W        W48852  26.963  24.039   3.200
81785W        W48853  39.389  14.283   0.283
81786W        W48854  26.983  29.146   1.228
81787W        W48855  16.678  43.310   2.372
81788W        W48856  13.723  32.486   0.296
81789W        W48857  14.664  14.822   0.872
81790W        W48858  35.937  28.611  14.481
81791W        W48859   7.237  24.509   0.917
81792W        W48860  42.878   5.394   4.147
81793W        W48861   3.729  25.490  12.492
81794W        W48862  14.802   2.954  13.046
81795W        W48863  13.339  44.870  11.925
81796W        W48864  42.924   6.678   4.620
81797W        W48865  19.118  22.584   1.348
81798W        W48866   2.256  43.385   4.661
81799W        W48867   8.869  14.213   1.741
81800W        W48868  12.204   2.404  13.340
81801W        W48869  14.721  36.045  14.371
81802W        W48870  25.689  31.096  10.897
81803W        W48871  14.624  44.908   0.923
81804W        W48872  31.537  12.800  11.469
81805W        W48873  31.065  31.525   1.779
81806W        W48874  27.593  18.645  11.541
81807W        W48875  20.552  20.210   4.145
81808W        W48876  43.348   7.316   5.275
81809W        W48877  19.141  41.983   3.768
81810W        W48878  41.303  22.733  12.372
81811W        W48879  22.718  22.565  13.799
81812W        W48880  27.510   2.747   2.336
81813W        W48881  31.131  24.061  13.476
81814W        W48882  36.532  12.694   1.875
81815W        W48883  32.462  24.052   1.907
81816W        W48884  43.425  16.315  14.945
81817W        W48885  11.309  44.350  14.928
81818W        W48886  18.274  25.217   0.776
81819W        W48887  33.104  39.493   0.287
81820W        W48888  10.200  15.795   4.281
81821W        W48889  44.339   8.721   4.244
81822W        W48890  42.851  38.537   3.850
81823W        W48891  15.782  11.636   4.767
81824W        W48892  36.887  11.161  14.284
81825W        W48893   7.274  13.714  11.087
81826W        W48894   4.362  14.109   2.854
81827W        W48895  24.109  17.253   1.727
81828W        W48896  10.371  21.166  11.112
81829W        W48897  17.689  36.068   0.377
81830W        W48898  44.789  24.656   4.693
81831W        W48899   9.661  42.779  13.043
81832W        W48900   9.842   1.929   1.220
81833W        W48901  29.129  13.809   3.206
81834W        W48902  35.477  23.532   3.182
81835W        W48903  23.579  29.919   1.902
81836W        W48904  23.726   9.742  11.075
81837W        W48905  13.292   0.806   1.698
81838W        W48906   3.847  42.421  14.766
81839W        W48907  34.395  28.057  12.963
81840W        W48908  10.211  38.073   0.341
81841W        W48909  13.224  32.610   4.218
81842W        W48910  26.179  44.347   3.368
81843W        W48911  44.443   2.739  14.324
81844W        W48912  29.613  40.363   4.175
81845W        W48913  31.150  20.134  10.994
81846W        W48914  19.277  35.990   1.727
81847W        W48915  12.759  44.295   1.446
81848W        W48916  38.911  17.731   4.116
81849W        W48917  40.971   3.727  12.456
81850W        W48918  18.711  27.509  10.072
81851W        W48919  36.350  25.601   1.232
81852W        W48920  35.029  12.642  14.383
81853W        W48921   5.892  12.835  14.984
81854W        W48922  31.138  39.938  13.048
81855W        W48923  27.536  44.395   4.739
81856W        W48924  40.975  36.481   4.153
81857W        W48925  33.533   4.311   2.808
81858W        W48926  37.905  43.961  13.330
81859W        W48927  29.539  19.221  12.921
81860W        W48928   5.770  31.101   2.190
81861W        W48929   0.869  40.323   5.208
81862W        W48930  27.075  23.027   1.371
81863W        W48931  23.607   6.701   2.237
81864W        W48932  19.175  19.764  14.855
81865W        W48933   8.164  29.091   2.340
81866W        W48934  34.867   1.302  13.460
81867W        W48935   2.361  23.567   3.210
81868W        W48936  17.785  11.778  12.362
81869W        W48937   0.852  22.641  11.960
81870W        W48938  11.158   2.305   1.319
81871W        W48939   6.209  11.640   0.336
81872W        W48940   4.275  11.348   3.295
81873W        W48941  44.459  42.439  10.564
81874W        W48942  11.321  42.981   0.278
81875W        W48943  36.370  14.235  13.929
81876W        W48944   3.326  41.338  14.851
81877W        W48945   8.397  16.086  12.457
81878W        W48946  30.449   6.861   1.227
81879W        W48947  43.837  25.572  11.477
81880W        W48948   6.393   8.779   1.813
81881W        W48949  25.681   3.788  14.430
81882W        W48950  30.005  41.340  12.416
81883W        W48951  41.912  26.174  12.418
81884W        W48952   7.712  15.250   0.732
81885W        W48953  30.584  22.681  14.988
81886W        W48954   8.186  40.825   0.316
81887W        W48955  16.623  40.799  13.006
81888W        W48956  29.465  40.020   4.607
81889W        W48957  18.192  14.639   3.716
81890W        W48958  11.807  19.655   2.351
81891W        W48959  39.980  35.582  13.888
81892W        W48960  41.314  21.244   1.445
81893W        W48961  44.000  33.504   3.789
81894W        W48962  31.977   8.282   2.889
81895W        W48963  17.084  35.058  13.863
81896W        W48964  15.251  25.129   4.190
81897W        W48965  37.883  27.531   3.851
81898W        W48966  28.521  43.313  13.377
81899W        W48967  28.104  27.551   2.246
81900W        W48968  23.578  15.600  13.952
81901W        W48969  37.905  34.006  14.007
81902W        W48970   0.324  26.010  13.419
81903W        W48971  43.920   4.332   2.787
81904W        W48972  30.052   9.767  11.970
81905W        W48973  39.906   9.175   1.711
81906W        W48974  40.473  35.862  13.488
81907W        W48975  23.623   0.817   4.826
81908W        W48976  18.219  44.874  10.920
81909W        W48977  14.245  44.260   2.714
81910W        W48978  19.057  28.509  14.018
81911W        W48979  43.818   8.163  13.866
81912W        W48980  11.802   5.862   0.278
81913W        W48981  39.830  34.996   0.278
81914W        W48982  20.255  19.089  13.451
81915W        W48983  15.695  11.632   0.746
81916W        W48984  41.313  20.113   4.215
81917W        W48985  28.103  39.003  11.866
81918W        W48986  39.558   9.293   0.907
81919W        W48987  44.434   4.712  10.518
81920W        W48988  34.463   4.793  11.978
81921W        W48989  21.585  16.269  14.779
81922W        W48990  44.862  34.613   2.228
81923W        W48991  27.489   8.365   2.755
81924W        W48992  32.907   6.184   0.368
81925W        W48993  13.797   9.280   4.341
81926W        W48994  42.502  21.671  10.995
81927W        W48995  42.011  10.871  10.425
81928W        W48996   8.804  43.361  11.046
81929W        W48997  29.009  24.097  13.334
81930W        W48998  33.919  14.155  11.613
81931W        W48999   2.836  15.670   0.857
81932W        W49000  33.609   2.920   9.944
81933W        W49001  40.049  24.041  13.848
81934W        W49002  44.831  23.553  11.565
81935W        W49003   1.855  10.334  12.871
81936W        W49004  31.950  35.557   3.733
81937W        W49005   7.864  13.845   4.169
81938W        W49006  40.016  13.198   2.368
81939W        W49007  44.926  41.918  13.808
81940W        W49008  38.397  16.297   2.418
81941W        W49009  24.674  18.108  13.880
81942W        W49010  25.158   6.882  11.493
81943W        W49011  14.234  22.586  10.420
81944W        W49012  21.622  42.859   2.788
81945W        W49013  19.602  32.948  11.890
81946W        W49014  36.039  19.157  13.930
81947W        W49015  29.965  21.527   3.713
81948W        W49016   1.773   9.381  12.464
81949W        W49017  31.950  33.008   0.901
81950W        W49018  41.392  10.270   4.230
81951W        W49019   3.740  31.923   3.340
81952W        W49020  16.225   4.890   2.328
81953W        W49021   6.375  23.515   3.297
81954W        W49022   7.361  22.612   0.877
81955W        W49023  41.026  11.625   0.873
81956W        W49024  40.833   1.427  12.441
81957W        W49025  23.621  28.624  11.563
81958W        W49026  16.297   3.950  10.433
81959W        W49027   5.770  39.408   2.365
81960W        W49028  31.929   6.323  10.599
81961W        W49029  22.081  35.593  14.512
81962W        W49030  16.637  14.802   3.335
81963W        W49031  27.641  18.235  12.902
81964W        W49032  31.607  42.373  11.482
81965W        W49033  10.863  37.561   1.762
81966W        W49034  41.299   6.870   2.749
81967W        W49035  37.366  10.767  11.509
81968W        W49036  20.632  37.440   2.233
81969W        W49037   6.718   6.286  13.954
81970W        W49038  40.971  29.921  10.563
81971W        W49039  36.521  12.847   2.186
81972W        W49040  17.701  20.083  12.061
81973W        W49041  44.995  43.476  12.851
81974W        W49042  34.024   4.710   4.253
81975W        W49043  17.567  34.609  13.843
81976W        W49044  22.237  21.247   4.803
81977W        W49045  17.211  40.834  13.523
81978W        W49046   1.442  20.579  10.603
81979W        W49047   7.276  37.876   4.722
81980W        W49048  38.878  40.915  13.956
81981W        W49049  33.485  32.004  11.602
81982W        W49050  41.933  36.574   4.835
81983W        W49051  42.859  33.482  14.912
81984W        W49052   4.856  35.008   0.350
81985W        W49053  32.390  16.767   0.865
81986W        W49054  25.588  36.064  10.560
81987W        W49055  36.937  34.400   3.234
81988W        W49056   0.823  17.684  14.287
81989W        W49057  21.577  27.034   3.803
81990W        W49058   4.287  31.095   1.339
81991W        W49059  33.003  18.571   0.464
81992W        W49060  34.940  12.815  12.063
81993W        W49061  43.408  26.522  10.469
81994W        W49062  33.579  20.622  12.001
81995W        W49063  12.214  43.841  12.984
81996W        W49064   2.957  15.719  13.537
81997W        W49065   4.402  18.159   2.339
81998W        W49066  17.070  36.865   0.854
81999W        W49067  15.781  12.271   0.372
82000W        W49068  43.407  29.597   0.833
82001W        W49069   3.889  39.513  13.017
82002W        W49070  29.019   4.382   4.613
82003W        W49071   8.827   5.815  12.029
82004W        W49072  21.665  21.262  11.432
82005W        W49073   8.831   6.417  11.453
82006W        W49074   5.208  27.068  13.046
82007W        W49075   0.450  32.062   1.867
82008W        W49076   5.315  16.762  10.161
82009W        W49077  25.686  14.610   3.260
82010W        W49078  12.780  16.598  13.851
82011W        W49079   2.278  27.035   1.800
82012W        W49080  28.496  16.741   1.251
82013W        W49081  23.189  43.289   2.858
82014W        W49082   6.794  30.113  13.434
82015W        W49083  32.105  30.435  10.431
82016W        W49084  22.045  13.706   4.646
82017W        W49085   8.384  15.282  13.382
82018W        W49086   7.817  17.196   3.732
82019W        W49087  21.728  34.377  12.469
82020W        W49088  14.175   5.329   1.861
82021W        W49089  38.515  25.215   4.139
82022W        W49090  40.807  10.334  14.512
82023W        W49091  40.949  37.546  10.628
82024W        W49092  36.476   3.784   0.261
82025W        W49093   3.242  24.685   1.414
82026W        W49094  38.396  32.520   3.767
82027W        W49095  12.767  31.005   1.877
82028W        W49096  24.717  13.647   2.215
82029W        W49097  40.398   9.305  12.533
82030W        W49098  23.549   3.272  11.927
82031W        W49099  27.987  14.212  11.422
82032W        W49100  30.991  41.870  10.535
82033W        W49101  11.659  26.640  14.943
82034W        W49102  30.435  39.819   3.299
82035W        W49103  34.028  39.384  14.405
82036W        W49104   0.798  30.154   1.808
82037W        W49105  12.154   2.451   3.753
82038W        W49106  37.023  42.911   1.301
82039W        W49107   7.342   3.813   1.904
82040W        W49108  14.662  39.942  10.115
82041W        W49109  40.958  34.520   3.807
82042W        W49110  44.802  15.144  10.553
82043W        W49111  19.134   4.709   0.344
82044W        W49112  29.932  31.980   2.234
82045W        W49113  37.022  30.601  13.436
82046W        W49114   3.415  34.443  10.011
82047W        W49115  40.426  28.114   4.279
82048W        W49116   9.339  14.782   2.299
82049W        W49117  34.523  41.924   1.696
82050W        W49118  17.725   6.300  13.400
82051W        W49119  29.582  42.917   0.732
82052W        W49120   3.868  21.688  11.044
82053W        W49121   4.308   8.721  12.912
82054W        W49122  18.132  29.470   2.713
82055W        W49123  20.057  15.673  11.431
82056W        W49124   4.803  22.193   0.789
82057W        W49125  24.993  43.344  13.945
82058W        W49126   7.848  43.943   3.869
82059W        W49127  15.100  11.780   2.772
82060W        W49128  15.248   8.281   2.811
82061W        W49129  12.310  24.638  13.436
82062W        W49130   9.649  11.770   2.273
82063W        W49131  35.042  14.336  11.120
82064W        W49132  44.860  16.601  11.372
82065W        W49133  37.053   4.371   1.411
82066W        W49134  43.934  27.461  11.127
82067W        W49135   4.714   0.358  12.373
82068W        W49136  44.885  25.989  12.881
82069W        W49137   4.347  43.407  12.360
82070W        W49138  40.876  21.092   4.321
82071W        W49139  41.839  38.462  11.097
82072W        W49140  30.574  42.011   4.194
82073W        W49141   9.290  15.660  14.282
82074W        W49142  43.852  39.859   2.368
82075W        W49143  20.548  10.230   1.392
82076W        W49144  14.268  43.374  11.126
82077W        W49145  19.247   0.924  11.451
82078W        W49146  43.479  25.598   1.846
82079W        W49147  29.151  40.991  10.585
82080W        W49148  13.838  22.079   1.780
82081W        W49149   1.918  29.997  14.846
82082W        W49150  36.381  10.227  14.331
82083W        W49151  19.745   5.796   2.698
82084W        W49152  31.042  11.852   2.748
82085W        W49153  19.240  11.838   2.843
82086W        W49154  37.873  24.598  11.996
82087W        W49155   7.226  42.496   0.953
82088W        W49156  30.992   9.386   1.224
82089W        W49157  28.966  37.847   0.404
82090W        W49158  31.903  10.696  14.810
82091W        W49159  13.830   9.712   1.887
82092W        W49160  35.459  24.156   0.887
82093W        W49161  32.963  12.132  10.535
82094W        W49162  31.997  32.925  10.583
82095W        W49163  25.592  33.460   2.736
82096W        W49164  11.810  43.372  12.025
82097W        W49165  24.087  20.600  12.049
82098W        W49166  17.630  42.294  13.937
82099W        W49167  40.420  16.284   2.670
82100W        W49168  16.313  11.653  10.522
82101W        W49169  41.839   7.886  11.870
82102W        W49170  32.116  39.858   2.845
82103W        W49171   8.360  20.144   3.761
82104W        W49172  21.198   5.801  12.943
82105W        W49173  41.825  11.779  13.966
82106W        W49174  10.841  19.272   1.854
82107W        W49175   1.891  16.308  10.428
82108W        W49176  13.263  10.353   3.196
82109W        W49177  39.815  44.772  13.493
82110W        W49178  34.936   1.401   2.814
82111W        W49179  27.171  23.157  13.545
82112W        W49180  35.404  43.875   0.322
82113W        W49181  20.263   0.336   0.453
82114W        W49182  30.583  14.602   0.254
82115W        W49183  21.599   4.297   4.174
82116W        W49184  28.094  13.248  12.004
82117W        W49185  10.146  38.075  10.888
82118W        W49186  27.108   1.380   4.324
82119W        W49187  19.578  29.974  14.846
82120W        W49188  19.544  41.947   2.861
82121W        W49189   8.405   1.303   3.306
82122W        W49190  35.001  39.910   4.671
82123W        W49191   3.433  12.746  13.322
82124W        W49192  22.074  32.414  12.468
82125W        W49193   9.743  15.114  10.634
82126W        W49194  36.497  19.073  12.996
82127W        W49195  33.498  28.466   4.257
82128W        W49196  23.607  32.921   2.867
82129W        W49197  29.636   9.697   0.450
82130W        W49198  18.065  18.783   3.693
82131W        W49199  37.480  12.714  11.039
82132W        W49200  18.224   4.759   1.422
82133W        W49201  34.878  10.310  11.879
82134W        W49202  14.785  25.031  12.425
82135W        W49203  28.481   8.238  11.902
82136W        W49204  42.999  17.707   3.265
82137W        W49205  24.567  44.265   4.190
82138W        W49206   9.336  13.827  13.858
82139W        W49207   3.241  24.073  11.982
82140W        W49208  33.982  27.507   4.776
82141W        W49209  12.339  14.606   0.966
82142W        W49210  14.185   0.400  10.470
82143W        W49211   0.328  42.786   1.836
82144W        W49212  22.583  22.672  12.384
82145W        W49213  27.145  28.953  13.374
82146W        W49214   4.220  28.576   0.352
82147W        W49215  40.890  21.614  12.546
82148W        W49216  33.392  36.952   0.818
82149W        W49217  20.593  12.189  12.487
82150W        W49218  36.996   8.693  14.505
82151W        W49219  20.739  31.955  14.276
82152W        W49220  25.188  23.138  13.480
82153W        W49221  40.350  41.480  10.945
82154W        W49222  19.743  11.719   0.846
82155W        W49223  24.087  11.324  14.879
82156W        W49224  19.642  19.179   0.950
82157W        W49225  23.194  18.569  13.322
82158W        W49226  28.548  17.629   1.419
82159W        W49227  25.621  31.034  13.878
82160W        W49228  35.996  13.108   0.788
82161W        W49229  11.372  32.007  11.990
82162W        W49230   4.761  30.539  12.388
82163W        W49231   8.703  15.749  12.434
82164W        W49232  37.507  32.430   1.306
82165W        W49233  26.588  17.663  11.527
82166W        W49234  40.415  44.934   2.303
82167W        W49235  40.474  15.256   3.800
82168W        W49236  25.994  38.480   2.350
82169W        W49237  23.011   0.362  11.488
82170W        W49238  14.288  12.776   0.482
82171W        W49239  44.960  34.514  14.776
82172W        W49240  29.138   2.237   1.916
82173W        W49241   9.771   3.796   0.472
82174W        W49242  11.778  36.515   3.638
82175W        W49243   7.709  23.510   3.769
82176W        W49244  17.560  23.132  13.359
82177W        W49245  15.675  31.932   2.838
82178W        W49246   9.746  17.569   0.337
82179W        W49247   3.256  43.993   3.257
82180W        W49248   0.449  30.100  11.580
82181W        W49249   7.695  30.480  13.798
82182W        W49250   2.766  35.567   0.430
82183W        W49251  23.603  29.619   2.766
82184W        W49252  12.753  32.109  12.988
82185W        W49253  29.999  38.848  14.476
82186W        W49254  31.536   1.259  13.822
82187W        W49255  28.014  38.446   2.272
82188W        W49256  26.467  23.022  11.511
82189W        W49257  33.123  11.865  12.545
82190W        W49258  35.990  40.498  10.574
82191W        W49259  22.661  14.148   1.345
82192W        W49260  14.748  31.129   4.218
82193W        W49261  25.211   0.946  11.482
82194W        W49262  32.560  39.461  11.516
82195W        W49263   9.349   7.753  13.537
82196W        W49264  18.740  11.692   0.453
82197W        W49265  22.568  14.666   1.857
82198W        W49266  13.200  39.934  14.467
82199W        W49267  27.468   9.257  14.291
82200W        W49268  20.668  27.515  10.057
82201W        W49269  32.104  38.438  10.563
82202W        W49270  41.964  16.096  12.079
82203W        W49271  17.699  43.416  12.404
82204W        W49272   1.904   7.711  10.496
82205W        W49273  16.749  34.431   1.720
82206W        W49274   5.433  19.706   4.617
82207W        W49275   0.275  42.804   2.324
82208W        W49276  37.547  43.350  12.570
82209W        W49277  13.205  16.604   2.213
82210W        W49278  13.784  39.505  14.865
82211W        W49279  35.496  21.077  14.449
82212W        W49280  30.538   4.898  12.447
82213W        W49281  33.999  22.050   3.180
82214W        W49282  43.930   2.726  12.855
82215W        W49283   6.381  23.579   0.756
82216W        W49284  21.232  42.328  11.957
82217W        W49285   9.724  15.299  13.535
82218W        W49286  22.668  14.334   0.867
82219W        W49287  15.730  43.765   2.219
82220W        W49288  16.243  34.512  10.963
82221W        W49289   4.365   4.730  11.008
82222W        W49290  37.485  29.455   0.780
82223W        W49291  14.160  12.641  10.630
82224W        W49292  19.129  25.007  11.479
82225W        W49293  20.763  18.665   4.129
82226W        W49294  44.476  10.687  10.552
82227W        W49295  33.060  22.137   1.907
82228W        W49296  35.976  41.004  11.491
82229W        W49297  41.970  26.689  10.088
82230W        W49298   6.253  30.021  14.424
82231W        W49299  37.840  36.543   3.191
82232W        W49300  42.493  43.899  13.005
82233W        W49301  42.324  25.127   2.329
82234W        W49302  11.279  12.787   2.397
82235W        W49303  43.305   3.320  13.996
82236W        W49304   8.240  20.240   3.264
82237W        W49305  12.285  31.058  11.962
82238W        W49306  31.091   5.381  10.937
82239W        W49307  30.040  33.620   0.961
82240W        W49308   0.814   1.814   9.931
82241W        W49309  28.087  37.076  12.025
82242W        W49310  25.476  27.641  14.896
82243W        W49311  22.119  28.639  11.076
82244W        W49312   8.813  20.658   3.232
82245W        W49313   2.789  27.059   2.837
82246W        W49314  20.092  39.853  11.521
82247W        W49315  40.006  31.462   0.837
82248W        W49316   1.269   3.933   4.801
82249W        W49317  19.170   6.734  10.914
82250W        W49318  42.933   5.239  14.892
82251W        W49319  29.448   3.886   0.934
82252W        W49320  19.256  31.056   3.297
82253W        W49321  31.627   5.317  14.311
82254W        W49322  29.040  37.479  14.016
82255W        W49323  13.670   0.752   4.831
82256W        W49324  28.989  11.278  13.887
82257W        W49325  29.445  29.101  11.570
82258W        W49326   7.734  29.531   0.255
82259W        W49327   6.215  13.733   3.367
82260W        W49328  40.863  28.047   4.228
82261W        W49329   2.407  36.096   1.892
82262W        W49330  19.684  12.763  12.837
82263W        W49331  32.539  33.967   3.825
82264W        W49332  12.842  44.357  13.410
82265W        W49333  34.442  15.299   2.379
82266W        W49334  25.667  18.714   3.148
82267W        W49335  32.992  30.602  11.414
82268W        W49336  30.085  31.548  13.431
82269W        W49337  23.051  24.210  11.901
82270W        W49338  34.373  33.024  12.833
82271W        W49339  17.693   5.713  14.882
82272W        W49340  30.912   3.757   3.837
82273W        W49341  12.623  11.298  13.377
82274W        W49342   6.829  32.497  13.006
82275W        W49343   4.357  36.962  12.517
82276W        W49344  24.535   9.816   0.846
82277W        W49345  32.953   8.213  14.485
82278W        W49346   1.794   8.217  11.938
82279W        W49347  27.537  14.236  13.816
82280W        W49348  44.271   3.408   3.254
82281W        W49349  13.290   0.460   0.378
82282W        W49350   5.802  32.611   0.867
82283W        W49351  21.561  16.072   0.396
82284W        W49352   0.424  23.071   2.727
82285W        W49353  40.906  21.754  11.914
82286W        W49354   8.662   5.817  14.408
82287W        W49355  16.775  12.177   4.754
82288W        W49356   6.737  43.275  14.362
82289W        W49357  32.936  15.741   2.828
82290W        W49358  20.039  29.459  12.860
82291W        W49359  18.218  43.784  10.912
82292W        W49360  28.516  36.007  10.609
82293W        W49361  41.926  15.134  13.964
82294W        W49362  17.084  39.460   4.169
82295W        W49363  19.078   5.216  12.872
82296W        W49364   1.329   6.374   4.738
82297W        W49365   9.170  26.064   1.814
82298W        W49366   9.237  14.752   4.295
82299W        W49367  33.891  40.832  13.886
82300W        W49368  15.818  11.725   2.357
82301W        W49369  10.285  13.306   3.226
82302W        W49370  38.950  11.269   2.267
82303W        W49371  32.938  30.629  12.481
82304W        W49372  24.615   0.841   3.244
82305W        W49373  34.114  32.019   3.337
82306W        W49374  16.185  19.659  10.609
82307W        W49375  35.092   0.868  12.027
82308W        W49376   2.749  22.198  12.423
82309W        W49377  31.927  27.464   4.603
82310W        W49378  23.652   5.286  11.585
82311W        W49379  14.664  28.022  10.146
82312W        W49380  16.668  42.331   4.347
82313W        W49381  25.981   3.895   0.318
82314W        W49382  24.161   4.796   0.843
82315W        W49383  42.969   2.887  14.030
82316W        W49384  32.399  12.718   3.858
82317W        W49385  37.373  42.299   0.800
82318W        W49386   3.387  43.973   2.694
82319W        W49387  34.430  35.569   3.828
82320W        W49388  23.537  16.583  10.484
82321W        W49389  23.567  25.603   3.650
82322W        W49390  38.824  43.435  12.415
82323W        W49391   0.918   0.416   2.417
82324W        W49392  14.818  10.348  12.358
82325W        W49393  37.851   5.931   1.392
82326W        W49394  22.174  23.102   3.275
82327W        W49395  38.443   8.342   3.385
82328W        W49396  17.183  31.985  11.551
82329W        W49397  24.719  36.380   2.385
82330W        W49398  38.455  38.393   4.770
82331W        W49399  18.735  11.199   0.479
82332W        W49400   9.852  18.714   0.287
82333W        W49401   3.928   3.878  12.083
82334W        W49402  15.123  44.399   0.335
82335W        W49403  44.384  13.834   2.201
82336W        W49404   6.763  21.529   2.363
82337W        W49405  16.232  36.572   0.396
82338W        W49406   6.845  18.139   0.344
82339W        W49407  38.957  40.977  14.337
82340W        W49408  21.176   5.407   0.290
82341W        W49409  41.955   2.752   0.474
82342W        W49410  41.032  30.455   4.814
82343W        W49411  34.605  13.321  12.088
82344W        W49412  17.747  25.011   2.205
82345W        W49413  29.499  15.243  11.507
82346W        W49414  35.102   9.252  13.439
82347W        W49415   7.732  11.840  12.565
82348W        W49416  18.207  15.273   0.381
82349W        W49417   2.310  37.457  10.897
82350W        W49418  28.064   6.375   4.118
82351W        W49419   3.724  14.745  12.996
82352W        W49420  11.852   6.776  13.444
82353W        W49421  26.129  29.431   4.297
82354W        W49422  32.112  29.433   1.754
82355W        W49423  18.272   7.345  11.550
82356W        W49424  28.535  14.683   4.158
82357W        W49425   8.819  32.532   2.197
82358W        W49426  15.099  33.927  11.967
82359W        W49427   2.876  20.193  11.552
82360W        W49428  32.937  38.943   0.884
82361W        W49429   7.372  21.185   1.285
82362W        W49430  11.294  16.171  11.581
82363W        W49431   0.951  12.614  12.894
82364W        W49432   7.895  31.406  13.904
82365W        W49433  29.137  28.966  12.971
82366W        W49434   4.746  14.812   1.445
82367W        W49435  10.877  20.240  11.599
82368W        W49436  25.703  36.899   1.354
82369W        W49437  10.205   3.772   4.334
82370W        W49438   5.206  43.975  14.971
82371W        W49439  19.775  12.641   3.363
82372W        W49440   0.327  28.021   0.416
82373W        W49441  32.959  29.491  11.598
82374W        W49442  37.507  29.506  14.887
82375W        W49443  44.263   0.854   0.935
82376W        W49444   5.721   6.373  11.869
82377W        W49445   1.321   4.373  11.004
82378W        W49446  36.467  25.168   1.823
82379W        W49447   2.406  27.014  14.949
82380W        W49448  12.668  16.224   1.801
82381W        W49449  24.042  12.656   2.772
82382W        W49450  32.027   1.434  11.870
82383W        W49451   6.415  37.005  14.976
82384W        W49452  32.047  37.012  13.817
82385W        W49453  38.926   7.256  12.053
82386W        W49454  38.380   2.824  11.922
82387W        W49455  17.679  24.693  13.967
82388W        W49456  22.716  26.138   4.656
82389W        W49457  35.087   0.868  12.440
82390W        W49458  29.655   3.299   3.359
82391W        W49459  26.466  44.873   4.739
82392W        W49460  41.427  36.994   4.822
82393W        W49461  21.091  42.973   0.897
82394W        W49462  34.602  44.822  14.015
82395W        W49463  12.334  27.612   3.680
82396W        W49464   0.910  43.912   0.407
82397W        W49465  39.047  16.591  14.512
82398W        W49466  33.012  42.789  12.861
82399W        W49467   6.718  24.070   1.737
82400W        W49468  27.088  44.322  13.822
82401W        W49469  36.921   0.758  12.373
82402W        W49470  17.183  32.529   0.417
82403W        W49471  27.641  30.006  10.632
82404W        W49472  38.858  17.180   3.859
82405W        W49473  26.497   5.830   4.638
82406W        W49474  36.360  41.995  11.965
82407W        W49475  11.135   1.897  11.952
82408W        W49476  13.619   1.249  14.434
82409W        W49477   8.371  30.970   3.758
82410W        W49478   6.251  44.450   3.359
82411W        W49479  43.310  34.462   0.750
82412W        W49480  11.337  23.564  11.388
82413W        W49481  10.205  31.930  12.421
82414W        W49482  43.506   4.709  11.596
82415W        W49483  27.118  12.766   2.891
82416W        W49484  23.680  31.577  13.399
82417W        W49485  24.054  19.776  11.963
82418W        W49486  19.087  44.475  13.495
82419W        W49487  33.899  20.571   1.829
82420W        W49488  39.978  32.580  10.588
82421W        W49489  15.674  10.740   2.363
82422W        W49490  13.805  36.068   1.248
82423W        W49491  42.962  21.170   5.176
82424W        W49492  12.345  38.057   3.233
82425W        W49493  13.183  38.835  10.584
82426W        W49494   0.335  25.476  13.903
82427W        W49495  43.892  33.613  14.807
82428W        W49496  37.546  23.616  10.903
82429W        W49497  35.571  27.089  12.828
82430W        W49498  24.146   6.722  11.474
82431W        W49499  41.502  34.535   4.241
82432W        W49500  27.170  33.987   4.203
82433W        W49501  19.682  17.161  13.928
82434W        W49502  27.102   3.453  12.905
82435W        W49503   8.164  26.089   1.702
82436W        W49504   8.873  17.699  12.849
82437W        W49505   8.267  19.725   3.253
82438W        W49506   4.752  17.566   1.803
82439W        W49507  15.317   4.724  12.027
82440W        W49508  36.876  36.911  12.996
82441W        W49509  37.532  34.937  14.441
82442W        W49510  17.646  21.614   3.686
82443W        W49511  35.590  42.839  12.883
82444W        W49512  30.120  24.593  12.835
82445W        W49513  37.443  13.779   4.697
82446W        W49514  42.311   1.419  14.392
82447W        W49515  24.578   6.758   2.786
82448W        W49516  16.719  22.542   2.379
82449W        W49517  28.464  11.762   2.353
82450W        W49518  34.388  17.799  14.303
82451W        W49519  37.927  32.437  11.431
82452W        W49520  26.967  30.471   3.322
82453W        W49521  17.156   9.176  13.870
82454W        W49522  13.336  42.416  11.922
82455W        W49523  36.571  22.056  11.877
82456W        W49524  39.524   9.170   2.856
82457W        W49525  41.368  13.339  13.058
82458W        W49526  10.255  26.516   4.288
82459W        W49527  32.921   4.809   4.116
82460W        W49528  34.071  37.375   0.483
82461W        W49529  10.365  15.321  10.545
82462W        W49530  23.152  11.653  14.276
82463W        W49531  25.097  35.493   1.850
82464W        W49532   5.267  18.274  11.931
82465W        W49533  26.066  10.764   2.211
82466W        W49534  16.720  42.306   4.618
82467W        W49535  32.105  42.786  11.410
82468W        W49536  34.896   9.195   1.873
82469W        W49537  23.070  24.045   2.250
82470W        W49538   7.392  36.953   3.255
82471W        W49539  26.984   3.772  14.789
82472W        W49540   2.418  30.002  14.308
82473W        W49541  22.519  23.589  10.976
82474W        W49542  39.837  37.506   4.341
82475W        W49543  33.449   9.231   2.277
82476W        W49544  22.118  37.994   1.393
82477W        W49545  38.560   9.349  10.429
82478W        W49546  16.688  27.605  14.911
82479W        W49547  18.715   2.266  13.454
82480W        W49548  37.958   1.970  11.487
82481W        W49549  16.315  39.924  13.975
82482W        W49550  32.889  25.213   3.788
82483W        W49551   9.845  23.197   4.619
82484W        W49552  41.453  12.616  14.477
82485W        W49553  44.979  27.490  12.836
82486W        W49554   4.836   6.824   4.731
82487W        W49555  42.857  28.665  12.387
82488W        W49556  20.625  14.731   0.418
82489W        W49557   7.410   5.236   1.256
82490W        W49558  33.970   4.928   3.729
82491W        W49559  26.459  30.065  13.823
82492W        W49560  28.471  38.455  13.408
82493W        W49561  21.752  22.169  14.311
82494W        W49562  23.102  21.514  10.586
82495W        W49563   0.882  32.950  14.981
82496W        W49564  40.475  38.550  13.063
82497W        W49565  11.649  14.148   9.980
82498W        W49566   7.334  10.676  12.027
82499W        W49567  41.515  36.016  12.970
82500W        W49568  23.227  14.750   1.308
82501W        W49569  22.561  32.893  14.928
82502W        W49570  12.788  30.099  11.075
82503W        W49571  42.443  26.112   4.128
82504W        W49572  35.066  26.032   2.203
82505W        W49573  41.465  35.897  13.485
82506W        W49574  10.745   3.792   3.761
82507W        W49575   7.901  12.638  12.393
82508W        W49576   9.338  36.892   2.670
82509W        W49577  20.664  43.338   2.252
82510W        W49578  33.876  42.024   0.863
82511W        W49579  20.242  35.938  12.903
82512W        W49580  34.498  33.523   0.958
82513W        W49581  10.285  35.423   2.785
82514W        W49582  25.684  10.146  12.059
82515W        W49583   5.287  31.131   4.718
82516W        W49584  26.003   3.754   1.402
82517W        W49585   2.365   1.977   3.728
82518W        W49586   8.381   5.310   1.901
82519W        W49587  29.141  11.161  14.773
82520W        W49588  10.652   8.677  13.817
82521W        W49589  30.102  10.163   3.717
82522W        W49590  13.230  20.231  11.063
82523W        W49591  40.323  35.397   1.301
82524W        W49592  13.645  14.652  12.986
82525W        W49593  36.065  29.609  14.908
82526W        W49594  35.518  26.951  14.312
82527W        W49595   9.792  20.742   2.218
82528W        W49596  19.217   5.343  14.356
82529W        W49597  16.080  20.528   2.273
82530W        W49598   5.214   9.800  10.577
82531W        W49599  32.475   8.253  12.497
82532W        W49600   6.834  28.948  12.087
82533W        W49601  23.154   9.798   0.899
82534W        W49602  18.654   8.694  13.889
82535W        W49603  18.691  20.088  14.324
82536W        W49604   5.390   2.242   4.254
82537W        W49605   2.369  21.213  13.937
82538W        W49606  10.196  35.359  14.408
82539W        W49607   4.435  39.948  12.401
82540W        W49608   0.397  11.635   3.325
82541W        W49609  33.944  17.612   4.341
82542W        W49610  35.929  37.370  13.313
82543W        W49611   8.730   8.760   4.132
82544W        W49612   9.353  21.590  12.059
82545W        W49613   5.852  32.039   3.226
82546W        W49614  44.895  29.110  11.868
82547W        W49615  26.149  38.570   3.165
82548W        W49616  13.836  23.710   3.760
82549W        W49617   3.859  13.613  13.927
82550W        W49618  22.029  27.169   0.862
82551W        W49619  25.529   7.682   2.263
82552W        W49620  27.109   7.726   4.197
82553W        W49621  41.898  18.244  14.892
82554W        W49622  21.019  32.422   0.390
82555W        W49623  26.012  43.455  12.020
82556W        W49624   1.760   0.430   0.948
82557W        W49625  43.416  38.434   0.392
82558W        W49626  24.093  33.081  13.040
82559W        W49627  22.085  30.528  11.423
82560W        W49628  22.579  27.161  11.894
82561W        W49629   1.911  27.116   1.768
82562W        W49630   2.423  15.263   3.770
82563W        W49631  35.038  43.802  14.389
82564W        W49632  17.576  19.729   0.823
82565W        W49633  20.568  22.565   1.915
82566W        W49634  33.918  19.607  11.606
82567W        W49635  12.172   9.212  10.601
82568W        W49636   2.334  38.001  12.422
82569W        W49637  37.087  28.528   1.787
82570W        W49638  38.878   9.818  14.897
82571W        W49639  25.211  16.710  14.346
82572W        W49640   8.308  33.077  12.876
82573W        W49641  18.177  15.793   3.697
82574W        W49642  15.732  29.057  12.518
82575W        W49643  11.354  20.167  11.478
82576W        W49644  24.063  24.688   0.282
82577W        W49645  36.096  21.717  14.808
82578W        W49646  12.777  38.375   1.450
82579W        W49647  22.735  38.047   1.881
82580W        W49648   1.762  25.172   3.720
82581W        W49649  24.712  39.830  13.511
82582W        W49650  20.626  40.320   0.789
82583W        W49651  33.025  24.079   2.361
82584W        W49652  42.299  34.551   3.258
82585W        W49653  15.237  13.135  10.409
82586W        W49654   5.309   9.760  11.417
82587W        W49655  12.615  21.655  12.887
82588W        W49656   7.396  25.690   4.835
82589W        W49657  26.695  41.001   0.390
82590W        W49658  19.569  31.426  13.468
82591W        W49659  36.957  13.254  12.340
82592W        W49660  23.729   3.842  10.541
82593W        W49661  24.492  17.278   0.293
82594W        W49662  43.504  10.253  11.968
82595W        W49663   9.334  10.707  10.413
82596W        W49664  16.270  39.003   1.415
82597W        W49665  33.603  25.560  11.451
82598W        W49666  27.652   8.799   1.827
82599W        W49667  26.468  23.695   2.391
82600W        W49668  21.108   8.658   3.811
82601W        W49669  24.111  30.522   0.743
82602W        W49670   7.346  43.875   4.184
82603W        W49671  30.062  12.735   4.793
82604W        W49672  42.472  42.434   2.744
82605W        W49673  24.137   7.704  13.312
82606W        W49674  40.400   7.349  10.433
82607W        W49675  24.580  15.732   2.374
82608W        W49676   3.287  11.828   4.236
82609W        W49677  18.723  42.855  12.354
82610W        W49678  44.939  22.137  11.578
82611W        W49679  18.673  27.529   2.215
82612W        W49680  11.655   8.170   1.425
82613W        W49681  36.890  18.108   2.335
82614W        W49682   1.934  30.023   3.235
82615W        W49683   4.387  18.630  14.794
82616W        W49684  24.576  15.169   3.332
82617W        W49685  27.036  16.806  10.020
82618W        W49686  32.133  19.128  11.541
82619W        W49687  15.118  42.454  13.813
82620W        W49688  17.674  18.630  11.951
82621W        W49689  12.347  34.409   0.255
82622W        W49690  44.347   8.684  14.334
82623W        W49691   6.699  34.015  14.968
82624W        W49692   9.213   1.939  13.499
82625W        W49693  38.502   8.863  11.426
82626W        W49694  15.750  17.062   2.245
82627W        W49695  10.321   9.296   5.153
82628W        W49696  16.657   5.798   1.915
82629W        W49697  34.432   4.386   4.798
82630W        W49698   8.893  25.546   1.904
82631W        W49699  16.165  29.987  11.430
82632W        W49700   2.730   7.673   0.242
82633W        W49701  35.060   4.798  13.411
82634W        W49702  11.313  43.821  12.365
82635W        W49703  40.393  15.187   1.265
82636W        W49704  40.357   3.331  12.867
82637W        W49705  22.658  25.179  14.779
82638W        W49706  30.155   1.366   3.667
82639W        W49707  42.926  24.598   1.339
82640W        W49708  18.687  27.651  11.015
82641W        W49709  38.062  36.371  14.762
82642W        W49710  27.184  35.420   0.819
82643W        W49711  31.472  25.147  12.411
82644W        W49712  37.970  41.296  12.967
82645W        W49713  41.496   8.239  11.452
82646W        W49714  22.195  13.671   4.188
82647W        W49715   9.657  30.009   4.668
82648W        W49716  23.002   7.316  12.478
82649W        W49717   9.838   8.265   3.824
82650W        W49718  22.140  31.056  10.474
82651W        W49719  18.184  26.073   1.710
82652W        W49720  40.003  20.251  10.974
82653W        W49721  23.653  26.692  10.431
82654W        W49722  32.634  38.988  11.470
82655W        W49723  17.606  32.104   2.896
82656W        W49724   7.846  18.730  13.803
82657W        W49725   2.282  38.456  14.876
82658W        W49726  12.656  31.516  10.612
82659W        W49727   8.736  38.358   1.221
82660W        W49728  42.392  32.990  11.086
82661W        W49729  43.906  33.941   0.842
82662W        W49730   1.477  12.255  13.990
82663W        W49731  37.431  28.161  12.524
82664W        W49732  26.989  25.139   0.247
82665W        W49733  15.717  18.180  10.530
82666W        W49734  41.891  39.843   2.385
82667W        W49735   9.225  32.473   1.850
82668W        W49736  38.548  24.011   1.370
82669W        W49737  42.803  33.874   0.349
82670W        W49738   5.324   0.406  13.372
82671W        W49739   5.809  22.679   3.358
82672W        W49740  42.888  14.304   2.881
82673W        W49741  34.563  21.602  12.378
82674W        W49742  28.149  28.483  12.082
82675W        W49743  36.425  21.648   3.178
82676W        W49744  41.859  42.971  13.385
82677W        W49745  22.053   0.920   2.855
82678W        W49746   6.915   0.825  11.995
82679W        W49747  30.479  41.869   0.769
82680W        W49748  43.968  16.133   2.703
82681W        W49749  40.516  27.499  11.908
82682W        W49750  15.083   5.345   1.865
82683W        W49751  11.749  35.463   4.717
82684W        W49752  29.428   9.872  11.909
82685W        W49753  23.611  30.475   0.910
82686W        W49754  30.958  28.508   4.174
82687W        W49755  31.552  28.058  14.977
82688W        W49756  16.205  12.261   0.416
82689W        W49757  32.603  41.348   0.877
82690W        W49758  38.569   6.825   1.390
82691W        W49759  11.766  27.480  10.912
82692W        W49760  24.007  14.620  14.918
82693W        W49761  35.933  34.975   2.356
82694W        W49762  44.299  30.990   0.853
82695W        W49763  25.674  30.987   4.340
82696W        W49764  18.292  11.352  11.471
82697W        W49765  33.488  16.247   2.398
82698W        W49766  42.844  16.292  10.451
82699W        W49767  42.414   1.377  13.488
82700W        W49768  29.433  38.468  13.028
82701W        W49769  14.813   0.264  11.607
82702W        W49770  29.656  28.023   4.312
82703W        W49771  27.587  36.978   1.706
82704W        W49772  11.816  34.013  10.983
82705W        W49773  33.877   7.181  13.013
82706W        W49774   4.335  32.067   3.248
82707W        W49775  16.688  44.844   4.189
82708W        W49776  44.428   8.755   0.253
82709W        W49777  34.421  20.103   2.771
82710W        W49778   6.792   2.450  11.856
82711W        W49779  36.474   4.788   1.891
82712W        W49780  31.637   6.690  11.927
82713W        W49781  41.952  23.542  12.580
82714W        W49782  12.270  11.699  11.559
82715W        W49783  15.681  35.025  12.341
82716W        W49784  26.548  37.575   2.845
82717W        W49785  26.957  20.035  14.905
82718W        W49786  32.922   4.730  13.857
82719W        W49787  35.382  32.997  11.484
82720W        W49788  10.181  15.735   3.327
82721W        W49789  39.484  43.824  12.471
82722W        W49790  32.395  33.101  14.471
82723W        W49791   5.321  29.504   2.664
82724W        W49792  39.512  29.074  12.847
82725W        W49793  19.200  36.398  10.418
82726W        W49794   8.241   7.357  13.418
82727W        W49795  36.396   3.871  12.036
82728W        W49796  29.170   2.965   1.405
82729W        W49797  40.835  21.544   1.713
82730W        W49798  22.064  31.017   0.476
82731W        W49799   8.792  25.047  14.898
82732W        W49800  17.130   9.298   3.216
82733W        W49801  34.562  37.853   1.256
82734W        W49802   1.391  27.954  12.370
82735W        W49803  44.788   4.736   3.740
82736W        W49804   3.402  22.610   5.135
82737W        W49805   5.199  22.626  11.933
82738W        W49806  20.588  24.080   4.785
82739W        W49807  19.103  16.788  14.506
82740W        W49808  10.341  31.899  11.437
82741W        W49809  41.021  30.014  13.854
82742W        W49810  34.034  38.556  10.562
82743W        W49811   7.892   5.205  11.042
82744W        W49812  18.544  21.604  11.938
82745W        W49813   2.922  29.070  14.028
82746W        W49814  26.556  44.430   2.684
82747W        W49815  21.094   8.398  14.807
82748W        W49816   4.320   4.784   3.272
82749W        W49817  35.038  23.024  13.535
82750W        W49818  39.974   8.816   5.207
82751W        W49819   1.478  39.444   3.828
82752W        W49820  31.491   9.841  14.461
82753W        W49821  43.895   7.330  11.876
82754W        W49822  17.153  24.543   4.728
82755W        W49823   7.377  33.479   3.763
82756W        W49824   8.362  42.855   4.269
82757W        W49825   6.840  19.268   2.800
82758W        W49826  33.890  23.685  14.941
82759W        W49827   8.882  15.242  13.940
82760W        W49828  12.619  37.464  10.899
82761W        W49829  10.334  12.672  12.913
82762W        W49830  22.228   0.743   0.298
82763W        W49831  43.439  14.301  14.314
82764W        W49832  25.009  20.721  10.528
82765W        W49833   0.385  26.114  11.070
82766W        W49834   7.248  31.548  11.461
82767W        W49835  18.577   5.719  10.599
82768W        W49836  12.255   2.306  12.823
82769W        W49837  30.630  42.849  12.475
82770W        W49838  43.468   5.695   3.353
82771W        W49839  16.762  18.196   0.248
82772W        W49840  28.510  38.444   0.769
82773W        W49841  26.700  37.482  12.569
82774W        W49842  22.565  18.265   3.337
82775W        W49843   7.381  24.521   2.804
82776W        W49844  20.748  39.009  13.801
82777W        W49845  30.587   5.872   4.821
82778W        W49846  26.679   8.732   0.260
82779W        W49847  18.715  23.191   1.267
82780W        W49848  15.807  44.349  11.948
82781W        W49849   6.835  23.172   3.775
82782W        W49850   9.247  12.716  13.506
82783W        W49851   2.720   1.759  12.070
82784W        W49852  23.628  37.419  10.586
82785W        W49853  36.508   3.427   1.279
82786W        W49854  13.270   6.318  10.955
82787W        W49855  30.109  10.321   0.332
82788W        W49856  16.739  29.122  13.058
82789W        W49857  18.132  44.273   2.715
82790W        W49858  37.877  28.970   2.209
82791W        W49859  43.960  42.511  14.504
82792W        W49860  31.626  37.467   4.217
82793W        W49861  11.811   5.227   4.340
82794W        W49862  15.250   0.931  11.572
82795W        W49863  31.905  44.329  13.505
82796W        W49864  30.934  35.075   3.641
82797W        W49865  23.603  22.652   2.734
82798W        W49866  21.571  25.162  10.617
82799W        W49867  13.158   3.734   0.737
82800W        W49868  21.715  18.076  14.490
82801W        W49869  32.058  23.495  13.950
82802W        W49870  10.273  32.572  13.819
82803W        W49871   3.763  27.463   2.189
82804W        W49872   0.424  18.226  11.867
82805W        W49873  19.773   2.259   2.803
82806W        W49874   5.283  21.024   3.790
82807W        W49875  39.556  16.115  13.390
82808W        W49876  12.138   5.400  14.986
82809W        W49877  44.279  34.100  11.085
82810W        W49878  35.926  32.474  11.051
82811W        W49879  39.924  13.190  11.943
82812W        W49880  27.972  13.123  14.494
82813W        W49881  30.023   7.317   3.298
82814W        W49882  24.628  31.083  10.441
82815W        W49883   0.971  17.286  12.483
82816W        W49884  14.653   7.741   2.707
82817W        W49885  26.158  23.210   2.727
82818W        W49886  40.902  27.132   3.159
82819W        W49887  10.307  28.024   1.893
82820W        W49888  44.761   2.739  13.051
82821W        W49889   8.772  22.205  11.554
82822W        W49890   3.778   1.448  11.971
82823W        W49891  12.673  30.058   4.812
82824W        W49892   0.493  37.876   4.157
82825W        W49893   2.863  18.778   1.283
82826W        W49894  30.444  14.665   4.313
82827W        W49895  40.987  17.562  12.044
82828W        W49896  24.547  30.057   2.209
82829W        W49897  28.645  18.055  12.869
82830W        W49898  17.268  16.617  12.843
82831W        W49899  30.484  11.352  13.972
82832W        W49900  29.509  16.749   4.831
82833W        W49901  43.322   4.358  10.503
82834W        W49902  29.544  20.169  13.055
82835W        W49903  30.091   0.488  13.997
82836W        W49904   7.790  41.538  14.350
82837W        W49905   1.335  30.090  14.406
82838W        W49906  43.765  29.511   2.885
82839W        W49907  44.413  12.614  13.548
82840W        W49908  22.611   1.809  11.956
82841W        W49909  10.214  38.452  11.403
82842W        W49910   6.250   3.720  13.038
82843W        W49911  34.489   6.885  12.551
82844W        W49912  31.061  44.803  12.442
82845W        W49913  36.581  30.153  10.558
82846W        W49914  44.354   0.419   0.735
82847W        W49915  19.603  42.783   2.865
82848W        W49916  42.027   1.802  11.891
82849W        W49917   0.448  13.793   1.790
82850W        W49918  40.525  41.534  11.379
82851W        W49919   3.952  36.454   3.365
82852W        W49920  11.176   3.244   3.375
82853W        W49921  15.155  37.933   0.769
82854W        W49922  27.145  37.468  11.893
82855W        W49923   8.312  42.018  14.411
82856W        W49924  39.009  33.443   0.922
82857W        W49925  30.453   3.835   2.684
82858W        W49926  21.044  10.279  11.012
82859W        W49927  26.544  35.419   2.804
82860W        W49928  16.208   5.227  11.097
82861W        W49929  16.144   4.318   4.240
82862W        W49930  36.062  38.460  13.027
82863W        W49931  18.071  23.094   2.340
82864W        W49932  29.968  14.681   3.249
82865W        W49933  32.423   7.764   0.324
82866W        W49934   6.724  30.614   0.940
82867W        W49935   8.738  15.695  14.848
82868W        W49936  39.811   8.895  12.844
82869W        W49937  23.588  15.248   3.252
82870W        W49938   4.831  25.189  10.538
82871W        W49939  17.087  19.634   2.325
82872W        W49940  17.563  41.442   3.765
82873W        W49941   9.338  14.764  10.614
82874W        W49942   1.338  23.040   1.740
82875W        W49943  21.063  12.805  12.418
82876W        W49944  29.138  29.089  12.390
82877W        W49945  16.152  40.917  13.374
82878W        W49946   6.199   8.846  11.871
82879W        W49947   0.297  41.921  12.094
82880W        W49948  44.382  13.256  14.892
82881W        W49949  10.251  23.621   2.278
82882W        W49950  35.983  21.050   0.859
82883W        W49951  18.762  23.649   1.719
82884W        W49952  28.127   4.290  14.958
82885W        W49953  34.417   5.206  12.514
82886W        W49954  17.253  25.700   0.835
82887W        W49955  37.927  34.966   2.841
82888W        W49956  28.449   7.910   1.218
82889W        W49957  13.298  42.302  11.475
82890W        W49958   9.740   4.882  13.309
82891W        W49959  31.412   8.191   0.762
82892W        W49960  32.976  41.849   1.773
82893W        W49961  42.970  10.653   4.727
82894W        W49962  40.953  37.424   4.605
82895W        W49963  24.127  11.265   0.434
82896W        W49964  17.202  10.199  11.397
82897W        W49965   3.248  39.046   1.853
82898W        W49966  10.656   9.669  10.483
82899W        W49967  38.493  34.087   3.661
82900W        W49968   5.826  30.911  14.889
82901W        W49969   3.913  22.612  12.063
82902W        W49970  36.072  27.177   2.273
82903W        W49971  14.680  21.090   4.293
82904W        W49972  25.135  25.646   4.802
82905W        W49973  41.938   8.228   1.852
82906W        W49974  19.284  16.731  14.805
82907W        W49975   4.332  18.684  13.910
82908W        W49976  10.289   7.227   2.281
82909W        W49977  31.101  30.540   3.784
82910W        W49978  32.009   2.240   1.762
82911W        W49979  26.615  16.588  13.051
82912W        W49980  35.461  17.668  10.927
82913W        W49981  40.342   6.887   3.273
82914W        W49982   0.486  39.440   4.653
82915W        W49983  17.587  23.138   0.923
82916W        W49984  17.763   4.709  10.429
82917W        W49985  39.386   8.858   4.303
82918W        W49986   4.749   8.392   3.755
82919W        W49987  20.574  41.910   2.847
82920W        W49988  28.176  10.362   2.305
82921W        W49989   1.436  29.502  12.857
82922W        W49990   0.460  41.353  11.373
82923W        W49991  19.087  13.649  14.319
82924W        W49992  38.514  30.076   2.399
82925W        W49993  22.646  31.455   2.314
82926W        W49994  38.452  35.429  12.379
82927W        W49995   8.262  23.043   0.428
82928W        W49996  28.617  41.848  12.846
82929W        W49997  19.666  35.518  12.012
82930W        W49998  11.127  31.486  14.786
82931W        W49999  43.440   4.216   4.137
82932W        W50000   0.317   6.813   3.715
82933W        W50001   3.807  19.637   4.791
82934W        W50002   6.273  16.247   4.635
82935W        W50003  28.447  40.365   4.246
82936W        W50004  28.976  18.246  13.356
82937W        W50005  13.714   5.394   1.388
82938W        W50006  25.044  39.427  14.412
82939W        W50007  31.049   5.275  10.432
82940W        W50008  30.493  41.010   2.338
82941W        W50009  18.747  16.627   0.769
82942W        W50010  30.524  26.058  13.353
82943W        W50011  38.334  11.299   0.352
82944W        W50012  37.023  31.645   0.744
82945W        W50013  37.044   6.395   3.367
82946W        W50014  15.663  32.508  13.856
82947W        W50015  22.590   4.750   3.350
82948W        W50016   0.273  40.447   3.817
82949W        W50017  33.611  17.590  12.516
82950W        W50018   5.205  41.531   3.770
82951W        W50019   5.810  36.889   2.222
82952W        W50020   2.729  35.057   1.305
82953W        W50021  22.118  13.118  11.899
82954W        W50022  17.178  31.072   1.378
82955W        W50023  40.447   0.803   5.190
82956W        W50024  12.220  21.118   1.368
82957W        W50025  23.681  16.770   1.744
82958W        W50026  24.104  23.611   4.762
82959W        W50027  40.476   3.775   0.785
82960W        W50028  28.563  40.423  13.883
82961W        W50029   9.163  31.035  11.517
82962W        W50030   8.261   5.878   2.279
82963W        W50031  28.101  10.283  14.480
82964W        W50032   8.361  27.615   3.339
82965W        W50033  25.630  41.294  11.077
82966W        W50034  24.657  22.227   3.778
82967W        W50035  28.130  38.852  14.904
82968W        W50036   7.197  42.348   2.709
82969W        W50037  26.001  11.327   0.366
82970W        W50038  10.737  23.582   1.820
82971W        W50039  23.213  28.627   4.768
82972W        W50040  33.525  21.062  14.512
82973W        W50041  34.444  32.049  13.029
82974W        W50042  22.512   9.736   0.453
82975W        W50043  38.825  31.416  14.503
82976W        W50044  20.551  19.200   0.925
82977W        W50045  24.610  17.774  14.014
82978W        W50046  25.167   3.234  13.478
82979W        W50047   1.374  23.005  12.954
82980W        W50048   4.366   4.363  13.877
82981W        W50049  15.265  35.006   1.251
82982W        W50050  15.135  33.031   1.235
82983W        W50051  28.678   5.778   1.396
82984W        W50052  29.046  17.699   2.348
82985W        W50053  13.221  27.503   2.814
82986W        W50054  14.148  20.671  11.867
82987W        W50055  24.999  14.773  12.540
82988W        W50056   0.332  21.524  14.019
82989W        W50057  40.919  44.440  12.042
82990W        W50058   6.203  30.654  11.412
82991W        W50059   1.288  42.428  14.349
82992W        W50060  37.461  34.017   2.202
82993W        W50061  16.259  38.338  11.108
82994W        W50062  35.575  26.664   4.306
82995W        W50063  41.037  36.008  12.829
82996W        W50064  13.221  30.465  12.886
82997W        W50065   9.861  35.971   0.895
82998W        W50066   6.400   0.950   4.150
82999W        W50067  21.125  15.293   3.362
83000W        W50068  31.416  35.046  11.497
83001W        W50069   9.391   9.682   3.634
83002W        W50070   7.843   6.254   4.741
83003W        W50071  32.441  37.367   5.278
83004W        W50072  36.506  15.278  11.915
83005W        W50073  23.043  26.976  11.086
83006W        W50074  16.625   2.869   2.849
83007W        W50075  34.559  30.133   0.429
83008W        W50076  10.770   3.802   1.296
83009W        W50077   9.768  36.915   0.286
83010W        W50078  31.031  12.695  13.062
83011W        W50079   1.390  34.608   0.904
83012W        W50080  34.897  24.528   1.922
83013W        W50081  25.536  16.186   3.758
83014W        W50082  29.113  39.432  13.923
83015W        W50083   0.403  10.688  11.941
83016W        W50084  33.934  24.062   2.667
83017W        W50085  19.219  24.550  13.335
83018W        W50086  27.464   6.419   2.814
83019W        W50087  17.155  37.353   0.814
83020W        W50088  42.326  44.010   2.193
83021W        W50089  29.599  18.619  11.520
83022W        W50090  18.562  22.665   4.602
83023W        W50091  25.006  12.232   0.967
83024W        W50092  29.651  19.757   3.354
83025W        W50093  41.294  29.433   1.706
83026W        W50094  26.172  16.731  11.863
83027W        W50095  39.413  25.713  12.540
83028W        W50096   3.938  34.375   1.226
83029W        W50097   4.910  11.675  13.399
83030W        W50098  40.875  28.459   0.318
83031W        W50099   2.400  41.301   2.369
83032W        W50100   8.763  31.913  13.047
83033W        W50101   9.257  30.159   0.306
83034W        W50102  43.888  13.777  12.901
83035W        W50103  14.787  33.897   3.264
83036W        W50104  16.160  40.970  11.049
83037W        W50105  12.688  42.386  12.931
83038W        W50106   3.279  31.096  12.009
83039W        W50107   9.280  12.288  10.943
83040W        W50108  26.122  20.593   2.193
83041W        W50109   8.792  29.616   4.697
83042W        W50110  29.930  32.427   1.850
83043W        W50111  41.355  40.362   3.690
83044W        W50112   8.278  26.111   3.759
83045W        W50113  18.102  29.474  12.925
83046W        W50114   1.382   6.861  14.937
83047W        W50115   5.195  11.147  11.429
83048W        W50116  31.006  34.055  11.459
83049W        W50117  26.196  12.696  14.912
83050W        W50118   9.735  32.577   4.294
83051W        W50119  39.864  13.131   1.364
83052W        W50120  41.960  42.465   2.192
83053W        W50121  13.657  39.317  14.396
83054W        W50122  16.779  31.090   1.358
83055W        W50123  40.439  17.665   3.635
83056W        W50124  14.217  31.641   1.829
83057W        W50125  39.896  39.340  12.034
83058W        W50126   6.743  43.823   2.181
83059W        W50127  29.041  12.838   4.799
83060W        W50128  37.543  35.944   2.354
83061W        W50129  24.556  25.038  13.315
83062W        W50130  44.978  28.094   2.281
83063W        W50131  19.148   1.931   4.302
83064W        W50132  12.711   1.320  13.013
83065W        W50133  29.530  39.875  14.802
83066W        W50134   1.975  41.516  13.826
83067W        W50135   9.224  20.065   1.790
83068W        W50136  36.842  27.609  12.061
83069W        W50137  28.185   3.319   5.151
83070W        W50138  35.957   4.910   1.240
83071W        W50139   9.736   9.366  12.841
83072W        W50140  24.158  36.072  14.850
83073W        W50141  38.529  31.985  13.463
83074W        W50142  24.679  21.741  10.409
83075W        W50143  32.434  29.142  11.116
83076W        W50144   3.423  21.053   4.118
83077W        W50145  21.092   0.791   0.373
83078W        W50146  23.011   6.323   3.667
83079W        W50147  41.008  37.405  14.275
83080W        W50148   2.336   8.718   1.333
83081W        W50149  33.463  39.819  12.446
83082W        W50150  30.964  14.208  13.881
83083W        W50151  24.062   6.344   3.791
83084W        W50152   0.785  44.956  14.278
83085W        W50153   8.191   6.700   4.291
83086W        W50154  16.740  22.650  10.065
83087W        W50155  32.118   5.418  12.005
83088W        W50156  17.619   6.730  14.003
83089W        W50157   7.231  43.493   1.413
83090W        W50158   0.820  39.502   3.205
83091W        W50159  17.632  39.838   4.354
83092W        W50160  27.624   2.398  10.503
83093W        W50161  28.090   9.254  12.912
83094W        W50162  30.993  30.600   2.194
83095W        W50163   0.900  12.217  14.408
83096W        W50164   3.921  16.745  13.357
83097W        W50165  12.194  14.225  10.563
83098W        W50166  23.492  17.185  11.611
83099W        W50167  36.580  18.095  11.883
83100W        W50168  34.057   1.820  12.877
83101W        W50169  34.427   2.367  14.451
83102W        W50170  34.453  30.922   1.252
83103W        W50171   0.959  24.183  14.409
83104W        W50172   6.218  38.005   2.416
83105W        W50173   2.927  19.693   0.375
83106W        W50174  31.595   6.367  14.511
83107W        W50175   3.352  23.138  11.440
83108W        W50176  22.021  17.785   3.829
83109W        W50177  14.714  44.348  14.972
83110W        W50178  22.035   8.225   1.844
83111W        W50179  17.112  31.463   0.427
83112W        W50180   9.281  44.403  10.472
83113W        W50181  17.093  18.605   1.313
83114W        W50182  31.940   4.747  12.044
83115W        W50183   3.315  18.189   2.850
83116W        W50184  39.828  38.372  11.454
83117W        W50185  41.379   4.894   2.770
83118W        W50186  13.130  16.257   1.803
83119W        W50187  34.092  22.638   3.708
83120W        W50188  21.558  33.433   3.153
83121W        W50189  34.493  13.248   0.761
83122W        W50190  19.707  42.289   2.736
83123W        W50191   8.794  38.503   2.767
83124W        W50192  33.488  27.945   1.934
83125W        W50193  25.654  29.528  11.030
83126W        W50194  41.796  39.394   2.714
83127W        W50195   6.775   7.233   3.219
83128W        W50196  11.227  42.972  10.915
83129W        W50197   5.862  41.505  10.939
83130W        W50198   9.877  24.212   4.639
83131W        W50199   8.211   3.294   3.206
83132W        W50200  22.141  34.495   4.218
83133W        W50201  21.610   3.326  13.441
83134W        W50202  34.883   0.305  11.050
83135W        W50203   2.279   0.856  10.926
83136W        W50204  42.463  29.633  14.305
83137W        W50205  21.566  10.667  13.965
83138W        W50206  41.303  31.063  14.280
83139W        W50207   3.935  27.071   3.239
83140W        W50208  13.729  32.050  12.433
83141W        W50209   4.823   2.238   3.275
83142W        W50210  27.522  15.811  11.427
83143W        W50211   9.837  17.556  10.937
83144W        W50212  28.551  11.680  10.602
83145W        W50213  31.923  38.955  10.403
83146W        W50214  39.548  20.260  13.926
83147W        W50215  26.502   1.960  10.887
83148W        W50216  33.042  15.618  13.932
83149W        W50217  12.803  35.989   0.254
83150W        W50218  31.050  35.991  12.438
83151W        W50219  18.750  38.487  12.063
83152W        W50220  31.909   5.290   4.282
83153W        W50221  19.567  28.542  12.513
83154W        W50222  23.012  12.616  12.524
83155W        W50223   3.890   6.415  12.360
83156W        W50224  20.713  24.193   3.767
83157W        W50225  42.837  39.390   3.861
83158W        W50226  31.544  24.670  13.939
83159W        W50227  20.683  28.063   4.607
83160W        W50228  35.022  35.970   5.188
83161W        W50229  18.148  26.662  13.836
83162W        W50230  25.059   2.750   4.134
83163W        W50231  14.190  34.999   5.085
83164W        W50232   3.725   1.240   4.302
83165W        W50233   3.795  19.534  11.384
83166W        W50234   2.337  31.039  13.543
83167W        W50235  23.688  42.441  13.982
83168W        W50236  22.133   9.665   3.373
83169W        W50237  40.977  41.812  11.433
83170W        W50238  18.735   6.280  12.060
83171W        W50239  42.297  30.539  13.479
83172W        W50240   9.670  29.630  14.465
83173W        W50241  11.764  36.915  14.354
83174W        W50242   7.906  27.117  10.552
83175W        W50243   3.927  25.468  14.970
83176W        W50244   7.856  30.029   3.155
83177W        W50245  44.417   7.827   5.120
83178W        W50246  34.379  22.027  12.949
83179W        W50247  42.484  24.572   3.338
83180W        W50248  29.050  37.968   2.731
83181W        W50249   6.684  33.116   3.805
83182W        W50250  19.077  31.913  10.117
83183W        W50251   6.697  39.531   2.856
83184W        W50252   8.307   2.447   1.844
83185W        W50253   5.299  19.197  13.336
83186W        W50254  23.572  10.793   2.279
83187W        W50255   6.681  12.279  13.966
83188W        W50256  25.015  43.976  13.819
83189W        W50257   3.402  24.143   2.297
83190W        W50258  10.171  29.660  12.343
83191W        W50259  42.882  15.097   2.346
83192W        W50260  37.582  19.221  14.935
83193W        W50261  19.618  16.154  11.511
83194W        W50262  16.686   9.649   5.567
83195W        W50263  27.945  15.764  13.448
83196W        W50264  29.575  20.265  14.418
83197W        W50265  29.048  25.579  13.540
83198W        W50266  11.852  21.226  11.430
83199W        W50267   6.702  29.640   0.425
83200W        W50268  13.349  14.119  14.334
83201W        W50269  25.105   4.343  12.547
83202W        W50270  16.155  42.296  10.931
83203W        W50271  26.460  35.448  10.583
83204W        W50272  38.831  18.239   1.921
83205W        W50273  44.970  29.633  12.388
83206W        W50274  22.034  43.430   2.884
83207W        W50275  34.974  26.974   3.693
83208W        W50276  43.998  18.770  12.539
83209W        W50277  27.690   3.249  13.821
83210W        W50278   1.822  29.637  10.961
83211W        W50279   1.375  41.346  12.842
83212W        W50280  30.445  21.025   2.790
83213W        W50281  13.224   4.755  12.084
83214W        W50282  22.598  19.188  14.032
83215W        W50283  31.441  16.088  14.310
83216W        W50284   0.469  23.148  13.876
83217W        W50285   9.290  18.682   0.735
83218W        W50286  34.578  25.143  13.410
83219W        W50287  22.561  29.453   5.232
83220W        W50288  22.520  17.065  12.534
83221W        W50289  27.640  32.539  10.031
83222W        W50290  10.659  35.358  13.837
83223W        W50291  26.674  10.789  14.975
83224W        W50292   1.401   0.462  11.609
83225W        W50293   0.297  12.723   1.428
83226W        W50294  42.827  30.124  10.531
83227W        W50295   4.737  22.043  10.052
83228W        W50296  32.096  20.229  11.079
83229W        W50297  37.338   8.735   2.202
83230W        W50298  31.064  35.922   4.207
83231W        W50299   2.840   9.798  11.952
83232W        W50300   7.352  12.733  11.541
83233W        W50301  43.835  43.301   0.328
83234W        W50302   2.281  23.148  10.552
83235W        W50303  13.604  14.772   2.775
83236W        W50304  39.015  17.621   0.767
83237W        W50305  19.271  31.122  11.934
83238W        W50306   7.187  41.294   0.321
83239W        W50307   1.374   9.349   0.942
83240W        W50308  40.855  17.691   0.775
83241W        W50309  35.065  26.590   4.704
83242W        W50310   4.852   8.253   4.606
83243W        W50311  35.581  43.910   1.238
83244W        W50312  17.607  24.990  12.405
83245W        W50313  37.887  38.985  12.972
83246W        W50314   2.313   7.764   2.836
83247W        W50315  38.076  38.384  11.920
83248W        W50316  43.935  44.956   2.380
83249W        W50317  11.246  43.914  14.382
83250W        W50318  19.694  22.550   0.862
83251W        W50319  40.889  38.914  13.840
83252W        W50320  25.543  30.078  14.802
83253W        W50321  25.174  20.148  10.428
83254W        W50322  29.460  26.034  12.498
83255W        W50323   9.254   3.768   1.929
83256W        W50324  14.638   9.670   1.269
83257W        W50325  37.996  16.653   0.898
83258W        W50326  15.248  32.140  11.021
83259W        W50327  30.964  37.028  10.916
83260W        W50328  31.011  12.151  12.919
83261W        W50329  35.079   0.336   3.152
83262W        W50330  32.577  24.514   2.379
83263W        W50331  12.821   3.453   3.372
83264W        W50332  38.369   3.773   4.299
83265W        W50333  23.127  17.157   1.338
83266W        W50334  15.766  17.696   1.701
83267W        W50335  32.461   2.912   2.230
83268W        W50336  42.427  26.687   3.375
83269W        W50337  39.042  14.275   0.292
83270W        W50338   0.873  15.703   4.217
83271W        W50339  18.725  15.232  14.300
83272W        W50340  18.652  18.175  10.990
83273W        W50341  25.199  13.599  10.906
83274W        W50342  19.276  39.333  12.383
83275W        W50343  11.366   7.827   4.806
83276W        W50344  24.207   8.391  11.535
83277W        W50345  27.119  27.981   2.242
83278W        W50346  34.011  42.449  11.480
83279W        W50347   6.843   9.683   1.778
83280W        W50348  18.656  44.921  14.003
83281W        W50349   7.875  23.064  14.851
83282W        W50350  40.372  42.798  14.935
83283W        W50351  18.123   3.792   0.887
83284W        W50352  27.048  11.335   0.356
83285W        W50353  30.924  11.302  13.406
83286W        W50354  43.405  39.874   3.181
83287W        W50355   1.963  33.388  12.574
83288W        W50356  26.504  44.340  12.405
83289W        W50357  25.092  44.778   1.301
83290W        W50358  16.650  15.804   1.246
83291W        W50359  18.549  25.080   2.876
83292W        W50360  21.703   9.776  13.057
83293W        W50361  11.738  19.665  11.574
83294W        W50362  17.088  40.495   3.656
83295W        W50363   3.404  21.645  12.401
83296W        W50364   7.716  26.997   4.624
83297W        W50365  40.817  27.974  12.066
83298W        W50366  32.108  18.605   0.881
83299W        W50367  16.794   7.205  10.406
83300W        W50368   3.908  31.063  11.531
83301W        W50369  16.260  40.473   1.871
83302W        W50370   4.277  36.563   1.217
83303W        W50371  27.001  26.481   1.219
83304W        W50372  31.482   7.305   2.786
83305W        W50373  17.195  39.855  13.026
83306W        W50374  22.686   9.346   1.831
83307W        W50375  23.008   1.847   2.325
83308W        W50376  40.336   7.217   2.287
83309W        W50377   3.949   3.802  12.433
83310W        W50378  37.348  42.824  11.881
83311W        W50379  11.138  26.065   4.833
83312W        W50380  36.430  32.057  14.496
83313W        W50381  33.956  31.955  13.886
83314W        W50382   3.876   4.336  14.024
83315W        W50383  11.713  19.202   2.758
83316W        W50384  14.777   1.913   3.827
83317W        W50385  32.088   7.205   0.743
83318W        W50386  32.002  12.751  11.023
83319W        W50387  33.571  21.669  14.494
83320W        W50388   4.838  39.033  14.889
83321W        W50389  34.567  25.181   0.306
83322W        W50390  13.135  14.614  12.017
83323W        W50391   8.301   1.389   9.462
83324W        W50392  21.105  20.169  12.458
83325W        W50393  14.257  19.601   4.795
83326W        W50394  24.987   2.965   0.758
83327W        W50395  23.543  27.671  13.029
83328W        W50396  31.444   0.466   4.279
83329W        W50397  35.914  33.933  10.938
83330W        W50398  10.839   4.219   1.882
83331W        W50399  28.998  12.800  14.374
83332W        W50400   7.289  19.595   2.709
83333W        W50401  40.948   6.256  11.907
83334W        W50402   3.354  12.248   1.705
83335W        W50403  17.127  20.703   3.179
83336W        W50404  34.871  38.450   1.782
83337W        W50405  29.172   0.792  14.298
83338W        W50406  31.504  17.181   4.321
83339W        W50407  18.560   8.216   0.377
83340W        W50408   8.768  34.888   4.287
83341W        W50409   4.254  43.374   1.807
83342W        W50410  44.872  24.034   3.796
83343W        W50411  42.432  34.614   4.241
83344W        W50412  15.747  29.042  10.063
83345W        W50413  15.781   2.879   1.360
83346W        W50414   7.779  31.096  13.457
83347W        W50415  29.588  15.153   3.837
83348W        W50416  13.699  13.219  11.103
83349W        W50417  21.735  42.840  10.927
83350W        W50418  40.886  15.211   0.421
83351W        W50419  32.106   2.735  12.450
83352W        W50420  12.643  26.067  12.358
83353W        W50421  25.984  26.138   0.353
83354W        W50422  17.122  11.634  12.366
83355W        W50423  17.743  43.788   4.318
83356W        W50424  27.030   6.387   1.247
83357W        W50425  15.654  25.971   0.379
83358W        W50426  16.638  37.444  12.377
83359W        W50427   3.395  17.742  11.107
83360W        W50428  21.023  33.490   5.105
83361W        W50429  11.829  32.547   0.867
83362W        W50430  29.052  32.434   9.566
83363W        W50431  44.815  42.920   3.706
83364W        W50432  32.526  42.835  11.530
83365W        W50433  13.726  26.189   3.774
83366W        W50434  20.604  33.480  11.028
83367W        W50435  43.011  43.916   3.822
83368W        W50436  43.830  28.532   3.319
83369W        W50437  33.545  17.202  11.398
83370W        W50438  33.402  26.511  13.397
83371W        W50439  10.677  12.724   1.308
83372W        W50440  23.526  16.195  11.423
83373W        W50441  16.138  35.517   0.895
83374W        W50442   9.679  11.356  11.609
83375W        W50443  25.976  26.183  13.464
83376W        W50444  10.143   2.235   1.837
83377W        W50445  16.310  22.122   3.287
83378W        W50446  30.479  11.759   0.824
83379W        W50447  39.485   3.778  10.543
83380W        W50448  23.501  28.595   3.772
83381W        W50449  38.543  21.612   3.315
83382W        W50450  27.981  22.744  12.848
83383W        W50451  42.844   3.436  12.026
83384W        W50452  36.071  41.888   3.267
83385W        W50453  13.799  41.519   3.791
83386W        W50454   5.193   7.910   1.853
83387W        W50455   7.189  17.146  12.576
83388W        W50456   6.767   9.728   0.458
83389W        W50457   5.891  38.972  10.418
83390W        W50458  23.505  44.271  13.441
83391W        W50459  41.949  13.123  11.997
83392W        W50460  30.998   0.841  10.957
83393W        W50461  18.121  14.098  11.886
83394W        W50462   2.448  29.009   4.638
83395W        W50463   5.422   0.912   2.867
83396W        W50464  25.175   1.404  10.971
83397W        W50465  20.149  29.073   3.734
83398W        W50466  31.452   1.799  13.024
83399W        W50467  14.651  19.534   2.848
83400W        W50468  32.036  38.426   3.685
83401W        W50469  28.518  33.044  14.865
83402W        W50470  30.032  40.956   4.709
83403W        W50471  30.910   3.367   0.443
83404W        W50472   2.774  15.720   2.346
83405W        W50473  27.448  31.417  11.514
83406W        W50474  19.198  12.730   1.782
83407W        W50475   7.415  15.143   3.831
83408W        W50476  11.185  43.021  11.398
83409W        W50477  41.975  15.716   2.218
83410W        W50478  15.756  32.102   4.146
83411W        W50479  26.957  13.107  11.094
83412W        W50480  38.518  44.803  13.507
83413W        W50481  11.856  28.174  12.503
83414W        W50482  37.980   1.821   4.707
83415W        W50483  36.414  31.454   2.824
83416W        W50484   1.829  37.415   2.701
83417W        W50485  24.157  35.991  12.378
83418W        W50486  21.021  23.069   3.253
83419W        W50487  28.140  44.760  13.802
83420W        W50488  18.292  25.612  13.887
83421W        W50489  44.486   2.957   4.712
83422W        W50490   5.411  16.713   2.261
83423W        W50491   7.715  41.941  14.843
83424W        W50492  42.874  14.720   3.833
83425W        W50493  40.855   1.384  11.056
83426W        W50494   8.162  18.618  11.125
83427W        W50495   8.258  35.938  14.282
83428W        W50496   7.705  22.220  13.868
83429W        W50497  39.001  42.910   3.808
83430W        W50498  16.259  13.225   4.212
83431W        W50499   6.183  38.477  10.627
83432W        W50500  15.157  30.440  14.422
83433W        W50501  22.582  27.071   2.417
83434W        W50502  44.502   2.862  12.548
83435W        W50503  32.455   5.852   2.774
83436W        W50504  39.334  38.891  11.579
83437W        W50505  19.192  26.019  13.365
83438W        W50506  25.145  29.073  11.105
83439W        W50507  43.008  10.304   3.794
83440W        W50508  36.038   8.220   4.729
83441W        W50509  32.584  14.341   1.712
83442W        W50510  19.134  21.195  11.936
83443W        W50511  25.653  43.790  13.409
83444W        W50512  40.461  32.984   3.213
83445W        W50513  28.162  15.227   2.781
83446W        W50514   5.384  26.529  11.502
83447W        W50515  15.749  41.901  14.028
83448W        W50516  29.633  11.773  11.479
83449W        W50517  16.208  30.962  10.643
83450W        W50518  44.894  27.121  11.980
83451W        W50519  24.673  37.543   1.262
83452W        W50520   5.342  36.563   3.294
83453W        W50521  40.804  17.136   0.775
83454W        W50522  38.424  35.926  11.548
83455W        W50523  40.913   8.896   3.719
83456W        W50524  22.649   1.783  11.437
83457W        W50525  19.100  10.729   3.152
83458W        W50526  35.451  31.487  12.966
83459W        W50527  32.446  37.894   0.885
83460W        W50528  44.908  26.997   2.808
83461W        W50529  38.450  44.327  11.911
83462W        W50530  14.286  42.013  11.881
83463W        W50531  22.063  20.140  14.314
83464W        W50532  39.954   8.254  11.464
83465W        W50533  40.976  29.990  12.908
83466W        W50534   4.824  23.237   2.325
83467W        W50535  21.190  40.026   3.824
83468W        W50536  42.028  35.076  11.501
83469W        W50537  15.724  10.294  11.584
83470W        W50538  11.857  21.614  13.488
83471W        W50539  16.205  29.143   4.287
83472W        W50540  12.197  14.122  11.089
83473W        W50541  23.696  18.116  11.381
83474W        W50542  14.255  31.514  12.057
83475W        W50543  44.307  31.463   5.152
83476W        W50544  23.599  16.112   3.760
83477W        W50545  41.304  35.597  12.010
83478W        W50546  36.872   6.197  12.063
83479W        W50547  18.545  12.698  11.087
83480W        W50548   2.930  42.830   1.775
83481W        W50549  25.057  35.511   4.749
83482W        W50550  23.528  15.170   4.292
83483W        W50551  44.288  31.599   1.745
83484W        W50552   1.818  16.086  13.978
83485W        W50553  13.169  14.638   2.871
83486W        W50554  16.729   3.438   4.225
83487W        W50555   3.311  32.889  10.510
83488W        W50556   9.248  29.457  13.037
83489W        W50557  26.602  26.601   3.351
83490W        W50558  17.782  24.103   0.934
83491W        W50559  44.316  27.149  10.964
83492W        W50560  37.957  30.610   3.351
83493W        W50561   9.868  22.634  12.853
83494W        W50562  15.615  20.694  12.831
83495W        W50563  22.250  26.670  14.854
83496W        W50564  22.142  29.933   4.266
83497W        W50565   9.815  35.093   2.198
83498W        W50566   1.346  35.393  12.002
83499W        W50567   7.708   6.373  13.000
83500W        W50568  28.510  43.473   0.907
83501W        W50569  39.907   3.303   2.804
83502W        W50570   7.390   0.849  10.934
83503W        W50571  31.049  43.321  14.458
83504W        W50572   1.352   2.350   4.736
83505W        W50573  14.601  21.574   4.338
83506W        W50574   5.702  28.559  13.062
83507W        W50575  13.253  41.333  10.960
83508W        W50576   4.268   6.348  13.805
83509W        W50577  23.066  12.354  13.815
83510W        W50578  12.729  32.597  14.787
83511W        W50579  42.972  35.897   4.197
83512W        W50580   3.321  35.537  10.507
83513W        W50581   2.956   9.232  14.820
83514W        W50582   3.447  35.562   0.426
83515W        W50583  17.286   6.756   2.891
83516W        W50584  23.726  13.183  11.065
83517W        W50585  38.461   4.283   2.216
83518W        W50586  33.945  11.715   0.434
83519W        W50587   1.826   6.298  12.924
83520W        W50588  30.543  29.091  11.071
83521W        W50589   3.237  27.158  11.966
83522W        W50590  28.107  12.647   3.173
83523W        W50591  28.145  13.251  12.487
83524W        W50592  16.227  10.697   0.851
83525W        W50593   2.840  37.893  14.971
83526W        W50594   8.369  19.762   4.758
83527W        W50595  30.915  15.259  14.784
83528W        W50596   8.673   9.733   4.781
83529W        W50597  16.605  30.563   1.337
83530W        W50598   0.388  43.481  14.919
83531W        W50599  28.591  31.535  12.925
83532W        W50600  16.581   7.270  13.814
83533W        W50601  24.998  15.706  12.486
83534W        W50602   6.378  13.250  14.377
83535W        W50603  36.436  16.222  12.994
83536W        W50604  25.494   7.399  12.446
83537W        W50605  17.631  40.401  13.399
83538W        W50606  37.482  44.475  10.987
83539W        W50607  15.253  37.454   2.343
83540W        W50608  11.649  28.555  10.906
83541W        W50609   3.726  25.067  12.425
83542W        W50610  31.588  10.643  11.983
83543W        W50611  13.284  22.126  14.865
83544W        W50612  32.039  44.967  12.919
83545W        W50613  26.064  43.471   3.276
83546W        W50614  18.266  40.922   0.873
83547W        W50615  26.069  32.637   3.271
83548W        W50616  12.279  28.930  11.415
83549W        W50617  22.077  13.141   4.752
83550W        W50618   4.859   7.297  10.013
83551W        W50619   9.349  18.752  14.414
83552W        W50620  34.871   7.359  14.469
83553W        W50621  44.363  32.440   0.392
83554W        W50622  19.207  20.639  13.318
83555W        W50623  13.815   0.895   5.318
83556W        W50624  14.098  27.523  13.875
83557W        W50625  13.720  20.731   5.654
83558W        W50626   1.885  34.066  13.038
83559W        W50627  36.010  38.390   0.869
83560W        W50628  30.446   4.209   3.212
83561W        W50629  32.120  28.036  10.543
83562W        W50630  35.947  33.128  14.796
83563W        W50631   7.698  44.888  13.835
83564W        W50632  37.871  30.976  11.507
83565W        W50633  43.928  12.734  11.472
83566W        W50634   2.372  18.199   0.798
83567W        W50635  25.510  29.465  12.403
83568W        W50636  28.482   9.819  11.002
83569W        W50637  23.643  30.130  12.468
83570W        W50638  35.985   3.221  13.994
83571W        W50639  36.043  29.596  11.029
83572W        W50640  30.509  24.106   4.326
83573W        W50641  42.023  21.618  11.499
83574W        W50642  22.691   2.397   2.375
83575W        W50643  13.812   7.776   1.295
83576W        W50644  23.989  16.157  14.324
83577W        W50645  39.981  41.897   0.850
83578W        W50646  32.962  11.149  13.863
83579W        W50647   4.880  26.165   3.790
83580W        W50648  10.675  40.451   1.797
83581W        W50649  38.049  30.962  12.408
83582W        W50650  43.322  26.968   4.160
83583W        W50651  21.568  18.054  11.934
83584W        W50652   2.460  32.503   0.291
83585W        W50653  28.107  23.037  11.123
83586W        W50654  17.266  21.643   3.168
83587W        W50655   2.296  34.571  14.305
83588W        W50656   2.379   3.351   0.405
83589W        W50657  27.605  18.546   2.733
83590W        W50658  13.752  37.850   0.784
83591W        W50659   8.169  33.510   4.823
83592W        W50660   3.750   9.374   0.950
83593W        W50661  39.497  14.285  11.119
83594W        W50662  12.811  17.720   0.731
83595W        W50663  15.251  22.702   4.726
83596W        W50664  38.455  32.102   3.754
83597W        W50665  22.745   5.927   3.377
83598W        W50666  28.587  17.640  10.408
83599W        W50667  43.283  42.884   1.737
83600W        W50668  17.702  36.377   1.742
83601W        W50669  23.227   4.395  10.890
83602W        W50670  26.057  26.056  11.397
83603W        W50671  39.343  15.094  13.474
83604W        W50672  14.261  31.446  13.501
83605W        W50673   4.277  28.138   4.311
83606W        W50674  11.216  34.093   1.878
83607W        W50675  43.783  17.214  10.476
83608W        W50676  13.173  22.558   3.212
83609W        W50677  30.056  19.680   1.722
83610W        W50678  16.782   8.292  14.783
83611W        W50679  19.643  24.079  13.906
83612W        W50680   5.925  21.579   0.389
83613W        W50681  22.523  12.257   2.344
83614W        W50682   7.666  39.397   3.853
83615W        W50683  29.092   6.184  10.552
83616W        W50684   4.810  19.720   4.141
83617W        W50685  38.543  18.559  11.399
83618W        W50686  28.540  15.162   3.334
83619W        W50687   0.385  14.734   0.430
83620W        W50688   1.464  30.100  12.483
83621W        W50689  18.115   0.388   2.277
83622W        W50690   7.282  39.809   2.316
83623W        W50691  21.586   0.414   1.376
83624W        W50692  25.710  29.519   3.381
83625W        W50693  32.992   6.241  14.960
83626W        W50694   7.283  32.945  10.549
83627W        W50695  18.699  38.966   3.840
83628W        W50696  32.449   2.385  10.628
83629W        W50697  19.662  37.384   3.154
83630W        W50698  37.018   9.879   4.116
83631W        W50699   1.414  10.285   2.680
83632W        W50700   2.367  27.140   2.784
83633W        W50701  28.161  41.027  14.903
83634W        W50702  14.324  10.308   9.963
83635W        W50703  37.895  14.282   3.790
83636W        W50704   9.814  43.791   0.944
83637W        W50705  30.974  16.577   4.622
83638W        W50706  34.975  20.679   1.829
83639W        W50707   4.261  19.147   0.327
83640W        W50708   2.819  20.033   0.370
83641W        W50709  16.205  31.938  12.015
83642W        W50710  14.635  24.166   3.699
83643W        W50711   4.757   9.359   4.222
83644W        W50712  12.220  31.974   3.654
83645W        W50713  26.105  18.292  14.319
83646W        W50714  36.584  40.907   1.253
83647W        W50715  16.157   8.357   1.757
83648W        W50716   7.806   1.276   1.776
83649W        W50717  25.521   9.653  14.315
83650W        W50718   7.786  14.697  14.320
83651W        W50719  42.365  28.057  14.341
83652W        W50720  10.640  37.459   1.405
83653W        W50721  35.987  15.287   2.900
83654W        W50722   1.404   6.805  12.046
83655W        W50723  14.188  22.668   0.935
83656W        W50724  22.534  28.486   2.247
83657W        W50725  32.495  12.240  14.017
83658W        W50726  32.625   3.354   2.679
83659W        W50727  28.147   3.827   3.809
83660W        W50728  16.279  37.983   4.766
83661W        W50729  19.220  37.489   4.345
83662W        W50730  16.109  20.072   2.745
83663W        W50731  32.115  14.267  12.895
83664W        W50732   6.794  35.358   4.157
83665W        W50733  24.722  15.665   4.620
83666W        W50734   5.829  28.439   2.895
83667W        W50735  20.034  12.723  13.505
83668W        W50736  33.524  30.924   1.890
83669W        W50737  22.732  11.363   1.830
83670W        W50738   1.339  27.481   2.678
83671W        W50739  35.093  25.994   3.203
83672W        W50740   9.693   9.311  12.558
83673W        W50741  10.781   3.734   3.274
83674W        W50742  12.144  23.622  11.517
83675W        W50743  25.665  31.929   3.715
83676W        W50744  44.971  32.419   1.830
83677W        W50745  35.528  43.950  13.899
83678W        W50746   8.355  23.659  13.348
83679W        W50747   0.842  25.570  12.987
83680W        W50748  25.196  31.066  11.980
83681W        W50749  13.831  29.432   1.742
83682W        W50750  26.574  27.196  10.569
83683W        W50751  28.506  11.693  12.014
83684W        W50752  25.099  18.208  10.544
83685W        W50753   9.646  43.452  11.525
83686W        W50754  38.395   5.268  10.427
83687W        W50755  38.350  43.819  12.525
83688W        W50756  30.146  38.010  13.522
83689W        W50757  12.283   6.857   1.427
83690W        W50758  19.212  38.447  11.893
83691W        W50759  42.366  29.545  11.474
83692W        W50760  18.177  37.038   1.715
83693W        W50761  21.572  18.273  10.421
83694W        W50762   3.430  24.043   4.174
83695W        W50763  38.491  28.514   0.397
83696W        W50764   8.713  39.542   1.752
83697W        W50765   6.204   4.299   2.244
83698W        W50766  20.653   2.457   3.851
83699W        W50767  28.497   8.743   3.321
83700W        W50768  24.549   6.813   2.254
83701W        W50769   9.736  26.080   4.760
83702W        W50770  16.195  30.988   4.152
83703W        W50771  43.448   3.774   3.746
83704W        W50772  22.618   8.701   3.361
83705W        W50773   1.314   7.398   3.211
83706W        W50774   5.903  24.145   3.373
83707W        W50775  35.039  13.784  10.638
83708W        W50776  34.986  32.524  11.116
83709W        W50777  44.974  17.103   3.329
83710W        W50778  19.763  32.553  12.073
83711W        W50779   0.456   9.744   0.915
83712W        W50780   2.812  36.879   3.267
83713W        W50781   1.787   6.719   3.286
83714W        W50782  17.799  34.011  13.496
83715W        W50783  34.892  27.481  14.489
83716W        W50784  25.051  13.643   1.707
83717W        W50785  21.535  20.601  11.937
83718W        W50786  26.132  23.651   1.400
83719W        W50787  32.486  15.807  14.277
83720W        W50788  19.592   7.694  11.899
83721W        W50789   8.178  28.449   4.838
83722W        W50790  43.941  27.180  10.890
83723W        W50791   4.265  20.568   3.687
83724W        W50792  11.642   5.904  11.981
83725W        W50793   5.771  29.582  10.482
83726W        W50794  21.158  23.164  12.055
83727W        W50795  22.524  34.926  12.087
83728W        W50796   7.691  21.096  12.860
83729W        W50797   5.809  44.851  11.392
83730W        W50798  18.080  12.218  11.418
83731W        W50799  24.693  29.945  13.410
83732W        W50800  42.371  30.587   3.742
83733W        W50801   6.270  35.021   4.337
83734W        W50802  42.781  10.311   0.896
83735W        W50803  36.037   7.707  10.408
83736W        W50804  37.952  24.041  11.506
83737W        W50805  23.071  37.936  12.363
83738W        W50806   3.371  36.569  11.513
83739W        W50807   5.365  39.812  12.041
83740W        W50808  27.538  43.467  13.425
83741W        W50809  25.970   8.751   4.713
83742W        W50810   3.441  40.505  12.077
83743W        W50811   6.280   1.322   1.334
83744W        W50812   6.775  36.408   1.746
83745W        W50813  25.134  27.468   2.763
83746W        W50814  11.766  22.702   3.165
83747W        W50815  35.419  32.118  10.451
83748W        W50816  24.526   8.731  14.819
83749W        W50817   1.447  17.284  11.449
83750W        W50818  36.476  44.771   4.647
83751W        W50819  11.364  15.199   0.440
83752W        W50820  34.482  33.934  12.358
83753W        W50821  11.219  31.141   1.430
83754W        W50822   5.368  30.590  11.087
83755W        W50823  29.654  33.444   1.443
83756W        W50824  43.943  19.092  14.322
83757W        W50825  43.937  19.189   0.345
83758W        W50826  29.643  12.719   2.697
83759W        W50827  26.099  36.433  12.849
83760W        W50828  40.798  23.660   3.856
83761W        W50829  33.612  18.064   1.804
83762W        W50830  27.610  41.337   3.859
83763W        W50831  40.016  19.702   2.684
83764W        W50832   6.307  33.875   4.274
83765W        W50833  16.161  13.721   4.628
83766W        W50834  44.003  21.109   1.330
83767W        W50835  37.403  30.989  11.523
83768W        W50836  30.075  33.479   2.761
83769W        W50837  12.253  42.912   0.302
83770W        W50838  29.505   7.217   4.759
83771W        W50839  21.160   0.864  11.570
83772W        W50840  21.730  19.748  13.045
83773W        W50841  35.441   5.439  13.458
83774W        W50842  31.967  14.696   1.707
83775W        W50843  10.800  37.833  14.972
83776W        W50844  26.062  38.972   4.321
83777W        W50845  32.934  27.605  13.543
83778W        W50846   2.393  23.188  12.532
83779W        W50847  20.115   1.258   1.906
83780W        W50848  34.883  28.139  13.952
83781W        W50849  39.545  24.997   1.285
83782W        W50850  17.088  17.129   3.226
83783W        W50851  13.625  20.082  14.399
83784W        W50852  24.521  38.358  10.939
83785W        W50853  39.547  24.201   0.767
83786W        W50854  18.610  31.061   3.788
83787W        W50855  36.850  37.916  14.902
83788W        W50856  38.006  16.792  11.378
83789W        W50857  24.620  20.752  14.318
83790W        W50858  21.583  44.281   1.313
83791W        W50859  40.863  20.739   4.767
83792W        W50860  32.039  40.932   0.931
83793W        W50861  18.785   9.365  14.906
83794W        W50862  24.676  37.441   0.755
83795W        W50863  39.520  40.847   0.752
83796W        W50864  44.839  35.418  14.770
83797W        W50865  31.152  34.917  11.498
83798W        W50866   7.260  34.872   0.398
83799W        W50867  13.836  36.581  13.958
83800W        W50868  28.529  24.481   4.345
83801W        W50869   1.916   7.844   1.411
83802W        W50870  18.181   8.314   3.780
83803W        W50871  40.907  34.389   2.241
83804W        W50872  29.627  24.085  10.146
83805W        W50873  36.399  42.901   9.999
83806W        W50874  37.546  17.299  11.002
83807W        W50875   5.384  36.087   5.174
83808W        W50876  10.286  18.144   1.344
83809W        W50877  39.469  17.084  13.324
83810W        W50878   2.465  26.972   3.154
83811W        W50879  14.120  20.580   1.735
83812W        W50880   9.311  18.223  11.391
83813W        W50881  18.075  35.572  12.045
83814W        W50882   1.261  43.992   4.342
83815W        W50883  35.040   9.215   2.731
83816W        W50884  25.518  18.216   4.666
83817W        W50885  21.513   5.209   4.667
83818W        W50886  34.030  11.169   4.783
83819W        W50887   8.211   4.346   4.130
83820W        W50888  41.941  23.641  13.990
83821W        W50889  18.173  42.895   0.319
83822W        W50890  19.548  13.332  12.542
83823W        W50891  44.429  18.733  14.866
83824W        W50892  16.111  36.520   3.210
83825W        W50893  31.453  19.117  13.004
83826W        W50894  40.882  43.770   4.304
83827W        W50895   2.740  11.160   0.846
83828W        W50896  28.937  26.461  11.511
83829W        W50897   7.277  20.201   0.415
83830W        W50898  14.316   6.690  11.374
83831W        W50899  18.628  43.822   3.781
83832W        W50900   2.255  28.555   1.863
83833W        W50901   7.858  39.406   2.713
83834W        W50902  15.639   8.657  13.926
83835W        W50903  27.641  20.112  14.352
83836W        W50904  40.048  13.832   1.925
83837W        W50905   5.211   6.716  14.385
83838W        W50906  17.064  16.752  11.457
83839W        W50907  31.115  10.383   1.270
83840W        W50908  41.997  30.036  12.972
83841W        W50909  22.073  38.867  13.792
83842W        W50910  29.480  21.552  14.934
83843W        W50911   9.186  15.662   4.837
83844W        W50912  39.341  16.619  13.470
83845W        W50913  22.627  13.794  10.412
83846W        W50914  38.411  16.147   1.696
83847W        W50915  21.044  38.540  14.768
83848W        W50916  19.277  41.496   3.257
83849W        W50917  26.026  22.656  12.001
83850W        W50918   1.315   9.270  12.422
83851W        W50919   0.487   1.328  12.563
83852W        W50920  36.415  12.654   3.264
83853W        W50921  42.782  44.479   0.852
83854W        W50922  23.168  16.257  13.895
83855W        W50923  13.803  30.153   3.704
83856W        W50924  27.028  30.989   0.821
83857W        W50925  26.505  29.973  11.881
83858W        W50926  10.842  27.477   1.891
83859W        W50927  43.989   6.208  12.993
83860W        W50928   5.864  18.584   2.698
83861W        W50929  37.861  13.665  14.441
83862W        W50930  35.991  18.231   1.219
83863W        W50931  43.874  39.421   3.849
83864W        W50932  36.965  32.477  14.998
83865W        W50933  19.142  34.570   0.766
83866W        W50934  35.370   1.807  14.988
83867W        W50935  20.587  33.467  12.901
83868W        W50936  32.635  32.479  10.542
83869W        W50937   7.852  37.576  12.542
83870W        W50938  43.409  26.685   4.744
83871W        W50939  10.729   7.666   3.330
83872W        W50940  12.653  35.585  11.511
83873W        W50941  40.377   1.396  13.435
83874W        W50942  18.721  24.099   0.292
83875W        W50943  29.508  27.997  13.491
83876W        W50944   6.726  42.419  14.470
83877W        W50945  12.216  20.764   2.668
83878W        W50946  39.923   8.769  12.468
83879W        W50947  23.118   5.693   4.321
83880W        W50948  21.197   6.275  11.537
83881W        W50949  40.403  26.483  12.922
83882W        W50950  19.570  30.071  12.964
83883W        W50951  27.528   0.336   0.779
83884W        W50952   0.266   7.825   2.188
83885W        W50953   7.880   3.925   1.258
83886W        W50954  35.584  24.052   2.298
83887W        W50955  26.545  11.196  11.886
83888W        W50956  44.406  43.448   2.413
83889W        W50957  33.937  29.027  11.397
83890W        W50958  19.668  15.734   1.764
83891W        W50959   2.905  25.647  12.403
83892W        W50960  24.052  25.090  10.534
83893W        W50961  41.444  30.923  12.951
83894W        W50962   0.408  14.707   1.377
83895W        W50963  14.721  34.534   2.738
83896W        W50964  24.480   5.885   2.845
83897W        W50965  38.884  20.205  10.917
83898W        W50966  18.174  20.593  12.971
83899W        W50967  34.518  35.853   0.772
83900W        W50968  13.685  23.110  14.812
83901W        W50969  31.981  34.981   4.818
83902W        W50970  43.884  29.485   3.775
83903W        W50971  43.318  17.138   2.719
83904W        W50972  33.121   2.444   4.765
83905W        W50973   8.269   2.470   4.720
83906W        W50974  10.638  23.619  11.422
83907W        W50975   1.316  38.921  11.045
83908W        W50976   2.737   7.339  12.012
83909W        W50977  14.659   7.690   4.250
83910W        W50978  37.969   2.380   3.158
83911W        W50979   3.291   7.760   1.440
83912W        W50980  41.959   4.924   0.393
83913W        W50981   0.862  13.744  10.423
83914W        W50982  44.260  36.588  13.800
83915W        W50983  18.618   5.273   1.778
83916W        W50984   2.343  36.025  14.294
83917W        W50985  37.064  40.852  10.428
83918W        W50986  13.225  18.653   1.911
83919W        W50987  11.149  11.240   3.661
83920W        W50988   2.782  27.139  13.312
83921W        W50989  44.955  32.125   0.333
83922W        W50990   9.809  30.429   1.850
83923W        W50991  14.202   6.378   3.691
83924W        W50992  31.033  41.953   2.749
83925W        W50993  30.932   4.890  11.419
83926W        W50994  24.134  34.022  14.333
83927W        W50995  19.730  33.533   2.308
83928W        W50996   2.774  35.572  14.886
83929W        W50997  32.525  16.208   1.327
83930W        W50998  16.192  11.664   0.874
83931W        W50999  19.646  23.612  11.993
83932W        W51000  42.821  10.635   3.178
83933W        W51001   1.309  13.169  11.905
83934W        W51002  22.691  38.942   3.257
83935W        W51003  38.875  40.906   1.255
83936W        W51004  42.006  10.657   4.264
83937W        W51005  38.979  28.578  12.367
83938W        W51006   4.222  40.422   4.647
83939W        W51007  30.495  15.222   2.878
83940W        W51008   2.253  27.543  12.830
83941W        W51009  27.451  27.540  14.458
83942W        W51010  33.493   1.272  10.509
83943W        W51011  33.047  30.055  13.505
83944W        W51012  15.145  30.982   0.255
83945W        W51013  36.356   8.849  11.997
83946W        W51014  12.619  36.508   4.692
83947W        W51015  41.015  15.278   1.279
83948W        W51016  40.370  17.273   4.149
83949W        W51017  44.757  33.065   1.746
83950W        W51018   6.899  23.075   4.242
83951W        W51019  10.197  32.479  10.087
83952W        W51020   0.384  18.208   3.748
83953W        W51021  17.663  18.565  11.004
83954W        W51022  44.866  36.592   1.907
83955W        W51023  18.192   6.232   0.838
83956W        W51024  22.165  38.486   0.376
83957W        W51025  32.618   1.794  12.973
83958W        W51026   1.259  32.546  14.974
83959W        W51027   8.752   5.410  10.908
83960W        W51028   1.309   7.248  12.047
83961W        W51029  11.257   5.374   2.776
83962W        W51030  11.143  29.432   4.162
83963W        W51031  43.979  16.569   4.337
83964W        W51032  27.011  17.086   4.270
83965W        W51033  44.331  33.944   4.312
83966W        W51034  15.681  14.605   0.321
83967W        W51035   3.235  31.051  10.555
83968W        W51036   1.898  41.993  10.502
83969W        W51037  22.029  18.102  11.551
83970W        W51038  22.525  24.168   2.185
83971W        W51039   0.418  28.548   3.211
83972W        W51040  28.118  15.170   0.300
83973W        W51041  18.217  29.925   3.333
83974W        W51042  12.275  26.535   3.307
83975W        W51043  38.957  13.153  11.594
83976W        W51044  29.571   4.902  11.418
83977W        W51045  21.597  22.601   1.263
83978W        W51046  33.962  44.280   3.705
83979W        W51047  34.550  31.460   0.902
83980W        W51048  22.657   3.424  14.346
83981W        W51049  35.544  34.888  11.891
83982W        W51050  29.651  20.707  11.418
83983W        W51051  27.962   4.807   1.318
83984W        W51052  43.505   9.785   4.123
83985W        W51053  20.564  43.435  13.063
83986W        W51054  33.957  43.945  11.898
83987W        W51055  27.591  43.461  14.428
83988W        W51056  38.447  30.103  10.604
83989W        W51057   6.228   6.296  13.996
83990W        W51058  27.607   8.365  14.853
83991W        W51059  12.136  31.487   2.695
83992W        W51060  27.145  43.930  13.941
83993W        W51061  25.170  19.063  13.508
83994W        W51062  41.382   0.948  14.902
83995W        W51063  38.436  30.470  12.432
83996W        W51064  15.659   5.281   1.445
83997W        W51065  15.694  17.632   0.879
83998W        W51066  17.588  27.639   0.242
83999W        W51067  12.244   7.859  14.341
84000W        W51068  31.613  15.091   9.458
84001W        W51069   9.323  25.533   0.348
84002W        W51070  30.948  15.114   3.264
84003W        W51071  24.066  40.431  12.031
84004W        W51072  10.173  12.143   1.368
84005W        W51073  36.487  33.901   0.825
84006W        W51074  19.747  42.998   4.192
84007W        W51075  35.585  12.148  12.062
84008W        W51076   2.422  43.816   0.749
84009W        W51077   1.932  36.539  13.459
84010W        W51078   4.942  38.436   3.787
84011W        W51079  39.527  17.650  12.508
84012W        W51080  34.985  28.948   4.664
84013W        W51081  27.157   5.907   0.874
84014W        W51082  10.153  31.103   4.707
84015W        W51083   5.836  19.758  14.404
84016W        W51084  29.527   4.728   3.152
84017W        W51085  23.687  39.979  14.856
84018W        W51086  42.341  37.533   3.723
84019W        W51087  35.051  14.234  12.398
84020W        W51088  17.705  22.250  10.038
84021W        W51089  14.665  42.438  13.431
84022W        W51090  29.652  32.075   1.834
84023W        W51091  28.131   6.245   2.897
84024W        W51092   8.240  10.358  11.988
84025W        W51093  14.718  12.344  13.501
84026W        W51094  38.520  17.116  14.890
84027W        W51095  35.418   1.366  12.911
84028W        W51096   7.262   5.335  11.435
84029W        W51097  15.688   7.681  10.108
84030W        W51098  25.711  38.896   1.869
84031W        W51099  42.024  33.552   2.329
84032W        W51100  38.972  15.114  11.895
84033W        W51101   9.807  28.544  11.424
84034W        W51102  29.104  15.274   2.784
84035W        W51103  21.029  30.097   2.199
84036W        W51104  25.070  28.640  13.517
84037W        W51105   4.231  21.526  14.899
84038W        W51106  16.268  20.058  12.552
84039W        W51107   4.318  37.925   3.215
84040W        W51108  16.682  34.105   1.227
84041W        W51109  17.152   4.265  13.491
84042W        W51110  23.597  29.536   1.227
84043W        W51111  37.079  24.489  12.956
84044W        W51112  12.274  38.382  12.918
84045W        W51113  28.614  32.886  11.047
84046W        W51114  34.010  21.074   4.651
84047W        W51115  24.505   0.959   4.330
84048W        W51116  40.838  35.479   3.817
84049W        W51117  10.370   3.368   3.270
84050W        W51118   9.809  10.873  13.308
84051W        W51119  11.293  18.229   1.230
84052W        W51120  13.136   0.781   2.772
84053W        W51121  16.179   4.450   3.345
84054W        W51122   1.446  27.024   2.366
84055W        W51123  31.512  38.353   2.366
84056W        W51124   8.251  36.456  12.578
84057W        W51125  30.626  23.046   0.296
84058W        W51126   1.836  33.602   1.864
84059W        W51127   7.719  21.655  12.422
84060W        W51128  40.993  37.385   1.413
84061W        W51129  40.406  41.899  11.495
84062W        W51130  44.874   1.955   1.449
84063W        W51131  40.371  15.726  10.409
84064W        W51132  26.501  24.559   3.291
84065W        W51133   4.859  34.042  11.953
84066W        W51134   7.244  32.924  12.054
84067W        W51135   0.286  19.165  11.945
84068W        W51136  20.769  15.234  12.410
84069W        W51137  14.656  35.954   2.735
84070W        W51138  33.586  18.248   2.838
84071W        W51139  27.691  24.703   2.831
84072W        W51140  23.199  29.001  14.865
84073W        W51141   0.754  29.472   4.783
84074W        W51142   0.894   5.228  14.413
84075W        W51143  28.516  10.771  14.798
84076W        W51144  39.404   4.379  11.917
84077W        W51145   2.789  43.421  14.951
84078W        W51146   1.794  15.131  12.049
84079W        W51147  16.211  37.994  14.390
84080W        W51148   5.243  18.713  12.550
84081W        W51149  43.451  13.263   2.812
84082W        W51150  37.937   8.680  14.830
84083W        W51151  41.376  24.125   2.368
84084W        W51152   9.219   5.281  10.994
84085W        W51153  28.530  11.278   2.360
84086W        W51154  24.156  28.504  13.936
84087W        W51155  44.504   2.842   2.375
84088W        W51156   9.694  41.881  11.871
84089W        W51157  39.840  23.987  14.333
84090W        W51158  27.103  44.307  14.768
84091W        W51159   5.325   9.386   1.894
84092W        W51160   5.385  20.030   2.866
84093W        W51161  14.178  38.465   2.408
84094W        W51162  25.992  39.336  12.469
84095W        W51163  44.980  23.551  14.889
84096W        W51164  20.749  20.043  13.532
84097W        W51165  40.364   2.817  12.873
84098W        W51166  34.953  10.161  14.816
84099W        W51167  26.544  18.671  12.019
84100W        W51168  40.026  24.483  12.420
84101W        W51169   5.306  44.339  11.006
84102W        W51170  44.447  22.073  14.463
84103W        W51171  30.561  14.202   0.742
84104W        W51172  43.798  20.254   1.878
84105W        W51173  43.436   0.252   1.318
84106W        W51174  44.861  26.125   0.349
84107W        W51175  42.444  17.666   2.350
84108W        W51176  42.489  11.704   1.873
84109W        W51177  31.940  24.079   4.121
84110W        W51178  24.045  31.562  13.943
84111W        W51179  31.050  26.621  12.862
84112W        W51180  35.426   2.735   2.840
84113W        W51181   2.347  22.663  13.480
84114W        W51182  25.012  27.597   4.116
84115W        W51183  38.035   5.775   3.161
84116W        W51184  13.808  13.245  12.514
84117W        W51185   4.423  37.041  11.125
84118W        W51186  36.534   1.377  13.505
84119W        W51187   0.309  37.391  11.983
84120W        W51188   8.252  16.751  10.568
84121W        W51189  27.953  29.583  12.879
84122W        W51190   4.383  34.994  12.516
84123W        W51191  24.688  32.954  12.923
84124W        W51192  19.090  37.949  12.387
84125W        W51193   9.869  21.096  14.957
84126W        W51194  21.134  29.002   0.408
84127W        W51195   4.922   8.292  10.904
84128W        W51196  17.720  10.759  14.275
84129W        W51197  22.222  42.332  12.924
84130W        W51198  16.579  36.355  10.565
84131W        W51199  28.126  14.110  10.046
84132W        W51200  16.079  27.181  12.039
84133W        W51201  42.799   1.785  10.529
84134W        W51202  13.749   2.249  11.549
84135W        W51203  32.095   6.775  14.001
84136W        W51204  14.704  44.858  12.965
84137W        W51205  33.947   0.279   0.442
84138W        W51206  34.074  27.562   2.876
84139W        W51207  28.153   6.857  13.824
84140W        W51208  12.348  40.037   0.784
84141W        W51209  32.526  24.073   4.136
84142W        W51210  32.077  19.759   3.654
84143W        W51211   0.393  36.402  10.628
84144W        W51212  43.381  23.568   2.348
84145W        W51213  26.477   4.760  11.086
84146W        W51214  38.381  38.868   2.413
84147W        W51215  41.925  36.880  11.050
84148W        W51216  34.481   0.927  11.028
84149W        W51217  40.496   7.719  13.019
84150W        W51218  18.115   6.265  13.514
84151W        W51219  32.025  43.358  12.498
84152W        W51220  14.672  17.179  10.956
84153W        W51221  18.263  43.808   3.765
84154W        W51222  26.672   9.736  13.830
84155W        W51223  35.994  14.668  11.903
84156W        W51224  21.230  34.537  14.000
84157W        W51225  16.265  22.675  14.986
84158W        W51226  23.711  36.429   2.334
84159W        W51227  33.603  43.926  14.475
84160W        W51228  27.568  25.703   1.852
84161W        W51229  39.914  30.491   1.710
84162W        W51230  11.351   2.757  14.800
84163W        W51231  38.010   0.449   3.359
84164W        W51232  38.972   8.392   3.224
84165W        W51233  23.160  31.153   1.752
84166W        W51234  41.349   7.764   0.393
84167W        W51235   2.272  20.619   3.202
84168W        W51236  26.965  37.884   1.372
84169W        W51237  38.054  19.118  14.321
84170W        W51238  39.364   2.837  11.578
84171W        W51239  13.773  30.506  12.367
84172W        W51240   7.748   4.785  14.440
84173W        W51241  42.891  31.448   2.817
84174W        W51242  13.773  16.695   4.266
84175W        W51243  10.698  39.823  14.455
84176W        W51244  38.521  42.002   2.722
84177W        W51245  36.094  27.175   1.378
84178W        W51246  38.445  25.009  13.960
84179W        W51247  35.070  25.010   0.389
84180W        W51248  38.346  15.289   3.279
84181W        W51249   0.453   0.884   2.294
84182W        W51250  35.055  14.661  10.580
84183W        W51251  20.191   7.352  10.132
84184W        W51252  21.679   0.407  10.493
84185W        W51253  17.712   5.317   2.864
84186W        W51254  11.278   1.743   3.745
84187W        W51255  43.327  34.891   4.660
84188W        W51256  42.435  30.972   0.937
84189W        W51257  29.106  28.462  13.976
84190W        W51258   7.308  37.957  10.467
84191W        W51259  41.408  27.092  14.828
84192W        W51260  23.147  42.982  10.076
84193W        W51261  12.726  37.031  13.974
84194W        W51262  30.428  28.558  10.623
84195W        W51263  27.560  26.613  12.360
84196W        W51264  36.941  33.945  12.884
84197W        W51265  18.266   1.786  13.036
84198W        W51266  31.600  30.955   2.212
84199W        W51267   1.843  12.661  13.542
84200W        W51268  40.994  16.675   2.334
84201W        W51269   8.373  12.614  13.032
84202W        W51270  36.870  35.001   4.642
84203W        W51271  42.918  13.729   2.712
84204W        W51272  12.838  18.654  14.494
84205W        W51273  38.458   2.229  12.989
84206W        W51274  22.123  31.144  13.501
84207W        W51275  22.519  14.816  11.910
84208W        W51276  24.517   1.855  11.883
84209W        W51277  15.219  17.138  14.374
84210W        W51278  25.663  13.642  14.429
84211W        W51279  26.138   5.423  12.368
84212W        W51280  40.494  39.408   4.673
84213W        W51281   1.762   9.204   4.285
84214W        W51282  41.361  18.783  10.416
84215W        W51283  41.454  32.481  11.086
84216W        W51284  44.340  18.599  11.959
84217W        W51285  33.532  33.034   2.675
84218W        W51286  42.991  23.195  14.321
84219W        W51287  16.644  14.247  13.913
84220W        W51288  42.507  42.872   2.393
84221W        W51289  31.996  11.697   1.707
84222W        W51290  21.090  12.759  14.982
84223W        W51291  28.130  10.253   1.756
84224W        W51292  32.956   3.438   1.225
84225W        W51293  28.143  24.685  13.490
84226W        W51294  35.479   2.911  14.027
84227W        W51295  16.591  43.869   2.233
84228W        W51296   1.928  39.867   1.773
84229W        W51297  31.553  24.172  12.350
84230W        W51298  18.715  26.535   3.749
84231W        W51299   0.886  35.903   2.238
84232W        W51300  34.084  10.251  13.479
84233W        W51301  30.153  39.893   4.327
84234W        W51302  17.251  37.573  11.002
84235W        W51303   7.277   7.828  12.929
84236W        W51304  43.411  34.871   1.437
84237W        W51305  18.596  43.424  10.624
84238W        W51306  27.663  37.926   1.346
84239W        W51307  34.050  34.920  13.314
84240W        W51308   6.839   0.444  11.922
84241W        W51309  42.338  38.843   4.264
84242W        W51310  22.588  40.900  11.596
84243W        W51311  23.999   4.266  13.861
84244W        W51312  24.614  23.184  13.062
84245W        W51313   7.865  19.633  11.936
84246W        W51314  44.340   7.669   3.812
84247W        W51315  30.589  41.425  11.511
84248W        W51316   8.676  36.098  13.908
84249W        W51317  11.221  21.155  12.941
84250W        W51318  16.648  28.559   0.411
84251W        W51319  36.980  42.413  13.884
84252W        W51320  18.789  13.767   3.187
84253W        W51321  25.684  35.962   3.307
84254W        W51322  13.282  15.250  11.521
84255W        W51323  26.964  38.473  13.940
84256W        W51324   1.971  27.088  11.902
84257W        W51325  43.414  22.240   3.209
84258W        W51326   1.779  24.994  14.333
84259W        W51327  29.068  10.340  14.815
84260W        W51328  17.703  22.080   3.166
84261W        W51329  22.613  25.999  14.987
84262W        W51330  20.131  34.443   0.923
84263W        W51331   6.269  40.542   3.848
84264W        W51332  26.004  41.911   0.421
84265W        W51333  10.864  30.618   3.217
84266W        W51334  12.260  44.777  12.544
84267W        W51335  19.707   4.434   1.266
84268W        W51336  15.644  33.115   1.241
84269W        W51337  43.415  23.147   1.732
84270W        W51338  28.678   1.923  13.476
84271W        W51339  22.035  27.141  10.571
84272W        W51340  29.981  28.021  11.944
84273W        W51341   1.260  33.548  12.045
84274W        W51342  14.240  18.213   4.144
84275W        W51343   3.765   2.309   3.842
84276W        W51344  17.684  14.781   0.269
84277W        W51345  28.934  31.540  13.063
84278W        W51346   7.367  23.518   0.448
84279W        W51347  31.526   1.300   4.125
84280W        W51348  23.074  18.263   0.956
84281W        W51349  35.049  31.947   0.298
84282W        W51350  15.625  16.613  10.455
84283W        W51351   9.185  14.290  14.820
84284W        W51352  15.228  29.634   3.255
84285W        W51353  41.830  27.186  14.505
84286W        W51354  21.730  39.973   2.684
84287W        W51355  11.829   2.875  14.468
84288W        W51356   4.363   9.756   1.273
84289W        W51357  43.439  32.528   3.639
84290W        W51358  44.504   6.822  13.428
84291W        W51359  22.064  31.955   0.425
84292W        W51360  12.718  11.304   3.728
84293W        W51361  32.604  32.448  14.353
84294W        W51362  12.733  40.016   0.855
84295W        W51363   0.432  40.317   4.354
84296W        W51364   9.727  33.503  12.980
84297W        W51365  26.029   6.877   1.889
84298W        W51366  13.145  30.947  13.908
84299W        W51367  22.117  34.372  11.112
84300W        W51368  11.783  32.636  14.909
84301W        W51369  22.565  36.955  11.992
84302W        W51370   0.798   5.881   0.801
84303W        W51371   0.310  39.061  13.849
84304W        W51372   9.739  32.945   2.773
84305W        W51373  36.853  37.580   3.687
84306W        W51374   2.787  39.393  12.501
84307W        W51375  44.464  14.096  11.019
84308W        W51376  26.456  20.614   1.422
84309W        W51377   1.928   4.817  14.316
84310W        W51378  15.717  42.505   4.805
84311W        W51379  13.236  20.711  13.516
84312W        W51380  27.098  27.070   0.751
84313W        W51381  42.954  16.310  13.063
84314W        W51382  36.841   0.742   4.649
84315W        W51383  35.048  28.097  12.069
84316W        W51384  40.974  35.064  14.473
84317W        W51385  24.172  24.602  10.555
84318W        W51386  40.944   3.861  13.493
84319W        W51387  17.669   6.328   0.271
84320W        W51388  44.976  16.123   0.960
84321W        W51389   3.274  38.918   2.697
84322W        W51390   8.788  27.471   3.832
84323W        W51391  32.570  41.019  11.892
84324W        W51392  35.027  30.987  10.927
84325W        W51393  27.549  28.546  13.978
84326W        W51394  20.145   5.345   4.240
84327W        W51395  41.865  39.395  13.372
84328W        W51396  15.245  39.997  12.530
84329W        W51397   2.252  42.015   0.961
84330W        W51398  27.188  13.156   4.601
84331W        W51399  11.738  31.624   1.422
84332W        W51400  29.067  22.604   1.449
84333W        W51401  40.006  28.511  12.490
84334W        W51402  28.483  34.435  11.590
84335W        W51403  15.737  18.097  13.506
84336W        W51404   9.796  15.612   1.727
84337W        W51405  41.417  28.614  11.400
84338W        W51406  11.310   6.411  12.569
84339W        W51407   5.805  27.660  13.825
84340W        W51408  23.133  18.723  14.018
84341W        W51409  21.518  21.550  11.072
84342W        W51410  42.987  34.915   1.319
84343W        W51411  29.955  35.928   0.778
84344W        W51412  18.112  38.558   1.442
84345W        W51413   9.344   8.701   1.354
84346W        W51414  25.991  37.957   4.622
84347W        W51415   8.762  23.198   2.691
84348W        W51416  12.149  40.968  12.396
84349W        W51417  22.094  23.089  13.951
84350W        W51418  25.710  21.073  14.865
84351W        W51419  15.160  35.044  11.990
84352W        W51420  38.340  23.193   1.743
84353W        W51421  43.856  19.173  11.450
84354W        W51422  32.459  13.689  14.276
84355W        W51423  14.244   2.441  13.039
84356W        W51424  18.635  21.523   4.317
84357W        W51425  29.089  10.198   0.879
84358W        W51426   9.677   1.958   4.672
84359W        W51427  39.971  35.358   3.772
84360W        W51428  23.519  20.132   2.798
84361W        W51429  30.036  40.015   1.337
84362W        W51430  33.567  33.555   3.793
84363W        W51431  20.565  27.615   4.814
84364W        W51432  44.348  16.637  14.812
84365W        W51433   8.207   7.832  14.904
84366W        W51434   1.888  18.132   3.356
84367W        W51435   9.834   5.762  11.993
84368W        W51436  28.505  29.454  10.588
84369W        W51437   1.323  15.166   1.343
84370W        W51438   3.351   2.376   4.801
84371W        W51439  15.313  11.667   4.678
84372W        W51440   8.728  16.173  11.455
84373W        W51441  43.412   1.769  10.488
84374W        W51442   7.189   8.868  12.542
84375W        W51443   3.823  36.533   4.283
84376W        W51444  33.975   6.684   1.396
84377W        W51445  15.199  32.412   0.966
84378W        W51446  26.161  38.548   3.833
84379W        W51447  17.630  11.808  11.048
84380W        W51448   7.673   6.899   3.846
84381W        W51449  28.097  13.817  14.762
84382W        W51450   2.821   2.893  14.281
84383W        W51451   4.339  43.877   1.917
84384W        W51452  41.832   3.344  11.868
84385W        W51453  25.516  14.251  14.399
84386W        W51454  26.056  33.575   1.807
84387W        W51455  18.088  27.120  11.045
84388W        W51456  37.518  22.231   0.798
84389W        W51457  23.705   1.309   1.396
84390W        W51458   1.868   4.397  11.859
84391W        W51459  26.561  31.509   1.861
84392W        W51460  23.194   0.401  14.980
84393W        W51461  28.513   1.747   3.723
84394W        W51462  26.640   9.344   2.225
84395W        W51463  21.705   7.844   4.665
84396W        W51464  18.576  30.422  11.494
84397W        W51465  16.240  31.115  13.421
84398W        W51466  10.344  42.385   3.321
84399W        W51467  35.956  10.798   2.329
84400W        W51468  42.803  20.684  13.308
84401W        W51469  22.612  24.614  13.957
84402W        W51470  32.110   9.795  14.932
84403W        W51471  33.902   8.782  10.612
84404W        W51472  44.953  30.917  11.539
84405W        W51473  23.502   4.771   2.803
84406W        W51474  43.364  29.540  14.306
84407W        W51475  19.277  32.072  12.398
84408W        W51476  41.004  24.221  11.065
84409W        W51477  35.931  23.099  11.932
84410W        W51478  14.676  16.614  13.833
84411W        W51479   2.853  29.992   0.310
84412W        W51480  27.643   8.279   1.347
84413W        W51481  18.745   1.451  12.941
84414W        W51482   4.729  42.959  14.800
84415W        W51483  21.222  41.350  12.515
84416W        W51484  15.291   5.275  14.821
84417W        W51485  22.682  10.809   2.309
84418W        W51486  24.623  28.994   4.708
84419W        W51487   1.889  27.476  12.535
84420W        W51488  33.562  11.323   9.962
84421W        W51489   0.435  15.265  14.437
84422W        W51490  14.617  37.484  13.955
84423W        W51491  23.132   3.253   2.251
84424W        W51492   4.737  15.100  12.506
84425W        W51493  18.261   3.303   4.299
84426W        W51494  28.024  19.269   2.243
84427W        W51495  13.759  10.143   4.807
84428W        W51496  33.086   7.707   3.656
84429W        W51497  12.282  10.260  13.310
84430W        W51498  29.535  13.733   3.308
84431W        W51499  33.510  43.474  13.927
84432W        W51500  38.052   9.360  13.868
84433W        W51501  43.322  29.055  12.090
84434W        W51502   4.379  13.645  14.759
84435W        W51503  24.141  14.341  10.128
84436W        W51504  39.945  15.238   4.712
84437W        W51505  28.658  43.280  11.000
84438W        W51506  43.281   6.847  10.620
84439W        W51507  42.362  39.996  11.431
84440W        W51508  38.974  30.509   3.864
84441W        W51509  23.105   2.869   3.840
84442W        W51510  20.253  16.107   2.373
84443W        W51511   9.283  13.298   2.309
84444W        W51512  42.846  30.645   4.688
84445W        W51513  30.999  23.531  13.833
84446W        W51514  36.924  15.742  12.836
84447W        W51515  41.465  34.963   4.777
84448W        W51516  17.799   0.444  12.834
84449W        W51517   7.361  32.512  13.497
84450W        W51518  21.750  35.440  13.503
84451W        W51519  36.094  43.810   4.206
84452W        W51520  42.019   2.452  13.795
84453W        W51521  28.971  25.506   1.420
84454W        W51522  25.558  42.521  14.473
84455W        W51523  21.108  11.321   4.205
84456W        W51524   2.818  17.096   2.387
84457W        W51525  30.917   2.441   2.412
84458W        W51526  14.745  26.014  13.986
84459W        W51527  39.812  26.128  13.047
84460W        W51528   7.336  44.799   1.916
84461W        W51529  31.571  25.097  11.516
84462W        W51530   0.307  17.259   1.357
84463W        W51531  25.970   5.794   2.688
84464W        W51532   1.387  21.604   0.283
84465W        W51533   9.277   8.291   1.796
84466W        W51534  32.111  33.600   4.818
84467W        W51535  11.674  19.152   3.281
84468W        W51536   2.932  31.063  14.022
84469W        W51537  33.039  35.006   0.424
84470W        W51538  18.756  29.021   2.716
84471W        W51539  24.077   6.367  14.883
84472W        W51540  20.536  16.605  11.437
84473W        W51541   9.777   1.875   2.260
84474W        W51542  40.888  38.075  12.411
84475W        W51543  29.625   9.189   4.343
84476W        W51544  17.780  19.668  10.122
84477W        W51545  35.483  26.482   0.964
84478W        W51546  20.709  44.846   4.766
84479W        W51547  25.207  19.668   4.165
84480W        W51548  20.150  39.033   9.554
84481W        W51549   1.438  16.203   0.253
84482W        W51550  41.790   3.412   4.129
84483W        W51551  25.111  39.007  14.768
84484W        W51552  26.582  31.022  10.584
84485W        W51553  14.628   5.326  14.380
84486W        W51554  31.578  42.454  12.472
84487W        W51555  19.114   5.906   1.801
84488W        W51556  18.136   3.808  12.042
84489W        W51557  33.031  15.325   2.222
84490W        W51558  28.156  14.620   2.310
84491W        W51559  29.057  27.556   0.358
84492W        W51560  23.531  28.615   2.319
84493W        W51561  22.589  40.356   5.085
84494W        W51562  38.847  17.283   0.258
84495W        W51563   2.243  33.509   0.789
84496W        W51564  29.160  37.087   3.307
84497W        W51565   2.272   2.750   4.158
84498W        W51566   7.361  44.953  11.371
84499W        W51567  11.271  23.007  11.121
84500W        W51568   6.299  32.630   1.290
84501W        W51569  20.032  38.513  11.549
84502W        W51570   2.846  38.336   0.943
84503W        W51571  24.067  44.393   4.263
84504W        W51572  19.262  27.097  11.041
84505W        W51573  22.009  33.977  11.605
84506W        W51574  22.679  34.557  12.466
84507W        W51575  32.961  14.282  11.008
84508W        W51576  39.373   8.352  13.469
84509W        W51577  30.027   4.314   4.144
84510W        W51578  40.462  18.104   2.844
84511W        W51579  17.634   3.733  13.363
84512W        W51580  25.557   2.871   3.173
84513W        W51581  17.137  38.419   4.204
84514W        W51582  33.996  34.577  11.424
84515W        W51583  36.511  20.669  13.846
84516W        W51584  38.454  34.082   3.235
84517W        W51585  28.962  21.123  12.898
84518W        W51586  39.004  41.842   2.239
84519W        W51587  24.130  10.768  13.441
84520W        W51588  17.260  34.438  12.033
84521W        W51589  41.434  16.239   1.378
84522W        W51590  18.081   8.168   0.762
84523W        W51591   1.390  12.656   1.909
84524W        W51592  22.506  38.488   2.367
84525W        W51593  13.759   1.318   0.379
84526W        W51594  13.788  36.500  10.425
84527W        W51595  22.712  26.510  12.938
84528W        W51596  43.889   5.777   0.268
84529W        W51597   0.443   7.198  11.505
84530W        W51598  15.115   8.854  11.961
84531W        W51599  10.337  26.001   1.287
84532W        W51600  31.908  31.476   4.298
84533W        W51601  22.048  31.469  13.062
84534W        W51602   8.805  27.090  11.086
84535W        W51603   4.427  39.024   0.791
84536W        W51604  40.943  30.027  11.569
84537W        W51605  24.140  14.733   1.858
84538W        W51606  31.446  39.523   0.348
84539W        W51607   2.454  38.410  10.918
84540W        W51608  23.613  21.208   2.377
84541W        W51609   9.650  34.084   0.332
84542W        W51610  10.702  33.450   0.418
84543W        W51611  25.691  13.788  13.493
84544W        W51612  30.496  22.631   1.882
84545W        W51613  27.526  10.377  14.930
84546W        W51614   1.377  30.540  12.012
84547W        W51615  25.626   7.785  14.295
84548W        W51616  39.341  33.561   4.606
84549W        W51617  30.500  14.721   3.749
84550W        W51618  35.879  17.265   2.380
84551W        W51619  30.068   8.372  11.058
84552W        W51620  15.823   5.827   4.731
84553W        W51621  39.022  18.607  11.027
84554W        W51622   1.361  16.252  13.896
84555W        W51623  23.661  21.749  11.542
84556W        W51624  10.221  12.293   0.301
84557W        W51625   3.802  33.553  13.916
84558W        W51626  30.036  14.211  11.014
84559W        W51627  13.238  31.565  12.920
84560W        W51628  13.242  12.779   1.780
84561W        W51629  12.796  32.411  14.423
84562W        W51630   5.932  27.967   3.259
84563W        W51631   5.377   4.782  13.968
84564W        W51632  15.098   4.323   0.435
84565W        W51633  10.381  42.849   3.668
84566W        W51634  28.523  25.112  14.385
84567W        W51635  25.698  24.505  12.512
84568W        W51636  19.712  20.718   1.700
84569W        W51637  38.372  22.519  13.861
84570W        W51638  13.142  40.050  10.496
84571W        W51639  31.017   2.936  11.074
84572W        W51640  16.628  32.603  10.493
84573W        W51641  39.374   0.887  13.400
84574W        W51642  19.276  10.333  11.396
84575W        W51643  36.032  12.742  14.771
84576W        W51644  44.879  40.991  13.538
84577W        W51645  19.115  33.489  14.438
84578W        W51646  33.931   0.301  10.910
84579W        W51647  24.577  38.003  13.536
84580W        W51648  24.091  23.058  10.893
84581W        W51649   3.272  31.561  11.862
84582W        W51650  26.964  27.447  11.928
84583W        W51651  37.564   3.881  14.371
84584W        W51652  41.293   6.756   4.676
84585W        W51653  28.021  14.145   2.200
84586W        W51654  43.514  39.427   2.181
84587W        W51655   6.374  24.182   1.769
84588W        W51656  11.320  24.191   1.695
84589W        W51657  34.411  24.676  13.842
84590W        W51658  44.920  15.195  11.993
84591W        W51659  33.467  34.979  14.477
84592W        W51660  30.537  38.356   0.363
84593W        W51661   3.261  41.888  10.451
84594W        W51662  37.906  18.056  10.975
84595W        W51663  30.945  35.951  11.451
84596W        W51664  40.465   0.863   2.224
84597W        W51665  26.014  33.599   3.156
84598W        W51666  29.591  32.904   4.269
84599W        W51667   2.855  17.727  13.494
84600W        W51668  40.365   0.759   1.440
84601W        W51669  32.545  10.258  10.926
84602W        W51670  30.573  21.024   1.364
84603W        W51671  20.541  14.814   3.836
84604W        W51672  25.639  19.154   3.206
84605W        W51673  37.417  44.278   1.803
84606W        W51674  38.477  28.039   0.867
84607W        W51675  16.164  35.406   1.701
84608W        W51676   2.254  22.517   5.162
84609W        W51677  17.094  20.094  12.451
84610W        W51678  21.212  24.115  10.889
84611W        W51679  35.856   8.381  13.406
84612W        W51680  20.601  40.041   1.268
84613W        W51681  37.911   5.765  12.063
84614W        W51682  29.554  22.737   5.274
84615W        W51683  36.548  28.979  13.847
84616W        W51684  44.787  40.961  13.951
84617W        W51685  32.900   2.447   0.771
84618W        W51686   0.390  31.954   1.241
84619W        W51687  43.501   0.251   2.368
84620W        W51688  17.569  40.867  13.454
84621W        W51689  44.450  23.727  13.410
84622W        W51690   6.776  19.729   2.364
84623W        W51691  24.598  11.133   1.826
84624W        W51692  21.727  15.215  10.458
84625W        W51693  31.047  27.066  11.412
84626W        W51694   1.415  38.560  13.388
84627W        W51695  22.143   8.225  14.365
84628W        W51696  38.473   9.339  12.371
84629W        W51697  13.114   8.798   2.737
84630W        W51698  16.225  40.907   2.781
84631W        W51699  25.672  30.973   4.694
84632W        W51700  11.777   1.871  14.355
84633W        W51701  40.314   7.837   5.214
84634W        W51702  20.070  31.434  11.090
84635W        W51703  32.617  40.499   2.682
84636W        W51704  35.091  30.006   1.810
84637W        W51705  31.980   9.313   1.423
84638W        W51706   7.397  29.562   1.697
84639W        W51707  26.974   0.876  10.617
84640W        W51708  39.841  25.036   2.860
84641W        W51709  44.813  25.673  13.940
84642W        W51710   8.820   8.175   4.343
84643W        W51711  14.241   6.333   0.253
84644W        W51712  37.831  30.497  14.378
84645W        W51713  18.675  11.250   4.625
84646W        W51714  35.048   8.712  13.411
84647W        W51715  26.574  27.470   2.846
84648W        W51716  23.641  34.012   3.752
84649W        W51717  28.633   3.833  14.277
84650W        W51718  37.472  18.284  14.388
84651W        W51719  10.279  14.291  11.025
84652W        W51720  15.637  38.488  14.434
84653W        W51721  15.283  44.995   1.242
84654W        W51722  16.131   6.253  12.846
84655W        W51723  10.145  29.159   3.849
84656W        W51724   8.682  26.989   0.306
84657W        W51725   4.798  28.643   1.880
84658W        W51726   1.409   9.198   1.346
84659W        W51727  24.601  13.349   1.738
84660W        W51728   6.678  37.497   2.255
84661W        W51729   9.736  29.536   4.148
84662W        W51730  12.330  39.460   3.660
84663W        W51731  33.991  39.526   2.754
84664W        W51732  39.467  35.441   3.286
84665W        W51733  12.744   9.834   2.747
84666W        W51734  35.542  17.785   2.366
84667W        W51735  40.412  37.082   2.242
84668W        W51736  43.920  43.863  13.348
84669W        W51737  21.680  28.611   3.675
84670W        W51738  11.860  41.887   4.650
84671W        W51739  17.209   9.787   2.790
84672W        W51740  32.038  25.705  10.507
84673W        W51741  38.855   7.372   2.819
84674W        W51742   0.861  15.329  12.476
84675W        W51743  24.689  19.711   2.227
84676W        W51744   8.367  31.006  11.531
84677W        W51745  31.948  33.916   3.175
84678W        W51746  14.167  31.599  14.403
84679W        W51747  13.158   3.248  14.397
84680W        W51748  23.589  27.681   4.686
84681W        W51749   3.257   1.381  11.518
84682W        W51750  10.703   0.384  13.449
84683W        W51751  41.342   4.737   4.751
84684W        W51752  24.067   6.854  14.359
84685W        W51753  18.672  41.382   1.909
84686W        W51754  27.461  22.503   0.764
84687W        W51755  30.549  35.532  14.859
84688W        W51756  32.462   6.841   3.332
84689W        W51757  12.806  40.304   3.195
84690W        W51758  29.173   6.243   2.244
84691W        W51759  31.906  16.204  13.849
84692W        W51760   4.437   5.786  10.525
84693W        W51761  27.964  27.940  12.578
84694W        W51762  11.214  33.572   1.909
84695W        W51763  35.876   9.334   0.845
84696W        W51764   7.403  36.533   1.325
84697W        W51765  34.117  27.583  11.856
84698W        W51766  35.590  13.280   3.331
84699W        W51767   2.363  24.217  11.966
84700W        W51768  29.010  38.956  11.580
84701W        W51769  18.598   8.326  14.474
84702W        W51770  28.130  33.876  12.369
84703W        W51771  34.973  21.522   3.259
84704W        W51772  26.109  39.496   2.739
84705W        W51773   6.830   8.222   3.166
84706W        W51774  33.926  25.607   4.168
84707W        W51775  34.976  19.670  11.050
84708W        W51776  28.645  27.617   1.276
84709W        W51777  22.045  21.094   1.802
84710W        W51778  15.247  39.878  12.849
84711W        W51779  38.354  40.856   0.405
84712W        W51780  28.666   0.407   1.297
84713W        W51781  42.914  32.110  13.395
84714W        W51782   7.187  17.092   4.198
84715W        W51783  37.856  21.530   4.194
84716W        W51784  14.182  37.368  10.500
84717W        W51785  33.065   0.930  11.428
84718W        W51786  43.488  29.624  13.010
84719W        W51787  35.989   6.374  12.404
84720W        W51788   6.396  22.227   0.759
84721W        W51789  26.035  33.590  14.353
84722W        W51790  27.465  25.625   3.175
84723W        W51791  32.930  21.624  14.856
84724W        W51792  14.322  40.026   0.960
84725W        W51793  42.993  36.509   1.340
84726W        W51794   1.850  24.117  12.394
84727W        W51795  35.445   1.844  11.889
84728W        W51796  19.642   8.820   1.370
84729W        W51797  40.804  38.001  11.416
84730W        W51798  31.414   2.960  14.484
84731W        W51799  37.385  41.943   3.264
84732W        W51800  16.682  32.969   0.300
84733W        W51801  20.142   8.803   4.207
84734W        W51802  33.097  26.109  13.504
84735W        W51803  20.101   6.223  12.527
84736W        W51804  30.449  29.059   1.850
84737W        W51805  20.156   6.724   0.370
84738W        W51806  13.141  18.781  12.018
84739W        W51807  11.168  38.067   4.631
84740W        W51808  21.046  12.357  13.429
84741W        W51809  18.069  37.446   2.296
84742W        W51810  33.122  37.394   1.249
84743W        W51811  30.542  13.259   3.201
84744W        W51812  37.556  37.451   5.133
84745W        W51813  29.615  22.036  13.836
84746W        W51814  43.906  27.163  13.974
84747W        W51815  42.027   9.197  13.820
84748W        W51816   4.399  36.387  14.403
84749W        W51817  34.972  36.037   0.474
84750W        W51818  13.248  31.597  11.097
84751W        W51819  26.547   4.867  12.040
84752W        W51820  35.573  44.966  13.425
84753W        W51821   6.344  23.218  13.351
84754W        W51822  13.297   6.866  10.523
84755W        W51823  44.481  39.372  13.012
84756W        W51824  20.666   7.382   3.199
84757W        W51825  23.021  36.020   1.347
84758W        W51826  11.777  40.931  13.968
84759W        W51827   2.345  19.597  10.576
84760W        W51828  32.079  21.618  14.401
84761W        W51829  34.453  36.958   1.348
84762W        W51830   5.259   9.356   3.776
84763W        W51831  33.407   1.900   3.262
84764W        W51832   8.806  17.635   4.258
84765W        W51833   7.200  16.587  13.354
84766W        W51834  34.403  43.332  14.910
84767W        W51835  18.618   2.340   1.711
84768W        W51836  16.773  32.438  14.815
84769W        W51837  25.144   6.781   0.802
84770W        W51838  24.111  35.893  13.027
84771W        W51839  27.516  12.265   1.755
84772W        W51840  28.625  30.983   2.711
84773W        W51841  43.502  16.165   2.719
84774W        W51842  14.302  35.559   4.705
84775W        W51843  31.119  18.273  14.879
84776W        W51844  20.563   3.445   3.677
84777W        W51845   3.312  19.178   3.634
84778W        W51846   0.254   1.957  12.920
84779W        W51847  16.314  14.736   4.606
84780W        W51848  13.693  19.135   2.894
84781W        W51849  25.969  35.961   0.955
84782W        W51850  14.095  29.084  14.512
84783W        W51851   5.787   7.212  12.880
84784W        W51852  39.519   6.249  12.951
84785W        W51853  11.797  42.958  14.792
84786W        W51854  29.949   5.219   3.292
84787W        W51855  37.055  44.485  10.023
84788W        W51856  11.342   9.667   2.738
84789W        W51857  27.175  34.510   4.761
84790W        W51858  43.413  13.213   1.213
84791W        W51859  23.712  33.968  10.509
84792W        W51860   2.933   1.800  12.492
84793W        W51861   3.918  41.519   2.385
84794W        W51862  10.319   8.696  10.957
84795W        W51863  24.023  23.626   1.236
84796W        W51864  43.271   5.258  13.381
84797W        W51865  31.476  33.001   0.375
84798W        W51866  31.078  23.985  12.868
84799W        W51867  16.670  35.071  12.553
84800W        W51868   7.727   4.444  14.878
84801W        W51869  24.229  42.466   3.683
84802W        W51870  39.900  12.181  14.459
84803W        W51871  44.950  22.522   2.663
84804W        W51872  26.617  17.783   2.846
84805W        W51873  22.715  44.312   1.779
84806W        W51874  41.894   8.174  14.291
84807W        W51875  35.902   3.852   2.361
84808W        W51876  24.987  33.052  11.860
84809W        W51877  14.261   6.425   1.392
84810W        W51878  29.514   4.915  13.004
84811W        W51879  32.416  44.278  11.414
84812W        W51880   9.270   7.239   0.797
84813W        W51881   2.376  12.648  13.044
84814W        W51882  32.981   3.773  13.431
84815W        W51883  37.057  25.157   0.898
84816W        W51884  22.657  38.828   3.786
84817W        W51885  27.124  16.645  14.016
84818W        W51886  29.930  39.874   1.874
84819W        W51887   4.844  33.566   4.736
84820W        W51888  23.517  18.157   4.663
84821W        W51889  11.193  16.629   2.667
84822W        W51890  16.606  20.042  10.577
84823W        W51891   6.903  23.111  14.885
84824W        W51892  17.676   6.806  14.348
84825W        W51893  28.131  31.600  14.366
84826W        W51894  25.597   1.237   3.286
84827W        W51895  42.477  43.284   3.153
84828W        W51896   2.272  21.529  12.072
84829W        W51897  15.246  15.701   1.910
84830W        W51898   4.241   6.877  12.824
84831W        W51899  43.419   8.689  13.548
84832W        W51900  40.052  26.104   2.859
84833W        W51901  35.061  11.833   2.838
84834W        W51902  36.059  24.620   1.367
84835W        W51903  13.680  15.643  12.446
84836W        W51904  26.600  14.297  13.883
84837W        W51905  18.278  11.814   2.323
84838W        W51906  35.090   3.838  13.378
84839W        W51907  25.155   3.453  11.450
84840W        W51908  21.239  40.902   4.140
84841W        W51909  10.875  24.660  10.456
84842W        W51910  37.407  35.899  11.527
84843W        W51911  34.876  15.140  13.402
84844W        W51912  24.602  40.308   4.272
84845W        W51913  41.473  20.028   4.752
84846W        W51914  28.675  14.153  14.888
84847W        W51915  41.500  12.772   0.768
84848W        W51916  16.258  37.506  11.385
84849W        W51917  33.081   4.921   2.308
84850W        W51918  34.004  31.108   0.468
84851W        W51919  23.578  16.086   1.314
84852W        W51920  28.587   1.968   3.200
84853W        W51921  16.075  14.746   2.222
84854W        W51922   1.291  31.446   1.410
84855W        W51923  24.044  26.072   1.212
84856W        W51924  26.200  32.444  12.353
84857W        W51925  32.536  30.923  13.857
84858W        W51926  30.656   7.178  14.508
84859W        W51927  19.096   5.830   2.368
84860W        W51928  29.490  30.636   3.252
84861W        W51929  32.487   2.437   1.915
84862W        W51930  18.631  44.955   4.640
84863W        W51931   9.357  38.433   2.318
84864W        W51932  40.854  22.505   1.350
84865W        W51933   6.744   6.804   3.717
84866W        W51934   8.843  42.869  14.838
84867W        W51935  15.662  19.693   0.350
84868W        W51936  33.593  15.596  13.396
84869W        W51937  35.417  14.313   0.905
84870W        W51938  40.860  33.527   3.659
84871W        W51939   6.884  34.432  12.926
84872W        W51940  29.540   7.883   1.875
84873W        W51941  20.622  32.952  11.879
84874W        W51942   5.319  15.283   1.813
84875W        W51943   8.688  13.138   3.251
84876W        W51944  16.651  30.998  11.546
84877W        W51945  25.620   2.434  12.973
84878W        W51946  42.463  30.531   1.413
84879W        W51947   2.443  26.132   2.779
84880W        W51948  14.641  44.362  12.542
84881W        W51949  37.891   5.264  11.118
84882W        W51950  16.289  29.503  11.444
84883W        W51951   3.250  15.178  12.402
84884W        W51952   5.697   6.681  11.097
84885W        W51953   1.849  39.929   0.748
84886W        W51954  18.748   9.806   4.216
84887W        W51955   0.328   0.743   0.731
84888W        W51956   8.276  34.887  14.467
84889W        W51957   4.921  22.626   3.843
84890W        W51958  28.168   4.925   4.679
84891W        W51959  33.485  38.888   9.998
84892W        W51960  15.715  33.982   1.272
84893W        W51961   4.362  37.374  13.833
84894W        W51962  35.077  15.227   4.626
84895W        W51963  19.549  37.863  10.498
84896W        W51964  18.134  35.446   1.330
84897W        W51965  41.380   6.864  10.927
84898W        W51966   8.890  27.559  14.828
84899W        W51967   6.240  17.067  13.503
84900W        W51968  33.609  31.043   2.851
84901W        W51969  14.655  37.342   0.461
84902W        W51970  26.191  17.300  14.298
84903W        W51971   9.843  14.208   4.607
84904W        W51972  25.701  42.316   3.675
84905W        W51973  42.951  42.367  13.839
84906W        W51974  19.775  37.347  11.463
84907W        W51975  21.667  42.987  13.412
84908W        W51976  32.086  44.470   5.182
84909W        W51977  35.880  28.099  12.897
84910W        W51978  21.617  41.805   1.862
84911W        W51979   5.906  17.580  13.041
84912W        W51980  10.347   0.891  12.427
84913W        W51981  20.080  29.959  11.407
84914W        W51982  26.111   4.769  14.966
84915W        W51983  36.444  22.695  10.603
84916W        W51984  44.905  28.612   3.860
84917W        W51985   9.753   6.831   0.320
84918W        W51986  37.416  33.915   4.599
84919W        W51987   7.906   2.437  12.953
84920W        W51988  37.073   0.441  13.828
84921W        W51989  31.413  35.477   2.794
84922W        W51990  41.812  44.887  11.077
84923W        W51991   0.456  23.530  11.427
84924W        W51992  43.909  19.775  12.382
84925W        W51993  25.689  44.760   0.840
84926W        W51994  31.532  14.172  13.929
84927W        W51995  10.780  26.617  14.337
84928W        W51996  14.811   0.470   0.870
84929W        W51997  15.788   2.319   0.293
84930W        W51998   1.921   7.175  12.083
84931W        W51999  30.052  18.222   0.448
84932W        W52000  39.035   5.383   0.802
84933W        W52001   5.808  31.609  14.768
84934W        W52002  31.091   7.359  10.541
84935W        W52003  34.020  19.654  12.966
84936W        W52004  21.241   3.769  13.519
84937W        W52005  38.381   7.674   2.882
84938W        W52006  33.475  18.053   0.837
84939W        W52007   1.738   5.239   3.768
84940W        W52008  40.400   1.934  13.481
84941W        W52009  17.245  27.482  12.535
84942W        W52010  23.511  32.901   4.123
84943W        W52011  28.446   8.220   1.707
84944W        W52012  17.259  10.751  10.559
84945W        W52013   5.731  15.647  10.563
84946W        W52014  32.940   3.916  14.988
84947W        W52015  18.710  30.523  13.932
84948W        W52016  19.073   7.375   3.740
84949W        W52017  15.669  26.473  12.579
84950W        W52018  23.008  22.996   0.247
84951W        W52019  18.706  39.851  11.508
84952W        W52020  40.946  44.774   1.831
84953W        W52021  42.990  16.143  12.441
84954W        W52022  10.201  34.964   0.345
84955W        W52023  18.078   8.368   2.294
84956W        W52024  13.839  30.908  11.878
84957W        W52025  34.002   5.785   0.456
84958W        W52026  21.598   1.390  13.328
84959W        W52027   4.241  35.545   2.411
84960W        W52028  44.390  20.546  13.477
84961W        W52029  21.172  17.615   2.355
84962W        W52030  14.823   4.334  12.076
84963W        W52031  27.039  29.958   1.438
84964W        W52032   6.385  15.680  10.552
84965W        W52033  42.779  29.583  13.820
84966W        W52034  36.587  26.469  12.990
84967W        W52035   3.925  25.506  10.455
84968W        W52036   3.798  33.387   2.848
84969W        W52037  38.972  38.411  11.042
84970W        W52038  29.021  23.031   2.377
84971W        W52039  19.117  31.953  14.274
84972W        W52040   2.447  12.129   4.684
84973W        W52041   3.795   0.319   2.313
84974W        W52042  42.011  13.790   2.316
84975W        W52043  12.750  17.289   4.139
84976W        W52044  26.007  30.997   3.296
84977W        W52045  36.859  25.620   3.167
84978W        W52046  26.459  42.836  13.030
84979W        W52047  17.117   5.864   2.665
84980W        W52048  28.017   7.242   0.271
84981W        W52049   6.403  35.897   1.712
84982W        W52050  12.620  44.464  12.572
84983W        W52051  34.914  27.941   5.190
84984W        W52052  23.593  37.842  14.012
84985W        W52053   6.793  22.010   3.642
84986W        W52054  12.356   2.746   1.333
84987W        W52055  22.558   0.856   9.948
84988W        W52056   4.918  13.623  14.442
84989W        W52057  34.017  14.099   1.432
84990W        W52058  34.610  40.487   0.287
84991W        W52059  29.426  41.920  14.429
84992W        W52060  26.983  12.286  10.604
84993W        W52061   0.298  36.370  11.487
84994W        W52062  14.696  17.230  12.017
84995W        W52063  32.129   1.395  13.349
84996W        W52064  32.136   7.857   1.354
84997W        W52065  37.015  11.298   4.776
84998W        W52066  14.272   4.382  13.386
84999W        W52067  29.605  34.489  14.334
85000W        W52068   5.219   6.766   2.353
85001W        W52069   5.730  44.264   0.748
85002W        W52070  19.058  41.963   1.317
85003W        W52071  22.051  28.458   4.249
85004W        W52072  15.777  20.252  12.909
85005W        W52073   3.955  23.101  11.393
85006W        W52074   6.745  38.427   4.655
85007W        W52075  33.436   1.446   2.283
85008W        W52076  36.923   3.229   3.312
85009W        W52077  42.820  41.874  11.532
85010W        W52078  28.144  20.545  12.415
85011W        W52079  28.620  12.145  13.411
85012W        W52080  39.813  37.469  14.486
85013W        W52081   1.826   0.929  11.505
85014W        W52082   9.332   0.343   3.702
85015W        W52083  10.280   5.830   4.765
85016W        W52084  44.486  22.221  10.062
85017W        W52085  35.401  44.504   2.836
85018W        W52086  34.013  10.871  12.464
85019W        W52087  22.684   1.330  13.530
85020W        W52088  28.143  39.855   1.297
85021W        W52089  21.630  38.569  14.784
85022W        W52090  33.029  20.095   3.724
85023W        W52091  39.553  17.653  11.901
85024W        W52092  25.078  38.547   1.787
85025W        W52093  26.201  40.388   3.703
85026W        W52094  29.133  26.124   2.737
85027W        W52095  19.206  25.607   4.628
85028W        W52096  35.854  29.622   4.767
85029W        W52097  33.433  34.550  14.430
85030W        W52098   8.222  27.648  14.854
85031W        W52099  24.701  42.954  11.452
85032W        W52100  27.001   8.849   4.822
85033W        W52101  27.661  42.333   2.670
85034W        W52102  29.024  41.511   0.281
85035W        W52103  19.567  33.922  13.317
85036W        W52104  25.972  27.691   2.274
85037W        W52105  34.502  24.215  12.496
85038W        W52106  11.282  19.253   1.241
85039W        W52107  43.833  42.958  12.076
85040W        W52108   9.705  13.109  12.987
85041W        W52109  23.092  26.970  13.954
85042W        W52110  38.407   8.758  13.977
85043W        W52111   7.869   6.789  14.863
85044W        W52112  35.563  37.349   1.227
85045W        W52113  31.947  42.357   2.866
85046W        W52114  13.623   1.939   2.732
85047W        W52115  13.792  27.987   1.718
85048W        W52116  27.095  23.496  12.402
85049W        W52117  34.076   4.306   2.379
85050W        W52118   7.270  26.137   1.382
85051W        W52119  10.813  42.032   4.127
85052W        W52120  29.960   6.187   2.305
85053W        W52121  16.586  40.337   3.855
85054W        W52122  36.539  28.059  12.868
85055W        W52123   7.713   5.331   1.863
85056W        W52124   0.449  33.927   1.812
85057W        W52125  14.285  36.508   1.916
85058W        W52126  34.421  20.073  10.932
85059W        W52127  26.636  22.612  12.434
85060W        W52128  17.574  12.299   2.724
85061W        W52129  16.222  41.468  14.832
85062W        W52130  22.510  34.521  11.966
85063W        W52131  14.614  39.523   1.309
85064W        W52132  17.139  32.579  12.844
85065W        W52133  26.976  38.894  11.389
85066W        W52134  27.505   2.734  14.400
85067W        W52135  38.076   9.366   4.634
85068W        W52136  38.369   7.335  12.949
85069W        W52137  37.578  16.179   4.318
85070W        W52138  17.225  38.874   2.387
85071W        W52139  38.869  44.281  14.396
85072W        W52140  24.000  15.702   4.704
85073W        W52141   9.173  37.438   4.605
85074W        W52142   7.691  18.694  11.083
85075W        W52143   5.692  32.618  13.320
85076W        W52144  30.600  23.508  11.514
85077W        W52145  37.853  39.526  11.972
85078W        W52146  27.057   0.842   3.222
85079W        W52147  11.790  22.655   2.291
85080W        W52148  35.381  26.601   3.313
85081W        W52149   0.334  18.730   0.818
85082W        W52150  28.001   8.821   2.254
85083W        W52151  15.758  31.539   0.844
85084W        W52152  22.633  34.915   0.299
85085W        W52153  12.354  28.470  11.868
85086W        W52154  18.601  37.054   4.325
85087W        W52155   0.480  41.951  11.445
85088W        W52156  29.107  31.458  11.437
85089W        W52157   6.922   0.276   3.638
85090W        W52158  25.126  38.994  12.344
85091W        W52159  21.226  30.460  11.020
85092W        W52160  42.342  41.367   0.327
85093W        W52161  27.497   7.839   4.712
85094W        W52162  21.106  15.146  12.038
85095W        W52163  22.239  27.556  11.952
85096W        W52164  43.302  42.876   4.693
85097W        W52165   4.427  34.001  13.062
85098W        W52166  35.438  38.915  10.902
85099W        W52167  12.749  26.099   4.758
85100W        W52168   4.364  25.214  11.095
85101W        W52169   9.236  11.258  11.126
85102W        W52170  28.641   1.412  13.859
85103W        W52171  29.030  15.650  14.942
85104W        W52172   0.794   2.739   1.826
85105W        W52173  35.409  16.300  11.858
85106W        W52174  29.084  11.692  11.112
85107W        W52175  41.878  29.595   2.375
85108W        W52176  10.670  34.517  12.054
85109W        W52177   9.831  39.829   0.815
85110W        W52178  23.226  23.124  13.541
85111W        W52179  19.054  10.152  10.080
85112W        W52180  10.710  11.726   4.703
85113W        W52181   0.316  22.552  12.095
85114W        W52182  39.015  30.421   1.228
85115W        W52183   8.728  18.733   2.900
85116W        W52184  11.178  42.990  13.908
85117W        W52185  18.233  36.574   0.430
85118W        W52186   3.829  37.560  10.899
85119W        W52187  34.447  42.833  11.596
85120W        W52188  28.059  42.527   3.633
85121W        W52189  14.305  15.599  11.115
85122W        W52190  20.647  16.136  13.529
85123W        W52191  31.578  24.518   0.910
85124W        W52192  30.510  30.008  10.499
85125W        W52193  40.943  39.404   1.701
85126W        W52194   0.745  20.565  14.488
85127W        W52195  22.559  26.040  11.958
85128W        W52196  26.065  26.682  10.619
85129W        W52197   7.372  41.967   3.777
85130W        W52198  32.632  11.208  12.095
85131W        W52199   6.278  40.497  14.900
85132W        W52200   2.361  21.112  13.355
85133W        W52201  20.221  42.291   1.704
85134W        W52202  31.986  32.439  14.778
85135W        W52203   1.821   1.300   1.254
85136W        W52204   5.759  44.432  11.015
85137W        W52205  19.105  37.915   2.185
85138W        W52206  29.613  39.041  11.033
85139W        W52207  20.663  17.103   1.268
85140W        W52208  15.792  31.581   0.328
85141W        W52209  10.806  18.148  10.541
85142W        W52210  34.550  38.498  14.790
85143W        W52211  17.599  10.193   0.831
85144W        W52212  32.063  22.612  13.538
85145W        W52213  28.048  39.923   3.859
85146W        W52214  16.779  43.937  14.490
85147W        W52215  40.452  43.922  11.117
85148W        W52216  22.211  26.632   4.262
85149W        W52217   6.702  21.057   4.260
85150W        W52218  26.623  17.567   0.297
85151W        W52219  31.622   6.725   1.719
85152W        W52220  19.227  10.337   3.264
85153W        W52221   6.759   5.789   4.269
85154W        W52222  25.985  32.085   4.627
85155W        W52223  39.939  18.164  14.837
85156W        W52224  16.717  12.322  14.473
85157W        W52225  39.537   1.851   1.217
85158W        W52226  20.208  37.381  13.995
85159W        W52227   2.329  30.605   0.409
85160W        W52228  39.416   2.408  14.371
85161W        W52229  20.262  37.853   0.801
85162W        W52230   3.263  27.177   1.346
85163W        W52231  33.476  30.027  11.430
85164W        W52232  28.564   2.424  11.878
85165W        W52233   3.452  40.036   0.740
85166W        W52234   4.448  24.678  10.570
85167W        W52235  17.265  44.945  11.572
85168W        W52236  43.930  33.877   3.195
85169W        W52237  34.594  31.992   1.252
85170W        W52238  34.610  44.407  12.985
85171W        W52239   1.351  11.236  12.920
85172W        W52240  32.954  24.204  13.463
85173W        W52241   3.786   6.803  12.055
85174W        W52242  32.081   9.871   0.361
85175W        W52243  44.378  14.327  14.931
85176W        W52244   0.885  43.797   2.402
85177W        W52245  44.403   5.847  14.408
85178W        W52246  11.733  26.973  11.932
85179W        W52247   5.316   7.315   3.642
85180W        W52248   7.177  37.072   3.694
85181W        W52249   5.791  12.679  12.513
85182W        W52250  35.904   2.250   0.934
85183W        W52251  44.841  39.017  11.064
85184W        W52252  27.951   4.311  14.321
85185W        W52253  18.074  32.454   1.277
85186W        W52254  42.915   6.735  12.511
85187W        W52255  36.403  35.555   2.803
85188W        W52256  43.477  22.665  12.518
85189W        W52257  24.684  40.392   0.793
85190W        W52258  44.878  29.935   0.290
85191W        W52259   1.251  21.579   2.262
85192W        W52260   8.257  12.198   0.793
85193W        W52261   5.905  26.621  12.926
85194W        W52262  30.579  44.963  13.966
85195W        W52263  34.974  38.372   1.301
85196W        W52264  37.846  10.871   0.839
85197W        W52265  34.428  32.950  12.372
85198W        W52266  27.056   9.321   1.235
85199W        W52267   6.369  31.101  12.001
85200W        W52268  10.730  13.800  11.406
85201W        W52269   9.218  24.183  10.964
85202W        W52270  13.731  35.363   0.774
85203W        W52271  43.791   0.829  14.388
85204W        W52272  26.142  44.938  10.569
85205W        W52273  20.224  41.515   1.379
85206W        W52274   5.361   9.176  10.954
85207W        W52275  23.081   1.289   2.700
85208W        W52276  18.568  42.358   4.157
85209W        W52277  22.663  26.095   0.355
85210W        W52278   3.757  16.141   2.204
85211W        W52279  21.574  31.457  12.350
85212W        W52280  38.962   1.831   0.448
85213W        W52281   7.206  20.155   3.200
85214W        W52282  34.608  40.876   3.272
85215W        W52283   8.312   5.766   3.867
85216W        W52284  33.466  25.177   4.661
85217W        W52285  28.144   3.846   0.368
85218W        W52286   2.262  37.581  12.445
85219W        W52287   8.311   1.342   2.215
85220W        W52288  41.496   0.338   2.690
85221W        W52289   7.779   5.321  14.857
85222W        W52290  18.637  16.712  10.622
85223W        W52291   6.414   9.340  11.914
85224W        W52292  18.084  24.045   4.301
85225W        W52293  14.193  40.502   2.741
85226W        W52294  36.099  13.701   0.483
85227W        W52295  23.533   2.947  10.967
85228W        W52296   0.830   8.824   4.743
85229W        W52297  41.810  16.144   4.735
85230W        W52298   9.726   0.489  14.328
85231W        W52299  11.246  10.261   2.280
85232W        W52300  30.991   9.803  11.881
85233W        W52301  34.088  12.663  14.496
85234W        W52302  24.186  38.071   4.257
85235W        W52303  26.482  28.967   4.738
85236W        W52304  23.199  44.773   0.863
85237W        W52305  13.249  33.118   4.315
85238W        W52306  18.577  34.484  14.945
85239W        W52307   6.315   3.391  14.791
85240W        W52308  24.052  13.228   1.813
85241W        W52309  21.723  20.686  12.871
85242W        W52310  37.015  18.763  14.303
85243W        W52311  11.141   8.239  11.893
85244W        W52312  19.141   5.722   1.234
85245W        W52313  33.106  28.034  12.900
85246W        W52314  41.982  29.160   1.224
85247W        W52315  30.517   9.689   0.259
85248W        W52316  17.800  22.995   1.885
85249W        W52317  10.788  14.641   4.205
85250W        W52318  29.639  20.044  11.570
85251W        W52319  27.661  27.128   1.713
85252W        W52320   8.771  14.209   0.760
85253W        W52321   2.765   5.819   2.733
85254W        W52322  25.712  23.129  13.370
85255W        W52323  37.017  19.193  12.941
85256W        W52324  41.837  41.307   3.191
85257W        W52325  15.767   5.197   3.157
85258W        W52326  18.616  23.146  12.089
85259W        W52327  15.281  41.466   0.361
85260W        W52328   2.389  14.302  12.499
85261W        W52329   3.442  33.433   3.349
85262W        W52330   1.387   6.291  12.001
85263W        W52331  44.910  21.073   1.873
85264W        W52332  25.138   6.189   1.724
85265W        W52333  15.166   6.346  14.457
85266W        W52334   4.751   5.388  12.923
85267W        W52335  28.075  20.530   2.700
85268W        W52336  36.042  18.079  11.466
85269W        W52337  34.578  42.809   4.346
85270W        W52338  43.795   9.740  10.541
85271W        W52339   4.372  26.105  14.866
85272W        W52340  22.726  15.151  13.482
85273W        W52341  14.162  23.616  12.360
85274W        W52342  19.627   5.198  11.374
85275W        W52343  10.274  29.624   4.701
85276W        W52344   5.872  36.963  13.412
85277W        W52345  16.207   5.736   0.734
85278W        W52346   5.850   0.858   1.920
85279W        W52347  23.620  26.147   1.384
85280W        W52348  43.869  44.338  14.455
85281W        W52349  15.661  17.180  13.820
85282W        W52350  36.400  33.892   1.254
85283W        W52351  20.164   6.732  13.419
85284W        W52352  40.520  18.240  14.941
85285W        W52353  33.920  39.971  10.445
85286W        W52354  25.546  42.479   4.665
85287W        W52355  20.674  22.581  12.853
85288W        W52356  42.377  26.112   4.601
85289W        W52357   2.813   8.735   0.794
85290W        W52358   9.798  31.964   4.784
85291W        W52359  26.490  42.423  11.444
85292W        W52360  10.360  10.205   4.354
85293W        W52361  28.471  32.441  11.911
85294W        W52362  19.545  34.476  14.473
85295W        W52363  18.772  27.531   0.736
85296W        W52364   5.261  12.121   0.941
85297W        W52365   2.258  44.286  11.976
85298W        W52366   8.218  44.845   1.408
85299W        W52367  29.992   3.443   4.213
85300W        W52368   0.833  18.290   1.301
85301W        W52369  28.642  21.058   3.636
85302W        W52370   7.313  38.838  14.953
85303W        W52371  17.663  34.385  12.439
85304W        W52372  33.577  31.119  13.367
85305W        W52373  17.125   5.282  13.000
85306W        W52374  19.629  34.949  10.634
85307W        W52375  30.098   0.750  14.875
85308W        W52376  41.395  42.455  10.582
85309W        W52377  33.597  38.952   3.647
85310W        W52378  14.176  31.515   4.707
85311W        W52379  16.256  40.957   3.795
85312W        W52380  24.990  18.596   0.904
85313W        W52381   2.874  16.655  12.968
85314W        W52382  16.631  13.107  12.967
85315W        W52383   3.370  36.481  13.448
85316W        W52384  27.530  14.188   2.239
85317W        W52385   3.830  34.981   2.896
85318W        W52386  26.085  32.487   4.716
85319W        W52387  22.179  16.668   0.302
85320W        W52388   5.300  25.519   0.817
85321W        W52389   4.348  20.037   2.269
85322W        W52390  25.199  10.344  12.999
85323W        W52391  26.683   8.674  12.946
85324W        W52392  38.554  26.052   1.344
85325W        W52393  16.262  27.516  14.759
85326W        W52394  27.454  34.581   4.768
85327W        W52395  15.771  37.982  14.299
85328W        W52396  26.113   4.722   4.833
85329W        W52397   9.304  35.365  10.586
85330W        W52398  32.968   0.372   4.347
85331W        W52399  38.408  31.108  13.389
85332W        W52400  32.559  39.926  12.359
85333W        W52401  18.574   6.848  14.766
85334W        W52402   3.956   3.416   2.883
85335W        W52403  43.862   1.379   0.445
85336W        W52404   0.304  24.184  10.543
85337W        W52405  33.424  29.937   2.877
85338W        W52406  11.726  38.425  10.545
85339W        W52407  24.575  43.448   1.863
85340W        W52408  26.498   8.846   0.804
85341W        W52409  11.206  37.411   4.781
85342W        W52410   4.339  20.722   3.181
85343W        W52411   4.264  44.336  10.414
85344W        W52412   9.866   0.480  13.016
85345W        W52413  14.330   3.281  13.034
85346W        W52414   2.865  37.369  11.548
85347W        W52415  11.281  19.672  10.476
85348W        W52416  32.078   9.334  12.482
85349W        W52417  29.453   3.879   4.781
85350W        W52418   9.238   3.818  11.554
85351W        W52419  27.466  31.024   2.763
85352W        W52420  41.868  18.185   1.353
85353W        W52421   1.734  40.897  10.935
85354W        W52422  23.578  34.412   2.261
85355W        W52423  18.087  16.262  14.449
85356W        W52424  14.293  31.906  10.117
85357W        W52425  25.033  44.486   2.757
85358W        W52426  40.417  42.396  11.454
85359W        W52427  18.602  23.162  14.960
85360W        W52428  37.995  19.723   4.826
85361W        W52429  24.223   2.839  11.521
85362W        W52430  13.683  26.591   3.213
85363W        W52431  11.713  25.679  12.494
85364W        W52432  32.017  17.207   2.858
85365W        W52433  42.372  23.634   1.806
85366W        W52434   4.358   2.876   4.308
85367W        W52435  30.446  16.176   3.799
85368W        W52436   4.920  29.458   2.817
85369W        W52437   8.832  26.075  13.413
85370W        W52438  29.157  43.431   0.250
85371W        W52439   4.299   1.451  13.906
85372W        W52440   7.403  17.149   5.103
85373W        W52441  23.609  19.647   2.181
85374W        W52442  12.844   0.389   3.770
85375W        W52443   3.799   8.284  13.307
85376W        W52444  27.950  12.303  13.474
85377W        W52445   9.179  32.934   3.715
85378W        W52446  13.337  13.105  14.412
85379W        W52447  16.624  36.981   2.380
85380W        W52448  20.579  14.228   0.945
85381W        W52449   6.354   2.734  14.391
85382W        W52450   0.302  14.239   4.333
85383W        W52451   4.808  34.456  11.603
85384W        W52452   4.789   9.740  14.461
85385W        W52453  20.247  19.198  13.883
85386W        W52454  32.914  29.023  14.006
85387W        W52455  32.458  25.711  11.904
85388W        W52456  44.319  17.725   4.658
85389W        W52457  29.160  11.174   3.870
85390W        W52458   1.891  20.533   3.770
85391W        W52459  20.714   6.745   3.642
85392W        W52460   9.237  19.082  12.040
85393W        W52461   9.684   5.802  11.429
85394W        W52462  10.159  29.102  11.968
85395W        W52463  23.114  19.568   0.247
85396W        W52464  37.044   8.682  10.973
85397W        W52465  32.138  30.547  12.564
85398W        W52466  18.232  31.611  12.021
85399W        W52467  26.652  42.422  13.841
85400W        W52468   2.228  36.000   3.352
85401W        W52469  14.620  43.348   2.409
85402W        W52470  30.952  20.045   1.243
85403W        W52471  11.222  35.403   0.291
85404W        W52472  11.628  26.158   3.201
85405W        W52473  22.528  14.826   4.713
85406W        W52474  41.849   3.334  13.913
85407W        W52475  24.042  23.182   3.369
85408W        W52476   3.817   7.249  10.439
85409W        W52477  36.588  33.417   2.379
85410W        W52478  17.797   5.306  12.551
85411W        W52479  14.166  43.855  13.334
85412W        W52480  29.550  18.683   0.281
85413W        W52481  10.784  28.977  10.548
85414W        W52482  34.479   6.426   4.230
85415W        W52483  12.842   3.307  11.375
85416W        W52484  27.073  14.317   0.753
85417W        W52485  28.542  21.211  11.600
85418W        W52486  44.268  29.606   0.881
85419W        W52487   0.854  20.597   1.919
85420W        W52488  17.242  29.094  14.463
85421W        W52489   2.268   6.818   2.873
85422W        W52490  35.939  23.673   0.778
85423W        W52491  30.585   7.339   4.313
85424W        W52492  12.237  20.160  11.860
85425W        W52493  26.199   3.770  12.962
85426W        W52494  20.104  15.318  13.910
85427W        W52495  14.602  26.606   3.760
85428W        W52496  14.596   6.340   3.308
85429W        W52497  43.975  34.413  10.428
85430W        W52498  32.544  20.095   0.318
85431W        W52499  28.462  19.740  11.536
85432W        W52500  25.027   5.902  14.819
85433W        W52501  30.942   3.762   4.148
85434W        W52502   5.286  25.184   3.661
85435W        W52503   0.302  24.019  14.838
85436W        W52504   6.404   3.421   1.788
85437W        W52505  25.595  43.424  10.893
85438W        W52506  40.414  33.592   4.198
85439W        W52507  20.267   9.703  10.510
85440W        W52508  16.303   7.343  13.856
85441W        W52509  24.033   2.365  14.378
85442W        W52510  36.403   8.322   4.798
85443W        W52511  43.363  23.661   0.943
85444W        W52512  23.538  19.274  14.482
85445W        W52513  32.616   2.341   2.353
85446W        W52514  21.233  30.418   4.301
85447W        W52515  44.797   6.889   2.350
85448W        W52516  27.077  23.146   3.843
85449W        W52517   0.911  35.374   0.898
85450W        W52518  24.664  17.587  12.397
85451W        W52519  15.579   4.895   4.823
85452W        W52520   5.760  20.271   1.724
85453W        W52521  38.366   7.278   2.893
85454W        W52522  33.092  41.999  12.494
85455W        W52523  40.346  30.556  14.452
85456W        W52524  20.666  39.932  14.000
85457W        W52525  41.397   9.195  13.527
85458W        W52526  33.527  35.537  10.630
85459W        W52527  11.241  44.777  14.338
85460W        W52528   4.914   9.357  14.846
85461W        W52529  21.229  29.928   2.713
85462W        W52530  21.124   3.394  11.375
85463W        W52531   2.275  29.586  11.437
85464W        W52532   2.415   0.385   4.625
85465W        W52533  16.591  18.618  10.108
85466W        W52534  22.155  36.372   0.832
85467W        W52535  30.585  14.803   2.785
85468W        W52536  20.589  22.072  12.870
85469W        W52537  26.594  31.083  13.002
85470W        W52538  11.733   2.441  10.546
85471W        W52539  13.231  11.322  12.454
85472W        W52540   0.761  22.237  10.631
85473W        W52541   6.243  44.917  12.576
85474W        W52542  12.162  32.492   0.310
85475W        W52543  12.854  27.109   3.775
85476W        W52544  13.325  43.864   2.797
85477W        W52545  39.538   7.767  14.934
85478W        W52546  37.074  20.222   3.296
85479W        W52547  43.993   7.409  13.945
85480W        W52548   2.915  29.965   1.357
85481W        W52549  37.874  28.579  12.843
85482W        W52550  19.284  18.784  13.507
85483W        W52551  27.605  21.155  10.530
85484W        W52552  34.377  21.531  11.420
85485W        W52553   5.285  25.648  14.320
85486W        W52554  22.041  42.501  11.582
85487W        W52555   3.955  19.209  11.548
85488W        W52556  41.334  15.153   4.722
85489W        W52557  23.607  43.829  14.885
85490W        W52558  42.983  42.527  11.114
85491W        W52559  38.825  28.106  13.507
85492W        W52560  31.927   8.696  11.987
85493W        W52561   2.850  37.852  12.062
85494W        W52562  12.195  42.434  14.312
85495W        W52563  25.547  12.254   0.248
85496W        W52564  42.488  18.177  12.357
85497W        W52565  25.523  13.131   2.712
85498W        W52566  33.124  37.961   4.663
85499W        W52567   4.858   5.416   2.286
85500W        W52568  17.253   0.970  10.140
85501W        W52569  21.194  39.866  12.844
85502W        W52570  32.580  43.414   0.876
85503W        W52571  35.085  14.232   9.973
85504W        W52572   0.468  33.920  11.526
85505W        W52573  23.999  39.376   0.399
85506W        W52574   7.415  16.759  11.602
85507W        W52575  18.182  20.717   3.314
85508W        W52576   7.176  17.716   3.826
85509W        W52577  43.286  37.960  12.513
85510W        W52578  24.215  35.971   5.152
85511W        W52579  10.838  25.694  12.880
85512W        W52580  15.718  34.002  14.390
85513W        W52581  44.836  16.664  14.464
85514W        W52582  18.128  18.685   1.808
85515W        W52583  25.087   8.694   1.366
85516W        W52584  37.913  25.539   2.369
85517W        W52585  11.297  37.539   2.674
85518W        W52586   0.786  28.102   5.110
85519W        W52587   0.861  24.081   0.892
85520W        W52588  25.054  32.481  14.329
85521W        W52589  27.021  23.153   2.777
85522W        W52590  13.637   4.263  11.052
85523W        W52591  10.211   0.764  11.417
85524W        W52592  22.210  13.604   1.748
85525W        W52593   0.316  32.102   3.803
85526W        W52594  24.522  30.418  14.388
85527W        W52595  23.524   0.394  11.076
85528W        W52596  33.522  26.540  12.376
85529W        W52597  23.192  28.995   1.826
85530W        W52598   7.771   8.322  13.515
85531W        W52599  31.939  24.504   3.291
85532W        W52600  33.500  41.460  14.862
85533W        W52601  20.763  23.179  10.630
85534W        W52602  20.086  23.097   3.632
85535W        W52603  13.837  44.949  13.820
85536W        W52604  34.409   0.468   0.336
85537W        W52605  13.763  43.344   2.679
85538W        W52606  34.402  25.970   1.247
85539W        W52607  19.230  26.164  13.038
85540W        W52608  22.520  11.731   4.268
85541W        W52609  22.996  18.608  13.043
85542W        W52610  23.639  33.474  13.044
85543W        W52611  36.867  31.143  13.818
85544W        W52612  43.471  28.452   3.253
85545W        W52613  23.631  14.310   3.780
85546W        W52614   7.417   1.261   0.480
85547W        W52615  12.269  18.163   3.847
85548W        W52616   9.644   7.296  14.483
85549W        W52617   2.264   1.293   0.265
85550W        W52618   0.820  10.197  14.946
85551W        W52619  32.930  34.110  11.120
85552W        W52620   1.924  17.592  10.521
85553W        W52621  39.512  24.623   2.315
85554W        W52622  40.813  38.855   4.742
85555W        W52623   9.851   7.692   4.759
85556W        W52624  23.101  42.397   0.818
85557W        W52625  25.170  29.036  12.068
85558W        W52626  14.231  14.148   4.213
85559W        W52627  26.154  38.064  12.015
85560W        W52628   4.264  31.089   4.286
85561W        W52629  14.161   5.700   4.145
85562W        W52630  30.447   8.892  13.020
85563W        W52631   2.848  27.019   1.875
85564W        W52632  37.524  15.247  14.006
85565W        W52633  39.550  16.579   4.784
85566W        W52634  25.980  33.613   0.342
85567W        W52635  38.475  42.794   3.239
85568W        W52636  13.799   7.882   0.869
85569W        W52637   7.839  32.598   2.752
85570W        W52638  37.342  39.035   1.300
85571W        W52639   8.895  43.765  10.440
85572W        W52640  24.132  28.013   0.475
85573W        W52641  20.088   6.206   2.243
85574W        W52642  36.955  29.525   0.937
85575W        W52643  22.685  13.294   2.847
85576W        W52644  42.915  12.787  14.795
85577W        W52645  30.055  15.092   3.689
85578W        W52646  33.455  38.435   3.169
85579W        W52647   8.165  30.014   4.837
85580W        W52648  37.959   6.801  11.936
85581W        W52649  41.425  10.336  10.456
85582W        W52650  34.082  13.656   4.655
85583W        W52651  37.921  18.189   4.708
85584W        W52652   5.723  13.735   0.390
85585W        W52653   5.921  27.983   4.796
85586W        W52654  15.672  28.164   4.786
85587W        W52655  13.312  36.550  14.762
85588W        W52656  38.404  11.324   3.148
85589W        W52657  43.379  10.755  10.947
85590W        W52658  39.895  30.999  14.772
85591W        W52659  39.843   4.296   1.437
85592W        W52660  21.194  44.406   3.374
85593W        W52661   9.154   5.724  12.856
85594W        W52662  14.163   6.252   0.805
85595W        W52663  21.038  40.979   2.749
85596W        W52664  30.587   6.816  13.945
85597W        W52665  15.740  29.499   4.278
85598W        W52666  29.979  29.088  14.007
85599W        W52667  32.103  16.086   2.662
85600W        W52668  41.835  16.691  13.360
85601W        W52669  44.483  13.136   5.157
85602W        W52670  29.620  30.647  13.939
85603W        W52671  43.984  35.452  10.419
85604W        W52672  20.582  42.457  13.334
85605W        W52673   0.426  35.583   3.168
85606W        W52674  30.552  15.240  14.890
85607W        W52675   5.208   2.945   2.735
85608W        W52676   7.730   2.308  13.931
85609W        W52677  37.457  39.453  11.051
85610W        W52678  15.171  32.621  14.369
85611W        W52679  34.407  38.942  14.941
85612W        W52680  32.125   8.395  12.474
85613W        W52681   2.854  41.918  13.375
85614W        W52682  29.478  22.232  12.391
85615W        W52683   5.687  36.428  14.805
85616W        W52684  12.267  23.128  13.049
85617W        W52685  38.423  42.438  10.430
85618W        W52686  39.936  41.518   2.255
85619W        W52687  43.825   5.742   2.826
85620W        W52688   5.344  27.050   4.835
85621W        W52689   4.861   7.769   5.117
85622W        W52690  38.365  41.457  12.950
85623W        W52691  44.785  12.722   0.861
85624W        W52692  31.117  34.448  11.012
85625W        W52693  39.317  34.021  13.339
85626W        W52694  36.951  37.023   4.791
85627W        W52695  34.025  36.900   4.760
85628W        W52696   0.811  25.016  10.955
85629W        W52697  39.373   5.212   2.345
85630W        W52698   1.848  29.568   0.925
85631W        W52699  12.776  35.475  14.808
85632W        W52700  29.035  44.810   4.756
85633W        W52701  14.289  26.096   4.305
85634W        W52702  19.264  42.386   0.840
85635W        W52703  40.470  12.248   4.274
85636W        W52704  13.621   2.784   3.191
85637W        W52705   7.206  16.813  14.279
85638W        W52706   9.315  32.479   4.259
85639W        W52707  10.717  25.481   0.479
85640W        W52708   3.731  26.061   3.197
85641W        W52709   1.923  13.658  14.283
85642W        W52710  12.349  11.320  10.440
85643W        W52711   4.756  39.521   5.172
85644W        W52712  24.219  12.349  13.484
85645W        W52713  39.920  18.260   0.932
85646W        W52714  30.136  10.213   2.275
85647W        W52715  43.331  42.280   0.408
85648W        W52716  10.849  22.996  14.808
85649W        W52717   2.426   9.389  12.964
85650W        W52718  25.580  39.952   0.384
85651W        W52719   4.246   0.317   3.201
85652W        W52720   2.251  37.917   3.179
85653W        W52721  42.921  44.410   3.168
85654W        W52722  17.740  22.746   1.702
85655W        W52723  32.548  23.020  10.055
85656W        W52724  40.876  43.891   4.733
85657W        W52725  36.479  28.031  12.027
85658W        W52726  44.810   3.941  10.413
85659W        W52727   6.746  24.609  10.612
85660W        W52728  36.010  38.956  12.572
85661W        W52729  36.389  19.042  14.477
85662W        W52730  13.193   3.360   1.313
85663W        W52731  42.375  43.014  10.515
85664W        W52732  11.745  31.912   4.779
85665W        W52733   3.869  38.932  10.453
85666W        W52734  23.098  36.545   1.776
85667W        W52735  41.331  24.224  12.946
85668W        W52736  19.661  44.355  11.385
85669W        W52737  36.882  28.001   4.282
85670W        W52738  26.957  42.477  14.919
85671W        W52739  32.947  12.253   0.742
85672W        W52740   1.879  32.613   0.789
85673W        W52741   2.396  24.224  14.024
85674W        W52742  17.570  43.465  10.498
85675W        W52743  33.989  20.049   1.913
85676W        W52744   4.449   2.389   4.804
85677W        W52745  35.582  19.214  10.468
85678W        W52746  40.032  27.093   3.703
85679W        W52747   6.416  34.998   4.770
85680W        W52748  39.393  16.296   3.356
85681W        W52749  37.007  22.118  14.985
85682W        W52750  42.030   6.285   4.830
85683W        W52751  29.626  27.489  13.391
85684W        W52752  10.257  32.895   4.619
85685W        W52753  12.118   5.837   4.160
85686W        W52754  34.925  35.572   1.288
85687W        W52755   7.855  24.149  10.955
85688W        W52756  18.652  42.882   1.811
85689W        W52757   5.886  29.964  10.480
85690W        W52758  29.600  35.477  10.977
85691W        W52759  10.249  28.144  14.312
85692W        W52760  25.539   4.747  13.957
85693W        W52761  22.523  20.715   2.379
85694W        W52762  15.814  21.548  12.501
85695W        W52763  44.444  18.071  10.606
85696W        W52764  33.056  28.046   0.391
85697W        W52765  10.766  37.963   1.696
85698W        W52766  35.579  31.589  12.574
85699W        W52767  42.916  16.690  11.019
85700W        W52768  15.306  28.959  10.423
85701W        W52769  23.550  26.697  12.840
85702W        W52770  38.961  42.901  10.410
85703W        W52771   3.826  42.311  10.497
85704W        W52772  11.754  31.509   3.336
85705W        W52773  16.129   5.309   2.241
85706W        W52774  18.642  10.190   1.886
85707W        W52775  34.463   9.719   0.832
85708W        W52776  22.708  24.987  10.500
85709W        W52777   7.707  37.014   0.371
85710W        W52778  38.388  39.340   4.742
85711W        W52779  35.936   5.886  11.459
85712W        W52780   7.755   3.315   1.894
85713W        W52781  16.285  39.989  14.412
85714W        W52782   3.385  40.378  13.394
85715W        W52783  40.523   9.355  12.012
85716W        W52784   0.791   2.733   0.784
85717W        W52785  11.767   4.400  10.889
85718W        W52786  44.356  38.971  11.586
85719W        W52787   6.908  28.111  13.902
85720W        W52788   1.836  26.572   4.153
85721W        W52789  37.035  33.052  11.064
85722W        W52790  42.964  34.975   1.797
85723W        W52791   5.774   5.752   3.280
85724W        W52792  34.871  15.111  12.447
85725W        W52793   3.782  44.294   0.433
85726W        W52794  30.962  21.081   4.798
85727W        W52795  25.100   5.198  14.970
85728W        W52796   8.660  33.058   1.794
85729W        W52797  36.990  32.923   1.444
85730W        W52798  25.515   2.301   4.290
85731W        W52799  14.830   2.336  13.858
85732W        W52800  32.946   7.312  14.400
85733W        W52801  44.262   8.251   4.140
85734W        W52802  35.861  13.832   2.232
85735W        W52803   8.796  16.271   3.806
85736W        W52804  27.178  19.046  11.078
85737W        W52805  17.061  40.909   1.371
85738W        W52806  13.721  23.557  14.495
85739W        W52807  34.034  30.091   2.703
85740W        W52808   0.834  15.595   0.816
85741W        W52809   6.191   5.267  12.863
85742W        W52810   4.758   8.823  11.990
85743W        W52811  40.867  43.373  14.818
85744W        W52812  26.692  43.011   3.318
85745W        W52813  33.938  27.080  13.882
85746W        W52814   7.257  30.634   2.855
85747W        W52815  10.773   3.915  14.431
85748W        W52816  35.473  38.062  12.885
85749W        W52817  18.096  44.473   1.414
85750W        W52818  13.182   3.282   4.792
85751W        W52819  33.938  37.950  13.421
85752W        W52820  23.671  32.425  14.863
85753W        W52821   4.425  35.908   1.712
85754W        W52822  42.008  11.687   0.864
85755W        W52823  25.998  31.432  14.860
85756W        W52824  10.252  18.661  10.620
85757W        W52825  11.787  36.936   1.905
85758W        W52826  16.306   4.247   1.226
85759W        W52827  32.948  17.764   0.251
85760W        W52828   7.305  20.056  11.372
85761W        W52829  34.478  31.912  14.509
85762W        W52830  22.081   2.411  11.107
85763W        W52831  26.657  24.602  12.990
85764W        W52832  39.996   9.163  12.537
85765W        W52833  26.192  30.640  12.078
85766W        W52834  37.357  21.088  13.541
85767W        W52835  42.813  38.331  12.457
85768W        W52836  26.688   5.794  10.428
85769W        W52837  39.888  10.713  13.541
85770W        W52838  43.422  44.355  11.463
85771W        W52839  16.316   3.771  14.425
85772W        W52840  36.915  20.630  11.468
85773W        W52841  29.524  37.942   2.197
85774W        W52842  13.209   6.775  12.515
85775W        W52843   5.769  26.197  13.454
85776W        W52844  13.714  31.605  11.443
85777W        W52845   7.295  24.521  13.432
85778W        W52846  13.293  13.615   1.423
85779W        W52847   8.321  15.208   3.162
85780W        W52848  13.266  14.620   1.707
85781W        W52849  13.710  23.702   4.326
85782W        W52850  13.199   9.317  12.404
85783W        W52851  18.153  18.073   0.836
85784W        W52852  36.020  41.916   0.869
85785W        W52853  41.844   6.921  10.467
85786W        W52854  37.923   6.374   3.371
85787W        W52855  15.316  38.561  14.909
85788W        W52856  44.872   2.419   4.285
85789W        W52857  20.208  32.434   2.896
85790W        W52858  21.102  15.760  12.571
85791W        W52859  17.600  11.220   4.133
85792W        W52860  26.574  38.954  10.031
85793W        W52861   8.194  23.153   4.320
85794W        W52862  30.564  37.047   4.756
85795W        W52863  25.620  16.164   4.632
85796W        W52864   3.242  29.984   3.262
85797W        W52865  26.140  12.721  13.872
85798W        W52866  43.016  14.769   2.670
85799W        W52867  17.589  41.986   1.927
85800W        W52868   3.820   4.924  10.533
85801W        W52869  11.312  43.407  10.928
85802W        W52870  29.560   8.172   0.466
85803W        W52871  30.576  12.764   1.319
85804W        W52872  37.870  11.185   4.721
85805W        W52873   8.270  24.489  10.988
85806W        W52874  11.859   2.830  10.038
85807W        W52875  16.126  35.934   2.819
85808W        W52876   5.363  10.249  11.573
85809W        W52877  33.416   2.797   4.178
85810W        W52878  22.522  35.009  10.959
85811W        W52879   0.788  35.546   2.675
85812W        W52880  21.516  15.653  13.819
85813W        W52881  41.868   5.323   3.850
85814W        W52882  18.682  32.416  11.007
85815W        W52883  43.849  14.140   4.832
85816W        W52884   9.773  30.511  12.077
85817W        W52885  38.373  17.134   4.719
85818W        W52886  43.881  10.281  10.975
85819W        W52887  29.634   0.765   0.787
85820W        W52888  25.187  40.931   4.745
85821W        W52889  11.800   4.432  14.282
85822W        W52890  34.967  40.804   1.861
85823W        W52891   7.345  41.810   4.216
85824W        W52892  13.644   0.324  13.794
85825W        W52893  18.697  38.471  11.578
85826W        W52894  36.518   4.842   0.411
85827W        W52895  34.455  16.173   4.836
85828W        W52896  34.023   8.827   4.724
85829W        W52897  23.667  37.392   1.435
85830W        W52898   1.807  38.931  11.589
85831W        W52899  23.632  35.429   4.215
85832W        W52900  42.875   5.219   1.851
85833W        W52901  27.035  35.442  14.892
85834W        W52902  35.093   7.330   2.308
85835W        W52903  37.581  10.160  12.543
85836W        W52904  10.189  38.959  10.899
85837W        W52905  28.956   5.753   4.697
85838W        W52906   5.364  26.121  11.581
85839W        W52907  38.390  24.196  13.481
85840W        W52908  36.585   4.318   2.248
85841W        W52909   2.385  37.451   3.147
85842W        W52910   6.240  19.088   1.734
85843W        W52911  11.663  39.041  12.521
85844W        W52912   6.199   4.417   3.742
85845W        W52913  10.143  29.598   3.273
85846W        W52914  37.958  21.048   1.422
85847W        W52915   6.387   4.771   2.702
85848W        W52916   2.794  33.396   3.192
85849W        W52917  42.914  39.322  11.867
85850W        W52918  41.915  27.458  10.566
85851W        W52919  14.112  21.065  11.124
85852W        W52920  35.388  13.302   1.878
85853W        W52921  36.466  42.433   1.823
85854W        W52922  42.992  37.873   2.813
85855W        W52923  11.241  22.526   1.750
85856W        W52924  37.941  33.615   3.344
85857W        W52925  43.329  13.223   1.726
85858W        W52926  17.763  37.390  14.842
85859W        W52927  14.243   8.297  13.467
85860W        W52928   8.805  33.990  10.617
85861W        W52929  17.587  39.867  12.979
85862W        W52930  10.762  37.084   0.328
85863W        W52931  17.768  44.895  12.979
85864W        W52932  36.528  17.588  14.944
85865W        W52933  29.519   1.451   3.859
85866W        W52934  37.004   3.366  13.052
85867W        W52935   1.779  34.416   3.248
85868W        W52936  24.648  37.965   3.867
85869W        W52937   7.876  27.973   1.318
85870W        W52938  11.160   3.790   1.825
85871W        W52939  12.270  10.855  11.979
85872W        W52940   6.246  24.100   3.828
85873W        W52941   5.349  12.855   2.785
85874W        W52942  15.286  21.641   1.815
85875W        W52943  30.528   2.936  10.418
85876W        W52944  25.106  20.172  13.807
85877W        W52945  13.128   6.862   1.923
85878W        W52946  36.883  44.320  12.512
85879W        W52947   9.745  34.036   2.405
85880W        W52948  21.652  17.100  12.899
85881W        W52949  12.698  10.868  14.958
85882W        W52950  40.485  14.769  12.918
85883W        W52951  31.544  32.050  10.891
85884W        W52952  27.652  41.035  12.894
85885W        W52953  10.643   4.403  10.626
85886W        W52954  39.882  12.128   3.815
85887W        W52955  27.174  39.557   0.944
85888W        W52956  40.994  14.806  14.926
85889W        W52957  18.563  16.165  14.474
85890W        W52958  13.312  18.660  11.021
85891W        W52959  43.332  32.115  10.561
85892W        W52960  35.469  17.726   1.415
85893W        W52961  14.261  38.356   4.628
85894W        W52962  41.427  44.956  13.515
85895W        W52963  35.983  26.587   4.810
85896W        W52964  11.217   2.432   0.876
85897W        W52965   7.701  36.407  14.874
85898W        W52966  24.607  19.133   3.212
85899W        W52967   9.704  44.276  13.960
85900W        W52968   6.902  10.654   2.288
85901W        W52969   6.233   8.810  11.110
85902W        W52970  16.299  22.567  13.908
85903W        W52971  35.098  23.528   5.121
85904W        W52972   3.395  13.614   0.321
85905W        W52973  13.239  41.326  10.012
85906W        W52974   0.913  12.850   4.831
85907W        W52975  30.534   2.771   3.154
85908W        W52976  40.539  16.273  10.574
85909W        W52977  20.052  30.992  10.510
85910W        W52978  31.406  40.502   1.932
85911W        W52979  22.524   7.319  11.570
85912W        W52980   0.870  15.725   2.359
85913W        W52981  25.033  24.584   3.146
85914W        W52982  28.145  44.425   0.247
85915W        W52983  15.720   1.298  11.049
85916W        W52984   8.825   3.805   3.817
85917W        W52985  37.894  21.627  12.040
85918W        W52986   6.727   8.262  13.425
85919W        W52987  18.600  36.859   1.727
85920W        W52988  34.919  35.394   0.744
85921W        W52989   1.282   5.763   3.194
85922W        W52990  21.540  26.190  12.414
85923W        W52991  33.021   9.303   1.399
85924W        W52992  25.075  31.015  11.046
85925W        W52993  30.979  21.096   2.812
85926W        W52994  41.533  16.108  10.436
85927W        W52995   6.383  26.952   1.311
85928W        W52996  34.498  38.860   0.799
85929W        W52997  16.613  38.024   1.778
85930W        W52998  41.881  39.975  13.039
85931W        W52999  39.050  36.011  10.617
85932W        W53000   0.953  29.165  12.845
85933W        W53001  36.476  29.932  12.555
85934W        W53002  13.188  38.499   2.839
85935W        W53003  36.872   7.763  14.903
85936W        W53004   0.835  27.164  12.084
85937W        W53005  17.117  29.523   3.148
85938W        W53006  31.080  43.850  14.910
85939W        W53007  39.373   2.729  14.332
85940W        W53008  10.689  26.469   1.882
85941W        W53009  34.923  15.266   3.264
85942W        W53010  44.369  43.302   1.850
85943W        W53011  24.593   8.248  13.859
85944W        W53012  38.912  28.119   1.917
85945W        W53013  23.180  14.119   3.313
85946W        W53014  17.740  41.308  13.493
85947W        W53015  32.416  29.666   3.714
85948W        W53016  42.442  36.914  10.986
85949W        W53017  40.473  17.292  11.097
85950W        W53018  33.441   6.760   4.114
85951W        W53019  40.961  25.555   0.788
85952W        W53020  13.716  42.522   3.822
85953W        W53021  19.075   9.337   3.848
85954W        W53022   4.898  27.048   1.361
85955W        W53023  36.579   5.830   2.396
85956W        W53024  12.166  28.585   3.159
85957W        W53025  39.484  26.610   4.736
85958W        W53026   4.419  14.112   0.936
85959W        W53027  16.173  13.718   0.917
85960W        W53028  20.053  21.606  14.941
85961W        W53029  42.880  33.481  11.564
85962W        W53030   5.368  35.924   3.747
85963W        W53031  30.433   8.681  12.083
85964W        W53032   6.325  33.620   2.687
85965W        W53033  12.155  15.660   3.203
85966W        W53034  43.782   0.409   4.747
85967W        W53035  18.565  14.281   1.278
85968W        W53036  22.103  26.031  14.364
85969W        W53037  24.509  32.904  11.119
85970W        W53038  41.502  32.930  10.474
85971W        W53039   0.401   6.283  13.064
85972W        W53040  19.594  41.472  12.985
85973W        W53041  36.586   7.396  12.528
85974W        W53042  36.046  26.512   0.848
85975W        W53043  33.110  43.816  12.360
85976W        W53044  43.476   4.220   2.731
85977W        W53045  25.524  33.119  13.904
85978W        W53046  22.635  12.224   0.744
85979W        W53047   2.731  25.979  10.928
85980W        W53048   7.843   7.272   1.303
85981W        W53049  31.429   0.867  11.911
85982W        W53050  29.919  21.744   1.927
85983W        W53051  10.199  15.300  13.391
85984W        W53052  33.513   8.720   0.913
85985W        W53053  21.102  12.738  13.960
85986W        W53054  13.730  21.753   4.645
85987W        W53055  12.299  29.962   3.190
85988W        W53056  22.714   0.795  13.313
85989W        W53057  12.702   9.737  14.786
85990W        W53058  35.516  37.507  13.998
85991W        W53059  42.795  16.665  11.981
85992W        W53060   7.859  21.661  14.474
85993W        W53061  38.992   9.836   0.860
85994W        W53062  32.951  35.429   3.708
85995W        W53063   3.399  10.811  10.468
85996W        W53064  39.989  31.978   0.255
85997W        W53065  17.586  15.200   4.322
85998W        W53066  37.551  16.230   0.779
85999W        W53067  26.693  30.064   1.766
86000W        W53068  19.178  17.682  11.121
86001W        W53069  21.657  26.468   2.284
86002W        W53070  17.267   4.242  11.389
86003W        W53071  28.182   9.274  14.341
86004W        W53072  27.985   5.694   1.694
86005W        W53073   6.348   8.662   0.924
86006W        W53074  31.095   6.309  10.474
86007W        W53075  31.501  33.519   4.146
86008W        W53076   1.376  37.495  14.342
86009W        W53077  19.779  38.949   0.832
86010W        W53078  14.709   0.845  10.965
86011W        W53079   0.289  27.648   3.822
86012W        W53080  19.661  15.295  13.910
86013W        W53081  27.462   5.923  13.458
86014W        W53082  38.823  32.960  11.879
86015W        W53083  25.094  41.876   4.163
86016W        W53084  22.623   1.450   1.869
86017W        W53085  16.098  23.133   0.849
86018W        W53086  17.091  31.008  11.992
86019W        W53087  31.545   2.731  12.444
86020W        W53088  15.750   0.832  13.009
86021W        W53089  18.604  23.013   0.395
86022W        W53090  18.137  21.237   4.150
86023W        W53091  12.763   9.722  11.019
86024W        W53092   2.388  10.654   1.268
86025W        W53093  30.518  44.332   5.258
86026W        W53094   4.743  24.627  14.335
86027W        W53095  29.112  17.069   3.164
86028W        W53096  36.375   1.780  11.562
86029W        W53097   5.299  30.554   5.133
86030W        W53098   1.948  17.784  14.300
86031W        W53099  11.787  30.648  12.537
86032W        W53100  33.477  32.983  14.919
86033W        W53101  30.600  37.428   3.164
86034W        W53102  17.158   7.385   0.763
86035W        W53103  32.138  20.195  12.348
86036W        W53104  41.391  15.104   1.255
86037W        W53105  44.861   3.217  11.552
86038W        W53106  33.089  17.727   4.340
86039W        W53107   2.912   9.658   4.279
86040W        W53108  34.970  25.109   4.326
86041W        W53109  39.457  14.813   3.669
86042W        W53110  20.188  10.340  12.400
86043W        W53111  33.129  23.552   0.947
86044W        W53112  26.645  22.014   4.707
86045W        W53113  24.146  28.978   2.731
86046W        W53114  31.430  12.146  10.618
86047W        W53115   4.761   9.215   0.814
86048W        W53116  31.505  23.193   3.640
86049W        W53117  24.504  11.803  13.395
86050W        W53118  17.073  42.934   3.778
86051W        W53119  15.321  39.915  11.431
86052W        W53120  44.455  44.289  11.079
86053W        W53121  36.849   4.814   3.221
86054W        W53122   6.838  39.477  11.022
86055W        W53123  36.079   4.889   4.224
86056W        W53124  19.635   4.375  11.600
86057W        W53125  19.638   0.368  11.063
86058W        W53126  32.896   6.354  13.479
86059W        W53127   1.960  18.155  12.074
86060W        W53128  13.260   7.759  14.848
86061W        W53129  40.537  32.965  11.493
86062W        W53130  32.115  17.075  11.120
86063W        W53131  17.080  23.490   2.685
86064W        W53132   0.912  19.161   0.818
86065W        W53133  11.240  17.619   2.244
86066W        W53134   7.219   3.852   2.802
86067W        W53135  32.074   1.763  13.322
86068W        W53136  37.050  42.978   3.304
86069W        W53137  23.158  42.812  11.566
86070W        W53138  26.599  20.165   5.144
86071W        W53139   6.762   1.764   4.346
86072W        W53140  12.351   1.890  11.044
86073W        W53141   8.314  13.179   3.185
86074W        W53142  19.266  11.316   0.886
86075W        W53143  19.699  36.583   1.428
86076W        W53144  39.933   9.662   0.475
86077W        W53145  18.601  25.479   1.793
86078W        W53146   1.890  24.094   0.798
86079W        W53147   9.647  24.580  10.564
86080W        W53148  32.404   6.304  14.877
86081W        W53149  16.736  25.641   0.926
86082W        W53150  44.400  36.856  11.503
86083W        W53151  24.229  12.194   4.628
86084W        W53152  18.635  20.265   2.862
86085W        W53153  41.793  21.546   2.395
86086W        W53154   9.870  14.653   3.269
86087W        W53155  38.430   2.842   0.302
86088W        W53156   7.881  34.509  13.365
86089W        W53157   0.785  28.013  11.547
86090W        W53158  20.211   6.846   4.195
86091W        W53159   2.395  20.189   0.408
86092W        W53160  27.498  32.598   3.751
86093W        W53161  10.250   4.245  13.501
86094W        W53162  39.521  44.488   0.925
86095W        W53163  22.054  15.791  11.386
86096W        W53164  11.637  44.404   2.700
86097W        W53165  39.015  33.405  11.879
86098W        W53166   6.702   7.860  11.459
86099W        W53167  39.359   6.303   1.905
86100W        W53168   4.333  27.048   3.728
86101W        W53169  44.984  14.604   4.672
86102W        W53170  38.834  23.988   1.873
86103W        W53171  33.622  33.111   5.238
86104W        W53172  31.547  22.251  11.494
86105W        W53173  35.414  27.485  13.377
86106W        W53174  22.597  30.940   3.713
86107W        W53175  28.502  10.367  12.828
86108W        W53176  16.263  23.101  12.401
86109W        W53177  10.151  41.975  11.422
86110W        W53178  39.975   4.754  10.896
86111W        W53179  38.358  43.444   2.773
86112W        W53180  22.025  12.658   0.811
86113W        W53181  16.733   9.265  12.041
86114W        W53182  33.040  17.631  12.580
86115W        W53183  11.308   0.908   4.253
86116W        W53184   1.955   8.208  14.512
86117W        W53185  35.967  23.167   4.826
86118W        W53186  10.723  41.972   3.684
86119W        W53187  28.107  26.676  11.898
86120W        W53188  35.947  35.427   1.860
86121W        W53189  13.748  28.099   0.452
86122W        W53190  35.527  22.209  12.851
86123W        W53191  14.110   6.289  14.283
86124W        W53192  35.867  14.684  14.920
86125W        W53193  33.607  22.546  14.863
86126W        W53194  39.544  15.657  12.092
86127W        W53195   0.927  35.087   3.699
86128W        W53196   8.195  29.511   3.696
86129W        W53197  44.420  33.588   2.883
86130W        W53198  23.213  35.877  13.335
86131W        W53199   8.292   9.650  10.444
86132W        W53200  19.067   7.793   0.424
86133W        W53201  44.792  28.627   0.913
86134W        W53202  32.130  16.201  10.444
86135W        W53203   2.274   1.255  13.011
86136W        W53204  16.718   8.347   1.779
86137W        W53205   0.873  24.493  11.006
86138W        W53206  41.928  34.029   1.774
86139W        W53207   4.216  12.766   4.789
86140W        W53208   0.265  23.049  12.874
86141W        W53209  23.632  18.125  10.436
86142W        W53210  18.765  17.204   0.450
86143W        W53211  39.394  25.538   4.271
86144W        W53212  44.451  16.113   3.188
86145W        W53213  20.598  12.345   3.825
86146W        W53214  25.706   3.935  11.019
86147W        W53215  12.756  29.654  13.919
86148W        W53216  23.652  12.817   4.285
86149W        W53217   0.342  36.528  12.856
86150W        W53218  34.902   7.816  14.812
86151W        W53219  15.691  36.877  13.959
86152W        W53220  23.523  34.556  14.348
86153W        W53221  10.228  22.213  10.547
86154W        W53222  26.671  41.804  14.896
86155W        W53223  42.026   9.795   0.909
86156W        W53224  31.904  28.111  14.346
86157W        W53225   2.957  29.975  10.983
86158W        W53226  30.444  33.470  10.901
86159W        W53227  33.995  15.163   3.647
86160W        W53228  26.503  40.959  13.891
86161W        W53229  15.146   7.391   3.198
86162W        W53230  14.257  18.214  12.050
86163W        W53231  42.409   3.777  14.982
86164W        W53232   7.733  21.249  11.069
86165W        W53233   2.955  17.780  11.558
86166W        W53234   6.850  19.687  13.794
86167W        W53235  19.746  20.610   4.829
86168W        W53236  35.033  27.531   4.327
86169W        W53237   6.372  37.410   4.599
86170W        W53238  44.322  13.829  11.082
86171W        W53239  34.405   3.393  14.760
86172W        W53240  14.820  43.323   3.743
86173W        W53241  14.280   9.789   0.868
86174W        W53242  12.743  17.302  10.508
86175W        W53243  23.631  12.850  12.873
86176W        W53244  32.598   5.781   2.410
86177W        W53245  28.536   3.296   4.719
86178W        W53246   5.400  10.716   0.456
86179W        W53247  11.190   4.934  14.375
86180W        W53248  15.226  38.449   4.624
86181W        W53249   9.359   4.297  13.815
86182W        W53250  12.253  29.579   3.374
86183W        W53251  38.969  13.290   4.127
86184W        W53252  31.514   3.238   2.674
86185W        W53253  16.701  35.097   0.413
86186W        W53254   2.456  34.114   0.437
86187W        W53255  18.284  13.684   3.378
86188W        W53256   9.222  10.820   1.311
86189W        W53257  13.245  28.519   0.948
86190W        W53258  11.863  26.686  11.004
86191W        W53259  17.118   2.835  10.490
86192W        W53260  16.302   0.393   3.657
86193W        W53261  13.162  17.156  14.982
86194W        W53262  27.609  26.548  12.850
86195W        W53263  22.185  11.272  13.508
86196W        W53264  35.085   9.175  14.444
86197W        W53265  15.650   4.389  13.435
86198W        W53266  22.175  29.135  10.904
86199W        W53267   1.466  21.534  13.371
86200W        W53268  22.036  24.539  11.465
86201W        W53269  27.512  21.131  13.547
86202W        W53270  44.309  43.858   2.314
86203W        W53271  26.069  26.557  13.831
86204W        W53272  35.431  25.218  14.811
86205W        W53273   7.758  24.001   3.238
86206W        W53274  23.129  28.477  12.403
86207W        W53275   6.206   4.855  14.487
86208W        W53276  20.101  44.440  10.565
86209W        W53277  20.186  33.525   4.146
86210W        W53278  21.064   7.298   4.666
86211W        W53279  23.155  24.128   0.411
86212W        W53280  23.032  35.387  11.516
86213W        W53281  38.446  22.645  14.466
86214W        W53282   2.228  10.691  10.506
86215W        W53283  27.980  39.536   1.373
86216W        W53284  33.892   4.297   1.273
86217W        W53285  22.734  42.388  12.920
86218W        W53286  11.236  23.080  14.355
86219W        W53287  28.106  24.037  13.019
86220W        W53288  14.763  22.715   4.654
86221W        W53289  21.689  10.316  13.026
86222W        W53290  40.441  43.963  12.521
86223W        W53291  32.475   6.863   1.758
86224W        W53292  11.313  19.249   1.761
86225W        W53293  36.393  13.225  11.913
86226W        W53294  29.962  22.713   3.384
86227W        W53295  34.006   8.388   1.754
86228W        W53296   0.940  23.123  12.421
86229W        W53297  40.940  22.684  10.460
86230W        W53298   1.922  41.982   0.401
86231W        W53299   2.919  20.248  12.388
86232W        W53300  27.562  11.786   2.740
86233W        W53301  28.438  22.095  14.285
86234W        W53302   9.888  42.843  10.054
86235W        W53303  39.905  42.463   4.254
86236W        W53304  37.862  44.798   3.276
86237W        W53305  44.794  23.493   3.215
86238W        W53306  40.314  26.964   3.847
86239W        W53307  26.553  39.335  12.492
86240W        W53308  18.676  42.883   3.385
86241W        W53309   4.728  38.567  14.458
86242W        W53310   8.297  12.223  12.823
86243W        W53311  39.826   7.311   4.234
86244W        W53312  36.983  23.007  10.969
86245W        W53313  32.001  22.617  14.838
86246W        W53314  32.140  10.154   0.289
86247W        W53315  37.996  24.625   3.648
86248W        W53316   4.329  23.008   4.261
86249W        W53317  34.542  27.121  11.123
86250W        W53318  27.013  44.304  12.073
86251W        W53319  39.987   1.362   3.315
86252W        W53320  26.110  13.209   1.843
86253W        W53321   4.250  21.658   2.270
86254W        W53322   8.874  44.313  13.957
86255W        W53323  42.300  28.671  12.421
86256W        W53324  18.737   1.926   4.743
86257W        W53325  36.090   0.479  12.009
86258W        W53326   2.380  31.110  11.857
86259W        W53327  39.560  35.939   2.305
86260W        W53328   9.714  15.788   0.912
86261W        W53329  32.920  28.069   0.950
86262W        W53330  44.977  29.559  14.824
86263W        W53331  38.007  38.993  11.376
86264W        W53332  31.143  31.932  14.297
86265W        W53333  25.575  41.428   3.159
86266W        W53334  17.176  22.586   2.209
86267W        W53335  27.689  23.582  12.346
86268W        W53336  37.438  29.572  12.081
86269W        W53337  28.041  13.650  13.018
86270W        W53338  35.073   1.427   3.701
86271W        W53339  12.249   5.312   4.314
86272W        W53340  16.630  22.644   4.837
86273W        W53341  38.412   8.719  14.863
86274W        W53342  30.114   5.198   1.803
86275W        W53343  28.467  32.886  12.528
86276W        W53344  12.292  33.010  13.004
86277W        W53345   6.694   5.393  10.446
86278W        W53346  39.868  26.664   0.943
86279W        W53347  27.624  22.063   1.713
86280W        W53348  29.918  27.475   4.116
86281W        W53349   2.342  44.906  11.958
86282W        W53350  21.058  40.415   4.687
86283W        W53351  39.892  16.275   0.300
86284W        W53352  14.205   3.944   2.189
86285W        W53353  25.594  33.624   0.772
86286W        W53354   1.452  14.699  11.904
86287W        W53355  24.091  32.080   3.221
86288W        W53356   7.832   5.712  13.889
86289W        W53357  11.359  12.628   4.201
86290W        W53358   1.844  21.018  14.444
86291W        W53359   6.715  39.485  14.467
86292W        W53360   3.921   7.760   2.883
86293W        W53361  34.596  37.010  14.330
86294W        W53362  42.309  40.995  11.432
86295W        W53363  13.136  15.684   2.196
86296W        W53364  21.698  17.092   3.359
86297W        W53365  31.917   7.717   3.649
86298W        W53366  21.679  22.155   2.259
86299W        W53367  31.153   9.701  10.449
86300W        W53368  20.225   5.247   4.682
86301W        W53369  38.410  37.510   3.169
86302W        W53370  31.631  33.041   5.803
86303W        W53371   2.310  20.647  12.043
86304W        W53372  14.650   1.823   5.145
86305W        W53373  13.176  23.226  12.431
86306W        W53374  12.756  27.101  12.887
86307W        W53375  30.164  31.648   3.353
86308W        W53376  38.915   3.322   0.866
86309W        W53377   8.374   6.744   0.751
86310W        W53378  13.297  37.863  12.402
86311W        W53379  32.016  15.297  12.540
86312W        W53380  27.026  19.263  12.010
86313W        W53381  32.916  30.051   1.237
86314W        W53382  12.616   8.866   4.260
86315W        W53383  29.087  10.785   1.418
86316W        W53384  27.097   2.751  11.128
86317W        W53385  32.438  38.877  10.142
86318W        W53386  27.480  31.567  10.501
86319W        W53387  22.162  24.702   3.802
86320W        W53388  38.952  40.431  12.445
86321W        W53389  27.530  29.100  12.952
86322W        W53390  12.843  41.434  10.999
86323W        W53391  30.118  27.977   2.378
86324W        W53392   4.791  22.073  13.505
86325W        W53393  27.613  15.085  10.146
86326W        W53394  42.006  26.529  13.323
86327W        W53395  27.022  25.187   2.277
86328W        W53396  33.585   8.732   4.673
86329W        W53397  44.982  38.058  12.998
86330W        W53398  29.430  35.936  12.363
86331W        W53399  27.448   6.386  14.485
86332W        W53400  10.313  13.131   2.251
86333W        W53401  31.938  29.425   4.177
86334W        W53402   9.325  28.659   1.451
86335W        W53403   4.895  11.348  10.970
86336W        W53404  41.454  18.775  11.049
86337W        W53405  17.102   0.490   3.150
86338W        W53406  39.512  22.530  14.294
86339W        W53407  20.666  34.022  12.911
86340W        W53408  28.009  30.528  12.423
86341W        W53409  32.577  30.454   0.279
86342W        W53410  21.233  35.893  13.022
86343W        W53411  21.040  19.673  14.283
86344W        W53412   3.235  19.127   0.956
86345W        W53413  21.029  24.148  11.494
86346W        W53414  33.537   0.907   4.207
86347W        W53415   2.269   6.763  10.509
86348W        W53416  27.085   7.771  12.368
86349W        W53417  15.597  38.506  13.801
86350W        W53418   2.393  34.931  11.534
86351W        W53419  17.112  15.704  14.859
86352W        W53420  41.908  21.035  13.961
86353W        W53421  33.037  26.541   3.204
86354W        W53422  26.703  39.997   0.783
86355W        W53423  13.666   2.468  14.951
86356W        W53424  27.652  27.035   3.268
86357W        W53425  16.090  36.371   1.232
86358W        W53426  44.995  13.294  11.063
86359W        W53427  33.065   6.920   2.722
86360W        W53428  26.199  22.625  13.892
86361W        W53429  23.184  34.462  14.001
86362W        W53430   4.378   5.280  14.308
86363W        W53431  38.917   4.235   1.817
86364W        W53432  26.654  33.110   3.300
86365W        W53433  44.497  38.463   0.759
86366W        W53434  26.533  43.288  14.493
86367W        W53435   6.818  23.524  11.073
86368W        W53436  11.856  26.101   2.835
86369W        W53437  39.366  25.097  13.493
86370W        W53438   0.461  35.414   2.858
86371W        W53439  43.506  35.438  12.355
86372W        W53440  14.330  13.785   4.699
86373W        W53441   6.771  44.863   4.184
86374W        W53442  20.256  10.848   1.282
86375W        W53443   4.934  40.044  10.093
86376W        W53444  35.413  40.517  12.343
86377W        W53445  44.388  12.774   1.831
86378W        W53446  41.814  28.672  12.435
86379W        W53447  32.475  29.122  14.991
86380W        W53448  24.704  34.449   3.828
86381W        W53449  30.948   8.367   1.792
86382W        W53450  36.087  38.889   0.466
86383W        W53451  24.139   8.673   2.901
86384W        W53452  42.472  43.819   2.831
86385W        W53453   1.353  32.986  13.380
86386W        W53454  11.183  11.723  11.610
86387W        W53455  44.460  22.550   2.734
86388W        W53456  39.920   2.910   4.146
86389W        W53457  44.905   8.176   4.775
86390W        W53458  24.118  18.658  11.559
86391W        W53459  25.172  17.642   3.146
86392W        W53460  16.247  18.591   2.245
86393W        W53461  34.597   9.785   4.114
86394W        W53462  16.638  12.798   3.198
86395W        W53463  16.735   9.861  14.305
86396W        W53464  17.269  35.015  10.118
86397W        W53465   9.249  27.525  13.878
86398W        W53466  44.904  36.004   1.800
86399W        W53467  20.602  28.056   3.765
86400W        W53468  30.976  19.737  13.499
86401W        W53469  42.294   2.271  13.989
86402W        W53470  13.713  19.204  13.942
86403W        W53471  22.190  32.088   2.316
86404W        W53472  25.036  19.734  14.340
86405W        W53473   0.318  41.294  12.823
86406W        W53474  44.892  30.519   0.959
86407W        W53475  27.501  41.856   3.677
86408W        W53476   9.701  23.725  13.813
86409W        W53477   5.431  13.699   3.635
86410W        W53478  36.485   3.885  14.462
86411W        W53479  21.746  39.420  14.967
86412W        W53480  27.667   5.922  14.313
86413W        W53481  34.459  42.446   4.306
86414W        W53482  18.184  43.016   1.754
86415W        W53483   3.372   5.931   4.815
86416W        W53484   7.670   2.443   0.316
86417W        W53485   9.667  41.812  10.964
86418W        W53486  41.887  39.051   2.856
86419W        W53487  40.313  44.010   2.717
86420W        W53488  36.879  19.668  14.376
86421W        W53489  27.150   0.748  14.279
86422W        W53490  14.743   1.969  14.392
86423W        W53491   4.238  19.640   1.749
86424W        W53492  24.503  41.428  11.929
86425W        W53493  12.205   0.313  14.406
86426W        W53494   3.902  11.228   1.851
86427W        W53495  25.144  26.461  11.591
86428W        W53496  19.759   1.247   4.688
86429W        W53497  22.221  31.457   2.902
86430W        W53498  14.831  38.032  14.886
86431W        W53499   3.904  22.717  11.012
86432W        W53500  14.248   9.726   1.347
86433W        W53501  36.019   6.744  14.973
86434W        W53502  19.762  30.590  11.613
86435W        W53503   4.339  13.136   2.415
86436W        W53504  27.622  22.690  10.484
86437W        W53505  33.968  25.200   5.095
86438W        W53506  37.484  38.868   4.762
86439W        W53507  38.885   4.312   3.329
86440W        W53508  19.115  30.980  11.086
86441W        W53509   2.439  12.611   2.688
86442W        W53510  28.081   9.777   1.904
86443W        W53511  41.480  41.489   0.464
86444W        W53512   3.436  12.738   0.381
86445W        W53513  29.015  24.718  11.998
86446W        W53514  21.168  10.735   4.323
86447W        W53515   4.753  42.805  11.612
86448W        W53516  24.575  17.780  10.528
86449W        W53517  16.786  17.129   4.697
86450W        W53518  15.091  31.430   2.819
86451W        W53519  31.986   4.873  13.342
86452W        W53520  27.545  19.780   4.689
86453W        W53521   4.396  14.609   0.428
86454W        W53522  11.792   3.446  13.060
86455W        W53523  23.096   2.402   3.318
86456W        W53524   6.833   4.224   3.260
86457W        W53525  35.884  36.927   4.326
86458W        W53526  26.577  19.636   1.770
86459W        W53527   0.880  10.192   2.185
86460W        W53528  12.260  42.519  12.885
86461W        W53529   1.897  28.089  14.509
86462W        W53530  29.615  19.182  14.399
86463W        W53531  34.560  11.739   3.377
86464W        W53532  42.983  25.092  13.334
86465W        W53533   7.715  25.218  10.023
86466W        W53534  44.310   3.244  10.097
86467W        W53535  18.068  30.161  12.871
86468W        W53536  18.778  27.967  10.626
86469W        W53537   8.254  25.128  12.345
86470W        W53538  21.097  27.566   2.883
86471W        W53539  14.644  39.332   3.185
86472W        W53540  22.190  30.982   3.716
86473W        W53541  25.694  22.589  10.493
86474W        W53542  37.083  10.252  10.406
86475W        W53543  11.822   2.298  10.904
86476W        W53544   3.949  15.197   1.365
86477W        W53545  34.493  21.234   0.810
86478W        W53546  19.137  25.692  12.521
86479W        W53547   5.229  40.346   0.388
86480W        W53548  13.727  27.023  11.945
86481W        W53549   5.831  42.007  13.511
86482W        W53550  37.833  37.473   4.140
86483W        W53551  41.298  22.537  11.548
86484W        W53552   1.249  19.176  13.379
86485W        W53553  12.242  35.924   4.666
86486W        W53554  27.151  25.617  13.441
86487W        W53555  15.251   4.890   3.707
86488W        W53556  20.574  35.103   4.641
86489W        W53557  42.914  26.089  11.984
86490W        W53558  41.517  17.090   4.748
86491W        W53559  32.440  21.511  12.349
86492W        W53560  40.853  30.566  11.541
86493W        W53561  23.001  27.463   0.952
86494W        W53562   3.735  38.990   4.146
86495W        W53563   1.276  44.937   2.182
86496W        W53564   7.841  43.301  14.295
86497W        W53565  29.442   1.820   4.328
86498W        W53566  16.232  29.125   3.787
86499W        W53567   0.438  26.601   1.746
86500W        W53568   2.315  15.321   4.764
86501W        W53569  17.222  26.163   2.725
86502W        W53570  33.474  11.285   0.829
86503W        W53571   7.891  31.899   2.743
86504W        W53572  32.055  28.438  13.935
86505W        W53573   2.727  35.568  13.903
86506W        W53574  14.771   9.797   3.378
86507W        W53575  27.630  14.315  13.307
86508W        W53576  15.191   9.329   1.721
86509W        W53577   2.336  25.137  10.130
86510W        W53578   3.323  20.547   2.233
86511W        W53579  14.820  44.791   2.391
86512W        W53580  24.105  13.799   3.164
86513W        W53581   3.850  26.956  11.879
86514W        W53582  38.068  31.975  12.491
86515W        W53583  30.968   9.883   2.370
86516W        W53584  43.386  24.999  14.996
86517W        W53585  29.992  22.024   0.278
86518W        W53586  11.676   1.325  11.463
86519W        W53587  19.154   4.755  13.378
86520W        W53588   2.845  39.822  13.960
86521W        W53589  43.419  23.023  12.441
86522W        W53590  12.777   7.777  11.579
86523W        W53591   1.237  43.919   3.730
86524W        W53592  22.145  43.411  10.944
86525W        W53593  41.345  38.928   1.901
86526W        W53594  23.998  28.610   0.421
86527W        W53595   6.922  43.861  12.417
86528W        W53596  22.194  18.608  11.006
86529W        W53597  15.699  44.355  14.801
86530W        W53598  26.671   7.860   3.180
86531W        W53599   3.354  19.156  13.414
86532W        W53600  34.604  21.021  12.003
86533W        W53601  25.496  29.551   0.729
86534W        W53602  37.075  30.010  14.296
86535W        W53603  22.147  30.448  10.484
86536W        W53604  33.466  30.468  13.524
86537W        W53605  25.710   3.319   3.326
86538W        W53606  22.194   7.899  14.875
86539W        W53607  34.030  33.959  10.971
86540W        W53608   6.712  12.721   3.656
86541W        W53609  21.560  39.003   0.327
86542W        W53610  10.250  23.524  12.507
86543W        W53611  29.082  39.811   2.779
86544W        W53612  22.575  32.122   0.809
86545W        W53613   3.394   6.358  12.828
86546W        W53614  26.670  23.685   1.433
86547W        W53615  21.598   6.290  14.365
86548W        W53616   9.352   5.353   4.279
86549W        W53617   1.343   4.828   0.252
86550W        W53618  33.388  29.153  10.060
86551W        W53619  19.252  42.877   0.779
86552W        W53620  19.652   1.838   3.230
86553W        W53621  43.510  39.884   4.682
86554W        W53622  20.624  38.333   4.776
86555W        W53623   4.408  18.170   4.234
86556W        W53624  38.454  24.985  12.354
86557W        W53625  13.314   4.353  14.885
86558W        W53626  32.028  24.496  12.436
86559W        W53627   6.211   9.317   0.380
86560W        W53628  34.527  40.948   1.377
86561W        W53629  13.638  13.334  11.947
86562W        W53630  10.879  15.665  11.571
86563W        W53631  41.335  16.159   4.138
86564W        W53632   1.922  24.987  11.052
86565W        W53633  41.505  25.051   2.384
86566W        W53634  36.518  33.040   1.290
86567W        W53635  36.893  23.995   4.238
86568W        W53636   8.707  37.909  11.389
86569W        W53637  11.329  38.075  10.969
86570W        W53638  13.141  42.496   4.797
86571W        W53639  28.660   7.395   3.324
86572W        W53640  26.000  23.152  13.451
86573W        W53641  11.302   6.408   4.724
86574W        W53642   1.771  29.982  12.374
86575W        W53643  20.108   8.889   0.944
86576W        W53644  22.515  18.058  10.564
86577W        W53645   5.721  15.657  13.500
86578W        W53646  42.477  16.658  11.047
86579W        W53647   5.746   7.293   0.770
86580W        W53648  24.620  37.356  10.998
86581W        W53649  44.305  41.836  14.495
86582W        W53650   5.814  42.476   2.271
86583W        W53651  38.429  23.729   0.818
86584W        W53652  32.118  18.639  13.029
86585W        W53653   5.279  19.716   2.773
86586W        W53654   0.405   8.233  10.453
86587W        W53655  21.731  40.030   1.746
86588W        W53656  19.674  43.292   0.425
86589W        W53657  21.537  10.251   4.810
86590W        W53658  36.031  16.118  13.461
86591W        W53659  10.865  42.285  12.343
86592W        W53660  17.750   8.190   5.313
86593W        W53661  30.011   7.846  11.007
86594W        W53662  19.700  29.485  11.533
86595W        W53663  32.437  22.227  11.089
86596W        W53664  34.459  13.342  11.086
86597W        W53665   6.838  12.833  14.402
86598W        W53666  39.463   4.752   2.859
86599W        W53667  30.552   4.715   3.843
86600W        W53668  43.439  19.277  10.606
86601W        W53669  12.814  23.197   4.132
86602W        W53670  35.988   7.706   3.792
86603W        W53671   8.859  25.168   4.613
86604W        W53672  16.253  28.017   0.479
86605W        W53673  37.422  12.292   2.246
86606W        W53674  37.405  40.929   4.203
86607W        W53675  31.024   2.913   2.844
86608W        W53676  35.045   9.772   2.373
86609W        W53677  23.056   0.421  14.391
86610W        W53678   0.851  23.519   3.245
86611W        W53679   2.378  36.961   4.313
86612W        W53680  15.329   0.961   4.773
86613W        W53681  43.932  11.211   4.765
86614W        W53682  34.603  36.999  10.521
86615W        W53683  38.963   2.390   3.655
86616W        W53684  40.541  42.850   4.310
86617W        W53685  15.104  16.694  14.788
86618W        W53686  13.309  20.623  10.973
86619W        W53687   0.973   3.838  11.125
86620W        W53688  26.504   6.247  14.364
86621W        W53689  16.235  32.022  10.631
86622W        W53690   0.893  17.788   1.297
86623W        W53691  32.452  40.399   1.325
86624W        W53692  41.461  26.967  11.414
86625W        W53693  41.832  12.305  14.492
86626W        W53694  10.247  13.659   4.664
86627W        W53695  12.273  37.530  10.618
86628W        W53696  25.102  31.941   4.756
86629W        W53697  41.382  33.571  10.553
86630W        W53698  15.267   8.783   3.247
86631W        W53699  25.505  15.324   3.147
86632W        W53700   2.764  34.909   1.744
86633W        W53701  26.059   1.959  10.572
86634W        W53702  37.367  41.983   0.826
86635W        W53703  20.571  10.877   1.445
86636W        W53704  31.989  36.454   4.221
86637W        W53705  40.307  32.035   2.677
86638W        W53706  43.430  37.348   1.889
86639W        W53707  16.112  10.345   5.234
86640W        W53708   0.898  32.934   3.205
86641W        W53709  15.173  43.441  11.388
86642W        W53710   9.150   8.314  13.802
86643W        W53711  35.576  22.509   3.747
86644W        W53712  43.271   7.869   0.277
86645W        W53713  28.162  16.166   4.680
86646W        W53714  41.369  32.933   3.210
86647W        W53715  26.654  23.731  11.868
86648W        W53716  16.676  44.897   4.771
86649W        W53717  42.964  19.204  14.934
86650W        W53718  30.470   9.316   2.812
86651W        W53719  10.184  38.860   1.810
86652W        W53720  10.707  21.103  10.424
86653W        W53721  14.119  23.537   3.862
86654W        W53722   0.986   5.846  12.523
86655W        W53723  39.544  37.535  14.847
86656W        W53724  40.984  34.534   1.729
86657W        W53725  32.582   0.317  14.834
86658W        W53726  34.936  19.244   0.750
86659W        W53727  28.015   6.424  14.856
86660W        W53728  39.981  20.526   2.746
86661W        W53729  36.444   9.271   1.735
86662W        W53730  12.203  27.587   0.745
86663W        W53731  40.857  13.674   0.300
86664W        W53732  20.716  24.148  14.302
86665W        W53733  30.069  30.041  14.459
86666W        W53734   8.721  24.113  11.907
86667W        W53735  22.129  20.767   2.862
86668W        W53736   6.332   7.320  12.536
86669W        W53737  42.478   3.923  14.014
86670W        W53738  42.021   2.258  10.924
86671W        W53739  13.330  26.516   3.314
86672W        W53740  31.963  27.593   1.388
86673W        W53741  15.686  11.187  12.528
86674W        W53742  17.161  24.528   3.152
86675W        W53743  24.648   9.864   2.777
86676W        W53744  10.793  40.510  11.999
86677W        W53745  12.774  10.365   3.700
86678W        W53746  41.928  28.611   0.456
86679W        W53747  28.456  18.725   3.151
86680W        W53748  24.623  39.899  13.060
86681W        W53749  26.600   6.804   1.430
86682W        W53750   5.432  12.306  13.795
86683W        W53751  17.645  24.120  13.863
86684W        W53752  35.890  19.225   3.202
86685W        W53753   8.295   0.381   2.274
86686W        W53754  31.417  16.763  12.472
86687W        W53755  11.149  29.107   4.267
86688W        W53756  19.699   0.443  13.028
86689W        W53757  30.530  13.306  11.935
86690W        W53758  25.514  10.165  12.996
86691W        W53759  37.442  32.395  11.940
86692W        W53760   0.406  19.602  11.481
86693W        W53761  11.762  28.051  10.048
86694W        W53762  13.803  26.665  10.536
86695W        W53763  38.045   7.796  14.949
86696W        W53764  14.636   3.759   2.700
86697W        W53765  44.885  12.671  11.412
86698W        W53766  32.114  21.239  11.447
86699W        W53767   3.401  17.125   0.906
86700W        W53768   8.333  13.332  10.986
86701W        W53769   0.438   4.792  13.963
86702W        W53770  28.538  13.845   3.234
86703W        W53771  43.927  18.218  12.851
86704W        W53772  40.539  28.106   1.699
86705W        W53773  17.772  16.638   2.389
86706W        W53774  30.096  17.114  11.444
86707W        W53775  30.989  36.461   1.230
86708W        W53776  13.628   6.228  14.907
86709W        W53777  15.676  10.834  12.946
86710W        W53778   6.426  44.452   1.227
86711W        W53779  42.789   2.295  13.985
86712W        W53780   6.703  32.036   0.858
86713W        W53781  25.061  24.693   4.333
86714W        W53782  23.204  16.125  10.911
86715W        W53783  33.402  28.939   4.701
86716W        W53784  36.001  13.613   1.360
86717W        W53785  43.927  13.316   1.825
86718W        W53786   3.783  31.928  11.001
86719W        W53787   2.911  20.593  11.045
86720W        W53788  37.549  38.376   0.451
86721W        W53789  36.069   7.900  11.869
86722W        W53790  41.406  11.795   0.963
86723W        W53791   9.696   5.212   3.175
86724W        W53792  30.457  21.598  11.989
86725W        W53793  35.105   3.440  14.840
86726W        W53794  35.603   7.823  13.965
86727W        W53795   5.795   7.348   2.342
86728W        W53796  12.321  43.490  13.492
86729W        W53797  10.876  34.485   4.286
86730W        W53798   4.822  32.094  13.408
86731W        W53799  16.635  11.707  10.631
86732W        W53800   1.416  15.224   0.937
86733W        W53801  44.979  12.357   3.177
86734W        W53802  19.717  24.703   3.763
86735W        W53803   6.851   8.183  10.617
86736W        W53804  35.993   9.765  11.924
86737W        W53805  32.988  15.154  14.313
86738W        W53806  28.452   7.670   2.698
86739W        W53807  32.471   4.282  11.446
86740W        W53808   7.396  41.328   1.302
86741W        W53809   2.829   9.247  12.538
86742W        W53810   6.405  27.502   2.890
86743W        W53811  31.605  10.727  12.576
86744W        W53812   2.265  43.969   1.440
86745W        W53813  39.810   3.426  10.428
86746W        W53814  14.763  44.339   4.265
86747W        W53815  12.777   3.726  11.996
86748W        W53816  39.968  28.025   0.364
86749W        W53817  42.367   9.248  11.537
86750W        W53818  41.895   0.353   3.778
86751W        W53819  28.097  27.590   0.916
86752W        W53820  32.042  26.133   4.225
86753W        W53821  41.494   1.770  12.557
86754W        W53822  14.824  14.174   0.242
86755W        W53823  27.550  38.365   2.802
86756W        W53824  32.441  44.300  12.090
86757W        W53825   8.290  20.139   4.346
86758W        W53826  33.952  26.560   0.459
86759W        W53827  17.634  14.246  12.909
86760W        W53828   3.405  32.433   0.857
86761W        W53829  12.744  10.368   1.372
86762W        W53830   8.236  42.790   1.864
86763W        W53831  44.832  10.863   3.735
86764W        W53832  24.618  32.903  12.011
86765W        W53833  18.290  43.355  14.765
86766W        W53834  20.598  12.649   3.643
86767W        W53835  43.432   4.205   3.677
86768W        W53836   3.814   2.761   3.384
86769W        W53837   3.273  19.761   3.806
86770W        W53838  31.966  13.611  13.921
86771W        W53839  15.330  33.386   2.856
86772W        W53840  37.436  27.678   0.768
86773W        W53841   3.461  22.206   0.245
86774W        W53842  39.537  39.431   0.803
86775W        W53843   0.264  21.071   4.650
86776W        W53844  28.629  18.274   4.663
86777W        W53845  39.425  20.125  12.959
86778W        W53846   7.800  40.807   2.808
86779W        W53847  21.082   4.700  11.011
86780W        W53848  30.132  11.282  13.983
86781W        W53849  38.352  11.634  11.039
86782W        W53850  32.985  36.403   3.222
86783W        W53851  31.915   2.407   2.366
86784W        W53852  30.059   6.876   3.362
86785W        W53853  21.146  31.472  12.026
86786W        W53854  12.658  40.877  12.449
86787W        W53855  19.185  39.493   2.755
86788W        W53856  14.297  41.440   0.823
86789W        W53857  24.535  33.622   4.265
86790W        W53858  19.646  35.952   0.963
86791W        W53859   9.850  33.125  13.456
86792W        W53860  26.006   4.924  13.918
86793W        W53861  19.600  39.027  14.918
86794W        W53862  31.541  17.638   3.251
86795W        W53863  36.586   0.864   3.256
86796W        W53864  44.944  13.800   3.731
86797W        W53865  31.107  31.944  13.963
86798W        W53866  39.054   8.787   3.837
86799W        W53867  40.804  43.832   3.638
86800W        W53868   4.868  20.083   4.317
86801W        W53869  22.101  32.059   4.631
86802W        W53870  19.703  16.609  13.333
86803W        W53871  27.154  34.890   1.335
86804W        W53872  17.213   3.777   2.287
86805W        W53873  15.819  17.629  14.944
86806W        W53874  20.737  29.476   3.810
86807W        W53875  11.820  16.275   1.353
86808W        W53876  27.545  38.879   4.611
86809W        W53877  22.585  29.642   4.732
86810W        W53878  38.500   4.729   3.332
86811W        W53879  31.120  22.180  10.629
86812W        W53880  14.712  22.066   0.370
86813W        W53881  14.221  37.847  13.333
86814W        W53882  21.050   4.208  14.504
86815W        W53883  24.179  29.148  13.029
86816W        W53884  25.513  25.141   1.705
86817W        W53885   6.785  32.885  13.429
86818W        W53886   5.338  19.260  11.585
86819W        W53887  33.474  40.993   1.432
86820W        W53888  34.423  35.571   4.277
86821W        W53889   3.951   0.987   2.225
86822W        W53890  44.279  22.690   0.960
86823W        W53891  39.922  25.594  13.872
86824W        W53892  16.235  26.652  13.523
86825W        W53893   0.973  39.888   3.794
86826W        W53894  40.414  39.385  11.012
86827W        W53895  31.587  20.226  14.008
86828W        W53896  32.969  11.151   3.851
86829W        W53897  37.896  32.065   4.803
86830W        W53898  15.625  27.681  12.904
86831W        W53899   6.313  40.356  12.540
86832W        W53900   3.342  43.821   1.376
86833W        W53901  23.076  28.617   3.291
86834W        W53902  34.892  14.317   1.406
86835W        W53903  44.411  12.299   0.913
86836W        W53904  35.858  37.386   3.780
86837W        W53905  26.529  21.229   4.831
86838W        W53906  23.617  25.027  10.598
86839W        W53907  42.871  34.095  11.387
86840W        W53908  27.133  40.933  13.523
86841W        W53909  44.809  31.627   2.183
86842W        W53910  24.720  43.480   1.213
86843W        W53911   5.219  32.572   1.776
86844W        W53912  22.663   2.470   0.284
86845W        W53913  27.041   3.304   0.358
86846W        W53914  34.460  19.575  13.515
86847W        W53915  11.657   6.185   4.312
86848W        W53916  41.977  27.001  10.993
86849W        W53917  21.024  41.864   0.920
86850W        W53918  18.087  38.521   2.253
86851W        W53919  12.298  38.997  10.501
86852W        W53920  17.174  14.139  11.523
86853W        W53921  32.977  17.081   1.816
86854W        W53922  38.961   6.289  10.014
86855W        W53923  14.790  19.599   5.242
86856W        W53924  10.664  43.430   0.899
86857W        W53925  18.238  35.382   2.183
86858W        W53926  35.075  36.942   0.446
86859W        W53927  37.399  28.114   0.299
86860W        W53928  37.014  21.058   1.446
86861W        W53929  32.999   2.368   1.935
86862W        W53930  38.960  42.362   1.860
86863W        W53931   4.443  16.711  10.002
86864W        W53932  21.167  32.499  13.464
86865W        W53933  17.196   2.757   4.260
86866W        W53934   8.394   3.281   5.317
86867W        W53935   8.822   2.298  13.853
86868W        W53936   5.378  38.825   0.872
86869W        W53937  28.660  17.153   0.287
86870W        W53938   3.261   5.396  13.435
86871W        W53939  32.467  39.942  10.428
86872W        W53940  15.723   4.235  11.429
86873W        W53941  24.554  29.506   3.347
86874W        W53942  43.506  11.683   4.622
86875W        W53943  38.540  11.297   1.933
86876W        W53944  10.336  42.479   0.323
86877W        W53945  34.940  31.040  14.345
86878W        W53946   7.358   2.301   0.263
86879W        W53947  43.965   9.819   4.756
86880W        W53948  42.978  38.031  14.470
86881W        W53949  35.391  27.063  13.889
86882W        W53950  18.767  15.276  12.013
86883W        W53951  35.426  26.489  13.330
86884W        W53952   0.889  44.779   0.405
86885W        W53953  15.608  11.801   3.358
86886W        W53954  25.016  36.506   4.173
86887W        W53955  31.492  29.644   0.320
86888W        W53956   8.373  22.650   0.405
86889W        W53957   5.365  26.573  11.090
86890W        W53958  34.073  32.084  11.930
86891W        W53959   5.252  44.868   2.333
86892W        W53960  36.892  41.867   1.697
86893W        W53961   2.433  11.202  12.875
86894W        W53962  25.169  39.540   0.919
86895W        W53963  44.408   7.204  14.392
86896W        W53964  39.923  27.175  11.557
86897W        W53965  10.252  36.032  14.880
86898W        W53966  28.498   5.812   0.434
86899W        W53967   5.317  27.592   4.709
86900W        W53968  29.593  41.961  11.403
86901W        W53969  26.511  33.472  10.549
86902W        W53970   0.374  19.120  13.982
86903W        W53971   4.265  17.209   3.359
86904W        W53972  39.524  36.906  13.936
86905W        W53973  39.454   7.259   3.248
86906W        W53974   8.225  31.086  11.009
86907W        W53975  41.870  43.511   4.598
86908W        W53976   6.270   2.738   2.207
86909W        W53977  25.712  33.398   0.454
86910W        W53978  27.689   7.867   4.162
86911W        W53979  43.400  26.067  12.407
86912W        W53980  42.819   4.409   2.803
86913W        W53981   1.780  16.760  12.441
86914W        W53982  43.972  23.558   1.350
86915W        W53983   4.339  32.451   1.257
86916W        W53984  10.770   4.411   3.191
86917W        W53985  18.586  21.745  14.366
86918W        W53986  29.017  15.234  10.028
86919W        W53987  19.240  32.016  11.483
86920W        W53988  31.520   9.704  11.572
86921W        W53989  36.085  43.885   4.772
86922W        W53990  24.479  38.847   4.116
86923W        W53991  36.353  37.838   1.416
86924W        W53992  34.866  24.088  10.604
86925W        W53993  28.483  24.539   1.704
86926W        W53994  15.812  37.830  11.999
86927W        W53995  15.301  41.297  12.365
86928W        W53996  43.913  38.017  14.425
86929W        W53997  28.978  25.489   2.897
86930W        W53998   3.263  22.172  14.970
86931W        W53999  29.941  31.923  12.535
86932W        W54000  36.047  38.471  13.548
86933W        W54001  24.995  21.561  10.891
86934W        W54002   0.767  35.519  11.927
86935W        W54003  34.071  22.646  13.446
86936W        W54004  41.487  28.074   4.189
86937W        W54005  20.224  13.765   4.611
86938W        W54006  10.864  15.201   3.182
86939W        W54007  35.422  20.530  13.436
86940W        W54008  34.962  28.935   3.788
86941W        W54009  25.665  34.549  13.793
86942W        W54010  20.166  24.520   1.774
86943W        W54011  16.083   4.408  11.508
86944W        W54012  30.557  14.180   3.384
86945W        W54013  29.597   9.761  14.986
86946W        W54014  21.583  24.046  13.825
86947W        W54015  27.048   6.341  12.494
86948W        W54016  23.035   8.165  14.766
86949W        W54017  23.091  41.910  10.932
86950W        W54018  36.529  20.221  12.057
86951W        W54019  39.419  28.474   2.801
86952W        W54020  16.689  22.502  12.437
86953W        W54021   7.681   9.195  14.304
86954W        W54022  22.676  19.736   0.311
86955W        W54023  31.072   0.884   4.658
86956W        W54024  26.583  40.519   0.432
86957W        W54025  23.039  26.013   3.765
86958W        W54026  15.749  38.400   1.334
86959W        W54027   4.319  26.986   2.682
86960W        W54028  40.430  43.890  13.394
86961W        W54029  24.493  30.011   3.181
86962W        W54030  43.855  20.647  11.575
86963W        W54031  17.077  33.936   1.394
86964W        W54032  18.649  24.224  12.543
86965W        W54033  38.898  13.739  12.868
86966W        W54034  27.090  10.711   0.393
86967W        W54035  43.359   7.309   0.835
86968W        W54036  28.106  11.843  11.082
86969W        W54037  10.688  13.162   0.349
86970W        W54038   8.402  29.028   2.755
86971W        W54039  21.060   0.328  13.994
86972W        W54040  43.879  40.466   1.252
86973W        W54041  28.106  39.511   2.236
86974W        W54042  25.143  14.596  14.497
86975W        W54043  16.769  30.930  14.467
86976W        W54044  18.064  12.319   1.894
86977W        W54045  36.415  13.760   2.200
86978W        W54046  29.024  27.049  11.562
86979W        W54047  18.249   4.208  10.895
86980W        W54048  25.686   5.429   1.406
86981W        W54049  21.567   4.843   3.203
86982W        W54050  16.262  42.892  12.509
86983W        W54051  41.358  43.471  13.038
86984W        W54052   0.919  24.158   3.215
86985W        W54053  12.797  28.579  13.912
86986W        W54054  10.693  12.139  10.614
86987W        W54055  21.183   8.792   5.207
86988W        W54056  13.257  38.052   0.324
86989W        W54057  14.645   2.386  14.447
86990W        W54058  13.345  40.538   0.921
86991W        W54059   7.892  25.574  12.035
86992W        W54060  19.654   6.872  11.961
86993W        W54061  27.077  22.716  10.115
86994W        W54062  43.864  24.142  12.344
86995W        W54063  29.141   5.832  12.062
86996W        W54064  11.808   3.807   4.163
86997W        W54065  25.592   5.787   4.183
86998W        W54066  15.671  34.408  13.010
86999W        W54067  36.871   7.748  13.341
87000W        W54068   4.929  22.201  14.839
87001W        W54069  37.047  43.478  12.359
87002W        W54070  30.422  11.711   1.391
87003W        W54071  37.010  26.518   3.350
87004W        W54072  32.541   6.230  12.579
87005W        W54073   6.401  38.912  13.998
87006W        W54074  13.227  24.020   2.712
87007W        W54075  32.094  27.014   0.445
87008W        W54076  24.987  18.707   1.928
87009W        W54077  31.946  26.195   1.303
87010W        W54078  37.002  31.568  12.339
87011W        W54079  35.424  30.079  11.374
87012W        W54080  30.919  21.194  11.451
87013W        W54081  22.639   4.935   1.776
87014W        W54082  42.493  34.114   3.320
87015W        W54083  37.037   0.852   0.347
87016W        W54084  34.571  17.649  11.602
87017W        W54085  22.144  34.991   2.301
87018W        W54086  15.580  16.593  12.542
87019W        W54087  41.851  13.757   1.895
87020W        W54088   2.856  25.514  11.437
87021W        W54089  21.608   4.889  14.351
87022W        W54090  28.680  22.589  11.995
87023W        W54091  28.087  33.573   3.792
87024W        W54092   3.305  15.783  11.000
87025W        W54093  19.663   5.288  13.004
87026W        W54094  38.024   4.219  11.113
87027W        W54095  16.756  36.901   1.724
87028W        W54096   9.853  10.703   3.293
87029W        W54097  12.699   7.292  13.347
87030W        W54098  10.741   4.417  13.013
87031W        W54099  38.334   1.789   1.258
87032W        W54100   1.409   8.245   1.320
87033W        W54101  34.895   8.389  10.527
87034W        W54102  41.868  22.091  14.899
87035W        W54103  22.117  24.037   1.247
87036W        W54104  39.372  37.463   3.295
87037W        W54105  10.689  31.094   0.306
87038W        W54106  35.978  41.509   1.748
87039W        W54107  15.591   4.423  13.904
87040W        W54108  24.564  30.919  14.762
87041W        W54109  39.433  33.900   4.164
87042W        W54110  43.938  37.539   3.298
87043W        W54111  23.054  31.914   0.875
87044W        W54112   6.695  27.490   1.391
87045W        W54113  11.329  42.007   3.205
87046W        W54114  20.154  17.165  11.116
87047W        W54115  30.034  28.678   0.818
87048W        W54116  40.335   4.809   1.346
87049W        W54117  29.621  42.391   1.273
87050W        W54118  26.102  16.160   0.245
87051W        W54119  19.050  24.228   4.666
87052W        W54120  44.452   8.734  11.383
87053W        W54121  34.976   2.802  13.439
87054W        W54122  27.655   5.357   0.288
87055W        W54123  32.505  33.935  14.835
87056W        W54124   4.831   7.777   4.675
87057W        W54125  26.072  36.356   1.759
87058W        W54126   6.269   9.251   4.720
87059W        W54127   3.394  26.666  12.511
87060W        W54128   7.889  40.033  10.927
87061W        W54129  36.900  10.276   1.900
87062W        W54130  41.883   0.288  10.913
87063W        W54131  22.141  37.368   1.285
87064W        W54132   6.208  24.180   4.160
87065W        W54133  26.596   1.977   1.213
87066W        W54134  35.025  34.980   0.850
87067W        W54135   1.947  14.790   0.280
87068W        W54136   4.296  31.480  14.414
87069W        W54137  20.182  32.058  11.463
87070W        W54138  34.040  18.052   0.908
87071W        W54139   4.714   4.376  12.946
87072W        W54140  42.783  22.540  12.034
87073W        W54141  35.548  27.674   4.244
87074W        W54142   8.197  25.531   4.175
87075W        W54143  22.016  15.656  10.958
87076W        W54144  17.296   1.906  13.364
87077W        W54145   9.686  23.130  12.952
87078W        W54146  29.604  33.439   0.452
87079W        W54147  29.520  43.013   1.823
87080W        W54148  34.972  22.717   1.445
87081W        W54149   1.274   5.387  10.524
87082W        W54150  24.168  30.034  12.860
87083W        W54151  37.367   5.807  12.946
87084W        W54152   4.294   8.756   2.184
87085W        W54153  30.565  23.504  11.128
87086W        W54154  19.092  39.402   0.280
87087W        W54155   3.333  27.463   0.440
87088W        W54156  28.674  37.024   1.390
87089W        W54157   6.848  22.547   0.731
87090W        W54158   5.827   5.759  14.854
87091W        W54159   6.743  43.832  11.477
87092W        W54160  30.492   2.813  13.893
87093W        W54161   2.287  35.377  10.416
87094W        W54162  35.521  30.456   4.655
87095W        W54163  34.915  18.674   3.286
87096W        W54164  24.599  44.405  14.994
87097W        W54165  15.644   5.361  11.408
87098W        W54166   0.795  35.096  11.513
87099W        W54167  32.478  33.415   0.815
87100W        W54168  44.858   2.444  12.006
87101W        W54169  17.178  34.007  11.051
87102W        W54170  28.658  32.445  11.044
87103W        W54171  35.546   5.806  14.487
87104W        W54172  33.456  40.498   0.837
87105W        W54173  33.052  43.371   0.361
87106W        W54174  13.169  29.000  14.487
87107W        W54175  19.271  39.050   1.319
87108W        W54176   4.248  40.331   0.754
87109W        W54177  12.724   8.232   3.241
87110W        W54178  43.782   3.267   2.873
87111W        W54179  32.905  13.632   3.174
87112W        W54180  11.792  38.480   4.724
87113W        W54181  19.546   7.837  12.881
87114W        W54182  12.237  28.507  14.766
87115W        W54183  28.983  11.368  13.473
87116W        W54184   5.407  13.310   3.325
87117W        W54185  20.587   1.961   4.626
87118W        W54186   3.341   2.444   1.752
87119W        W54187   3.304  36.403  12.378
87120W        W54188  26.076  40.937   2.263
87121W        W54189  42.779  36.060  10.581
87122W        W54190  36.445  12.794  13.541
87123W        W54191  40.967  18.754   2.342
87124W        W54192   7.848  36.581  11.876
87125W        W54193  24.203   4.347  11.070
87126W        W54194  25.993  14.632  11.956
87127W        W54195   3.285   4.235   0.399
87128W        W54196  28.671   1.417  12.896
87129W        W54197  12.272  40.365   4.155
87130W        W54198   4.875  19.596   0.303
87131W        W54199  20.138   5.839   0.948
87132W        W54200   3.756  40.957  14.509
87133W        W54201   6.371  37.034  10.896
87134W        W54202  14.269   9.824  10.502
87135W        W54203  32.483  43.003   0.337
87136W        W54204  23.006  19.268   2.895
87137W        W54205  19.095   0.914   2.252
87138W        W54206  10.642  17.657  11.516
87139W        W54207  10.632  42.494   1.747
87140W        W54208   7.335  44.440  14.836
87141W        W54209   7.718   9.239   0.460
87142W        W54210  11.709  15.203   2.293
87143W        W54211   7.226  37.365   4.302
87144W        W54212   0.826  24.563  14.309
87145W        W54213  32.078  22.061   0.796
87146W        W54214   7.821   1.439   0.808
87147W        W54215   0.800  26.049   4.768
87148W        W54216  34.542  12.783   2.883
87149W        W54217  43.999  25.503   3.159
87150W        W54218  35.602   1.976  14.488
87151W        W54219   8.254  36.965   2.811
87152W        W54220  31.470  36.566  11.580
87153W        W54221  18.729   3.340   2.768
87154W        W54222  19.599  12.717  12.061
87155W        W54223  36.481   7.219   0.298
87156W        W54224  39.337  22.110  13.468
87157W        W54225   2.466  44.280  10.998
87158W        W54226  38.069   5.320  11.414
87159W        W54227   1.947  15.131  13.414
87160W        W54228  18.577  24.155   3.735
87161W        W54229  19.742  13.649  10.561
87162W        W54230  38.941  15.199  11.410
87163W        W54231   0.442  34.938  14.362
87164W        W54232  33.533   6.418   2.262
87165W        W54233  12.738  10.720  11.384
87166W        W54234  39.963   0.263   2.736
87167W        W54235  44.273  18.629  10.962
87168W        W54236  13.842  15.205   4.727
87169W        W54237  23.191  11.805   0.942
87170W        W54238  38.521  34.483  12.461
87171W        W54239  29.615   3.218  12.501
87172W        W54240  22.006  23.599  14.823
87173W        W54241  36.941  43.896  12.063
87174W        W54242  43.913  41.803  12.986
87175W        W54243  39.982  11.848  14.022
87176W        W54244   2.397  20.694   4.239
87177W        W54245  15.278  13.655  12.977
87178W        W54246  21.106  21.223   0.875
87179W        W54247  17.091  16.072   3.837
87180W        W54248  29.568  42.897   3.211
87181W        W54249   0.378  27.674  10.978
87182W        W54250  22.047  28.989  14.400
87183W        W54251  11.340  25.501  11.875
87184W        W54252  43.365  29.067  14.472
87185W        W54253  24.571  29.424   0.804
87186W        W54254  13.174  25.523   0.824
87187W        W54255  33.601  38.507   2.386
87188W        W54256  13.299  39.346  11.610
87189W        W54257  37.416  33.876   1.245
87190W        W54258   6.700  29.012   3.748
87191W        W54259   4.769  18.634  12.418
87192W        W54260   3.385  19.731   4.731
87193W        W54261  23.052  20.693  10.476
87194W        W54262   4.285  22.554  11.011
87195W        W54263  26.980  28.628   3.733
87196W        W54264  42.386   8.859  12.470
87197W        W54265   3.444  29.032  11.552
87198W        W54266  30.025  12.137   5.254
87199W        W54267  16.705  12.252  14.906
87200W        W54268  30.961  12.209   0.744
87201W        W54269  39.559  21.661   3.701
87202W        W54270  44.988   0.403   3.652
87203W        W54271  13.172   0.904  11.391
87204W        W54272  37.377  44.813  13.847
87205W        W54273   1.253  11.254   0.248
87206W        W54274  30.149  36.065   2.270
87207W        W54275  14.292   0.424   3.660
87208W        W54276  18.092  38.904   4.721
87209W        W54277   4.292  19.708  13.950
87210W        W54278  38.340  33.064   0.265
87211W        W54279   7.782  34.104   2.735
87212W        W54280  37.956  25.584  10.516
87213W        W54281  24.494  42.860   0.432
87214W        W54282  39.047  33.392   2.345
87215W        W54283  17.088  35.042   0.373
87216W        W54284   2.303  39.965  11.010
87217W        W54285  36.044  12.798   0.383
87218W        W54286  23.539  26.180   0.951
87219W        W54287   4.748   7.238  14.503
87220W        W54288  22.178  16.779  11.555
87221W        W54289  30.524  30.146  14.881
87222W        W54290  28.037   1.805   3.266
87223W        W54291  13.186  29.541   3.865
87224W        W54292  14.646  44.359  12.937
87225W        W54293  13.844  18.680   4.250
87226W        W54294  40.026  12.311   0.385
87227W        W54295   0.276  28.615   0.874
87228W        W54296  38.952   3.887  12.029
87229W        W54297  12.759  44.501   3.831
87230W        W54298  24.507  16.255   4.678
87231W        W54299   8.285  10.838   4.266
87232W        W54300  24.135  34.929   4.234
87233W        W54301  15.794  20.128   0.473
87234W        W54302   9.274  38.925  11.112
87235W        W54303  44.274  18.719  13.361
87236W        W54304  26.030  31.077   1.284
87237W        W54305  28.137  41.900  11.115
87238W        W54306  28.621  27.622  11.019
87239W        W54307  36.451  37.513  12.568
87240W        W54308  18.715  30.621   3.822
87241W        W54309   7.256  15.723  12.935
87242W        W54310   2.374  24.689  11.405
87243W        W54311   6.850   4.308  14.313
87244W        W54312   8.284  42.417  11.579
87245W        W54313  23.205  41.810  14.314
87246W        W54314  29.453   7.388  13.052
87247W        W54315  24.719  36.406  14.939
87248W        W54316  33.430   2.935   1.257
87249W        W54317  15.221  38.883   0.278
87250W        W54318  36.098   3.301   2.838
87251W        W54319  20.719  31.592  11.386
87252W        W54320  42.870   2.409  12.853
87253W        W54321  17.099   5.906  10.502
87254W        W54322  44.284  19.742  13.851
87255W        W54323  42.984  33.589   0.454
87256W        W54324  22.138  13.833  13.054
87257W        W54325   4.849  18.703  14.022
87258W        W54326   7.363  42.899  14.790
87259W        W54327  11.300   6.918  13.386
87260W        W54328  37.918   0.934  11.065
87261W        W54329  32.908  42.428   2.822
87262W        W54330  10.829  24.540   1.711
87263W        W54331  10.324  11.167  11.907
87264W        W54332   3.834  17.608  11.893
87265W        W54333  32.005  16.659   1.224
87266W        W54334   9.775  12.745   4.274
87267W        W54335  14.719  28.021   1.306
87268W        W54336  44.423   5.785  11.886
87269W        W54337  44.324  18.123   2.378
87270W        W54338   4.836  10.213  12.934
87271W        W54339  21.667  20.705  14.854
87272W        W54340  11.185  20.079  13.984
87273W        W54341  38.518  19.655  13.944
87274W        W54342  31.418   9.663  11.087
87275W        W54343  41.871  41.021  13.830
87276W        W54344  27.638   5.759   3.202
87277W        W54345   9.203  12.179  14.989
87278W        W54346  43.810  43.922   1.237
87279W        W54347  15.316  28.583  11.507
87280W        W54348  31.448   3.454  14.303
87281W        W54349  19.649   5.413   3.320
87282W        W54350  11.730  32.021  10.413
87283W        W54351  32.966  35.448  12.016
87284W        W54352   9.663  12.286  12.990
87285W        W54353  13.283  40.358  10.027
87286W        W54354  44.978   6.889   4.296
87287W        W54355   1.244   2.734   2.699
87288W        W54356  21.539   2.865   3.791
87289W        W54357   8.827  16.688  13.493
87290W        W54358   3.227  14.716   0.769
87291W        W54359   4.229  29.661  11.482
87292W        W54360  18.107  42.811   1.448
87293W        W54361   9.730  21.227   4.647
87294W        W54362  11.266  43.768  13.016
87295W        W54363  41.361  13.821  12.371
87296W        W54364  32.516  12.786   4.647
87297W        W54365  34.951  17.693  12.415
87298W        W54366  20.273  17.788   0.902
87299W        W54367   8.253  31.985  13.418
87300W        W54368  15.302   5.330  10.626
87301W        W54369   3.345  39.882   1.343
87302W        W54370  10.701  40.047   3.668
87303W        W54371   7.824  19.671   5.207
87304W        W54372  16.202  42.421  14.293
87305W        W54373  37.390  14.674  13.503
87306W        W54374  18.632  44.436   4.703
87307W        W54375   8.892  14.299  13.873
87308W        W54376   2.259  33.940  11.473
87309W        W54377   5.747  32.902   4.138
87310W        W54378   5.391  15.300   3.640
87311W        W54379   3.946  41.039   0.861
87312W        W54380  20.754  10.767  11.909
87313W        W54381   4.932   8.672  13.332
87314W        W54382  11.127  18.160   2.342
87315W        W54383  33.432  16.567   3.743
87316W        W54384  20.162  28.069  12.943
87317W        W54385  32.061  14.311  12.025
87318W        W54386  21.068  43.770   3.825
87319W        W54387  18.768  31.503  11.939
87320W        W54388  39.037  29.645   1.770
87321W        W54389  13.778   6.849  11.115
87322W        W54390  31.592  40.855   1.793
87323W        W54391   6.747   2.319   1.278
87324W        W54392  22.202   0.397   4.813
87325W        W54393  38.999   9.258  14.983
87326W        W54394  42.463  22.679   1.714
87327W        W54395  43.896  27.654   1.808
87328W        W54396  41.018  32.948   0.727
87329W        W54397  29.537  23.492  14.411
87330W        W54398  32.128  23.184   3.814
87331W        W54399  15.761  34.920   5.222
87332W        W54400  26.958   4.380  11.496
87333W        W54401  36.956  20.631  12.408
87334W        W54402  35.878  14.199  14.453
87335W        W54403  33.478  33.522   0.332
87336W        W54404  27.177   4.395   2.739
87337W        W54405  10.802  31.010   2.775
87338W        W54406   6.290  20.684  10.487
87339W        W54407  25.691  19.112   0.730
87340W        W54408  18.097  10.278   0.356
87341W        W54409  36.087  27.972   1.297
87342W        W54410  40.320  25.155  10.122
87343W        W54411  39.514   0.356  12.901
87344W        W54412  14.312  41.886  13.487
87345W        W54413  27.155   6.704  13.517
87346W        W54414  10.237  14.299  12.090
87347W        W54415  25.146   6.231  13.508
87348W        W54416  42.463   0.983  11.522
87349W        W54417   1.824  37.945  13.963
87350W        W54418  32.052  33.582  12.837
87351W        W54419  15.768  38.508   3.780
87352W        W54420  10.361   2.459  13.522
87353W        W54421  42.930  15.134  11.986
87354W        W54422  21.119  42.460  14.368
87355W        W54423  30.100  38.041   4.619
87356W        W54424  42.947   6.187   4.146
87357W        W54425  40.486   3.221   3.792
87358W        W54426   6.200  33.905   1.935
87359W        W54427  13.301   6.410   2.818
87360W        W54428  42.920  33.082   2.309
87361W        W54429  18.143  26.996   5.298
87362W        W54430  34.485  12.269   4.275
87363W        W54431  20.725  40.812   0.259
87364W        W54432  42.807  17.679   2.879
87365W        W54433   8.864  37.400  13.373
87366W        W54434   0.952  12.756  13.522
87367W        W54435  25.126  38.421   0.801
87368W        W54436  21.724  41.801  10.606
87369W        W54437  38.847  37.360   2.245
87370W        W54438  16.294   6.307   4.649
87371W        W54439  36.541  13.671  11.897
87372W        W54440  28.042  15.771  12.396
87373W        W54441  17.736  38.933  10.472
87374W        W54442  15.322  44.844   2.217
87375W        W54443  38.944  25.467  11.863
87376W        W54444  33.389  42.005   3.287
87377W        W54445   1.312  19.263   2.766
87378W        W54446   3.269  39.856  12.835
87379W        W54447  23.995   2.389  12.872
87380W        W54448   5.932  29.446   4.759
87381W        W54449  21.592  25.060  11.072
87382W        W54450   9.301  10.377  14.971
87383W        W54451  27.111  40.315   1.351
87384W        W54452  31.498  31.433  14.284
87385W        W54453  17.238  32.889   3.198
87386W        W54454  34.926  32.017  12.443
87387W        W54455  32.488   5.769   3.328
87388W        W54456  29.065  20.195  13.442
87389W        W54457  12.622   9.716   3.864
87390W        W54458   3.300  22.570  11.484
87391W        W54459  26.670   0.407   4.281
87392W        W54460   4.933  36.035   9.934
87393W        W54461   9.721  26.148   2.324
87394W        W54462  10.146  12.128  14.462
87395W        W54463  40.797   4.391  12.028
87396W        W54464  44.868  12.649  10.595
87397W        W54465  31.589  11.344   1.790
87398W        W54466  26.493  23.220   1.313
87399W        W54467  16.683  23.500  10.957
87400W        W54468  17.576  34.004  11.052
87401W        W54469   9.764  42.004  13.366
87402W        W54470  20.751  26.203   1.307
87403W        W54471  27.627  23.057   1.404
87404W        W54472  41.871  38.502   0.404
87405W        W54473   3.223  44.384   3.202
87406W        W54474   4.835  22.663   5.105
87407W        W54475  35.077  15.777  10.914
87408W        W54476  42.470  36.456  14.328
87409W        W54477  31.429  26.961   3.190
87410W        W54478  22.649  30.040  10.529
87411W        W54479   2.410  34.059  12.492
87412W        W54480  32.065  20.109   5.319
87413W        W54481   7.670  30.509   3.732
87414W        W54482   4.818  13.609   0.347
87415W        W54483  31.941  41.875   2.217
87416W        W54484  10.227  34.002  14.009
87417W        W54485   8.746  18.731  11.379
87418W        W54486  28.138   9.210   3.791
87419W        W54487   2.861  11.195  13.494
87420W        W54488  12.849  11.774  11.101
87421W        W54489  40.504  40.408  14.374
87422W        W54490  29.585   8.275  10.463
87423W        W54491   9.689  10.823  14.940
87424W        W54492  40.958  31.126  11.057
87425W        W54493  38.875  44.964   4.153
87426W        W54494  17.252  23.704   3.295
87427W        W54495  27.527   0.966  13.862
87428W        W54496  19.779  15.132  12.483
87429W        W54497  11.635   1.929   0.443
87430W        W54498  38.987  43.281  11.565
87431W        W54499  40.521  43.880   3.809
87432W        W54500  23.118  11.660   3.738
87433W        W54501   8.672  43.307   3.311
87434W        W54502   3.732  10.646   4.184
87435W        W54503  15.223   9.665  14.496
87436W        W54504  30.471  14.182   1.222
87437W        W54505  14.304  26.664   3.643
87438W        W54506  40.408  28.962   0.765
87439W        W54507  21.573  12.667   3.197
87440W        W54508  22.124   3.328   0.827
87441W        W54509   8.348  28.662  12.907
87442W        W54510  33.400  39.920  14.812
87443W        W54511   8.194  32.941   1.875
87444W        W54512  16.622  15.139  10.482
87445W        W54513   8.312  13.783  14.951
87446W        W54514  10.215  23.092   1.765
87447W        W54515   8.224   0.482   4.316
87448W        W54516  30.130  32.067  10.520
87449W        W54517  10.324  36.934  10.630
87450W        W54518  30.433  24.568   3.245
87451W        W54519   2.922  38.961  12.347
87452W        W54520  39.814  42.402  12.875
87453W        W54521  37.842  36.534   4.144
87454W        W54522  28.964  23.127   1.387
87455W        W54523  39.491  33.403  14.417
87456W        W54524  17.305  10.195  12.928
87457W        W54525  33.536   8.690  12.885
87458W        W54526  12.627  42.476   1.236
87459W        W54527   8.280  13.703  11.959
87460W        W54528  44.377  27.671  12.391
87461W        W54529  11.340  15.740  12.453
87462W        W54530  18.684  37.456   2.279
87463W        W54531  14.144  37.397   1.285
87464W        W54532  39.859   0.466   0.244
87465W        W54533  28.127  10.232   2.708
87466W        W54534  23.693  12.206   0.946
87467W        W54535   3.952  18.568  13.825
87468W        W54536   8.723  20.598  14.396
87469W        W54537  43.015  33.923   4.121
87470W        W54538  42.382  16.662   2.347
87471W        W54539   1.409  18.096   2.315
87472W        W54540   3.836  43.323   1.311
87473W        W54541   0.264   7.705  12.076
87474W        W54542   4.228  41.376  11.978
87475W        W54543  24.716  34.974   3.300
87476W        W54544  41.796  18.139  12.961
87477W        W54545  26.017   3.349  14.350
87478W        W54546   3.903   4.308  14.422
87479W        W54547  29.545   2.269   1.225
87480W        W54548   5.795  15.587   1.227
87481W        W54549  33.908  12.823  10.539
87482W        W54550   8.246   6.243   1.876
87483W        W54551  11.140  41.400   2.882
87484W        W54552  21.137  43.446  10.979
87485W        W54553  31.584  11.316  14.462
87486W        W54554   0.808  43.411   0.360
87487W        W54555   8.196   3.440   2.888
87488W        W54556  28.941  33.476   0.802
87489W        W54557  32.025  21.636   0.278
87490W        W54558   8.738  30.057   2.324
87491W        W54559   7.365  13.182  11.042
87492W        W54560  24.977  23.057   3.312
87493W        W54561  14.770  41.400  14.358
87494W        W54562  27.180  36.052  11.381
87495W        W54563   0.366  27.987  11.550
87496W        W54564  13.702  35.926   0.401
87497W        W54565   5.197  20.561  14.825
87498W        W54566  38.415  26.578  13.953
87499W        W54567  42.832  31.927  14.456
87500W        W54568  28.679  26.570   3.812
87501W        W54569  14.700  12.179  14.468
87502W        W54570   1.934  40.028   4.682
87503W        W54571  26.177   0.333  13.877
87504W        W54572  20.522  36.052  11.531
87505W        W54573   2.734  23.212   4.143
87506W        W54574  19.042  38.997   2.301
87507W        W54575  21.130  15.105  14.302
87508W        W54576  42.832  10.233  14.955
87509W        W54577  19.106  39.980   4.219
87510W        W54578  32.975   1.873  12.507
87511W        W54579  26.685   4.307  14.436
87512W        W54580  18.216  40.353  14.485
87513W        W54581  13.816  12.791  12.849
87514W        W54582  42.504  16.075   2.323
87515W        W54583  36.041  38.070  14.470
87516W        W54584  28.125  23.068  12.895
87517W        W54585  20.249  22.515  13.419
87518W        W54586   1.277  35.435   2.240
87519W        W54587  34.560  10.366  12.502
87520W        W54588  24.634  15.786  14.834
87521W        W54589  14.318  31.899  11.033
87522W        W54590  34.093  26.171  12.895
87523W        W54591   2.349  21.242   4.308
87524W        W54592  18.590   7.871   0.736
87525W        W54593  36.381  11.321  10.471
87526W        W54594  14.213  19.725  13.852
87527W        W54595  14.795  35.062  10.895
87528W        W54596  39.823  37.337  12.047
87529W        W54597   5.382  23.238   2.251
87530W        W54598   8.315   3.876  10.524
87531W        W54599  12.666  34.480  14.453
87532W        W54600  14.821  42.816   0.820
87533W        W54601  26.614  37.918  10.945
87534W        W54602  21.567   4.219   2.195
87535W        W54603  39.009  33.460   4.814
87536W        W54604  28.067  43.484  13.016
87537W        W54605  30.042  42.897   4.264
87538W        W54606  41.483  18.104   2.903
87539W        W54607  24.568  22.596  11.544
87540W        W54608  26.959  11.265   1.760
87541W        W54609  39.967  20.768  10.571
87542W        W54610  34.513   8.230  11.538
87543W        W54611  24.723  19.165   3.828
87544W        W54612  24.974  40.343   4.838
87545W        W54613  33.930  23.552   4.172
87546W        W54614   2.347  22.076   2.686
87547W        W54615  37.850  42.893  13.033
87548W        W54616  22.177  34.866  13.945
87549W        W54617   8.735  37.515   3.696
87550W        W54618  35.102  33.101   3.758
87551W        W54619   0.456  26.150   3.193
87552W        W54620  10.317  13.236  11.910
87553W        W54621  11.202  16.696   0.853
87554W        W54622   8.868  41.409   4.762
87555W        W54623  15.735  32.412   0.957
87556W        W54624  36.511   6.769  13.483
87557W        W54625   3.273  40.449   3.859
87558W        W54626  41.000  29.136  13.834
87559W        W54627  14.832  38.481   4.135
87560W        W54628  11.253   3.242  13.928
87561W        W54629  16.303  26.992   2.673
87562W        W54630  26.994   9.710  12.027
87563W        W54631   4.272  41.365  13.900
87564W        W54632  13.785  29.526   3.733
87565W        W54633  18.595  32.943  10.574
87566W        W54634  11.328  39.960   0.944
87567W        W54635  39.876   8.302  10.583
87568W        W54636  27.663   9.218   0.852
87569W        W54637   6.877  25.132  12.832
87570W        W54638  33.574  16.584  11.892
87571W        W54639  36.421  38.429   3.328
87572W        W54640  21.623  14.718   4.792
87573W        W54641  23.148  10.307  11.514
87574W        W54642  15.725  44.463   4.219
87575W        W54643  16.589  43.408   2.798
87576W        W54644   7.760  18.596  12.392
87577W        W54645  42.980  25.617   3.204
87578W        W54646  30.051  36.499  12.905
87579W        W54647  28.617  13.298  12.574
87580W        W54648   4.331  24.166  11.410
87581W        W54649  35.523   3.784   3.365
87582W        W54650   2.405  29.066  13.004
87583W        W54651  36.439  30.916  14.429
87584W        W54652  15.606   6.372  12.465
87585W        W54653   2.356  16.661  10.405
87586W        W54654  35.460  31.600   2.248
87587W        W54655  22.740  31.937  10.109
87588W        W54656  36.352  44.804  11.092
87589W        W54657  12.742  37.461  11.888
87590W        W54658  23.692  19.629   4.260
87591W        W54659   8.803  41.430  13.040
87592W        W54660  19.684  25.662  12.572
87593W        W54661  28.626   2.873  11.074
87594W        W54662  12.834  21.189  14.370
87595W        W54663  22.114  36.497   1.278
87596W        W54664  25.709  37.542  14.795
87597W        W54665   2.738  20.240  12.838
87598W        W54666  11.355   5.328  12.458
87599W        W54667  42.289  40.025   0.784
87600W        W54668  26.626  21.558  12.345
87601W        W54669  12.729  14.753  11.959
87602W        W54670  43.429  39.544  14.943
87603W        W54671  30.083  12.639   1.806
87604W        W54672  36.885  31.117  10.571
87605W        W54673  10.698  28.035   1.694
87606W        W54674   0.315  17.579  12.888
87607W        W54675  22.672  16.183  14.505
87608W        W54676   6.799  11.708   4.124
87609W        W54677   4.845   5.810   0.404
87610W        W54678  12.691  37.931  14.866
87611W        W54679  41.021  18.545  13.470
87612W        W54680  24.541  26.997  10.483
87613W        W54681  40.510  32.455   4.828
87614W        W54682  42.341  42.957  10.079
87615W        W54683  32.127   9.665  13.529
87616W        W54684  18.278  15.746  11.047
87617W        W54685   5.242  12.822   0.771
87618W        W54686  41.866  18.576   4.629
87619W        W54687   0.425   4.311  11.947
87620W        W54688   6.908  41.983   0.335
87621W        W54689  17.289   7.818   2.665
87622W        W54690  28.449   5.302   3.299
87623W        W54691   9.678  31.013  11.927
87624W        W54692  10.314  42.882  14.487
87625W        W54693  36.096  25.076   0.416
87626W        W54694  32.500  14.280  14.448
87627W        W54695  13.718  10.223  13.396
87628W        W54696  36.374   6.761  11.085
87629W        W54697  12.117  13.621  12.034
87630W        W54698   2.865  44.946   4.296
87631W        W54699  35.435   9.662   1.841
87632W        W54700   1.268  19.536   1.316
87633W        W54701  29.036  25.474  11.551
87634W        W54702  29.162   7.858  10.998
87635W        W54703  44.956   1.477  11.935
87636W        W54704  34.419  19.615  14.446
87637W        W54705  20.764   5.725   3.650
87638W        W54706  14.807  43.458  14.330
87639W        W54707  19.151   0.437  13.520
87640W        W54708   9.744  31.106  11.400
87641W        W54709  41.984  34.033  13.513
87642W        W54710  22.209  44.961  14.915
87643W        W54711  41.334   5.712   3.310
87644W        W54712  37.004   1.422   3.686
87645W        W54713  22.017  21.577   0.274
87646W        W54714  35.544   3.817  14.285
87647W        W54715  40.530  13.632   4.114
87648W        W54716  17.753  40.521   4.294
87649W        W54717  38.028  24.648  13.799
87650W        W54718  14.651   6.382   0.343
87651W        W54719  32.543  42.807   4.641
87652W        W54720  16.149  25.974   2.878
87653W        W54721  36.520   4.299   4.251
87654W        W54722  33.968   5.277   0.761
87655W        W54723  32.125  37.465  12.996
87656W        W54724  24.583  29.100   2.824
87657W        W54725  28.540   8.195  12.981
87658W        W54726  10.812  26.985   3.810
87659W        W54727  26.687   9.694   0.878
87660W        W54728  16.199  26.498   3.200
87661W        W54729   5.897   5.799  11.989
87662W        W54730  14.591  42.448   1.874
87663W        W54731  15.603  11.147   2.247
87664W        W54732  30.135  43.496   0.352
87665W        W54733  36.931  29.459  12.481
87666W        W54734  12.620  28.505   3.841
87667W        W54735  28.968  16.810  12.970
87668W        W54736  19.701  13.831   1.434
87669W        W54737  23.542  28.657   3.237
87670W        W54738  40.512   1.452  11.012
87671W        W54739  37.881  28.547  13.418
87672W        W54740  36.415  31.111   4.284
87673W        W54741  12.311   8.852  14.874
87674W        W54742  41.453  39.880  13.343
87675W        W54743  19.106  20.123  11.485
87676W        W54744  42.799  44.495   4.734
87677W        W54745  22.085  23.082   0.279
87678W        W54746  24.135  36.389  13.884
87679W        W54747  37.559  29.995  13.993
87680W        W54748   9.855  43.924   3.364
87681W        W54749   8.707   5.736  10.537
87682W        W54750  15.601  22.225  11.067
87683W        W54751  32.978  39.550   3.298
87684W        W54752  14.604  16.741  10.427
87685W        W54753  17.605  12.824   3.659
87686W        W54754  16.654   8.190   0.282
87687W        W54755  19.186  30.554   3.711
87688W        W54756   6.325  13.277   2.708
87689W        W54757  20.065  14.750  10.417
87690W        W54758  31.434  24.222   1.712
87691W        W54759   1.237  17.274  13.902
87692W        W54760  13.291   2.951  14.393
87693W        W54761  40.535  23.028   1.338
87694W        W54762  36.434  20.737  12.498
87695W        W54763  24.192  28.155   4.825
87696W        W54764  34.103  21.071  13.000
87697W        W54765  39.981   3.459   5.309
87698W        W54766  10.200   7.404   3.149
87699W        W54767  10.206  20.264  14.362
87700W        W54768  42.322  17.757  11.887
87701W        W54769   1.959  17.110   0.373
87702W        W54770   3.922  44.308  13.514
87703W        W54771  37.961  30.490  13.989
87704W        W54772  16.668   8.655   4.187
87705W        W54773  30.015  40.473   0.463
87706W        W54774  13.308   9.291   3.280
87707W        W54775  30.528  33.961   2.719
87708W        W54776  27.540  23.512   0.766
87709W        W54777   8.365   0.308   3.250
87710W        W54778  33.398  19.571  14.391
87711W        W54779  15.736  12.188   0.788
87712W        W54780  43.467   9.763  12.522
87713W        W54781   4.769  40.831   1.934
87714W        W54782  12.666  15.197  12.831
87715W        W54783  31.991  42.793   3.747
87716W        W54784  12.817  29.092   0.367
87717W        W54785   8.722  22.665   0.959
87718W        W54786   6.901  41.914  12.429
87719W        W54787  20.618   1.812  13.831
87720W        W54788   9.712   2.387   1.787
87721W        W54789  19.709  30.977   3.765
87722W        W54790  33.010  15.118  10.500
87723W        W54791  23.574  10.750  11.005
87724W        W54792  17.087   1.921  11.121
87725W        W54793  23.164   9.835  11.999
87726W        W54794  26.979  38.062   2.828
87727W        W54795  15.093   5.718  12.843
87728W        W54796  22.676  27.460   0.282
87729W        W54797  30.977  21.735  12.563
87730W        W54798  44.473  28.644   3.223
87731W        W54799   8.360  41.944   0.260
87732W        W54800   1.378  11.858   2.229
87733W        W54801   1.913  19.632  11.111
87734W        W54802  26.654  33.066   0.893
87735W        W54803  25.182  12.307   1.264
87736W        W54804   6.263  43.814   4.684
87737W        W54805  34.060  13.249   0.477
87738W        W54806  28.593  13.170  12.841
87739W        W54807  24.077  12.654  14.782
87740W        W54808  44.360  18.590  12.935
87741W        W54809  33.462  43.791   0.376
87742W        W54810  20.271   6.266  10.055
87743W        W54811  18.709  18.226   4.724
87744W        W54812  11.147  23.716  14.424
87745W        W54813  17.692  28.484   0.338
87746W        W54814  44.347   1.957  10.127
87747W        W54815  31.597   2.421  11.473
87748W        W54816  32.993  41.872   0.324
87749W        W54817  36.845  21.261   4.143
87750W        W54818  15.627   4.938   4.330
87751W        W54819  32.914  27.494  10.588
87752W        W54820   8.382  16.810  12.504
87753W        W54821  22.640  12.148   1.371
87754W        W54822  18.704  15.763  12.076
87755W        W54823  21.536  43.822   0.826
87756W        W54824   9.192   0.283  11.500
87757W        W54825  35.965  16.123   1.815
87758W        W54826  13.766  29.438   4.642
87759W        W54827  30.433  34.929  14.899
87760W        W54828   9.272  22.555  14.885
87761W        W54829  20.262  34.966  10.010
87762W        W54830  43.817   5.809   4.287
87763W        W54831  10.281  23.518  10.908
87764W        W54832  37.378   7.859   1.703
87765W        W54833  40.806   1.846  14.760
87766W        W54834  25.134   7.293  12.049
87767W        W54835  31.916  28.516  14.323
87768W        W54836  17.240  29.657   4.218
87769W        W54837  24.121  37.519   3.718
87770W        W54838  38.350  40.049  11.900
87771W        W54839  21.032  18.088   0.856
87772W        W54840  38.985  29.159  14.910
87773W        W54841   0.270  34.040   1.372
87774W        W54842  21.646  17.300  13.332
87775W        W54843  16.770  18.697   2.304
87776W        W54844  40.848  31.644   0.434
87777W        W54845  12.702  24.520   1.398
87778W        W54846  34.929  10.202   3.361
87779W        W54847  25.693  21.619  13.489
87780W        W54848  37.853   3.919  12.481
87781W        W54849   9.169   1.889   4.191
87782W        W54850  27.024  11.330   3.369
87783W        W54851   7.769   4.404  13.993
87784W        W54852  28.576  29.965   2.838
87785W        W54853  44.441  30.925  14.377
87786W        W54854  32.506  36.561  13.792
87787W        W54855   4.395  21.039   1.865
87788W        W54856  31.012  12.651   2.760
87789W        W54857  14.139  32.583  11.584
87790W        W54858  32.597  38.465  11.470
87791W        W54859  12.280  29.521  13.035
87792W        W54860  36.444  18.572   4.286
87793W        W54861  28.561  35.580  10.582
87794W        W54862  29.955  11.330  14.952
87795W        W54863  35.022  38.384  14.843
87796W        W54864  31.052  14.333   2.339
87797W        W54865  41.453  33.494   0.894
87798W        W54866   8.671  44.372   3.759
87799W        W54867  43.356  19.573   2.775
87800W        W54868  22.711  19.557  14.788
87801W        W54869   3.712   8.888   0.912
87802W        W54870  32.107   1.963   1.263
87803W        W54871  42.843  41.416  12.444
87804W        W54872  20.626  27.663   2.371
87805W        W54873  16.267  38.894   0.280
87806W        W54874  42.383  17.562   0.841
87807W        W54875  42.931  41.496  11.104
87808W        W54876  26.092  36.018  11.876
87809W        W54877  27.480  38.418   3.763
87810W        W54878  15.665   9.862  13.812
87811W        W54879  34.380  31.630  13.403
87812W        W54880   8.893  34.381  14.374
87813W        W54881  23.560  17.759   3.770
87814W        W54882  36.069  39.018  12.058
87815W        W54883  34.901  16.178   2.263
87816W        W54884   9.665  14.597  13.035
87817W        W54885  42.399  16.074  14.004
87818W        W54886   6.739   3.341   2.693
87819W        W54887   3.764  17.715   2.829
87820W        W54888  32.938  33.606   3.690
87821W        W54889  40.343  22.731  12.400
87822W        W54890  37.838   5.740   2.262
87823W        W54891  35.534   9.232  12.050
87824W        W54892  33.538  25.062   4.168
87825W        W54893   7.177   1.396   1.420
87826W        W54894   3.248  15.659   4.314
87827W        W54895   8.718   3.218  12.083
87828W        W54896  43.498   3.771  11.483
87829W        W54897   2.966  16.777   4.652
87830W        W54898  14.281  26.042   4.658
87831W        W54899  13.703  40.834  12.003
87832W        W54900   7.822  15.785   2.273
87833W        W54901  43.277  31.017  12.065
87834W        W54902  35.961  28.948   2.707
87835W        W54903  19.238  19.550  10.114
87836W        W54904   2.769  28.181  12.887
87837W        W54905  13.773  42.442  13.908
87838W        W54906  28.987   5.273  11.070
87839W        W54907  24.154  21.541   4.645
87840W        W54908  20.100  41.866   1.275
87841W        W54909  44.779  33.105  10.467
87842W        W54910  31.107  29.662  12.871
87843W        W54911   7.690  13.246  13.802
87844W        W54912  34.522  10.679   0.322
87845W        W54913   7.667  44.486   2.902
87846W        W54914  36.454  22.085   2.321
87847W        W54915   7.860  15.674  14.005
87848W        W54916  10.154  11.762   4.148
87849W        W54917   4.873  36.910  14.990
87850W        W54918  26.463  40.929   2.844
87851W        W54919  18.230   5.315   1.266
87852W        W54920  20.757   7.240   3.694
87853W        W54921   8.669  41.846  13.459
87854W        W54922  40.834  11.641   2.806
87855W        W54923  40.323  12.830   0.865
87856W        W54924  44.801  18.591  12.904
87857W        W54925  33.062  22.164   3.377
87858W        W54926  43.822  15.697   4.690
87859W        W54927   1.405  35.067   4.614
87860W        W54928  15.322   2.859   4.735
87861W        W54929   1.242  29.502   0.918
87862W        W54930   2.738  34.931  13.890
87863W        W54931  33.050  22.720  13.547
87864W        W54932  24.974  33.878  12.451
87865W        W54933  37.451   4.334   4.272
87866W        W54934  36.036   5.759   4.774
87867W        W54935   3.809  42.999   5.163
87868W        W54936  25.486  10.817  13.312
87869W        W54937  36.394  41.386  12.985
87870W        W54938  19.059  25.105   4.793
87871W        W54939  10.722   1.924  14.989
87872W        W54940  17.089   2.820   2.722
87873W        W54941   7.178   5.778  13.532
87874W        W54942   3.884   2.392   1.331
87875W        W54943  14.313   5.875  14.958
87876W        W54944  30.497  22.152   0.856
87877W        W54945  25.569   2.946  10.548
87878W        W54946  15.597   7.323  13.364
87879W        W54947   9.239  32.104  10.121
87880W        W54948   6.401   0.814   0.782
87881W        W54949  24.092  12.342   4.179
87882W        W54950  30.969   6.328   2.898
87883W        W54951  40.805  10.706   1.307
87884W        W54952  36.496  40.474   0.801
87885W        W54953  26.006  41.941  10.557
87886W        W54954  19.547  12.225   4.734
87887W        W54955   7.668  26.655   2.197
87888W        W54956   8.405  42.856  12.548
87889W        W54957  29.511  36.562   2.183
87890W        W54958  25.539  29.943   2.798
87891W        W54959   7.398  24.995  10.428
87892W        W54960  31.412   8.827  14.387
87893W        W54961  26.503  11.196   3.644
87894W        W54962  30.530  12.180  13.059
87895W        W54963  15.218  38.532  13.049
87896W        W54964  32.408  31.440  11.979
87897W        W54965  27.098  25.684   0.892
87898W        W54966   2.724  35.108  12.911
87899W        W54967  16.800  31.514   0.392
87900W        W54968   1.476  43.771  11.473
87901W        W54969  14.805  41.430   2.312
87902W        W54970  38.383   6.716   3.385
87903W        W54971  30.570  30.525   2.395
87904W        W54972  37.982  18.729  10.951
87905W        W54973  38.865  27.083   2.688
87906W        W54974   6.220   6.323   2.255
87907W        W54975  25.137  23.206  10.483
87908W        W54976   8.877  30.578   3.235
87909W        W54977  39.903  29.124   2.395
87910W        W54978  30.019  44.393   3.819
87911W        W54979  19.259  12.744   2.724
87912W        W54980   0.987   8.655  10.541
87913W        W54981  29.617  35.021  10.995
87914W        W54982   3.303  28.478  13.847
87915W        W54983  35.034  42.827  14.387
87916W        W54984  41.790  23.553   4.165
87917W        W54985  11.152  20.648  13.912
87918W        W54986  36.443  21.103   2.250
87919W        W54987  22.706  14.797  11.528
87920W        W54988  31.503  36.889  12.914
87921W        W54989  39.856   5.742  11.386
87922W        W54990  38.883  11.713   4.762
87923W        W54991  24.634   0.459   3.277
87924W        W54992  34.577  34.037  11.090
87925W        W54993   2.309  17.589   2.729
87926W        W54994  18.240   6.406  11.507
87927W        W54995  42.347  41.922   2.294
87928W        W54996  28.950  28.184  10.610
87929W        W54997  31.993  39.514  11.483
87930W        W54998   9.789  38.036   2.346
87931W        W54999  38.325  15.740  14.355
87932W        W55000   4.378   8.222   4.724
87933W        W55001   4.250  29.537  11.089
87934W        W55002  12.270  22.736   3.746
87935W        W55003  11.799   1.252   3.336
87936W        W55004  22.085  31.928  14.916
87937W        W55005  11.304  32.398   4.790
87938W        W55006  24.532  22.553  10.597
87939W        W55007  23.668  30.508   1.757
87940W        W55008  14.826  13.163  13.443
87941W        W55009  23.048  26.506  12.517
87942W        W55010  32.402  27.116   5.308
87943W        W55011  33.935  27.680   2.197
87944W        W55012   3.950  25.215   5.231
87945W        W55013   2.340  29.959   3.869
87946W        W55014  36.525  19.277   0.358
87947W        W55015  37.074  18.778   0.862
87948W        W55016  30.055  24.050  12.036
87949W        W55017  19.540   9.271   2.263
87950W        W55018  29.937  19.704  13.923
87951W        W55019  19.612  16.147   3.280
87952W        W55020  16.310  12.827  13.356
87953W        W55021   1.455  32.967   0.854
87954W        W55022  28.552   9.333   3.383
87955W        W55023  31.026  42.447   3.671
87956W        W55024  13.264  33.556  10.896
87957W        W55025  32.583  18.165   1.770
87958W        W55026  17.566  21.680   5.655
87959W        W55027  30.423  25.140  12.999
87960W        W55028   9.817  25.571  14.458
87961W        W55029  20.748   9.820   4.326
87962W        W55030  11.788  40.473   2.220
87963W        W55031  40.976  14.818  14.485
87964W        W55032  39.044  22.598   1.803
87965W        W55033  29.068  20.050  10.437
87966W        W55034  13.212  17.090   2.667
87967W        W55035  38.970   1.970  11.121
87968W        W55036  24.985  23.003   4.608
87969W        W55037  26.182  31.414  10.983
87970W        W55038  22.059  18.683   0.827
87971W        W55039   1.283  34.020  14.414
87972W        W55040  28.576   0.355  14.515
87973W        W55041  40.969  16.279  13.341
87974W        W55042  40.933  18.645   1.391
87975W        W55043  26.607  31.957   2.378
87976W        W55044  14.258  28.129   2.236
87977W        W55045  19.654  11.161  12.539
87978W        W55046  35.365  17.748   0.359
87979W        W55047  15.138  40.976  13.513
87980W        W55048  17.115  16.798   2.895
87981W        W55049  33.544  15.676   3.216
87982W        W55050  18.571   0.352   0.352
87983W        W55051  24.711  14.734   3.701
87984W        W55052  38.023  26.496   2.178
87985W        W55053   6.324  27.589   0.870
87986W        W55054  22.734  11.701   0.916
87987W        W55055  37.485  10.285   1.311
87988W        W55056  13.685  42.836  12.465
87989W        W55057  34.532  44.828  11.573
87990W        W55058   9.720   3.716   2.703
87991W        W55059  30.473   6.732  12.429
87992W        W55060   9.357   4.251  10.964
87993W        W55061   4.321  34.590  11.528
87994W        W55062  24.583   5.372   3.347
87995W        W55063  21.144  26.077   2.396
87996W        W55064  25.077  23.494  14.365
87997W        W55065  26.973   4.711   4.723
87998W        W55066  21.099   7.813  14.431
87999W        W55067   3.758  28.604  11.123
88000W        W55068  22.014  31.116   4.715
88001W        W55069  16.145  14.121   5.202
88002W        W55070  43.841  36.914   0.777
88003W        W55071  17.162  20.193  13.384
88004W        W55072  42.971  21.602   0.430
88005W        W55073  25.653   9.167  14.790
88006W        W55074  31.529  29.167  12.435
88007W        W55075  22.158  27.487   2.211
88008W        W55076  15.257  25.032   4.789
88009W        W55077  15.683  14.333   3.840
88010W        W55078  28.495   9.380   2.299
88011W        W55079  34.014  44.966   2.301
88012W        W55080   2.453  25.994   1.443
88013W        W55081  11.293  41.797   3.840
88014W        W55082  10.796  13.650   4.300
88015W        W55083  12.653  26.982   1.370
88016W        W55084  21.583   8.669  12.961
88017W        W55085  41.851  33.912  12.563
88018W        W55086  42.309  42.844  13.940
88019W        W55087  17.194  27.960  12.360
88020W        W55088  39.517  12.209   0.414
88021W        W55089  32.496  30.564   5.194
88022W        W55090  11.374  12.829   3.303
88023W        W55091  10.247  33.096  13.890
88024W        W55092  25.157   1.403  13.548
88025W        W55093  15.218  18.600   3.249
88026W        W55094  19.269  23.724   4.189
88027W        W55095   8.284  23.155  10.508
88028W        W55096   3.871  33.925  13.972
88029W        W55097  41.306   9.211  12.383
88030W        W55098   0.752  33.411  14.965
88031W        W55099  34.420  19.631  13.966
88032W        W55100   9.679  32.502   2.782
88033W        W55101  12.694  12.192  11.898
88034W        W55102  42.447  22.740   2.215
88035W        W55103   2.925  32.035  13.921
88036W        W55104  30.592  13.767   1.838
88037W        W55105  13.121  14.139   0.928
88038W        W55106  38.557  31.517  11.477
88039W        W55107  24.039  11.242   1.363
88040W        W55108  23.653   2.763   3.319
88041W        W55109  11.772   3.862   2.257
88042W        W55110   3.320  28.484  12.947
88043W        W55111   9.644  25.699   0.334
88044W        W55112  31.919  29.669   3.278
88045W        W55113  40.826  37.873   0.747
88046W        W55114  12.773  16.163   0.741
88047W        W55115  40.966   1.815   2.338
88048W        W55116  22.046  40.346  12.446
88049W        W55117  31.149  20.601   4.326
88050W        W55118  36.574  42.357  12.348
88051W        W55119  19.609  11.719  14.460
88052W        W55120  36.070   9.250   2.681
88053W        W55121  38.970  28.033   2.187
88054W        W55122  25.594   8.290   0.424
88055W        W55123   7.690   2.809   2.273
88056W        W55124   8.263  35.364   3.720
88057W        W55125   2.429  27.539  14.001
88058W        W55126   1.952  32.590   3.298
88059W        W55127   0.967   2.464  12.429
88060W        W55128  22.605  40.854   4.184
88061W        W55129   0.852  42.295  10.484
88062W        W55130  33.614  23.134  14.807
88063W        W55131  38.819  13.171   4.602
88064W        W55132  32.604  42.786  14.870
88065W        W55133   1.449  40.949  10.979
88066W        W55134  37.957  22.698   2.228
88067W        W55135  28.481  29.122   0.386
88068W        W55136  20.543  42.011   1.706
88069W        W55137  25.570   4.919   3.661
88070W        W55138   9.323  22.015   3.733
88071W        W55139  11.729   0.961   5.691
88072W        W55140  44.904   9.376  13.896
88073W        W55141  20.237  27.453  13.025
88074W        W55142  41.922   0.868   0.481
88075W        W55143  12.311   6.840   0.792
88076W        W55144  32.992  42.440  13.800
88077W        W55145  15.758  39.335  11.098
88078W        W55146  10.799   4.743   0.906
88079W        W55147  21.034   4.807   3.168
88080W        W55148  12.774  23.241  14.017
88081W        W55149   0.985  21.687   4.731
88082W        W55150  32.123  27.196   2.358
88083W        W55151  43.856   6.300  10.483
88084W        W55152  28.142  38.471   0.420
88085W        W55153  30.464  33.399  13.526
88086W        W55154  33.467  34.558  13.841
88087W        W55155  33.063   9.659   4.283
88088W        W55156  32.068  41.894   0.804
88089W        W55157  24.649  44.927  14.485
88090W        W55158  40.506  13.179   2.396
88091W        W55159  33.113  30.085   4.790
88092W        W55160   3.771   8.812  10.425
88093W        W55161   0.264   5.196  14.446
88094W        W55162  19.629  31.114   2.707
88095W        W55163  29.446  11.324   4.239
88096W        W55164  18.652  23.209   4.186
88097W        W55165   1.333  21.639   1.405
88098W        W55166  20.543  11.663  12.888
88099W        W55167  38.952  10.763   3.839
88100W        W55168   2.791  22.018  10.446
88101W        W55169  36.515  14.163   1.364
88102W        W55170   8.180  32.625   4.649
88103W        W55171   4.890  44.867   3.702
88104W        W55172   7.196   3.838   0.916
88105W        W55173  38.860  36.536  11.979
88106W        W55174  26.640   7.367  13.845
88107W        W55175  32.553  21.686  11.979
88108W        W55176  41.880  22.114   1.320
88109W        W55177  15.257  44.836  10.929
88110W        W55178  14.306   6.741   4.775
88111W        W55179   9.713   8.734   2.821
88112W        W55180  43.808   3.791  12.026
88113W        W55181  44.955   0.769   4.333
88114W        W55182   7.844  24.528   1.360
88115W        W55183  42.016  32.029  11.965
88116W        W55184  43.987   3.352  12.492
88117W        W55185  16.210  23.996  13.384
88118W        W55186   5.723  25.587  13.449
88119W        W55187  24.505  25.006  12.907
88120W        W55188  26.471  23.591  12.527
88121W        W55189  42.956  39.924   0.327
88122W        W55190   5.834  26.603  14.309
88123W        W55191   9.223  34.926  14.345
88124W        W55192  41.434  41.433   1.927
88125W        W55193   7.314   4.424   4.703
88126W        W55194  31.098   7.272  13.883
88127W        W55195  15.590  42.967  13.469
88128W        W55196   7.879  10.688  12.421
88129W        W55197  10.321   6.910   2.692
88130W        W55198  24.101  16.241   0.396
88131W        W55199  21.044  36.475  13.868
88132W        W55200   8.845  40.532  14.499
88133W        W55201  19.277  41.337  10.524
88134W        W55202  35.428  35.494  14.788
88135W        W55203  16.259   9.238  12.547
88136W        W55204  26.672   9.827  10.896
88137W        W55205   1.860  16.592  13.375
88138W        W55206  14.094  38.956   0.286
88139W        W55207   5.406   6.320  11.098
88140W        W55208   5.854  23.731  12.856
88141W        W55209  20.595   6.415  14.380
88142W        W55210  43.512  11.650   3.197
88143W        W55211   0.389  27.549  12.927
88144W        W55212  15.117   4.415  12.088
88145W        W55213   9.321  32.995   4.309
88146W        W55214   4.399  44.448   0.751
88147W        W55215  42.356  31.511   1.893
88148W        W55216  42.346   5.710   2.257
88149W        W55217  39.381  27.053   0.250
88150W        W55218  32.887  23.060  13.041
88151W        W55219  16.731  15.319  13.460
88152W        W55220  29.510  28.007  10.945
88153W        W55221   5.707  20.218   0.810
88154W        W55222  40.386   8.253  14.503
88155W        W55223  44.468  44.003  14.413
88156W        W55224  32.391  27.058  10.097
88157W        W55225  13.341  27.632  14.788
88158W        W55226  40.446  23.160  13.045
88159W        W55227  31.451  11.189  11.565
88160W        W55228  24.652  26.204   0.481
88161W        W55229  17.756   2.396   4.621
88162W        W55230  10.335   4.374   0.776
88163W        W55231  19.124  35.368  14.459
88164W        W55232  44.954   2.896   4.333
88165W        W55233  12.795  38.510  12.375
88166W        W55234  32.017   1.308  12.557
88167W        W55235  29.154  12.356  12.858
88168W        W55236  33.490   2.942   2.259
88169W        W55237   9.341  11.274   2.401
88170W        W55238  29.084   6.316   0.270
88171W        W55239   8.367  33.995  12.529
88172W        W55240  25.552  14.815  12.438
88173W        W55241  29.934  40.333  14.782
88174W        W55242   3.730  12.169  12.026
88175W        W55243  35.028  26.627   2.900
88176W        W55244  42.798  24.588   4.301
88177W        W55245  16.174  35.922  11.969
88178W        W55246   9.699  14.207   5.098
88179W        W55247  25.202  32.928  10.964
88180W        W55248  32.459  13.133   0.452
88181W        W55249  34.085   0.340   3.839
88182W        W55250  30.414  24.682  13.398
88183W        W55251  18.093  42.920  13.941
88184W        W55252  42.480   3.922   2.752
88185W        W55253  12.619  37.978  13.514
88186W        W55254  41.932   0.322  12.557
88187W        W55255   0.431   2.390   0.750
88188W        W55256  36.899  27.498  14.995
88189W        W55257  28.611  30.604   4.354
88190W        W55258  10.267   9.307  11.527
88191W        W55259   4.240  13.735  12.539
88192W        W55260  28.453  12.715   2.883
88193W        W55261  29.921  40.444  13.449
88194W        W55262  34.871  26.464   1.789
88195W        W55263  22.737  11.828  11.013
88196W        W55264  42.016  22.243   0.902
88197W        W55265  40.547  34.409  13.524
88198W        W55266   0.762  16.566   4.273
88199W        W55267  26.477  27.954  13.839
88200W        W55268  20.694  26.979   1.232
88201W        W55269   0.913   3.387   1.419
88202W        W55270  28.101  23.650   4.141
88203W        W55271  27.997  33.508   0.458
88204W        W55272  28.456  10.634   4.351
88205W        W55273  26.146   2.359   2.902
88206W        W55274  22.204  42.286   1.389
88207W        W55275  43.969   2.909   0.775
88208W        W55276  44.979  19.247  14.341
88209W        W55277  40.491   6.246   2.208
88210W        W55278  43.818  27.487   4.809
88211W        W55279  11.680  21.600   3.195
88212W        W55280   9.376  11.245  14.956
88213W        W55281  39.899  38.486   0.354
88214W        W55282  26.603  14.182  10.586
88215W        W55283  10.666  23.057  11.499
88216W        W55284  15.219  24.081  10.517
88217W        W55285  44.416  33.497   0.909
88218W        W55286  24.571  20.551   4.323
88219W        W55287  11.143  43.878   2.389
88220W        W55288  36.548  27.130  11.568
88221W        W55289  20.558  43.285  12.010
88222W        W55290  12.200  17.717  12.851
88223W        W55291  16.205   8.684   3.311
88224W        W55292   8.793  32.064  13.384
88225W        W55293  13.346  26.125   4.790
88226W        W55294  29.624  35.991   1.292
88227W        W55295  41.851  24.992  10.157
88228W        W55296  30.532  35.004   1.699
88229W        W55297  33.029   4.285  14.335
88230W        W55298   6.287  39.927  11.037
88231W        W55299  38.558  24.088   0.863
88232W        W55300   8.326   9.880   1.227
88233W        W55301  13.315   0.458   9.513
88234W        W55302  38.957  40.032   4.245
88235W        W55303  21.701  11.228  13.051
88236W        W55304   9.816  42.785   4.653
88237W        W55305  34.518  21.635   0.961
88238W        W55306  43.484  14.228  10.479
88239W        W55307  16.769  36.991  11.073
88240W        W55308   4.905  26.204  13.888
88241W        W55309  27.532  39.019  14.025
88242W        W55310  27.484  32.435  13.960
88243W        W55311  25.695  12.829  10.990
88244W        W55312   3.805  14.663   2.670
88245W        W55313  18.102  20.165   2.781
88246W        W55314  34.465  40.837   4.640
88247W        W55315   4.367  23.512   1.358
88248W        W55316  25.528   9.873  11.587
88249W        W55317  30.505  29.426   2.842
88250W        W55318  22.145  34.082   1.296
88251W        W55319   0.327  27.634   0.945
88252W        W55320  38.393  14.176  14.841
88253W        W55321  12.151  24.167  11.388
88254W        W55322  24.507  26.523  12.921
88255W        W55323  40.447  25.481  12.340
88256W        W55324  42.898  17.218   4.149
88257W        W55325  22.572  38.868   4.193
88258W        W55326  42.387  15.684   2.374
88259W        W55327   3.721  34.390  12.367
88260W        W55328  11.210   5.772   0.365
88261W        W55329   7.818   4.873   1.760
88262W        W55330  14.641  43.803   0.364
88263W        W55331   5.870  42.450   0.314
88264W        W55332   6.789  38.362  13.372
88265W        W55333  42.986  18.678   0.269
88266W        W55334  15.266  27.686   1.267
88267W        W55335  22.527   8.769   0.297
88268W        W55336  16.086  27.592   1.918
88269W        W55337   4.411  20.641  11.042
88270W        W55338  40.390  27.619  14.277
88271W        W55339  18.211  32.576  10.461
88272W        W55340  33.428   3.856  13.346
88273W        W55341  13.676  11.830  10.888
88274W        W55342  27.976  40.364  12.823
88275W        W55343  12.167  10.781   2.662
88276W        W55344  42.375  40.894   0.926
88277W        W55345  19.194   8.337  14.898
88278W        W55346   8.800   2.407   3.306
88279W        W55347  24.534  16.104  10.569
88280W        W55348  33.543  27.509   1.725
88281W        W55349   2.400  23.509  10.416
88282W        W55350  32.973  29.648   2.225
88283W        W55351  13.832  41.415  14.510
88284W        W55352  33.023   6.395   4.746
88285W        W55353  23.219  44.414   4.767
88286W        W55354  29.489  29.072  12.347
88287W        W55355   3.410   3.345  14.324
88288W        W55356   4.301  12.189   4.795
88289W        W55357  28.665  38.974   4.262
88290W        W55358  38.027  30.459  11.543
88291W        W55359  37.519  17.628   3.742
88292W        W55360  20.663  20.654  12.023
88293W        W55361  32.048  27.496   0.409
88294W        W55362  17.780  37.494  10.551
88295W        W55363  20.096  28.500   1.790
88296W        W55364  30.571   8.801   3.695
88297W        W55365  25.971  41.890   0.945
88298W        W55366  13.281  35.517   4.163
88299W        W55367  20.676  26.178  10.479
88300W        W55368  43.370   6.907  11.609
88301W        W55369   9.849  17.147  12.088
88302W        W55370  41.003  25.998  10.925
88303W        W55371   8.774  20.573  10.939
88304W        W55372   9.648   1.754   4.290
88305W        W55373  26.553  16.073  11.450
88306W        W55374  21.695   3.928   2.284
88307W        W55375  31.016  34.978   3.196
88308W        W55376   4.751   5.804  14.927
88309W        W55377  20.245  24.226   2.267
88310W        W55378  14.161  24.614   0.424
88311W        W55379   2.271  35.535   2.212
88312W        W55380   7.210  26.546   3.215
88313W        W55381  13.168  20.042  13.515
88314W        W55382  23.593   3.770   2.720
88315W        W55383  31.410   4.369   3.694
88316W        W55384   2.304  22.011  10.982
88317W        W55385  15.814  23.071   2.818
88318W        W55386  43.466  34.389  13.490
88319W        W55387  10.228   5.331   4.815
88320W        W55388  40.038  44.319  11.058
88321W        W55389  22.138  40.818   3.720
88322W        W55390  13.250  29.621  12.497
88323W        W55391  32.464  30.012   1.696
88324W        W55392  25.147   3.305   2.842
88325W        W55393  31.438  43.857  13.803
88326W        W55394  10.863  38.324  14.935
88327W        W55395   5.374   4.830   3.717
88328W        W55396  27.629   1.301  12.418
88329W        W55397   4.449   2.405  11.011
88330W        W55398  38.370  28.593   4.336
88331W        W55399  34.959  41.429  12.391
88332W        W55400  37.000  33.112   4.282
88333W        W55401  32.592  37.876   4.738
88334W        W55402  14.726   1.789   0.447
88335W        W55403  37.061  30.563  11.974
88336W        W55404   2.436  22.608   3.729
88337W        W55405  44.266   2.464   3.816
88338W        W55406   7.845  39.392  10.613
88339W        W55407  35.908  27.499  10.901
88340W        W55408  34.973  11.351   0.830
88341W        W55409  32.602   6.911  10.890
88342W        W55410  25.968   6.264   4.801
88343W        W55411   4.449  15.109  12.999
88344W        W55412  35.061  31.104  12.960
88345W        W55413  26.579  41.022   0.847
88346W        W55414  14.763  42.017   0.445
88347W        W55415  38.457  42.295  12.027
88348W        W55416   5.224  29.431   0.842
88349W        W55417  39.325  21.701  13.341
88350W        W55418  41.364  37.547  13.373
88351W        W55419  31.612  36.006  11.882
88352W        W55420  34.452  27.476  11.609
88353W        W55421  12.679  31.517   1.762
88354W        W55422  11.699  38.478   0.802
88355W        W55423   7.284  34.504   2.370
88356W        W55424  25.112  41.807   4.650
88357W        W55425   2.317  29.477  10.531
88358W        W55426  15.096   3.422  10.609
88359W        W55427  31.017  20.080   4.750
88360W        W55428  18.074  10.849   1.243
88361W        W55429  30.915  33.960  13.541
88362W        W55430  39.021  36.472  12.544
88363W        W55431  38.950   9.697  11.110
88364W        W55432  16.663  33.968  11.099
88365W        W55433  39.357   9.768  14.977
88366W        W55434   5.884  35.023   4.338
88367W        W55435  39.996  34.919   1.763
88368W        W55436  12.785  43.503   0.336
88369W        W55437  13.186  26.052  14.464
88370W        W55438  18.736  13.123   0.951
88371W        W55439  12.702  18.285  11.465
88372W        W55440   2.890  12.720   3.714
88373W        W55441  10.337  18.259  14.365
88374W        W55442  43.851  11.259   2.687
88375W        W55443  11.329  10.331  12.384
88376W        W55444  21.578  31.976   3.773
88377W        W55445   5.700  32.418  10.639
88378W        W55446  14.827  41.501   1.300
88379W        W55447  19.166  20.069   5.277
88380W        W55448  18.169  25.184   2.868
88381W        W55449  11.137  28.176  12.909
88382W        W55450  24.217   5.846  13.507
88383W        W55451  26.609   9.384   4.778
88384W        W55452  15.121  17.629   3.638
88385W        W55453  34.002  27.155   2.379
88386W        W55454  28.128   5.411   4.783
88387W        W55455  44.334   1.903   4.668
88388W        W55456  25.178  42.313  13.431
88389W        W55457   4.860   7.276   5.318
88390W        W55458  17.768  43.835  11.613
88391W        W55459   1.267  39.972   2.229
88392W        W55460  27.644  25.987   2.310
88393W        W55461   5.857  22.110   4.753
88394W        W55462  31.500  34.604   1.830
88395W        W55463  19.712  27.539   3.719
88396W        W55464  19.133  33.518   2.180
88397W        W55465   1.383   8.304   2.419
88398W        W55466  35.413  13.335  14.444
88399W        W55467   8.191  22.611  13.315
88400W        W55468  23.642  15.661   0.860
88401W        W55469  42.845  30.073   0.833
88402W        W55470  21.206  14.098   2.299
88403W        W55471   0.357   8.877  12.446
88404W        W55472  23.193  19.684   4.635
88405W        W55473   3.725  26.160  12.917
88406W        W55474   4.867  18.687   3.376
88407W        W55475  42.972  38.524   2.247
88408W        W55476  35.973   1.405   4.618
88409W        W55477  39.485  10.352   0.937
88410W        W55478  19.236  21.248   2.760
88411W        W55479  34.387  21.741  12.835
88412W        W55480  19.041  30.461  10.534
88413W        W55481  40.031  30.949   0.895
88414W        W55482   5.727  33.907  14.865
88415W        W55483  15.671  33.574   0.860
88416W        W55484   2.300  33.055  13.372
88417W        W55485  27.462  17.221  14.981
88418W        W55486  24.594  10.158   0.913
88419W        W55487  26.548  27.585  14.873
88420W        W55488  24.128   2.352   3.733
88421W        W55489  24.064  24.020   1.799
88422W        W55490   0.323  13.822  11.093
88423W        W55491   3.297  44.952   1.871
88424W        W55492   3.333  42.509  10.458
88425W        W55493  12.156  37.005   3.738
88426W        W55494  16.248  42.515  13.964
88427W        W55495  43.874   4.250  14.779
88428W        W55496  15.234  36.393  12.022
88429W        W55497  31.434  33.095  12.917
88430W        W55498   5.318  44.262  13.059
88431W        W55499  35.377  31.507   0.388
88432W        W55500  17.704  32.099  13.349
88433W        W55501  40.813   9.347   1.876
88434W        W55502  14.137  18.215  12.904
88435W        W55503  12.731  14.110   0.325
88436W        W55504  40.883   5.327   3.255
88437W        W55505  18.095  14.817  10.472
88438W        W55506   1.837  43.897   3.798
88439W        W55507  10.786  43.334  10.072
88440W        W55508  38.975  36.864   3.703
88441W        W55509  38.989   5.287  10.601
88442W        W55510  18.080   2.750   4.261
88443W        W55511  31.959  27.060  14.893
88444W        W55512  35.891  13.157   1.231
88445W        W55513  32.595   6.726   3.818
88446W        W55514  43.854  23.151  11.997
88447W        W55515  21.626   6.385  13.458
88448W        W55516  31.588  10.707   3.722
88449W        W55517   9.166  12.695   0.342
88450W        W55518   2.321  24.617  14.310
88451W        W55519   2.772   8.160   3.866
88452W        W55520   5.348  37.834  11.419
88453W        W55521  32.036  13.616   0.409
88454W        W55522   0.775   2.440   3.349
88455W        W55523  37.555  39.983   0.900
88456W        W55524  27.113  23.570  13.057
88457W        W55525  30.049   2.433   2.186
88458W        W55526  37.445  18.615  12.440
88459W        W55527  44.388  19.717   4.346
88460W        W55528   5.763  38.430  10.995
88461W        W55529   1.273   8.754   4.196
88462W        W55530   0.395  20.667  13.527
88463W        W55531  14.744  27.688   3.233
88464W        W55532  38.021  33.600   2.866
88465W        W55533   4.859  22.078  11.464
88466W        W55534  29.427  18.746  12.968
88467W        W55535  30.597  16.127   0.315
88468W        W55536  44.297  21.640   4.614
88469W        W55537   2.804  12.637  14.444
88470W        W55538   3.863   2.870   2.897
88471W        W55539  20.743  43.897  12.833
88472W        W55540   7.355  22.248   0.820
88473W        W55541  26.540  15.161  13.951
88474W        W55542  21.677  42.931   5.279
88475W        W55543   9.806   7.184   1.397
88476W        W55544  14.297   5.392  13.360
88477W        W55545  35.863  20.135  13.527
88478W        W55546  35.462  44.965  14.822
88479W        W55547  25.211  30.495  14.476
88480W        W55548  15.087  39.967   3.757
88481W        W55549   7.842  24.993   0.839
88482W        W55550  35.035  31.587   2.745
88483W        W55551   1.738  18.770   3.841
88484W        W55552  33.874  15.802  12.025
88485W        W55553   2.756  24.642  11.973
88486W        W55554  28.049   0.318  13.877
88487W        W55555  41.792   5.909   1.758
88488W        W55556  30.978  21.251   2.299
88489W        W55557  26.105  37.859  14.791
88490W        W55558  15.589   2.966  12.346
88491W        W55559  13.335   8.723  10.617
88492W        W55560  28.554  44.479  14.857
88493W        W55561  20.125  26.178   3.153
88494W        W55562   1.876  44.322   3.283
88495W        W55563   6.735  26.180  14.929
88496W        W55564  35.428  22.250   3.633
88497W        W55565  13.789  25.687   2.854
88498W        W55566  44.883   2.941  13.486
88499W        W55567  27.944  32.006   1.696
88500W        W55568  23.606  26.543   3.840
88501W        W55569  35.913   6.800  10.500
88502W        W55570  18.093  42.379   0.323
88503W        W55571  38.934  39.816   5.301
88504W        W55572  34.994  19.214   1.849
88505W        W55573  18.628  31.061   1.890
88506W        W55574  43.990  43.349   1.794
88507W        W55575  17.692  10.743  13.012
88508W        W55576  40.367  37.398  11.867
88509W        W55577  27.553  32.051  11.965
88510W        W55578  24.553   3.780  12.548
88511W        W55579  13.634  34.489  11.858
88512W        W55580  24.028  43.854   1.694
88513W        W55581  13.198   3.311   5.230
88514W        W55582   3.734  13.312   0.780
88515W        W55583  20.054  10.746  12.951
88516W        W55584   0.857  24.198  13.497
88517W        W55585   9.297   7.698   1.822
88518W        W55586  13.701  21.119  13.876
88519W        W55587   3.926   4.236  10.502
88520W        W55588   9.380  42.403  14.429
88521W        W55589  20.617  28.629  12.046
88522W        W55590  20.612  21.184  14.029
88523W        W55591  16.701  33.886  12.525
88524W        W55592  41.922  12.703  10.582
88525W        W55593  25.186  18.569   1.364
88526W        W55594  24.497   4.370  12.392
88527W        W55595   2.884  12.660   1.911
88528W        W55596  40.419  43.843   3.264
88529W        W55597  41.916   7.234   0.925
88530W        W55598  19.683  15.605  11.930
88531W        W55599   3.842  39.020   0.339
88532W        W55600  21.041  13.260  13.983
88533W        W55601  21.227   8.312  12.877
88534W        W55602  24.619  10.744  14.959
88535W        W55603  13.814  37.539  14.339
88536W        W55604  34.970  22.539  12.574
88537W        W55605  14.826  26.464  13.875
88538W        W55606  22.721  32.102  11.095
88539W        W55607  20.758  42.860  13.934
88540W        W55608   8.327  33.419   1.445
88541W        W55609  28.569  41.374  13.416
88542W        W55610  34.459   3.812   1.784
88543W        W55611   8.299   5.734   0.354
88544W        W55612  31.420  18.646   1.848
88545W        W55613  13.736  32.040  12.878
88546W        W55614  42.903  44.381  10.912
88547W        W55615  20.052  25.131  12.473
88548W        W55616  34.520   5.745  11.532
88549W        W55617  38.967  24.560  12.395
88550W        W55618  12.175  22.153   2.685
88551W        W55619  16.606  19.582  11.450
88552W        W55620  22.665   8.690   1.217
88553W        W55621   0.755  27.157   1.210
88554W        W55622   9.684   8.756   0.438
88555W        W55623  17.121  31.405   1.404
88556W        W55624  38.397  19.267  12.094
88557W        W55625   7.667  24.560  14.283
88558W        W55626  17.622  35.906   3.201
88559W        W55627  28.661   7.833  10.594
88560W        W55628  28.937  31.979   4.767
88561W        W55629  41.903  28.939  10.600
88562W        W55630  18.209  24.076  12.564
88563W        W55631  28.645  36.063   2.765
88564W        W55632  13.608  44.921  14.350
88565W        W55633  44.326   6.816   4.761
88566W        W55634   7.277  32.501  14.467
88567W        W55635  36.471  21.234  14.385
88568W        W55636   2.830  36.443  11.566
88569W        W55637  37.479  29.536   1.346
88570W        W55638  18.757   0.787  12.983
88571W        W55639  26.510  33.529   5.163
88572W        W55640  43.901   0.904  10.457
88573W        W55641   6.712  32.928  10.409
88574W        W55642  33.548  14.755  13.538
88575W        W55643  38.363   1.422   3.310
88576W        W55644  38.340  26.608  11.037
88577W        W55645  37.555  39.935  13.005
88578W        W55646  39.399   7.768  13.988
88579W        W55647  17.270  44.503   5.083
88580W        W55648  34.995  16.616  12.844
88581W        W55649  30.071   3.737   2.903
88582W        W55650  33.980  12.203  13.506
88583W        W55651  34.551  21.741   1.412
88584W        W55652  29.500  39.519  13.939
88585W        W55653  36.882  15.679   3.666
88586W        W55654  28.518  44.759  12.490
88587W        W55655  24.723  25.042   2.851
88588W        W55656  42.979  25.490  12.526
88589W        W55657   7.352  14.830  14.976
88590W        W55658  23.041  16.675   4.258
88591W        W55659  41.493   6.830  11.582
88592W        W55660  25.610  43.310   2.830
88593W        W55661   5.764  22.069  10.976
88594W        W55662   6.396  29.084  11.964
88595W        W55663  40.520  28.463   2.257
88596W        W55664   3.379   0.478   0.369
88597W        W55665   8.877  29.599  14.482
88598W        W55666  40.492  13.815  12.447
88599W        W55667  44.902   7.273  10.982
88600W        W55668  16.268  38.362   0.280
88601W        W55669  43.432   0.397  10.913
88602W        W55670   5.381  29.643  12.529
88603W        W55671  22.539  12.708  14.922
88604W        W55672   8.311  19.108  11.428
88605W        W55673  12.175   5.379   2.867
88606W        W55674  20.208  10.863  13.413
88607W        W55675  21.199  18.708   2.834
88608W        W55676   5.790  12.227  12.556
88609W        W55677   5.876  16.664   0.247
88610W        W55678  20.136  19.157  12.422
88611W        W55679  16.780  22.735  11.448
88612W        W55680  30.971   9.352   0.871
88613W        W55681  32.598   4.275   4.699
88614W        W55682  33.972  26.471   2.843
88615W        W55683  11.868   3.777   0.398
88616W        W55684  20.602  43.768   0.889
88617W        W55685  37.013  25.524   1.709
88618W        W55686  24.718  27.079   3.739
88619W        W55687  37.975  36.842   2.233
88620W        W55688  15.326   5.908  13.932
88621W        W55689  38.930  20.180  13.989
88622W        W55690  29.934   8.324   1.923
88623W        W55691  28.996  30.616  14.438
88624W        W55692  42.453   6.751   0.815
88625W        W55693   7.277  11.241   0.250
88626W        W55694  26.102   3.776  11.011
88627W        W55695  24.501   1.740  12.870
88628W        W55696  18.164  28.530   4.196
88629W        W55697  30.499  31.014  11.869
88630W        W55698  20.708  32.992  14.774
88631W        W55699  42.970  36.086   1.923
88632W        W55700  33.614  44.774  11.531
88633W        W55701  24.614   3.242   4.114
88634W        W55702  10.314   1.956   2.337
88635W        W55703  33.532  32.128   0.352
88636W        W55704  16.619  10.680  10.414
88637W        W55705   1.824  39.923   4.249
88638W        W55706  41.905  25.968   0.815
88639W        W55707  39.000  24.648   1.923
88640W        W55708  13.308  28.543   0.442
88641W        W55709  15.132  14.254   4.283
88642W        W55710  14.660   7.180   4.817
88643W        W55711  10.714  37.851   2.396
88644W        W55712  19.213  34.087   2.788
88645W        W55713  25.023  23.648   1.765
88646W        W55714   7.299  31.559  14.482
88647W        W55715   4.443  13.766   1.325
88648W        W55716  15.085  11.628  10.907
88649W        W55717   2.446   8.870   4.279
88650W        W55718  12.656  24.063   0.804
88651W        W55719  26.193   8.200   0.857
88652W        W55720  11.320  27.571   0.873
88653W        W55721   4.859  39.005  13.835
88654W        W55722   8.379  22.139  11.528
88655W        W55723  35.973  27.586   1.397
88656W        W55724   1.964  19.631   3.782
88657W        W55725  44.333  36.429   1.735
88658W        W55726   2.432   1.748  12.092
88659W        W55727  32.583   8.255  12.918
88660W        W55728  13.218  43.995  13.463
88661W        W55729   6.865  42.889   1.335
88662W        W55730  29.432  20.136  12.464
88663W        W55731   7.749   1.305  13.545
88664W        W55732  34.901  16.127   0.244
88665W        W55733   7.710  10.875   2.324
88666W        W55734  25.993  36.952  13.999
88667W        W55735  34.967  11.168   4.250
88668W        W55736  26.551  38.891   4.680
88669W        W55737   2.297  42.432   0.925
88670W        W55738  42.517  12.130   3.386
88671W        W55739  28.638  30.558   2.343
88672W        W55740  31.899   5.254   1.236
88673W        W55741  21.094  30.088  13.385
88674W        W55742   9.339  29.652   2.411
88675W        W55743   4.404  36.553   2.873
88676W        W55744  11.200  14.626  14.448
88677W        W55745   5.361  29.553  10.603
88678W        W55746  28.184  10.798   2.735
88679W        W55747  15.192  26.158  10.960
88680W        W55748  42.395  27.113   1.217
88681W        W55749  15.603  37.919  13.319
88682W        W55750  38.415  33.491   0.418
88683W        W55751  38.402  44.423  10.592
88684W        W55752   9.713  22.246   1.698
88685W        W55753  11.629   9.385   1.308
88686W        W55754  36.406   3.916   2.858
88687W        W55755  32.400  31.008   1.394
88688W        W55756  44.835  43.820  11.101
88689W        W55757  11.729   1.974   1.833
88690W        W55758  17.627   8.677  14.868
88691W        W55759   3.836  44.932  14.820
88692W        W55760  18.174  26.473   1.700
88693W        W55761  23.574  29.092   1.912
88694W        W55762  13.179   6.425   0.403
88695W        W55763  22.225  35.912  10.468
88696W        W55764  11.829   6.289  11.031
88697W        W55765  38.060   4.814   4.642
88698W        W55766   8.211  28.149  14.294
88699W        W55767  36.367  39.972  10.513
88700W        W55768   7.788  24.660  14.866
88701W        W55769  23.142  33.441   0.787
88702W        W55770  42.351  11.651  13.820
88703W        W55771  13.778  26.619   0.796
88704W        W55772   4.720  24.662  11.930
88705W        W55773  15.804  15.311  13.976
88706W        W55774  21.258  42.856  13.336
88707W        W55775   3.216  17.085   1.343
88708W        W55776  29.148  39.546  12.982
88709W        W55777  18.612  32.505   3.275
88710W        W55778  41.462  18.628  11.402
88711W        W55779  15.303  22.166   4.830
88712W        W55780  44.865  26.584   2.673
88713W        W55781  17.247  13.633  14.855
88714W        W55782   5.772  10.672  11.538
88715W        W55783  40.342  25.965   2.299
88716W        W55784  37.447  34.895  11.495
88717W        W55785  27.055  16.305  13.917
88718W        W55786   7.365  22.040  10.624
88719W        W55787  13.840  37.363   4.785
88720W        W55788  20.181  13.343  14.433
88721W        W55789  41.323  44.405   1.699
88722W        W55790  33.034  43.351   1.892
88723W        W55791  43.306  31.014   4.634
88724W        W55792  35.040  38.363  13.830
88725W        W55793  13.633  42.484   1.227
88726W        W55794  40.046  36.430  11.919
88727W        W55795  44.968  25.490   2.843
88728W        W55796  28.451  17.143  13.929
88729W        W55797   8.294  27.950   4.644
88730W        W55798  30.032  19.146   1.864
88731W        W55799  34.492  15.708  11.063
88732W        W55800  14.328   9.327   1.783
88733W        W55801   1.849  13.203  11.437
88734W        W55802  28.019  38.931  10.054
88735W        W55803  42.857  15.698  11.905
88736W        W55804  37.018  26.120  12.833
88737W        W55805  35.470  33.002   2.822
88738W        W55806   8.332  18.191  11.382
88739W        W55807   7.804   5.724   2.249
88740W        W55808   7.397  15.798   0.780
88741W        W55809   1.761  16.766  11.537
88742W        W55810  29.991   8.679   0.372
88743W        W55811  20.173   0.841  10.448
88744W        W55812  18.688  11.867   0.819
88745W        W55813  37.021  17.651  14.960
88746W        W55814  33.616  11.190   4.658
88747W        W55815  33.921  23.523   4.823
88748W        W55816  27.495  15.236  10.506
88749W        W55817  25.008  27.096  13.532
88750W        W55818  36.053  23.641  14.392
88751W        W55819  11.839  42.837   2.735
88752W        W55820  44.929  21.538  12.436
88753W        W55821  21.513  12.747   1.738
88754W        W55822  17.621  22.043   2.406
88755W        W55823  32.548  21.135   4.814
88756W        W55824  34.925  37.359   2.742
88757W        W55825  31.929  13.232  10.561
88758W        W55826  13.786  28.939   4.832
88759W        W55827  32.981  22.229   1.293
88760W        W55828  19.263  14.677   2.794
88761W        W55829   7.835   3.891   2.333
88762W        W55830  20.738  27.122   4.188
88763W        W55831  43.308  43.458  11.441
88764W        W55832   0.968  41.435  14.432
88765W        W55833  25.493  17.594  14.444
88766W        W55834  24.596  31.948  12.930
88767W        W55835  38.964  43.284   1.914
88768W        W55836  27.619  39.348   1.306
88769W        W55837   8.877  33.467  11.013
88770W        W55838  21.570   8.383  13.474
88771W        W55839  44.006   7.268  14.487
88772W        W55840  27.558   1.779   1.846
88773W        W55841  35.052   1.732  14.904
88774W        W55842  25.493   0.847   0.409
88775W        W55843   2.839  20.662  12.360
88776W        W55844  10.765   4.725  14.450
88777W        W55845  13.172  16.733  13.397
88778W        W55846  19.075  22.615   0.467
88779W        W55847  21.147  11.680  13.424
88780W        W55848  42.282  40.017  10.589
88781W        W55849  35.362  40.002  11.958
88782W        W55850  26.698   8.811   4.816
88783W        W55851  25.711  29.103  12.533
88784W        W55852  38.848  41.927  13.881
88785W        W55853  14.115  44.392   3.736
88786W        W55854   2.940  37.574  11.921
88787W        W55855  15.754   7.341  12.899
88788W        W55856   2.465   4.239  11.911
88789W        W55857  22.645  27.518   0.833
88790W        W55858  42.913  25.688   5.224
88791W        W55859   6.419   9.728   9.995
88792W        W55860  42.339  18.697  14.849
88793W        W55861  40.333  22.185   2.353
88794W        W55862  24.598   5.194   1.791
88795W        W55863  44.261  37.874  11.099
88796W        W55864  41.342  41.411   4.311
88797W        W55865  37.945   3.859   2.901
88798W        W55866  25.627  39.376   4.225
88799W        W55867  14.763   5.235  11.466
88800W        W55868   5.871   0.874   0.480
88801W        W55869  33.913  25.157  13.939
88802W        W55870  18.255  44.900  11.861
88803W        W55871  23.178   9.795  11.407
88804W        W55872  28.133  36.525   3.794
88805W        W55873   1.432  15.694   0.774
88806W        W55874  43.936   7.401   2.902
88807W        W55875   9.237  14.824   0.781
88808W        W55876   3.268  31.587  10.407
88809W        W55877  16.709  19.196  12.049
88810W        W55878  22.727  18.646  13.051
88811W        W55879  13.815  22.637  12.901
88812W        W55880   5.705   6.275   2.418
88813W        W55881  44.462  10.249   3.325
88814W        W55882  10.753   2.469  12.826
88815W        W55883  43.791  20.612  10.488
88816W        W55884  43.813  42.522  13.469
88817W        W55885  31.493  41.979   3.362
88818W        W55886  33.447  27.467  12.867
88819W        W55887   9.386  33.125   4.780
88820W        W55888  16.136   6.373  14.295
88821W        W55889   2.373  15.193   2.851
88822W        W55890  39.863  12.759   1.699
88823W        W55891  36.925   5.878  11.858
88824W        W55892  44.426  35.581  14.445
88825W        W55893  14.658   6.293   1.237
88826W        W55894  33.464  12.202   3.818
88827W        W55895  12.621  31.639  14.355
88828W        W55896  35.387  31.967  12.557
88829W        W55897  37.087   9.828  14.774
88830W        W55898  14.666   2.923   0.931
88831W        W55899   2.779  41.326   2.383
88832W        W55900  23.602  15.136   0.780
88833W        W55901  37.937  36.909   4.333
88834W        W55902  36.368  39.870   3.261
88835W        W55903  13.700  14.321   2.310
88836W        W55904  39.315   2.870  13.504
88837W        W55905   1.938  32.005   1.832
88838W        W55906  22.587  28.547  11.421
88839W        W55907  29.596   4.404  11.997
88840W        W55908  16.310  22.109   4.680
88841W        W55909  27.144  37.903  12.494
88842W        W55910  38.882  19.672   1.385
88843W        W55911   5.264   7.786   1.239
88844W        W55912  30.431  27.093  10.465
88845W        W55913   2.766  19.737   0.937
88846W        W55914  21.539   7.797  13.484
88847W        W55915  32.462   7.224  11.924
88848W        W55916  30.531  36.406  14.424
88849W        W55917   4.335  16.567  11.128
88850W        W55918  31.527  10.697  14.371
88851W        W55919  44.773   6.273  12.523
88852W        W55920  21.622   0.838  10.076
88853W        W55921  20.748  30.927   3.712
88854W        W55922  11.234  27.501   1.838
88855W        W55923  32.511  18.181  12.573
88856W        W55924  11.634  11.686   5.184
88857W        W55925  14.295   7.793  14.355
88858W        W55926  38.391  27.942  10.997
88859W        W55927  31.642  11.811   4.615
88860W        W55928  31.490   2.338  14.889
88861W        W55929  10.278   6.407  11.041
88862W        W55930  24.479  11.654  10.625
88863W        W55931  12.814  26.966  10.946
88864W        W55932  40.447  39.411   2.305
88865W        W55933  28.642  34.448  13.495
88866W        W55934  31.596  44.494  14.826
88867W        W55935  35.359   6.801   4.279
88868W        W55936   5.343  22.515   1.874
88869W        W55937  35.854   8.768   0.907
88870W        W55938  43.949  28.605   0.469
88871W        W55939  43.445  12.313   1.446
88872W        W55940  41.318  22.073  12.994
88873W        W55941  12.201  26.095   3.360
88874W        W55942   5.267  42.487   4.651
88875W        W55943  25.534  11.817   0.805
88876W        W55944  37.848  24.085   0.454
88877W        W55945  25.125  42.406   1.282
88878W        W55946  38.350   1.336  14.436
88879W        W55947  15.263  15.711   4.647
88880W        W55948  32.987  42.926   3.203
88881W        W55949  33.414  18.780   0.390
88882W        W55950  26.123  24.515  13.383
88883W        W55951  30.089  31.436   0.889
88884W        W55952  34.411  28.532   2.287
88885W        W55953   2.888   9.875  11.060
88886W        W55954  36.867   4.911  14.881
88887W        W55955  10.254  35.559   3.812
88888W        W55956  27.491   3.429  12.967
88889W        W55957   9.326   7.200  12.995
88890W        W55958  33.514   1.756   5.306
88891W        W55959  10.847   8.275   3.646
88892W        W55960  16.622  25.014  10.467
88893W        W55961  22.145  29.043  11.427
88894W        W55962  24.138  40.935  13.534
88895W        W55963  29.581  34.943   4.716
88896W        W55964  24.507  35.453  14.439
88897W        W55965  29.557   2.833   4.251
88898W        W55966   8.772  36.465   1.343
88899W        W55967   9.732  16.727  10.459
88900W        W55968  25.706  32.408   3.777
88901W        W55969  21.716  30.617  14.817
88902W        W55970   0.492  25.966  11.464
88903W        W55971   1.961  22.581  13.456
88904W        W55972  32.921  17.287   0.314
88905W        W55973   1.855  14.333  13.428
88906W        W55974   1.446  18.595  13.457
88907W        W55975  40.020  28.438   4.305
88908W        W55976  20.607   8.167   3.790
88909W        W55977  23.678  17.264   0.817
88910W        W55978  35.998  28.142   1.784
88911W        W55979  34.945  17.267  11.109
88912W        W55980  38.441   2.818  10.522
88913W        W55981   2.906  14.789  13.407
88914W        W55982  12.723  15.169   0.944
88915W        W55983   2.736  10.148  10.519
88916W        W55984  31.496  41.427   4.836
88917W        W55985  17.217  38.051  11.416
88918W        W55986  22.705  26.075  13.398
88919W        W55987  28.006  22.672  10.475
88920W        W55988  39.855  23.572  14.989
88921W        W55989  29.454  24.551   2.326
88922W        W55990   3.237  21.239   3.274
88923W        W55991  10.145   2.828  10.638
88924W        W55992  39.055  29.537   3.786
88925W        W55993   5.748  23.650   4.718
88926W        W55994  43.380   5.283  10.538
88927W        W55995   9.290   1.756   1.822
88928W        W55996  18.649   6.714   2.866
88929W        W55997  17.142  22.706   3.238
88930W        W55998  42.522  10.808   4.749
88931W        W55999  17.227  33.401   2.288
88932W        W56000  26.625   3.254  12.928
88933W        W56001   8.237  34.538  10.617
88934W        W56002  34.071   4.347   4.838
88935W        W56003  42.908  11.220   4.711
88936W        W56004  36.351  35.882   0.916
88937W        W56005  28.026  15.115   5.751
88938W        W56006   5.875  19.715   3.191
88939W        W56007   6.379  33.977   3.336
88940W        W56008  44.265  19.220  11.425
88941W        W56009  10.752   8.758  13.471
88942W        W56010  29.518   3.320   1.827
88943W        W56011  28.599  30.160  12.558
88944W        W56012  30.415  28.493  12.830
88945W        W56013  16.169  14.335  12.387
88946W        W56014  19.660   0.386   4.311
88947W        W56015  22.672  38.349  10.530
88948W        W56016   0.922  41.807   0.356
88949W        W56017  37.952  25.497   0.379
88950W        W56018  44.776  43.343   4.187
88951W        W56019  35.037  26.519   0.452
88952W        W56020  37.035  41.452  11.556
88953W        W56021  34.896   2.272   3.217
88954W        W56022  18.561  14.722  12.001
88955W        W56023  25.681  26.208  13.824
88956W        W56024  28.455  36.466   3.699
88957W        W56025  23.098  10.661   0.941
88958W        W56026  31.948  14.121  11.039
88959W        W56027   8.392  33.503   0.335
88960W        W56028  28.060  41.917   3.380
88961W        W56029  44.294  44.287   4.254
88962W        W56030  17.764   5.705  13.526
88963W        W56031  22.168  39.066  12.455
88964W        W56032  11.370   2.748  12.341
88965W        W56033  34.939  23.189   4.180
88966W        W56034  17.670  37.011  10.640
88967W        W56035  10.804  17.114   2.702
88968W        W56036   4.426   7.828   4.632
88969W        W56037  36.975   5.297   4.777
88970W        W56038  15.093  29.607  11.399
88971W        W56039  18.092   2.295  14.032
88972W        W56040  43.021   3.304  14.016
88973W        W56041  42.021  34.960   0.773
88974W        W56042  34.455   7.242   1.273
88975W        W56043  16.691  31.124   3.692
88976W        W56044  26.064  27.516   4.352
88977W        W56045  22.722  19.580  11.950
88978W        W56046  43.928  11.771   4.301
88979W        W56047  12.209   2.817   3.217
88980W        W56048  42.312   7.385   0.840
88981W        W56049   7.733  16.269  12.937
88982W        W56050   2.418  29.174   3.673
88983W        W56051  37.498  17.635  12.477
88984W        W56052  10.383  11.643  14.434
88985W        W56053  28.497  19.556   2.687
88986W        W56054   8.379  40.974  12.923
88987W        W56055   9.677  12.737  13.812
88988W        W56056  34.581   7.692   0.884
88989W        W56057  21.018  11.251   4.764
88990W        W56058   0.401  24.176   2.759
88991W        W56059  44.443  12.276  11.399
88992W        W56060  15.121   5.757  14.873
88993W        W56061  13.259  18.783  12.377
88994W        W56062  34.461   3.323   4.177
88995W        W56063  29.149  39.488   3.323
88996W        W56064  39.899  11.853  12.871
88997W        W56065   8.815   3.400  11.450
88998W        W56066  34.520  44.354   3.341
88999W        W56067  29.630  26.985  12.518
89000W        W56068  38.394  16.190  14.775
89001W        W56069   5.881  27.117  12.869
89002W        W56070  24.097  44.949   1.769
89003W        W56071  20.230  25.633   1.730
89004W        W56072  24.091   8.273  11.038
89005W        W56073  16.710   5.390   4.181
89006W        W56074  40.320  35.478   0.738
89007W        W56075  18.622  20.596  10.611
89008W        W56076   9.713  43.844   1.825
89009W        W56077  24.681   3.825   4.324
89010W        W56078   3.889  11.324   2.779
89011W        W56079  17.698   2.906  14.456
89012W        W56080  44.834  36.091   0.467
89013W        W56081  23.635   5.259   1.699
89014W        W56082  36.055   0.849   1.907
89015W        W56083  34.899  38.841   3.192
89016W        W56084  36.363   6.284   4.611
89017W        W56085   4.717  38.393  13.408
89018W        W56086  41.931   0.290   1.363
89019W        W56087  11.845  18.121  10.059
89020W        W56088  20.712   5.224   4.629
89021W        W56089   9.211   6.265  13.884
89022W        W56090  42.968  35.455  12.971
89023W        W56091   4.706  29.981   0.745
89024W        W56092  44.862  10.857  12.463
89025W        W56093  39.032  14.802   2.264
89026W        W56094  15.736  27.563   0.809
89027W        W56095  44.269  20.242  11.540
89028W        W56096  21.121  17.148   0.302
89029W        W56097  17.288   8.197  10.557
89030W        W56098  16.626  41.789   4.744
89031W        W56099  28.116  14.604  11.955
89032W        W56100  30.528  21.034  12.050
89033W        W56101  16.204   2.955   4.704
89034W        W56102  31.112  23.153  11.515
89035W        W56103   7.856   8.732  12.930
89036W        W56104  34.001  22.250  12.913
89037W        W56105  27.599   5.193   4.279
89038W        W56106  38.012  21.575   0.856
89039W        W56107   7.714  25.214  13.839
89040W        W56108  15.322  43.445  12.431
89041W        W56109  15.737  21.580  13.313
89042W        W56110  23.716   7.878   2.281
89043W        W56111  15.302   3.352   2.716
89044W        W56112  16.595  22.041   5.284
89045W        W56113  37.370   7.738  10.984
89046W        W56114  28.079  10.185  12.939
89047W        W56115   5.401   7.229   0.299
89048W        W56116  14.314  39.032   1.345
89049W        W56117  26.190  13.701   4.607
89050W        W56118  44.947  38.363   3.357
89051W        W56119  39.393  42.429   2.855
89052W        W56120  31.960  40.816  13.475
89053W        W56121  14.313  42.432   0.423
89054W        W56122  39.999  25.192  11.863
89055W        W56123  24.216  29.925   1.378
89056W        W56124  39.448  21.096   9.954
89057W        W56125  34.584  33.037   2.748
89058W        W56126  29.504   2.283  11.946
89059W        W56127  14.778  17.679   1.695
89060W        W56128  30.640  15.605  13.813
89061W        W56129  42.346   5.812   1.308
89062W        W56130  23.658  17.104   2.667
89063W        W56131  35.519  17.650  14.336
89064W        W56132  25.150   7.345  13.342
89065W        W56133  35.416  18.725   3.260
89066W        W56134  35.010  33.428   9.947
89067W        W56135   6.849  39.552   4.620
89068W        W56136  35.422  23.642  12.078
89069W        W56137  41.822  37.357  10.931
89070W        W56138  26.542   9.260   5.170
89071W        W56139  23.047   3.903   2.343
89072W        W56140  19.210  27.616   1.709
89073W        W56141  42.493  28.113   1.716
89074W        W56142  13.676  43.270  10.507
89075W        W56143   4.728  11.652   2.785
89076W        W56144  38.986  10.304  14.947
89077W        W56145  43.292  37.930   1.336
89078W        W56146  35.514  11.279   4.222
89079W        W56147  33.932   7.331   1.418
89080W        W56148  29.666  23.198  13.942
89081W        W56149  13.296  43.407  13.330
89082W        W56150  30.483  38.425  13.792
89083W        W56151  40.534   9.369  14.495
89084W        W56152  22.567  20.662   3.248
89085W        W56153  16.775  36.534   2.235
89086W        W56154  20.263  35.962   0.967
89087W        W56155  33.119  41.484  14.373
89088W        W56156  26.520  30.954   3.171
89089W        W56157  14.629  24.092  12.080
89090W        W56158  28.629  24.553   4.671
89091W        W56159  40.488  25.515  11.907
89092W        W56160  31.615  27.517  12.085
89093W        W56161  29.658  21.572  12.953
89094W        W56162  42.499  16.796  14.328
89095W        W56163  11.334  33.614   3.642
89096W        W56164  36.511  41.319   4.140
89097W        W56165  33.892   0.392   3.300
89098W        W56166   1.889  21.733  13.444
89099W        W56167  15.718  20.223   3.845
89100W        W56168   9.718  39.899  13.962
89101W        W56169  40.970  25.560   0.440
89102W        W56170  11.164  18.602  13.889
89103W        W56171  17.564  12.794  14.320
89104W        W56172  21.575  13.799   0.967
89105W        W56173   5.388  28.094  14.797
89106W        W56174  35.531  38.013  11.388
89107W        W56175   0.377  44.386   1.911
89108W        W56176  24.640  26.150  10.568
89109W        W56177  24.097  41.931   2.891
89110W        W56178  42.825  39.860  13.486
89111W        W56179  28.577  29.475  13.380
89112W        W56180  22.567  44.392   3.265
89113W        W56181  13.239  31.535  13.455
89114W        W56182  38.887  33.583  14.475
89115W        W56183  41.490   1.757   0.442
89116W        W56184  19.163  40.838  12.448
89117W        W56185  36.050   0.968   0.422
89118W        W56186   6.426  28.537   2.826
89119W        W56187  39.396  43.923   1.700
89120W        W56188   3.862  22.162  11.575
89121W        W56189  11.793  28.992   4.828
89122W        W56190  17.613   4.784  12.425
89123W        W56191   0.965  11.204   1.895
89124W        W56192  17.733  43.913   3.284
89125W        W56193   2.339   3.441  11.545
89126W        W56194  35.007  35.578  12.538
89127W        W56195  40.977  29.627  11.567
89128W        W56196   9.768  17.236   2.898
89129W        W56197   1.366   3.311   3.335
89130W        W56198  24.508   9.378   2.730
89131W        W56199   3.933  13.730  12.904
89132W        W56200   2.794  15.285  10.908
89133W        W56201  20.529  30.468  12.506
89134W        W56202  19.776   9.354  10.506
89135W        W56203  18.060  10.796  11.039
89136W        W56204   7.174  44.395   1.295
89137W        W56205  15.244  29.038  13.416
89138W        W56206  42.296  13.616  11.604
89139W        W56207  31.984  34.550  11.017
89140W        W56208  17.644  16.617   2.677
89141W        W56209  34.955  44.499  12.480
89142W        W56210  17.137   7.307   0.305
89143W        W56211  27.668  22.239  10.466
89144W        W56212  35.028  21.602   2.341
89145W        W56213  35.994  39.888  10.531
89146W        W56214  26.694  10.164  10.577
89147W        W56215  11.316  10.680   1.873
89148W        W56216  28.535  25.572  10.538
89149W        W56217  42.381   7.901  13.874
89150W        W56218   0.798  15.261   1.778
89151W        W56219  37.500   4.723   5.293
89152W        W56220  30.127  39.444   1.370
89153W        W56221   0.291  19.646  10.514
89154W        W56222  15.248  32.014   4.207
89155W        W56223  27.593  29.657   2.264
89156W        W56224  16.259   1.464  12.067
89157W        W56225  18.780  31.900   3.844
89158W        W56226  27.146   5.218  14.286
89159W        W56227  41.992  43.385   0.419
89160W        W56228   3.413   9.777  14.304
89161W        W56229   1.907  11.774  14.888
89162W        W56230  25.550  20.254   1.779
89163W        W56231  26.987  39.398   4.138
89164W        W56232  13.770  26.121  14.441
89165W        W56233   1.275   5.234   4.609
89166W        W56234  27.644  19.247  11.030
89167W        W56235  31.137  21.732  10.988
89168W        W56236  22.163  25.006  14.479
89169W        W56237  35.902  30.484  10.587
89170W        W56238  39.351  20.633   4.776
89171W        W56239   7.686  10.701   0.481
89172W        W56240  13.222  34.035   1.742
89173W        W56241  34.020  37.575   1.293
89174W        W56242  24.636   9.707  14.996
89175W        W56243  15.772   8.664   2.811
89176W        W56244   9.337  26.972  13.893
89177W        W56245  32.552  41.906   3.730
89178W        W56246  40.993  27.187   1.725
89179W        W56247  11.140   5.378   4.285
89180W        W56248  33.899  34.107   4.172
89181W        W56249  23.576  12.792  11.488
89182W        W56250  16.086   6.702  13.365
89183W        W56251  39.329  40.480  12.399
89184W        W56252   2.783  27.635   0.921
89185W        W56253  24.059  30.089   0.792
89186W        W56254  21.629  19.282  14.806
89187W        W56255  28.021   7.336  12.505
89188W        W56256  34.054   6.868   4.124
89189W        W56257  21.543   1.944  10.541
89190W        W56258   2.308  43.003  12.392
89191W        W56259  17.186   2.255   3.346
89192W        W56260  23.122  42.888   2.391
89193W        W56261  15.112   0.378   4.157
89194W        W56262  25.077  36.029  14.003
89195W        W56263  33.466  19.645  11.104
89196W        W56264   1.964   6.714   3.681
89197W        W56265  33.969  41.798   2.708
89198W        W56266  20.159  12.194   4.796
89199W        W56267  27.564  24.557   4.122
89200W        W56268   3.891   5.717   3.853
89201W        W56269   5.903   4.312   1.891
89202W        W56270  20.043  43.431   0.394
89203W        W56271  43.927  21.617   0.311
89204W        W56272  28.544  23.008  10.974
89205W        W56273  43.272  43.291   1.288
89206W        W56274   9.280  29.457  13.981
89207W        W56275  14.687   1.916   2.249
89208W        W56276  22.607  17.129  13.330
89209W        W56277  15.089  11.850  10.101
89210W        W56278  33.933  30.523   1.450
89211W        W56279  20.612  15.126  14.946
89212W        W56280  32.100  25.592   4.603
89213W        W56281   8.725  12.142  10.555
89214W        W56282  37.496   8.237   0.894
89215W        W56283   2.816  21.631   0.352
89216W        W56284  25.574  24.011   4.745
89217W        W56285  27.061  37.573  13.888
89218W        W56286   8.175  40.866   3.653
89219W        W56287  33.949   2.803   2.397
89220W        W56288  26.076  24.000   0.820
89221W        W56289  24.724  43.022  13.990
89222W        W56290  28.458  22.169   4.734
89223W        W56291  20.686   0.828  11.554
89224W        W56292  31.453  31.080   1.721
89225W        W56293  10.858  36.582  13.955
89226W        W56294   3.343  16.224  11.872
89227W        W56295  15.605   2.267  11.919
89228W        W56296  42.838   4.780  10.555
89229W        W56297   6.759  34.917   0.731
89230W        W56298   1.293   4.317   3.764
89231W        W56299  13.243  29.622   4.701
89232W        W56300  44.894  27.580  11.478
89233W        W56301  20.129   6.182   5.208
89234W        W56302  16.612  24.156   0.925
89235W        W56303   6.883  11.198  13.403
89236W        W56304  37.471  25.588  10.987
89237W        W56305  12.776  35.975  12.869
89238W        W56306  14.220   3.449  13.437
89239W        W56307   6.731  26.535  12.967
89240W        W56308   5.880  14.182   0.801
89241W        W56309   7.270  12.193   3.258
89242W        W56310  16.184  23.984   4.658
89243W        W56311   7.185  33.106  10.956
89244W        W56312  11.862   5.850   0.962
89245W        W56313  22.660   1.875  13.815
89246W        W56314  26.084  40.986   1.244
89247W        W56315  43.776   5.241  11.860
89248W        W56316   0.302  18.588  12.966
89249W        W56317  32.936  41.039  11.073
89250W        W56318  11.718  40.868   3.208
89251W        W56319   4.760   4.931  14.309
89252W        W56320  30.093  19.627   0.423
89253W        W56321  35.969  26.054  12.965
89254W        W56322  17.592  20.717   0.338
89255W        W56323  33.527   1.796   0.469
89256W        W56324  28.969  14.714  13.530
89257W        W56325  17.070  18.056   1.331
89258W        W56326  27.502  41.962  12.364
89259W        W56327  17.676  17.699  11.399
89260W        W56328  22.651   6.680   0.818
89261W        W56329   7.288   5.817   2.228
89262W        W56330  11.814   7.378  14.997
89263W        W56331  15.672  37.514   1.863
89264W        W56332  19.150  41.397   1.726
89265W        W56333  34.047   7.203  13.954
89266W        W56334  21.069  13.316   3.691
89267W        W56335   0.822  27.612  13.398
89268W        W56336  31.422  37.932  12.388
89269W        W56337   9.218   0.823  11.059
89270W        W56338  10.314  40.373  14.394
89271W        W56339  10.296  38.993   2.304
89272W        W56340  23.233  37.524  14.350
89273W        W56341  23.001   1.815  12.839
89274W        W56342  36.586  10.355  10.117
89275W        W56343  20.130  41.892  10.407
89276W        W56344   4.412  30.658   2.290
89277W        W56345  28.147  10.873   3.262
89278W        W56346  14.117  28.081   3.681
89279W        W56347  12.235  23.503  10.591
89280W        W56348  44.425  27.079  13.802
89281W        W56349  35.541  21.136  10.578
89282W        W56350  14.177  36.946  10.917
89283W        W56351  10.706  43.953   3.166
89284W        W56352  19.251  20.581   4.127
89285W        W56353  36.961   5.922   4.116
89286W        W56354   2.887  15.152  14.913
89287W        W56355  42.904  14.794  13.378
89288W        W56356  20.029  15.581   2.666
89289W        W56357   6.341  10.332  13.385
89290W        W56358   4.939  28.946  12.567
89291W        W56359  34.952  25.496   0.401
89292W        W56360   1.342  33.950   3.360
89293W        W56361  27.096  36.086  12.039
89294W        W56362  40.846   3.725  14.848
89295W        W56363  36.420  17.115  13.902
89296W        W56364  10.682  22.051   3.210
89297W        W56365  43.341  41.936   4.341
89298W        W56366  23.989   3.218  13.901
89299W        W56367   6.349  35.870   5.196
89300W        W56368  24.697   4.812   1.244
89301W        W56369  25.621  25.161  11.951
89302W        W56370  27.071  17.767   1.383
89303W        W56371  31.605  10.720  13.484
89304W        W56372   9.643  39.874  14.357
89305W        W56373  24.026  35.530  10.975
89306W        W56374  38.334  16.077  11.505
89307W        W56375   6.330  12.629  13.030
89308W        W56376  28.484   7.251  14.939
89309W        W56377  22.688   4.304   4.176
89310W        W56378  25.963  22.511   2.262
89311W        W56379  41.507  43.439  13.865
89312W        W56380   6.319  10.829   0.430
89313W        W56381  24.131  26.020  12.930
89314W        W56382  22.709  26.483  14.376
89315W        W56383  12.694  12.807  10.456
89316W        W56384   2.400   1.405   1.914
89317W        W56385   8.320   9.665   0.467
89318W        W56386  12.309  31.647   1.775
89319W        W56387  41.805  37.983   0.910
89320W        W56388  18.055  16.185   0.259
89321W        W56389  18.076  27.189  12.374
89322W        W56390  35.953   7.905   4.819
89323W        W56391   0.811  27.650  14.325
89324W        W56392  32.420  29.428   2.808
89325W        W56393  12.116  44.792   2.751
89326W        W56394   0.969  13.314   2.827
89327W        W56395  23.009   3.379  10.953
89328W        W56396  25.161  26.661   4.685
89329W        W56397  17.651  22.623  14.978
89330W        W56398  26.014  22.227  13.848
89331W        W56399  30.590  23.101  11.539
89332W        W56400  22.251   9.705   1.375
89333W        W56401  38.424   0.770   4.695
89334W        W56402  23.133  21.535   2.713
89335W        W56403   2.738   0.880   4.220
89336W        W56404  23.578  33.018   3.354
89337W        W56405  32.481  44.491   2.822
89338W        W56406  10.792  27.027   1.867
89339W        W56407  37.858  43.296   4.789
89340W        W56408  10.220  39.457  11.546
89341W        W56409  21.114  23.577  12.347
89342W        W56410  39.996  40.398  14.882
89343W        W56411  33.963  17.260  10.617
89344W        W56412  23.593  36.864   3.163
89345W        W56413  22.030   3.733   3.181
89346W        W56414   3.339  37.435  14.407
89347W        W56415  40.911   4.400   0.452
89348W        W56416   2.854   1.760   0.445
89349W        W56417  22.233  26.556   0.306
89350W        W56418  40.855   0.846  12.424
89351W        W56419  40.423   4.942   0.288
89352W        W56420   4.820   1.889   4.812
89353W        W56421  23.984   5.849  12.355
89354W        W56422   7.793  30.120   1.227
89355W        W56423  20.116  16.106  13.841
89356W        W56424  15.622   8.345   2.366
89357W        W56425  22.163  12.687   3.759
89358W        W56426  33.580  28.471   2.669
89359W        W56427  17.717   1.297  11.933
89360W        W56428   5.922  19.777   2.681
89361W        W56429  37.439  14.665   1.847
89362W        W56430  28.998  27.582  14.798
89363W        W56431  31.446  22.659  14.765
89364W        W56432  43.282  31.429  10.621
89365W        W56433  42.521   1.369   0.433
89366W        W56434   0.856  44.274  14.854
89367W        W56435   1.415  30.024  12.031
89368W        W56436  37.951   8.279  12.015
89369W        W56437  40.410  18.718   1.889
89370W        W56438  34.505   5.193   1.296
89371W        W56439  36.357  27.607   3.754
89372W        W56440  38.838  29.046  12.542
89373W        W56441   7.791  42.293  14.776
89374W        W56442  20.065  31.936   2.183
89375W        W56443  13.223  15.251   3.757
89376W        W56444  26.588  18.070  12.448
89377W        W56445  43.946   6.778   3.727
89378W        W56446  22.588  13.697  13.390
89379W        W56447  44.909   7.369  13.357
89380W        W56448  39.038  44.781   3.782
89381W        W56449   0.985  13.790   3.304
89382W        W56450   3.916  10.230   4.623
89383W        W56451  24.618  44.831   1.748
89384W        W56452   2.357  37.509   9.982
89385W        W56453  32.081   0.404  13.028
89386W        W56454  44.262  19.662   0.924
89387W        W56455  39.345  15.316  10.424
89388W        W56456  43.937  36.591   1.857
89389W        W56457  12.720  27.014  10.519
89390W        W56458  14.156  27.018  12.540
89391W        W56459  27.580   0.398   4.729
89392W        W56460  28.479   2.808   2.697
89393W        W56461  25.107  30.613  12.081
89394W        W56462  42.823  43.307  13.340
89395W        W56463  20.103  28.473   1.447
89396W        W56464  18.228  37.495   2.880
89397W        W56465  22.711  32.586   4.630
89398W        W56466  23.110  39.851  14.503
89399W        W56467  14.287  30.522   1.451
89400W        W56468  22.112  21.543   2.399
89401W        W56469  20.762  19.068   1.377
89402W        W56470  20.525   8.707  14.278
89403W        W56471  39.063   7.380   2.373
89404W        W56472   2.946   8.893  14.436
89405W        W56473  33.916  19.707  12.580
89406W        W56474   8.204  24.489  14.780
89407W        W56475   8.867   3.835   1.864
89408W        W56476  39.467   5.746   3.785
89409W        W56477  32.613  32.399  13.885
89410W        W56478  28.178   2.756   2.719
89411W        W56479  39.333  29.530  13.483
89412W        W56480  33.006   6.289   0.811
89413W        W56481  37.524  13.229   3.342
89414W        W56482  19.640  34.467   3.707
89415W        W56483  10.371  15.820   3.842
89416W        W56484  37.955  40.935  11.374
89417W        W56485  39.454  38.831  13.422
89418W        W56486  26.579  24.539  10.545
89419W        W56487  24.186   6.908   0.328
89420W        W56488   4.899  34.607  13.020
89421W        W56489  44.764   1.832   3.178
89422W        W56490  28.498  33.932  11.456
89423W        W56491   2.395  43.337  10.532
89424W        W56492   8.220  35.470  13.351
89425W        W56493  40.362  10.169   1.771
89426W        W56494  21.097  16.108  12.892
89427W        W56495  30.524  38.459   2.738
89428W        W56496  16.136  24.674  12.451
89429W        W56497   3.912  23.596  10.574
89430W        W56498  22.151  44.374  13.336
89431W        W56499  43.513  33.520   1.834
89432W        W56500   4.243   6.839   1.755
89433W        W56501  28.062  38.461  13.424
89434W        W56502  23.071   0.892   3.807
89435W        W56503  36.476  18.593   3.839
89436W        W56504  21.717  42.877  14.842
89437W        W56505  27.484  29.107  12.393
89438W        W56506  42.363  26.024  14.294
89439W        W56507  40.367  24.226   1.800
89440W        W56508  34.997  42.427  13.399
89441W        W56509  12.719  37.982   1.288
89442W        W56510  14.251  35.907   1.806
89443W        W56511  13.138  38.034   4.344
89444W        W56512  28.007   3.761  11.858
89445W        W56513  20.568   1.357   3.733
89446W        W56514   8.393  13.839   4.827
89447W        W56515  13.122  43.321  11.459
89448W        W56516  21.608  28.936  13.816
89449W        W56517   8.790   9.184  13.853
89450W        W56518  14.718  22.182   2.296
89451W        W56519  39.973  18.153  12.089
89452W        W56520   0.398  30.568  13.900
89453W        W56521  16.121  28.994  12.912
89454W        W56522  42.810  15.766  11.463
89455W        W56523  27.128   2.440   2.325
89456W        W56524  20.603  29.600  12.371
89457W        W56525  36.531  13.267   3.377
89458W        W56526  37.080  17.141  12.941
89459W        W56527  43.852  44.828   4.185
89460W        W56528  37.054  31.089  14.910
89461W        W56529  18.648   1.926  10.100
89462W        W56530  23.708  22.033   3.313
89463W        W56531   5.231  21.026  10.461
89464W        W56532  10.656  33.922   2.404
89465W        W56533   8.168   6.908  11.446
89466W        W56534  18.177  20.715  11.050
89467W        W56535  32.555   6.309   3.734
89468W        W56536  17.760  40.469   3.363
89469W        W56537  27.468  18.147   3.670
89470W        W56538   0.966  42.889  10.542
89471W        W56539   8.722  33.570   4.352
89472W        W56540  19.086  32.925  12.548
89473W        W56541   5.694  18.614  13.821
89474W        W56542   5.705  25.501  12.927
89475W        W56543   0.800  44.958   1.732
89476W        W56544  41.427  26.521  11.409
89477W        W56545  14.641  43.418  12.986
89478W        W56546   5.386  29.113  14.824
89479W        W56547  18.209  40.025   4.281
89480W        W56548   0.406  36.447   2.345
89481W        W56549  31.930  24.534   5.632
89482W        W56550  33.476  36.918  11.003
89483W        W56551  35.499  25.079   2.188
89484W        W56552   7.389  22.038   3.716
89485W        W56553  26.206  41.473   2.256
89486W        W56554  20.234  12.834   9.991
89487W        W56555   7.182   5.928   0.910
89488W        W56556  10.804   8.245  12.484
89489W        W56557  10.791  13.763  12.042
89490W        W56558  21.108  18.613   3.785
89491W        W56559  18.187  27.558  12.467
89492W        W56560  33.063  35.952  14.880
89493W        W56561  37.460  29.452   4.207
89494W        W56562  36.968  17.724   1.770
89495W        W56563   5.836  30.485   3.661
89496W        W56564  14.187   9.266  11.954
89497W        W56565   8.406  14.675   1.899
89498W        W56566  11.840   2.295  11.962
89499W        W56567   7.269  25.567  13.990
89500W        W56568  17.234  19.721   2.712
89501W        W56569  28.601   5.904   3.224
89502W        W56570  19.155  12.123   3.711
89503W        W56571  19.662   5.825  11.605
89504W        W56572  34.438  29.002   4.277
89505W        W56573  42.509  17.586  12.394
89506W        W56574  24.136  26.489   4.159
89507W        W56575  27.467  40.315  11.115
89508W        W56576  16.145  11.788   4.143
89509W        W56577  22.181  18.743  12.528
89510W        W56578  32.494  39.004   3.146
89511W        W56579   2.388  41.005   4.185
89512W        W56580  35.456  43.894  14.515
89513W        W56581   4.859  12.695   1.795
89514W        W56582  31.622  41.827   2.316
89515W        W56583  24.526  20.059   1.722
89516W        W56584   4.252  27.012  14.848
89517W        W56585   4.834  31.621   4.353
89518W        W56586  33.974  28.112  14.952
89519W        W56587   6.835  17.645   2.393
89520W        W56588  41.872  11.296   3.380
89521W        W56589   4.779  43.416   3.718
89522W        W56590  43.500  17.102   0.827
89523W        W56591  12.776  31.470   1.278
89524W        W56592  35.895  13.662  13.421
89525W        W56593  37.952  34.422   1.283
89526W        W56594  33.075  23.634   0.395
89527W        W56595  30.923  38.893  14.364
89528W        W56596  19.671  19.551  14.478
89529W        W56597  21.514  38.039  14.468
89530W        W56598  10.802  38.458  12.091
89531W        W56599  26.664  24.676   2.704
89532W        W56600  17.685  17.586  13.792
89533W        W56601  37.467   4.280  14.472
89534W        W56602   4.723  39.511   2.368
89535W        W56603  31.581  36.951  12.445
89536W        W56604  17.725  39.485  13.443
89537W        W56605   6.351  37.964   3.848
89538W        W56606  14.641  10.782   1.921
89539W        W56607  36.423  11.683  13.404
89540W        W56608  18.163  27.520   3.367
89541W        W56609  14.644  25.585  10.978
89542W        W56610  16.133  23.000  14.407
89543W        W56611  13.209  30.534  13.881
89544W        W56612  10.192  31.519  12.501
89545W        W56613   3.382  28.019   1.293
89546W        W56614  16.080  28.518   0.903
89547W        W56615   3.226   1.761   2.180
89548W        W56616  24.587  43.942  10.566
89549W        W56617  37.047  30.944   0.443
89550W        W56618   7.399  35.484  14.332
89551W        W56619  42.806  28.631   2.243
89552W        W56620  30.123  37.380   3.185
89553W        W56621   0.430  39.025   3.247
89554W        W56622  29.578  17.734  13.826
89555W        W56623  43.866  38.563   4.664
89556W        W56624  34.979  37.968  10.406
89557W        W56625   4.737  10.835   1.885
89558W        W56626   6.354  41.024  12.440
89559W        W56627  39.986   0.391  12.410
89560W        W56628  40.810  40.323  12.989
89561W        W56629   0.762  43.341   1.792
89562W        W56630  10.244  17.171   5.179
89563W        W56631  25.662  10.216   3.174
89564W        W56632  13.285  17.204  11.408
89565W        W56633  23.508   2.810   4.206
89566W        W56634  34.487  26.616   3.771
89567W        W56635  28.181  19.584  12.547
89568W        W56636   2.382  40.499  11.398
89569W        W56637   3.925  30.003   1.863
89570W        W56638  23.570  21.648   4.737
89571W        W56639  12.784  22.685  12.024
89572W        W56640  43.906  27.524  11.424
89573W        W56641  30.611  32.398  10.008
89574W        W56642  11.681  35.971   4.221
89575W        W56643  32.099  23.536  11.533
89576W        W56644  32.922   9.854   3.725
89577W        W56645  22.567  14.815  13.952
89578W        W56646  37.881  30.465   3.813
89579W        W56647  26.113  19.071   3.666
89580W        W56648   4.861  27.548   3.353
89581W        W56649  42.451  22.632   4.187
89582W        W56650  29.564  22.043  11.968
89583W        W56651  24.634  30.983  12.987
89584W        W56652  28.650  34.538   1.406
89585W        W56653  44.848   3.763   2.732
89586W        W56654  20.052   4.244  13.903
89587W        W56655  40.452   6.805   0.839
89588W        W56656  16.714   0.350   1.735
89589W        W56657  13.327   8.266   3.868
89590W        W56658  23.046  33.908  13.051
89591W        W56659   6.732  11.725   2.856
89592W        W56660  29.569   5.197   3.346
89593W        W56661   7.886  14.643  14.800
89594W        W56662  30.001  11.703  13.327
89595W        W56663  17.708  11.348  13.808
89596W        W56664   9.887   2.292   1.236
89597W        W56665  40.010  18.268  11.007
89598W        W56666   7.318   3.404   4.783
89599W        W56667  34.947  39.936  12.543
89600W        W56668  36.057  18.708  13.487
89601W        W56669   1.878  27.973   1.817
89602W        W56670  20.617  14.219  11.033
89603W        W56671  42.419   5.695  11.490
89604W        W56672  39.537  44.379   4.197
89605W        W56673  37.563  30.551   3.694
89606W        W56674  16.265  17.287   1.262
89607W        W56675  43.915  10.195  11.383
89608W        W56676  28.932  28.954   3.709
89609W        W56677  20.556   5.206  10.906
89610W        W56678   3.380  21.083  14.329
89611W        W56679  43.310  42.476  10.449
89612W        W56680  16.804  18.132   5.197
89613W        W56681  42.345  34.502  11.594
89614W        W56682  34.104  16.636   1.306
89615W        W56683  31.552  39.977  14.392
89616W        W56684   1.807  15.819  12.406
89617W        W56685  22.535  36.037  14.465
89618W        W56686  25.981  44.902   3.378
89619W        W56687  38.417  10.303  11.076
89620W        W56688  25.646  41.886  11.064
89621W        W56689  40.814  13.154  12.995
89622W        W56690  10.758  23.039  13.985
89623W        W56691   1.431   5.778  10.615
89624W        W56692   6.722  20.258   1.395
89625W        W56693  43.893  37.960  13.862
89626W        W56694  26.614  14.738  12.508
89627W        W56695  14.750  31.998  13.028
89628W        W56696   2.840  27.076   4.721
89629W        W56697  25.172  25.176  11.524
89630W        W56698  42.354  22.644   3.262
89631W        W56699  34.099  28.540   3.241
89632W        W56700  10.778   1.273  13.049
89633W        W56701  17.673  42.469   2.344
89634W        W56702  38.981  25.216   4.117
89635W        W56703  28.547  35.922  11.450
89636W        W56704   4.238  37.952   2.312
89637W        W56705  34.434  26.060   5.700
89638W        W56706   2.921  41.335  13.425
89639W        W56707  37.438  36.377   0.790
89640W        W56708  19.075  31.535   0.302
89641W        W56709  34.474  40.401  14.859
89642W        W56710  14.814  44.403   3.864
89643W        W56711   8.289  12.188   3.191
89644W        W56712   6.779   0.863  10.516
89645W        W56713  22.133  39.542   4.345
89646W        W56714   7.683  15.607  14.365
89647W        W56715  29.945  31.070   3.822
89648W        W56716   3.429  37.887  13.493
89649W        W56717  18.783  26.130   0.893
89650W        W56718  37.406  36.512   3.235
89651W        W56719  27.617  27.145  13.395
89652W        W56720   4.776  24.011  13.539
89653W        W56721  36.958  10.779   0.469
89654W        W56722  40.326  40.909  14.909
89655W        W56723  30.532  38.333   3.792
89656W        W56724  23.126   9.780  13.055
89657W        W56725   4.271  20.196   3.857
89658W        W56726  10.241  22.624  14.771
89659W        W56727  30.475  28.070   1.763
89660W        W56728   9.289   7.682   3.862
89661W        W56729   2.287  18.726   4.712
89662W        W56730  19.260  23.194  10.529
89663W        W56731  20.082  16.577   3.702
89664W        W56732  18.585   8.790   3.209
89665W        W56733   3.773  11.251   1.340
89666W        W56734  36.917  16.082   3.760
89667W        W56735  32.454  41.039  13.029
89668W        W56736  23.706  40.507   4.618
89669W        W56737  13.333   5.838   0.905
89670W        W56738   9.174  37.511   3.769
89671W        W56739  26.145  14.748   3.272
89672W        W56740   8.366   5.298  11.050
89673W        W56741  32.056   3.828  13.909
89674W        W56742  17.144  32.111   0.895
89675W        W56743  33.391   2.935   3.222
89676W        W56744  15.211  11.310   5.094
89677W        W56745  13.343  42.504  13.507
89678W        W56746  37.973   3.279   1.849
89679W        W56747  29.027  37.457  10.934
89680W        W56748   1.774  18.179   0.950
89681W        W56749  26.579  39.953  14.471
89682W        W56750  24.486  19.640   0.362
89683W        W56751  43.806   5.866   1.310
89684W        W56752   5.367  23.611   2.352
89685W        W56753  14.714  22.066   4.259
89686W        W56754  13.680  20.088   0.275
89687W        W56755  26.135  22.068   4.319
89688W        W56756  41.392  43.825  10.585
89689W        W56757  36.347  38.447  11.907
89690W        W56758   8.662  34.381   2.865
89691W        W56759  35.415  28.941  14.802
89692W        W56760  38.408  39.935  13.036
89693W        W56761   7.830  28.004   4.119
89694W        W56762  36.503  26.020  11.905
89695W        W56763  29.658  19.668  13.527
89696W        W56764   5.268  39.550  10.894
89697W        W56765  25.175  33.517   2.352
89698W        W56766  21.058  36.876   0.464
89699W        W56767  30.984  42.985  11.453
89700W        W56768  42.306  36.545   4.783
89701W        W56769  25.107  32.608   0.759
89702W        W56770  23.175  36.360   1.450
89703W        W56771  21.638   6.252  14.897
89704W        W56772   6.343  19.259   4.811
89705W        W56773  41.795   0.334  13.897
89706W        W56774  28.937  14.826  12.063
89707W        W56775  32.614  36.531  14.460
89708W        W56776   0.373  15.100   4.658
89709W        W56777  39.498  44.385  13.962
89710W        W56778   5.887  39.378   0.803
89711W        W56779  22.167  28.060   0.868
89712W        W56780  22.577  41.292  14.970
89713W        W56781  43.471  25.014   4.284
89714W        W56782  11.852  23.708   1.345
89715W        W56783  38.551  43.005  10.958
89716W        W56784  34.869   2.917   3.166
89717W        W56785   6.357  21.170   1.215
89718W        W56786  32.581  17.182  10.470
89719W        W56787  10.274  22.608  11.048
89720W        W56788  36.575  38.355   4.626
89721W        W56789  21.736  20.120   1.802
89722W        W56790  34.044  18.259  11.986
89723W        W56791  19.575  31.638  11.879
89724W        W56792  32.411   7.877  11.390
89725W        W56793  32.071   5.878   0.743
89726W        W56794   7.343   0.795  10.602
89727W        W56795  13.336  23.491   4.731
89728W        W56796  27.506  16.190  12.036
89729W        W56797  25.962  11.328  14.922
89730W        W56798  34.460  10.330  13.332
89731W        W56799   8.895  36.513   1.875
89732W        W56800   3.329  11.127  14.775
89733W        W56801  24.195  29.612   1.360
89734W        W56802  18.235  19.188  10.529
89735W        W56803   2.803  10.808  11.481
89736W        W56804  23.636  38.348   4.813
89737W        W56805   3.251  42.417  12.964
89738W        W56806   1.849  24.480   4.617
89739W        W56807  27.517  18.554  13.881
89740W        W56808  11.805   9.740  11.966
89741W        W56809  43.951  11.245  14.378
89742W        W56810  26.104  30.972  14.787
89743W        W56811  37.086  43.390   3.326
89744W        W56812  16.235   8.804  12.844
89745W        W56813  44.951  36.918   0.409
89746W        W56814  24.995  36.393  11.012
89747W        W56815  15.263  22.569   3.849
89748W        W56816  42.349  44.890   3.260
89749W        W56817  40.498  14.770  11.535
89750W        W56818  40.344  32.135   4.307
89751W        W56819  32.922  31.030  11.414
89752W        W56820   1.894   8.255  14.763
89753W        W56821   8.788  36.571  10.487
89754W        W56822  29.502   5.332  11.382
89755W        W56823   3.737  18.288   4.119
89756W        W56824   5.272  33.574   0.926
89757W        W56825  30.155  32.615   2.250
89758W        W56826  20.252  18.261  13.363
89759W        W56827  19.765  34.081   3.824
89760W        W56828   9.301  27.684  12.386
89761W        W56829  32.397  22.561  11.949
89762W        W56830  17.092  30.998   2.205
89763W        W56831  29.599  27.071   0.755
89764W        W56832  42.383  20.235  11.599
89765W        W56833  12.283  36.095  11.417
89766W        W56834  24.618  14.748  12.008
89767W        W56835  22.696  21.701   2.305
89768W        W56836  23.624  36.467   0.247
89769W        W56837  24.138  18.139   3.790
89770W        W56838  14.236  21.061  14.418
89771W        W56839  36.969  15.615  10.523
89772W        W56840  19.739  14.628   1.285
89773W        W56841   1.808  24.491  10.999
89774W        W56842  13.837   7.758  13.852
89775W        W56843  30.983  40.428   3.731
89776W        W56844   8.900  14.676  11.127
89777W        W56845  25.212  10.267   4.701
89778W        W56846  15.091  30.444  14.014
89779W        W56847  35.971  25.514  11.498
89780W        W56848  34.925  11.694  13.458
89781W        W56849  36.372   6.870   3.164
89782W        W56850  11.149  33.993   2.716
89783W        W56851  29.497  16.670   2.882
89784W        W56852  28.090  36.473   2.808
89785W        W56853  19.248  33.084  13.372
89786W        W56854  28.074  21.622  14.433
89787W        W56855  39.384   2.862  10.448
89788W        W56856  36.950   8.746  13.388
89789W        W56857  11.649  16.185  13.347
89790W        W56858  31.918  31.490   1.259
89791W        W56859  19.269  18.593   4.758
89792W        W56860  16.774  10.380  13.347
89793W        W56861  21.031   0.356  10.984
89794W        W56862  23.989  16.210   1.304
89795W        W56863  19.171   4.879   9.963
89796W        W56864  38.960  20.108  10.521
89797W        W56865  35.063  13.798   1.822
89798W        W56866  19.672  38.822  12.500
89799W        W56867  38.864  33.918   0.393
89800W        W56868  17.768   4.357  14.905
89801W        W56869  38.940   4.245  13.805
89802W        W56870  27.468  24.515  11.489
89803W        W56871  23.151   0.771  11.965
89804W        W56872  43.279  16.648   2.807
89805W        W56873  16.273  31.957  14.953
89806W        W56874  14.604   5.771   3.145
89807W        W56875  30.151  26.572  10.017
89808W        W56876  33.487  24.505  13.505
89809W        W56877  40.042  42.476  10.910
89810W        W56878   9.708  16.672   1.711
89811W        W56879  24.039   1.271   0.869
89812W        W56880  13.253  34.597  11.434
89813W        W56881  43.318  32.055   3.168
89814W        W56882  35.033   3.747  11.112
89815W        W56883  31.126  36.450  13.978
89816W        W56884  41.366  20.549  11.423
89817W        W56885  17.128  14.124   2.883
89818W        W56886   5.833  16.248   4.720
89819W        W56887   9.305  21.566   0.748
89820W        W56888  20.249   1.253  11.995
89821W        W56889  22.201  14.791   3.741
89822W        W56890  40.492  38.491  14.770
89823W        W56891   3.813  44.391  10.905
89824W        W56892  31.137  32.452  14.890
89825W        W56893  16.646  32.058  12.858
89826W        W56894  41.296  44.836   2.212
89827W        W56895  32.611   3.340   1.721
89828W        W56896  36.040  37.926   2.794
89829W        W56897   0.808   3.423  12.960
89830W        W56898   8.261  37.975   0.766
89831W        W56899  33.023   2.293  12.480
89832W        W56900  27.520   3.452   1.698
89833W        W56901  29.022  27.479   2.783
89834W        W56902  33.614  13.169  14.365
89835W        W56903  24.681   9.221   3.255
89836W        W56904  44.842  11.692  12.477
89837W        W56905   3.274  10.866   0.454
89838W        W56906  22.606  18.136   2.200
89839W        W56907  35.528  24.997   1.805
89840W        W56908  33.920   2.787  13.806
89841W        W56909   5.319   4.311  10.406
89842W        W56910  17.092   4.938   3.647
89843W        W56911  41.805  21.234   0.271
89844W        W56912  43.929  13.115  11.940
89845W        W56913  23.180   3.418  14.288
89846W        W56914  26.196  34.535  11.125
89847W        W56915  12.315  39.820  14.805
89848W        W56916  33.491   8.209  12.394
89849W        W56917  27.461  33.542  11.997
89850W        W56918  25.151  22.229   4.820
89851W        W56919   9.335  20.125   4.306
89852W        W56920  33.612  37.939  14.433
89853W        W56921  26.089  28.178  14.893
89854W        W56922  12.611  40.804   1.728
89855W        W56923  30.469  23.719   2.366
89856W        W56924   0.255  29.603   3.688
89857W        W56925  20.585   5.216  11.608
89858W        W56926  39.540  39.436   1.424
89859W        W56927   7.234   3.458   0.334
89860W        W56928  23.224   8.359   2.889
89861W        W56929   8.809  41.940   0.468
89862W        W56930  36.917  42.778  10.992
89863W        W56931  17.635  43.482   1.402
89864W        W56932  25.189  18.604  12.574
89865W        W56933  15.756  42.425   1.260
89866W        W56934  15.207  22.243   1.213
89867W        W56935  42.431  36.984  12.831
89868W        W56936   6.732  44.902   3.284
89869W        W56937   4.722  28.967   2.246
89870W        W56938   0.361  34.019  13.498
89871W        W56939  25.094  13.782  10.616
89872W        W56940  10.367  19.151   3.327
89873W        W56941   7.810  19.043   3.702
89874W        W56942  40.477  39.381  13.383
89875W        W56943  26.017  21.029   0.256
89876W        W56944  27.171  27.581  12.897
89877W        W56945  44.822  13.673   3.166
89878W        W56946  12.723  13.843   0.313
89879W        W56947   1.911  39.913   0.279
89880W        W56948  44.877  36.428   1.447
89881W        W56949  31.640  22.063  12.450
89882W        W56950   3.768  31.922   0.856
89883W        W56951  13.330   7.298   1.225
89884W        W56952  39.054  29.537   3.148
89885W        W56953  32.072   8.684  10.036
89886W        W56954  38.482  35.903   3.734
89887W        W56955  26.680  26.643  11.922
89888W        W56956  11.177  41.509  12.413
89889W        W56957  19.558   6.848  11.028
89890W        W56958  14.733  18.272  11.013
89891W        W56959  44.964  43.352  10.614
89892W        W56960   6.236  23.663   2.276
89893W        W56961  17.229  33.082   1.894
89894W        W56962  19.591  28.159  10.643
89895W        W56963  21.115  36.915   1.874
89896W        W56964  43.406   5.742   1.791
89897W        W56965  37.995  14.102  11.535
89898W        W56966   4.446   6.270   0.829
89899W        W56967  26.613  15.660   3.229
89900W        W56968   1.846  34.912   3.197
89901W        W56969  18.289  29.601   1.433
89902W        W56970   7.799  38.987  12.016
89903W        W56971  24.973  37.444   1.822
89904W        W56972  26.600  19.124   0.849
89905W        W56973  40.902   7.334   3.810
89906W        W56974  23.050   9.237  14.824
89907W        W56975   8.838  13.757  12.938
89908W        W56976  10.276  21.080  14.330
89909W        W56977  19.550   3.775   2.382
89910W        W56978  15.316  18.575   0.880
89911W        W56979  19.071  37.010  13.530
89912W        W56980  11.348  40.470  12.989
89913W        W56981  23.111   7.855   2.247
89914W        W56982  22.673  32.542   0.357
89915W        W56983   1.481   6.297   4.233
89916W        W56984  33.620  27.557   0.321
89917W        W56985  16.243   0.815   4.307
89918W        W56986   7.177   7.407   3.378
89919W        W56987   7.836  42.395   4.330
89920W        W56988  32.418  30.060  11.056
89921W        W56989  39.550  24.181   1.428
89922W        W56990   4.420  40.398  13.938
89923W        W56991  10.360  12.166  10.985
89924W        W56992  16.164  16.583  12.474
89925W        W56993   5.716  21.209  12.414
89926W        W56994  44.820  26.067  14.282
89927W        W56995  43.909  34.450   4.732
89928W        W56996  38.913   9.214   2.840
89929W        W56997  42.952   4.304  14.945
89930W        W56998  22.742  29.048   4.206
89931W        W56999  38.889   5.793  10.027
89932W        W57000  27.575  41.841   3.379
89933W        W57001  43.927  13.754  13.416
89934W        W57002  30.998   2.414   1.798
89935W        W57003  38.527  44.955  12.515
89936W        W57004   2.822   4.941  12.552
89937W        W57005   5.301  16.311  14.464
89938W        W57006  44.834  34.432  11.474
89939W        W57007  14.159  10.207  11.072
89940W        W57008  41.458  13.690   3.367
89941W        W57009  41.893  44.003   1.353
89942W        W57010  35.553  28.182   3.826
89943W        W57011  42.330  27.534  14.302
89944W        W57012  40.349  39.466  11.955
89945W        W57013  32.974  43.908   2.224
89946W        W57014  31.532  21.208   3.742
89947W        W57015  39.508   2.919  10.955
89948W        W57016  26.589   3.364  14.768
89949W        W57017   4.896  11.837  11.498
89950W        W57018  31.959  43.270  14.316
89951W        W57019  11.636   0.426  14.375
89952W        W57020  36.496  25.216   5.285
89953W        W57021  24.697  20.715   3.846
89954W        W57022  16.738   0.458   4.275
89955W        W57023  41.918  35.067  10.610
89956W        W57024   5.282   7.272  13.943
89957W        W57025  42.014  27.077  12.478
89958W        W57026  24.987  18.613  14.344
89959W        W57027   0.291  40.501  10.416
89960W        W57028  41.893   8.813   2.290
89961W        W57029  34.562   9.720  12.898
89962W        W57030  28.618  20.034   3.809
89963W        W57031  20.244  14.142   2.885
89964W        W57032  24.693  12.337   4.262
89965W        W57033  26.561  40.322  14.512
89966W        W57034  16.622  42.814   1.868
89967W        W57035  20.588  28.540  11.054
89968W        W57036  33.543   4.217   0.776
89969W        W57037  39.460  21.096  11.909
89970W        W57038  42.426  18.776   4.655
89971W        W57039  21.065  28.478   0.897
89972W        W57040   9.310  18.588   4.742
89973W        W57041   3.712   2.348  13.967
89974W        W57042  38.003  22.034  12.341
89975W        W57043  21.030  33.874  10.405
89976W        W57044  27.472  14.632   2.400
89977W        W57045  39.873  20.212   2.291
89978W        W57046  33.943  20.639   2.853
89979W        W57047  30.657   4.208   0.473
89980W        W57048  32.053  22.026   0.429
89981W        W57049   1.476  12.271  13.431
89982W        W57050  18.593  34.910   3.794
89983W        W57051  16.577  34.102  14.460
89984W        W57052   3.237  20.737   0.932
89985W        W57053   3.409   7.253   2.244
89986W        W57054   3.427  34.076   4.771
89987W        W57055  34.929  19.581  13.371
89988W        W57056  25.485   3.273   3.679
89989W        W57057   6.857  19.279   2.201
89990W        W57058   4.330  22.154  10.980
89991W        W57059   0.263  23.199  13.544
89992W        W57060  30.070  16.581  13.874
89993W        W57061  37.567  26.105   0.443
89994W        W57062  26.507  14.318  13.311
89995W        W57063   9.708   2.270   3.183
89996W        W57064  24.696  44.884   4.132
89997W        W57065  13.617  41.912   2.338
89998W        W57066  38.845   6.318  12.915
89999W        W57067  40.961  29.522   0.256
90000W        W57068   4.325  37.080  13.046
90001W        W57069  24.974  43.862  14.789
90002W        W57070   5.440  33.039  11.502
90003W        W57071  35.570  36.058  14.776
90004W        W57072   1.385  28.167   0.772
90005W        W57073  30.035  43.895  11.966
90006W        W57074   9.772  32.074  13.457
90007W        W57075  28.963  17.676   0.920
90008W        W57076  24.527  16.168  13.486
90009W        W57077  44.842  37.390  14.779
90010W        W57078  13.211  18.243   4.614
90011W        W57079  17.713  19.238   0.844
90012W        W57080   3.875  10.147   3.371
90013W        W57081  35.104  27.543  10.561
90014W        W57082   6.728  18.135   4.294
90015W        W57083  20.682   5.351   2.701
90016W        W57084  12.687   0.816  14.436
90017W        W57085  19.631  37.038   4.207
90018W        W57086  17.291  31.154   3.318
90019W        W57087  39.517  41.333  10.595
90020W        W57088  34.057  23.573   2.870
90021W        W57089  43.339  19.545  12.864
90022W        W57090  43.821  22.512   1.726
90023W        W57091  13.822  25.118   4.159
90024W        W57092  15.294  16.300   4.778
90025W        W57093   0.437  19.146   4.299
90026W        W57094  33.486  34.602   9.950
90027W        W57095   2.353  27.028  11.472
90028W        W57096  44.928  36.490   2.710
90029W        W57097  24.975  21.222   4.656
90030W        W57098  34.090  28.982  14.940
90031W        W57099  41.947   2.348   1.337
90032W        W57100  21.212  13.337  11.372
90033W        W57101  44.393  29.131   0.916
90034W        W57102   2.902  13.144   0.388
90035W        W57103  21.545  25.059  14.508
90036W        W57104  23.553   0.292   1.894
90037W        W57105   3.228   4.745   3.858
90038W        W57106  30.436  33.492   3.808
90039W        W57107   9.686   8.784   4.223
90040W        W57108   9.197  34.883   9.930
90041W        W57109  37.378  15.757   4.222
90042W        W57110   9.849  24.490  12.979
90043W        W57111  38.043  27.612   3.335
90044W        W57112   4.853   2.856  10.089
90045W        W57113  29.661   5.931   4.697
90046W        W57114   4.413   9.350  13.488
90047W        W57115  25.703  11.261   2.895
90048W        W57116  37.558  37.340   4.126
90049W        W57117   9.821  15.119   4.328
90050W        W57118  37.037  22.669   2.334
90051W        W57119  15.721  39.343   0.250
90052W        W57120  22.011  42.987  11.567
90053W        W57121  38.963   9.212   0.279
90054W        W57122  35.599  15.695   1.893
90055W        W57123  35.601  25.710  14.481
90056W        W57124  23.507   0.983   3.820
90057W        W57125  39.375  19.266   3.819
90058W        W57126  10.175   5.747  12.042
90059W        W57127  28.998  38.351   1.299
90060W        W57128  37.965  36.945  11.412
90061W        W57129   9.195   1.762  14.346
90062W        W57130  10.369  30.458  13.418
90063W        W57131  18.261  39.495  14.016
90064W        W57132  13.261  12.295   2.689
90065W        W57133  42.882  18.119  12.874
90066W        W57134  10.313  34.460   1.332
90067W        W57135  22.101  29.637   4.632
90068W        W57136  14.236  19.223   0.352
90069W        W57137  27.576   4.923   4.758
90070W        W57138  11.672  39.912   2.666
90071W        W57139  20.691   5.737  11.528
90072W        W57140  17.707  13.199  10.410
90073W        W57141  36.990  11.140  12.441
90074W        W57142   6.709  39.415  14.924
90075W        W57143  10.207  26.534  14.868
90076W        W57144  14.609  18.108  13.869
90077W        W57145  23.100  13.829   0.368
90078W        W57146  23.097   5.276  11.121
90079W        W57147   4.797  25.561   4.333
90080W        W57148  34.024  44.995  11.568
90081W        W57149  19.225   7.215   0.771
90082W        W57150  21.262  43.961   0.865
90083W        W57151  37.966  25.488  12.901
90084W        W57152  12.216   3.949  10.477
90085W        W57153  31.930  36.006   4.648
90086W        W57154  38.477  32.075  14.375
90087W        W57155  36.529   8.669   3.329
90088W        W57156   6.277  19.286   5.602
90089W        W57157  38.921   7.302  11.127
90090W        W57158  11.733  35.366  12.065
90091W        W57159  17.799  39.346  10.427
90092W        W57160  27.177  32.967  10.099
90093W        W57161  34.050   9.313  10.556
90094W        W57162  32.010  28.939  11.856
90095W        W57163   1.885  41.316  11.126
90096W        W57164  22.517  29.123  11.373
90097W        W57165   1.835   4.281   4.328
90098W        W57166  42.814   9.709  10.137
90099W        W57167   1.243  27.948   1.307
90100W        W57168  21.125  26.126  12.083
90101W        W57169  17.643  32.942   0.881
90102W        W57170  38.537  35.473  13.508
90103W        W57171  44.963  39.514   1.911
90104W        W57172  37.464  14.220   1.869
90105W        W57173   7.389  42.792   0.927
90106W        W57174  30.018   1.899  12.987
90107W        W57175  34.010  21.138  13.916
90108W        W57176  19.546  36.416   4.312
90109W        W57177  19.128   0.786  14.368
90110W        W57178  15.208  40.805  14.290
90111W        W57179  11.353  44.818   0.963
90112W        W57180   2.949  11.212   3.212
90113W        W57181  16.777   1.365  11.944
90114W        W57182  17.254   6.310  14.819
90115W        W57183  37.082  34.574   1.811
90116W        W57184  37.418   7.670   4.703
90117W        W57185   4.916  28.052   3.231
90118W        W57186   6.333  24.137  14.280
90119W        W57187  17.232   0.968  10.887
90120W        W57188   4.219   1.835  13.994
90121W        W57189   7.738  21.149  14.423
90122W        W57190  16.618  33.887  14.901
90123W        W57191  19.651  18.292  12.506
90124W        W57192   4.706  29.947   1.233
90125W        W57193  33.401  28.574   3.802
90126W        W57194  31.958  16.192  11.079
90127W        W57195   3.398  34.988  10.471
90128W        W57196   3.813   3.774   2.673
90129W        W57197  37.494  20.748   3.686
90130W        W57198   2.954  37.984   1.435
90131W        W57199  42.326   5.350  10.937
90132W        W57200  37.356   6.353   0.394
90133W        W57201  23.643   6.205   3.721
90134W        W57202  42.826  37.060  11.863
90135W        W57203  23.572   6.385  13.834
90136W        W57204  21.631  24.061   4.786
90137W        W57205  36.477  22.070   4.657
90138W        W57206  19.737  42.033  12.856
90139W        W57207  22.024  34.052   4.123
90140W        W57208   4.799  19.739  13.054
90141W        W57209  37.062   0.973  11.963
90142W        W57210  28.961   0.872  12.866
90143W        W57211   3.760   0.956   1.445
90144W        W57212   1.869  35.360   4.228
90145W        W57213  42.874  35.360   4.736
90146W        W57214  33.059  24.192  11.023
90147W        W57215  24.718  27.015  14.483
90148W        W57216  24.611  26.201  14.414
90149W        W57217   3.293   8.745   4.224
90150W        W57218  29.102  35.089  11.017
90151W        W57219  13.813  27.609  14.322
90152W        W57220   6.676  37.561   3.812
90153W        W57221  39.986  37.538   3.713
90154W        W57222  17.264  38.552  12.457
90155W        W57223  38.557  14.678   3.830
90156W        W57224  14.631  32.064  12.041
90157W        W57225  15.684  39.851   0.933
90158W        W57226  13.797  27.502  13.828
90159W        W57227   5.365  39.928   5.197
90160W        W57228   6.748  37.547  11.561
90161W        W57229  22.635   4.327   3.750
90162W        W57230  27.557  20.536  14.451
90163W        W57231   3.306  44.283   1.869
90164W        W57232  31.592  40.509  14.430
90165W        W57233   4.390  17.626   0.870
90166W        W57234  41.994  40.488  10.129
90167W        W57235   3.930  20.131  14.909
90168W        W57236   5.801   3.888   2.861
90169W        W57237  12.236  18.111  13.019
90170W        W57238  12.821  24.045  10.438
90171W        W57239   0.835  18.075   1.698
90172W        W57240   0.314   2.460   4.721
90173W        W57241  35.910  39.370   4.644
90174W        W57242  29.139  31.097   1.839
90175W        W57243  32.972   9.843  11.603
90176W        W57244  17.104   3.239  10.596
90177W        W57245   0.402  20.068   4.732
90178W        W57246  23.168  12.144   0.939
90179W        W57247  35.027  31.573  12.426
90180W        W57248   7.756   4.924   0.292
90181W        W57249  12.808  27.129  14.927
90182W        W57250  32.624  37.569  13.457
90183W        W57251  23.227  26.631  10.951
90184W        W57252  32.887  13.773  10.934
90185W        W57253  10.288  23.513   3.694
90186W        W57254   6.695   3.800   3.677
90187W        W57255  44.786  25.107  13.838
90188W        W57256  29.527  33.605  14.864
90189W        W57257   0.815  36.495  11.526
90190W        W57258   3.786   1.350  12.560
90191W        W57259  11.164  19.245   0.305
90192W        W57260  34.881  18.675  11.492
90193W        W57261  24.706  12.252  11.108
90194W        W57262   1.964  42.908   1.358
90195W        W57263  21.661   4.337  11.045
90196W        W57264  42.437  21.196  13.335
90197W        W57265  15.126  44.802  14.835
90198W        W57266  31.499  13.225   0.474
90199W        W57267  10.197  42.347   0.816
90200W        W57268  37.490   4.781   3.161
90201W        W57269  32.071   6.825   3.772
90202W        W57270  23.010   5.820   0.744
90203W        W57271  16.744  21.078   3.240
90204W        W57272  30.482  24.166  11.607
90205W        W57273   6.221  10.859   3.362
90206W        W57274   9.223   9.659   2.239
90207W        W57275   0.259  30.474   1.817
90208W        W57276  13.823  41.376  12.387
90209W        W57277  19.686  15.217   2.279
90210W        W57278   4.394   6.700   2.881
90211W        W57279  29.119   8.308  14.380
90212W        W57280  29.510   6.249  14.907
90213W        W57281  14.725  36.843  12.433
90214W        W57282  44.943  13.113  12.967
90215W        W57283  42.954  32.919  12.910
90216W        W57284  18.171  14.691   3.237
90217W        W57285  39.059   2.826  14.794
90218W        W57286  19.577  16.681  11.890
90219W        W57287  15.718  17.244   3.173
90220W        W57288   9.859  37.033   4.829
90221W        W57289  40.464  20.706   3.738
90222W        W57290  14.678  24.611   4.256
90223W        W57291  40.507  24.136  12.387
90224W        W57292  26.653  21.165  14.418
90225W        W57293  27.024  22.571  10.631
90226W        W57294   3.229  40.861   4.143
90227W        W57295  42.858  28.163   3.366
90228W        W57296  18.240  20.583  14.025
90229W        W57297   7.370  20.232   2.256
90230W        W57298  30.538  32.986   0.454
90231W        W57299  40.931  40.817   3.860
90232W        W57300  31.102   2.381  13.414
90233W        W57301   3.758  20.230   3.865
90234W        W57302  14.110   3.734  10.445
90235W        W57303  22.633  36.586   0.381
90236W        W57304  16.113  28.622  10.936
90237W        W57305  39.367  22.714   4.130
90238W        W57306  19.281   8.857   2.267
90239W        W57307  11.283  20.764   0.250
90240W        W57308  13.316  11.758   5.170
90241W        W57309   6.850   1.820  12.074
90242W        W57310  13.329  12.627   0.407
90243W        W57311   4.857  10.233   1.294
90244W        W57312  17.197  36.578   0.268
90245W        W57313  36.082  11.285  13.478
90246W        W57314  21.745  16.779   4.197
90247W        W57315  34.871  23.054   1.267
90248W        W57316  18.088  20.233  11.041
90249W        W57317  14.252  28.114  10.588
90250W        W57318  40.926  36.886   0.753
90251W        W57319   3.777  15.139   2.202
90252W        W57320  17.061  37.053   0.318
90253W        W57321  34.450  30.944   1.840
90254W        W57322  22.251   6.237   0.321
90255W        W57323  37.075  44.286  11.932
90256W        W57324   0.339  37.372  14.830
90257W        W57325  44.347   8.172  13.369
90258W        W57326  30.025  40.343  14.320
90259W        W57327  30.991  32.592  13.319
90260W        W57328  30.977  29.132  14.358
90261W        W57329   9.256  17.297  10.444
90262W        W57330  21.716  41.418  10.096
90263W        W57331   4.403   4.708   4.325
90264W        W57332  34.009  14.615  13.368
90265W        W57333  31.049  43.373   0.740
90266W        W57334   0.248   5.346   4.129
90267W        W57335  12.243   6.301  13.953
90268W        W57336  24.700  10.736  10.995
90269W        W57337  12.743   8.786   2.409
90270W        W57338  34.589  33.555   3.155
90271W        W57339  31.465  41.791  12.445
90272W        W57340  28.161  34.413  13.369
90273W        W57341  35.406   8.707  11.969
90274W        W57342   0.410  40.365   3.261
90275W        W57343   7.882   6.296   0.350
90276W        W57344  33.003  11.789   1.435
90277W        W57345  26.644  26.623   2.281
90278W        W57346  16.239  19.173   2.709
90279W        W57347   8.719  24.201   0.810
90280W        W57348  44.436  24.041   3.266
90281W        W57349  15.700  14.687  10.602
90282W        W57350  27.585   4.220   3.219
90283W        W57351  36.531  34.438  14.017
90284W        W57352  24.644   6.263  11.496
90285W        W57353   6.409  27.154  14.877
90286W        W57354  39.470  14.682  11.030
90287W        W57355  44.929  34.991  11.587
90288W        W57356  13.232  11.348   0.432
90289W        W57357  26.098   9.882  12.470
90290W        W57358  15.666  25.997   4.712
90291W        W57359  40.339  31.147   1.808
90292W        W57360  39.023  20.214  11.997
90293W        W57361  22.670  26.080   1.210
90294W        W57362  22.124  40.494  14.760
90295W        W57363  32.430  34.482   4.679
90296W        W57364  36.578  42.867  11.392
90297W        W57365  22.726  30.579   4.263
90298W        W57366  35.093  33.930   3.828
90299W        W57367   9.331  30.063   1.431
90300W        W57368  42.823  12.832  13.525
90301W        W57369  41.306   1.465   2.682
90302W        W57370  38.360  13.154   3.630
90303W        W57371  42.938  23.532  10.921
90304W        W57372  42.849  27.466  12.876
90305W        W57373  26.472  16.312   2.350
90306W        W57374  42.292   7.859   0.934
90307W        W57375  25.155  26.028  14.427
90308W        W57376  21.200  14.591  14.401
90309W        W57377   5.414  12.808  11.011
90310W        W57378  29.437  13.266  13.027
90311W        W57379  22.567   1.434  14.842
90312W        W57380  22.714   1.335   0.312
90313W        W57381  19.604  29.480  10.897
90314W        W57382  20.114  18.575   1.748
90315W        W57383  36.919  42.981   3.651
90316W        W57384   1.779   4.942   2.727
90317W        W57385  42.501   0.258   4.190
90318W        W57386   0.313   1.758   2.412
90319W        W57387  14.759  12.194   0.354
90320W        W57388  36.373  28.028   4.172
90321W        W57389  12.803  15.776   4.826
90322W        W57390   9.732  44.478   1.288
90323W        W57391   4.941  15.256  14.810
90324W        W57392  10.667  30.011  13.844
90325W        W57393  20.678  16.258  10.959
90326W        W57394  37.448  18.164  14.845
90327W        W57395  17.287  14.264   1.820
90328W        W57396  12.226  32.423  11.855
90329W        W57397  33.050  37.385   4.806
90330W        W57398   0.886  14.747   3.281
90331W        W57399  21.524  29.069   0.832
90332W        W57400  12.181  20.262   4.306
90333W        W57401  13.322   7.361   0.470
90334W        W57402  13.284  15.610   4.615
90335W        W57403  15.756  39.011  11.920
90336W        W57404  18.200   7.240  12.861
90337W        W57405  37.343   0.803  13.836
90338W        W57406   1.382   8.186  14.822
90339W        W57407  32.602  10.282   4.237
90340W        W57408   5.746  43.865   3.283
90341W        W57409  23.056  35.399   2.782
90342W        W57410  24.724   7.253  11.478
90343W        W57411  41.295   6.410   4.349
90344W        W57412  19.156  23.189  14.972
90345W        W57413  44.307  41.348  12.543
90346W        W57414   3.866  36.485  13.389
90347W        W57415  34.015  18.788   0.833
90348W        W57416  35.870   5.777   0.425
90349W        W57417  41.371  15.253   3.252
90350W        W57418  40.321  16.574  11.081
90351W        W57419  34.374   8.672   0.444
90352W        W57420  21.198   0.815   4.190
90353W        W57421   8.870  13.784  11.390
90354W        W57422  17.663   5.276  10.488
90355W        W57423  28.042  11.787  13.313
90356W        W57424  42.832  19.052  14.325
90357W        W57425  36.452  35.060  11.116
90358W        W57426  27.008  24.076  12.982
90359W        W57427  13.269  35.511  13.859
90360W        W57428  35.459  19.271  13.534
90361W        W57429  19.086  22.170   3.833
90362W        W57430  18.693  27.043  14.367
90363W        W57431  31.564   8.656   5.233
90364W        W57432  25.513  20.619   1.333
90365W        W57433  13.728  44.410   2.873
90366W        W57434  18.567  28.154   2.403
90367W        W57435  33.605   2.261   2.696
90368W        W57436  44.956  40.893  10.957
90369W        W57437  41.991   8.855  12.870
90370W        W57438   4.408   0.477  14.916
90371W        W57439  38.432   8.403  11.408
90372W        W57440  16.811   1.434  14.012
90373W        W57441  41.368  39.448  14.031
90374W        W57442  23.176   8.790   0.403
90375W        W57443  35.382   5.697  11.514
90376W        W57444  44.833  11.864   3.261
90377W        W57445  12.179   0.852   3.223
90378W        W57446  19.173  28.518   1.733
90379W        W57447  15.690   3.876  11.890
90380W        W57448  42.920  41.503  12.875
90381W        W57449  27.515  40.459   3.836
90382W        W57450  21.583  39.953  10.524
90383W        W57451  41.906  42.339  11.079
90384W        W57452   5.325  20.184  10.433
90385W        W57453  34.548  29.976   3.229
90386W        W57454   4.886  10.732   5.268
90387W        W57455  21.235  28.536  14.487
90388W        W57456  20.267  19.159   4.152
90389W        W57457  30.109  16.149  14.444
90390W        W57458   5.708  29.558  12.952
90391W        W57459  12.768  16.126  11.064
90392W        W57460  27.531  32.983  14.000
90393W        W57461  42.926  42.506   0.967
90394W        W57462   5.745  11.851  13.907
90395W        W57463  40.880  32.409  14.940
90396W        W57464  33.124  22.216  13.329
90397W        W57465   6.386   4.376   1.757
90398W        W57466   7.764  16.163  14.970
90399W        W57467   3.745  16.110  11.067
90400W        W57468  37.420   1.883  12.883
90401W        W57469   2.410  35.935  14.782
90402W        W57470  25.152  16.211  12.538
90403W        W57471  35.576  20.665   3.202
90404W        W57472  40.423  16.148  11.967
90405W        W57473   2.327  18.771   3.669
90406W        W57474   7.248  31.625  12.408
90407W        W57475  31.529  43.866  11.050
90408W        W57476  17.265  15.173   2.864
90409W        W57477  10.728   0.872   4.802
90410W        W57478  32.563  29.668  14.343
90411W        W57479  23.029  10.146  13.386
90412W        W57480   4.741  23.522   4.684
90413W        W57481  32.492  39.049  13.477
90414W        W57482   8.309  24.137  11.542
90415W        W57483  29.091  41.492  10.472
90416W        W57484  16.746  13.614  12.942
90417W        W57485  20.557   3.230   2.696
90418W        W57486  23.109  34.000  11.600
90419W        W57487  38.828  15.189   2.712
90420W        W57488   7.369  39.928   2.816
90421W        W57489  11.768  42.338   0.851
90422W        W57490  17.252  31.921   2.845
90423W        W57491   6.415  19.173   2.751
90424W        W57492   3.408  27.645   1.422
90425W        W57493  33.562  33.398   1.363
90426W        W57494  38.907  23.626  14.455
90427W        W57495  28.444   4.859  10.968
90428W        W57496  11.183  11.709   2.409
90429W        W57497  14.780  32.138  11.102
90430W        W57498  35.931  16.157   1.271
90431W        W57499  39.858  25.658  11.550
90432W        W57500  21.643  34.594   2.775
90433W        W57501   7.908  29.159  11.127
90434W        W57502  17.174  35.383  12.551
90435W        W57503   6.876  21.546   3.654
90436W        W57504  13.648   7.220   5.298
90437W        W57505  10.277  20.191  11.874
90438W        W57506  14.170  33.505   0.773
90439W        W57507  38.334  30.503   2.806
90440W        W57508   3.766  18.577  11.385
90441W        W57509  19.563   4.715   4.180
90442W        W57510  20.257  37.063  14.334
90443W        W57511  30.963  21.661  13.988
90444W        W57512  36.371  13.732   4.231
90445W        W57513  17.180  25.642   2.221
90446W        W57514  30.621   2.378  12.964
90447W        W57515  44.299  27.171   2.781
90448W        W57516  21.638  34.869  10.038
90449W        W57517  21.681   7.896   2.837
90450W        W57518  31.128   2.330  12.902
90451W        W57519  19.559   4.251  14.463
90452W        W57520  18.705  43.818  14.507
90453W        W57521  10.773  43.309   2.258
90454W        W57522  26.558   1.934   9.993
90455W        W57523  21.678   1.344  11.129
90456W        W57524  27.134  31.032   1.238
90457W        W57525  25.090   2.918   2.843
90458W        W57526   5.269  41.974  12.533
90459W        W57527   0.449  31.030  12.979
90460W        W57528   1.310  35.425   2.666
90461W        W57529  15.671   1.888  11.014
90462W        W57530  31.085  39.492   0.435
90463W        W57531  44.960  28.506  10.549
90464W        W57532  18.238  25.496   4.721
90465W        W57533  12.653  22.716   2.717
90466W        W57534  37.983  36.453   0.758
90467W        W57535  17.707   3.332  11.927
90468W        W57536  22.089  24.113  12.387
90469W        W57537  34.115  29.124  14.436
90470W        W57538  10.720  24.513   1.336
90471W        W57539  29.125   0.932   3.210
90472W        W57540  21.163  41.826  13.463
90473W        W57541   2.789  35.540   2.312
90474W        W57542   9.256  21.664  14.279
90475W        W57543  33.516   8.282  14.425
90476W        W57544  12.777   8.816  11.054
90477W        W57545  25.076  10.863   4.631
90478W        W57546  35.905   3.951   4.118
90479W        W57547  35.494   0.949   1.874
90480W        W57548   4.360  34.022   4.293
90481W        W57549  39.397   5.225  11.375
90482W        W57550  29.086   7.364   0.389
90483W        W57551   2.317  14.748  14.504
90484W        W57552  32.078  13.193   1.322
90485W        W57553  33.414  14.150   5.168
90486W        W57554  28.645  18.588   4.690
90487W        W57555   6.205  33.421   3.343
90488W        W57556   5.274  15.774   4.313
90489W        W57557   5.309  30.613  10.617
90490W        W57558   1.833  34.425   3.738
90491W        W57559   7.402  23.728  14.930
90492W        W57560  29.953  24.976  14.390
90493W        W57561   2.453  10.675   0.266
90494W        W57562  15.095  41.841   4.351
90495W        W57563  37.444  31.146  14.965
90496W        W57564  22.042  29.984  14.328
90497W        W57565  29.170  24.069   0.809
90498W        W57566  31.938  40.045   0.404
90499W        W57567  15.284  40.984   1.695
90500W        W57568  41.476  25.711   2.762
90501W        W57569  16.242  16.205  11.420
90502W        W57570  38.501   4.342   0.478
90503W        W57571  25.576  40.406  12.483
90504W        W57572  42.892  34.957   2.678
90505W        W57573  36.372  33.048  14.372
90506W        W57574  22.038  12.206  10.990
90507W        W57575   3.946  36.575  14.972
90508W        W57576  32.626  27.676   1.907
90509W        W57577  42.334  26.577  13.943
90510W        W57578  32.464   9.252   1.736
90511W        W57579  30.454  37.550   2.301
90512W        W57580  10.374  28.120  12.889
90513W        W57581  29.465  38.349   1.350
90514W        W57582  25.101   0.816   4.728
90515W        W57583  18.763  41.294   2.694
90516W        W57584  29.569  11.777  10.908
90517W        W57585  42.516  36.529  13.545
90518W        W57586  32.139   7.416   4.353
90519W        W57587  35.423   3.787   1.785
90520W        W57588  32.534  13.742  13.005
90521W        W57589  26.530   7.358  14.336
90522W        W57590   0.749  16.303  14.781
90523W        W57591  11.821  18.731  11.036
90524W        W57592  16.225  19.618   5.143
90525W        W57593  39.360  20.092  11.532
90526W        W57594  26.193  18.250   1.443
90527W        W57595  20.677  13.163  12.463
90528W        W57596   5.337  23.121  12.911
90529W        W57597  42.832  39.417  13.536
90530W        W57598   5.281  11.663   3.751
90531W        W57599  19.080   0.410  14.900
90532W        W57600   7.834   5.781  12.866
90533W        W57601   6.834   0.930  14.953
90534W        W57602  19.636  36.944   0.335
90535W        W57603  35.926  14.294   2.701
90536W        W57604  34.960  33.493  14.315
90537W        W57605  27.522  23.069  14.404
90538W        W57606  41.409  41.847   3.231
90539W        W57607   5.789  32.550   2.864
90540W        W57608  25.589  43.380  14.761
90541W        W57609  43.869  24.213   1.354
90542W        W57610   3.397  35.877  10.950
90543W        W57611  41.464   7.795   0.786
90544W        W57612   0.821  24.520  13.425
90545W        W57613   9.826  43.844  14.795
90546W        W57614  13.698  19.709   0.458
90547W        W57615  11.153  28.590  14.814
90548W        W57616  40.317  10.676   3.376
90549W        W57617  43.963  27.467   1.252
90550W        W57618  26.522  32.112   1.765
90551W        W57619  33.097  25.016  11.950
90552W        W57620  41.018  24.180  11.545
90553W        W57621   9.792   0.270  13.330
90554W        W57622  43.768   8.183  11.920
90555W        W57623  32.135   1.932   2.773
90556W        W57624  14.330  18.575  11.096
90557W        W57625  41.464   2.914  13.911
90558W        W57626  20.586  42.373  13.026
90559W        W57627  24.547   0.833   4.715
90560W        W57628  35.860  30.087  14.931
90561W        W57629  41.814   1.328   2.662
90562W        W57630   1.790  42.953  11.126
90563W        W57631  25.649   3.331  14.894
90564W        W57632  30.147  32.126  11.993
90565W        W57633   2.906  18.269   1.744
90566W        W57634  42.850  22.109  10.450
90567W        W57635   6.749   1.836   0.877
90568W        W57636   0.876  26.006  14.956
90569W        W57637  19.080   6.273   0.407
90570W        W57638  33.015  18.167  14.480
90571W        W57639  38.848   1.945   5.194
90572W        W57640  25.696   9.228  10.959
90573W        W57641   7.861  13.616  13.865
90574W        W57642  24.593  17.688  14.780
90575W        W57643  21.638  17.609   3.257
90576W        W57644  29.437  33.381  13.519
90577W        W57645  15.113  41.901  10.922
90578W        W57646  44.384  36.976  13.536
90579W        W57647   1.347  42.335  12.408
90580W        W57648  39.385   2.274  14.912
90581W        W57649  16.255  12.353  11.911
90582W        W57650  28.070  30.143  10.465
90583W        W57651  41.904  36.977  12.353
90584W        W57652  25.998   6.282   1.863
90585W        W57653  36.543  37.438   2.307
90586W        W57654   8.395  31.951  11.120
90587W        W57655  35.405  23.532   0.387
90588W        W57656  29.132  39.355   0.812
90589W        W57657  23.572  30.583  10.571
90590W        W57658  40.833  24.124  13.433
90591W        W57659   3.719  33.553  14.516
90592W        W57660  23.232  32.051   1.387
90593W        W57661  37.349  27.193  12.475
90594W        W57662   2.457  13.247   1.705
90595W        W57663  19.167  24.695  14.920
90596W        W57664  30.569  14.290   3.732
90597W        W57665  44.418  28.947  13.438
90598W        W57666  41.471  24.664  12.555
90599W        W57667  44.782  42.373   2.394
90600W        W57668   6.838  13.341  12.455
90601W        W57669  35.439   7.244  12.831
90602W        W57670   8.217   8.281   0.367
90603W        W57671  22.211  20.156   0.292
90604W        W57672  34.950  30.630  13.540
90605W        W57673  18.687   4.368   3.181
90606W        W57674  19.683  28.543   2.897
90607W        W57675  17.701  18.061   3.174
90608W        W57676  22.515  16.599  12.944
90609W        W57677  43.349  26.096  10.597
90610W        W57678  34.926  16.230  11.997
90611W        W57679  28.963   3.921  14.852
90612W        W57680  39.815  38.861   1.376
90613W        W57681  24.204  26.090  12.510
90614W        W57682  12.209  38.047  11.395
90615W        W57683  17.665  25.669   3.242
90616W        W57684  38.404  41.419  10.891
90617W        W57685  24.173  40.339  11.590
90618W        W57686   4.342  30.064   3.224
90619W        W57687  19.738  11.219   1.712
90620W        W57688  27.153  10.855  13.951
90621W        W57689  15.726   5.765   9.937
90622W        W57690  43.928  31.106   0.294
90623W        W57691  43.797  27.463  12.374
90624W        W57692  40.010  14.649  11.567
90625W        W57693  38.963   1.796  12.504
90626W        W57694  11.837   8.710  10.526
90627W        W57695   2.235  18.196  11.525
90628W        W57696  14.272  27.174  13.441
90629W        W57697  16.154   4.937  13.966
90630W        W57698   9.393  15.824  11.602
90631W        W57699   6.715   1.422  14.878
90632W        W57700  18.076   7.665   2.193
90633W        W57701  32.408  21.019  12.413
90634W        W57702  32.931  26.017  13.891
90635W        W57703  38.975  13.233   0.259
90636W        W57704  33.567   8.225  14.762
90637W        W57705  24.102  35.494   3.194
90638W        W57706  33.489   1.778   2.664
90639W        W57707  17.644  40.363  12.985
90640W        W57708  10.838  42.329  14.449
90641W        W57709  22.055  27.622   3.794
90642W        W57710   6.730   2.784  14.767
90643W        W57711  13.272  10.326  12.446
90644W        W57712  34.995  17.209  12.555
90645W        W57713   9.852  35.096   1.700
90646W        W57714  36.868  16.107  12.906
90647W        W57715  41.971  21.618   2.799
90648W        W57716  12.623  26.183  12.846
90649W        W57717  43.284  29.069   4.638
90650W        W57718  40.008   4.281   4.307
90651W        W57719  34.970  17.742   1.784
90652W        W57720  41.294  12.760  12.873
90653W        W57721   9.705  19.767   2.749
90654W        W57722  32.079  20.670  11.910
90655W        W57723  36.889  36.584  12.968
90656W        W57724  30.113  13.291   3.646
90657W        W57725  20.643  16.754   0.907
90658W        W57726  33.984  36.588  12.833
90659W        W57727  17.629  17.255   0.912
90660W        W57728   1.757  39.038   4.307
90661W        W57729  26.481  18.589  10.985
90662W        W57730  15.776  30.489  10.540
90663W        W57731   2.774  22.614   4.662
90664W        W57732  34.565   0.391   3.646
90665W        W57733  37.053  13.839   0.402
90666W        W57734   8.263   7.218  10.525
90667W        W57735   6.258  37.930  11.573
90668W        W57736  24.973   8.339  14.011
90669W        W57737  13.761  19.099  14.465
90670W        W57738   6.733   1.280  14.376
90671W        W57739  32.524  14.824  13.334
90672W        W57740  35.480  21.027   2.823
90673W        W57741  35.592  36.862  12.566
90674W        W57742  15.217   6.727  12.496
90675W        W57743  32.401  16.708  14.495
90676W        W57744   0.440  10.168  11.464
90677W        W57745  15.166  14.156   1.344
90678W        W57746  30.528  42.799  14.430
90679W        W57747   7.793  11.865  12.921
90680W        W57748  14.211   7.360   3.845
90681W        W57749  37.544  17.195   1.837
90682W        W57750   7.337  27.592   2.704
90683W        W57751  19.712  42.504   0.308
90684W        W57752  39.042  29.051  11.908
90685W        W57753   9.282  16.572  12.505
90686W        W57754  20.127  13.744  11.461
90687W        W57755  39.457  26.055  14.876
90688W        W57756  31.557   7.218  14.794
90689W        W57757  31.142   6.195  10.926
90690W        W57758  23.182  34.490  11.494
90691W        W57759  21.539  28.953  11.908
90692W        W57760  31.431  26.582   2.180
90693W        W57761  42.945  29.623   2.839
90694W        W57762  41.359   9.754   3.756
90695W        W57763  11.816   8.385   0.453
90696W        W57764  20.591  35.581   3.218
90697W        W57765  29.578   8.252   0.867
90698W        W57766  27.129  18.570   0.422
90699W        W57767   1.943  29.930  10.454
90700W        W57768  27.122  33.917  14.030
90701W        W57769   0.318  10.141  14.290
90702W        W57770  35.594  42.890   0.849
90703W        W57771   2.861  13.739  13.913
90704W        W57772  13.280  23.086   1.344
90705W        W57773  15.107  20.677   2.700
90706W        W57774  30.104  34.118  11.538
90707W        W57775   9.304   3.943   3.202
90708W        W57776  25.652   4.262   1.332
90709W        W57777  23.210   7.710   3.705
90710W        W57778   1.314  43.962   2.795
90711W        W57779  31.943  35.579  11.912
90712W        W57780   6.388  27.450  12.985
90713W        W57781   4.432  20.696  14.373
90714W        W57782  20.094  32.995  14.277
90715W        W57783  17.167  22.746   4.282
90716W        W57784  39.967  17.597   0.268
90717W        W57785  38.934  25.713   0.805
90718W        W57786  21.247  15.139   3.781
90719W        W57787   4.816   7.844  12.001
90720W        W57788  43.501  24.020   2.846
90721W        W57789  21.513   5.407  12.381
90722W        W57790   7.345  14.682  10.485
90723W        W57791  20.150  21.676   3.147
90724W        W57792  21.055  10.312   2.715
90725W        W57793  32.549  19.082   3.294
90726W        W57794  28.070  30.106   3.335
90727W        W57795  36.383   4.748   9.941
90728W        W57796  11.166  20.603  13.443
90729W        W57797  12.354   0.300  10.928
90730W        W57798   0.454  30.987  14.001
90731W        W57799   6.706  20.054   0.796
90732W        W57800  42.900   3.406   3.769
90733W        W57801  27.044  22.161   3.187
90734W        W57802   7.719  27.130   2.236
90735W        W57803  10.806  26.469  11.554
90736W        W57804  35.488  11.224   2.746
90737W        W57805  41.307  25.081  13.946
90738W        W57806   2.817  41.367  12.381
90739W        W57807   8.780   3.739  12.064
90740W        W57808  13.766  29.170  12.960
90741W        W57809  18.735   4.354   0.962
90742W        W57810  12.218  37.431   3.672
90743W        W57811  12.693  17.648  11.104
90744W        W57812  40.528  17.292   3.228
90745W        W57813   6.380   6.343  12.477
90746W        W57814  41.975  24.128  10.635
90747W        W57815  30.651  29.521  14.357
90748W        W57816  39.558   4.927   4.612
90749W        W57817  37.376  37.861   0.803
90750W        W57818   3.841  27.956   4.601
90751W        W57819  32.520  26.631   1.334
90752W        W57820  10.692  30.123  12.891
90753W        W57821   4.858  37.468  12.022
90754W        W57822   5.865  23.219   3.724
90755W        W57823  20.723  23.613   0.797
90756W        W57824   5.239  41.858   3.843
90757W        W57825   2.932  22.064   3.209
90758W        W57826  29.498  35.960   5.081
90759W        W57827  18.612   9.686  10.144
90760W        W57828  38.068  19.564  14.285
90761W        W57829  44.390  37.836  13.796
90762W        W57830   8.679  43.920  13.430
90763W        W57831  33.022  35.104  14.481
90764W        W57832  25.626  17.713   3.237
90765W        W57833  20.558  10.825  12.826
90766W        W57834  18.591  42.029   0.820
90767W        W57835  34.113  11.203   0.462
90768W        W57836  40.841  25.146  12.402
90769W        W57837  14.734  20.256  11.547
90770W        W57838  41.896  14.653   0.806
90771W        W57839  38.327  29.173  10.903
90772W        W57840   8.215  32.581   0.298
90773W        W57841  20.626  41.956  11.875
90774W        W57842   4.214  24.188   4.668
90775W        W57843  41.929  11.834   9.963
90776W        W57844   9.293  27.945  14.331
90777W        W57845   5.885  15.160   0.246
90778W        W57846  38.966  26.121   0.935
90779W        W57847  23.080  26.952   3.306
90780W        W57848   5.402  24.508  13.506
90781W        W57849  28.099  34.447   0.947
90782W        W57850  29.594  25.677  10.472
90783W        W57851   4.435  18.772   1.291
90784W        W57852  23.549   1.815   1.903
90785W        W57853  20.554  30.458   0.330
90786W        W57854   0.802   1.923   5.296
90787W        W57855  17.222  13.299  14.292
90788W        W57856  26.539  23.663   3.840
90789W        W57857  19.548  26.961  14.322
90790W        W57858  30.624   2.383   1.915
90791W        W57859  34.413  24.492   3.841
90792W        W57860  18.095  15.672   2.217
90793W        W57861  17.296  12.126   3.765
90794W        W57862  17.286   9.151   1.805
90795W        W57863  18.692   7.781   3.665
90796W        W57864  20.134   9.197   2.831
90797W        W57865  40.424  25.007  12.892
90798W        W57866  39.462  35.965  12.958
90799W        W57867  22.172  13.605   2.876
90800W        W57868   3.461  22.568  14.008
90801W        W57869  19.119  39.397  12.930
90802W        W57870   9.200  21.260  12.370
90803W        W57871  23.126  40.831  12.407
90804W        W57872  31.152  23.587   3.689
90805W        W57873   8.664  39.878   3.826
90806W        W57874   3.862  12.849  11.001
90807W        W57875  41.336   5.927   1.819
90808W        W57876  27.519  35.407   1.925
90809W        W57877  12.216  36.848   0.746
90810W        W57878   6.753  15.188   2.797
90811W        W57879  33.956  34.090   3.196
90812W        W57880  21.020  18.614   4.793
90813W        W57881  10.772  22.672  10.546
90814W        W57882  38.005   2.838  14.343
90815W        W57883  13.144  36.909  11.479
90816W        W57884   5.731  31.925   1.807
90817W        W57885  38.353   4.714   1.435
90818W        W57886  11.679  18.152  12.018
90819W        W57887  30.527  27.153  12.043
90820W        W57888  38.399  32.552   4.281
90821W        W57889  41.298  32.917  14.930
90822W        W57890  43.811  24.122  11.372
90823W        W57891   6.834  15.214  10.644
90824W        W57892  23.518   3.831   1.813
90825W        W57893   3.870  44.835   3.855
90826W        W57894   6.880  13.745   4.122
90827W        W57895  31.004  15.159  11.415
90828W        W57896  21.659  41.905   0.308
90829W        W57897  40.025  40.503   1.388
90830W        W57898  29.982  13.119   0.782
90831W        W57899  17.285  34.396  10.572
90832W        W57900  28.154  21.253  10.609
90833W        W57901  18.644  13.824  11.048
90834W        W57902   6.719   4.433  14.813
90835W        W57903  28.936  26.688  14.892
90836W        W57904  26.029  34.981   0.810
90837W        W57905  33.428   9.854  11.410
90838W        W57906  14.108  11.789   5.175
90839W        W57907  11.287   3.890   1.403
90840W        W57908  19.614  12.613  11.046
90841W        W57909   7.417  21.637   3.778
90842W        W57910   2.292  10.724  13.448
90843W        W57911   6.311   2.239   3.697
90844W        W57912  23.138  41.491   3.791
90845W        W57913  14.790  37.018   4.311
90846W        W57914  26.575  35.491   4.619
90847W        W57915  26.199  24.134  11.547
90848W        W57916   4.871   8.893  11.115
90849W        W57917  44.415  41.996  14.941
90850W        W57918   4.214  19.266   5.252
90851W        W57919  42.341   9.774   2.401
90852W        W57920  18.562  28.499   0.261
90853W        W57921  42.514  25.096   4.746
90854W        W57922  35.995  33.060   2.684
90855W        W57923  39.527  10.830   3.667
90856W        W57924  11.274   1.456  14.004
90857W        W57925  41.506  40.469  14.004
90858W        W57926  31.907   8.255   2.312
90859W        W57927  39.389  35.060   4.197
90860W        W57928  22.126  33.883   4.687
90861W        W57929   0.806   8.233  14.479
90862W        W57930  39.401  15.321   4.811
90863W        W57931  35.460  21.734  14.816
90864W        W57932  37.978  25.172  12.035
90865W        W57933  29.166  13.149   4.628
90866W        W57934  38.867  14.173  12.477
90867W        W57935   1.311  13.814   1.371
90868W        W57936  26.621  43.361   2.244
90869W        W57937  30.481  29.169   2.219
90870W        W57938   1.469  17.191  12.990
90871W        W57939  25.561  11.247   2.254
90872W        W57940   9.670  39.476   3.167
90873W        W57941   2.347  18.253  11.974
90874W        W57942   2.435  39.459  10.599
90875W        W57943   2.768  20.112  10.434
90876W        W57944  19.238  36.095   4.641
90877W        W57945   7.355  30.513   3.784
90878W        W57946  39.911  40.446  13.376
90879W        W57947  17.749  25.200  11.070
90880W        W57948   9.705  22.088   3.669
90881W        W57949   7.823  23.702   4.321
90882W        W57950  18.266  21.561  14.474
90883W        W57951   2.293  13.639   4.611
90884W        W57952   3.425  26.182   1.792
90885W        W57953   9.335  21.211  14.771
90886W        W57954   7.854  33.624   3.683
90887W        W57955  41.373  25.682  12.986
90888W        W57956  27.653  20.769   4.149
90889W        W57957  14.110  16.608  13.317
90890W        W57958  19.241  21.066   0.782
90891W        W57959  32.053  38.021  13.815
90892W        W57960  28.607  39.829   3.832
90893W        W57961   8.878  42.439  12.439
90894W        W57962   2.411   5.276  10.417
90895W        W57963   3.930  22.058   1.384
90896W        W57964  19.107  31.474  12.520
90897W        W57965  13.787  13.783   0.244
90898W        W57966  18.670   5.347  12.998
90899W        W57967  15.815  10.231   0.778
90900W        W57968  29.146  31.098  11.522
90901W        W57969  11.735  35.529  14.327
90902W        W57970  18.665  22.210  14.002
90903W        W57971  38.826  44.317  13.462
90904W        W57972  38.469  32.055  11.450
90905W        W57973  44.312  15.284  10.622
90906W        W57974  44.995  44.849   4.216
90907W        W57975  13.342   1.349   2.283
90908W        W57976   4.400  19.680   4.342
90909W        W57977   5.288   8.187   0.350
90910W        W57978  26.011  33.618  12.853
90911W        W57979  23.109  43.291  14.861
90912W        W57980  26.512  14.169  14.283
90913W        W57981  32.115  36.350   3.637
90914W        W57982  41.403   8.187  13.851
90915W        W57983  31.583  40.811  12.943
90916W        W57984  12.795  14.808   2.721
90917W        W57985  13.677  39.369   0.391
90918W        W57986  38.962   0.769  14.303
90919W        W57987  29.438   8.337  12.036
90920W        W57988  21.044  30.907   3.838
90921W        W57989  10.798  33.105   3.317
90922W        W57990  40.908   7.376   1.739
90923W        W57991   4.233   8.269  14.000
90924W        W57992  27.127  30.968   0.365
90925W        W57993  35.926   9.189  14.865
90926W        W57994  18.573  38.061   3.300
90927W        W57995   1.448  18.245   2.840
90928W        W57996  24.203   0.280   0.362
90929W        W57997   4.796  15.185   2.401
90930W        W57998  44.888  28.647   4.177
90931W        W57999  27.041   7.760   3.686
90932W        W58000  43.360  38.854   4.166
90933W        W58001   3.435  28.517  11.465
90934W        W58002  11.142   5.330   1.750
90935W        W58003  29.010   5.842   2.203
90936W        W58004  33.090  42.796  12.453
90937W        W58005  20.223   2.353  13.886
90938W        W58006  42.910  30.558  12.577
90939W        W58007  43.399  29.043   2.781
90940W        W58008   9.152  22.056  12.074
90941W        W58009   2.867  15.312   4.817
90942W        W58010  17.132   2.339   1.870
90943W        W58011  33.953  26.183  13.350
90944W        W58012   6.776   8.247   4.636
90945W        W58013   8.180  35.439  11.436
90946W        W58014  18.261  39.988  12.556
90947W        W58015  16.707  19.133  10.619
90948W        W58016  17.779  44.451  10.020
90949W        W58017  19.210  13.317  10.443
90950W        W58018  41.921  36.388  11.608
90951W        W58019   1.745  22.711  13.873
90952W        W58020  28.515  38.914   4.746
90953W        W58021   5.860  41.961  12.040
90954W        W58022   7.228  33.072  14.933
90955W        W58023   1.859   0.460  12.576
90956W        W58024   3.339  24.718   4.175
90957W        W58025  44.757  18.601   3.777
90958W        W58026   9.223  42.508  10.625
90959W        W58027  39.013   7.723  11.075
90960W        W58028   0.785  24.722   4.638
90961W        W58029  41.922  30.121   1.437
90962W        W58030  16.176  17.226   0.269
90963W        W58031   6.333   2.893  13.828
90964W        W58032  16.614  12.243  10.561
90965W        W58033  18.232  28.180  10.976
90966W        W58034   6.909  24.107   4.813
90967W        W58035  14.697  19.091   2.736
90968W        W58036  33.467  32.610  14.977
90969W        W58037  10.843   1.843  13.432
90970W        W58038  38.517  39.935   3.784
90971W        W58039  42.025  34.886   3.635
90972W        W58040  25.984  31.514  11.427
90973W        W58041  16.074  40.470  14.903
90974W        W58042  24.658  14.293   0.252
90975W        W58043  25.136  15.607   3.189
90976W        W58044  32.526  36.070   2.253
90977W        W58045  21.114   7.912   3.251
90978W        W58046  10.150  24.166   0.416
90979W        W58047  29.024  11.182   2.891
90980W        W58048  15.770   1.968   5.250
90981W        W58049  11.805  17.608  14.011
90982W        W58050  20.185  26.022  10.901
90983W        W58051  13.112  30.025  13.513
90984W        W58052  32.582  29.960   2.287
90985W        W58053  18.190  32.606  11.967
90986W        W58054  28.567  34.482  13.867
90987W        W58055  29.650  23.498   4.779
90988W        W58056  21.042  32.557   2.372
90989W        W58057  29.050  11.692   2.379
90990W        W58058  24.095  14.610   1.232
90991W        W58059  12.117   7.732  14.788
90992W        W58060  31.014  30.431   0.818
90993W        W58061  18.766   3.854   2.814
90994W        W58062  22.169  36.580  13.825
90995W        W58063  18.116  30.615  13.369
90996W        W58064   3.824   2.938  14.884
90997W        W58065   9.678  25.121   3.781
90998W        W58066   7.868  19.109  11.007
90999W        W58067   9.694   4.878   1.867
91000W        W58068  35.424  44.432   4.692
91001W        W58069  12.764  25.529  12.891
91002W        W58070   3.263  30.121  13.334
91003W        W58071  19.102  19.744  12.453
91004W        W58072  19.579  32.607  11.421
91005W        W58073  36.534  29.507  11.418
91006W        W58074   0.262  15.300  12.094
91007W        W58075  10.343  32.502   1.743
91008W        W58076  24.710   8.723   2.412
91009W        W58077   4.291  24.656  13.405
91010W        W58078  39.941  19.669  14.839
91011W        W58079  44.309  22.659   5.292
91012W        W58080  10.651  22.090   4.288
91013W        W58081  34.396   7.893   3.196
91014W        W58082  42.992   9.719  12.573
91015W        W58083  29.043  12.240  10.550
91016W        W58084  38.964  17.284  12.824
91017W        W58085  15.632  17.627   3.159
91018W        W58086   9.827   7.207   2.262
91019W        W58087  23.704  32.450   3.332
91020W        W58088   9.799  39.825   2.724
91021W        W58089  32.390  35.459   3.291
91022W        W58090  10.163   9.798   0.336
91023W        W58091  43.318  14.722   2.232
91024W        W58092  21.616   2.433  10.597
91025W        W58093  25.031  41.370  10.586
91026W        W58094  12.848  16.787  11.491
91027W        W58095  41.825  26.500   4.254
91028W        W58096   5.369  24.486  13.005
91029W        W58097  43.276  16.292  13.921
91030W        W58098  40.541  12.349   2.203
91031W        W58099  12.639   7.688   2.335
91032W        W58100   7.767  29.131   3.750
91033W        W58101   4.414  20.639   0.830
91034W        W58102  30.615  34.392   9.970
91035W        W58103  43.438  18.772  13.533
91036W        W58104  11.128   9.762  14.839
91037W        W58105  37.840  23.015  13.471
91038W        W58106  42.014  37.963  10.488
91039W        W58107  19.612  32.903  11.127
91040W        W58108  36.024  40.035   0.948
91041W        W58109  31.431  22.079  13.490
91042W        W58110  37.953  29.576  14.890
91043W        W58111  23.022   3.406   2.747
91044W        W58112  19.746   9.383   1.364
91045W        W58113  33.434  39.329   3.219
91046W        W58114  28.016  41.019  13.477
91047W        W58115  27.017  25.064  13.521
91048W        W58116  38.924  28.177   3.834
91049W        W58117   8.897  12.292   2.257
91050W        W58118  42.803  27.952   4.201
91051W        W58119  38.922   4.359   1.318
91052W        W58120   3.390  20.626   0.352
91053W        W58121  19.118  13.199   1.342
91054W        W58122  41.372   2.358  13.807
91055W        W58123  39.542  14.718  11.375
91056W        W58124  37.862  34.105   2.374
91057W        W58125  32.943  12.144  14.287
91058W        W58126  22.049  42.830   0.402
91059W        W58127  43.335  35.927  13.368
91060W        W58128  37.027  38.038  12.574
91061W        W58129  15.773  15.183  11.490
91062W        W58130   3.795  27.521  12.951
91063W        W58131  25.082  17.196  14.491
91064W        W58132  40.439   3.940  11.947
91065W        W58133  26.059  43.875   3.659
91066W        W58134  15.287  13.667  11.428
91067W        W58135   4.847  27.651  12.054
91068W        W58136  36.841   5.716   0.439
91069W        W58137  21.221  44.380  14.825
91070W        W58138  22.653  30.479   3.294
91071W        W58139  31.014  26.067  14.775
91072W        W58140   1.862  29.935  13.523
91073W        W58141   0.931  10.361  13.956
91074W        W58142   9.837   9.647   4.166
91075W        W58143  37.389  13.309  11.427
91076W        W58144  14.620  28.521   3.787
91077W        W58145  41.948  37.985   1.237
91078W        W58146  21.734  28.028  10.518
91079W        W58147   2.351  27.149   4.714
91080W        W58148  25.636  11.197   3.853
91081W        W58149   7.229   8.360   3.641
91082W        W58150  35.079  13.678   3.335
91083W        W58151  44.906   8.270  14.397
91084W        W58152   0.480  36.592  13.915
91085W        W58153  22.736  43.483  13.543
91086W        W58154  27.185  33.037   3.275
91087W        W58155  16.634  28.566  11.987
91088W        W58156   9.330  25.985   4.309
91089W        W58157  40.460  20.576   2.261
91090W        W58158   7.820   2.423   3.234
91091W        W58159  42.905   9.873  11.041
91092W        W58160   8.248   6.205   4.798
91093W        W58161  17.167  30.546   1.271
91094W        W58162   4.297  35.874  10.596
91095W        W58163  44.284   0.367  12.350
91096W        W58164  33.883   3.251   3.703
91097W        W58165  30.456  16.314   9.513
91098W        W58166   1.404  33.568  11.519
91099W        W58167   1.797  32.602  11.123
91100W        W58168   6.382  32.443  14.347
91101W        W58169   3.836  44.001   2.893
91102W        W58170  28.045  26.108   1.233
91103W        W58171  12.331  33.526   3.847
91104W        W58172  23.014  11.749  12.512
91105W        W58173  17.690  41.957   2.681
91106W        W58174  37.418  12.223   0.315
91107W        W58175  11.796   1.869  14.017
91108W        W58176  30.599  31.504   4.695
91109W        W58177  15.796  29.549  13.504
91110W        W58178   6.747  31.544   2.782
91111W        W58179  14.209  23.725  10.999
91112W        W58180  37.360  40.902   2.823
91113W        W58181   5.349  42.960   1.839
91114W        W58182  30.101  43.860   1.233
91115W        W58183  33.911  13.302  13.418
91116W        W58184  14.298  14.253   2.870
91117W        W58185  13.120  24.228  13.541
91118W        W58186  22.711  35.414  10.506
91119W        W58187  32.005  42.495   4.736
91120W        W58188  13.174   4.440   0.966
91121W        W58189  28.973  40.873   1.231
91122W        W58190  40.452  31.000   2.873
91123W        W58191  21.115  23.721   4.161
91124W        W58192  40.415  35.977   3.286
91125W        W58193  18.774  21.021  12.497
91126W        W58194  12.648  23.579   1.264
91127W        W58195   5.854  38.411   3.845
91128W        W58196  13.680  22.103  12.918
91129W        W58197  28.160  37.022   2.771
91130W        W58198  23.047  29.534   4.629
91131W        W58199  37.996  11.258  13.427
91132W        W58200   3.901  16.104  11.456
91133W        W58201  16.777  30.498   4.156
91134W        W58202  16.689  40.505  13.843
91135W        W58203  10.170   8.862   1.385
91136W        W58204  25.013  22.195   1.222
91137W        W58205   4.880  11.749   2.214
91138W        W58206  26.472  39.895   4.257
91139W        W58207  13.211  13.711  13.367
91140W        W58208   8.772  34.080   0.328
91141W        W58209  44.961  15.814   3.323
91142W        W58210  25.671   5.340  11.613
91143W        W58211  35.087   2.452  14.811
91144W        W58212  40.820  41.372  14.766
91145W        W58213  42.488   6.713  13.343
91146W        W58214  40.041  31.951  13.872
91147W        W58215   3.245  26.123   4.684
91148W        W58216  30.148  36.370  13.544
91149W        W58217  43.013  22.603   2.687
91150W        W58218  39.958   4.348   3.715
91151W        W58219   1.384  20.748   3.751
91152W        W58220   7.768   5.240  11.503
91153W        W58221  29.649  10.741  11.424
91154W        W58222  26.969  26.606  12.028
91155W        W58223  15.186  39.509   4.797
91156W        W58224  16.653  32.448  11.483
91157W        W58225  15.131  26.043   3.347
91158W        W58226   5.369   3.863   3.681
91159W        W58227   4.292   1.422   2.404
91160W        W58228  15.157  13.274   4.239
91161W        W58229   8.666  23.037   1.826
91162W        W58230  38.067  24.127  12.894
91163W        W58231  12.666   0.831   0.480
91164W        W58232   3.886   3.731   1.214
91165W        W58233   8.789   7.834   4.650
91166W        W58234  39.008  16.763   4.717
91167W        W58235  20.548  26.678  14.926
91168W        W58236  43.371  18.714  10.974
91169W        W58237  40.438  21.626   3.251
91170W        W58238  40.870   6.708  13.998
91171W        W58239  10.181  44.880   0.458
91172W        W58240  39.464   8.198   4.600
91173W        W58241   6.243  39.021   3.355
91174W        W58242  42.991  10.770  14.807
91175W        W58243   1.466  41.824   1.705
91176W        W58244  22.201  14.833   1.408
91177W        W58245  31.014   2.901   2.295
91178W        W58246  23.529   4.891  13.920
91179W        W58247  22.023  36.096  13.362
91180W        W58248  44.414  14.241   0.774
91181W        W58249  23.146  33.543   4.271
91182W        W58250   6.705  11.296  10.921
91183W        W58251  37.523  34.024   4.221
91184W        W58252  16.147  10.164  14.458
91185W        W58253   8.702   3.717  12.467
91186W        W58254   2.466  33.505  12.014
91187W        W58255  44.844  42.952  13.437
91188W        W58256  44.935   6.250   3.738
91189W        W58257  19.538  36.038   1.880
91190W        W58258  30.612  32.420   0.313
91191W        W58259   6.309   3.792  13.479
91192W        W58260  25.543  41.294   1.311
91193W        W58261   6.873  30.992  10.549
91194W        W58262  37.464  41.888  11.914
91195W        W58263  33.035  18.663  12.406
91196W        W58264  33.457   8.777   9.977
91197W        W58265   9.849  44.494   0.468
91198W        W58266  31.134  35.109  13.851
91199W        W58267   2.423  35.539  11.525
91200W        W58268  34.481  33.938  10.484
91201W        W58269  15.168   2.754   4.291
91202W        W58270  29.017  43.406   4.150
91203W        W58271  31.152  11.313  10.526
91204W        W58272  38.032  39.471  11.406
91205W        W58273   4.435  29.568   2.392
91206W        W58274  16.629  37.025  13.888
91207W        W58275  33.953  17.275   3.287
91208W        W58276  13.248  14.254   2.396
91209W        W58277  42.969  10.689   0.862
91210W        W58278  34.490   1.302  12.880
91211W        W58279  44.330  18.786   2.238
91212W        W58280  43.416  12.301   0.876
91213W        W58281  21.568  26.559   0.425
91214W        W58282  14.682  43.966  11.110
91215W        W58283   1.402  27.098   3.270
91216W        W58284  18.134  25.659  11.577
91217W        W58285  26.958   7.763   0.963
91218W        W58286  19.261  31.495  10.570
91219W        W58287  10.679  27.689  11.568
91220W        W58288  19.658  16.795  10.548
91221W        W58289   6.250  24.553   4.623
91222W        W58290  12.245  42.003   1.839
91223W        W58291  23.721  31.644  12.423
91224W        W58292   9.308  41.037  14.911
91225W        W58293  14.146  26.570  13.436
91226W        W58294  10.696  18.787   2.330
91227W        W58295  26.511  20.608   2.821
91228W        W58296  42.990  13.599   3.146
91229W        W58297  33.608  20.643   0.877
91230W        W58298   8.837  32.399   2.683
91231W        W58299  16.728   1.829  11.527
91232W        W58300  34.579  38.534  13.315
91233W        W58301  11.842   3.218  11.510
91234W        W58302  41.473  13.194   0.362
91235W        W58303  39.364  34.058   1.329
91236W        W58304   8.744  18.108   4.270
91237W        W58305   7.793  43.009  14.434
91238W        W58306  11.830  28.669   4.323
91239W        W58307  21.021  42.346  14.956
91240W        W58308  33.592   1.765  11.101
91241W        W58309  41.825  35.508   2.354
91242W        W58310  37.434  11.181   3.290
91243W        W58311  34.498  19.643   2.695
91244W        W58312  33.580  23.137  13.895
91245W        W58313  21.560  42.476   4.793
91246W        W58314  11.270  21.715   3.365
91247W        W58315  19.688  11.657  10.468
91248W        W58316  18.295  19.145  12.539
91249W        W58317  18.787  24.992  10.897
91250W        W58318  25.560  43.972  10.621
91251W        W58319   2.764  24.981  13.831
91252W        W58320  40.947  12.716  11.400
91253W        W58321   6.402  42.875   2.368
91254W        W58322   4.836  14.124  11.402
91255W        W58323   1.926   6.844  12.400
91256W        W58324  11.637  28.530   1.240
91257W        W58325  41.521   1.279  11.522
91258W        W58326  35.056  27.641   0.477
91259W        W58327  22.998  44.831   0.266
91260W        W58328  15.603  15.154   1.297
91261W        W58329   0.904  43.832  13.309
91262W        W58330   1.378  17.615  14.968
91263W        W58331  33.966   8.261   2.345
91264W        W58332  36.496  24.647  11.026
91265W        W58333   2.810  11.322  11.491
91266W        W58334  31.468  12.149   4.728
91267W        W58335  43.379  24.519   4.601
91268W        W58336   2.230  44.880  12.465
91269W        W58337  27.669  34.030  14.466
91270W        W58338  12.785  23.069   2.359
91271W        W58339  12.220  37.010   1.356
91272W        W58340  16.197  13.117   2.225
91273W        W58341  44.897   9.214   2.693
91274W        W58342  23.492  19.628  13.954
91275W        W58343  32.008   0.793  13.033
91276W        W58344  14.779  15.643  14.012
91277W        W58345  38.052  37.079   3.832
91278W        W58346  38.571   9.859  13.880
91279W        W58347  28.579  19.110   1.263
91280W        W58348  31.450   5.346  13.433
91281W        W58349  24.520  40.344   1.385
91282W        W58350  18.060  21.728   2.219
91283W        W58351  31.513  13.650   1.282
91284W        W58352  37.435  11.636  10.581
91285W        W58353  36.350   4.221   3.702
91286W        W58354   3.376  26.682  10.468
91287W        W58355  43.917  39.404  11.411
91288W        W58356  26.162   6.844   2.306
91289W        W58357  41.394  26.503  13.483
91290W        W58358  32.575  39.984   0.304
91291W        W58359  18.113   3.431  14.944
91292W        W58360   2.790  44.305   2.237
91293W        W58361  35.391  21.602   2.245
91294W        W58362  17.065   2.373  10.895
91295W        W58363  43.908  35.941  12.526
91296W        W58364   7.233  22.012   3.217
91297W        W58365  17.757   9.777   2.189
91298W        W58366  13.627   3.831   0.331
91299W        W58367  11.133   2.296  10.635
91300W        W58368  35.456  21.236   1.769
91301W        W58369  22.697   3.380  10.612
91302W        W58370   0.396  33.069  13.046
91303W        W58371  27.510  39.541   0.335
91304W        W58372   9.675  39.867  14.827
91305W        W58373  29.444  21.223   4.225
91306W        W58374   3.727  19.276   2.293
91307W        W58375  34.103  20.638  13.865
91308W        W58376  22.087  34.567   1.917
91309W        W58377  39.835  26.634  13.005
91310W        W58378   0.345  14.781   2.316
91311W        W58379  43.411  17.249  10.416
91312W        W58380  10.754  19.698   0.887
91313W        W58381  18.783  17.226   0.838
91314W        W58382  22.663  43.892   3.318
91315W        W58383  23.672  13.676  13.892
91316W        W58384  17.137  23.515  13.441
91317W        W58385  40.921  41.969   2.800
91318W        W58386  44.490  24.521   4.725
91319W        W58387  38.923  36.934  13.328
91320W        W58388   7.278  40.859  11.461
91321W        W58389  41.332  37.955  13.969
91322W        W58390  10.335  26.490   0.420
91323W        W58391   2.911  43.397  13.493
91324W        W58392  21.554  11.308   1.908
91325W        W58393  17.092  27.980   3.830
91326W        W58394  28.574  41.440  11.381
91327W        W58395  12.131  40.354  11.607
91328W        W58396  11.716  16.803  14.377
91329W        W58397  33.967  23.140   1.906
91330W        W58398  35.468  15.626  12.393
91331W        W58399   2.305  25.073  12.405
91332W        W58400  35.402  43.287  11.373
91333W        W58401  18.618   8.367   0.951
91334W        W58402  41.492   8.864  12.482
91335W        W58403  15.294  28.182  13.810
91336W        W58404  27.622  36.379  14.416
91337W        W58405  39.939  10.381   0.363
91338W        W58406  14.634   0.923  11.930
91339W        W58407  41.357   2.770   2.211
91340W        W58408   3.760   8.899   4.761
91341W        W58409   5.700  33.904  10.909
91342W        W58410  33.584  26.135   1.747
91343W        W58411  13.274  25.470   3.349
91344W        W58412  44.338  12.661   3.231
91345W        W58413  33.541  24.599  13.972
91346W        W58414  15.809  18.555   2.875
91347W        W58415  19.674  36.023   3.278
91348W        W58416  31.492  20.197   0.927
91349W        W58417  35.000  22.582   1.863
91350W        W58418  32.892   1.362   4.134
91351W        W58419  44.844  27.961  11.468
91352W        W58420  29.477  17.571   2.703
91353W        W58421  15.806   7.689   5.241
91354W        W58422  35.552   5.794   4.675
91355W        W58423   0.387  13.247  14.938
91356W        W58424  20.555  12.835   4.631
91357W        W58425  13.340  24.644  10.631
91358W        W58426  31.544  28.949   2.844
91359W        W58427  12.657   6.701  12.421
91360W        W58428  41.465   8.401   0.451
91361W        W58429   8.287  19.607  12.873
91362W        W58430   7.847  28.152   3.174
91363W        W58431   3.277  22.124  12.919
91364W        W58432  24.527   1.295  12.459
91365W        W58433  40.382  40.953  10.572
91366W        W58434  30.584  37.510   3.754
91367W        W58435  15.118   3.416  10.991
91368W        W58436  30.476  36.419  11.115
91369W        W58437  15.293  24.198   2.317
91370W        W58438  29.473  25.099  12.909
91371W        W58439  31.901  26.006  14.997
91372W        W58440  27.020  31.935   4.213
91373W        W58441  15.190  31.114   4.665
91374W        W58442  29.121   8.374  11.427
91375W        W58443  39.545   8.848  14.984
91376W        W58444  40.343  41.503   2.183
91377W        W58445  11.707  18.720  14.337
91378W        W58446   5.374  24.679   0.906
91379W        W58447   8.775  30.468   0.921
91380W        W58448  40.414  10.344   1.336
91381W        W58449  36.016  30.024  12.079
91382W        W58450   1.848  23.678   3.753
91383W        W58451  18.722  17.653   1.842
91384W        W58452  26.071  37.066   3.710
91385W        W58453   3.318  16.576  10.616
91386W        W58454  20.254   6.239  12.882
91387W        W58455  10.751  34.390   4.697
91388W        W58456  44.921  36.857   1.221
91389W        W58457  24.543  33.594  14.886
91390W        W58458  39.059  23.203   1.354
91391W        W58459  24.038  19.045   3.778
91392W        W58460  39.064  41.521   0.392
91393W        W58461  13.314  35.957   2.213
91394W        W58462  26.013  32.082  10.954
91395W        W58463  20.729   5.259  12.503
91396W        W58464  32.067  42.315  12.039
91397W        W58465  16.588  10.782  12.988
91398W        W58466  29.552  41.973  12.346
91399W        W58467  34.449  36.032  13.546
91400W        W58468  14.807   3.856   4.189
91401W        W58469  15.221  17.608   3.308
91402W        W58470  10.224  31.563   2.719
91403W        W58471  35.505  34.514  14.375
91404W        W58472   1.286  35.393  14.976
91405W        W58473   1.744  29.094   4.351
91406W        W58474  10.153  30.641  13.919
91407W        W58475   1.254  25.510   3.354
91408W        W58476  32.977   7.295  13.027
91409W        W58477  44.447  11.294  13.043
91410W        W58478  42.808  32.490   4.166
91411W        W58479  35.370  34.911   1.286
91412W        W58480  41.956   9.286  14.295
91413W        W58481   9.780  30.156   1.760
91414W        W58482  29.061  29.029  14.017
91415W        W58483  14.816  20.631   1.842
91416W        W58484  43.447  42.300  13.359
91417W        W58485  20.641  14.303  13.917
91418W        W58486   7.789  20.231   2.729
91419W        W58487  18.153  41.012   2.305
91420W        W58488   2.897  35.394   2.740
91421W        W58489  36.959  39.972   0.869
91422W        W58490   0.355  30.596  12.407
91423W        W58491  17.268  40.044   4.623
91424W        W58492  40.459  17.566  13.917
91425W        W58493  44.943  23.619  14.316
91426W        W58494  12.198  44.955   0.434
91427W        W58495   6.859  32.020  13.892
91428W        W58496  10.154  37.990   2.311
91429W        W58497  26.019  15.173  11.113
91430W        W58498   8.722  23.174  14.343
91431W        W58499  23.715   2.433   1.347
91432W        W58500  26.152  18.225  10.632
91433W        W58501  21.531  35.071  12.424
91434W        W58502  37.450   4.316  12.870
91435W        W58503   4.745  41.807  12.453
91436W        W58504   1.765  36.982   0.954
91437W        W58505  37.971   2.741   4.289
91438W        W58506  16.079   8.655   1.215
91439W        W58507  39.429  25.635   2.190
91440W        W58508  30.445   5.722   0.425
91441W        W58509  11.332  11.637   2.798
91442W        W58510  25.610  35.490  11.376
91443W        W58511   1.303  11.670  10.492
91444W        W58512  19.623  30.532  14.841
91445W        W58513  32.617  19.178   1.839
91446W        W58514   9.772  38.831  10.988
91447W        W58515  11.370  28.548   4.231
91448W        W58516  31.040  34.371   1.398
91449W        W58517  40.399   5.254   0.812
91450W        W58518  16.155   2.348  11.055
91451W        W58519  40.003  20.603  11.485
91452W        W58520  12.145  34.951  14.911
91453W        W58521  13.792  22.626  10.917
91454W        W58522  38.556  14.098  11.597
91455W        W58523  35.989  22.726  13.880
91456W        W58524   2.887  31.087   2.345
91457W        W58525  13.788  32.425  14.796
91458W        W58526  10.783  13.148  12.369
91459W        W58527   2.892  17.643   1.232
91460W        W58528  32.476   1.874   1.935
91461W        W58529   3.332   8.289   1.704
91462W        W58530   8.854   5.320  14.280
91463W        W58531  32.993  13.117   0.433
91464W        W58532  23.028  14.822  11.062
91465W        W58533   0.986  22.673   2.810
91466W        W58534  30.438  32.619  11.534
91467W        W58535  32.077  16.185   3.842
91468W        W58536  42.430  13.777   0.817
91469W        W58537  13.672  40.926  11.546
91470W        W58538   5.726  18.639   0.893
91471W        W58539  19.674  29.975  13.441
91472W        W58540  26.076  31.581   2.353
91473W        W58541  11.298  41.920   2.735
91474W        W58542   2.846  22.116  12.936
91475W        W58543  16.670  26.149   2.682
91476W        W58544   1.951  38.962   0.859
91477W        W58545   7.758  14.158  12.442
91478W        W58546   9.242  30.140  14.790
91479W        W58547  27.520  11.250   1.827
91480W        W58548  43.854  31.981   2.741
91481W        W58549   6.201  26.162   2.833
91482W        W58550  14.276   7.330   1.230
91483W        W58551  32.119  15.808   2.698
91484W        W58552  42.416   1.478  12.926
91485W        W58553  17.756  31.908  10.978
91486W        W58554  37.046  15.642   5.296
91487W        W58555  42.845  38.556  13.973
91488W        W58556  34.577  10.876  14.397
91489W        W58557   7.846  15.149   0.330
91490W        W58558  18.116   2.298  14.385
91491W        W58559  10.753  28.561  10.628
91492W        W58560  41.898  18.171  13.929
91493W        W58561   3.844   3.320  11.445
91494W        W58562  30.150   1.372   1.386
91495W        W58563  10.742  13.306   1.907
91496W        W58564  10.274   7.896   4.253
91497W        W58565  11.822  39.401   3.278
91498W        W58566  29.950   6.266   0.277
91499W        W58567  38.449   9.875   0.889
91500W        W58568  31.624  10.222   3.841
91501W        W58569  26.621  14.645   5.215
91502W        W58570  37.439  25.503   1.801
91503W        W58571  22.125  22.610   0.908
91504W        W58572   9.756  20.264  14.811
91505W        W58573  33.576  35.439  12.866
91506W        W58574  19.096   4.396   1.321
91507W        W58575  42.000   7.866   0.364
91508W        W58576  38.995  34.092   0.880
91509W        W58577  37.560  23.608  14.483
91510W        W58578   5.386  19.763   2.270
91511W        W58579   4.796  26.578  13.881
91512W        W58580  18.545  12.682  14.956
91513W        W58581  15.717  24.619  11.576
91514W        W58582  28.158  13.629   1.840
91515W        W58583  34.994  26.991   1.779
91516W        W58584  16.189  41.530  12.071
91517W        W58585  33.920  27.967  10.580
91518W        W58586  25.669  15.170  14.401
91519W        W58587  28.495  29.170   4.136
91520W        W58588  22.639   2.454  11.858
91521W        W58589  22.574  21.668  11.562
91522W        W58590   4.894  17.665  12.971
91523W        W58591  11.131  21.707  13.812
91524W        W58592  11.830  17.579   1.379
91525W        W58593  15.250  12.817   2.250
91526W        W58594  20.640  28.470  12.401
91527W        W58595  44.274  25.612   0.310
91528W        W58596  40.536  26.085  13.977
91529W        W58597  44.969   0.840   0.762
91530W        W58598   5.197  35.548   2.349
91531W        W58599  40.342  34.115  11.120
91532W        W58600  29.539  43.434   3.253
91533W        W58601  40.480  10.167   0.792
91534W        W58602   1.780   3.815   1.867
91535W        W58603  35.073  12.814   5.219
91536W        W58604  23.164   2.814  12.026
91537W        W58605  15.228  23.602   1.834
91538W        W58606   0.269  29.048  13.880
91539W        W58607  14.679  15.152  11.557
91540W        W58608  20.193   8.754  11.423
91541W        W58609  14.111  42.823   2.781
91542W        W58610  34.914  21.185   4.235
91543W        W58611   0.897  36.097  12.093
91544W        W58612  42.907  13.144  14.382
91545W        W58613  25.992   1.404   1.428
91546W        W58614  24.724  34.025   3.654
91547W        W58615  35.095  36.351  11.464
91548W        W58616  21.742  21.660  12.830
91549W        W58617  41.817  31.449  11.594
91550W        W58618  36.900  24.714  11.458
91551W        W58619  37.391  33.416  13.825
91552W        W58620  39.037  28.479   0.412
91553W        W58621  43.004  41.880   1.933
91554W        W58622  10.236  20.128   0.448
91555W        W58623   5.269   2.372  12.983
91556W        W58624  39.523   0.398   0.802
91557W        W58625  29.155  10.326  10.556
91558W        W58626   7.260  35.067  11.036
91559W        W58627  40.485   8.290  14.904
91560W        W58628  15.202  16.152   0.246
91561W        W58629  19.712  25.113  11.083
91562W        W58630  17.238  14.103   3.309
91563W        W58631  36.938  14.590   4.322
91564W        W58632  31.058  42.981  14.504
91565W        W58633   7.278   4.767  14.807
91566W        W58634   5.373  28.589  12.565
91567W        W58635  32.417   1.332   1.420
91568W        W58636  19.649  27.110  14.824
91569W        W58637  23.669  30.962  13.453
91570W        W58638  40.916  34.508  12.477
91571W        W58639  39.468  27.083  13.914
91572W        W58640   8.301  24.981   0.862
91573W        W58641  27.666  36.348   2.179
91574W        W58642  22.678  33.584  14.409
91575W        W58643  40.937   6.860   0.845
91576W        W58644  39.552  26.645   0.771
91577W        W58645  34.053  40.953   0.309
91578W        W58646  14.641  12.678  14.796
91579W        W58647  30.634  16.282  13.806
91580W        W58648  21.698   8.900   0.952
91581W        W58649  44.366  22.056  12.404
91582W        W58650  10.701  29.560  11.470
91583W        W58651  38.019  39.322   3.632
91584W        W58652   8.262   4.328   2.668
91585W        W58653  23.040  42.966   0.820
91586W        W58654  24.081  20.120  13.928
91587W        W58655  33.450  43.935   2.729
91588W        W58656  34.487  20.078  13.331
91589W        W58657  10.859  19.706   2.823
91590W        W58658  36.033  28.958   0.921
91591W        W58659  33.928   5.692  13.845
91592W        W58660  40.481   2.341   2.885
91593W        W58661  34.911  38.329  10.992
91594W        W58662   3.773  24.584  13.396
91595W        W58663  11.277  24.512  11.886
91596W        W58664  14.255  34.576  14.321
91597W        W58665  15.727  30.129  12.881
91598W        W58666  13.670  43.004   2.401
91599W        W58667   1.870  10.722   3.866
91600W        W58668  44.422   5.261   2.350
91601W        W58669  44.833  33.439   0.300
91602W        W58670  17.594   2.905  12.094
91603W        W58671  40.020  39.338   0.277
91604W        W58672  30.597  44.373  14.980
91605W        W58673  25.692  15.222  14.965
91606W        W58674  38.051   3.736  11.972
91607W        W58675  14.100  18.195  11.504
91608W        W58676   4.845  42.846   5.250
91609W        W58677  34.548  42.511   2.872
91610W        W58678  20.556  33.937  13.480
91611W        W58679  31.077   9.289   4.143
91612W        W58680  19.048  15.123   3.191
91613W        W58681  17.214  38.861   2.848
91614W        W58682  18.785   8.281   4.642
91615W        W58683  23.647  26.532   0.736
91616W        W58684  19.542  26.053  12.022
91617W        W58685  21.159   7.903   1.284
91618W        W58686   4.756  42.465  11.577
91619W        W58687  31.417  27.518  12.340
91620W        W58688   6.694  15.105   3.259
91621W        W58689  16.276  20.216  12.963
91622W        W58690  43.307  27.070  13.835
91623W        W58691  44.448  31.998  12.491
91624W        W58692  37.466  24.060   4.212
91625W        W58693   6.299  43.782  12.384
91626W        W58694  29.024  13.199   1.210
91627W        W58695  19.098  38.486   1.774
91628W        W58696  40.470  21.104   5.103
91629W        W58697  26.065  38.520   2.746
91630W        W58698  21.606  17.563   0.339
91631W        W58699  29.538   5.245   1.705
91632W        W58700  37.874  44.855   3.805
91633W        W58701  23.637  23.638   4.616
91634W        W58702  18.603  34.077  12.035
91635W        W58703  15.265  39.398   1.275
91636W        W58704  37.360  30.040  14.798
91637W        W58705   1.839  42.466  10.413
91638W        W58706  32.118  16.631   1.710
91639W        W58707  38.518  11.353  11.435
91640W        W58708  37.975  44.260  11.026
91641W        W58709  31.447   3.795  14.940
91642W        W58710  36.463  28.163  14.410
91643W        W58711  44.271  30.968   4.204
91644W        W58712  30.156  38.438  13.816
91645W        W58713  24.063  15.140  11.927
91646W        W58714  20.631  16.701  10.595
91647W        W58715  17.679  22.088  13.498
91648W        W58716  19.268  24.126  13.463
91649W        W58717  43.328  28.454  11.083
91650W        W58718  24.202  34.115  12.972
91651W        W58719  40.954  40.392  10.474
91652W        W58720  29.957  17.563   4.688
91653W        W58721  37.362  36.485  13.856
91654W        W58722  43.456   0.949   0.282
91655W        W58723  34.110  36.374  11.604
91656W        W58724  15.625  27.471   2.883
91657W        W58725  36.536  33.452  13.058
91658W        W58726  38.869  10.195   9.989
91659W        W58727   2.274  44.292   1.727
91660W        W58728  25.195   2.834  10.920
91661W        W58729  10.689  14.719   0.912
91662W        W58730  21.572  36.410   3.765
91663W        W58731  19.130   2.943  12.941
91664W        W58732  28.096   2.236  12.343
91665W        W58733  16.667  11.302   0.891
91666W        W58734  15.695  39.036  12.827
91667W        W58735  32.925  20.108  10.507
91668W        W58736   8.724  11.821  12.910
91669W        W58737  39.478  10.201   4.732
91670W        W58738  32.906   4.222  13.933
91671W        W58739   7.803   8.388  10.446
91672W        W58740   9.219  17.636  11.869
91673W        W58741  20.241  18.709  12.481
91674W        W58742  40.403   6.356   0.267
91675W        W58743   5.687  42.509   3.341
91676W        W58744  30.460  20.699  13.314
91677W        W58745  42.892  31.925   1.415
91678W        W58746  12.655   6.254  13.412
91679W        W58747  31.081  43.426  13.497
91680W        W58748  43.351  15.799  10.956
91681W        W58749  13.342  42.783   3.190
91682W        W58750  44.809   7.242   1.263
91683W        W58751   3.276  27.021  12.435
91684W        W58752   0.987   7.395  11.901
91685W        W58753  21.174  40.456   3.152
91686W        W58754  18.056  37.431  13.954
91687W        W58755  11.626   7.845  11.598
91688W        W58756  17.294  18.054   4.728
91689W        W58757  43.469  36.858  13.988
91690W        W58758  28.609   5.407  12.504
91691W        W58759  36.466  37.348  11.425
91692W        W58760   5.284  26.458  14.810
91693W        W58761  16.125  28.582  13.936
91694W        W58762   8.661   7.747  11.998
91695W        W58763  14.164  19.544   0.343
91696W        W58764  17.296  13.701   2.272
91697W        W58765  16.255   2.370   2.677
91698W        W58766  38.526   2.874   3.805
91699W        W58767   5.241   3.711  14.838
91700W        W58768  27.151  44.275  11.056
91701W        W58769  18.219   3.845   4.199
91702W        W58770   6.238  33.417  11.507
91703W        W58771  32.543  31.637  14.880
91704W        W58772  39.925  15.279  13.945
91705W        W58773  35.872  40.913   3.855
91706W        W58774  31.043  17.082   2.328
91707W        W58775  14.101  13.693  14.460
91708W        W58776  32.092  15.622   0.935
91709W        W58777  39.845  21.680   3.838
91710W        W58778  40.325  10.746  11.427
91711W        W58779  30.925  34.077  14.851
91712W        W58780  44.293  18.251   3.319
91713W        W58781  24.690  36.981  14.358
91714W        W58782  38.846  42.429  13.969
91715W        W58783   7.185   5.724   4.175
91716W        W58784   7.905  34.446   0.815
91717W        W58785  17.763  24.103  11.467
91718W        W58786  38.440   1.418  12.046
91719W        W58787  14.226  15.192  13.036
91720W        W58788  25.079  37.390  12.371
91721W        W58789   3.376  26.096  11.117
91722W        W58790  20.037  16.081  14.486
91723W        W58791  15.131  34.865   4.816
91724W        W58792  29.448  13.620  12.946
91725W        W58793   3.323  39.336  13.842
91726W        W58794   1.850   7.180   1.813
91727W        W58795   2.929  29.566   1.919
91728W        W58796  10.687   5.786   1.298
91729W        W58797  10.867  16.753   2.404
91730W        W58798   5.263  30.048  14.339
91731W        W58799  15.083  20.274   4.353
91732W        W58800  15.820   7.239  14.349
91733W        W58801   5.265  13.232  13.003
91734W        W58802   3.376  30.655   3.817
91735W        W58803  14.292  32.582  10.939
91736W        W58804  29.030   4.322  12.362
91737W        W58805  24.617  10.750   2.363
91738W        W58806  28.950  35.394  12.062
91739W        W58807  27.106  23.092  10.420
91740W        W58808   8.323  25.509  13.891
91741W        W58809  35.076  20.125   3.685
91742W        W58810  12.775   9.149   0.810
91743W        W58811  31.483  23.034  10.623
91744W        W58812   8.711  15.321  11.902
91745W        W58813   9.317  35.934  10.452
91746W        W58814  43.475  40.930  12.824
91747W        W58815  15.293  11.199  12.991
91748W        W58816  14.690  35.537  13.051
91749W        W58817  19.770  33.447   0.467
91750W        W58818  32.080  39.995   0.861
91751W        W58819  35.580  17.586  11.956
91752W        W58820  20.527  32.025   2.401
91753W        W58821  26.951  19.065   1.258
91754W        W58822  25.060  13.787   0.771
91755W        W58823  24.650  17.786   1.247
91756W        W58824   1.364   4.741  14.790
91757W        W58825  11.791  42.417  14.424
91758W        W58826  44.889  42.937  11.110
91759W        W58827  26.976   0.370  11.911
91760W        W58828  38.501   0.897   0.844
91761W        W58829  42.363  39.446   1.318
91762W        W58830   9.691  24.105  12.845
91763W        W58831   4.314   6.368  11.441
91764W        W58832  25.514  21.151  10.427
91765W        W58833  18.660  19.240   1.801
91766W        W58834  36.013  37.422   0.948
91767W        W58835  35.486  38.360  12.503
91768W        W58836  41.861  41.838  12.071
91769W        W58837  40.540  37.934   0.876
91770W        W58838   8.756  15.275  11.071
91771W        W58839  26.636  35.066   9.932
91772W        W58840  39.359  39.435  12.026
91773W        W58841  34.464  15.766  13.799
91774W        W58842   4.298  42.440  14.959
91775W        W58843  40.866  34.920  14.867
91776W        W58844   2.910  42.401   1.725
91777W        W58845   3.340  22.526  12.896
91778W        W58846  40.366   1.419  11.456
91779W        W58847  33.086   2.282   3.766
91780W        W58848  31.903  29.926   1.865
91781W        W58849  12.778  41.352   4.726
91782W        W58850  25.707  43.779   3.368
91783W        W58851  25.098   6.742  10.483
91784W        W58852  15.265  40.486  10.993
91785W        W58853  30.503   4.848   0.376
91786W        W58854  11.779   3.397   5.144
91787W        W58855  23.705  34.482   0.892
91788W        W58856   9.747  26.168  13.014
91789W        W58857  39.036  17.167  14.313
91790W        W58858  43.439   1.755   3.157
91791W        W58859  29.572  24.176  11.125
91792W        W58860   5.922   5.322  10.643
91793W        W58861  18.262  11.372   2.782
91794W        W58862  36.022  20.555  12.530
91795W        W58863  33.077  17.085  12.901
91796W        W58864  38.879  21.247   4.231
91797W        W58865  29.984   6.349   0.761
91798W        W58866   1.351  36.028   4.279
91799W        W58867  38.853  17.760  14.028
91800W        W58868   0.835  42.011   2.240
91801W        W58869  39.004  30.990  10.929
91802W        W58870  39.473   6.261  12.407
91803W        W58871  16.778   6.905   3.868
91804W        W58872  25.630   8.816   2.876
91805W        W58873  39.508  28.955   0.246
91806W        W58874  29.170  37.963   1.929
91807W        W58875  29.055   2.806   0.779
91808W        W58876  36.560   5.759   1.289
91809W        W58877  21.199   4.252   4.272
91810W        W58878  16.203  19.063  11.889
91811W        W58879   3.910   2.859   1.780
91812W        W58880  21.128  11.284   3.267
91813W        W58881  32.543  14.195   4.757
91814W        W58882   3.350   4.798   2.314
91815W        W58883  22.595  44.848  14.936
91816W        W58884  41.983  16.622  12.537
91817W        W58885  10.682  11.649   4.173
91818W        W58886  39.468  23.597  14.407
91819W        W58887  14.180  26.197   2.887
91820W        W58888  14.770  31.915   1.893
91821W        W58889  27.563  20.122   0.465
91822W        W58890   9.159  24.640   0.326
91823W        W58891  18.257  10.685  14.467
91824W        W58892  20.763   7.342   4.236
91825W        W58893  37.004  14.717  10.910
91826W        W58894  22.195  24.225  14.491
91827W        W58895   0.377  44.791   2.199
91828W        W58896   7.728  24.513  11.987
91829W        W58897  38.917  26.179  14.995
91830W        W58898  36.559   8.292  13.377
91831W        W58899  33.510  43.474  12.020
91832W        W58900  21.236  17.119  12.900
91833W        W58901  44.845  33.029   9.572
91834W        W58902  15.720  16.307   4.825
91835W        W58903  36.465  20.213   4.619
91836W        W58904  21.201   9.828   1.395
91837W        W58905  12.655  29.624   4.321
91838W        W58906  13.323  40.515   0.274
91839W        W58907  25.634   9.324   0.384
91840W        W58908  19.158  36.985   0.799
91841W        W58909  15.091   1.885   0.783
91842W        W58910   0.882  43.881   4.763
91843W        W58911  44.336  29.111   4.729
91844W        W58912  42.298   5.439   0.422
91845W        W58913  18.197  10.725   4.604
91846W        W58914  11.787  43.459   0.434
91847W        W58915   0.448   1.379   0.254
91848W        W58916   7.375   4.341  11.900
91849W        W58917   8.778   9.679   2.290
91850W        W58918  44.339  32.392  14.350
91851W        W58919  10.139  30.139   1.230
91852W        W58920  22.176  20.171   0.913
91853W        W58921   6.761  20.118  13.471
91854W        W58922  25.012   5.323  14.300
91855W        W58923  41.468  25.043   4.619
91856W        W58924   0.836  34.880   9.646
91857W        W58925  21.250  23.712   2.708
91858W        W58926  10.662  44.888  11.113
91859W        W58927   3.710  26.584   4.667
91860W        W58928  11.192   5.440   0.884
91861W        W58929  38.026  33.416   3.812
91862W        W58930  37.492  37.467   3.300
91863W        W58931  17.586  26.102   1.848
91864W        W58932  41.890   4.442  12.408
91865W        W58933   4.288  34.444   1.370
91866W        W58934   7.228  34.443   1.868
91867W        W58935  15.239  30.134  14.001
91868W        W58936   8.766  16.568   2.259
91869W        W58937   0.422  31.041  12.437
91870W        W58938   1.961   0.975   3.235
91871W        W58939  31.105  13.271  12.534
91872W        W58940  40.971  30.988   1.742
91873W        W58941  43.008  32.619  10.964
91874W        W58942  39.445  41.435  14.334
91875W        W58943  21.649  20.227   2.257
91876W        W58944  32.511  41.873   1.901
91877W        W58945  43.418  30.651   3.261
91878W        W58946  10.348   6.252   1.223
91879W        W58947  11.133  10.336   1.779
91880W        W58948  31.437  30.634  14.856
91881W        W58949  33.565   0.949   0.449
91882W        W58950  29.928  18.201  10.592
91883W        W58951  19.738  29.986   0.409
91884W        W58952   5.922  35.414  12.841
91885W        W58953  14.178  35.439  13.918
91886W        W58954   6.319   9.250  13.320
91887W        W58955  18.655  17.792   0.871
91888W        W58956  19.716   0.877  12.075
91889W        W58957  23.596  26.541  12.462
91890W        W58958  16.208  37.997  13.390
91891W        W58959  33.120   3.843   2.256
91892W        W58960  33.099  32.624   1.276
91893W        W58961   5.200   9.801  10.987
91894W        W58962   4.249  27.555  11.038
91895W        W58963   2.469  32.423   1.391
91896W        W58964  28.141  19.116  13.845
91897W        W58965  31.109   4.943   1.822
91898W        W58966  24.520  37.515   1.722
91899W        W58967  17.194  15.616  10.536
91900W        W58968  25.219   9.778   2.809
91901W        W58969   0.365  34.883  11.505
91902W        W58970   1.289  26.593  11.992
91903W        W58971  16.624  31.972   2.758
91904W        W58972  19.276  27.000   2.800
91905W        W58973   0.812   4.777  10.051
91906W        W58974  22.739   4.873   5.308
91907W        W58975   6.789   1.304  10.903
91908W        W58976   9.838  22.712  14.869
91909W        W58977  19.167   2.853   3.869
91910W        W58978  22.195  12.854   1.289
91911W        W58979   1.960  40.934   1.803
91912W        W58980   7.232   5.433  10.620
91913W        W58981  32.078  27.156  14.431
91914W        W58982  25.703  39.946   2.208
91915W        W58983   5.708  34.074  14.465
91916W        W58984  34.538   2.926  10.445
91917W        W58985  23.237   7.810  12.864
91918W        W58986  39.943  34.426   1.781
91919W        W58987   6.740  22.167  11.928
91920W        W58988   2.758  24.702   3.188
91921W        W58989   9.165  27.540   0.883
91922W        W58990   9.664  42.507  11.901
91923W        W58991  27.638  44.009  13.926
91924W        W58992  18.268  12.198  13.504
91925W        W58993   7.734  32.109   5.295
91926W        W58994  23.685   1.470   2.693
91927W        W58995  14.642  42.321  11.442
91928W        W58996   0.859  36.499   4.187
91929W        W58997  39.447  22.136  14.501
91930W        W58998  32.396  28.034  13.031
91931W        W58999   7.859  22.196  12.010
91932W        W59000  41.845  15.736   3.716
91933W        W59001  14.775  24.216  12.394
91934W        W59002   6.694  38.356  14.932
91935W        W59003  36.559  33.927   1.908
91936W        W59004  32.020  14.302   2.188
91937W        W59005  29.952  29.066   3.748
91938W        W59006  44.470  19.624   1.328
91939W        W59007  13.698  24.485  12.952
91940W        W59008  13.767  14.113  14.948
91941W        W59009  34.005   4.915  12.488
91942W        W59010   7.245   7.773  11.904
91943W        W59011  30.615  14.606  11.881
91944W        W59012   3.359  33.064  10.120
91945W        W59013  22.015  10.805  13.059
91946W        W59014  43.886  17.761  13.368
91947W        W59015   3.873  12.346   4.149
91948W        W59016  37.897  30.081  11.054
91949W        W59017  33.033   9.348   0.827
91950W        W59018  28.553  19.166  14.913
91951W        W59019  16.709  44.354   4.733
91952W        W59020  24.689  23.732  10.512
91953W        W59021  39.870  32.422  14.486
91954W        W59022  39.321  32.467   3.340
91955W        W59023   3.223  30.538  14.425
91956W        W59024  14.822  19.125   4.326
91957W        W59025  23.582  26.055  13.474
91958W        W59026   4.809   3.724   0.287
91959W        W59027  35.071   3.951   3.387
91960W        W59028  24.054  35.030  14.802
91961W        W59029  36.959  34.549  13.356
91962W        W59030  10.704   0.419   1.301
91963W        W59031  21.250  37.974   0.477
91964W        W59032  33.593  20.625  14.391
91965W        W59033  34.996  20.083   2.845
91966W        W59034  22.502   7.202   1.878
91967W        W59035   7.703   6.192  12.380
91968W        W59036  34.082  34.467   4.705
91969W        W59037   0.462  33.428  11.967
91970W        W59038   9.273  28.528   4.761
91971W        W59039  24.488  36.008  11.924
91972W        W59040  13.667  43.311  14.865
91973W        W59041  10.225  11.665   4.668
91974W        W59042  37.535  31.063  10.908
91975W        W59043  18.606  42.447   1.696
91976W        W59044   1.476  33.527   2.880
91977W        W59045   3.765  22.206   2.721
91978W        W59046  21.139  25.147   2.273
91979W        W59047  17.261  25.219  11.565
91980W        W59048  15.675  33.940  13.825
91981W        W59049  32.048  37.372  13.322
91982W        W59050  30.470   4.258  11.498
91983W        W59051  39.549  20.749  12.009
91984W        W59052  17.287  31.469  14.923
91985W        W59053  15.617  11.798   9.950
91986W        W59054   6.800   0.382  10.449
91987W        W59055  15.786  23.084  12.899
91988W        W59056  10.867  41.880  10.425
91989W        W59057  22.580  16.266  12.865
91990W        W59058   9.249   8.255  14.913
91991W        W59059  31.584  17.153   3.691
91992W        W59060  39.912   0.364   3.723
91993W        W59061  35.942   1.950   1.322
91994W        W59062  44.790  31.541  10.549
91995W        W59063   0.787  37.850  10.892
91996W        W59064  26.577  15.683  13.377
91997W        W59065  44.983  30.927   4.318
91998W        W59066  36.076  10.843  10.571
91999W        W59067  35.419  30.452  13.991
92000W        W59068  26.698  35.994  13.308
92001W        W59069  21.231  42.843   5.093
92002W        W59070   1.247  24.513   0.766
92003W        W59071  27.450  35.901  11.426
92004W        W59072  20.229  27.097   4.295
92005W        W59073  41.970   9.723   4.199
92006W        W59074   8.198  20.203   1.299
92007W        W59075  43.276  10.848  12.357
92008W        W59076  17.176  32.498   2.720
92009W        W59077  36.055  18.545   2.868
92010W        W59078  39.882  12.292   2.216
92011W        W59079  10.193  27.956  13.911
92012W        W59080  23.073  42.816  13.525
92013W        W59081  19.202  21.757   9.940
92014W        W59082  41.941  16.659   4.631
92015W        W59083  36.871   1.448  12.041
92016W        W59084  20.573   0.778  13.386
92017W        W59085   7.281  37.957  13.956
92018W        W59086  19.707  17.248  11.586
92019W        W59087   4.367   2.280  12.942
92020W        W59088  19.117  43.987  12.866
92021W        W59089   6.397  26.173   3.332
92022W        W59090  24.484  38.424   3.199
92023W        W59091  26.600  21.075   1.721
92024W        W59092  40.871  44.377  14.380
92025W        W59093  27.448  28.448   2.323
92026W        W59094   3.743  15.183   3.683
92027W        W59095  21.233   5.291   1.237
92028W        W59096  14.741  37.835   2.303
92029W        W59097  35.943  39.952   3.265
92030W        W59098  29.568  40.304  13.947
92031W        W59099  28.939  39.446  11.863
92032W        W59100  13.702  24.167   0.262
92033W        W59101  30.947   1.867   1.769
92034W        W59102  35.426  30.117   3.637
92035W        W59103   1.930   5.792   1.226
92036W        W59104  37.396  31.414   4.129
92037W        W59105  32.528   1.900  14.758
92038W        W59106  29.569  24.121   0.402
92039W        W59107  31.441  41.007  13.814
92040W        W59108  32.060  38.444   0.321
92041W        W59109  40.539  26.596  10.934
92042W        W59110  30.985   4.343  12.837
92043W        W59111  17.659  42.386  10.995
92044W        W59112  11.314   8.893   4.320
92045W        W59113  22.678  19.610  10.469
92046W        W59114  42.519  19.657  12.425
92047W        W59115  15.615  11.623   0.293
92048W        W59116  23.594  25.102  12.007
92049W        W59117  11.246  18.146   3.698
92050W        W59118  36.952  14.716  12.514
92051W        W59119  23.551  31.135   0.318
92052W        W59120   8.749  35.003   5.279
92053W        W59121  24.089  15.702  10.600
92054W        W59122  10.680  36.349  11.976
92055W        W59123   0.327  30.517  13.434
92056W        W59124  26.068  15.689  12.994
92057W        W59125  42.010   6.420  12.411
92058W        W59126  44.466  26.522   1.907
92059W        W59127   1.266  20.184   0.477
92060W        W59128  20.617  42.396  11.004
92061W        W59129  35.472  43.494  10.469
92062W        W59130   4.887  11.777   5.240
92063W        W59131  11.228  20.199   0.754
92064W        W59132  31.897  21.078   3.817
92065W        W59133  44.970  44.942  14.922
92066W        W59134   5.356  38.367   3.765
92067W        W59135  20.265  40.508   4.261
92068W        W59136   8.170  15.737   3.385
92069W        W59137  38.525  40.991   3.632
92070W        W59138  41.344  44.505  14.431
92071W        W59139   6.368  26.559   4.804
92072W        W59140   9.240  32.431   3.164
92073W        W59141  30.519  28.161  14.813
92074W        W59142  17.095  10.214   0.740
92075W        W59143  23.633  39.407   1.397
92076W        W59144   8.874  16.233  10.908
92077W        W59145   9.237  31.542  11.377
92078W        W59146  33.411  21.539   0.771
92079W        W59147  19.665  43.853   4.652
92080W        W59148  15.285   4.723   1.791
92081W        W59149  34.586  39.479   4.817
92082W        W59150   4.337  44.848   2.357
92083W        W59151  18.157  30.082   2.304
92084W        W59152   1.396  20.633  13.406
92085W        W59153  27.022  11.834  14.293
92086W        W59154   1.469  38.389  12.440
92087W        W59155  29.520   2.742  14.483
92088W        W59156  32.634  25.650  11.591
92089W        W59157  23.104   4.744   2.230
92090W        W59158   4.236   6.392  14.505
92091W        W59159  20.544  29.030  11.936
92092W        W59160  22.101  22.205  12.834
92093W        W59161  42.472  37.929  14.310
92094W        W59162  22.598  36.081  11.463
92095W        W59163  33.496  38.024  12.025
92096W        W59164  12.829   3.767   0.913
92097W        W59165  15.783  17.655   3.860
92098W        W59166   6.303   7.175   0.261
92099W        W59167  41.812  38.492   4.324
92100W        W59168  40.474  10.673  12.383
92101W        W59169  26.470  21.527   4.251
92102W        W59170  18.128  23.099  13.537
92103W        W59171  17.085   7.369  12.472
92104W        W59172   2.891  37.380   1.737
92105W        W59173  17.728  15.163  13.895
92106W        W59174   4.336  11.261   0.323
92107W        W59175  21.217   1.329   2.792
92108W        W59176  16.676  40.397  14.994
92109W        W59177  40.916   4.815   2.757
92110W        W59178  11.191  14.781   1.789
92111W        W59179  37.538  20.068   0.458
92112W        W59180   0.751  24.703  10.557
92113W        W59181   3.314  25.170   3.870
92114W        W59182  12.133  12.733  11.095
92115W        W59183   7.899  44.774   2.871
92116W        W59184  34.966  15.797  11.942
92117W        W59185  14.818  41.003  13.060
92118W        W59186  36.450  12.210  10.481
92119W        W59187  27.482  12.628  14.363
92120W        W59188  43.484  42.294   0.928
92121W        W59189  37.386  20.108  12.870
92122W        W59190  22.538  12.665  10.562
92123W        W59191   9.260  13.170   1.238
92124W        W59192  43.307  30.467  11.876
92125W        W59193  36.407  11.336   1.894
92126W        W59194  38.856  29.060   0.747
92127W        W59195  40.517   4.875   2.774
92128W        W59196  23.135  20.205  13.509
92129W        W59197  29.165  22.614  13.523
92130W        W59198   8.742   5.381   1.245
92131W        W59199  35.044   9.707  12.009
92132W        W59200  21.725   6.212  12.530
92133W        W59201  22.613   8.717   5.303
92134W        W59202  20.165  24.608  13.944
92135W        W59203  33.603  26.499  11.860
92136W        W59204   4.212  18.569  14.500
92137W        W59205   0.950  17.598   4.329
92138W        W59206  43.435  12.220  14.431
92139W        W59207  44.474  19.718   3.221
92140W        W59208  33.514  12.294   4.698
92141W        W59209  15.718   1.481   3.285
92142W        W59210  29.652  35.064   3.203
92143W        W59211  33.595  38.025   1.756
92144W        W59212  27.510   5.793  10.476
92145W        W59213  40.364  33.486  10.043
92146W        W59214  28.673  19.104   4.725
92147W        W59215  40.044  16.605  13.424
92148W        W59216  16.706  42.355  11.086
92149W        W59217  41.012  17.731  14.354
92150W        W59218  25.626  11.153  14.879
92151W        W59219  40.344  26.995  14.766
92152W        W59220  19.583   8.747  13.923
92153W        W59221   4.363  35.875  12.049
92154W        W59222  23.230  12.672  14.391
92155W        W59223  21.067   1.888   0.785
92156W        W59224  39.003   7.667  11.888
92157W        W59225  32.564  38.375  13.016
92158W        W59226  43.014  29.163   3.748
92159W        W59227   2.781  13.301   3.630
92160W        W59228  39.374  14.251   4.268
92161W        W59229  43.906  30.650  13.427
92162W        W59230   4.442  12.284  13.872
92163W        W59231  10.165  36.353   1.245
92164W        W59232  34.935  17.668   1.287
92165W        W59233  15.310   2.252  13.384
92166W        W59234  22.722  16.645   1.767
92167W        W59235   7.326  38.855  12.386
92168W        W59236  33.887  23.610   1.898
92169W        W59237  27.685  33.420  13.436
92170W        W59238  38.470  15.685   0.965
92171W        W59239   7.797  13.818   3.148
92172W        W59240   1.873   0.989   2.737
92173W        W59241  24.089  41.371   0.364
92174W        W59242  33.965   4.348   3.329
92175W        W59243  10.637  20.124   1.291
92176W        W59244  27.035  42.419  10.462
92177W        W59245  28.109   9.868  13.448
92178W        W59246  26.080  39.504   2.373
92179W        W59247   4.213  41.919  12.954
92180W        W59248  31.457  13.196   0.878
92181W        W59249  41.945  25.213  11.020
92182W        W59250  18.591  11.220  11.409
92183W        W59251  43.795  12.638  11.072
92184W        W59252  11.802  11.651   0.467
92185W        W59253  37.039  21.682   4.137
92186W        W59254  44.882  44.374   2.254
92187W        W59255  41.039  20.648   1.898
92188W        W59256  22.210  41.455  12.947
92189W        W59257  12.250   7.333  14.299
92190W        W59258   7.766   0.900  14.982
92191W        W59259  18.587  41.417   0.276
92192W        W59260  20.218   3.932   0.942
92193W        W59261  30.059  12.324  11.554
92194W        W59262  12.667  40.949  13.023
92195W        W59263  34.505  35.879   2.757
92196W        W59264  28.048  26.615  14.820
92197W        W59265   6.319  34.115  12.925
92198W        W59266  41.913  23.619  10.642
92199W        W59267  29.074  24.163  11.377
92200W        W59268   4.890  17.647   1.395
92201W        W59269  16.240  20.128  13.497
92202W        W59270  13.769  42.442  10.540
92203W        W59271  31.590  16.597   3.319
92204W        W59272  21.204   9.174  14.884
92205W        W59273  17.684  43.393  13.872
92206W        W59274  11.701  35.580  13.838
92207W        W59275  42.372  18.610  11.956
92208W        W59276   1.431  23.019  10.625
92209W        W59277  12.213  24.485  11.997
92210W        W59278   6.368  23.231  12.051
92211W        W59279   4.804   9.178   4.654
92212W        W59280  24.200  24.093  13.044
92213W        W59281  22.551  12.174  10.947
92214W        W59282  32.625  31.990  11.584
92215W        W59283  38.352  19.653   0.317
92216W        W59284  37.361   3.408  13.464
92217W        W59285  27.133  23.212  11.542
92218W        W59286  14.625  10.674   4.337
92219W        W59287  15.253  20.267  13.370
92220W        W59288   3.950  23.214   0.886
92221W        W59289  41.327  43.021  10.493
92222W        W59290  29.654  31.958   0.260
92223W        W59291  38.886  26.001  13.537
92224W        W59292  32.000  24.123   0.815
92225W        W59293   3.795  28.165   3.824
92226W        W59294  41.467  11.142  14.501
92227W        W59295  15.264   0.271  11.905
92228W        W59296  11.790   8.711   0.254
92229W        W59297  12.821  44.397   4.793
92230W        W59298  14.113  27.529  12.426
92231W        W59299  13.605  44.755   3.207
92232W        W59300  40.861   9.659   1.216
92233W        W59301  39.033  38.026  14.983
92234W        W59302   4.303  33.128  10.546
92235W        W59303  20.661  14.802  14.431
92236W        W59304  40.018  41.434   4.680
92237W        W59305  25.526  33.887   1.226
92238W        W59306  37.022  11.683   3.310
92239W        W59307  27.689  23.506  10.576
92240W        W59308  37.837  29.583   4.655
92241W        W59309  24.054   0.352   4.153
92242W        W59310  14.822   0.351   2.715
92243W        W59311  41.387  30.536   3.838
92244W        W59312  31.008  43.285   4.209
92245W        W59313  44.462  25.183  14.293
92246W        W59314  11.230  26.022   3.823
92247W        W59315   4.355  16.093   4.126
92248W        W59316  11.253  31.644   0.428
92249W        W59317   1.737  35.375   4.767
92250W        W59318   7.223   2.445  12.040
92251W        W59319   4.890  34.106  13.366
92252W        W59320  21.185  43.860   0.394
92253W        W59321  43.274  22.107   0.332
92254W        W59322  26.595   7.329   3.788
92255W        W59323  22.019   4.303   0.332
92256W        W59324  13.626  40.943  12.352
92257W        W59325  43.896   0.968   2.417
92258W        W59326   0.979  40.364   3.248
92259W        W59327   3.834  28.611   3.171
92260W        W59328  17.096  19.602  14.988
92261W        W59329   6.330  41.442  13.413
92262W        W59330  27.019  32.973  14.310
92263W        W59331   3.814  29.578   4.238
92264W        W59332  12.298  28.665   4.670
92265W        W59333  33.908  14.785  14.403
92266W        W59334  17.198   2.355  11.502
92267W        W59335  39.057  31.987   1.792
92268W        W59336   9.369   0.480  13.465
92269W        W59337  36.558  31.465  13.023
92270W        W59338  25.129   0.384  10.143
92271W        W59339  35.479  44.310  12.883
92272W        W59340  21.705  42.455  11.112
92273W        W59341  10.676  16.078  11.077
92274W        W59342  21.049  39.414   2.355
92275W        W59343  31.133  33.100   2.810
92276W        W59344   0.269  14.311   0.330
92277W        W59345   6.723  14.629  13.337
92278W        W59346   4.713  39.426  11.594
92279W        W59347  21.736  38.368  11.481
92280W        W59348  34.905  15.821  10.635
92281W        W59349  10.691  31.454   1.793
92282W        W59350   8.300  43.917   1.264
92283W        W59351  22.183   6.280   4.164
92284W        W59352  25.469  22.006  12.421
92285W        W59353  19.194  10.708  13.340
92286W        W59354  13.219  31.028  14.328
92287W        W59355   3.372  23.077  13.042
92288W        W59356   6.288  13.650  14.363
92289W        W59357  43.842  31.477   1.280
92290W        W59358  11.750  32.919  11.482
92291W        W59359  30.063  29.960  11.074
92292W        W59360  34.010  33.381  11.499
92293W        W59361   7.349   0.282  12.463
92294W        W59362   5.277  31.929   3.631
92295W        W59363  27.535   1.872  11.559
92296W        W59364   9.779   9.294  14.364
92297W        W59365  11.629  23.137   2.666
92298W        W59366  15.591  15.274   1.740
92299W        W59367   7.732   8.389  11.036
92300W        W59368  36.466  38.432  13.849
92301W        W59369  13.730   5.825  11.605
92302W        W59370  42.968  32.407  12.973
92303W        W59371   4.887  44.847  12.381
92304W        W59372   9.171  42.396  11.561
92305W        W59373  27.604  12.354  12.875
92306W        W59374  44.984  20.567   4.771
92307W        W59375  37.924  24.625   4.655
92308W        W59376   3.802  24.063   1.845
92309W        W59377  28.935  12.697  10.957
92310W        W59378  18.176  18.579   4.769
92311W        W59379  20.615  28.633   2.376
92312W        W59380  30.095  16.742  12.990
92313W        W59381  26.477   8.380  12.091
92314W        W59382  20.066  44.260   4.195
92315W        W59383  37.034  28.476   3.769
92316W        W59384   4.844  21.753  12.454
92317W        W59385  14.257  18.722   3.799
92318W        W59386  24.985  30.453  12.483
92319W        W59387  37.461   2.848  12.041
92320W        W59388  22.553  27.159   4.797
92321W        W59389   2.455  43.357  11.033
92322W        W59390  22.009  35.946  14.375
92323W        W59391  37.062  12.769   4.311
92324W        W59392  23.193  35.517  14.339
92325W        W59393  34.864   9.367  13.824
92326W        W59394  20.574   3.385  14.390
92327W        W59395  40.947  30.504   3.349
92328W        W59396  34.531  39.451   0.334
92329W        W59397  31.590  40.392  10.599
92330W        W59398  12.287  10.368   2.296
92331W        W59399  44.816  37.515   0.844
92332W        W59400  24.662  44.318  13.449
92333W        W59401  23.522  42.893  13.941
92334W        W59402  13.777  22.110  11.887
92335W        W59403  30.102   9.367  14.912
92336W        W59404  23.710  37.379   5.188
92337W        W59405  44.367   1.344   0.783
92338W        W59406  44.498  12.747   2.390
92339W        W59407  29.596  31.551  13.053
92340W        W59408  22.202  29.045   3.686
92341W        W59409  18.619  29.659  13.905
92342W        W59410  18.763  41.804  14.487
92343W        W59411   3.737  24.661  12.435
92344W        W59412  43.808  21.723  14.926
92345W        W59413   9.269  35.013   1.740
92346W        W59414  34.613  22.726   1.237
92347W        W59415  23.731  29.071   2.372
92348W        W59416  29.029  14.304  12.407
92349W        W59417   4.398  32.068  13.985
92350W        W59418   7.668  42.947   5.165
92351W        W59419  15.133  39.319  13.426
92352W        W59420  37.987  18.098   0.832
92353W        W59421  13.176  35.090   4.800
92354W        W59422  37.074  42.778  12.553
92355W        W59423  40.802  14.807  11.598
92356W        W59424  11.798  11.722  12.970
92357W        W59425   5.836   3.749   4.281
92358W        W59426  40.960   1.923  13.826
92359W        W59427  16.253   2.233  14.507
92360W        W59428   7.820  14.628   3.709
92361W        W59429  27.640  40.380   2.386
92362W        W59430  39.037  25.671   3.816
92363W        W59431  21.147   9.331  14.278
92364W        W59432  30.124  32.040   3.326
92365W        W59433  36.011  40.970   0.845
92366W        W59434  29.139   5.745  12.878
92367W        W59435   6.422  30.944   2.755
92368W        W59436   9.691  29.612   3.298
92369W        W59437  14.174   9.866  11.430
92370W        W59438  26.610  21.218   2.396
92371W        W59439  32.446  42.438   4.615
92372W        W59440  29.960   6.337  13.834
92373W        W59441  40.968  25.694  11.981
92374W        W59442   0.901   1.772   4.778
92375W        W59443   1.867  44.814   1.758
92376W        W59444  32.954  37.937   0.840
92377W        W59445  33.434  15.614  10.991
92378W        W59446  29.961   9.775  11.126
92379W        W59447  31.979  12.299  11.515
92380W        W59448  12.340   4.741   1.895
92381W        W59449  15.327  13.135  12.928
92382W        W59450  32.439  10.855   0.389
92383W        W59451   3.218  18.728   3.201
92384W        W59452  43.980   0.420   0.926
92385W        W59453  15.262  27.614   0.918
92386W        W59454  44.931   7.725   2.705
92387W        W59455  27.179   2.324   1.719
92388W        W59456  23.650  42.841   3.380
92389W        W59457   3.923  25.689  13.544
92390W        W59458   1.468   7.735  12.090
92391W        W59459   2.829  39.410  14.493
92392W        W59460  37.843  13.844   2.208
92393W        W59461  28.617  17.260  10.042
92394W        W59462  40.043   6.283   4.215
92395W        W59463  34.013  29.020  13.911
92396W        W59464  29.945  29.649  12.544
92397W        W59465   3.288  41.919   5.307
92398W        W59466  38.449  23.080  13.900
92399W        W59467  18.206   3.292   0.251
92400W        W59468  27.955   8.766  12.548
92401W        W59469  39.558   2.830   4.125
92402W        W59470   6.256  14.250   4.709
92403W        W59471  25.079  32.043   2.764
92404W        W59472  37.385  23.194   0.919
92405W        W59473  16.310  25.027   2.214
92406W        W59474   9.668  41.522  14.329
92407W        W59475  10.340  42.798  14.894
92408W        W59476  33.979  16.627  10.491
92409W        W59477  31.080  40.408   2.835
92410W        W59478   2.928  10.796   0.822
92411W        W59479  18.729  44.789   1.695
92412W        W59480  35.427  28.472   3.382
92413W        W59481  40.518  20.037   0.482
92414W        W59482  36.049  31.098  10.529
92415W        W59483  29.653  29.557   0.728
92416W        W59484  22.156  15.209  14.505
92417W        W59485  12.204  19.101   4.816
92418W        W59486  34.484  14.295  11.877
92419W        W59487  44.406  31.944  11.044
92420W        W59488  35.497  21.158   0.786
92421W        W59489  21.017  24.702  14.319
92422W        W59490  43.981   6.846   2.804
92423W        W59491  38.529  31.534  14.388
92424W        W59492  38.380  13.218  14.458
92425W        W59493  16.214  28.452  12.992
92426W        W59494  21.017  17.258   4.278
92427W        W59495  22.705  11.865  14.000
92428W        W59496   7.828  36.459   3.176
92429W        W59497   4.370  13.196  13.380
92430W        W59498  33.032   5.380   1.330
92431W        W59499  34.473  43.428   3.849
92432W        W59500  21.104  25.629   1.808
92433W        W59501  30.442  32.422  11.862
92434W        W59502  29.536  22.190  10.480
92435W        W59503  27.998  40.848  12.918
92436W        W59504  25.174  36.453  13.357
92437W        W59505   9.653   2.869  14.808
92438W        W59506  43.795   7.211   0.884
92439W        W59507   5.275  42.825  12.484
92440W        W59508   8.387   5.772  12.939
92441W        W59509  43.808  25.116  12.498
92442W        W59510  24.116  18.587   1.423
92443W        W59511  23.561  30.440   4.607
92444W        W59512  25.042   3.898   4.320
92445W        W59513   4.247  29.964  10.906
92446W        W59514   3.748  23.233   3.247
92447W        W59515  36.562  41.028   0.435
92448W        W59516  33.043   1.318   3.276
92449W        W59517   5.296   7.275   2.363
92450W        W59518  20.595  41.343   4.209
92451W        W59519  18.672   9.748  11.912
92452W        W59520  19.662  25.481  13.514
92453W        W59521  16.134  18.084  12.059
92454W        W59522  36.978  38.008   2.835
92455W        W59523  19.247  40.961   3.662
92456W        W59524  19.692  34.093  10.518
92457W        W59525   9.250  10.299   4.600
92458W        W59526  10.261  28.557  13.029
92459W        W59527   3.759  14.117   2.189
92460W        W59528  27.506  22.550  14.962
92461W        W59529  13.215  11.227  10.126
92462W        W59530  40.856  38.358   4.340
92463W        W59531   0.315  19.132   3.200
92464W        W59532  20.683  10.312  10.600
92465W        W59533  17.694  17.250   4.813
92466W        W59534   2.838   6.322   2.855
92467W        W59535  40.850  41.396   0.848
92468W        W59536   9.185  40.449   3.189
92469W        W59537  20.722  25.977  10.963
92470W        W59538   4.369   4.269   1.384
92471W        W59539  18.288  25.203   4.352
92472W        W59540  29.005  16.121   3.685
92473W        W59541   2.420  22.719   1.401
92474W        W59542   4.258  34.870  10.945
92475W        W59543  28.937  41.489  14.956
92476W        W59544  37.356  43.457   1.832
92477W        W59545  15.259  40.477  14.980
92478W        W59546  17.294  20.549   4.239
92479W        W59547  12.153  31.025   2.840
92480W        W59548   2.947  11.811   4.760
92481W        W59549  28.513   4.205  14.463
92482W        W59550  42.301   1.339   1.422
92483W        W59551  30.097   1.286  12.400
92484W        W59552  41.364  19.705   4.235
92485W        W59553  15.213  43.012  10.022
92486W        W59554  43.496   0.287  10.533
92487W        W59555   4.738   2.306  14.764
92488W        W59556  26.120  40.385  11.007
92489W        W59557  11.152  10.293  11.025
92490W        W59558  33.477  25.550   1.782
92491W        W59559  18.788  35.457  11.024
92492W        W59560  15.796   2.834   3.646
92493W        W59561   0.963  22.536  14.886
92494W        W59562  25.127   0.805  12.537
92495W        W59563   9.394  13.817   1.415
92496W        W59564  40.054  13.339   0.243
92497W        W59565   6.837  13.338   3.352
92498W        W59566  41.499  44.894  13.064
92499W        W59567   5.784  19.639  10.454
92500W        W59568  31.423  19.753  10.518
92501W        W59569  43.765  24.540  12.579
92502W        W59570  14.809   0.468  14.794
92503W        W59571  16.119   5.429  13.373
92504W        W59572  36.448   8.814   4.778
92505W        W59573  19.125  44.361   0.343
92506W        W59574  26.501  38.856  14.820
92507W        W59575  21.696  15.665  14.870
92508W        W59576  18.249  27.039   4.245
92509W        W59577   2.816  44.906   4.693
92510W        W59578  42.878   4.444  13.402
92511W        W59579  16.633  21.258   3.848
92512W        W59580  30.479  26.137   3.806
92513W        W59581   2.767  19.578  12.484
92514W        W59582   7.317   8.663   4.606
92515W        W59583  26.526  43.890   0.262
92516W        W59584  24.219   9.191   0.343
92517W        W59585   8.739  16.209   0.814
92518W        W59586  27.141   3.384  10.528
92519W        W59587  19.549  19.673  10.994
92520W        W59588  26.646  20.612   0.748
92521W        W59589  31.122  12.822  11.385
92522W        W59590  34.491   3.802   4.255
92523W        W59591   3.766  19.655   2.186
92524W        W59592  16.666  14.599  11.440
92525W        W59593   0.362  38.840  14.991
92526W        W59594  25.647  29.938  13.801
92527W        W59595  16.618  40.999  13.397
92528W        W59596  18.637   5.333   0.333
92529W        W59597   2.473  12.678  10.071
92530W        W59598  17.743  32.058   3.664
92531W        W59599  14.186   4.358   2.757
92532W        W59600  42.975  25.053   0.324
92533W        W59601  28.507  16.215   2.846
92534W        W59602  22.524   9.151   3.213
92535W        W59603  41.532  19.677   1.881
92536W        W59604  36.995  37.558   2.311
92537W        W59605   6.379   4.399   0.469
92538W        W59606  43.871  28.979   3.179
92539W        W59607  42.450  37.475  11.411
92540W        W59608  12.697   7.665  12.472
92541W        W59609  38.883  37.574  12.542
92542W        W59610  17.652   6.244  14.972
92543W        W59611  10.684  12.744  14.440
92544W        W59612  25.040  35.968  12.972
92545W        W59613  16.284  17.063   3.739
92546W        W59614   5.329  37.044   4.673
92547W        W59615  30.090  25.965   4.297
92548W        W59616   2.472   9.668   1.758
92549W        W59617   2.890  37.871   3.231
92550W        W59618  14.628  26.524   1.323
92551W        W59619   6.343  23.077   1.759
92552W        W59620  12.689   1.438  11.955
92553W        W59621  13.223  37.902  11.077
92554W        W59622  36.058  43.301  14.895
92555W        W59623  38.352  19.080   0.481
92556W        W59624  35.469  44.286   2.383
92557W        W59625   5.813  37.895  13.387
92558W        W59626  24.189  31.428   3.787
92559W        W59627  22.242  28.959   1.427
92560W        W59628  29.156  21.099   4.144
92561W        W59629   2.468  39.478  12.416
92562W        W59630  23.048  15.642  13.885
92563W        W59631  12.167  23.029  11.470
92564W        W59632  30.625  37.404  12.528
92565W        W59633  40.938  16.732  12.945
92566W        W59634  15.185  35.000   2.844
92567W        W59635  13.127  13.702  10.632
92568W        W59636  23.195  26.147   0.320
92569W        W59637   9.728  21.613  10.593
92570W        W59638  25.497   2.359   0.318
92571W        W59639  28.632   3.908   4.750
92572W        W59640  43.447  35.511   3.818
92573W        W59641  22.537  28.145   0.930
92574W        W59642  34.972  12.666   2.727
92575W        W59643  30.471  23.522  12.965
92576W        W59644  43.295  43.969   1.850
92577W        W59645  39.393  38.900  12.834
92578W        W59646  35.600  25.008  12.016
92579W        W59647   9.246  19.255   5.582
92580W        W59648  20.252   0.963  12.407
92581W        W59649  26.205  12.315  14.761
92582W        W59650  13.787   5.261   1.784
92583W        W59651  22.080   0.755  13.309
92584W        W59652  27.546  37.486  12.067
92585W        W59653  29.155  44.454  14.378
92586W        W59654  20.209  26.982  12.527
92587W        W59655  30.529  15.715  12.994
92588W        W59656  40.018  35.044  11.864
92589W        W59657  22.081  38.549   1.872
92590W        W59658  12.671  24.493  11.116
92591W        W59659  41.399  43.998  12.850
92592W        W59660  36.021  27.680  14.381
92593W        W59661   7.672  22.055   1.419
92594W        W59662  11.262  40.515   0.881
92595W        W59663  31.623  28.118   4.761
92596W        W59664  11.351  41.837  13.817
92597W        W59665  38.903  17.126   1.725
92598W        W59666   4.726   3.326   0.788
92599W        W59667  22.725  24.176   3.816
92600W        W59668  37.068  34.980   1.800
92601W        W59669  22.575   6.814   1.694
92602W        W59670  20.750  31.067   2.817
92603W        W59671  16.233  15.673   4.832
92604W        W59672  15.650   5.266   0.780
92605W        W59673  37.362  26.628  13.443
92606W        W59674  12.341  19.227   2.847
92607W        W59675  13.296   3.401   1.792
92608W        W59676  12.325   7.827   3.354
92609W        W59677  22.213  10.755   4.769
92610W        W59678   6.386   2.429  11.961
92611W        W59679   6.754  36.481   2.712
92612W        W59680  30.579  25.996  12.441
92613W        W59681  15.277   8.236   1.392
92614W        W59682   4.878  41.871   5.280
92615W        W59683  34.409  30.953  12.468
92616W        W59684   1.246  31.592  11.002
92617W        W59685  15.270  34.928  13.508
92618W        W59686  28.588   2.923  10.546
92619W        W59687   1.396  21.140  13.312
92620W        W59688  35.373  34.495   0.333
92621W        W59689  15.194  16.611  12.354
92622W        W59690  42.439  35.386   2.337
92623W        W59691  20.707   5.860  13.895
92624W        W59692  43.815  33.415   2.393
92625W        W59693  12.208  20.688   0.407
92626W        W59694  38.497   1.905  12.949
92627W        W59695  26.575  33.527   2.776
92628W        W59696  22.101  24.630  12.511
92629W        W59697  25.082  21.019  10.949
92630W        W59698  16.083   9.684  12.897
92631W        W59699   8.771  33.079  10.624
92632W        W59700  32.971  10.791   4.693
92633W        W59701  21.196   4.255   3.271
92634W        W59702   5.732   5.740   4.151
92635W        W59703  22.636  28.436  13.055
92636W        W59704  33.426  35.048  10.552
92637W        W59705  14.232   7.301  14.328
92638W        W59706  32.484  22.207   4.230
92639W        W59707  13.120   1.381  13.899
92640W        W59708  18.590   9.697   0.953
92641W        W59709  12.213  17.127  11.947
92642W        W59710  43.279  44.323  11.862
92643W        W59711  25.513  14.742  10.508
92644W        W59712  12.813  23.074   1.220
92645W        W59713   7.808  42.284   3.284
92646W        W59714  32.429  18.637  13.505
92647W        W59715  14.165  17.610  13.376
92648W        W59716   8.862  19.653  10.501
92649W        W59717  11.160  33.565   0.727
92650W        W59718   0.263  27.941   2.348
92651W        W59719  29.985   1.846  14.768
92652W        W59720  13.143   5.693   3.786
92653W        W59721  36.475  37.036   0.788
92654W        W59722  44.950  33.484   2.365
92655W        W59723   7.232   0.829  13.528
92656W        W59724  27.615  29.535  11.456
92657W        W59725  41.984  36.959   3.682
92658W        W59726  21.519  30.079  10.595
92659W        W59727  40.902  11.262   1.897
92660W        W59728   8.381   8.758   0.789
92661W        W59729  15.658  34.500   4.238
92662W        W59730  15.636  20.612   4.254
92663W        W59731  36.909   6.795   3.370
92664W        W59732  40.867  32.619  13.001
92665W        W59733  14.705  32.606  10.902
92666W        W59734  33.943  24.174  11.950
92667W        W59735  35.011  22.698  11.926
92668W        W59736  19.264  43.795   1.896
92669W        W59737  13.265   2.232  13.915
92670W        W59738  25.154  25.483  13.813
92671W        W59739   1.480  15.804   4.189
92672W        W59740  28.593  13.260  10.096
92673W        W59741  29.104  22.091  13.870
92674W        W59742  16.258   9.369   1.271
92675W        W59743  27.040   2.260   0.418
92676W        W59744  22.564  25.563   1.760
92677W        W59745  29.968  25.556   2.809
92678W        W59746  28.150  28.532   2.275
92679W        W59747  38.894   7.320   0.767
92680W        W59748   0.981  25.998  10.426
92681W        W59749  30.592  13.779   3.299
92682W        W59750   3.837  13.812   0.882
92683W        W59751   1.259  43.855  11.959
92684W        W59752  32.472  19.677  10.539
92685W        W59753  16.136  31.904  10.112
92686W        W59754  16.288   0.338   2.797
92687W        W59755  15.751  22.139  13.049
92688W        W59756  29.019  25.061   4.238
92689W        W59757  33.586  37.952  13.926
92690W        W59758   8.317  28.064  11.470
92691W        W59759  12.688  14.264   4.276
92692W        W59760  29.498  38.493   4.337
92693W        W59761   4.824  11.329   4.239
92694W        W59762  11.345   9.846  13.481
92695W        W59763   3.783  41.998  14.374
92696W        W59764  37.036  14.179  14.385
92697W        W59765  30.055  27.159  11.443
92698W        W59766  17.242  42.843  13.821
92699W        W59767  14.622  18.610  13.526
92700W        W59768  37.830  31.143  13.836
92701W        W59769  16.222  18.108   3.674
92702W        W59770   2.276  20.634   2.871
92703W        W59771  38.904  26.683  14.871
92704W        W59772  22.514  30.588   1.439
92705W        W59773  29.497  12.766  10.134
92706W        W59774  34.864  28.062   2.351
92707W        W59775  12.228  43.862  12.011
92708W        W59776   2.468   6.400  11.897
92709W        W59777  23.020  23.588   2.869
92710W        W59778  27.031  25.123  11.906
92711W        W59779  39.892  33.018  13.380
92712W        W59780  42.413  20.615  14.765
92713W        W59781   9.673  12.644  11.998
92714W        W59782  32.918   7.673   0.329
92715W        W59783   6.774  14.219   0.929
92716W        W59784  41.029  25.060  14.280
92717W        W59785  24.515  19.216   2.401
92718W        W59786   1.341  30.489   3.789
92719W        W59787   6.327  26.564   4.132
92720W        W59788  24.001  31.913   4.188
92721W        W59789  42.373  43.902  13.816
92722W        W59790  35.083  36.957  13.542
92723W        W59791   4.741   8.403   0.332
92724W        W59792  16.129   4.808   1.225
92725W        W59793  31.041  16.707   2.355
92726W        W59794  11.765  37.433   1.862
92727W        W59795  11.246  34.589  11.483
92728W        W59796  27.575  27.567  13.356
92729W        W59797  34.110  31.552   0.449
92730W        W59798  10.361   7.769   0.451
92731W        W59799  25.523   4.349   2.884
92732W        W59800  26.626  40.037  12.548
92733W        W59801  24.690  21.675   2.345
92734W        W59802   6.349  14.610  14.480
92735W        W59803  15.792   3.814   0.834
92736W        W59804  20.192  34.404   4.213
92737W        W59805  35.908  30.626  11.971
92738W        W59806   9.184   7.367  13.819
92739W        W59807  32.987  24.626   4.161
92740W        W59808  38.048  27.047  11.526
92741W        W59809  13.612  19.277  11.092
92742W        W59810  44.311   2.849  13.959
92743W        W59811  41.838  19.114  14.964
92744W        W59812   0.883   4.352   0.859
92745W        W59813  14.231  31.905   5.287
92746W        W59814  17.690   3.750   2.223
92747W        W59815  27.074  41.943   4.610
92748W        W59816   2.258  44.479  13.797
92749W        W59817  36.977  21.674   1.888
92750W        W59818  35.957  13.632   1.847
92751W        W59819  44.487  14.729  13.546
92752W        W59820  16.304  40.906   0.834
92753W        W59821   8.173  24.058   1.409
92754W        W59822  27.013  44.984   4.275
92755W        W59823  34.865  14.642  12.405
92756W        W59824  22.186  39.559   3.870
92757W        W59825   8.298   7.841   3.385
92758W        W59826  26.631  10.322   1.871
92759W        W59827  43.949  31.616   4.815
92760W        W59828   4.699  32.516   2.731
92761W        W59829  36.466  11.671  10.626
92762W        W59830  27.608   3.392   1.443
92763W        W59831   6.220   6.372  11.864
92764W        W59832  21.156  19.772   0.481
92765W        W59833  44.382  12.627   4.800
92766W        W59834  43.470  44.371  10.004
92767W        W59835   0.805  22.210  13.990
92768W        W59836  38.947  21.090   2.387
92769W        W59837  36.593  12.328   3.735
92770W        W59838  20.261   6.907   3.152
92771W        W59839  39.537  15.170   4.128
92772W        W59840  33.920   5.353  11.069
92773W        W59841  36.939  21.602  11.517
92774W        W59842  37.355  35.989   4.330
92775W        W59843  40.406   2.401  12.067
92776W        W59844  30.112  33.569   2.236
92777W        W59845  43.475  26.696   3.280
92778W        W59846  19.576  40.379   0.290
92779W        W59847   2.957  24.221  10.622
92780W        W59848   7.769  16.688   4.217
92781W        W59849  38.401  34.607  13.475
92782W        W59850  27.054  13.828   2.303
92783W        W59851  25.540  26.126  12.994
92784W        W59852  23.509   8.684  11.514
92785W        W59853  30.097  42.515   4.750
92786W        W59854  10.815   0.249  11.116
92787W        W59855  17.604  40.952   2.865
92788W        W59856  18.771  13.250  11.029
92789W        W59857  14.812  17.285   9.990
92790W        W59858  26.144  44.267   4.277
92791W        W59859  30.507  24.992  14.331
92792W        W59860   1.250  43.327  10.954
92793W        W59861  43.300  20.176  13.324
92794W        W59862  12.722  30.944   0.437
92795W        W59863  33.032  41.499  13.370
92796W        W59864  30.509  27.127   3.234
92797W        W59865  42.033  28.091  12.828
92798W        W59866  10.167  38.885   5.316
92799W        W59867  34.045  19.776   2.879
92800W        W59868  24.657  23.996  10.638
92801W        W59869  30.105  23.994   1.834
92802W        W59870  42.925  33.063  11.562
92803W        W59871  44.971  12.790   3.268
92804W        W59872   0.751  29.092   1.916
92805W        W59873  26.629  11.677   4.329
92806W        W59874  15.734  30.598   0.947
92807W        W59875   4.350  23.731  10.539
92808W        W59876   3.453  29.117  14.919
92809W        W59877  26.607  37.470   4.715
92810W        W59878  40.452  14.130   3.813
92811W        W59879  24.132  21.149   0.782
92812W        W59880  25.991  42.928   1.366
92813W        W59881  38.845  44.340  12.467
92814W        W59882  36.358  35.414   4.181
92815W        W59883  37.977  29.115  12.478
92816W        W59884  24.072   7.367   1.844
92817W        W59885   3.249  24.146   0.261
92818W        W59886  22.571  38.538  14.291
92819W        W59887  23.663  30.013   2.881
92820W        W59888  28.938  28.053  11.942
92821W        W59889   9.679   8.218  14.887
92822W        W59890  21.029   0.405  12.934
92823W        W59891  37.518   4.442   1.919
92824W        W59892   3.407  32.975  11.025
92825W        W59893  23.085  30.095   0.450
92826W        W59894  32.140  22.629   5.203
92827W        W59895  35.402   0.333  11.935
92828W        W59896  43.901  31.032   0.938
92829W        W59897  32.027  43.780  12.427
92830W        W59898  16.663  39.938  12.466
92831W        W59899  19.139  10.162  13.939
92832W        W59900  43.373  35.470  10.473
92833W        W59901  32.045  17.261   3.294
92834W        W59902  30.038  37.395   0.318
92835W        W59903  10.823  44.430   3.629
92836W        W59904  17.700  13.255   2.709
92837W        W59905  14.751  40.303  14.957
92838W        W59906  43.355  10.224  13.014
92839W        W59907  18.231  20.587   0.885
92840W        W59908  21.020   8.687  12.888
92841W        W59909   9.310  31.979  11.476
92842W        W59910  13.339  40.935  13.394
92843W        W59911  32.627   3.285  11.610
92844W        W59912   7.759  28.565   2.780
92845W        W59913   8.379   2.286  13.395
92846W        W59914  39.038  14.594  13.937
92847W        W59915  37.552  22.512  10.476
92848W        W59916   2.815  44.983  12.472
92849W        W59917   4.892   9.783   4.610
92850W        W59918  32.513  24.056   1.440
92851W        W59919  23.639   5.704  12.851
92852W        W59920  22.126   8.378   3.240
92853W        W59921  27.529  15.582   1.823
92854W        W59922  24.162   2.909  14.004
92855W        W59923  36.056  10.675   1.903
92856W        W59924  15.663  27.624  12.514
92857W        W59925   4.844   1.816   2.717
92858W        W59926  15.800   6.754  10.528
92859W        W59927  12.694  17.763  11.889
92860W        W59928  33.124  16.300   1.303
92861W        W59929  26.024  16.737  14.394
92862W        W59930  17.171  35.080  14.877
92863W        W59931   3.368   8.183  10.625
92864W        W59932  21.234  39.972  14.283
92865W        W59933  17.589  42.308  11.950
92866W        W59934  42.354   9.822  14.396
92867W        W59935  17.639   1.326   4.798
92868W        W59936  15.759  22.167   3.743
92869W        W59937  24.722  23.578  11.101
92870W        W59938  43.307   7.192  10.460
92871W        W59939  20.623  26.542  11.111
92872W        W59940  31.954  35.965   0.425
92873W        W59941  25.523  40.861   1.373
92874W        W59942  28.539  36.973   1.933
92875W        W59943  33.397  13.335  10.061
92876W        W59944  25.060  24.682   3.758
92877W        W59945  17.116  15.624   3.750
92878W        W59946   2.896   4.245  11.045
92879W        W59947  24.987   4.410  13.851
92880W        W59948  18.124  13.207   1.787
92881W        W59949  29.551  22.698  14.998
92882W        W59950  36.976   6.421   3.842
92883W        W59951  20.565   9.827   3.288
92884W        W59952  24.705   9.883  10.958
92885W        W59953  16.759  35.952  14.838
92886W        W59954  27.097  39.448  11.376
92887W        W59955  41.298   5.417   4.663
92888W        W59956  22.114   1.315  11.532
92889W        W59957   0.800   7.836   2.307
92890W        W59958   6.204  11.200   0.833
92891W        W59959  27.975  37.531   1.262
92892W        W59960  23.552  21.032  11.128
92893W        W59961   1.328  42.834   3.157
92894W        W59962  23.600  44.369   2.284
92895W        W59963   5.740  44.808  13.430
92896W        W59964  44.280  22.237   0.966
92897W        W59965  36.842  34.921   1.356
92898W        W59966  44.968  40.798   4.818
92899W        W59967  18.244   5.398   2.710
92900W        W59968  17.100   8.777  12.537
92901W        W59969  23.159  15.770  12.037
92902W        W59970   2.944  14.206   4.619
92903W        W59971  36.950  40.381   0.849
92904W        W59972  12.272  29.603   3.631
92905W        W59973  37.380  26.521   0.374
92906W        W59974  43.989  15.806   3.687
92907W        W59975  11.859  24.015  12.824
92908W        W59976  30.998  36.564  11.096
92909W        W59977   0.303  38.909   2.704
92910W        W59978  11.677  27.184  14.445
92911W        W59979  21.170  36.870  12.089
92912W        W59980  33.422  25.077  13.872
92913W        W59981  37.036  27.116  11.107
92914W        W59982  42.397  19.687   0.877
92915W        W59983  43.484  35.985   4.236
92916W        W59984  29.115  27.551  12.531
92917W        W59985  37.465  16.789  14.352
92918W        W59986  29.499  16.608   3.804
92919W        W59987  14.637  12.148  13.831
92920W        W59988  40.995   4.429  14.280
92921W        W59989  37.553  44.008   4.838
92922W        W59990  44.407  24.068  11.513
92923W        W59991  29.922  36.544  10.912
92924W        W59992  31.605  43.478  13.037
92925W        W59993  35.550   2.452  14.821
92926W        W59994  43.768  11.136  10.618
92927W        W59995  20.191  28.479  11.925
92928W        W59996  33.979  15.184   1.708
92929W        W59997   7.341  12.131  11.890
92930W        W59998  44.779  26.636   1.305
92931W        W59999  31.017  14.807  14.848
92932W        W60000  41.951  20.650  13.518
92933W        W60001  38.482  28.454  14.408
92934W        W60002   0.321  35.931  12.038
92935W        W60003  17.112  16.811  14.905
92936W        W60004  39.877  21.707  12.832
92937W        W60005  32.021   1.865  11.960
92938W        W60006  40.342   1.893   0.283
92939W        W60007   4.318  13.834  11.951
92940W        W60008  40.054  23.680   3.741
92941W        W60009   3.313  14.793   2.411
92942W        W60010  15.178  31.062  13.468
92943W        W60011  10.777  17.103  13.522
92944W        W60012  26.062   7.357  12.450
92945W        W60013   9.711  33.081   0.463
92946W        W60014  22.084  22.731   2.308
92947W        W60015   3.804  15.795   2.247
92948W        W60016  33.992   6.270   2.351
92949W        W60017  21.694   4.303  11.405
92950W        W60018   6.224  44.788  14.303
92951W        W60019   8.331   4.316  12.528
92952W        W60020   0.755  40.900   2.867
92953W        W60021  37.963  19.739   0.889
92954W        W60022   7.389  15.699   0.255
92955W        W60023   2.274  41.893  12.354
92956W        W60024  21.178  25.559   3.725
92957W        W60025  29.173  43.791  11.462
92958W        W60026  11.667   2.466  10.103
92959W        W60027  30.581  27.638   2.760
92960W        W60028  10.830  10.361   3.634
92961W        W60029  41.875  37.514   0.350
92962W        W60030  10.359  44.004  10.963
92963W        W60031  26.511   6.246  13.946
92964W        W60032  25.173  39.870  12.908
92965W        W60033  26.602  25.506   4.184
92966W        W60034  42.029  25.206  14.961
92967W        W60035  12.238  34.949   1.438
92968W        W60036  21.633  40.859  14.810
92969W        W60037  42.466  20.696   4.331
92970W        W60038  41.334   6.760   0.375
92971W        W60039  44.895  41.455  11.072
92972W        W60040   3.300  29.945   2.860
92973W        W60041   8.379   8.274  10.419
92974W        W60042  41.332  38.869   5.288
92975W        W60043   1.742  35.547   3.350
92976W        W60044  30.027  11.278   1.747
92977W        W60045  36.878   2.254   1.243
92978W        W60046  44.410   8.211  14.810
92979W        W60047  24.717   6.404  12.364
92980W        W60048   7.856  10.873   4.143
92981W        W60049  20.087  12.842   4.126
92982W        W60050  38.952  36.880   4.808
92983W        W60051  11.147  34.883   1.878
92984W        W60052  20.535  18.195  10.511
92985W        W60053  13.656  29.129   3.201
92986W        W60054  38.024  35.465   1.907
92987W        W60055   4.388  16.108  11.052
92988W        W60056  31.918  28.645  12.474
92989W        W60057  18.660   7.761  12.368
92990W        W60058  29.014  13.640   9.642
92991W        W60059  23.693   5.263  13.023
92992W        W60060  17.752  30.934   2.710
92993W        W60061  38.946  38.509  13.865
92994W        W60062   7.689  26.049  13.937
92995W        W60063   6.759  37.448   3.344
92996W        W60064  21.090  30.433  12.017
92997W        W60065  10.139  10.339  14.795
92998W        W60066  26.552  35.006   3.660
92999W        W60067   5.425  38.837  10.007
93000W        W60068  26.497  14.188  14.771
93001W        W60069   1.784  27.661  13.061
93002W        W60070  20.218  21.678   0.249
93003W        W60071  27.947  34.535   1.883
93004W        W60072  36.360  20.533   2.744
93005W        W60073  13.112  12.309   3.348
93006W        W60074  29.061  34.966  13.938
93007W        W60075  28.559  34.370  10.969
93008W        W60076   7.245  11.807  13.852
93009W        W60077  36.353   3.334  12.008
93010W        W60078  32.012  40.810   1.760
93011W        W60079   8.383  43.810   3.318
93012W        W60080  29.918  23.528   4.163
93013W        W60081  35.965  20.727  11.944
93014W        W60082   6.301  39.954   0.960
93015W        W60083  29.580  10.163  10.452
93016W        W60084  24.065  34.600  11.971
93017W        W60085  31.451  40.391  11.544
93018W        W60086  14.710  14.699  12.056
93019W        W60087  13.699   1.331   1.258
93020W        W60088   6.383  34.111  10.143
93021W        W60089   7.727  37.562   0.336
93022W        W60090  32.940  43.972  14.957
93023W        W60091  34.072  41.001  10.952
93024W        W60092   5.767   1.807   4.693
93025W        W60093  23.554   3.801   4.664
93026W        W60094  34.443  17.738  13.961
93027W        W60095   9.819  25.665   3.826
93028W        W60096  38.496   1.785  12.053
93029W        W60097  24.498   4.333  13.928
93030W        W60098  10.262  32.618  10.584
93031W        W60099  44.008  13.177   3.244
93032W        W60100  41.986  32.449   4.317
93033W        W60101  39.379  14.793  11.986
93034W        W60102   9.689  26.499   4.706
93035W        W60103   8.682  20.036  12.880
93036W        W60104  37.999  28.509  14.005
93037W        W60105  15.266  19.110  11.587
93038W        W60106  36.413  35.429  12.985
93039W        W60107  43.891  12.712  13.885
93040W        W60108  12.793   5.869   0.810
93041W        W60109   5.730  27.471  13.338
93042W        W60110   0.941  14.596  14.862
93043W        W60111  43.966   3.375  14.393
93044W        W60112   7.901   5.875   3.719
93045W        W60113  18.172   6.746   1.360
93046W        W60114   4.259   5.718   2.792
93047W        W60115  27.563  17.565   2.350
93048W        W60116  32.021   4.794   3.351
93049W        W60117  30.165  13.736  11.927
93050W        W60118  25.000  41.482  10.160
93051W        W60119  41.364  28.983   1.818
93052W        W60120  30.994  40.922   1.820
93053W        W60121   8.268  28.649  10.450
93054W        W60122  22.658  10.364  12.038
93055W        W60123  19.738  35.545   2.235
93056W        W60124  36.054  30.544   2.267
93057W        W60125  16.278  30.560  14.793
93058W        W60126  28.594  17.249  13.513
93059W        W60127  18.152   6.884   3.339
93060W        W60128  26.597   8.852   5.307
93061W        W60129  36.354  12.645  11.055
93062W        W60130  22.069  22.142   4.176
93063W        W60131  21.534  17.156   4.640
93064W        W60132  40.541   3.308   5.247
93065W        W60133  35.560  21.525   2.803
93066W        W60134   3.786  15.223   1.867
93067W        W60135  26.069  44.449   4.815
93068W        W60136  35.057  25.615  11.453
93069W        W60137  33.427   1.329  14.973
93070W        W60138  14.163  27.647  10.592
93071W        W60139  39.325   7.680   0.387
93072W        W60140  13.123  29.027   3.222
93073W        W60141  41.005   2.755  12.889
93074W        W60142  29.628  36.039  10.582
93075W        W60143   3.943  32.051   1.438
93076W        W60144  26.025  27.018  12.081
93077W        W60145  12.288  43.394   3.722
93078W        W60146  44.781  12.175  12.426
93079W        W60147  33.489   0.436   3.754
93080W        W60148   1.874  22.615  12.344
93081W        W60149  41.388  26.104  12.848
93082W        W60150  23.180  17.745   3.265
93083W        W60151   8.827  35.579   2.330
93084W        W60152   2.292  14.222   1.768
93085W        W60153  18.698  40.987   1.798
93086W        W60154  31.996   7.767   1.793
93087W        W60155  19.674  18.107  10.414
93088W        W60156  37.578   4.867   0.752
93089W        W60157  40.827   9.702   2.268
93090W        W60158  44.758  18.108   3.276
93091W        W60159  31.913  36.841  14.405
93092W        W60160  21.575  11.143  11.948
93093W        W60161   8.389   2.935  12.918
93094W        W60162   5.298  39.866  14.980
93095W        W60163  19.082  18.286  10.415
93096W        W60164   1.289  20.595  11.421
93097W        W60165  31.440   9.172   0.413
93098W        W60166  29.549  17.801  10.496
93099W        W60167  33.398  23.518   3.645
93100W        W60168  34.526   9.646   1.332
93101W        W60169  30.031   7.293   0.447
93102W        W60170  18.648  34.105   3.146
93103W        W60171  23.708   5.858   1.310
93104W        W60172  40.493  22.221   3.289
93105W        W60173  40.806   8.832  11.496
93106W        W60174  15.243  25.585  13.548
93107W        W60175  13.779  40.384  13.010
93108W        W60176  37.855  32.603   3.247
93109W        W60177  40.982   9.347   4.797
93110W        W60178   2.800  40.047  11.414
93111W        W60179   9.305  18.575   2.190
93112W        W60180  30.982  24.195  13.992
93113W        W60181  35.393  42.941   0.246
93114W        W60182   1.886  32.529  12.340
93115W        W60183  31.426  32.996  10.472
93116W        W60184  34.420   2.840   4.252
93117W        W60185  28.675  36.558   1.851
93118W        W60186  26.028  22.111  10.990
93119W        W60187  21.628  39.530   3.692
93120W        W60188   6.698  40.307   3.153
93121W        W60189  42.471  41.446  14.432
93122W        W60190  24.627  26.154   4.140
93123W        W60191  44.334  32.927  13.828
93124W        W60192  39.062  42.018  14.489
93125W        W60193  29.624  16.108   0.746
93126W        W60194  39.052   8.767   1.780
93127W        W60195  32.997  35.398   1.305
93128W        W60196  36.412  16.209   4.185
93129W        W60197  16.207  24.675   2.273
93130W        W60198   2.395  29.027   3.274
93131W        W60199  40.546  30.630  14.917
93132W        W60200  40.431   4.377  10.929
93133W        W60201   0.883  28.448  13.539
93134W        W60202   2.398  20.035  14.452
93135W        W60203  42.971  28.991  13.857
93136W        W60204  41.306  30.072  13.513
93137W        W60205   7.336  29.037   1.847
93138W        W60206  29.554   5.758   1.382
93139W        W60207  24.144   7.338  14.842
93140W        W60208  42.478  11.220  10.565
93141W        W60209  10.757  36.920  13.838
93142W        W60210  34.906   0.380   2.738
93143W        W60211  19.586  35.572  13.860
93144W        W60212   8.326  36.887   1.387
93145W        W60213  31.984  35.016  12.824
93146W        W60214  16.602  29.007  14.438
93147W        W60215  39.398  26.158   1.348
93148W        W60216  29.440   4.294  13.056
93149W        W60217  20.563  32.970   4.705
93150W        W60218  38.402  25.555   4.821
93151W        W60219  16.759  32.451   4.641
93152W        W60220  33.582  33.984   3.660
93153W        W60221  25.504  17.689  10.424
93154W        W60222  20.196  21.179  12.990
93155W        W60223  13.195   9.164   4.261
93156W        W60224  44.851  27.053   0.967
93157W        W60225  20.087   1.835  14.897
93158W        W60226  28.588  15.187   0.447
93159W        W60227  23.604  24.521   3.746
93160W        W60228  31.566  36.417   3.178
93161W        W60229  40.548   9.387  10.947
93162W        W60230   9.853  43.980  14.370
93163W        W60231  20.599  44.774   2.187
93164W        W60232  11.327  33.622   4.814
93165W        W60233   4.219  23.724  14.986
93166W        W60234  20.207  14.598  12.892
93167W        W60235  32.404  20.739   4.225
93168W        W60236  43.842  22.554  13.044
93169W        W60237  16.809   1.418  12.984
93170W        W60238  30.569  38.869   3.684
93171W        W60239  16.287  19.244   1.276
93172W        W60240  43.405  15.602   0.390
93173W        W60241  40.953  23.643  14.968
93174W        W60242  10.635  27.021   4.810
93175W        W60243  17.258  39.913   1.912
93176W        W60244  17.684  37.486   0.351
93177W        W60245  34.509  19.723   4.156
93178W        W60246  33.589  42.314  14.861
93179W        W60247  17.230  23.048  10.901
93180W        W60248  25.679  34.509   0.323
93181W        W60249  33.408   6.789   3.318
93182W        W60250  36.904  14.767   2.300
93183W        W60251   0.833  14.252   2.184
93184W        W60252  31.596  13.686   0.862
93185W        W60253   1.417  39.840  12.005
93186W        W60254   3.818  41.794   2.825
93187W        W60255  14.792  29.021   5.190
93188W        W60256  27.961  29.098  13.986
93189W        W60257  20.710  18.769   1.338
93190W        W60258  30.562  10.206  12.368
93191W        W60259  24.560  44.293  12.997
93192W        W60260  38.932  21.047   1.269
93193W        W60261  35.489  43.878   2.298
93194W        W60262  34.912  10.723   4.296
93195W        W60263  20.195  15.157   3.716
93196W        W60264   9.889  27.494  14.808
93197W        W60265  44.440  17.556   4.305
93198W        W60266  32.574   3.326  14.507
93199W        W60267   9.367  33.391   2.710
93200W        W60268  38.002  29.496  10.577
93201W        W60269  28.137  37.378  14.942
93202W        W60270  44.863  21.581  13.377
93203W        W60271  41.292  10.864  14.002
93204W        W60272  32.890  20.086  12.955
93205W        W60273  40.476  26.023   3.813
93206W        W60274   6.730  25.135   4.213
93207W        W60275  12.827   1.891  12.997
93208W        W60276   4.919  22.639  11.521
93209W        W60277  12.119   1.246   1.427
93210W        W60278  29.548  28.059   2.349
93211W        W60279  25.057  23.137   3.657
93212W        W60280  32.007  23.605   1.780
93213W        W60281  44.389  32.526  12.879
93214W        W60282  28.091  18.559   2.678
93215W        W60283  12.781  25.494  11.519
93216W        W60284  11.668   3.931   3.649
93217W        W60285  17.293   3.807  14.459
93218W        W60286   8.307  23.136   1.726
93219W        W60287  21.172  15.768  13.982
93220W        W60288  40.015  44.497  14.311
93221W        W60289  22.049  37.946  12.522
93222W        W60290  25.636  20.030  10.486
93223W        W60291   9.697  33.956   3.331
93224W        W60292  25.560  28.557  14.982
93225W        W60293  17.593  37.495   1.898
93226W        W60294  37.955  27.496   4.687
93227W        W60295  13.842  38.410  12.517
93228W        W60296  22.049   1.420  10.971
93229W        W60297  31.440  15.243  12.978
93230W        W60298  31.088   4.379   3.662
93231W        W60299   1.287   3.222  12.967
93232W        W60300  11.721  23.130  13.391
93233W        W60301  39.331  19.769   4.274
93234W        W60302   5.321   7.183  11.510
93235W        W60303  20.047  16.638   1.344
93236W        W60304  32.542  11.761   1.393
93237W        W60305   6.216  19.244  10.020
93238W        W60306  15.321  23.549  12.861
93239W        W60307   5.376  27.691  11.538
93240W        W60308  38.536  20.681   0.831
93241W        W60309   4.382  16.126  11.979
93242W        W60310   5.819  39.458  12.989
93243W        W60311  20.250   9.271  11.487
93244W        W60312  27.040  26.643   3.641
93245W        W60313  43.277  38.567  14.794
93246W        W60314  44.431  10.734   4.336
93247W        W60315  30.426  13.333  12.573
93248W        W60316  11.801  24.078  11.001
93249W        W60317  27.455  40.385  13.514
93250W        W60318  11.155  34.925   0.858
93251W        W60319   3.835   1.752  14.795
93252W        W60320  10.676   6.696   4.190
93253W        W60321  36.575  32.981  11.613
93254W        W60322   4.767  34.375  14.022
93255W        W60323  24.646   0.929   0.868
93256W        W60324  13.337  30.105   4.329
93257W        W60325   6.752  16.790   1.408
93258W        W60326  40.023   0.327   2.389
93259W        W60327  24.592  39.427  12.491
93260W        W60328  36.577  31.087  10.482
93261W        W60329  40.317  22.714   3.686
93262W        W60330  37.880  11.348   3.227
93263W        W60331  26.102  29.134  12.946
93264W        W60332  28.564  37.569   4.180
93265W        W60333  16.138   5.418  11.595
93266W        W60334  37.954   8.399  10.598
93267W        W60335   2.416  23.033  14.332
93268W        W60336  19.197  40.025  12.917
93269W        W60337   9.355  26.190   0.306
93270W        W60338  23.547  28.677  13.907
93271W        W60339  37.569   1.834  10.134
93272W        W60340   5.770  31.523  11.869
93273W        W60341  37.407   0.974  11.603
93274W        W60342   3.803  11.687  14.413
93275W        W60343  15.176  42.409   4.783
93276W        W60344  21.024  29.596   0.261
93277W        W60345  32.959  23.145   1.694
93278W        W60346  16.641  39.381  11.973
93279W        W60347  43.329  29.146  12.862
93280W        W60348  23.552   3.438  13.378
93281W        W60349  26.052   3.446   1.416
93282W        W60350  36.463   6.326   1.230
93283W        W60351   1.848  25.474   4.310
93284W        W60352   5.820  15.631  12.911
93285W        W60353  33.383   7.838   1.892
93286W        W60354   2.850  44.431   3.304
93287W        W60355  35.417   6.305  13.815
93288W        W60356  34.524   8.370  13.521
93289W        W60357   1.774  11.851   0.868
93290W        W60358  29.124   7.260   4.611
93291W        W60359  30.143  14.696  14.875
93292W        W60360   5.785  21.643  11.073
93293W        W60361   9.715   6.838   0.756
93294W        W60362  44.964  30.496  14.781
93295W        W60363  29.091  37.032   1.820
93296W        W60364  41.401  17.784  13.873
93297W        W60365   5.732  12.812   3.209
93298W        W60366   9.364  32.975   0.382
93299W        W60367  18.626  36.924  11.095
93300W        W60368   1.736   5.379   2.405
93301W        W60369  36.574  28.499   2.901
93302W        W60370   7.691  15.752   3.706
93303W        W60371  10.780  44.910  10.613
93304W        W60372   8.327  13.189  13.368
93305W        W60373  13.302  33.123   0.340
93306W        W60374  43.886   4.898  13.903
93307W        W60375   0.269  10.818  11.107
93308W        W60376  30.564  15.330   0.779
93309W        W60377  35.082   6.285  11.507
93310W        W60378   3.433  25.704   3.815
93311W        W60379  34.903  23.559  10.974
93312W        W60380  44.398  33.625   3.228
93313W        W60381  10.874  43.965   1.828
93314W        W60382  29.985  36.934   1.830
93315W        W60383  13.690  21.583  14.276
93316W        W60384  22.163  34.473   2.335
93317W        W60385  27.512  38.974   2.746
93318W        W60386  12.343  39.545   0.919
93319W        W60387  37.920  15.275   2.358
93320W        W60388   6.791  29.070  11.602
93321W        W60389   5.400  43.941  11.914
93322W        W60390  28.472  17.633   3.210
93323W        W60391  41.383   4.812   2.285
93324W        W60392  35.532  41.954   0.430
93325W        W60393  42.788  21.585  12.383
93326W        W60394   4.256  34.575  11.098
93327W        W60395  14.315  10.230  14.398
93328W        W60396  14.683  31.609   0.920
93329W        W60397  34.434   9.386  10.572
93330W        W60398   6.800   2.808  13.860
93331W        W60399   2.448  21.262  12.960
93332W        W60400  16.581  23.698   2.195
93333W        W60401  28.091   8.657   3.198
93334W        W60402  20.755  23.665  11.400
93335W        W60403  36.493  23.602   0.965
93336W        W60404   4.900  32.580  13.354
93337W        W60405   6.293   4.736   5.282
93338W        W60406  11.841  16.578  10.094
93339W        W60407  39.423  41.936  13.532
93340W        W60408  30.109  34.097   1.817
93341W        W60409  13.661  18.163   1.841
93342W        W60410  14.241  20.114   0.889
93343W        W60411  36.870  22.564  11.121
93344W        W60412  42.504   5.322  11.397
93345W        W60413  25.027  21.580   3.306
93346W        W60414  38.507   8.776  12.434
93347W        W60415  13.143   3.947  14.026
93348W        W60416  35.967  40.332  13.023
93349W        W60417  13.714  18.088   4.206
93350W        W60418  27.677  16.228  14.850
93351W        W60419  24.160  16.280  11.467
93352W        W60420  18.639   8.159  13.015
93353W        W60421  25.996  20.535   4.236
93354W        W60422  42.908   9.273   2.893
93355W        W60423  38.934  19.080  14.811
93356W        W60424  40.850  20.526  13.406
93357W        W60425  41.333  20.628   3.158
93358W        W60426  37.928   9.791   0.314
93359W        W60427  23.652  21.690  13.939
93360W        W60428  26.107  18.214  11.888
93361W        W60429  17.570  12.324   3.804
93362W        W60430  29.009  34.473   0.777
93363W        W60431  30.995  31.631   1.335
93364W        W60432  41.871  36.901   2.738
93365W        W60433   2.283  18.548  14.310
93366W        W60434   2.292  42.506   0.268
93367W        W60435   4.882  37.467   2.843
93368W        W60436   5.308  15.696  12.036
93369W        W60437  32.471  31.908   1.817
93370W        W60438  14.211  18.106   3.779
93371W        W60439  32.911   1.348   2.719
93372W        W60440  36.566  26.460  14.845
93373W        W60441   9.225  11.695   4.706
93374W        W60442  16.758  19.182   0.917
93375W        W60443  41.386  20.148  13.445
93376W        W60444  41.946  34.016   4.124
93377W        W60445   7.910   7.829  13.524
93378W        W60446  14.690   5.847   0.315
93379W        W60447  40.961  12.694   0.455
93380W        W60448  10.786  13.669  10.926
93381W        W60449   1.977  40.527  12.838
93382W        W60450  43.003  29.617  12.059
93383W        W60451  41.848  33.538  10.427
93384W        W60452  13.294   5.259   3.648
93385W        W60453   2.417  16.144  12.580
93386W        W60454  21.575  12.361  14.301
93387W        W60455  15.133  37.923   3.839
93388W        W60456  41.418  36.469   1.386
93389W        W60457  19.562  23.579  11.458
93390W        W60458   2.914   7.184   0.837
93391W        W60459  43.802  29.538  14.365
93392W        W60460   4.702  24.682   1.442
93393W        W60461   1.926   1.375  14.955
93394W        W60462  25.110  23.523   3.257
93395W        W60463  39.881   5.413   2.401
93396W        W60464  21.577  28.484   0.786
93397W        W60465  37.999  26.546  10.431
93398W        W60466   7.833  43.440  12.000
93399W        W60467  30.436   5.768   2.199
93400W        W60468  31.611  40.965   3.220
93401W        W60469  20.191  41.793   2.807
93402W        W60470  22.058   3.330  13.803
93403W        W60471  30.594  14.176   0.276
93404W        W60472  11.267   7.762  12.473
93405W        W60473   7.810  32.480  11.489
93406W        W60474  42.508  34.401  14.368
93407W        W60475  42.376   6.381  12.996
93408W        W60476  15.213  36.862   3.346
93409W        W60477   3.216   5.794  10.988
93410W        W60478   8.242  35.429   3.355
93411W        W60479  24.040  30.523   3.216
93412W        W60480   3.269   3.723  10.530
93413W        W60481  11.294  17.697  14.880
93414W        W60482   7.908  33.013  12.963
93415W        W60483   9.220  37.489   4.288
93416W        W60484   9.686  38.330  11.022
93417W        W60485  25.037  31.146   0.869
93418W        W60486  32.573   8.217  11.025
93419W        W60487   5.925  39.385   2.858
93420W        W60488  10.713  12.666   4.704
93421W        W60489   8.872  26.091  10.899
93422W        W60490  31.096  37.943  11.121
93423W        W60491  23.080   4.280   4.616
93424W        W60492  21.233  15.274  14.970
93425W        W60493   7.834  23.632  14.884
93426W        W60494  10.233  10.168  13.347
93427W        W60495  36.373  40.048  12.340
93428W        W60496  18.107  11.263   4.317
93429W        W60497  18.253  10.303  11.934
93430W        W60498   5.286  13.199  10.914
93431W        W60499   8.219  11.750  12.407
93432W        W60500  26.200  44.795  11.606
93433W        W60501  13.714   2.804  10.930
93434W        W60502  42.499  12.174   1.355
93435W        W60503   3.400  26.067  13.475
93436W        W60504  44.401  32.904   3.285
93437W        W60505  43.482  33.606  11.867
93438W        W60506  16.633  27.190  14.319
93439W        W60507  38.990  27.687  13.391
93440W        W60508  20.265  36.393  11.966
93441W        W60509  40.389  40.046  12.384
93442W        W60510  36.520   4.919  13.378
93443W        W60511  43.948  31.039   4.636
93444W        W60512  24.120  29.090  11.468
93445W        W60513   6.191  28.616   1.320
93446W        W60514  10.656  33.943   0.873
93447W        W60515  41.446  26.168   1.836
93448W        W60516  14.318   3.843   4.688
93449W        W60517  40.380  16.304  12.370
93450W        W60518  33.902  23.128  14.896
93451W        W60519  24.594  15.251  12.093
93452W        W60520   5.412  26.176  10.492
93453W        W60521  26.030  14.198  10.967
93454W        W60522  41.983   1.277   2.244
93455W        W60523  33.941  31.059  13.913
93456W        W60524  17.096   1.974  13.895
93457W        W60525  29.500  25.480  13.383
93458W        W60526  12.235  21.142   0.790
93459W        W60527  14.200  25.058  13.526
93460W        W60528   2.935  38.850   4.298
93461W        W60529  31.943  41.911   3.319
93462W        W60530  29.116  24.995   3.827
93463W        W60531  40.374  30.524   3.832
93464W        W60532  43.894  42.436  11.481
93465W        W60533  33.097  30.959  13.802
93466W        W60534  26.962   4.420  12.887
93467W        W60535  15.093  39.027  12.550
93468W        W60536   1.864  30.559   2.880
93469W        W60537  28.139  10.796  14.354
93470W        W60538   9.368  30.992   3.855
93471W        W60539  16.693   4.360   3.252
93472W        W60540  25.086  40.356   2.352
93473W        W60541  41.974  40.865   2.772
93474W        W60542   4.887  22.227   3.793
93475W        W60543  15.188  37.875  10.955
93476W        W60544  21.737   1.292   0.266
93477W        W60545  40.498   2.904   0.757
93478W        W60546   0.768  43.793   0.891
93479W        W60547  23.679  29.513  10.505
93480W        W60548  39.901  33.974   1.828
93481W        W60549   4.725  42.811  10.541
93482W        W60550   0.474  39.440  14.802
93483W        W60551  22.619  31.462   3.655
93484W        W60552  35.056  35.988   1.311
93485W        W60553  41.027  33.883  13.969
93486W        W60554   7.709  24.561   1.877
93487W        W60555   0.327  26.965  13.395
93488W        W60556   4.698  43.401  14.375
93489W        W60557   3.256   2.284   2.303
93490W        W60558  11.221  12.736  12.872
93491W        W60559  16.642   7.894  10.529
93492W        W60560  38.960  13.730  14.507
93493W        W60561  19.256  21.246   1.913
93494W        W60562  35.016  13.300  12.541
93495W        W60563   7.803  37.973  13.385
93496W        W60564  37.025  20.134  12.036
93497W        W60565   7.798  38.013  11.858
93498W        W60566  38.458  32.520   0.732
93499W        W60567  26.150  42.844  11.929
93500W        W60568  37.960  22.064  14.410
93501W        W60569  44.988  42.493  10.891
93502W        W60570  43.949  37.046   4.623
93503W        W60571  23.572  23.173  11.561
93504W        W60572  30.081  40.525   0.802
93505W        W60573  16.175  35.553   2.331
93506W        W60574  39.366  10.802  10.973
93507W        W60575  13.734   3.716  13.862
93508W        W60576   8.667  43.328   0.410
93509W        W60577  40.462  15.176  12.447
93510W        W60578   4.350   9.888   0.830
93511W        W60579  22.553  31.545  13.904
93512W        W60580  12.616  11.351   2.691
93513W        W60581  43.469  30.955   4.214
93514W        W60582  17.781  30.994  12.475
93515W        W60583  33.458  28.551   1.420
93516W        W60584  18.274  15.195  13.410
93517W        W60585   7.780  23.186   2.816
93518W        W60586   7.820  43.002   4.709
93519W        W60587   9.302  26.007  14.449
93520W        W60588   3.889  42.468  11.095
93521W        W60589   5.825  44.487   0.325
93522W        W60590  36.580  32.394   1.449
93523W        W60591  13.278   2.910  12.867
93524W        W60592  24.639  27.561   3.342
93525W        W60593   8.877  35.500   2.848
93526W        W60594  41.493  40.497  11.073
93527W        W60595   9.359  26.068  10.540
93528W        W60596  20.597  16.637   3.709
93529W        W60597   4.232   5.368   0.843
93530W        W60598  13.733  27.048   1.230
93531W        W60599  42.350  31.411  14.510
93532W        W60600   5.809   2.955   0.296
93533W        W60601  11.271  19.646  11.128
93534W        W60602  12.741  39.319  10.466
93535W        W60603   6.766   6.916   2.754
93536W        W60604   9.686   1.976  10.943
93537W        W60605  23.061  42.324  12.953
93538W        W60606  37.919  12.811  13.833
93539W        W60607  34.112  34.052  12.933
93540W        W60608   3.881  29.507   3.729
93541W        W60609  10.865  30.100   0.906
93542W        W60610  25.159  26.080   1.257
93543W        W60611  11.834  37.393   2.681
93544W        W60612  41.311  28.041  10.481
93545W        W60613  27.632  27.030  12.059
93546W        W60614  11.728  40.360  12.034
93547W        W60615   9.243  25.637   1.386
93548W        W60616  23.623   4.722  14.986
93549W        W60617  28.155   5.429   3.202
93550W        W60618  26.628  15.754   0.864
93551W        W60619  36.469  30.910  13.001
93552W        W60620  28.506  28.042  11.987
93553W        W60621  17.639  11.184  10.896
93554W        W60622  13.605  21.547  13.310
93555W        W60623   6.354  27.019  10.510
93556W        W60624   7.342  38.530  10.912
93557W        W60625  42.371  44.896  13.911
93558W        W60626  26.095  10.261   1.288
93559W        W60627  44.435  32.409  12.361
93560W        W60628  20.638  12.627  12.385
93561W        W60629   2.440  18.278   1.392
93562W        W60630  30.584  37.466  14.912
93563W        W60631  15.182  37.486   4.288
93564W        W60632  25.492  37.887  13.965
93565W        W60633   9.190   5.730   0.458
93566W        W60634   6.893  23.196  12.918
93567W        W60635  38.023  35.904   1.332
93568W        W60636  18.172  11.819  11.447
93569W        W60637  39.538  10.366  10.445
93570W        W60638  10.728  28.089   1.429
93571W        W60639   6.206  41.359  10.106
93572W        W60640   6.851  31.097  11.055
93573W        W60641  14.783  28.035   3.191
93574W        W60642  17.157  33.000   2.777
93575W        W60643  31.535  23.652  14.956
93576W        W60644  39.477  39.971   3.191
93577W        W60645   7.719  31.425  11.102
93578W        W60646  30.599   6.384  10.900
93579W        W60647  37.078  16.182   4.633
93580W        W60648  44.925  25.984  13.474
93581W        W60649  22.106  33.944   0.347
93582W        W60650  12.694  28.970   1.420
93583W        W60651   2.260  15.778   1.435
93584W        W60652  24.557   1.239   0.359
93585W        W60653   3.795   1.284  12.884
93586W        W60654   2.312  10.311  11.404
93587W        W60655  30.120  12.262   2.408
93588W        W60656   1.466  31.485  12.878
93589W        W60657   2.914  31.124  10.507
93590W        W60658  42.368  34.075   2.218
93591W        W60659  41.023  40.838  12.853
93592W        W60660  34.979  42.776   9.972
93593W        W60661  27.463  28.558   4.243
93594W        W60662  11.800  24.007   1.241
93595W        W60663  17.077  13.136   5.096
93596W        W60664   3.381   1.271   2.820
93597W        W60665  29.587  14.232   0.737
93598W        W60666   2.468  15.118  10.962
93599W        W60667  20.725  35.875  11.948
93600W        W60668  24.532   6.818   3.855
93601W        W60669  29.637  30.457   1.322
93602W        W60670  39.924  11.373  13.401
93603W        W60671  22.737  29.104  12.529
93604W        W60672   2.753  16.185   2.726
93605W        W60673   3.290  41.416  12.965
93606W        W60674  41.320  41.787  10.642
93607W        W60675  38.370   4.910  14.480
93608W        W60676  20.032  38.049   4.173
93609W        W60677   7.902  35.030  12.514
93610W        W60678  37.455  13.120   0.286
93611W        W60679  26.010  12.147  10.938
93612W        W60680   9.354   4.292   4.135
93613W        W60681  33.084  18.283   2.871
93614W        W60682  29.976  24.012  13.384
93615W        W60683  23.055  40.944   4.313
93616W        W60684  44.889  20.096  11.440
93617W        W60685  18.197  37.354   3.813
93618W        W60686   2.885  32.503   0.851
93619W        W60687  16.123  29.570   3.231
93620W        W60688   6.871  33.063  12.508
93621W        W60689  11.138   1.913   9.651
93622W        W60690  15.756  12.315   3.374
93623W        W60691  26.510  21.714   0.300
93624W        W60692  16.139  30.910   3.323
93625W        W60693  27.522  17.742   3.295
93626W        W60694  11.737  16.190   4.181
93627W        W60695  26.468  19.648   2.342
93628W        W60696   1.409  11.349   1.933
93629W        W60697   9.307   9.246   2.233
93630W        W60698  10.249  27.186  14.997
93631W        W60699  23.068  22.086   2.740
93632W        W60700  21.037   5.898  13.965
93633W        W60701  23.725  18.087   1.754
93634W        W60702  40.843  34.071   4.613
93635W        W60703   8.375  41.857  11.026
93636W        W60704   5.291  38.854   3.242
93637W        W60705  34.551  40.003  13.401
93638W        W60706  12.766  20.270   1.346
93639W        W60707   8.344  33.624   3.329
93640W        W60708  40.430  41.402  12.826
93641W        W60709  19.220  20.073  13.857
93642W        W60710   5.788  40.875  11.505
93643W        W60711  16.241  34.410  11.857
93644W        W60712  43.978  21.068  14.816
93645W        W60713  20.680   3.318  13.865
93646W        W60714  40.412  19.211   1.300
93647W        W60715  14.279  22.038  11.406
93648W        W60716  34.610  11.332  12.052
93649W        W60717  25.039  41.537   4.174
93650W        W60718   4.707  27.055  13.320
93651W        W60719  38.349   8.885  10.495
93652W        W60720   0.367  10.292  11.894
93653W        W60721  20.058  40.813  13.889
93654W        W60722  39.544  40.473   3.679
93655W        W60723  11.209   7.205   2.764
93656W        W60724   6.370  33.518  14.379
93657W        W60725  37.378  29.654   2.380
93658W        W60726   2.901  39.329   4.203
93659W        W60727   8.665   5.384  13.015
93660W        W60728   4.360   6.802  12.044
93661W        W60729   2.934  28.522  12.047
93662W        W60730  11.334   0.887   1.711
93663W        W60731  20.669  36.528   3.242
93664W        W60732  28.443   5.716   2.244
93665W        W60733   7.860  38.406  11.109
93666W        W60734  13.223   1.466   0.414
93667W        W60735   8.855  43.015   2.864
93668W        W60736  18.640  24.524  11.570
93669W        W60737  13.647  21.541   1.318
93670W        W60738  23.985  39.537   3.329
93671W        W60739  32.023  37.922   1.375
93672W        W60740  23.150  43.446  12.394
93673W        W60741  21.212   0.955  10.901
93674W        W60742  25.647  16.143  14.787
93675W        W60743  26.957  27.194   4.710
93676W        W60744  17.680   9.750  12.339
93677W        W60745   2.860  31.415   2.779
93678W        W60746  18.684   9.671   4.677
93679W        W60747  25.200  27.468  10.436
93680W        W60748  41.859  41.869  11.410
93681W        W60749   1.789   3.712   2.247
93682W        W60750   5.777  32.570   2.273
93683W        W60751  40.044  34.482   0.374
93684W        W60752  33.130  32.437   2.827
93685W        W60753   3.343  18.585  11.927
93686W        W60754   8.358  33.011  11.048
93687W        W60755   8.302  39.318   1.857
93688W        W60756  14.180  29.966   1.425
93689W        W60757   7.242  13.791   2.742
93690W        W60758   7.803  41.486   1.820
93691W        W60759   9.376  23.592  14.473
93692W        W60760   8.357   4.350   4.620
93693W        W60761  35.394  25.966   3.664
93694W        W60762  16.745  20.228  13.027
93695W        W60763  27.575  41.529  13.372
93696W        W60764  30.604  38.531  14.410
93697W        W60765  25.584   7.343  14.822
93698W        W60766  18.747   6.221  13.840
93699W        W60767  18.153  39.554   4.601
93700W        W60768   2.364  19.677   1.915
93701W        W60769  32.114  19.086   4.210
93702W        W60770  37.990  15.695  13.920
93703W        W60771  19.675  17.295  12.479
93704W        W60772  11.831  24.096  12.491
93705W        W60773  16.289  12.685  12.849
93706W        W60774  31.619  11.846   0.478
93707W        W60775  21.528  16.600  12.083
93708W        W60776  18.612  44.410   5.211
93709W        W60777   6.848  39.538  13.480
93710W        W60778   5.222  32.395  10.492
93711W        W60779  10.183  26.538  11.107
93712W        W60780   7.828  12.719   4.265
93713W        W60781  26.015  24.633   4.766
93714W        W60782   2.943  21.556  14.789
93715W        W60783  22.626   3.714  14.378
93716W        W60784   5.424  31.470  13.532
93717W        W60785  25.618  37.357   4.759
93718W        W60786   5.747  37.350  12.506
93719W        W60787  24.098  14.207   3.653
93720W        W60788  42.508  37.372  12.029
93721W        W60789  10.297  41.440  13.842
93722W        W60790  21.557   4.241   3.773
93723W        W60791  35.558  30.955   3.722
93724W        W60792  22.233  31.516  11.380
93725W        W60793   3.731  20.696  11.996
93726W        W60794  12.341  11.225   0.763
93727W        W60795  22.086  32.111   1.426
93728W        W60796  19.178   2.350  12.401
93729W        W60797  12.250   6.302  10.473
93730W        W60798  44.868   7.876  14.363
93731W        W60799  12.145  30.151  13.533
93732W        W60800  14.253  20.103   0.337
93733W        W60801  43.303  11.235   1.446
93734W        W60802   6.230  24.698  13.475
93735W        W60803  12.639  13.655  13.856
93736W        W60804   7.253   2.291   3.385
93737W        W60805   8.206  35.997   3.710
93738W        W60806  24.208  38.430   3.845
93739W        W60807   9.719   9.200  14.972
93740W        W60808   9.294  22.134   1.925
93741W        W60809  24.026   6.880  10.910
93742W        W60810  18.574  26.643   0.963
93743W        W60811  29.099  26.607   2.870
93744W        W60812  14.806  15.211  12.086
93745W        W60813   2.809  41.955   2.215
93746W        W60814  16.774  24.574  11.058
93747W        W60815  23.057  12.294   2.295
93748W        W60816   9.787  43.933   1.442
93749W        W60817  40.019  37.953   4.340
93750W        W60818  36.556   8.400   3.639
93751W        W60819   8.300  30.500   0.841
93752W        W60820  17.217  35.922   5.235
93753W        W60821   7.377   6.208  11.086
93754W        W60822  28.604  17.292  11.506
93755W        W60823  26.106  25.605  14.336
93756W        W60824  22.723  19.554   5.155
93757W        W60825   7.209  42.957   5.188
93758W        W60826  31.459  10.146   0.770
93759W        W60827   5.297   5.898   3.358
93760W        W60828  32.985  39.832   4.219
93761W        W60829  12.164   1.884   4.607
93762W        W60830   0.984  11.730   5.255
93763W        W60831  14.309  10.640   2.276
93764W        W60832  14.776  31.463  13.515
93765W        W60833  24.708   9.652  10.554
93766W        W60834  19.166  18.226   2.257
93767W        W60835  27.945  32.628   3.350
93768W        W60836  30.575  20.215   2.210
93769W        W60837  36.051  24.973   1.927
93770W        W60838  16.134  11.178  13.375
93771W        W60839  24.211   7.675   2.705
93772W        W60840  21.709  16.755   1.781
93773W        W60841  40.009  31.584   3.305
93774W        W60842  22.606  40.343  11.424
93775W        W60843   9.227  27.566  13.364
93776W        W60844  11.829  18.653   3.346
93777W        W60845  30.612  38.475   3.187
93778W        W60846   3.227  33.911   3.651
93779W        W60847   6.279  16.630  11.909
93780W        W60848   7.211  38.399  13.459
93781W        W60849  15.167  19.677  12.923
93782W        W60850   4.822  19.280  12.928
93783W        W60851   5.385   6.889   0.906
93784W        W60852  41.421  34.560  12.903
93785W        W60853   5.919  13.837   2.877
93786W        W60854  12.318  35.503  14.847
93787W        W60855  41.508  14.148   1.242
93788W        W60856  37.473  22.635   3.370
93789W        W60857  24.521  22.026   4.679
93790W        W60858  12.332  30.532   4.772
93791W        W60859  19.642  33.917   2.878
93792W        W60860  23.175  19.761   3.716
93793W        W60861  26.647  29.064  14.995
93794W        W60862  18.279  39.001  13.888
93795W        W60863   9.187   4.346   1.928
93796W        W60864  22.548  10.375   0.381
93797W        W60865  14.281  42.309   4.780
93798W        W60866  38.507  24.034  12.965
93799W        W60867  13.317  42.334  10.959
93800W        W60868  14.594  13.665  13.843
93801W        W60869  36.924   6.887  11.102
93802W        W60870  33.529   9.856  10.961
93803W        W60871  28.979  33.396   0.431
93804W        W60872  22.555   3.947   4.282
93805W        W60873  35.442  30.932  10.918
93806W        W60874  24.196  12.197   2.271
93807W        W60875  44.496  34.869   1.317
93808W        W60876  25.158  43.280   4.330
93809W        W60877  30.067  14.139  13.948
93810W        W60878  13.136   7.409   4.237
93811W        W60879  17.774  26.120  14.799
93812W        W60880  18.156  20.164  12.479
93813W        W60881  32.007  22.586   0.467
93814W        W60882  33.885  19.174  12.955
93815W        W60883   9.256   7.387  12.455
93816W        W60884  33.582  36.541   3.643
93817W        W60885   8.877  26.499   2.691
93818W        W60886  29.658  34.491   1.384
93819W        W60887  37.016  10.850  11.493
93820W        W60888   7.772  39.979  12.072
93821W        W60889  27.504   3.378   3.814
93822W        W60890  43.963  18.113  10.535
93823W        W60891  37.345  34.577  10.639
93824W        W60892  16.649  27.173  11.085
93825W        W60893  28.093  25.609  13.987
93826W        W60894  31.557  28.671  10.113
93827W        W60895  18.136   4.939   1.720
93828W        W60896  27.034  41.937  13.046
93829W        W60897  41.377  12.125  14.763
93830W        W60898  15.183  42.849   0.341
93831W        W60899   6.424  35.919  12.380
93832W        W60900  42.929  18.584  13.995
93833W        W60901  25.491  26.132   3.246
93834W        W60902  16.619   0.260  11.528
93835W        W60903  11.623  22.245   0.480
93836W        W60904  30.508  36.472   2.891
93837W        W60905  30.635  18.118  11.437
93838W        W60906  17.124   3.765  10.435
93839W        W60907  18.050  41.488   3.685
93840W        W60908  29.084  26.116  10.554
93841W        W60909  40.324  28.516   3.650
93842W        W60910  38.978  20.757  13.362
93843W        W60911  39.052  18.734  12.994
93844W        W60912   1.904   3.263  14.382
93845W        W60913  17.594  10.253   3.323
93846W        W60914   2.462  13.822  14.332
93847W        W60915  12.197   3.767  13.548
93848W        W60916   4.753  22.523   4.244
93849W        W60917  31.406  34.892   1.712
93850W        W60918  23.566  44.772   0.425
93851W        W60919  34.012   4.844  14.309
93852W        W60920  23.686  22.711   2.265
93853W        W60921  27.482  39.468   2.362
93854W        W60922  39.898  38.823   9.977
93855W        W60923   0.325  17.683  12.036
93856W        W60924  29.068  17.649  12.556
93857W        W60925  34.576  44.872  13.428
93858W        W60926  10.183  27.185  14.379
93859W        W60927  20.038  33.041  10.531
93860W        W60928  30.507  22.502  11.122
93861W        W60929  24.047  36.983   1.842
93862W        W60930   7.403  18.185  12.987
93863W        W60931   2.345   7.415  12.443
93864W        W60932  23.078   8.251   1.842
93865W        W60933  36.907  15.280   3.691
93866W        W60934   8.716   4.230   2.856
93867W        W60935  14.106  44.782  13.401
93868W        W60936  31.537  37.345   4.799
93869W        W60937  36.572  33.519   0.452
93870W        W60938  11.130  41.377   1.396
93871W        W60939   3.826   2.378   4.279
93872W        W60940  17.689  26.609  12.942
93873W        W60941  15.200  44.364  12.485
93874W        W60942   6.416   0.388  13.850
93875W        W60943  11.736   0.424   1.892
93876W        W60944  31.622  27.667   4.615
93877W        W60945  23.725  23.731  13.896
93878W        W60946  35.896  25.206  11.925
93879W        W60947   2.406  36.061   0.891
93880W        W60948  30.079  21.517   1.312
93881W        W60949   9.225  19.089   1.916
93882W        W60950  14.120  43.357   4.153
93883W        W60951  11.155  27.661  13.045
93884W        W60952  29.029   7.672   0.272
93885W        W60953  22.569  23.628   1.375
93886W        W60954  27.943  33.526   1.213
93887W        W60955  38.452  31.420  14.806
93888W        W60956  20.701   1.957  10.543
93889W        W60957  12.729   6.393   2.348
93890W        W60958  42.402  13.264  12.578
93891W        W60959  11.828  22.579   2.836
93892W        W60960   9.844  25.027   0.797
93893W        W60961  29.514   0.260  14.764
93894W        W60962  37.547  31.480   3.188
93895W        W60963  30.083  37.482   5.318
93896W        W60964   3.913  20.070   1.708
93897W        W60965  19.220   0.261   4.787
93898W        W60966  38.065  39.355   2.410
93899W        W60967  15.622  40.365  13.032
93900W        W60968   7.821  15.582   3.245
93901W        W60969  26.123  19.729  14.922
93902W        W60970  18.654  21.675  12.958
93903W        W60971  26.688  31.085   0.858
93904W        W60972  37.424  33.092  12.558
93905W        W60973  29.587  33.524  12.401
93906W        W60974   3.721  18.573  14.325
93907W        W60975  40.442   4.917  14.344
93908W        W60976  38.932  43.484  11.115
93909W        W60977  43.837  30.649   3.286
93910W        W60978  21.256  32.586  14.277
93911W        W60979  25.002  33.097   4.343
93912W        W60980   9.304   1.469   3.639
93913W        W60981  20.139  34.522   3.206
93914W        W60982  13.283   3.949  12.055
93915W        W60983   8.715   7.903   0.382
93916W        W60984  20.226   6.335  12.034
93917W        W60985  25.524  44.344  11.039
93918W        W60986  12.191  10.358  14.851
93919W        W60987   3.861   9.206   1.231
93920W        W60988  18.164  38.048   3.781
93921W        W60989  42.461   0.322  11.549
93922W        W60990  16.104  22.617   2.237
93923W        W60991  40.857  37.874  14.932
93924W        W60992  23.996  13.264   5.114
93925W        W60993  15.274  22.040  12.554
93926W        W60994   8.252  41.424  14.825
93927W        W60995  18.265  23.583   0.775
93928W        W60996   5.740  25.216   3.216
93929W        W60997   5.360  12.244   1.741
93930W        W60998  36.843  40.325  10.574
93931W        W60999  17.269  35.387   3.790
93932W        W61000  42.775  21.123   3.659
93933W        W61001  28.114  15.291  13.933
93934W        W61002  14.308  37.530   2.299
93935W        W61003  21.735  26.646   0.739
93936W        W61004  32.014  36.355  13.015
93937W        W61005  40.949   8.283  11.581
93938W        W61006   5.895  17.254   5.214
93939W        W61007  26.634  19.071  12.449
93940W        W61008  31.511   4.326  11.120
93941W        W61009  28.680  14.724   2.851
93942W        W61010  40.358   2.891   2.192
93943W        W61011  33.122  10.694   0.437
93944W        W61012  37.884  21.061  11.978
93945W        W61013   0.459  24.018  13.911
93946W        W61014  17.693  33.939  14.458
93947W        W61015  29.540  35.874  10.124
93948W        W61016   2.432  35.036  13.794
93949W        W61017   8.733  12.731   0.873
93950W        W61018  21.129  26.678   3.683
93951W        W61019  42.877  19.668  10.903
93952W        W61020   6.423  10.800   1.738
93953W        W61021  22.067  34.534   1.316
93954W        W61022  17.578  39.905  11.865
93955W        W61023  16.273   3.823  13.514
93956W        W61024  12.313   3.296  10.523
93957W        W61025  11.640  21.577  11.537
93958W        W61026  31.060  32.022   4.777
93959W        W61027   7.677  40.013   2.336
93960W        W61028  18.251   1.785   1.371
93961W        W61029  12.705  21.174  12.508
93962W        W61030  17.148  16.107  11.107
93963W        W61031  12.250  35.977   2.312
93964W        W61032  29.966  12.138  12.072
93965W        W61033  28.520   4.438   0.332
93966W        W61034  35.367  13.236   0.868
93967W        W61035  23.096  37.504   0.814
93968W        W61036  11.732  29.083  11.972
93969W        W61037  35.558  12.272  11.062
93970W        W61038  23.086  25.663   1.409
93971W        W61039  39.347   5.304  10.415
93972W        W61040  22.189  13.118  12.369
93973W        W61041   2.837  12.616  12.018
93974W        W61042  33.969  20.591   4.696
93975W        W61043  34.991   7.793   0.448
93976W        W61044  32.404  34.602  14.867
93977W        W61045  17.759   7.324  11.999
93978W        W61046  23.530  20.063   3.193
93979W        W61047   9.794  23.118  10.451
93980W        W61048  27.941   9.826  14.360
93981W        W61049  36.090  43.768   0.317
93982W        W61050  27.165   1.446   1.928
93983W        W61051  19.763  17.772   2.360
93984W        W61052  35.857   6.794   0.835
93985W        W61053  17.104   8.186   4.705
93986W        W61054  17.764  27.651   1.418
93987W        W61055   5.909  19.275   2.769
93988W        W61056  42.976   0.444  13.347
93989W        W61057  14.205   9.795  14.496
93990W        W61058   6.311  22.562   3.777
93991W        W61059   8.674   0.309   1.315
93992W        W61060  38.495  12.353   2.362
93993W        W61061  15.326   2.773   2.699
93994W        W61062  34.377  38.844  12.524
93995W        W61063  20.715  16.252  12.022
93996W        W61064  28.060  18.111   4.656
93997W        W61065  25.002  18.231   1.318
93998W        W61066  33.470  44.812  13.926
93999W        W61067  14.247  33.985   2.368
94000W        W61068   3.941  13.148  14.991
94001W        W61069  40.333  31.512  13.978
94002W        W61070  38.048   1.417  10.936
94003W        W61071  35.479  37.870  14.367
94004W        W61072  21.023  32.064   2.764
94005W        W61073  29.444   4.700   0.834
94006W        W61074  10.289  14.115   4.796
94007W        W61075  32.994  11.137  11.042
94008W        W61076  17.248   9.698  12.566
94009W        W61077  44.965  42.350  12.373
94010W        W61078   7.679  26.004   1.852
94011W        W61079   0.268  28.482   4.191
94012W        W61080  42.987  34.916   3.350
94013W        W61081   9.237  12.122   1.705
94014W        W61082  26.160   1.243  11.553
94015W        W61083  27.944  41.975  14.277
94016W        W61084  19.040  28.519   2.672
94017W        W61085  32.061  20.074   0.799
94018W        W61086   8.401  33.614  14.485
94019W        W61087  36.089   8.730   4.145
94020W        W61088  41.019  22.574   0.735
94021W        W61089  37.949   9.874  14.326
94022W        W61090   1.892  35.428  10.513
94023W        W61091  32.896  11.788  11.963
94024W        W61092  33.596   2.465  14.332
94025W        W61093  32.013  44.793  11.436
94026W        W61094  29.666  39.896   2.888
94027W        W61095  23.677  39.387  11.563
94028W        W61096  22.573   0.351  11.454
94029W        W61097  24.592  18.156   1.891
94030W        W61098  41.472  20.103   0.961
94031W        W61099  29.512   7.269  14.888
94032W        W61100  43.842  11.171  11.446
94033W        W61101  10.246  19.260   0.259
94034W        W61102  44.393  35.932   2.852
94035W        W61103  32.524  36.540  11.537
94036W        W61104  27.581  12.310  11.393
94037W        W61105  31.962  25.647   3.206
94038W        W61106  28.081  41.984   2.844
94039W        W61107  31.435  14.275   3.746
94040W        W61108   3.944  40.449   0.299
94041W        W61109   4.766  10.292  14.299
94042W        W61110  36.868  43.457   2.853
94043W        W61111  39.494  36.980  11.524
94044W        W61112  30.044  31.575  11.526
94045W        W61113  41.028  11.369  11.535
94046W        W61114  30.094  30.603   1.889
94047W        W61115  40.501  22.657   0.791
94048W        W61116   9.804   2.809  13.823
94049W        W61117  39.865  37.011   2.412
94050W        W61118  41.856   0.393  14.979
94051W        W61119  42.838  15.085  10.533
94052W        W61120  34.086   3.227   1.236
94053W        W61121  15.231   7.346   0.959
94054W        W61122  35.951  39.426  13.398
94055W        W61123  24.022  22.721  11.468
94056W        W61124  15.638  17.606  13.485
94057W        W61125  34.954   7.289   2.781
94058W        W61126   1.821  17.668   1.434
94059W        W61127   1.814  23.124   3.797
94060W        W61128  25.984  17.125   2.702
94061W        W61129  25.024   8.396   2.263
94062W        W61130  41.788   9.732  14.471
94063W        W61131  38.977  16.645  13.501
94064W        W61132  11.364  43.310   2.232
94065W        W61133  26.017  20.644   3.383
94066W        W61134   6.861  41.489   3.278
94067W        W61135  21.107  23.591  11.999
94068W        W61136  23.241  35.016  11.385
94069W        W61137   5.744  12.328  10.957
94070W        W61138  41.820  29.091   9.943
94071W        W61139  28.067  21.758  13.544
94072W        W61140  41.837  15.726   4.161
94073W        W61141  44.287  25.136   3.642
94074W        W61142  19.273  37.000   1.903
94075W        W61143  29.466  25.197  14.015
94076W        W61144  15.180  32.121  12.862
94077W        W61145   2.253  26.648   0.761
94078W        W61146  37.556  31.974  10.464
94079W        W61147  44.265  44.474  12.501
94080W        W61148   5.203  36.883   2.880
94081W        W61149  11.751  36.350  13.062
94082W        W61150  15.812  24.993  12.537
94083W        W61151  40.048  26.698   0.483
94084W        W61152  18.777   6.211   1.250
94085W        W61153  15.706  19.213  14.441
94086W        W61154  32.025  11.703   0.394
94087W        W61155  34.444   8.305   2.716
94088W        W61156  25.087   8.310  11.490
94089W        W61157  35.898   0.431   3.250
94090W        W61158  11.697  32.411   3.211
94091W        W61159   2.919  40.306   1.371
94092W        W61160   0.361  35.553  11.427
94093W        W61161   3.308  40.986   3.818
94094W        W61162  27.135  25.962  11.052
94095W        W61163  36.386  39.925  10.934
94096W        W61164  38.048  37.409   2.341
94097W        W61165   4.449  25.704  12.935
94098W        W61166  34.071  35.944   4.771
94099W        W61167  38.025   6.920  10.449
94100W        W61168  41.803  41.324  14.310
94101W        W61169  15.148  37.029  12.538
94102W        W61170   7.344   8.692   4.333
94103W        W61171   3.904  26.490   3.635
94104W        W61172   3.902  38.565   1.432
94105W        W61173  41.534   1.951  14.296
94106W        W61174  23.119  10.384   0.480
94107W        W61175  12.736   5.839  14.295
94108W        W61176  34.426  39.549   2.719
94109W        W61177   1.457  34.472  12.979
94110W        W61178  19.280  29.594   3.212
94111W        W61179  39.397  41.876  10.613
94112W        W61180  38.486  16.254  13.932
94113W        W61181  12.643  26.687   3.678
94114W        W61182  37.385  14.619  12.481
94115W        W61183  24.193  33.549  10.905
94116W        W61184  11.760   7.727   1.333
94117W        W61185  20.743  29.529   2.768
94118W        W61186  22.221   8.866  13.513
94119W        W61187  39.470   6.346   1.242
94120W        W61188  21.735  33.068  14.284
94121W        W61189  19.629  23.215   2.869
94122W        W61190  36.955   7.249   0.435
94123W        W61191  38.331  20.747  10.912
94124W        W61192   8.168  11.269   3.300
94125W        W61193  23.082  21.042   0.873
94126W        W61194  30.068   5.299  11.445
94127W        W61195  29.552   6.310   3.350
94128W        W61196  26.102  12.730  11.551
94129W        W61197  40.035  44.285   4.605
94130W        W61198  12.286  17.157   2.324
94131W        W61199  23.567   6.920  12.362
94132W        W61200  16.725  17.635  11.428
94133W        W61201   6.733   9.887  10.964
94134W        W61202   0.286  37.575  13.007
94135W        W61203   3.778  23.670   3.212
94136W        W61204  27.588  41.529  10.422
94137W        W61205  24.047  14.272  13.415
94138W        W61206  15.732  14.730   2.742
94139W        W61207  14.181  41.903  12.565
94140W        W61208  23.995   3.260   1.261
94141W        W61209   7.825   6.809  14.516
94142W        W61210   6.391  19.769   9.497
94143W        W61211  13.109   1.330   3.759
94144W        W61212  26.001  22.560   1.802
94145W        W61213  28.479  39.476  12.918
94146W        W61214  18.185  10.286   4.722
94147W        W61215  22.560  30.587   4.823
94148W        W61216  12.645   4.230  13.045
94149W        W61217  18.613  41.940  13.826
94150W        W61218  32.899  40.018   3.810
94151W        W61219   8.208  25.683  13.000
94152W        W61220  37.424  38.929  12.876
94153W        W61221   5.888  16.295  12.564
94154W        W61222  40.492  12.653  10.482
94155W        W61223  43.919   5.804  12.947
94156W        W61224   1.850  20.160  13.417
94157W        W61225  10.754  35.107   0.871
94158W        W61226  28.609   7.716   0.280
94159W        W61227  39.430  42.975   2.844
94160W        W61228  33.404  16.215  11.468
94161W        W61229  27.118  36.052   4.796
94162W        W61230   9.205   7.832  13.998
94163W        W61231  32.006   1.767   4.163
94164W        W61232  20.679   9.193   3.368
94165W        W61233  31.585  13.106   1.780
94166W        W61234  31.624  10.280  12.854
94167W        W61235  36.497  22.608   3.337
94168W        W61236  19.243  10.373  12.933
94169W        W61237  24.629  24.633   1.448
94170W        W61238   6.216  43.901   3.818
94171W        W61239   8.391  19.572  14.001
94172W        W61240  38.016  34.073  10.954
94173W        W61241  32.510  15.616  12.915
94174W        W61242  32.401  32.620   3.158
94175W        W61243  29.608  35.418   1.934
94176W        W61244  31.644  36.501  13.906
94177W        W61245   4.730  25.544   0.382
94178W        W61246  39.817  42.281   3.837
94179W        W61247  44.330  16.248   4.819
94180W        W61248   1.406  41.930   0.469
94181W        W61249  31.101  32.418   1.704
94182W        W61250  37.393  27.067   1.780
94183W        W61251   3.868  22.685   2.251
94184W        W61252  26.488  43.793  12.488
94185W        W61253  23.075   8.345  13.498
94186W        W61254  22.190  32.938   0.453
94187W        W61255  24.563  36.922  11.987
94188W        W61256  41.344   8.805  11.477
94189W        W61257  38.349  14.307  10.417
94190W        W61258  11.783  30.509  13.059
94191W        W61259  36.497  41.926  11.073
94192W        W61260  28.957  33.916   0.270
94193W        W61261  34.411  34.019   1.761
94194W        W61262   5.211  18.684  11.493
94195W        W61263  13.191  31.604   1.928
94196W        W61264  18.591  19.611  14.906
94197W        W61265  10.340  36.953  12.355
94198W        W61266  14.661  12.820  14.335
94199W        W61267  22.651  40.349   3.720
94200W        W61268  26.006   4.854  10.907
94201W        W61269  22.606   3.215   4.240
94202W        W61270  39.812  21.049   1.212
94203W        W61271  36.524  34.954  13.838
94204W        W61272   0.276  11.742   2.262
94205W        W61273  11.721  22.509  14.397
94206W        W61274  31.424  28.481  12.978
94207W        W61275  40.439   0.832   3.744
94208W        W61276   6.310  11.747  10.923
94209W        W61277  35.476  17.795  14.887
94210W        W61278  44.398  28.642  14.796
94211W        W61279  16.082  30.973   2.178
94212W        W61280  13.662  16.773  13.340
94213W        W61281  26.652  40.418  13.874
94214W        W61282  12.805  43.457   1.444
94215W        W61283  22.675  34.393   1.409
94216W        W61284   8.692  30.042   4.794
94217W        W61285  28.990  36.939   2.238
94218W        W61286  35.893  34.980  10.541
94219W        W61287  41.403  17.077  10.897
94220W        W61288  41.330   4.853   3.658
94221W        W61289  37.378   4.428   0.274
94222W        W61290  36.393   7.668  14.888
94223W        W61291  15.668   2.916  11.009
94224W        W61292   3.287  32.119   1.870
94225W        W61293  32.995   9.695   2.329
94226W        W61294   7.865   1.944   0.320
94227W        W61295  16.214  18.092  10.977
94228W        W61296   2.458  13.261   3.791
94229W        W61297  16.211   9.362   9.671
94230W        W61298  20.711  37.566  10.437
94231W        W61299  18.547  25.062   1.400
94232W        W61300  26.555  36.538   4.207
94233W        W61301  25.120  25.605  11.580
94234W        W61302  33.465  12.173   4.236
94235W        W61303  27.468  43.811   2.824
94236W        W61304  34.530   7.830  10.520
94237W        W61305  33.523   4.835   2.297
94238W        W61306  40.450  40.813  12.530
94239W        W61307  37.940  14.315  14.994
94240W        W61308  13.834  40.001  12.918
94241W        W61309  11.692  29.521   0.739
94242W        W61310  41.485   0.462   3.692
94243W        W61311  37.051  35.542   3.224
94244W        W61312   0.956  38.532   2.790
94245W        W61313  14.099  31.131  13.932
94246W        W61314   8.394   2.371  11.609
94247W        W61315  17.716  44.837  11.043
94248W        W61316  33.620   4.851   3.325
94249W        W61317   4.714   2.228   3.707
94250W        W61318  15.593  33.067   0.755
94251W        W61319  33.442   6.783   4.716
94252W        W61320  17.197  42.957   1.738
94253W        W61321  11.666  33.428  14.481
94254W        W61322  22.705   4.232   2.793
94255W        W61323  13.802  29.082  14.469
94256W        W61324  36.536  23.140   4.680
94257W        W61325  24.548   0.305  12.986
94258W        W61326  17.634  28.142  14.434
94259W        W61327  24.990  10.846  10.966
94260W        W61328  33.125   1.286  13.511
94261W        W61329   7.734   9.305  13.838
94262W        W61330  14.623   1.827   4.327
94263W        W61331  26.995   1.325  13.826
94264W        W61332  28.537  30.993   4.127
94265W        W61333  44.878  32.403  10.964
94266W        W61334  36.462  27.624  10.915
94267W        W61335   5.778  16.127   9.991
94268W        W61336  33.554  41.429  13.810
94269W        W61337  20.692   8.669   1.292
94270W        W61338  44.275  35.522   1.935
94271W        W61339  30.915  26.167   1.723
94272W        W61340   5.735  27.045   0.426
94273W        W61341  16.244  26.180   3.374
94274W        W61342  37.410  15.105  11.436
94275W        W61343  23.040  42.485   3.659
94276W        W61344  30.017  12.838   1.260
94277W        W61345  26.666  31.986   2.731
94278W        W61346  40.904  31.438   2.888
94279W        W61347  14.174  34.864  14.378
94280W        W61348   7.782  39.039  10.487
94281W        W61349  19.165   9.824  13.829
94282W        W61350   1.363  10.371  10.013
94283W        W61351  23.670  41.813   1.789
94284W        W61352  39.381  10.198  13.999
94285W        W61353  38.357  15.162  10.478
94286W        W61354  24.722  33.115  14.858
94287W        W61355  12.750   8.683   1.280
94288W        W61356  12.799  41.919  11.961
94289W        W61357   3.748  40.026  14.000
94290W        W61358  17.188  17.248  11.503
94291W        W61359  43.915   6.381  11.456
94292W        W61360  29.561   6.205   2.744
94293W        W61361  30.600   2.793  14.432
94294W        W61362  43.368  42.024  11.124
94295W        W61363  28.021  23.126   1.305
94296W        W61364   0.356  38.354  14.321
94297W        W61365  32.524   3.711   2.248
94298W        W61366  36.563  41.937  13.986
94299W        W61367  30.155  11.131  12.839
94300W        W61368  35.492   6.747   1.839
94301W        W61369   7.171  34.375  11.409
94302W        W61370  19.212  44.908   1.803
94303W        W61371  21.151  37.357   2.328
94304W        W61372  29.614  13.211  13.895
94305W        W61373  27.961  31.112  14.878
94306W        W61374  15.683  33.075   4.653
94307W        W61375  13.190   2.878  14.850
94308W        W61376  28.085  21.059   3.739
94309W        W61377  15.769  21.624   3.773
94310W        W61378  26.699  29.523   1.701
94311W        W61379  22.038  34.535  12.490
94312W        W61380  29.424  24.227   1.231
94313W        W61381   5.252  40.457   1.777
94314W        W61382   4.420   4.886  13.524
94315W        W61383  30.457   5.257  10.604
94316W        W61384  35.057  21.728  14.899
94317W        W61385   5.909  23.563   3.785
94318W        W61386  24.124   0.837   0.745
94319W        W61387  10.218  33.458  13.859
94320W        W61388  24.501  24.068   0.858
94321W        W61389  17.105  20.163   1.915
94322W        W61390  38.525  14.130   1.394
94323W        W61391  13.299  13.298  13.912
94324W        W61392  13.119  16.111   0.375
94325W        W61393  36.386  43.309  13.482
94326W        W61394  21.261  30.976   2.343
94327W        W61395  10.672  15.686  14.925
94328W        W61396  16.166   9.675   3.272
94329W        W61397  29.608   4.741   9.955
94330W        W61398  34.484  18.771  14.963
94331W        W61399  18.170  41.027  13.028
94332W        W61400  26.185   2.795   2.234
94333W        W61401  41.975  36.456   3.251
94334W        W61402  38.386  27.085   3.635
94335W        W61403  38.921  16.701   1.388
94336W        W61404  31.421  12.301   3.638
94337W        W61405  44.283  27.491  14.872
94338W        W61406  38.436  26.031   1.712
94339W        W61407   7.359  37.858  11.388
94340W        W61408  14.210  39.906  11.940
94341W        W61409  12.646  40.845  14.283
94342W        W61410  23.081  19.261  14.498
94343W        W61411   7.746  14.635   1.899
94344W        W61412  17.183  10.383   0.303
94345W        W61413   9.869  33.574  13.334
94346W        W61414  41.809  19.058   3.280
94347W        W61415  16.625  25.174  14.834
94348W        W61416  18.070  38.955  11.534
94349W        W61417  10.813   1.915   3.861
94350W        W61418  39.884  27.645  14.467
94351W        W61419  19.150  15.125  12.956
94352W        W61420  43.771  19.703   4.640
94353W        W61421   0.268  32.433  12.823
94354W        W61422   0.399  23.623  10.491
94355W        W61423  34.517   0.758  11.937
94356W        W61424  16.213  18.681  11.926
94357W        W61425  32.066  25.714   1.777
94358W        W61426  41.846  12.756  12.090
94359W        W61427  11.357  44.290  13.399
94360W        W61428   1.363   1.849   0.326
94361W        W61429   2.858  32.420   3.371
94362W        W61430  38.327  11.174  10.557
94363W        W61431  33.999   0.480  13.817
94364W        W61432  34.522  35.090  14.326
94365W        W61433   8.295  12.250  12.497
94366W        W61434  23.230  29.985  14.286
94367W        W61435  27.606   2.378   1.843
94368W        W61436  27.025  43.921  14.439
94369W        W61437  40.345  44.793   4.735
94370W        W61438  15.782  37.561   5.175
94371W        W61439  31.412  23.078  13.514
94372W        W61440  19.578   2.806   1.907
94373W        W61441  27.005  22.030  12.860
94374W        W61442   7.710  33.496  10.966
94375W        W61443  11.363  22.076   3.208
94376W        W61444  31.992   4.356   0.356
94377W        W61445  35.872  17.707  14.505
94378W        W61446  29.956  38.341  12.885
94379W        W61447  34.983  18.743   0.809
94380W        W61448  27.172   6.249   1.858
94381W        W61449  40.970  23.199  13.343
94382W        W61450  17.617  33.580  10.590
94383W        W61451  27.177  33.043  13.494
94384W        W61452   1.778  11.131  13.425
94385W        W61453  33.402  25.116   3.151
94386W        W61454  38.546  27.476   4.663
94387W        W61455   0.919  10.778  12.904
94388W        W61456  38.517  33.993  11.996
94389W        W61457  34.894  23.704  14.846
94390W        W61458   6.715  12.331   1.851
94391W        W61459   2.449  24.681   1.308
94392W        W61460  35.516  14.672  10.637
94393W        W61461   9.253  43.338  13.864
94394W        W61462   0.342  10.271   2.707
94395W        W61463  13.719  24.492  11.561
94396W        W61464  12.770  25.050  13.053
94397W        W61465  18.131  21.653   1.932
94398W        W61466  16.201  14.120   0.838
94399W        W61467  13.612  22.230   2.704
94400W        W61468  31.126  24.596   4.302
94401W        W61469   1.746  15.589   3.739
94402W        W61470  27.116  30.580   1.254
94403W        W61471  37.054  24.197  11.952
94404W        W61472  24.704  17.151  12.489
94405W        W61473  33.552  41.029  12.028
94406W        W61474  24.578  23.029  13.860
94407W        W61475  21.075  20.157   3.726
94408W        W61476   3.867  25.091  10.487
94409W        W61477  32.525  20.553   1.312
94410W        W61478  43.293  31.524   3.171
94411W        W61479   4.280  18.235   0.827
94412W        W61480  33.954  19.237  12.342
94413W        W61481   2.769   3.901  12.491
94414W        W61482  41.853  10.295   2.875
94415W        W61483  32.539  44.831  13.357
94416W        W61484  37.858  15.819   4.666
94417W        W61485  19.672  25.217   2.414
94418W        W61486  13.187  35.541   3.643
94419W        W61487  14.141   9.857   4.201
94420W        W61488  11.640  34.591   2.683
94421W        W61489  30.626  14.762  14.306
94422W        W61490   7.343  20.603   0.298
94423W        W61491  44.994  11.297   0.322
94424W        W61492  42.519  37.443  10.480
94425W        W61493  19.554  12.829   4.140
94426W        W61494  23.657   2.260  10.939
94427W        W61495  12.738  44.843   3.814
94428W        W61496  42.890   9.676  13.517
94429W        W61497  17.226   4.412   4.157
94430W        W61498  42.374  10.214  12.382
94431W        W61499   0.965   2.943   3.381
94432W        W61500  32.591  19.130  11.465
94433W        W61501  11.255   7.280  11.520
94434W        W61502  35.916  44.789  12.031
94435W        W61503  42.014  39.998   3.147
94436W        W61504  17.116  15.245  14.880
94437W        W61505  24.649  27.956  12.365
94438W        W61506  34.048  21.219   1.844
94439W        W61507  37.355   9.186  12.084
94440W        W61508  30.154  32.457  14.775
94441W        W61509   4.450  16.284   1.253
94442W        W61510  31.577  23.132   4.692
94443W        W61511   5.738  15.697  14.001
94444W        W61512   6.405   0.780  10.437
94445W        W61513  34.985  30.609  12.344
94446W        W61514  24.200  33.597  10.431
94447W        W61515   8.286  30.980   1.405
94448W        W61516  18.076  10.674  13.937
94449W        W61517  36.935  17.188  11.862
94450W        W61518  25.697  19.555   1.324
94451W        W61519   1.446  29.137   4.294
94452W        W61520  23.526  36.426  14.962
94453W        W61521  26.687  19.728  10.933
94454W        W61522   6.428  28.988  14.305
94455W        W61523  31.609   3.413   2.275
94456W        W61524  41.472  10.761  14.886
94457W        W61525  39.430   6.188   0.923
94458W        W61526   6.849  25.151  14.412
94459W        W61527  30.555  43.413   1.216
94460W        W61528  44.502   5.724   4.167
94461W        W61529  25.636  30.110  12.399
94462W        W61530  10.735   9.832  14.359
94463W        W61531  14.286   9.381   2.814
94464W        W61532  39.374  31.897  13.883
94465W        W61533   3.230  23.026   4.228
94466W        W61534  25.074   2.955   3.211
94467W        W61535   0.938  28.565  11.071
94468W        W61536  27.945  33.932   1.831
94469W        W61537  25.141   3.421  14.949
94470W        W61538  39.050  38.490   0.730
94471W        W61539  39.507  18.689   4.127
94472W        W61540   5.922  36.434  11.545
94473W        W61541  44.285   4.916   0.932
94474W        W61542   9.390  26.010  13.351
94475W        W61543  12.327  33.095   1.892
94476W        W61544  24.712   7.704   0.900
94477W        W61545  38.999  41.381  13.996
94478W        W61546   2.859  18.078  11.517
94479W        W61547  21.655  26.036  10.469
94480W        W61548  28.635   4.394   4.318
94481W        W61549  31.490  36.035   3.383
94482W        W61550   6.343  44.876   0.307
94483W        W61551  12.336  20.146   2.211
94484W        W61552  36.432  40.011   4.280
94485W        W61553   5.326   8.736  11.399
94486W        W61554   9.661  27.685   3.372
94487W        W61555  12.210  42.854   4.318
94488W        W61556  33.957  28.003   0.897
94489W        W61557  37.356  16.757  13.462
94490W        W61558   7.900  29.006   2.206
94491W        W61559  26.020  19.758  14.312
94492W        W61560   4.934  26.638   2.288
94493W        W61561   7.673  11.799  11.491
94494W        W61562   2.362   2.401   0.861
94495W        W61563  26.996  10.229   4.706
94496W        W61564  12.814  36.521   2.399
94497W        W61565  33.974  41.867   3.261
94498W        W61566  16.171  16.604   2.286
94499W        W61567  26.619  35.918  10.618
94500W        W61568   7.402   6.234   3.342
94501W        W61569  43.774  32.599  13.340
94502W        W61570  28.527  14.307  13.537
94503W        W61571  19.664   8.759  12.974
94504W        W61572   1.279  35.533   0.926
94505W        W61573  15.744   5.300   2.750
94506W        W61574   0.745  37.015   1.694
94507W        W61575   2.413  25.670  13.978
94508W        W61576  42.505   9.288  12.359
94509W        W61577  29.142  41.318   4.763
94510W        W61578   1.824  21.652   3.299
94511W        W61579   2.891  34.880  11.874
94512W        W61580  28.952   8.769   4.735
94513W        W61581  10.142  18.128  12.372
94514W        W61582  32.934   1.778   2.777
94515W        W61583  24.621  17.235   2.704
94516W        W61584   2.764  40.421   3.385
94517W        W61585   2.376  31.985   3.676
94518W        W61586  34.928   1.251   0.294
94519W        W61587  40.504  26.080   4.637
94520W        W61588   4.225   9.652  11.868
94521W        W61589  44.803  33.018  14.491
94522W        W61590  32.061  42.287   3.271
94523W        W61591  20.268  42.303  12.836
94524W        W61592  42.032  17.789   0.843
94525W        W61593  22.068  29.119  13.532
94526W        W61594  44.822  17.293   2.407
94527W        W61595  26.684  30.540   4.783
94528W        W61596  40.978  16.211   0.394
94529W        W61597  29.932  18.060   2.878
94530W        W61598  33.483  18.726  14.946
94531W        W61599  39.547  27.455  10.619
94532W        W61600  34.916  23.510  13.056
94533W        W61601  11.315  43.781  14.786
94534W        W61602  35.018   2.281  10.997
94535W        W61603  31.143  13.658  11.933
94536W        W61604  35.530  21.641  11.128
94537W        W61605  36.572  27.514   1.403
94538W        W61606  44.309  33.087  11.938
94539W        W61607  28.037  40.523  11.056
94540W        W61608   6.384   4.366   3.204
94541W        W61609  32.972  16.253  13.915
94542W        W61610  35.917  11.661   2.241
94543W        W61611  40.386  29.004  14.346
94544W        W61612  40.494  41.788  14.810
94545W        W61613  22.063  22.589  12.034
94546W        W61614  10.168  30.499  14.969
94547W        W61615  22.581   4.260  11.508
94548W        W61616  25.201  25.683   1.892
94549W        W61617  11.209  11.779  12.881
94550W        W61618  38.035   0.981   1.842
94551W        W61619  22.569  25.639  13.406
94552W        W61620   2.323   5.280   0.736
94553W        W61621   6.346   2.750   4.824
94554W        W61622   2.425  18.641   1.295
94555W        W61623  23.186  34.926   2.276
94556W        W61624  34.938  32.043   2.334
94557W        W61625  36.944   7.894  10.546
94558W        W61626  31.998  43.999   3.263
94559W        W61627  34.874   7.208  11.061
94560W        W61628  15.770  12.623  10.606
94561W        W61629   5.901  44.397   1.409
94562W        W61630  12.131   9.216   1.865
94563W        W61631  29.610  36.385   5.279
94564W        W61632   8.834  40.448   1.772
94565W        W61633  31.627  43.933  10.443
94566W        W61634  22.529   1.420   0.865
94567W        W61635  26.595  32.596   3.866
94568W        W61636  17.284  13.197   3.820
94569W        W61637  15.133  12.845   3.296
94570W        W61638  42.968   9.191   3.733
94571W        W61639  38.508   5.859   1.357
94572W        W61640  22.116  28.477  10.476
94573W        W61641  28.483  24.608   2.865
94574W        W61642  34.945   7.766   2.319
94575W        W61643   1.786  14.144  10.966
94576W        W61644   3.364  15.658  11.537
94577W        W61645  11.250  44.263  12.970
94578W        W61646  14.606   3.813  12.964
94579W        W61647  15.254  21.159   1.388
94580W        W61648   6.874  41.961  13.870
94581W        W61649  37.564  16.795   3.756
94582W        W61650  10.304  10.844   1.271
94583W        W61651  11.183  27.597  10.523
94584W        W61652  29.115  32.094   3.274
94585W        W61653  27.458   5.698   2.197
94586W        W61654  13.677   2.727   0.756
94587W        W61655   1.796  31.419   3.778
94588W        W61656  37.460  30.642   2.379
94589W        W61657  44.924  18.703   1.362
94590W        W61658   7.315   4.315   2.837
94591W        W61659  42.345  13.653   3.852
94592W        W61660  39.015  40.917   4.638
94593W        W61661   5.689  10.876   1.318
94594W        W61662  44.345  11.769   5.173
94595W        W61663  44.768   6.386   0.435
94596W        W61664  19.236  44.321  13.028
94597W        W61665  37.549  15.600   0.747
94598W        W61666  14.341  34.104  12.060
94599W        W61667   1.947  44.300   2.737
94600W        W61668   5.301   4.351  13.060
94601W        W61669  10.347  37.077   4.784
94602W        W61670  10.734  37.453   3.831
94603W        W61671  30.019  38.482   3.234
94604W        W61672  36.470   9.175  13.938
94605W        W61673  34.574  42.459  14.398
94606W        W61674  44.442  26.093   0.324
94607W        W61675  16.726  26.505  11.871
94608W        W61676  10.368  28.152   2.215
94609W        W61677  23.236  13.339   3.349
94610W        W61678  28.074  26.603  13.892
94611W        W61679   7.759   7.701  14.959
94612W        W61680  21.666  41.350   5.699
94613W        W61681   8.688  44.805   4.615
94614W        W61682  38.494  12.292  11.585
94615W        W61683  38.409   2.863   3.258
94616W        W61684  17.250  33.491   3.831
94617W        W61685  38.349  19.230   4.806
94618W        W61686  19.757   9.713   4.669
94619W        W61687  34.394   8.809   4.288
94620W        W61688  42.415  22.576  13.920
94621W        W61689  38.881  32.941  13.027
94622W        W61690  26.175  27.606   2.664
94623W        W61691   9.331  37.513   2.402
94624W        W61692  19.225  22.508  14.916
94625W        W61693  19.534  37.359   3.780
94626W        W61694  38.367  44.888  11.015
94627W        W61695  10.808   1.394  11.056
94628W        W61696  40.437  30.985   1.303
94629W        W61697  36.850  11.144   0.930
94630W        W61698  25.988   3.353  12.389
94631W        W61699  22.054   0.895   0.926
94632W        W61700  16.780  31.599  10.434
94633W        W61701  29.556  32.043  13.464
94634W        W61702   3.216  10.877  13.957
94635W        W61703   4.252  26.656  13.838
94636W        W61704  16.661  17.241   2.294
94637W        W61705  33.497   2.374   3.362
94638W        W61706   7.359  33.023  14.369
94639W        W61707  39.478  36.355  10.945
94640W        W61708  33.529  14.641   2.707
94641W        W61709  27.612  40.449  10.564
94642W        W61710  25.697  32.480   3.269
94643W        W61711  39.486  23.530   0.778
94644W        W61712  26.678   9.797   9.943
94645W        W61713   6.907  13.808  11.911
94646W        W61714  42.825  34.603   4.147
94647W        W61715  35.071  30.446   2.793
94648W        W61716  35.950  42.022   4.736
94649W        W61717   4.262  23.059  10.591
94650W        W61718  14.135  42.820  14.443
94651W        W61719  29.510  39.832  12.568
94652W        W61720   2.770  30.556   2.370
94653W        W61721  27.556  43.764  10.911
94654W        W61722  44.351  14.289   3.220
94655W        W61723   0.917   0.299  13.822
94656W        W61724  33.115  35.526   4.828
94657W        W61725  32.570   0.922   4.661
94658W        W61726   7.239  42.892   2.343
94659W        W61727  31.983   3.813   2.283
94660W        W61728  16.313  29.920   5.230
94661W        W61729  22.587  19.075  10.895
94662W        W61730  28.483  28.025   4.664
94663W        W61731  15.614  30.129   0.906
94664W        W61732   3.907  35.445  13.438
94665W        W61733  29.021   2.299   4.209
94666W        W61734   3.794  38.049  13.477
94667W        W61735  14.766  41.950   2.199
94668W        W61736  27.463  20.646  10.985
94669W        W61737  23.534  26.063  14.882
94670W        W61738  14.764  35.530  12.460
94671W        W61739  34.468   1.450   0.929
94672W        W61740   3.930  43.284  14.832
94673W        W61741  11.630  37.454   3.869
94674W        W61742  26.547  12.682  10.149
94675W        W61743  44.299  35.956  10.556
94676W        W61744   6.790  37.378  12.430
94677W        W61745  42.897  40.004  14.297
94678W        W61746  32.524   9.153   2.199
94679W        W61747  32.077   1.483   2.823
94680W        W61748  36.060  13.215   5.285
94681W        W61749  31.522  27.636   1.907
94682W        W61750   0.788  22.683   0.845
94683W        W61751  13.669  24.515   0.729
94684W        W61752  42.474  10.190  11.460
94685W        W61753  32.595  25.094  13.505
94686W        W61754  36.559  35.878  13.472
94687W        W61755  40.417   9.278  13.931
94688W        W61756  30.003  23.647   0.967
94689W        W61757  12.209   6.313   0.300
94690W        W61758   2.898  25.628   2.278
94691W        W61759  34.551  39.353  10.436
94692W        W61760  43.345  44.285  13.940
94693W        W61761  23.509  22.018  11.517
94694W        W61762  37.884  24.109   3.841
94695W        W61763  37.881  31.032   1.277
94696W        W61764  29.921  11.136  14.470
94697W        W61765  17.073  16.600   1.407
94698W        W61766  35.002  34.083   4.689
94699W        W61767  24.645   6.271  12.088
94700W        W61768  28.532  30.598   3.332
94701W        W61769  42.300  32.061   2.386
94702W        W61770  21.591   1.836   0.477
94703W        W61771   9.846   9.291   2.760
94704W        W61772  29.446  20.125   1.857
94705W        W61773  12.336   6.393  14.466
94706W        W61774  17.127   5.246   0.311
94707W        W61775   7.312  38.916   0.280
94708W        W61776  30.946  18.781  11.049
94709W        W61777  41.999   0.385  12.937
94710W        W61778  16.697  34.913  12.857
94711W        W61779  34.471  29.538   2.379
94712W        W61780  37.336  11.672  13.923
94713W        W61781  40.874  15.802   4.726
94714W        W61782   6.385   7.238   2.272
94715W        W61783  37.428  36.034  12.486
94716W        W61784  43.866  32.932   3.820
94717W        W61785  17.242  44.932   1.893
94718W        W61786  28.097   1.844  14.504
94719W        W61787  42.351  23.672  14.803
94720W        W61788  35.494  37.423  10.593
94721W        W61789   5.327  38.912  14.813
94722W        W61790   9.694  26.682  14.963
94723W        W61791   7.755  39.961  13.546
94724W        W61792  20.079  20.685  13.937
94725W        W61793  33.922  36.489   4.196
94726W        W61794  29.515  12.144  11.499
94727W        W61795  44.466  36.468  14.468
94728W        W61796  38.936  42.851  12.042
94729W        W61797   9.157  18.558   1.363
94730W        W61798  41.401  42.481  11.377
94731W        W61799   4.710   0.471   4.329
94732W        W61800   3.283   3.284   4.619
94733W        W61801  25.104   9.730  12.878
94734W        W61802   7.776  38.528   0.411
94735W        W61803  34.080   6.896  13.416
94736W        W61804  31.611  30.048   3.757
94737W        W61805  15.126  19.169  13.012
94738W        W61806  11.349  44.469  10.972
94739W        W61807   7.731   0.396   1.880
94740W        W61808  14.708  23.150  11.532
94741W        W61809  35.391  20.740  11.918
94742W        W61810  20.034  10.692  10.515
94743W        W61811  23.189  23.500   2.390
94744W        W61812  44.838  35.995   3.745
94745W        W61813   1.845  29.492   5.168
94746W        W61814  25.031  43.402   0.821
94747W        W61815  34.555   2.870  12.021
94748W        W61816  27.558   1.899  13.310
94749W        W61817  30.624  16.804  13.466
94750W        W61818  26.974  22.210  14.012
94751W        W61819  26.079  16.573   4.262
94752W        W61820  44.768  25.169  12.826
94753W        W61821  34.465  32.101  14.992
94754W        W61822  29.982  27.528   2.731
94755W        W61823  22.145   1.927  10.404
94756W        W61824  31.014  30.538   2.792
94757W        W61825  42.291  43.276   1.287
94758W        W61826   6.283  44.387   0.967
94759W        W61827   0.881  42.780  12.974
94760W        W61828   4.723   4.839   3.736
94761W        W61829  32.900   6.753  13.833
94762W        W61830   5.333  34.916  13.919
94763W        W61831  29.488  36.547  14.396
94764W        W61832  13.308  18.571   0.401
94765W        W61833  21.112  23.679  14.811
94766W        W61834  35.389  34.013   0.260
94767W        W61835  43.389  32.005  10.049
94768W        W61836  20.060  30.022   0.783
94769W        W61837  28.000  20.208   2.189
94770W        W61838  24.653  35.945  12.966
94771W        W61839  29.117  17.561   3.253
94772W        W61840  18.281  38.341  11.517
94773W        W61841  32.903  44.970   3.653
94774W        W61842  28.156  27.063  11.125
94775W        W61843  24.615  29.033  14.928
94776W        W61844   4.936  29.002  13.852
94777W        W61845  44.370  13.332  11.956
94778W        W61846  13.716  29.438  14.837
94779W        W61847  37.466  17.191   5.157
94780W        W61848  34.577   2.333  11.011
94781W        W61849   6.847  18.579  11.932
94782W        W61850  30.094   2.403  10.895
94783W        W61851  41.024  22.712  11.941
94784W        W61852   2.455   7.668   3.792
94785W        W61853  31.990  36.096   4.319
94786W        W61854  26.612  39.516   1.764
94787W        W61855  44.837  20.648  10.533
94788W        W61856  29.070  27.448  11.883
94789W        W61857  38.498  43.929  13.029
94790W        W61858  24.985  28.040   0.777
94791W        W61859  12.182  42.996  13.371
94792W        W61860  11.293  12.171  13.407
94793W        W61861  44.830   4.918   0.457
94794W        W61862  24.991  27.638   3.292
94795W        W61863  10.741   3.241   4.231
94796W        W61864  24.558  24.507   4.642
94797W        W61865   2.290   1.834   1.886
94798W        W61866  13.252   6.779  11.497
94799W        W61867  44.312  19.630  12.506
94800W        W61868  30.513  18.550   4.665
94801W        W61869  43.458  19.685   5.245
94802W        W61870  19.664  30.416   4.147
94803W        W61871  14.218  41.424  11.525
94804W        W61872  26.501   9.705   4.350
94805W        W61873  33.473   6.369   0.384
94806W        W61874  32.955   8.321   3.732
94807W        W61875  11.757  36.501   1.832
94808W        W61876  28.052  35.009  12.087
94809W        W61877  28.153  30.111   0.256
94810W        W61878   5.330  11.785   1.231
94811W        W61879   3.453  23.187   3.773
94812W        W61880  22.104   7.219  11.970
94813W        W61881  33.112  43.843   3.776
94814W        W61882  20.655   3.887  10.461
94815W        W61883  19.548  16.809   4.765
94816W        W61884   7.723  24.226  13.824
94817W        W61885  10.175  24.095  14.813
94818W        W61886  42.375  17.256   3.654
94819W        W61887   1.431  29.478   3.702
94820W        W61888  39.928   2.230   4.118
94821W        W61889  30.913  16.187   5.221
94822W        W61890  12.833  32.122  13.936
94823W        W61891   3.863   9.208  14.998
94824W        W61892   3.795  11.796  13.343
94825W        W61893  26.627  33.007  13.023
94826W        W61894   6.730  16.162   4.230
94827W        W61895  18.673  21.588  11.117
94828W        W61896  30.909  25.153   1.282
94829W        W61897  26.035  25.998   3.337
94830W        W61898  41.372  36.860   0.456
94831W        W61899  36.552  18.056   1.903
94832W        W61900  13.138  31.142  13.410
94833W        W61901  37.529  13.155   0.731
94834W        W61902  40.370  19.284   3.221
94835W        W61903  12.795  18.093   4.214
94836W        W61904  14.179  40.799   4.168
94837W        W61905  25.647  38.040  12.493
94838W        W61906  16.102  43.905   4.809
94839W        W61907  20.751   3.803   4.802
94840W        W61908  24.519  26.693   2.270
94841W        W61909   7.373  38.325   4.248
94842W        W61910  21.589   6.717  12.526
94843W        W61911   7.813   1.889  11.596
94844W        W61912   6.402  13.728   0.412
94845W        W61913   5.746  14.112   3.662
94846W        W61914  40.517  36.951  12.384
94847W        W61915  39.901  29.061   0.755
94848W        W61916  23.085  31.137  12.892
94849W        W61917  17.301  44.415   2.866
94850W        W61918  21.256  25.094  14.776
94851W        W61919  15.765  15.696  12.524
94852W        W61920  12.826  30.471   0.952
94853W        W61921   1.250  35.597   5.090
94854W        W61922  15.590  23.617  13.412
94855W        W61923  22.202  44.787   1.725
94856W        W61924  19.585  22.026  10.548
94857W        W61925  22.162  10.776   1.400
94858W        W61926   8.803  15.126  14.871
94859W        W61927  26.659  35.454   3.811
94860W        W61928  11.728  38.503  14.783
94861W        W61929  27.623  43.789   1.888
94862W        W61930  35.531   2.811   3.266
94863W        W61931  13.838  21.211  14.446
94864W        W61932  28.528   3.765   4.156
94865W        W61933  13.649  30.908  13.943
94866W        W61934  32.513  15.593  11.561
94867W        W61935  23.632  26.031   4.317
94868W        W61936  31.615  16.718   2.890
94869W        W61937   1.434  44.359  10.901
94870W        W61938  27.047  29.501   1.712
94871W        W61939  29.561  25.626  12.500
94872W        W61940  42.448  20.671   1.220
94873W        W61941  39.850   8.203  14.004
94874W        W61942  28.172  31.430  13.833
94875W        W61943  27.603   8.849  12.914
94876W        W61944   1.382  19.063  12.495
94877W        W61945  21.179  25.992  12.560
94878W        W61946  11.264  36.901   1.904
94879W        W61947  11.145   3.221  11.492
94880W        W61948  31.902   2.251   4.625
94881W        W61949  21.183   4.889   2.794
94882W        W61950   8.820  20.721   4.285
94883W        W61951   6.303  30.157   1.271
94884W        W61952  21.643  11.730  12.051
94885W        W61953  19.113  36.557  12.532
94886W        W61954  30.658  19.638  11.867
94887W        W61955  11.346  42.794   2.368
94888W        W61956  25.081  25.969   3.270
94889W        W61957  28.613  34.016  13.910
94890W        W61958   9.881  11.320   2.720
94891W        W61959  38.570  42.887   4.208
94892W        W61960   6.242  15.323  11.468
94893W        W61961  37.018  27.463   2.290
94894W        W61962  21.109  30.044  10.945
94895W        W61963  38.043   0.904  13.460
94896W        W61964  39.505  14.782   0.914
94897W        W61965   6.839  11.166   2.745
94898W        W61966  31.898  22.190  11.876
94899W        W61967  32.044  39.049  14.298
94900W        W61968  37.526   8.713   3.692
94901W        W61969  41.529  11.160  13.349
94902W        W61970  21.072   1.404   2.402
94903W        W61971  14.209  15.755  13.057
94904W        W61972  23.699   5.729  14.949
94905W        W61973  34.413  43.852   1.768
94906W        W61974  17.567  32.539   2.806
94907W        W61975  20.073   0.965  11.521
94908W        W61976  24.524  15.120  12.916
94909W        W61977   3.932  24.085  14.769
94910W        W61978  19.080  35.378  10.935
94911W        W61979  40.811  10.366   2.755
94912W        W61980  25.566   2.341  14.369
94913W        W61981   0.494   2.758   2.249
94914W        W61982   7.219  12.196  14.370
94915W        W61983  22.141  40.932   2.404
94916W        W61984  11.770  40.380   1.423
94917W        W61985   3.808  12.758  14.509
94918W        W61986  35.563  35.552  12.411
94919W        W61987  10.203  32.927  14.497
94920W        W61988  29.047  25.001  14.474
94921W        W61989  25.556  15.295   2.349
94922W        W61990  39.043  20.751   1.792
94923W        W61991  40.326  21.181   2.747
94924W        W61992  36.919  33.026   0.323
94925W        W61993  32.580  35.530  11.992
94926W        W61994  10.637   5.778  13.482
94927W        W61995  41.801  17.234  12.482
94928W        W61996  42.456  18.613   1.851
94929W        W61997  18.158   1.322  12.848
94930W        W61998   9.202  34.606   3.196
94931W        W61999  42.901  27.539   2.187
94932W        W62000  15.176   0.252   2.761
94933W        W62001  15.638  10.779  11.488
94934W        W62002  24.983  22.546  14.866
94935W        W62003  33.612   7.255   9.968
94936W        W62004  16.607  36.094  13.456
94937W        W62005   7.861  21.087  10.083
94938W        W62006   6.749  13.161  14.919
94939W        W62007  14.772  39.887   2.704
94940W        W62008  26.693   4.726   3.715
94941W        W62009  30.614  14.740  11.493
94942W        W62010  14.104   5.317  10.408
94943W        W62011  24.661  42.298  11.578
94944W        W62012  26.005  32.073   9.978
94945W        W62013   7.293  11.265   2.279
94946W        W62014   1.814   9.774  13.485
94947W        W62015  28.561  31.070  14.328
94948W        W62016   6.750  15.766   9.961
94949W        W62017  37.344  40.397  12.378
94950W        W62018  10.833  36.588  12.536
94951W        W62019  40.436  11.137   1.414
94952W        W62020  41.876  23.504  13.001
94953W        W62021  33.047  26.166  12.872
94954W        W62022  34.460   1.476  12.371
94955W        W62023   6.346   1.746  13.009
94956W        W62024   5.430  37.943   1.431
94957W        W62025  43.473  11.786  12.823
94958W        W62026  40.972  35.852  11.101
94959W        W62027  11.297   3.461   4.333
94960W        W62028  37.943   2.453  13.322
94961W        W62029  18.060   6.253   1.251
94962W        W62030  37.460  29.635   2.786
94963W        W62031   6.393   6.216  10.141
94964W        W62032  13.833  26.665  12.008
94965W        W62033  12.287  15.105   1.415
94966W        W62034  17.687  42.463   1.270
94967W        W62035  11.779  20.117  11.861
94968W        W62036  27.584  26.547   4.209
94969W        W62037  44.456  42.920   1.716
94970W        W62038  15.309  33.444  13.388
94971W        W62039   5.193  34.991  13.464
94972W        W62040  17.780  14.738  14.277
94973W        W62041  18.191  20.619  11.563
94974W        W62042  28.598  39.392   1.226
94975W        W62043  16.286  40.001   2.214
94976W        W62044  31.476  17.670   1.414
94977W        W62045   9.262  19.729   0.756
94978W        W62046  24.073  31.118   4.341
94979W        W62047  33.904  24.105  13.448
94980W        W62048   0.364  31.110  14.801
94981W        W62049  26.954  28.545   0.803
94982W        W62050  21.257   4.839  11.428
94983W        W62051  43.418  20.617   0.922
94984W        W62052  11.284  41.894   1.884
94985W        W62053   3.353  20.148  13.983
94986W        W62054   0.303   6.414   4.709
94987W        W62055  43.860  25.054   1.707
94988W        W62056  38.004  43.318   0.474
94989W        W62057  13.328  25.490  13.841
94990W        W62058  31.406  33.519  14.386
94991W        W62059   5.364  21.239   2.750
94992W        W62060  39.504  15.282   0.876
94993W        W62061   5.693  35.038   1.291
94994W        W62062   8.163  15.145  13.913
94995W        W62063   2.946   4.428   2.346
94996W        W62064  25.543  33.064  12.982
94997W        W62065  39.934  29.099  10.907
94998W        W62066  27.193  16.228   1.841
94999W        W62067  23.705  33.082   1.306
95000W        W62068  13.135  11.279   3.705
95001W        W62069   4.937  19.730   0.795
95002W        W62070   3.887   1.399   2.301
95003W        W62071  26.153  38.963   3.326
95004W        W62072  16.264  36.537  12.565
95005W        W62073  24.580  35.493  13.840
95006W        W62074   0.920  31.484  11.603
95007W        W62075  33.946   9.335  12.469
95008W        W62076  10.692  15.145  11.875
95009W        W62077  29.499  22.027   2.851
95010W        W62078  12.190  26.638   4.242
95011W        W62079  23.994  22.696   5.249
95012W        W62080  26.662  26.000  10.954
95013W        W62081  21.247  31.987  14.030
95014W        W62082  20.691  32.491  12.572
95015W        W62083  30.977   7.329  13.385
95016W        W62084  12.820  12.145  10.982
95017W        W62085  10.315   9.175  10.603
95018W        W62086  25.093  27.190   0.381
95019W        W62087   2.821  13.657  11.869
95020W        W62088   9.652  22.037  14.882
95021W        W62089  18.758  33.432  11.390
95022W        W62090  11.139  40.310  14.447
95023W        W62091  37.397   8.349  11.061
95024W        W62092  43.965   8.708   1.743
95025W        W62093  33.056  24.189  12.072
95026W        W62094  10.645  38.376   0.436
95027W        W62095  38.978  18.601   2.395
95028W        W62096   6.428  39.936   3.323
95029W        W62097  33.545   6.732  12.955
95030W        W62098   2.737  12.688   0.399
95031W        W62099  14.640  29.160  11.123
95032W        W62100  33.075   8.218   4.234
95033W        W62101  25.656  21.164  10.064
95034W        W62102  37.519   7.757  13.386
95035W        W62103  30.413  42.919   0.416
95036W        W62104  38.553  18.713  12.063
95037W        W62105  11.821   2.832  13.842
95038W        W62106   7.672  39.553  11.605
95039W        W62107  31.440   5.404  13.869
95040W        W62108  44.993   7.857   0.914
95041W        W62109  43.775  31.974   1.406
95042W        W62110  28.991  10.804  12.882
95043W        W62111  38.850  23.540  14.944
95044W        W62112  14.291  29.976   4.609
95045W        W62113  14.610  22.515  13.955
95046W        W62114  39.398  27.125  12.558
95047W        W62115   5.267  33.463   3.689
95048W        W62116   2.320  26.206   4.608
95049W        W62117  33.018  41.434  11.520
95050W        W62118  11.810  34.552  14.930
95051W        W62119  24.131  12.767  13.852
95052W        W62120  18.774   5.710  12.579
95053W        W62121  11.329  15.795  14.400
95054W        W62122  43.472  25.481  14.906
95055W        W62123  40.418   0.380  13.537
95056W        W62124  22.678  44.957  11.009
95057W        W62125  14.102  27.187  11.916
95058W        W62126  15.084  17.171  13.424
95059W        W62127   6.213  35.995   0.918
95060W        W62128  22.621   7.171  14.383
95061W        W62129  43.799  17.617  13.912
95062W        W62130  34.604  30.467   2.409
95063W        W62131   1.345  13.209  12.964
95064W        W62132  41.907  39.451  14.017
95065W        W62133   4.877  21.052   4.666
95066W        W62134  28.634  17.678   4.649
95067W        W62135  17.616   9.817  10.545
95068W        W62136  23.057  25.166   2.199
95069W        W62137  41.429  29.541   3.751
95070W        W62138  35.912  32.106   1.363
95071W        W62139  43.819  22.136  13.811
95072W        W62140  34.518  11.249   2.393
95073W        W62141  42.806  14.738  10.996
95074W        W62142  31.575  20.157  10.441
95075W        W62143   6.245   9.670   4.787
95076W        W62144  17.596  16.231   4.615
95077W        W62145  21.209  30.414   1.315
95078W        W62146   0.870  12.629   3.869
95079W        W62147  33.876  32.581   0.738
95080W        W62148  29.948  31.522   4.683
95081W        W62149  26.552  19.220  12.085
95082W        W62150  30.577  21.070   0.826
95083W        W62151   5.817  43.455   0.856
95084W        W62152  29.153   6.234   4.676
95085W        W62153  32.469   7.908   3.757
95086W        W62154   2.754  19.663  12.897
95087W        W62155  19.117  26.492  10.613
95088W        W62156  42.018  30.604  11.543
95089W        W62157   0.941  29.442  13.339
95090W        W62158   7.704  40.304   4.191
95091W        W62159  33.611  38.425   4.597
95092W        W62160  12.656  18.651  11.544
95093W        W62161  30.974  10.731   4.713
95094W        W62162  23.728  21.597   3.307
95095W        W62163  10.179  33.562  13.439
95096W        W62164  14.101  30.455  12.922
95097W        W62165  33.062  25.478   3.283
95098W        W62166  24.509  31.617  14.818
95099W        W62167  37.067  30.644  11.058
95100W        W62168  36.852  29.651  12.958
95101W        W62169  30.532  12.292  11.544
95102W        W62170  32.440  14.744  13.791
95103W        W62171  21.160   3.416   2.677
95104W        W62172  19.707  37.890  11.973
95105W        W62173  29.094  32.037  13.947
95106W        W62174  33.441  42.928  11.573
95107W        W62175  14.727  41.405  13.371
95108W        W62176  26.460  12.719   1.370
95109W        W62177  23.515  29.067  11.041
95110W        W62178  22.068  14.196   3.220
95111W        W62179  41.391  23.591  11.418
95112W        W62180  42.022  18.611   3.640
95113W        W62181  27.617  29.670  13.875
95114W        W62182  38.481   4.837  13.845
95115W        W62183  14.105  14.143   0.876
95116W        W62184  17.778  14.252   1.311
95117W        W62185  18.666  27.021  11.577
95118W        W62186  19.630  28.607  11.440
95119W        W62187   7.259   2.735  14.797
95120W        W62188  12.637  40.498   0.264
95121W        W62189  15.106   7.830   3.319
95122W        W62190  32.954  41.377   2.770
95123W        W62191  13.236  17.750   2.734
95124W        W62192   2.893   5.364  11.446
95125W        W62193  33.555   0.795  10.080
95126W        W62194  35.554   7.223   0.250
95127W        W62195   7.775  44.354  11.562
95128W        W62196   2.389   7.335   9.996
95129W        W62197  16.759  24.017   4.829
95130W        W62198  37.415  28.094  12.012
95131W        W62199  17.279  29.063   2.185
95132W        W62200  16.767  21.106  12.939
95133W        W62201   2.753   2.955  12.974
95134W        W62202  22.173  23.575   4.271
95135W        W62203   0.956  39.373   0.394
95136W        W62204  14.603  26.031  12.898
95137W        W62205  14.172   9.255  14.379
95138W        W62206  24.536  30.117  12.905
95139W        W62207  25.016  24.107   4.198
95140W        W62208   3.710  43.863   1.213
95141W        W62209   7.797  33.379   1.427
95142W        W62210  28.095   3.215   4.134
95143W        W62211  12.782   0.916  14.817
95144W        W62212  17.641  41.897  14.996
95145W        W62213  34.052   8.181  13.529
95146W        W62214  19.246  42.460   1.908
95147W        W62215  32.592  44.440  13.328
95148W        W62216  21.090  27.662   0.892
95149W        W62217  36.911  40.479   3.301
95150W        W62218  41.797  18.552   4.232
95151W        W62219  33.381   6.773   1.865
95152W        W62220   4.340  42.464   2.353
95153W        W62221   8.161  16.106   3.857
95154W        W62222  21.644   9.871  12.504
95155W        W62223   0.286  12.350  12.861
95156W        W62224  26.607  42.947   0.876
95157W        W62225  32.003  25.111   1.316
95158W        W62226  26.057  40.538  11.580
95159W        W62227   6.795  23.697  12.482
95160W        W62228   4.740  17.283  13.345
95161W        W62229  15.318  41.516   3.240
95162W        W62230   6.911  19.567   1.282
95163W        W62231  11.848   6.295  10.081
95164W        W62232  14.696  37.992  10.897
95165W        W62233  28.514   3.786  14.899
95166W        W62234  42.497  14.762   4.651
95167W        W62235  28.450  25.128   3.648
95168W        W62236  19.267  37.561  11.993
95169W        W62237   6.775  38.029  10.546
95170W        W62238  43.282   5.851  13.865
95171W        W62239  34.026  31.640   4.344
95172W        W62240  19.542  27.453  13.453
95173W        W62241  34.042   8.396  14.964
95174W        W62242  10.860  29.098   1.847
95175W        W62243  28.097   5.255   2.761
95176W        W62244  30.564  33.458   0.418
95177W        W62245   5.344  21.249   1.212
95178W        W62246  18.082  43.482   2.226
95179W        W62247  24.575  20.642   0.753
95180W        W62248  19.183  17.233  11.589
95181W        W62249   5.764  34.980  13.017
95182W        W62250  26.540  22.646  10.545
95183W        W62251  22.551  25.052   2.404
95184W        W62252  10.708  12.327   1.880
95185W        W62253  32.999   1.424  10.499
95186W        W62254   0.753   2.383  14.785
95187W        W62255  13.819  35.034  12.043
95188W        W62256   3.894  34.583  13.325
95189W        W62257   4.872  31.424  13.901
95190W        W62258  21.192  41.988  14.285
95191W        W62259  13.229  26.173  11.949
95192W        W62260  19.581  17.752  13.367
95193W        W62261  28.516  38.526  11.568
95194W        W62262  38.391  40.948  14.387
95195W        W62263   3.817  11.795   2.413
95196W        W62264  30.613  15.156   1.422
95197W        W62265  39.470  30.035  12.539
95198W        W62266  12.173  37.961   3.718
95199W        W62267   9.387  44.858  12.898
95200W        W62268  42.485  37.983   0.839
95201W        W62269  23.194  33.884  10.439
95202W        W62270  16.721  27.109   0.878
95203W        W62271  31.468  36.002   0.267
95204W        W62272   7.834  25.574   0.281
95205W        W62273  41.294  23.589   4.280
95206W        W62274  15.223  31.583  12.926
95207W        W62275  19.727  24.125  12.475
95208W        W62276  26.498   4.858  14.891
95209W        W62277  44.852  37.483   3.702
95210W        W62278  12.275   4.770   2.343
95211W        W62279  11.652  11.351   3.203
95212W        W62280  12.791  31.144  11.572
95213W        W62281  32.082   5.903   4.819
95214W        W62282  22.508  20.747  14.774
95215W        W62283  44.946  10.769  10.428
95216W        W62284   7.172   2.728  13.344
95217W        W62285  13.817  19.089   2.304
95218W        W62286  15.622  33.438   5.296
95219W        W62287   6.292  36.981   2.269
95220W        W62288  22.677  17.660  11.522
95221W        W62289  31.438  26.107  12.970
95222W        W62290  39.031  11.847  12.403
95223W        W62291  26.136  28.153   3.220
95224W        W62292  17.770  27.142   0.401
95225W        W62293  37.834  33.916  12.419
95226W        W62294  35.043   7.777  11.412
95227W        W62295  26.466   8.256   1.746
95228W        W62296  24.166  44.394  11.407
95229W        W62297  18.678   3.948  12.034
95230W        W62298  20.528  25.069   0.745
95231W        W62299   2.741  31.115   1.811
95232W        W62300  30.958  33.569  11.402
95233W        W62301   6.415  30.071   3.327
95234W        W62302  41.322  33.529   0.376
95235W        W62303  30.002   7.243  13.897
95236W        W62304   0.323   3.239  12.041
95237W        W62305  32.512  41.443  12.925
95238W        W62306  17.600  33.519  14.968
95239W        W62307  18.574   8.827   1.431
95240W        W62308  10.833  15.641  11.016
95241W        W62309  13.606  21.625  10.470
95242W        W62310  26.139  12.672  12.981
95243W        W62311  41.013   6.239  12.853
95244W        W62312  44.009  28.625   4.244
95245W        W62313  18.125  32.107   4.657
95246W        W62314  32.885  25.203   2.211
95247W        W62315  18.206  30.003  11.603
95248W        W62316  25.651  32.565  11.939
95249W        W62317  26.016  23.140  12.977
95250W        W62318   7.793  38.871   3.226
95251W        W62319  16.122  15.313  13.362
95252W        W62320  34.524  42.825   1.884
95253W        W62321  35.460  18.136  13.385
95254W        W62322  19.217  42.848  10.581
95255W        W62323  36.499  30.559  12.000
95256W        W62324  13.190  26.191   4.296
95257W        W62325   4.931   4.844   4.198
95258W        W62326  16.785   6.920   0.803
95259W        W62327  25.514   0.435  12.048
95260W        W62328  44.395   9.186   1.366
95261W        W62329  12.708  20.660   1.393
95262W        W62330  30.438  39.358   0.366
95263W        W62331   8.289   3.773  14.303
95264W        W62332   3.935  43.918   4.327
95265W        W62333  38.840  11.680   9.996
95266W        W62334  25.061   9.751  12.493
95267W        W62335   9.670   8.897  12.978
95268W        W62336  20.053  42.293   3.677
95269W        W62337  43.377  30.916   3.795
95270W        W62338  29.047   7.672  13.514
95271W        W62339  17.145  40.341  12.479
95272W        W62340  22.684  37.049  12.477
95273W        W62341  27.475   3.318  11.394
95274W        W62342   4.339  34.032   1.805
95275W        W62343  41.970  29.426   0.264
95276W        W62344  33.962  23.610   0.915
95277W        W62345  44.815  39.846  14.458
95278W        W62346  36.467  44.377  13.815
95279W        W62347  33.032  29.508  10.535
95280W        W62348  41.431   5.768   2.676
95281W        W62349  30.038   3.779  11.116
95282W        W62350  14.588  43.849   2.835
95283W        W62351  35.977  11.740   4.350
95284W        W62352  26.177   7.382   0.825
95285W        W62353   8.666  20.690   2.777
95286W        W62354  16.139   5.852  10.575
95287W        W62355  21.252   9.320   0.439
95288W        W62356  20.630   7.689   1.855
95289W        W62357  32.481   7.858  12.884
95290W        W62358  38.949   3.879  10.439
95291W        W62359  27.643  29.058   1.711
95292W        W62360  42.820  37.557   9.961
95293W        W62361  27.086  20.685   3.794
95294W        W62362  27.028  20.661  13.414
95295W        W62363   2.957  39.382  13.930
95296W        W62364  17.585  11.161  10.484
95297W        W62365  35.565   4.830   2.825
95298W        W62366  31.624  22.742  13.938
95299W        W62367  35.902  18.055   0.440
95300W        W62368  15.169  35.405  12.917
95301W        W62369  22.086   9.859  12.929
95302W        W62370  19.727  30.494  10.956
95303W        W62371  25.485  22.575  12.852
95304W        W62372  25.636  43.924   1.290
95305W        W62373  41.489  21.616   0.822
95306W        W62374  24.015  31.415  11.466
95307W        W62375  29.082  38.961  10.960
95308W        W62376  39.900  32.942  11.950
95309W        W62377  18.050  33.518   1.819
95310W        W62378   8.382  15.588   0.255
95311W        W62379  17.266  11.743  10.605
95312W        W62380  16.273  40.503  14.385
95313W        W62381   8.700   4.755   3.692
95314W        W62382  39.869  33.407   4.195
95315W        W62383  40.801  26.192  14.502
95316W        W62384  17.676  32.091  10.070
95317W        W62385  37.445  21.586  13.824
95318W        W62386  33.126   5.857  11.975
95319W        W62387  39.850  40.844  10.960
95320W        W62388  43.767  37.055  11.122
95321W        W62389  26.031  17.177   0.454
95322W        W62390  38.992  19.207  10.497
95323W        W62391  39.450  39.058   2.885
95324W        W62392  20.176  43.957   3.685
95325W        W62393  23.083  43.915   3.321
95326W        W62394  28.585  31.121  11.868
95327W        W62395  43.395  32.957  12.019
95328W        W62396  26.665  44.004   3.191
95329W        W62397  34.958  10.672  12.003
95330W        W62398  40.820  17.631  10.918
95331W        W62399  35.963   0.823   3.265
95332W        W62400  18.210  32.409  14.479
95333W        W62401  22.604  15.698  13.516
95334W        W62402  30.580  11.279   3.751
95335W        W62403   2.822  10.744   2.282
95336W        W62404   9.331  17.611  10.418
95337W        W62405  42.470  43.866   0.254
95338W        W62406  44.419  31.631   1.382
95339W        W62407  36.084  15.796   1.787
95340W        W62408  39.895  16.222  13.818
95341W        W62409  12.285  11.344   4.337
95342W        W62410  16.581  14.177   0.329
95343W        W62411  21.073  32.433  12.580
95344W        W62412  19.634  17.294  10.953
95345W        W62413  36.515  34.898  13.041
95346W        W62414   7.371   8.799  12.093
95347W        W62415  10.247  19.548  13.504
95348W        W62416  23.713  41.921  12.578
95349W        W62417  32.907  34.075   2.413
95350W        W62418  22.230  31.995  10.485
95351W        W62419   5.827  30.132   2.266
95352W        W62420   0.844  23.664  14.294
95353W        W62421  24.226  35.416   1.325
95354W        W62422   3.770   6.262   4.628
95355W        W62423   6.752  25.017   0.907
95356W        W62424  35.899  34.484   0.869
95357W        W62425  20.546  35.931  14.941
95358W        W62426  14.738  30.037  11.426
95359W        W62427  14.312  16.631   3.699
95360W        W62428  28.939  15.742   0.351
95361W        W62429  44.297   7.827  12.580
95362W        W62430  37.044  24.216  11.116
95363W        W62431  34.928  15.621   0.290
95364W        W62432   4.731  39.444  11.060
95365W        W62433  42.018  13.789   2.686
95366W        W62434  38.898  22.722   4.171
95367W        W62435  27.989   2.787   2.404
95368W        W62436  35.577  37.082   2.868
95369W        W62437  36.451   0.282  11.449
95370W        W62438  12.771  23.586  11.972
95371W        W62439  25.972  16.299   0.746
95372W        W62440  30.027  30.575  13.032
95373W        W62441  28.562  23.498  13.049
95374W        W62442  44.001   3.342  10.116
95375W        W62443  41.837   6.391   3.686
95376W        W62444   2.283  41.996  10.931
95377W        W62445  11.761  31.002   0.770
95378W        W62446  26.516  37.926  10.599
95379W        W62447  14.098  33.067   1.448
95380W        W62448  36.028  42.384  11.580
95381W        W62449   0.748  35.953   9.983
95382W        W62450  40.980  35.385  13.997
95383W        W62451   9.184   8.859  13.812
95384W        W62452  31.528  14.229   1.395
95385W        W62453   8.817   0.802  11.892
95386W        W62454   3.357  34.463   3.211
95387W        W62455  42.337  42.919   1.831
95388W        W62456   7.242  13.322  14.445
95389W        W62457  20.236  31.125  13.062
95390W        W62458  10.703  34.960  14.024
95391W        W62459  16.615  36.070  12.961
95392W        W62460  42.946  40.884  14.359
95393W        W62461  18.275  25.051  11.941
95394W        W62462  27.173  23.495  10.614
95395W        W62463  20.232  16.715  10.448
95396W        W62464  37.895  15.246  12.840
95397W        W62465  41.363  35.065  12.879
95398W        W62466  44.260  39.855  10.542
95399W        W62467  12.812   1.739   2.756
95400W        W62468  25.589  16.598   0.265
95401W        W62469  42.380  42.782   1.271
95402W        W62470  13.732  43.006  10.971
95403W        W62471  18.106   8.756   1.378
95404W        W62472  16.117  24.689  10.615
95405W        W62473   1.819  24.645   4.229
95406W        W62474  35.553   4.228   1.398
95407W        W62475  13.241  25.093   1.355
95408W        W62476  17.579  19.087  12.378
95409W        W62477  11.730  15.683  12.420
95410W        W62478  32.407  43.798  10.452
95411W        W62479  39.543  39.808   4.689
95412W        W62480  17.590  32.606   1.864
95413W        W62481  16.290   8.753  11.000
95414W        W62482  36.951  15.276  11.052
95415W        W62483  27.021   4.707   3.795
95416W        W62484  32.535  35.589   3.676
95417W        W62485  33.896  42.986   0.869
95418W        W62486  17.187  17.077  12.404
95419W        W62487  11.851  13.210  10.602
95420W        W62488  15.725  15.210   4.259
95421W        W62489  35.498  15.083  12.570
95422W        W62490  37.390  25.574  13.467
95423W        W62491  14.324  34.082  10.901
95424W        W62492  34.080  43.483  13.864
95425W        W62493  36.996   4.787  12.873
95426W        W62494  32.467   4.442  12.541
95427W        W62495  42.820  41.401   3.146
95428W        W62496  13.770  43.774   3.791
95429W        W62497  32.418  19.718  13.957
95430W        W62498  12.213  44.368   9.608
95431W        W62499   5.370   2.868   1.314
95432W        W62500  13.349  30.433   3.296
95433W        W62501   4.880  11.219   3.209
95434W        W62502   2.753  12.201   2.885
95435W        W62503  27.642  32.441   5.195
95436W        W62504  19.103  15.589   3.841
95437W        W62505  29.666  25.185  12.068
95438W        W62506   9.648  16.650  13.922
95439W        W62507  42.483  14.783   3.752
95440W        W62508  15.112   6.710   1.232
95441W        W62509  24.549  13.249   0.880
95442W        W62510  17.189  27.455   3.192
95443W        W62511   7.173  32.453   2.279
95444W        W62512  10.299  27.032   3.819
95445W        W62513  24.168  31.057   2.862
95446W        W62514  43.793  35.391  14.783
95447W        W62515  10.189  21.192   0.337
95448W        W62516   2.883   4.366  13.352
95449W        W62517  14.632  30.659   0.354
95450W        W62518  11.319  27.572   1.213
95451W        W62519  37.470  42.453  12.510
95452W        W62520  16.192  12.848   2.678
95453W        W62521  22.514  33.988   2.840
95454W        W62522   8.201  12.124   4.707
95455W        W62523  22.130  28.656   2.318
95456W        W62524  21.052  43.772  10.912
95457W        W62525   2.287  13.740   0.965
95458W        W62526  28.988   5.914  12.430
95459W        W62527  25.082  29.952   2.205
95460W        W62528  12.639  38.955   4.821
95461W        W62529  11.823  34.061   2.361
95462W        W62530  19.051   6.343  13.372
95463W        W62531  28.462  15.616   1.722
95464W        W62532  38.507  16.703  14.992
95465W        W62533  39.446  35.055  12.495
95466W        W62534  21.194  41.508   3.667
95467W        W62535   1.414  30.136  13.395
95468W        W62536  30.628  28.613   4.301
95469W        W62537  33.079   9.252   4.742
95470W        W62538  15.208  10.822   1.378
95471W        W62539  26.956  25.658   3.858
95472W        W62540   9.706  10.297   4.817
95473W        W62541  22.699  36.458   3.349
95474W        W62542  31.151  13.294   2.773
95475W        W62543  25.695   4.254  14.842
95476W        W62544  11.216   1.946  10.012
95477W        W62545  24.694  11.867   4.808
95478W        W62546  17.587  14.226   3.350
95479W        W62547  17.641  39.017  12.856
95480W        W62548  10.138   8.681  14.389
95481W        W62549  12.814  24.045   4.745
95482W        W62550  27.545  15.179   4.121
95483W        W62551  15.780  19.177  12.841
95484W        W62552   3.428  14.829  11.606
95485W        W62553  10.860   3.759   0.269
95486W        W62554  39.394   1.276   0.455
95487W        W62555  28.006  18.195   0.450
95488W        W62556  29.108   7.873  12.914
95489W        W62557  37.050  29.626   1.845
95490W        W62558  27.538   2.235  13.923
95491W        W62559  19.214   5.872  13.533
95492W        W62560  42.466  15.320  12.004
95493W        W62561  36.862   6.307   2.361
95494W        W62562   0.890   0.875  14.408
95495W        W62563  16.736   2.331  12.950
95496W        W62564  10.711  34.556   2.803
95497W        W62565  40.901   2.746  10.491
95498W        W62566  44.265  12.854  12.058
95499W        W62567  31.127   8.890  14.814
95500W        W62568  13.606  27.151   2.903
95501W        W62569  28.933  27.602  10.477
95502W        W62570   8.689  19.762  11.482
95503W        W62571  36.098   7.379  10.561
95504W        W62572  13.630   7.388   1.310
95505W        W62573   1.451  12.139  10.595
95506W        W62574  25.579  28.185   2.701
95507W        W62575  32.886  11.239  13.021
95508W        W62576   5.824  29.976  13.545
95509W        W62577  31.456  12.268  12.455
95510W        W62578  30.520  35.541   0.337
95511W        W62579  20.614  28.124  11.964
95512W        W62580   6.702  16.655   1.694
95513W        W62581  43.389   7.752   3.710
95514W        W62582  15.151   3.367  14.429
95515W        W62583  14.791   8.685  13.043
95516W        W62584  25.048  21.696   4.702
95517W        W62585  25.103  35.003   2.350
95518W        W62586  33.556  27.602   4.341
95519W        W62587  11.195  10.195   4.772
95520W        W62588  14.608   1.459  13.880
95521W        W62589  34.910  33.904  14.284
95522W        W62590   0.445   4.261  14.984
95523W        W62591  37.469  32.139   1.366
95524W        W62592  25.481  19.112  10.937
95525W        W62593  37.553  20.751   4.771
95526W        W62594   4.878  44.469  11.457
95527W        W62595  44.485  10.827  12.430
95528W        W62596   1.316   8.313  10.971
95529W        W62597  34.979  31.504   3.642
95530W        W62598  37.486  44.453   0.883
95531W        W62599  44.350  10.813  11.069
95532W        W62600  43.411  39.465   2.832
95533W        W62601  26.551  35.077  14.876
95534W        W62602  34.518  34.990  12.908
95535W        W62603   0.313   1.387   1.325
95536W        W62604   7.907  24.988  14.941
95537W        W62605  13.305  13.657  12.948
95538W        W62606  35.075  25.072  10.425
95539W        W62607  22.652  26.102   3.708
95540W        W62608  37.402   0.304   4.162
95541W        W62609   2.826  36.029  11.471
95542W        W62610  42.013   4.448   2.399
95543W        W62611  30.494  44.398   1.346
95544W        W62612  26.972  28.116  13.419
95545W        W62613  37.838   7.711  11.869
95546W        W62614   9.213  33.905   0.474
95547W        W62615  31.503   8.858   2.809
95548W        W62616  36.550  33.547   1.310
95549W        W62617  42.481  23.145   1.912
95550W        W62618  15.626  26.534  11.079
95551W        W62619  43.304   6.812  12.999
95552W        W62620  43.391  10.651   3.234
95553W        W62621   5.289  26.187  13.889
95554W        W62622   8.766  39.889  13.500
95555W        W62623  41.016  18.252  13.947
95556W        W62624  31.466  14.626   3.804
95557W        W62625  39.961  18.066   2.707
95558W        W62626   9.304  38.407   0.742
95559W        W62627   1.480  15.758  10.081
95560W        W62628  29.588   4.433  11.469
95561W        W62629   6.267  41.396   4.118
95562W        W62630  36.971  37.500   4.836
95563W        W62631  27.494  43.014  12.567
95564W        W62632   0.330  27.598  12.526
95565W        W62633  32.564   1.888   0.901
95566W        W62634  37.499  29.953   3.181
95567W        W62635  32.633  15.095   4.351
95568W        W62636   9.801  15.769  11.613
95569W        W62637  29.558  22.235  10.994
95570W        W62638  30.047  14.270   0.901
95571W        W62639  39.970  37.508   1.819
95572W        W62640  43.968  39.553   1.812
95573W        W62641  10.633  21.584   0.728
95574W        W62642   9.372  43.858   0.373
95575W        W62643  13.775  32.126  11.017
95576W        W62644   5.824   7.806  11.102
95577W        W62645  30.125  28.009  12.404
95578W        W62646   1.397  40.929   3.369
95579W        W62647  34.900   4.857  12.045
95580W        W62648  32.508  27.633  10.889
95581W        W62649   2.335  26.511  13.418
95582W        W62650  28.953   1.314   4.770
95583W        W62651  41.343  11.314  11.552
95584W        W62652  18.785  12.170  10.472
95585W        W62653  37.536  12.856   0.478
95586W        W62654  29.606  11.346   3.334
95587W        W62655   5.347  35.439  10.448
95588W        W62656  43.412  40.374   0.317
95589W        W62657  11.623  32.023  11.885
95590W        W62658  31.032  26.010   0.882
95591W        W62659  43.417  44.950  13.919
95592W        W62660   5.797  22.201  12.347
95593W        W62661  34.512  29.464  12.031
95594W        W62662   7.342  19.197   1.364
95595W        W62663  41.930  24.632  11.512
95596W        W62664  39.557  42.512   0.848
95597W        W62665  44.490  29.648   2.770
95598W        W62666  20.249  21.173  14.772
95599W        W62667  12.629  34.037   3.791
95600W        W62668  15.094  17.206   3.373
95601W        W62669  28.009   1.902   2.366
95602W        W62670  23.168  28.590  11.458
95603W        W62671  12.644  34.053   2.254
95604W        W62672  36.971  21.637  11.855
95605W        W62673   2.821   0.468   1.824
95606W        W62674  44.273  42.813  10.001
95607W        W62675  36.065   8.183  14.925
95608W        W62676   4.833  11.239  13.978
95609W        W62677  12.700  17.170   3.691
95610W        W62678   4.709  13.297  14.835
95611W        W62679  31.625  14.821  14.887
95612W        W62680  23.675  34.459   3.377
95613W        W62681  37.919  10.248  11.504
95614W        W62682  11.749   9.348   0.350
95615W        W62683  43.817  37.939  10.934
95616W        W62684  21.051  19.633  14.873
95617W        W62685  19.559   2.735  14.873
95618W        W62686   1.459  29.067  13.050
95619W        W62687  37.566  29.090   2.683
95620W        W62688  19.088   6.238  13.966
95621W        W62689   8.772   7.382   1.213
95622W        W62690   3.233  37.846   3.268
95623W        W62691  44.427  22.181   1.406
95624W        W62692  22.670  26.178   3.272
95625W        W62693  19.669  32.074  10.436
95626W        W62694  35.602  28.534  13.448
95627W        W62695  40.532   2.400  12.560
95628W        W62696  31.004   4.437  12.537
95629W        W62697  42.331  25.680   0.323
95630W        W62698   2.232   4.779  12.979
95631W        W62699  31.120  22.049   4.777
95632W        W62700  14.710  28.179   0.803
95633W        W62701  27.663  15.192   2.730
95634W        W62702  17.276  10.264   4.716
95635W        W62703  36.504  31.094   2.321
95636W        W62704  36.046  29.965  14.030
95637W        W62705  16.708  22.252  13.415
95638W        W62706   3.458   6.788  11.448
95639W        W62707  36.976  21.067  14.000
95640W        W62708  24.215  11.281  12.426
95641W        W62709  37.478   3.886  11.889
95642W        W62710  44.263  25.588   1.412
95643W        W62711  28.660   7.755  11.102
95644W        W62712  10.194  15.614   1.270
95645W        W62713   2.958   3.872  14.354
95646W        W62714  23.614  24.494   3.159
95647W        W62715  34.543  26.999  14.314
95648W        W62716  42.394  35.902  11.017
95649W        W62717   2.805  38.541   3.808
95650W        W62718  16.093  28.034   4.240
95651W        W62719  31.565  20.178  14.289
95652W        W62720  42.393   8.283  10.581
95653W        W62721  13.107  37.036  14.828
95654W        W62722  26.515  25.577   4.735
95655W        W62723  16.183  42.936  14.887
95656W        W62724  19.759  33.085  12.842
95657W        W62725  41.924  24.199   3.155
95658W        W62726  39.402  23.528   2.736
95659W        W62727  19.733  28.960   0.817
95660W        W62728  38.510   1.765   0.911
95661W        W62729  29.567  15.286  13.990
95662W        W62730   4.355  41.318   1.218
95663W        W62731  21.111  39.361   1.273
95664W        W62732  37.570  20.696  13.833
95665W        W62733  38.828   6.218  11.011
95666W        W62734  39.989  33.436   2.809
95667W        W62735  10.303  30.128  11.914
95668W        W62736  42.999  25.207  11.460
95669W        W62737   3.253  36.889   3.794
95670W        W62738   3.903  31.454  13.887
95671W        W62739  22.557  41.001   5.231
95672W        W62740  14.221  34.400  12.999
95673W        W62741  18.716   5.730   4.706
95674W        W62742   3.930   4.346   1.211
95675W        W62743   9.870  42.467   1.243
95676W        W62744  17.604  43.357   3.372
95677W        W62745  31.019  36.929   1.338
95678W        W62746   7.288  22.738   4.674
95679W        W62747   1.743  32.447  11.541
95680W        W62748  12.115  14.603  12.838
95681W        W62749  43.424  25.644   4.334
95682W        W62750   3.847  38.924   2.749
95683W        W62751   6.894   8.698   0.305
95684W        W62752  40.414  38.539  12.508
95685W        W62753  32.613  44.325   3.277
95686W        W62754  32.076   3.336  13.963
95687W        W62755   5.786  22.117   2.865
95688W        W62756  39.830  18.218   3.149
95689W        W62757  28.054  17.254  12.428
95690W        W62758  12.830  28.441   4.796
95691W        W62759  24.993  30.581   3.360
95692W        W62760   1.952   4.698  12.897
95693W        W62761  10.226  11.217  12.470
95694W        W62762  27.448   0.442   2.381
95695W        W62763  19.278   4.863  14.793
95696W        W62764   9.310  23.129  13.538
95697W        W62765  24.097  16.593   3.260
95698W        W62766  40.335  34.051   1.741
95699W        W62767  22.210  25.177   1.292
95700W        W62768  31.094  20.037   3.849
95701W        W62769   0.282   1.345   4.153
95702W        W62770  40.376  41.397   1.727
95703W        W62771   0.795  19.678   4.785
95704W        W62772  32.043  10.281  10.096
95705W        W62773  37.895  13.318   4.256
95706W        W62774  22.200   2.274   2.280
95707W        W62775  17.115  14.819  13.536
95708W        W62776  40.376  22.020   4.611
95709W        W62777  13.181  17.799  10.986
95710W        W62778  28.071  24.230   2.713
95711W        W62779  19.690   6.824  11.603
95712W        W62780  23.507  37.064  11.512
95713W        W62781  39.557  20.223  14.511
95714W        W62782   8.670  25.199  14.301
95715W        W62783  14.759   3.764   1.876
95716W        W62784   0.426   8.404   1.917
95717W        W62785  31.128   7.758  12.433
95718W        W62786   0.921  38.960  12.406
95719W        W62787  25.178   0.424  13.833
95720W        W62788  43.469   3.373   3.271
95721W        W62789  26.489   8.276   0.446
95722W        W62790  27.025  13.695  13.801
95723W        W62791   4.308   7.675  13.480
95724W        W62792   6.688  43.937   1.400
95725W        W62793   5.300   1.478   4.164
95726W        W62794  15.647  24.136   3.168
95727W        W62795  15.820  36.466  10.912
95728W        W62796  42.990  23.070  13.897
95729W        W62797  18.061  31.082   9.518
95730W        W62798  11.691  19.756  14.468
95731W        W62799  19.774  26.207  14.328
95732W        W62800  31.943  28.505  13.366
95733W        W62801  28.120  13.209   4.758
95734W        W62802  35.364  28.104  14.975
95735W        W62803  26.540  31.423  14.336
95736W        W62804  44.357  27.136  14.441
95737W        W62805  11.803  14.748   1.334
95738W        W62806  34.597  25.130  14.374
95739W        W62807  33.897  26.138  11.052
95740W        W62808  39.497  42.887   1.883
95741W        W62809  37.374  30.546  14.774
95742W        W62810  39.480  17.643   1.224
95743W        W62811   0.464  30.508   4.620
95744W        W62812  32.578  36.508   3.702
95745W        W62813  27.160  30.915   2.734
95746W        W62814  24.225   2.741   4.830
95747W        W62815  34.883  21.208  12.416
95748W        W62816  19.569   3.895  12.915
95749W        W62817  38.351  24.523   1.759
95750W        W62818  18.700   6.690  10.993
95751W        W62819  37.021  18.228   1.798
95752W        W62820   5.223  21.113  12.408
95753W        W62821  27.957  32.096  11.515
95754W        W62822  12.757   6.326  12.850
95755W        W62823  18.239  32.128  14.900
95756W        W62824  12.322   9.674   2.307
95757W        W62825  37.054  25.162  12.086
95758W        W62826  11.274   3.333  13.531
95759W        W62827  22.041  15.645   2.840
95760W        W62828  42.885  21.176   1.759
95761W        W62829  44.367  31.960  14.886
95762W        W62830   5.359  35.377   0.363
95763W        W62831  38.972  21.099   3.326
95764W        W62832  39.350   1.785   0.245
95765W        W62833  26.618  15.611   2.798
95766W        W62834  32.629  20.631   3.839
95767W        W62835  41.444   3.808   5.100
95768W        W62836   7.796  16.645   0.786
95769W        W62837  39.946   2.429   4.800
95770W        W62838  41.459  26.989   2.380
95771W        W62839  10.160   4.296  11.512
95772W        W62840  13.163   7.680   2.387
95773W        W62841  16.778  22.190   1.235
95774W        W62842  21.667  23.141  14.779
95775W        W62843  36.099   0.984  13.850
95776W        W62844   3.828  15.275  11.934
95777W        W62845  32.620  19.237  13.450
95778W        W62846  41.949   0.385  10.428
95779W        W62847   7.814  27.625  13.487
95780W        W62848  32.942  11.662  13.332
95781W        W62849  34.084  10.233   4.192
95782W        W62850   6.878  25.026   2.234
95783W        W62851  34.093   3.310   2.803
95784W        W62852  36.548  23.581  14.932
95785W        W62853  43.280  43.776   0.302
95786W        W62854  37.575  38.503  11.041
95787W        W62855  38.376  42.940   5.176
95788W        W62856   7.227  30.114  14.513
95789W        W62857  25.130   2.808  12.023
95790W        W62858  25.034  24.026   1.822
95791W        W62859  13.242  29.083  13.844
95792W        W62860  22.551   8.351   0.338
95793W        W62861  18.546  10.847  10.960
95794W        W62862  19.279  26.555  13.061
95795W        W62863  27.981  40.897  11.398
95796W        W62864   1.370   4.795   1.245
95797W        W62865  21.594  44.929   4.828
95798W        W62866  12.718  26.958  12.003
95799W        W62867  10.141  15.659  14.299
95800W        W62868  28.565  23.061  14.978
95801W        W62869  37.921   4.420   0.786
95802W        W62870   2.228   0.823  11.973
95803W        W62871   0.902   0.493  12.442
95804W        W62872  41.373  26.180   2.268
95805W        W62873   9.798  32.958  14.930
95806W        W62874   5.199  12.753   4.637
95807W        W62875   1.317  16.741  14.944
95808W        W62876  26.572  18.206   3.697
95809W        W62877   3.735  35.565  13.971
95810W        W62878   2.258  21.058  11.560
95811W        W62879  37.079  30.652   2.704
95812W        W62880  20.622  33.890   1.913
95813W        W62881  37.532  44.804   4.199
95814W        W62882  33.916   7.194   3.210
95815W        W62883  26.656   8.705  13.392
95816W        W62884  18.690   7.684   4.192
95817W        W62885  10.674  44.370   0.787
95818W        W62886  38.546  15.096  10.924
95819W        W62887   0.967  28.073  12.878
95820W        W62888  35.064   9.853   2.728
95821W        W62889  34.926  43.448  14.856
95822W        W62890   4.835  44.775  14.411
95823W        W62891  30.127  36.454   4.275
95824W        W62892  44.890  26.605  13.450
95825W        W62893   5.833  26.176  11.127
95826W        W62894   2.376  37.897  13.979
95827W        W62895  12.282  28.995  11.885
95828W        W62896   5.883   0.430  12.832
95829W        W62897  37.915   2.408  11.425
95830W        W62898  16.143  18.106   4.653
95831W        W62899   5.323  15.639   2.668
95832W        W62900  16.758  35.980   0.468
95833W        W62901  10.784  29.617   3.666
95834W        W62902  20.118  31.125   1.361
95835W        W62903  22.647  15.669   2.199
95836W        W62904  11.358  36.020  10.999
95837W        W62905   1.879   2.935  11.469
95838W        W62906  30.578  32.947  13.443
95839W        W62907   3.886  42.484   1.714
95840W        W62908  32.528  10.162   3.283
95841W        W62909  43.907  37.867  10.475
95842W        W62910  36.920   1.296  14.368
95843W        W62911  15.211  28.998   3.646
95844W        W62912   1.912  32.018  11.495
95845W        W62913  18.192  16.721   1.858
95846W        W62914   2.962   0.385   2.767
95847W        W62915  34.115  21.528  11.441
95848W        W62916  19.566  31.115   4.803
95849W        W62917  36.008  14.284  13.333
95850W        W62918   4.280   1.394  11.920
95851W        W62919  27.983  13.684   3.372
95852W        W62920   8.860   4.371  14.855
95853W        W62921  40.033  39.454  12.991
95854W        W62922  18.222  32.945   4.321
95855W        W62923  23.522   1.309   4.247
95856W        W62924  34.958  25.977  10.639
95857W        W62925  19.061  15.622  12.566
95858W        W62926  41.957   8.364  14.947
95859W        W62927  42.792   6.222   2.876
95860W        W62928   2.262   3.764  12.354
95861W        W62929   4.417  41.916  11.588
95862W        W62930  35.068  35.598   0.361
95863W        W62931  33.011  34.025   1.754
95864W        W62932  27.963  43.849  13.503
95865W        W62933   1.880  28.048   0.923
95866W        W62934  16.639  24.134  11.452
95867W        W62935  15.769   2.337  13.451
95868W        W62936  24.565  13.794  10.618
95869W        W62937  17.701  13.216   3.191
95870W        W62938  29.506  14.292   1.348
95871W        W62939  14.658  28.992   4.124
95872W        W62940   5.284  30.490  12.008
95873W        W62941   6.428  10.173   0.823
95874W        W62942  41.389   0.276   0.922
95875W        W62943  19.196  15.165  14.816
95876W        W62944  12.191  38.072   2.702
95877W        W62945  38.874  10.148  11.056
95878W        W62946  12.754   6.734   1.920
95879W        W62947  27.568  14.224   1.340
95880W        W62948   8.332  37.382   1.840
95881W        W62949  40.486  16.163   2.185
95882W        W62950  35.434  35.024   2.218
95883W        W62951  36.084   9.848  10.589
95884W        W62952  22.020   8.392  10.489
95885W        W62953  18.554  38.527   3.757
95886W        W62954  32.397  27.127  11.971
95887W        W62955   7.304  18.630  14.420
95888W        W62956   0.930  41.376   2.858
95889W        W62957  26.957  44.824   3.179
95890W        W62958  12.194  43.932  10.108
95891W        W62959  38.514   8.372   0.822
95892W        W62960  42.369  18.272  13.457
95893W        W62961  30.980   1.317  12.405
95894W        W62962  37.541  44.899  14.796
95895W        W62963  29.587   2.385  14.515
95896W        W62964  38.851  20.130  14.881
95897W        W62965  23.506  18.765  13.992
95898W        W62966  11.670   1.281   5.316
95899W        W62967  13.202  12.342  11.043
95900W        W62968   1.789  40.043   3.843
95901W        W62969  14.281   9.858   0.303
95902W        W62970  29.164   6.911  12.890
95903W        W62971   8.342  34.082   2.814
95904W        W62972   7.752  44.959  12.349
95905W        W62973  37.902   1.354  14.854
95906W        W62974   1.775  16.657  11.978
95907W        W62975   2.811  21.155   2.706
95908W        W62976  19.170  38.553   5.102
95909W        W62977  40.995   7.889  12.455
95910W        W62978  28.145  26.122   4.795
95911W        W62979  16.757  28.522  12.351
95912W        W62980   7.200  27.480  11.376
95913W        W62981  35.402  33.100  14.370
95914W        W62982   4.394  20.100  10.497
95915W        W62983  13.711  10.244  11.433
95916W        W62984  10.343  16.279  12.006
95917W        W62985  31.963  19.665   4.303
95918W        W62986  17.755   4.254  10.622
95919W        W62987  15.717  23.057  13.324
95920W        W62988  18.155   7.888  13.860
95921W        W62989  10.663  18.581   4.618
95922W        W62990   7.291  37.383  10.417
95923W        W62991  15.712  35.951   2.268
95924W        W62992  30.059  11.129  13.477
95925W        W62993  14.287  17.676   1.400
95926W        W62994  16.106   2.865  10.951
95927W        W62995   6.679  30.657  11.125
95928W        W62996  14.807  20.236   5.308
95929W        W62997   6.719  23.637  14.968
95930W        W62998  12.119  29.140   1.804
95931W        W62999  40.923  37.961   3.160
95932W        W63000  23.053  31.961  11.402
95933W        W63001   5.763   9.797  12.572
95934W        W63002   9.843  31.547  10.536
95935W        W63003  18.633  40.884  13.015
95936W        W63004  39.413  37.552   4.598
95937W        W63005  20.198   2.831   3.225
95938W        W63006  34.605   8.870   1.216
95939W        W63007  15.606  22.118   0.437
95940W        W63008  43.944  38.851   3.180
95941W        W63009  28.182  22.170   3.349
95942W        W63010  39.866   1.809   2.190
95943W        W63011  29.031  38.534  14.868
95944W        W63012   4.804  15.200   1.885
95945W        W63013  39.820  12.198  13.435
95946W        W63014   7.263  17.113   9.935
95947W        W63015  22.534  30.950  11.994
95948W        W63016  40.364   1.903   4.619
95949W        W63017  36.478  25.117   4.290
95950W        W63018   8.684  44.439  14.982
95951W        W63019  21.523  28.629   2.355
95952W        W63020  33.117  20.706  13.537
95953W        W63021  29.515  30.631   0.371
95954W        W63022  41.309  25.555  14.778
95955W        W63023  27.955  15.205   9.927
95956W        W63024  42.490  20.654   4.710
95957W        W63025  11.777  34.389   4.203
95958W        W63026  33.554  27.009  13.437
95959W        W63027   8.347  30.605   1.240
95960W        W63028   4.800   1.754   4.157
95961W        W63029  42.950  14.697  11.478
95962W        W63030  38.984  40.470  10.916
95963W        W63031  19.600  24.096   4.125
95964W        W63032  35.950  10.741  10.988
95965W        W63033   2.303  18.685   0.449
95966W        W63034  16.585  29.427   5.717
95967W        W63035  20.556  18.160  12.042
95968W        W63036  40.532  43.934  14.887
95969W        W63037  42.009   5.247   2.735
95970W        W63038  38.569   0.305  13.375
95971W        W63039  26.956  35.907   3.793
95972W        W63040  24.974  34.911   0.272
95973W        W63041  10.774  39.816   2.304
95974W        W63042  10.646   9.710   1.446
95975W        W63043  28.943  10.859   3.220
95976W        W63044   6.731  27.616   1.863
95977W        W63045  25.538   3.410   1.825
95978W        W63046  39.407  15.724  12.342
95979W        W63047  10.850   7.273   2.786
95980W        W63048   9.644  17.297  13.923
95981W        W63049  29.558  43.451  13.322
95982W        W63050  31.987   4.898  14.426
95983W        W63051  12.728  35.600  13.969
95984W        W63052  25.483  33.385   3.791
95985W        W63053  24.710  10.762  13.897
95986W        W63054  30.525  42.866   1.839
95987W        W63055  22.064  16.294  11.962
95988W        W63056  27.537   3.793   2.402
95989W        W63057  32.115   7.908  11.120
95990W        W63058  38.562  29.600  13.995
95991W        W63059  28.184   9.809   0.859
95992W        W63060  15.204  23.550   0.793
95993W        W63061  24.196  41.929   2.336
95994W        W63062  11.274  16.587  13.046
95995W        W63063  37.437  38.965   2.418
95996W        W63064  37.019  22.099  13.796
95997W        W63065  22.185   8.337  13.402
95998W        W63066  30.535  33.557   1.915
95999W        W63067  33.903  26.575   2.307
96000W        W63068  21.746   7.871  13.925
96001W        W63069  44.385  22.161   4.659
96002W        W63070  38.044  20.533   0.920
96003W        W63071  26.170   0.812  11.077
96004W        W63072  43.315  32.448   3.229
96005W        W63073  17.149   1.357  11.547
96006W        W63074   8.230   2.375   3.324
96007W        W63075   2.965  34.910   2.712
96008W        W63076  19.073  25.708  11.966
96009W        W63077  34.939   9.244  10.537
96010W        W63078  10.187  42.891  11.879
96011W        W63079  17.581  17.096  12.493
96012W        W63080  31.017  36.407   0.414
96013W        W63081  24.578   7.281   4.290
96014W        W63082   0.400  31.115  13.514
96015W        W63083   2.245  31.976  12.455
96016W        W63084  35.928  35.446  13.046
96017W        W63085  11.238   2.744  14.370
96018W        W63086  44.374  11.360  11.049
96019W        W63087  20.250  41.424   0.330
96020W        W63088  11.642  36.030  14.381
96021W        W63089  22.244   1.347   4.113
96022W        W63090  28.620  35.044  10.544
96023W        W63091   4.315  24.633   1.388
96024W        W63092   3.805   9.208  11.520
96025W        W63093  17.599   8.355  10.118
96026W        W63094  19.651   5.329   1.913
96027W        W63095  12.158  35.426   0.761
96028W        W63096  11.337  18.269  12.005
96029W        W63097   8.367  22.518   4.221
96030W        W63098   9.282  39.519   4.139
96031W        W63099   6.780  32.949   2.356
96032W        W63100  14.704   1.409  11.044
96033W        W63101  12.798  24.545  11.878
96034W        W63102  37.413  21.261  11.522
96035W        W63103  15.655  23.532  10.919
96036W        W63104  37.486  32.604   4.801
96037W        W63105  44.874  25.978  14.029
96038W        W63106  28.441  38.408   4.739
96039W        W63107  30.974  44.860   0.324
96040W        W63108  36.908  42.408   4.790
96041W        W63109  41.796  11.143   0.936
96042W        W63110  31.553  41.801  13.367
96043W        W63111  16.742  38.862   0.862
96044W        W63112   0.987  14.651   1.890
96045W        W63113   5.792  41.979   2.226
96046W        W63114  14.706  30.636   2.326
96047W        W63115   2.857   4.313   4.643
96048W        W63116  22.087  40.458   0.471
96049W        W63117  18.257   1.943   0.372
96050W        W63118  31.557  34.456  10.999
96051W        W63119  15.146  37.527  14.006
96052W        W63120  38.434   1.366   2.265
96053W        W63121   6.243  37.433   3.252
96054W        W63122   7.669  25.082   4.793
96055W        W63123   3.747  10.218   0.371
96056W        W63124  44.341  27.645   4.659
96057W        W63125   7.214  22.649  13.924
96058W        W63126   5.717   5.432   0.459
96059W        W63127  18.750  11.846  11.967
96060W        W63128   3.904   9.863  11.432
96061W        W63129  44.928   0.264  12.400
96062W        W63130   3.395  16.151   3.731
96063W        W63131  32.548  39.392  13.514
96064W        W63132  43.363  21.251   3.726
96065W        W63133   4.726  29.432   0.461
96066W        W63134  19.668  30.050   4.176
96067W        W63135   3.324   4.713  11.562
96068W        W63136   0.884   0.343  13.039
96069W        W63137   8.871  29.174  14.789
96070W        W63138   1.267  15.192  13.809
96071W        W63139  20.237  19.184  11.109
96072W        W63140  14.228  32.907  11.550
96073W        W63141  43.305  27.995  13.887
96074W        W63142   5.908   5.329   1.218
96075W        W63143  14.270  44.955  11.424
96076W        W63144  31.506   5.764   1.798
96077W        W63145  14.164  42.926   3.183
96078W        W63146  42.024   3.882   4.770
96079W        W63147  44.486  39.989   0.816
96080W        W63148  20.060  44.777  12.904
96081W        W63149  13.638  31.532  14.868
96082W        W63150   4.894  23.995   1.419
96083W        W63151  24.657  33.380  13.484
96084W        W63152  13.168  44.865  12.861
96085W        W63153  29.031  10.358   1.710
96086W        W63154   2.866  31.577   0.894
96087W        W63155  31.622  20.241  12.895
96088W        W63156  11.858   4.906  10.530
96089W        W63157  35.466  26.678  10.538
96090W        W63158  18.113  13.195  12.968
96091W        W63159   6.208  20.137   2.897
96092W        W63160  28.674  36.023  14.911
96093W        W63161  43.844  41.299  14.002
96094W        W63162  33.041  14.617  14.005
96095W        W63163   3.861  24.032   0.291
96096W        W63164  12.646   7.833   2.674
96097W        W63165  22.734  10.336   3.691
96098W        W63166  35.438  30.563   3.376
96099W        W63167   3.926  27.092   3.771
96100W        W63168  25.005  31.471  11.532
96101W        W63169  13.767  20.643   1.737
96102W        W63170  41.485  32.525   2.309
96103W        W63171  39.504   9.654  12.844
96104W        W63172  27.994  28.501   1.348
96105W        W63173  31.416  35.931  12.566
96106W        W63174  38.373  39.832  12.452
96107W        W63175  15.138  43.828  12.073
96108W        W63176  27.510  42.913   2.898
96109W        W63177  38.946   7.878   0.308
96110W        W63178   5.348  21.113  14.440
96111W        W63179  14.113  41.531   2.199
96112W        W63180  29.498   0.250  11.940
96113W        W63181  34.103   8.325   0.909
96114W        W63182  17.729  10.156  10.935
96115W        W63183  24.039  12.313   3.633
96116W        W63184  41.914  37.922   0.251
96117W        W63185  11.230  43.014  14.849
96118W        W63186  43.906  40.463   1.748
96119W        W63187   7.198  13.287   3.783
96120W        W63188  34.567   6.380  12.073
96121W        W63189  28.495   7.837  11.891
96122W        W63190  10.726  22.589   4.303
96123W        W63191  11.348  25.179  14.401
96124W        W63192  31.909  37.881   0.851
96125W        W63193   1.838  11.287  14.313
96126W        W63194  19.764  17.130  13.502
96127W        W63195  11.798  40.504  14.319
96128W        W63196  37.435  39.955   3.655
96129W        W63197  15.793  44.933   5.150
96130W        W63198  21.614  11.650  10.901
96131W        W63199  17.714  43.426   4.644
96132W        W63200  28.020   8.350  13.342
96133W        W63201  24.650  28.995   3.751
96134W        W63202  36.863   1.428  12.946
96135W        W63203  17.279  11.765   5.151
96136W        W63204   9.250   6.277   0.324
96137W        W63205  18.781  25.169  10.559
96138W        W63206  23.584  26.106  12.908
96139W        W63207   8.179  36.921  13.378
96140W        W63208   0.953  30.991  12.982
96141W        W63209  42.032  43.889  14.487
96142W        W63210   1.778  36.988   1.839
96143W        W63211  27.160  34.019  12.377
96144W        W63212  20.037   8.210  11.556
96145W        W63213  32.056   2.903  11.489
96146W        W63214   9.809  31.485   4.281
96147W        W63215  22.016  33.007  12.416
96148W        W63216  38.434  25.135   0.418
96149W        W63217   3.453  31.078   1.861
96150W        W63218  35.380  12.632   2.682
96151W        W63219   1.962  12.626  14.454
96152W        W63220  30.986  18.568  13.978
96153W        W63221  43.984  19.718  11.496
96154W        W63222   1.466  31.998  10.914
96155W        W63223  14.288  19.140  12.401
96156W        W63224  23.713   8.172   3.631
96157W        W63225  14.167  42.996  14.930
96158W        W63226   1.458  19.263  12.096
96159W        W63227  36.426  27.185   4.742
96160W        W63228  33.530  36.490  14.451
96161W        W63229  41.791  11.827  13.031
96162W        W63230  13.282  41.490   2.753
96163W        W63231  13.783  21.139   1.289
96164W        W63232  37.852  12.231   4.839
96165W        W63233  33.885  13.721  14.513
96166W        W63234  32.127  32.888   3.714
96167W        W63235   3.948  30.520   3.847
96168W        W63236  38.560  30.554   3.275
96169W        W63237  37.579  40.942   1.235
96170W        W63238  23.066  34.462   4.284
96171W        W63239   4.374  30.925   3.360
96172W        W63240   5.238  35.601  12.028
96173W        W63241  16.652   7.794  11.478
96174W        W63242  40.831  29.445  13.790
96175W        W63243  20.031  42.004   3.790
96176W        W63244  31.940  21.585  13.465
96177W        W63245  17.623  21.583   9.536
96178W        W63246  31.542  36.401   1.747
96179W        W63247  22.746  44.913  13.841
96180W        W63248  21.103   2.908  13.308
96181W        W63249   0.863  16.771  13.035
96182W        W63250  31.441  38.915  14.333
96183W        W63251  15.802  18.763  12.828
96184W        W63252  34.099   3.856   1.406
96185W        W63253  26.169  44.993   2.250
96186W        W63254  44.872  26.128  11.470
96187W        W63255  11.640  41.954  12.020
96188W        W63256  24.057  17.113   2.670
96189W        W63257  36.561   3.752  12.892
96190W        W63258   4.449  14.227  11.596
96191W        W63259  21.694  29.939   2.873
96192W        W63260  17.305  33.902  11.382
96193W        W63261  25.028  16.774  10.977
96194W        W63262  20.242  28.535  12.488
96195W        W63263  24.222  33.099   2.738
96196W        W63264  34.053  13.333   0.915
96197W        W63265   8.294  40.375   1.901
96198W        W63266  26.027  17.303   2.206
96199W        W63267  31.985  36.487   0.371
96200W        W63268  21.135   6.288  12.563
96201W        W63269  10.282  25.977  14.796
96202W        W63270  34.585  18.256  10.916
96203W        W63271  38.977  43.981  13.827
96204W        W63272  32.543  22.653  10.127
96205W        W63273  34.927  35.960  11.432
96206W        W63274  38.426  39.558   0.411
96207W        W63275  34.498   0.249   1.882
96208W        W63276  25.080  34.075   1.231
96209W        W63277  12.260  11.201  11.050
96210W        W63278  25.045   9.819  13.457
96211W        W63279  29.562   3.227   2.316
96212W        W63280  14.227  29.599   2.296
96213W        W63281  13.217  40.940   0.319
96214W        W63282  42.517  23.126  13.455
96215W        W63283  33.484  41.882   3.736
96216W        W63284  22.695   2.390   1.832
96217W        W63285  42.791  33.095   4.221
96218W        W63286   4.703  23.703  13.450
96219W        W63287  22.057  25.553  12.549
96220W        W63288  32.559  15.299  14.760
96221W        W63289  12.702  26.994   4.695
96222W        W63290  10.676  41.887   3.312
96223W        W63291   4.395  28.505  12.477
96224W        W63292  44.313  15.131   1.409
96225W        W63293  35.946  38.360  14.393
96226W        W63294   3.445  38.461  13.545
96227W        W63295  37.912  31.999   3.357
96228W        W63296  40.949  11.239   3.330
96229W        W63297  38.064   0.300  14.436
96230W        W63298  40.014  41.511   2.859
96231W        W63299  31.965  30.497   1.303
96232W        W63300  30.060  16.227   4.233
96233W        W63301  32.428  34.105   0.421
96234W        W63302  12.225  10.789  13.408
96235W        W63303  22.669   5.893   0.935
96236W        W63304  42.828  31.041  11.861
96237W        W63305  21.115  18.279  12.974
96238W        W63306   4.854  36.945  13.966
96239W        W63307  37.021  30.158   2.375
96240W        W63308  36.882  36.045   4.678
96241W        W63309  32.026  41.967  12.050
96242W        W63310  11.748  20.683   2.419
96243W        W63311  23.669   9.881  11.939
96244W        W63312  23.219  11.281  14.805
96245W        W63313  27.129  14.250   5.162
96246W        W63314  41.949  28.667  14.505
96247W        W63315  20.169  33.874  13.891
96248W        W63316  20.207  35.037  14.878
96249W        W63317  19.610  32.057   5.176
96250W        W63318  12.283   8.286  10.899
96251W        W63319  11.219  19.121  12.024
96252W        W63320  13.159  34.979   2.260
96253W        W63321   0.487   5.239   0.393
96254W        W63322  14.617   5.388   0.353
96255W        W63323  24.500  43.453   0.789
96256W        W63324  40.308  32.990   0.474
96257W        W63325  30.613  44.991  12.977
96258W        W63326  43.296  38.903  10.961
96259W        W63327  17.639  33.943  12.348
96260W        W63328  20.238  17.100  12.554
96261W        W63329  32.977  43.919   2.810
96262W        W63330  20.126  38.552   4.749
96263W        W63331  10.877  17.620  13.020
96264W        W63332  24.658  19.695   1.387
96265W        W63333   6.417  11.848   1.721
96266W        W63334   9.306  44.814   1.409
96267W        W63335   3.800  10.840   3.344
96268W        W63336  32.086  38.522   4.678
96269W        W63337  11.342   4.873   2.350
96270W        W63338  43.992  28.028  10.155
96271W        W63339   8.771  30.415  14.759
96272W        W63340  38.436  33.547   1.245
96273W        W63341  30.500  22.565  12.001
96274W        W63342  30.532   2.806   0.340
96275W        W63343  44.759   6.897   0.466
96276W        W63344  30.047  36.450  14.999
96277W        W63345  32.006  12.323   1.926
96278W        W63346  15.204   0.939  13.830
96279W        W63347   1.822  32.425   2.824
96280W        W63348  40.321  29.007  10.579
96281W        W63349  21.597  40.314  12.448
96282W        W63350  42.305  41.378  13.897
96283W        W63351  39.063  11.227  14.470
96284W        W63352  36.459   9.710   3.177
96285W        W63353  41.907  26.014   1.425
96286W        W63354  44.416  42.484   2.795
96287W        W63355  35.999  26.139   4.331
96288W        W63356  12.714  38.860  11.448
96289W        W63357  33.982   0.764  10.430
96290W        W63358  40.033  34.560   4.151
96291W        W63359  10.379  21.076   3.250
96292W        W63360   8.829  23.670  10.053
96293W        W63361  32.484  18.720   0.831
96294W        W63362  27.952  25.567   4.690
96295W        W63363  10.201  12.249   2.213
96296W        W63364  35.526  27.498   4.745
96297W        W63365  17.200  23.995   4.127
96298W        W63366  27.182  11.311   3.672
96299W        W63367   4.418  19.621   0.916
96300W        W63368   3.887   3.264   3.862
96301W        W63369  18.253  40.936   4.762
96302W        W63370   2.433  28.030   2.802
96303W        W63371  41.463  28.148   2.893
96304W        W63372  39.034  37.867   0.900
96305W        W63373  16.569  31.013  14.937
96306W        W63374  38.891  31.909   4.800
96307W        W63375  38.567  14.634  12.580
96308W        W63376  15.705  43.281  11.019
96309W        W63377  24.573  25.537   0.342
96310W        W63378  16.643  30.090  13.497
96311W        W63379  34.038  35.386   1.832
96312W        W63380  30.471  33.941  10.913
96313W        W63381  29.010  24.044   4.144
96314W        W63382   9.185  32.051   3.684
96315W        W63383  26.161  24.689  10.485
96316W        W63384  23.028  19.707   2.901
96317W        W63385  16.246  41.821   4.174
96318W        W63386   7.679  43.978   1.832
96319W        W63387   6.204   3.258   1.232
96320W        W63388  12.691  36.574  11.516
96321W        W63389  30.636   3.300   1.822
96322W        W63390  33.916  12.801   1.849
96323W        W63391   1.335  12.800  12.034
96324W        W63392   1.793  19.717   1.355
96325W        W63393  24.662  29.460  12.830
96326W        W63394  42.883   3.256   1.338
96327W        W63395  44.431  35.367  10.486
96328W        W63396  14.791  11.766   3.354
96329W        W63397  14.324  39.055  14.460
96330W        W63398  12.200  24.103   4.704
96331W        W63399   7.759   4.771   1.407
96332W        W63400  41.498  38.506  13.547
96333W        W63401   3.878  15.781  14.395
96334W        W63402  34.035  22.173   1.377
96335W        W63403   5.794   4.266  12.974
96336W        W63404  26.154  18.786   3.349
96337W        W63405  28.073   3.806  11.516
96338W        W63406  42.008  23.599   0.466
96339W        W63407  21.620  19.213  11.418
96340W        W63408   4.339  34.456   4.745
96341W        W63409  22.231   6.378  12.533
96342W        W63410  17.573  10.860  14.822
96343W        W63411   7.179  27.492   0.875
96344W        W63412   9.369  40.500   3.748
96345W        W63413   0.418  34.946  13.422
96346W        W63414  39.385  31.616  12.864
96347W        W63415  38.482  12.645   3.761
96348W        W63416  34.923  16.256   3.717
96349W        W63417   0.756  18.559   3.744
96350W        W63418  17.083  33.106  12.423
96351W        W63419  24.013  33.071  13.426
96352W        W63420  35.551  25.640   1.911
96353W        W63421  44.796   7.304   4.829
96354W        W63422  33.407  22.722  10.940
96355W        W63423  26.202  39.873   3.266
96356W        W63424  35.879  24.054  11.542
96357W        W63425  24.217  38.989   4.691
96358W        W63426  26.036   8.708  12.879
96359W        W63427  25.998  43.888  13.981
96360W        W63428  39.866  39.867   4.237
96361W        W63429  42.847  26.959  13.815
96362W        W63430   0.461  22.017   3.867
96363W        W63431  43.823  31.935   3.810
96364W        W63432  18.716   4.794  10.137
96365W        W63433  12.254  29.587   1.253
96366W        W63434  41.884  23.641   3.256
96367W        W63435  37.916  20.650  12.060
96368W        W63436  20.675   2.761  13.867
96369W        W63437  41.883  29.036  12.527
96370W        W63438   1.830  27.947  13.546
96371W        W63439  42.815   3.722  13.481
96372W        W63440   3.286  15.663  14.471
96373W        W63441   7.288  13.317   0.320
96374W        W63442  33.880  31.042   2.416
96375W        W63443  39.400   3.858  12.884
96376W        W63444   1.756  14.792  12.060
96377W        W63445   9.249  24.710  11.572
96378W        W63446  43.373  19.128   2.334
96379W        W63447  36.966  14.137   1.377
96380W        W63448   9.358  30.471   3.190
96381W        W63449  27.097  31.476  12.577
96382W        W63450  40.328  24.212   0.870
96383W        W63451  25.117  19.580   1.292
96384W        W63452   6.768  37.856  13.539
96385W        W63453  21.123  19.665  12.484
96386W        W63454  41.298  23.087  14.406
96387W        W63455  22.238  13.601  13.335
96388W        W63456  35.064  12.822  12.968
96389W        W63457  27.005   1.886   3.229
96390W        W63458   3.342  39.003   0.439
96391W        W63459  34.929  37.374  10.419
96392W        W63460  19.723  24.550   4.222
96393W        W63461  22.671  18.206   0.366
96394W        W63462  23.647  35.883  10.999
96395W        W63463  15.676   8.782   0.406
96396W        W63464  25.116   8.672  10.474
96397W        W63465  40.934   0.480   3.709
96398W        W63466  37.838  41.382   3.660
96399W        W63467  15.105  39.922  14.310
96400W        W63468   7.351  41.515   4.737
96401W        W63469   5.331  29.537  12.034
96402W        W63470  44.397  24.518   1.437
96403W        W63471   7.412  35.877  10.979
96404W        W63472  28.161  27.106  13.391
96405W        W63473  14.109  24.537  13.910
96406W        W63474  37.855  40.477   3.220
96407W        W63475  17.641  22.220   4.261
96408W        W63476   7.345  37.957  13.465
96409W        W63477  23.187   6.811   1.781
96410W        W63478  42.441  18.680   4.345
96411W        W63479   2.315   2.958  13.343
96412W        W63480   8.873  19.195   0.930
96413W        W63481  22.184  42.325  10.983
96414W        W63482  37.535   3.934  13.007
96415W        W63483  18.244  11.213  11.957
96416W        W63484  39.430  22.597  10.110
96417W        W63485  18.252  16.283  12.362
96418W        W63486  22.612  23.690  11.390
96419W        W63487  12.121  30.482   4.280
96420W        W63488   5.726  12.805  12.053
96421W        W63489  41.329  14.708  14.451
96422W        W63490  36.857  12.626  10.416
96423W        W63491  31.406  30.545   3.289
96424W        W63492  37.942  44.864   0.897
96425W        W63493   4.269  16.626  12.544
96426W        W63494  44.921  44.844  11.441
96427W        W63495   7.261  29.939   1.364
96428W        W63496  20.191  11.796  11.535
96429W        W63497  35.954   3.783  13.002
96430W        W63498  26.202  15.721   4.803
96431W        W63499  12.662  23.058   3.685
96432W        W63500  25.648   1.438   0.757
96433W        W63501  31.135   8.405  14.878
96434W        W63502  18.278   2.275   0.481
96435W        W63503  44.292  42.840   0.464
96436W        W63504  17.623   7.372  13.381
96437W        W63505  22.240  13.815   2.398
96438W        W63506  19.655   4.727  11.042
96439W        W63507  32.392  42.954   4.132
96440W        W63508  42.902  31.537  12.361
96441W        W63509  28.587  20.753   3.775
96442W        W63510  30.524   5.798  11.075
96443W        W63511  37.369  18.621   3.336
96444W        W63512   5.915  19.735   0.440
96445W        W63513  24.009  28.459  12.076
96446W        W63514  36.371   1.247   0.820
96447W        W63515   3.349   2.328   3.868
96448W        W63516  34.113  35.505   0.394
96449W        W63517   8.262  35.031   3.664
96450W        W63518  12.765  28.935  14.975
96451W        W63519  15.761  10.708   2.705
96452W        W63520  36.352  33.919  12.443
96453W        W63521  14.641  15.648   0.392
96454W        W63522  21.596  24.575   4.754
96455W        W63523   0.949  27.520  11.494
96456W        W63524  25.171  12.819  10.422
96457W        W63525  36.980   8.757   4.753
96458W        W63526  15.675  11.151   0.884
96459W        W63527  13.342  22.205  12.518
96460W        W63528  37.079  32.532  12.962
96461W        W63529  42.837  11.821  14.984
96462W        W63530   9.691  20.157   0.344
96463W        W63531  43.320  41.364  11.976
96464W        W63532   6.273  37.571  11.485
96465W        W63533  10.322   2.294   2.694
96466W        W63534  42.984  31.645  10.486
96467W        W63535  27.050   1.458   0.339
96468W        W63536  34.043  11.795  14.893
96469W        W63537  41.382  30.505   2.201
96470W        W63538  30.104  11.372  10.467
96471W        W63539  26.530  18.613   1.747
96472W        W63540  31.017  23.215   1.425
96473W        W63541   6.349  18.718   3.255
96474W        W63542  13.113  41.818   1.737
96475W        W63543  14.588  20.653  12.519
96476W        W63544  25.197  22.688  13.308
96477W        W63545   4.229   6.749  14.027
96478W        W63546  28.450  32.141   3.700
96479W        W63547  14.172   8.826   1.711
96480W        W63548   3.779   1.955  14.344
96481W        W63549  32.601  35.457  13.043
96482W        W63550  36.570   9.785   3.854
96483W        W63551  25.032  10.372   4.169
96484W        W63552  31.967   1.732   2.332
96485W        W63553  44.873  11.200  14.872
96486W        W63554  34.570   4.341  10.958
96487W        W63555  14.095   0.914   2.686
96488W        W63556   8.882  35.474  13.404
96489W        W63557  16.319  11.323   5.306
96490W        W63558  22.050   9.795  11.434
96491W        W63559  30.027  34.487   1.353
96492W        W63560   8.685  20.224  11.072
96493W        W63561  16.582  20.703   1.886
96494W        W63562  41.789   1.957   3.372
96495W        W63563  43.285   5.722  14.814
96496W        W63564  27.664  29.628   2.797
96497W        W63565  44.906  40.456  11.103
96498W        W63566  23.558  13.615  10.981
96499W        W63567  26.666  12.737  12.562
96500W        W63568   3.242  35.015  11.402
96501W        W63569   7.912  17.706  11.072
96502W        W63570   0.859   9.172   3.300
96503W        W63571   6.821  32.408  13.959
96504W        W63572   8.793  31.504   4.615
96505W        W63573  11.758  21.255   0.806
96506W        W63574   9.649  38.546   4.127
96507W        W63575  34.024  24.098   4.801
96508W        W63576  35.958  12.613  11.420
96509W        W63577  34.921  32.126   5.146
96510W        W63578  15.764   9.818   4.723
96511W        W63579   0.806  44.373  11.450
96512W        W63580  39.481   6.906   4.231
96513W        W63581  16.217  15.306   1.292
96514W        W63582  25.075  25.083   4.320
96515W        W63583   2.407  20.713   1.450
96516W        W63584  38.491  18.091   0.814
96517W        W63585  26.642  35.913  11.985
96518W        W63586  10.232  40.815  14.464
96519W        W63587  21.660  40.884   1.874
96520W        W63588  13.700  41.345  13.453
96521W        W63589  44.830   7.203   0.415
96522W        W63590  43.442  30.593   0.452
96523W        W63591  25.173  19.078   4.324
96524W        W63592  35.551  20.049   4.606
96525W        W63593  19.054  12.226   4.608
96526W        W63594  16.117  24.168   0.750
96527W        W63595  29.128  10.287   3.310
96528W        W63596  15.319  44.338   1.804
96529W        W63597  25.162  16.091  13.910
96530W        W63598  19.047  14.605  14.927
96531W        W63599  42.840  16.610   0.824
96532W        W63600   1.950  37.470   2.416
96533W        W63601  38.936  37.921  13.901
96534W        W63602  44.813  29.111   4.758
96535W        W63603  17.595  28.111  14.977
96536W        W63604  29.931  39.021   0.427
96537W        W63605  31.988  36.857   2.339
96538W        W63606  22.569  43.302   4.171
96539W        W63607  35.903  24.215   3.732
96540W        W63608  40.385  23.061   3.821
96541W        W63609  43.915  32.575   2.181
96542W        W63610  36.976   1.772  13.372
96543W        W63611   9.366  43.316  14.381
96544W        W63612  30.521   6.849  13.397
96545W        W63613  18.693   3.851   0.334
96546W        W63614  18.095   7.878  10.972
96547W        W63615  33.970  42.893  11.988
96548W        W63616  33.071   7.890   4.835
96549W        W63617  43.976   8.879   3.830
96550W        W63618  16.300  29.610   4.193
96551W        W63619   7.812  29.651  11.493
96552W        W63620   3.226  11.279  10.934
96553W        W63621  20.672  28.965   2.761
96554W        W63622  34.935  10.854  12.421
96555W        W63623  42.803   7.698  14.377
96556W        W63624  27.054  41.361  12.575
96557W        W63625  25.633  43.824   3.665
96558W        W63626  40.422  27.175   1.800
96559W        W63627  11.235  29.952  13.964
96560W        W63628  30.648  23.523  14.967
96561W        W63629   0.945  14.305   0.920
96562W        W63630   6.786  31.143   4.337
96563W        W63631  31.006   7.825  12.846
96564W        W63632  24.151  13.222  12.024
96565W        W63633   5.384  41.433   1.912
96566W        W63634  30.140   4.251  12.423
96567W        W63635   1.335  12.760   4.680
96568W        W63636  14.623  22.687  12.051
96569W        W63637  42.524  26.571  12.062
96570W        W63638  25.522  42.500   2.853
96571W        W63639   3.301  30.601  12.040
96572W        W63640  33.018   5.336  13.920
96573W        W63641  41.790  23.153   1.297
96574W        W63642   8.337  27.542  12.967
96575W        W63643  28.671  24.515   0.912
96576W        W63644  34.603   5.412  11.082
96577W        W63645   3.887  28.164  11.051
96578W        W63646  13.298   0.794  14.285
96579W        W63647  26.006  31.944   5.211
96580W        W63648  40.493  14.650  11.893
96581W        W63649  21.560   0.883  11.116
96582W        W63650   3.399  20.631  10.124
96583W        W63651   9.775  12.846   3.782
96584W        W63652   6.764  31.428  10.441
96585W        W63653  37.553  17.254  11.383
96586W        W63654   8.405   3.256   4.217
96587W        W63655  20.723   9.312  14.383
96588W        W63656   1.472  23.573   4.694
96589W        W63657  30.960  25.199  13.063
96590W        W63658  30.995   6.226   0.452
96591W        W63659   1.459   6.372   1.325
96592W        W63660   7.343  17.635   1.890
96593W        W63661  21.573  26.168   4.222
96594W        W63662  22.684  20.706   1.277
96595W        W63663  31.587  32.888   2.411
96596W        W63664  27.074  35.033  12.523
96597W        W63665  16.315  25.680   4.757
96598W        W63666  26.703  20.681  14.506
96599W        W63667  40.839  12.765   2.696
96600W        W63668  19.124  38.887  12.497
96601W        W63669  36.462  42.852  13.521
96602W        W63670  44.889  37.457  10.447
96603W        W63671  29.980   6.841   0.766
96604W        W63672  38.038   1.896   2.385
96605W        W63673  20.616  36.078  12.545
96606W        W63674  35.921   1.254   4.224
96607W        W63675  30.423  16.295  11.067
96608W        W63676  41.366  13.631   1.793
96609W        W63677  38.926  32.537  13.057
96610W        W63678  13.280  17.713  12.538
96611W        W63679   7.723  35.003  10.566
96612W        W63680  41.838  41.810  13.307
96613W        W63681  10.687  23.526   0.932
96614W        W63682   8.794   4.877   3.152
96615W        W63683  14.251  37.379  14.975
96616W        W63684  39.929  41.813   2.801
96617W        W63685   7.812  35.361   1.288
96618W        W63686  24.629  25.153  12.568
96619W        W63687  42.357  30.609  10.636
96620W        W63688   0.381  16.200  11.565
96621W        W63689  14.282  28.138  14.387
96622W        W63690  42.970  39.425  11.416
96623W        W63691  14.147   9.791   3.757
96624W        W63692  37.368  41.447  12.897
96625W        W63693  11.218  30.476   1.251
96626W        W63694  15.214   2.242   1.836
96627W        W63695   4.780  40.519   4.647
96628W        W63696  42.849  18.206   4.662
96629W        W63697  12.330   2.965  11.109
96630W        W63698   3.760   4.932   2.214
96631W        W63699  10.384  26.470  11.512
96632W        W63700   8.327  26.045   2.874
96633W        W63701   0.958  42.351  12.551
96634W        W63702  12.620  21.095   0.477
96635W        W63703   5.694  36.853  14.325
96636W        W63704  36.437  24.618   0.419
96637W        W63705   0.870  14.726   2.873
96638W        W63706  44.363  36.851   0.244
96639W        W63707  13.113  42.426  13.997
96640W        W63708   3.937   4.764   3.732
96641W        W63709   1.408   9.740  12.563
96642W        W63710  25.049  14.620  13.923
96643W        W63711  40.519  30.601  12.949
96644W        W63712  24.570   9.282   0.775
96645W        W63713  32.109  19.556  12.557
96646W        W63714   4.210  39.839   1.889
96647W        W63715  33.541  22.744  10.036
96648W        W63716  17.753  38.936   3.784
96649W        W63717  10.640  14.798  12.083
96650W        W63718  13.689  23.561  11.590
96651W        W63719  42.365   1.341   3.788
96652W        W63720  44.910   7.336  14.980
96653W        W63721  36.006  29.642   1.741
96654W        W63722  23.631   4.262  11.879
96655W        W63723   4.444  15.095  13.886
96656W        W63724   1.759   5.204  12.527
96657W        W63725  19.118  43.793   0.338
96658W        W63726   0.318  12.849  11.873
96659W        W63727  19.595  19.221  14.840
96660W        W63728  23.676  27.963   1.788
96661W        W63729   6.389  21.726  12.953
96662W        W63730  31.482  44.932  10.493
96663W        W63731   8.184  24.103   1.709
96664W        W63732  22.621  17.760  14.851
96665W        W63733  12.261   4.743   2.757
96666W        W63734  30.937  42.488  13.021
96667W        W63735  31.575   2.933  13.058
96668W        W63736  30.001  38.509  14.853
96669W        W63737  12.748   2.453  13.460
96670W        W63738  42.419   3.409  14.442
96671W        W63739  42.976   1.766   0.440
96672W        W63740  35.409  38.071  12.412
96673W        W63741  20.076  41.394  12.971
96674W        W63742  35.856  24.131  11.938
96675W        W63743   4.350  33.474   2.694
96676W        W63744  36.974  33.059  11.415
96677W        W63745   3.248  19.699  12.895
96678W        W63746  34.875  12.755   2.336
96679W        W63747  36.573  30.956   4.683
96680W        W63748  30.084  15.663  14.974
96681W        W63749  44.456  19.111  12.343
96682W        W63750  20.073  40.884  11.044
96683W        W63751  23.706  34.375   2.701
96684W        W63752  16.575  42.014   2.814
96685W        W63753  11.813  20.039   0.369
96686W        W63754  31.460   4.268   0.829
96687W        W63755  28.590  22.507  12.487
96688W        W63756  42.894  37.944   1.232
96689W        W63757   3.884  33.495  11.011
96690W        W63758  21.111  22.996   2.375
96691W        W63759  24.993  24.588   4.818
96692W        W63760  36.899  18.560  13.525
96693W        W63761  38.540  16.202   3.343
96694W        W63762  17.600  27.616   2.232
96695W        W63763  35.464  11.832  13.421
96696W        W63764  29.036  20.616   4.205
96697W        W63765  36.579  41.372   1.910
96698W        W63766   8.820  20.196  11.862
96699W        W63767  13.821   9.888   3.834
96700W        W63768  37.523  17.234  12.361
96701W        W63769   0.419  22.044   4.346
96702W        W63770  41.372  34.900  13.414
96703W        W63771  15.169  43.444  13.986
96704W        W63772  34.399  38.932  13.327
96705W        W63773  17.175   4.725  11.513
96706W        W63774  44.402  35.072  10.473
96707W        W63775   0.374   7.356   0.446
96708W        W63776  37.521  41.407  13.977
96709W        W63777  17.174  33.965   0.285
96710W        W63778  44.931  32.541   1.360
96711W        W63779  17.244  34.899  14.474
96712W        W63780  29.067  12.353  14.450
96713W        W63781   5.428  28.453  11.577
96714W        W63782  13.649  29.922  11.074
96715W        W63783  16.778   7.906  12.544
96716W        W63784  10.319  19.624  13.046
96717W        W63785  29.585  36.411  13.050
96718W        W63786  33.509  38.851  12.443
96719W        W63787  20.207  15.727  14.442
96720W        W63788  22.215  26.685  13.878
96721W        W63789  14.753  38.475  13.871
96722W        W63790  23.081  15.231   4.834
96723W        W63791  44.362   8.298  11.383
96724W        W63792  14.314  43.287   1.800
96725W        W63793  13.251  22.183  11.965
96726W        W63794  37.526  15.787  13.034
96727W        W63795  24.016  35.895  13.356
96728W        W63796  34.593   3.457   1.219
96729W        W63797   0.825  22.012  14.968
96730W        W63798  19.100  38.517  13.924
96731W        W63799  11.163  23.679   2.240
96732W        W63800   6.339  31.920  14.797
96733W        W63801  33.987  33.035  13.061
96734W        W63802  32.606   2.927   4.279
96735W        W63803  30.962  32.433  12.865
96736W        W63804   7.689  17.289   4.221
96737W        W63805  15.799  21.748  12.004
96738W        W63806  19.178  41.829  10.927
96739W        W63807   8.347  35.491   1.707
96740W        W63808   1.879  21.219  10.611
96741W        W63809  17.767  27.590  10.411
96742W        W63810  19.047  41.354   1.243
96743W        W63811  27.106  31.954  11.571
96744W        W63812  34.512  42.471  12.825
96745W        W63813  36.587   1.378   2.407
96746W        W63814  13.625  35.406  13.943
96747W        W63815  35.041  29.922   3.249
96748W        W63816  26.649  42.325  14.837
96749W        W63817  16.143  34.994  14.844
96750W        W63818  28.533  43.505  11.605
96751W        W63819  33.491  11.842   2.220
96752W        W63820   0.364   0.795   0.289
96753W        W63821   1.323  42.958  11.056
96754W        W63822  13.178  29.947   2.727
96755W        W63823   3.422   6.830   0.432
96756W        W63824   6.911   4.257  14.007
96757W        W63825  39.013  28.162  10.480
96758W        W63826   8.706  19.185  13.055
96759W        W63827  19.697   9.781  10.090
96760W        W63828   6.841  24.042   3.273
96761W        W63829  27.963  19.555   0.396
96762W        W63830  17.136  29.973   2.836
96763W        W63831  15.728  26.639   0.918
96764W        W63832  41.994  38.472   2.222
96765W        W63833  22.238  36.489   4.148
96766W        W63834  40.406  20.623   3.233
96767W        W63835  36.901   2.864  13.334
96768W        W63836  38.004   7.250   3.632
96769W        W63837  14.808   6.308  13.997
96770W        W63838   7.735  44.495  10.088
96771W        W63839  43.984  14.638   0.742
96772W        W63840  24.649  10.290   4.201
96773W        W63841  11.783  26.477   1.843
96774W        W63842  37.543   7.677   4.242
96775W        W63843  36.919   0.268   0.939
96776W        W63844   3.954  32.911   0.280
96777W        W63845  22.198   0.797  14.440
96778W        W63846  39.496  19.569  11.865
96779W        W63847  40.501  29.473   1.779
96780W        W63848  42.806  34.886   5.138
96781W        W63849  25.069   3.879  11.017
96782W        W63850   6.219  25.552   3.266
96783W        W63851  34.392   8.328  12.063
96784W        W63852  29.480  12.802  13.923
96785W        W63853  27.610   5.334  14.462
96786W        W63854   4.204   7.400  14.444
96787W        W63855  35.535  41.884  11.461
96788W        W63856  39.828   6.689   0.967
96789W        W63857  21.153  10.221   1.346
96790W        W63858  26.539  20.738  11.908
96791W        W63859  16.589  28.556  10.587
96792W        W63860   6.343  44.763   2.191
96793W        W63861  28.084  34.388   9.543
96794W        W63862  24.012  14.670   3.232
96795W        W63863  15.673  29.510  14.332
96796W        W63864  19.249  28.108  13.839
96797W        W63865  15.690   9.382  14.942
96798W        W63866   7.864   3.893  13.831
96799W        W63867  38.942  10.655   1.431
96800W        W63868   0.484   1.964   4.182
96801W        W63869  37.460  15.138   2.355
96802W        W63870   9.198   9.841  11.086
96803W        W63871  11.774   6.393  12.450
96804W        W63872  37.958  18.613  10.582
96805W        W63873   4.428  12.185  12.499
96806W        W63874  32.978   8.853  12.915
96807W        W63875  42.787  39.392   2.723
96808W        W63876   3.427  17.672   0.874
96809W        W63877  34.998  17.682   2.356
96810W        W63878  35.364  20.246  10.942
96811W        W63879  18.261  25.692  12.491
96812W        W63880  11.165  41.908  13.412
96813W        W63881  11.804  15.615  12.943
96814W        W63882  38.327   0.366   0.890
96815W        W63883  12.342  11.776  13.453
96816W        W63884  17.596  40.020  10.617
96817W        W63885  38.032  30.492  10.934
96818W        W63886  20.749  36.858   0.475
96819W        W63887  17.783  44.860  11.896
96820W        W63888  28.549  15.230  10.990
96821W        W63889   6.346   3.795  14.016
96822W        W63890  30.976  24.628   0.378
96823W        W63891  15.760  21.746   0.822
96824W        W63892  44.451  37.455   4.826
96825W        W63893  31.643   9.235  11.375
96826W        W63894  43.345  38.055  13.054
96827W        W63895  21.555  13.317  10.468
96828W        W63896  10.817  33.899   3.705
96829W        W63897  42.295   6.834  14.389
96830W        W63898  35.584  39.832   3.716
96831W        W63899  44.857  12.265   4.286
96832W        W63900  42.799  40.530  13.847
96833W        W63901  35.896  33.543  14.402
96834W        W63902  41.834  21.593  10.477
96835W        W63903   7.416  15.754   4.176
96836W        W63904  30.934  38.424  13.823
96837W        W63905  35.372  35.592  11.554
96838W        W63906  39.977  20.227  11.447
96839W        W63907  39.386   6.326   3.807
96840W        W63908  12.696  19.670  11.902
96841W        W63909  36.025  34.096  14.810
96842W        W63910   3.254  28.521   4.633
96843W        W63911   0.871  22.158   1.340
96844W        W63912  11.143   7.792   0.736
96845W        W63913  39.027  18.772   4.711
96846W        W63914  37.030   9.645   1.279
96847W        W63915   7.175   4.238  14.433
96848W        W63916  42.322  16.807  13.963
96849W        W63917  36.050   9.363   4.819
96850W        W63918  27.687   8.890  14.485
96851W        W63919   8.773   3.375   3.769
96852W        W63920  25.208   1.789   1.912
96853W        W63921  44.471  12.267   3.825
96854W        W63922  40.823  14.832  13.525
96855W        W63923   7.819  14.179  14.489
96856W        W63924   8.868   9.344   1.362
96857W        W63925  26.582   2.862   0.867
96858W        W63926   4.835  41.042  14.376
96859W        W63927  43.334  18.202   5.186
96860W        W63928  15.791  22.529   0.327
96861W        W63929  28.502  24.013  12.377
96862W        W63930  34.434  37.855   1.850
96863W        W63931   4.312  32.950   1.916
96864W        W63932   8.377  39.837  14.275
96865W        W63933  10.767   1.320  11.438
96866W        W63934  23.689  30.433   0.481
96867W        W63935  44.369  16.248   2.260
96868W        W63936   4.407  30.468   2.862
96869W        W63937  29.596  40.967  10.553
96870W        W63938  22.080  13.627   3.846
96871W        W63939  18.722  38.902  13.017
96872W        W63940   6.880  32.496  11.083
96873W        W63941  13.188  26.491  13.798
96874W        W63942  14.617  36.516  13.438
96875W        W63943  22.127  40.940  11.035
96876W        W63944   2.796  30.960  11.106
96877W        W63945  43.425   2.329   4.758
96878W        W63946  29.157  24.622   0.353
96879W        W63947  31.091  44.413   0.380
96880W        W63948  20.560  33.615   1.763
96881W        W63949  32.063  32.563   3.315
96882W        W63950  13.798  12.651   0.284
96883W        W63951  23.716   3.306   1.876
96884W        W63952   0.757  29.512  11.999
96885W        W63953  42.955  25.569  13.890
96886W        W63954  36.589  42.932   5.228
96887W        W63955  23.603  14.759  11.067
96888W        W63956  38.376  42.292  14.769
96889W        W63957  31.141   1.882   3.674
96890W        W63958  20.038  43.962   4.652
96891W        W63959   6.753  32.005   3.244
96892W        W63960  19.157  41.986  10.153
96893W        W63961   7.396  30.474   3.173
96894W        W63962  25.613  16.687   1.232
96895W        W63963  10.339  42.357  14.805
96896W        W63964  10.638  23.686  14.300
96897W        W63965  39.315  18.163   2.209
96898W        W63966  24.153  18.592   1.780
96899W        W63967  17.293  37.507   3.156
96900W        W63968  16.224  33.965   1.324
96901W        W63969  25.491  35.007  10.454
96902W        W63970   0.951  20.617   4.308
96903W        W63971  34.871  27.631  14.849
96904W        W63972   3.384  37.460   3.861
96905W        W63973   8.803   2.367   0.812
96906W        W63974  33.418   0.295  13.793
96907W        W63975  26.505  22.568  11.888
96908W        W63976  13.203  27.082   1.805
96909W        W63977  25.014  39.445   3.641
96910W        W63978  26.524  30.912   3.870
96911W        W63979  27.111  33.446  13.509
96912W        W63980   6.778   9.291  12.477
96913W        W63981   1.810   2.883  14.306
96914W        W63982  31.419  26.694   0.895
96915W        W63983  21.142  20.619  14.826
96916W        W63984  16.790   8.717   2.223
96917W        W63985  13.143  14.703   3.190
96918W        W63986  33.465  30.978  12.432
96919W        W63987   9.724  38.347   3.801
96920W        W63988  44.767   9.808  10.558
96921W        W63989  24.719  24.156   2.244
96922W        W63990  31.569  11.709  12.518
96923W        W63991  23.685  10.177   2.267
96924W        W63992  24.514  41.861  12.504
96925W        W63993   3.229  43.901  14.336
96926W        W63994  25.634  15.608  14.917
96927W        W63995  22.157  42.019   3.644
96928W        W63996  44.349  38.868   2.243
96929W        W63997  43.972  42.926  13.443
96930W        W63998  43.778  19.043  12.070
96931W        W63999  27.979  15.795  14.291
96932W        W64000   8.348  40.308  13.802
96933W        W64001   4.740  37.459   1.778
96934W        W64002   3.753  22.193   4.122
96935W        W64003  15.719  41.930  14.497
96936W        W64004  12.719  33.950   3.223
96937W        W64005  27.085  38.885   3.287
96938W        W64006  13.119  22.207   0.363
96939W        W64007   6.358  35.600   2.285
96940W        W64008  31.416  24.716   4.610
96941W        W64009  30.154  36.958   4.330
96942W        W64010   7.181  26.670  13.513
96943W        W64011  26.005  27.503  12.087
96944W        W64012   1.816   0.411  12.972
96945W        W64013  30.518  37.566   5.296
96946W        W64014  30.917  17.240   4.255
96947W        W64015  15.196   4.295   1.800
96948W        W64016  24.636   3.836   3.782
96949W        W64017  14.589  38.949   1.389
96950W        W64018  33.444  33.612   2.844
96951W        W64019  26.593   1.244  10.579
96952W        W64020  30.116   8.358  11.560
96953W        W64021  34.032  19.765  14.032
96954W        W64022  37.492  30.535  14.448
96955W        W64023  12.121  16.746  11.016
96956W        W64024  22.103   1.974  14.473
96957W        W64025  12.853  11.812  13.498
96958W        W64026  37.919  18.665  12.513
96959W        W64027  33.883   3.854  12.892
96960W        W64028  44.835  17.162   0.917
96961W        W64029  43.841  24.589   3.184
96962W        W64030  40.481  34.031   0.255
96963W        W64031  44.779  16.225   3.382
96964W        W64032  22.218  15.306   0.401
96965W        W64033  17.163   7.799   2.364
96966W        W64034  38.516  37.899   3.241
96967W        W64035  31.406   1.791   2.296
96968W        W64036  11.175  19.741   0.286
96969W        W64037  39.396  29.506  14.285
96970W        W64038  44.905  10.255   4.712
96971W        W64039  37.017  19.126   2.799
96972W        W64040  26.146  27.149   0.758
96973W        W64041  13.712  14.638  11.021
96974W        W64042  11.835   2.815  11.968
96975W        W64043  33.979  41.516   1.309
96976W        W64044  17.644   8.846  13.353
96977W        W64045  23.682  40.332   4.182
96978W        W64046  35.580  33.923   4.800
96979W        W64047  36.560  12.162  11.495
96980W        W64048  33.071  42.479  14.826
96981W        W64049  25.134  21.136  12.925
96982W        W64050  33.404  14.778  14.945
96983W        W64051   5.747  34.033  10.523
96984W        W64052  32.592  36.399   4.793
96985W        W64053  12.208   0.454  11.400
96986W        W64054  37.936  30.043   2.369
96987W        W64055  25.592  12.726  13.015
96988W        W64056   0.401  19.741  13.047
96989W        W64057  10.171  35.574   4.258
96990W        W64058  15.776  33.384   2.823
96991W        W64059  18.547  32.401  11.885
96992W        W64060   3.310  27.088  13.424
96993W        W64061  32.901  37.955  10.607
96994W        W64062  20.657  26.181  11.448
96995W        W64063  23.622   6.842  12.949
96996W        W64064  42.458  20.055   3.652
96997W        W64065   6.752  39.410  11.998
96998W        W64066  37.085  44.916  13.986
96999W        W64067  35.586  37.958   4.312
97000W        W64068  34.947  35.537   1.913
97001W        W64069   4.774  11.857  12.049
97002W        W64070   9.668  30.549   3.301
97003W        W64071  11.298  17.611  13.832
97004W        W64072  13.335  42.874   2.338
97005W        W64073  22.106   5.310   3.735
97006W        W64074  24.177  32.984   4.321
97007W        W64075  27.553  37.449   0.888
97008W        W64076  19.771   9.239   1.784
97009W        W64077  11.315  16.271   1.712
97010W        W64078  23.119  24.566   2.862
97011W        W64079  27.580   3.438  10.542
97012W        W64080  30.504  11.810  13.494
97013W        W64081  26.578  12.275  14.353
97014W        W64082   1.345  31.126   3.312
97015W        W64083  33.060  25.071  14.818
97016W        W64084   5.739  34.493   2.215
97017W        W64085   6.712  24.505   4.194
97018W        W64086  23.094  15.687   4.137
97019W        W64087  26.526  19.605  14.993
97020W        W64088  37.525  43.331   3.646
97021W        W64089  43.399   9.285  13.403
97022W        W64090  21.684   0.410   3.863
97023W        W64091  42.948  23.516   3.695
97024W        W64092  25.674  13.311  13.050
97025W        W64093   3.921  23.179  12.413
97026W        W64094  35.936   5.712   1.897
97027W        W64095   0.395  33.591   2.317
97028W        W64096  36.841  38.899  11.928
97029W        W64097   5.224  34.955   4.619
97030W        W64098   1.290  19.611  10.628
97031W        W64099  17.645  34.459  14.795
97032W        W64100  14.279  16.157  12.085
97033W        W64101  20.637   7.391   1.790
97034W        W64102   6.912  16.077   5.312
97035W        W64103  41.303  32.025  13.874
97036W        W64104  38.368   1.869  14.808
97037W        W64105  23.098   6.697   2.231
97038W        W64106  30.613  17.691   2.757
97039W        W64107  33.613  28.135   0.820
97040W        W64108  14.295  42.845   0.279
97041W        W64109  43.803  18.158   1.327
97042W        W64110  21.648  40.465   0.873
97043W        W64111  27.629  15.591  14.515
97044W        W64112  13.177  32.587  14.275
97045W        W64113  33.563  19.138  10.603
97046W        W64114  31.428  28.646   5.121
97047W        W64115  35.389  15.127   1.435
97048W        W64116  33.945  20.213  11.390
97049W        W64117  13.336  42.966   4.284
97050W        W64118  15.128  40.882  12.076
97051W        W64119  23.053   0.261  12.897
97052W        W64120   1.784  11.143   4.314
97053W        W64121   2.891  37.425   4.171
97054W        W64122  38.969  34.415   0.961
97055W        W64123  23.534  23.640   2.803
97056W        W64124  28.592   4.313  11.890
97057W        W64125   3.382   9.205  10.638
97058W        W64126   4.293  25.538   3.846
97059W        W64127  13.311  35.378   0.901
97060W        W64128   8.290  14.709   3.658
97061W        W64129   7.780  22.730   2.663
97062W        W64130  33.463  17.075  13.883
97063W        W64131  42.026  41.303   1.217
97064W        W64132   2.787  27.069  14.946
97065W        W64133  13.305  30.039  10.435
97066W        W64134  18.582  19.082   4.257
97067W        W64135  44.478  44.414  14.472
97068W        W64136  15.177   2.261  11.099
97069W        W64137  21.264  31.519  14.477
97070W        W64138  23.112  14.266  11.967
97071W        W64139   4.855   1.779  10.049
97072W        W64140  27.084   9.183   4.675
97073W        W64141  23.663  27.618   2.306
97074W        W64142  14.308  40.510  11.949
97075W        W64143  17.722  20.119   3.346
97076W        W64144  34.930  26.966   0.308
97077W        W64145  35.936  26.644  13.344
97078W        W64146  39.857   1.787  11.952
97079W        W64147  24.643  15.247  13.376
97080W        W64148   4.290  26.047  13.486
97081W        W64149  33.577  22.138  11.078
97082W        W64150  33.996   8.850   0.397
97083W        W64151  34.115  39.984  14.868
97084W        W64152  11.704  28.638  11.587
97085W        W64153  34.560  10.335  12.069
97086W        W64154  39.539  21.599   4.601
97087W        W64155  37.881  18.131  12.852
97088W        W64156   6.742  35.581   1.354
97089W        W64157  39.030  24.979  11.113
97090W        W64158  24.708   8.328   2.674
97091W        W64159  11.867   9.311   0.831
97092W        W64160  35.081  24.104   2.386
97093W        W64161  21.713  38.418  12.425
97094W        W64162  31.901  22.098  12.868
97095W        W64163  35.511  35.922  11.401
97096W        W64164  19.734  26.151   4.142
97097W        W64165  29.539  44.867   4.834
97098W        W64166   0.897   9.793  11.895
97099W        W64167   9.770  19.114   0.775
97100W        W64168  28.569   6.246   2.771
97101W        W64169  14.141  23.095   1.888
97102W        W64170   9.359  16.253  10.938
97103W        W64171  22.208  37.506  12.911
97104W        W64172  28.013   0.286   3.237
97105W        W64173  37.887  17.585   3.379
97106W        W64174  14.633  35.479   2.811
97107W        W64175  23.736  11.686   4.741
97108W        W64176  43.018  38.378   0.883
97109W        W64177  39.484  27.114   1.423
97110W        W64178  24.538  20.190   2.780
97111W        W64179   1.859  35.577  14.836
97112W        W64180  34.580  13.332   3.641
97113W        W64181  38.556  11.831   4.835
97114W        W64182  16.570  36.912  14.306
97115W        W64183  12.808  10.325  12.920
97116W        W64184  22.719   3.851   0.324
97117W        W64185  32.972   4.845   4.645
97118W        W64186   4.774  28.656  10.574
97119W        W64187  40.501  20.122   4.309
97120W        W64188  15.159  14.119  12.498
97121W        W64189  21.120  13.821   4.183
97122W        W64190   4.450  41.033   4.199
97123W        W64191  13.814  29.996  14.433
97124W        W64192  38.552  16.174  13.013
97125W        W64193  44.990  20.683  13.947
97126W        W64194   7.346  41.041   1.812
97127W        W64195  30.488  15.812   2.399
97128W        W64196  19.644   2.355  10.633
97129W        W64197  15.742  42.518   1.716
97130W        W64198   5.743  35.425   2.812
97131W        W64199  38.440  33.123  12.473
97132W        W64200  13.621  12.158   3.746
97133W        W64201   6.347  14.239   4.299
97134W        W64202  39.517  14.126   1.868
97135W        W64203  19.193   6.693  13.342
97136W        W64204  30.969  31.451   0.781
97137W        W64205  10.697  28.079   2.310
97138W        W64206  42.409  29.094  12.501
97139W        W64207   1.748  14.177  14.989
97140W        W64208  30.992  38.989  12.449
97141W        W64209   6.358  17.199   3.641
97142W        W64210  10.636   2.763  13.020
97143W        W64211  32.939   7.714  14.280
97144W        W64212   3.731  13.753   3.659
97145W        W64213  41.331  30.980   3.240
97146W        W64214  24.613  16.639  12.046
97147W        W64215  32.894  24.667  11.043
97148W        W64216  15.710   0.780   3.163
97149W        W64217  39.423  11.138  13.818
97150W        W64218  28.153  31.993  11.041
97151W        W64219  41.820   2.891  11.498
97152W        W64220   2.750  31.955  10.975
97153W        W64221  34.968  32.098   4.725
97154W        W64222  16.197  42.860   2.713
97155W        W64223  43.328  24.604  10.937
97156W        W64224  41.004  15.283   2.286
97157W        W64225  19.728  43.385   3.157
97158W        W64226   0.911  42.509   4.201
97159W        W64227  41.955   9.312  12.464
97160W        W64228  10.245  29.983   1.911
97161W        W64229  32.942   8.293  11.095
97162W        W64230  25.574   2.461   3.672
97163W        W64231  41.040   3.356   9.943
97164W        W64232  13.620  41.930   2.695
97165W        W64233  16.155  25.004   0.281
97166W        W64234   8.887  19.266  14.464
97167W        W64235  36.447   4.288  13.023
97168W        W64236  26.555  17.600   1.833
97169W        W64237  35.930  29.984   0.411
97170W        W64238  32.919  39.011  11.609
97171W        W64239   3.908  26.038  11.412
97172W        W64240   2.727   4.754  11.611
97173W        W64241   0.438  28.982   3.229
97174W        W64242  13.311   2.776   3.380
97175W        W64243  28.015  37.564   2.249
97176W        W64244  39.418  18.581  13.468
97177W        W64245  31.964  39.880  11.981
97178W        W64246  20.567  14.332   4.811
97179W        W64247  31.444  21.621  14.919
97180W        W64248  22.607   2.236   4.270
97181W        W64249  14.650  42.954  12.864
97182W        W64250  27.511  32.977   9.603
97183W        W64251  23.663  16.675  12.521
97184W        W64252  31.137  30.145  11.597
97185W        W64253  27.579  11.633  12.944
97186W        W64254  26.119  42.308   0.333
97187W        W64255   2.874  34.441   0.278
97188W        W64256  19.644  14.132   4.260
97189W        W64257  11.310  14.117  11.029
97190W        W64258  35.990  37.397   1.283
97191W        W64259  15.119  28.574   2.225
97192W        W64260  20.271   8.235   1.270
97193W        W64261   8.350  29.600   3.358
97194W        W64262  25.994   9.770   3.827
97195W        W64263  43.783  36.925  13.862
97196W        W64264  36.400   4.942   3.716
97197W        W64265   1.379  26.559   0.465
97198W        W64266  28.626  14.674  11.534
97199W        W64267  36.529  15.788  12.881
97200W        W64268  34.073  16.695  13.950
97201W        W64269  34.417  11.336   3.160
97202W        W64270   1.792  24.081   3.792
97203W        W64271  17.231  19.711  12.030
97204W        W64272   4.876  34.421  10.077
97205W        W64273  27.520  14.645  11.388
97206W        W64274   9.339  34.516  13.905
97207W        W64275  27.610  25.038   0.848
97208W        W64276  20.624  11.299   0.271
97209W        W64277  12.635  30.652   0.361
97210W        W64278  36.540  33.067   2.368
97211W        W64279  33.565   0.920  12.492
97212W        W64280   1.470   4.730   0.833
97213W        W64281  21.123  41.881  10.079
97214W        W64282   8.784  22.019   3.381
97215W        W64283  38.951  12.301  12.989
97216W        W64284  38.908  23.578  13.314
97217W        W64285  43.858  12.650   4.165
97218W        W64286  18.132  42.775  14.455
97219W        W64287  42.441   8.340  13.827
97220W        W64288  27.649  11.313   4.146
97221W        W64289   5.374  15.608  14.994
97222W        W64290  31.988  34.609   4.265
97223W        W64291  18.230  37.908   4.282
97224W        W64292  43.383  21.728   2.216
97225W        W64293  34.374  39.029  11.031
97226W        W64294  34.008  28.040   3.358
97227W        W64295  34.540  39.490   2.206
97228W        W64296  39.909  13.241   4.140
97229W        W64297  25.089  21.235  14.449
97230W        W64298  28.177   4.238   3.815
97231W        W64299  36.426  39.022  11.127
97232W        W64300  38.838  42.941   1.886
97233W        W64301  15.104  20.752   1.814
97234W        W64302  40.886  36.953   1.915
97235W        W64303  32.637   3.284   4.348
97236W        W64304  26.071  21.649  12.856
97237W        W64305   5.706  29.529  11.527
97238W        W64306  25.051  33.890  11.551
97239W        W64307  13.817  43.775  11.588
97240W        W64308  31.967   0.866   2.791
97241W        W64309  40.859  41.864   4.801
97242W        W64310  20.139  38.998   0.407
97243W        W64311  19.608  19.727   2.182
97244W        W64312  29.958   3.930   3.788
97245W        W64313  10.854  19.661   2.239
97246W        W64314   6.303  24.197   2.347
97247W        W64315  28.457  21.245   3.150
97248W        W64316  34.879   4.245   0.956
97249W        W64317  10.815   1.376  13.805
97250W        W64318  13.191  29.572  13.901
97251W        W64319  12.813   5.836   4.608
97252W        W64320  33.035  27.675  12.848
97253W        W64321  31.931  26.574   5.736
97254W        W64322   2.455  26.685  14.462
97255W        W64323   6.756  35.506   3.755
97256W        W64324  37.421   2.802  14.939
97257W        W64325  17.604  19.058   2.663
97258W        W64326   3.748  27.022  12.384
97259W        W64327  10.648  32.596  13.418
97260W        W64328   1.259  34.513   1.871
97261W        W64329  33.070  10.150   3.702
97262W        W64330   9.671   3.277  10.964
97263W        W64331  39.013  35.921   4.220
97264W        W64332  34.574   0.788  12.947
97265W        W64333  28.929  31.115  14.923
97266W        W64334  32.119  27.499  13.923
97267W        W64335  41.890   3.359   4.663
97268W        W64336  20.595  36.847  11.587
97269W        W64337  20.562  36.442   2.879
97270W        W64338  44.884  35.870  12.473
97271W        W64339  38.499   5.931  14.819
97272W        W64340  38.325  15.740   1.347
97273W        W64341   9.349  29.494   1.321
97274W        W64342  37.907  20.178   0.942
97275W        W64343   0.921  38.401   2.398
97276W        W64344  40.460  30.960   3.806
97277W        W64345  41.925  10.851   4.665
97278W        W64346  28.000  16.286   4.236
97279W        W64347  12.268  23.712  13.471
97280W        W64348  40.534  14.166   4.227
97281W        W64349  40.468  12.773  11.075
97282W        W64350  29.595  31.948  13.034
97283W        W64351  24.080  24.507   3.748
97284W        W64352  27.636   9.762  13.441
97285W        W64353  30.015  25.984  11.536
97286W        W64354  24.181  41.915   3.332
97287W        W64355   4.708  14.776   0.880
97288W        W64356   1.403   5.434   0.256
97289W        W64357  15.663   6.253  10.907
97290W        W64358  40.033   3.373   4.798
97291W        W64359  41.915   8.842   0.888
97292W        W64360  40.928  21.196  14.819
97293W        W64361  29.652  18.294  10.111
97294W        W64362  38.823   2.456   1.855
97295W        W64363  12.204  33.041  11.452
97296W        W64364   8.167   6.252  10.422
97297W        W64365  34.421  23.039  14.352
97298W        W64366  10.335   3.394   0.453
97299W        W64367  18.734  35.420   3.772
97300W        W64368  23.092   3.267  13.875
97301W        W64369  28.008  35.004  11.486
97302W        W64370   7.175  15.718  14.425
97303W        W64371  39.342  15.683  13.849
97304W        W64372   7.817   0.869   2.246
97305W        W64373  10.827  27.072  14.352
97306W        W64374  12.730  31.477  11.003
97307W        W64375   1.250  15.772  11.449
97308W        W64376   8.781  26.533  11.864
97309W        W64377  22.099  43.273   2.315
97310W        W64378  39.412  19.214  10.566
97311W        W64379  19.170   0.462  10.623
97312W        W64380   3.911   0.953   4.347
97313W        W64381  35.944  31.113   5.103
97314W        W64382   5.782  22.194   2.266
97315W        W64383  31.138   4.306   4.752
97316W        W64384  40.020  29.973  13.987
97317W        W64385  37.475  14.683   4.680
97318W        W64386   5.276  34.457   0.940
97319W        W64387  28.021  22.157   2.823
97320W        W64388  26.043  42.889   3.849
97321W        W64389   0.264  37.498  10.468
97322W        W64390  32.980  24.571  14.515
97323W        W64391   4.335  34.552  13.872
97324W        W64392  29.451   9.188  14.402
97325W        W64393  19.040   5.414  11.996
97326W        W64394  27.081   8.232  14.885
97327W        W64395  39.522  14.768  13.873
97328W        W64396  37.929  43.019  12.000
97329W        W64397  32.973   0.743   4.725
97330W        W64398  19.632  19.261  10.488
97331W        W64399  30.162   5.878   0.781
97332W        W64400  33.402  44.807  11.918
97333W        W64401  36.395  33.531  14.916
97334W        W64402  20.569   7.731   2.418
97335W        W64403   3.341  29.654   0.781
97336W        W64404  34.939  38.893  12.008
97337W        W64405  43.373   9.673  14.791
97338W        W64406  19.541  41.013   1.817
97339W        W64407  19.284  24.103  14.029
97340W        W64408  11.756   6.290  14.299
97341W        W64409  15.113  28.061   2.894
97342W        W64410  36.845  42.376  12.494
97343W        W64411   4.360   9.782  12.991
97344W        W64412  43.498  34.374   4.781
97345W        W64413  21.699  41.829   3.356
97346W        W64414  35.402   8.192   0.847
97347W        W64415  18.713  43.500   2.831
97348W        W64416   5.872  23.021   4.125
97349W        W64417  44.324  31.897   4.197
97350W        W64418  18.718  42.926   4.148
97351W        W64419  23.075   9.280   2.381
97352W        W64420  40.827  42.283   0.460
97353W        W64421  12.815  29.451   3.736
97354W        W64422  35.500  31.953  13.865
97355W        W64423   6.868  10.738   3.864
97356W        W64424   1.927   0.385   4.715
97357W        W64425  41.292  10.335   2.851
97358W        W64426  25.651   1.332   4.228
97359W        W64427   6.409   9.152   4.153
97360W        W64428  44.872   6.425  13.375
97361W        W64429   9.808  41.460   1.435
97362W        W64430  36.572   4.734   2.887
97363W        W64431  12.690   8.217  14.502
97364W        W64432  43.305  13.177   4.249
97365W        W64433  30.912  19.714   2.193
97366W        W64434  25.968   9.301   2.320
97367W        W64435   9.162  28.937   3.664
97368W        W64436  39.826  14.340  13.325
97369W        W64437  36.453  33.095  13.341
97370W        W64438  44.878  18.109  14.424
97371W        W64439  34.492  33.052   1.420
97372W        W64440  33.039  31.582  11.924
97373W        W64441   4.752  39.955   0.847
97374W        W64442  38.943  42.479  13.441
97375W        W64443  11.193  28.095   3.364
97376W        W64444  25.654  27.084  12.513
97377W        W64445  34.959  27.078  11.915
97378W        W64446  12.174  18.731   4.798
97379W        W64447  43.393  37.498  10.630
97380W        W64448   1.845  26.195  14.823
97381W        W64449  36.908  36.370   2.870
97382W        W64450   1.934   1.376   2.312
97383W        W64451  13.198  14.095  10.587
97384W        W64452  33.031  14.251  14.937
97385W        W64453  35.902  15.091  11.980
97386W        W64454   6.298  32.472   4.655
97387W        W64455  25.118  32.968   1.839
97388W        W64456  40.837  10.320  11.972
97389W        W64457  13.836  23.185   0.756
97390W        W64458   1.778  20.139  11.444
97391W        W64459  33.004  27.962   1.321
97392W        W64460   1.962  29.586  14.893
97393W        W64461  37.579  42.830  13.489
97394W        W64462  20.264  29.040  14.489
97395W        W64463  17.647  36.550   0.311
97396W        W64464  24.650   8.232   0.267
97397W        W64465  33.913   6.915  14.900
97398W        W64466   0.453  26.615  13.448
97399W        W64467  31.114  15.701  14.792
97400W        W64468  18.582  13.285   2.326
97401W        W64469  44.277  19.113  10.954
97402W        W64470   1.868  22.185   2.326
97403W        W64471   0.943   3.359  13.834
97404W        W64472  43.298  20.701  13.926
97405W        W64473  13.255  20.041  14.389
97406W        W64474   2.766  20.099   2.674
97407W        W64475  38.377  38.353  13.422
97408W        W64476   7.317  12.356   0.410
97409W        W64477  36.880  36.549   3.649
97410W        W64478  25.212  42.987  14.356
97411W        W64479   7.226  23.715   2.722
97412W        W64480  19.759  39.064   0.473
97413W        W64481  24.001  43.894  13.900
97414W        W64482  29.532  27.670  10.622
97415W        W64483  37.559  15.294   4.114
97416W        W64484  30.472  19.226  11.428
97417W        W64485  42.001   1.772   4.695
97418W        W64486   7.818  30.419  10.510
97419W        W64487   8.367   6.755  11.883
97420W        W64488  34.879  14.737   4.192
97421W        W64489  15.782  37.429  12.431
97422W        W64490  14.127  18.787  13.327
97423W        W64491   5.925  37.539   3.820
97424W        W64492   7.293  25.549  11.444
97425W        W64493  44.853  28.990   2.282
97426W        W64494  27.546  34.098  14.774
97427W        W64495  38.408   9.244  12.087
97428W        W64496  33.422  23.223   4.294
97429W        W64497  25.173  41.334   1.879
97430W        W64498   5.279   6.262  11.559
97431W        W64499  17.800   8.313  11.547
97432W        W64500  40.810  10.193   1.262
97433W        W64501  31.443   5.812  14.285
97434W        W64502  15.126  17.557  12.056
97435W        W64503  35.856   4.209  13.931
97436W        W64504   5.741  11.663   3.780
97437W        W64505  38.423  43.481   1.263
97438W        W64506  26.533   5.422  14.325
97439W        W64507  42.287   9.821   3.362
97440W        W64508   1.332  21.529  11.423
97441W        W64509  43.018  44.883  14.004
97442W        W64510  30.002   4.801   0.929
97443W        W64511  23.658  20.043  12.350
97444W        W64512  27.666  44.861  14.898
97445W        W64513   9.388  38.063   1.723
97446W        W64514   5.785   3.717  10.910
97447W        W64515  30.156  10.710   4.790
97448W        W64516   0.476   1.333  12.983
97449W        W64517  20.088  38.917  14.504
97450W        W64518  36.474  29.563   0.477
97451W        W64519  41.319  28.550  12.055
97452W        W64520  23.589  14.105   1.396
97453W        W64521  34.551  41.953   1.442
97454W        W64522   8.657  28.936   2.861
97455W        W64523  27.193  23.664   4.652
97456W        W64524  34.905   4.872   3.186
97457W        W64525  13.686  43.496  12.039
97458W        W64526  12.241  34.081   1.827
97459W        W64527  21.709  43.898   2.682
97460W        W64528   2.321  35.365   2.677
97461W        W64529  36.067   8.306   3.222
97462W        W64530   5.802   3.762   1.901
97463W        W64531   8.169  21.044  13.388
97464W        W64532  25.975  41.900  10.991
97465W        W64533  43.453  24.678  14.356
97466W        W64534  26.074  29.990   3.153
97467W        W64535  26.518  44.340   3.693
97468W        W64536  36.350   2.801   2.181
97469W        W64537  10.686  44.444  11.586
97470W        W64538  16.172  12.121  14.937
97471W        W64539  32.134  22.074  10.605
97472W        W64540  31.002   7.336   2.231
97473W        W64541   4.841  32.140  13.934
97474W        W64542  26.126  32.087  11.550
97475W        W64543  18.086   9.301  13.543
97476W        W64544  36.844  41.971   3.720
97477W        W64545  32.572   2.453  12.370
97478W        W64546   7.298   2.279  11.098
97479W        W64547  30.022  11.784   2.205
97480W        W64548  16.784  44.763  14.874
97481W        W64549  24.987   9.199   1.249
97482W        W64550  37.419  12.794  12.517
97483W        W64551  12.627  17.588  12.871
97484W        W64552  28.946  43.442  14.466
97485W        W64553  25.174  34.386   1.294
97486W        W64554  37.053   4.343  13.496
97487W        W64555  28.513  42.848   3.220
97488W        W64556  42.010  41.308  10.544
97489W        W64557  28.569   2.956  14.911
97490W        W64558  17.154   7.905  14.784
97491W        W64559  33.082  15.192  13.981
97492W        W64560   0.357   3.455   2.208
97493W        W64561  37.472   2.293   2.350
97494W        W64562  14.735  41.820   3.321
97495W        W64563  16.093  12.170   3.760
97496W        W64564  40.933  25.612  14.762
97497W        W64565   0.298  12.130   4.651
97498W        W64566  29.457  37.922  14.391
97499W        W64567   8.801   1.809  12.518
97500W        W64568  13.307   1.953  12.448
97501W        W64569  38.381   8.876   3.176
97502W        W64570  23.032   6.887  13.329
97503W        W64571  18.203  27.153   4.616
97504W        W64572  12.155  25.505  14.389
97505W        W64573  41.845   3.830  14.441
97506W        W64574   2.416  44.006   4.780
97507W        W64575  37.912  17.141   3.802
97508W        W64576  29.567  24.693   4.303
97509W        W64577  40.488   0.353   2.829
97510W        W64578  34.456   7.363   0.440
97511W        W64579   6.410   8.187   3.214
97512W        W64580  20.575  30.588  11.493
97513W        W64581  24.228  27.153   3.843
97514W        W64582  21.550   1.976  14.837
97515W        W64583  29.641  23.018  14.838
97516W        W64584  31.034  27.463  11.035
97517W        W64585   6.692  33.981  12.512
97518W        W64586  10.855  13.674  14.412
97519W        W64587  21.685  43.835  11.429
97520W        W64588  33.568  40.049  13.933
97521W        W64589  38.543  38.561   0.335
97522W        W64590  33.975  37.068   0.847
97523W        W64591  10.169   8.679  14.782
97524W        W64592   8.835  21.236   3.326
97525W        W64593  25.491  27.587   1.363
97526W        W64594  39.884  11.761   0.885
97527W        W64595  17.635  10.865   1.789
97528W        W64596   9.394  35.028  13.893
97529W        W64597   4.342  17.128   1.290
97530W        W64598  42.902   9.850  11.963
97531W        W64599  40.316   9.360   0.868
97532W        W64600  27.514  38.563   0.944
97533W        W64601   9.289  21.556   2.696
97534W        W64602  20.224  40.955  14.797
97535W        W64603  10.358   5.798  13.387
97536W        W64604  22.037  33.558   1.399
97537W        W64605   4.895  37.993  12.828
97538W        W64606   5.396  16.767  13.913
97539W        W64607  34.050  40.016  11.983
97540W        W64608  24.037  12.361  11.590
97541W        W64609   8.694  39.327  13.539
97542W        W64610  28.649   8.745  14.927
97543W        W64611  25.070  18.770  12.030
97544W        W64612   4.793  43.903  10.097
97545W        W64613   2.303  36.952  10.453
97546W        W64614  11.163  22.225  11.870
97547W        W64615  35.941  16.672   2.712
97548W        W64616  44.390   4.881   2.700
97549W        W64617  14.705   3.332  14.945
97550W        W64618  24.621  39.546  10.433
97551W        W64619  24.095   9.685  13.985
97552W        W64620  39.551  17.568  11.608
97553W        W64621  36.428  31.925  11.967
97554W        W64622  13.718  13.761  13.840
97555W        W64623   6.220  19.196   3.666
97556W        W64624  18.661   8.898   2.260
97557W        W64625  29.924  20.662   3.350
97558W        W64626   0.988   8.226   1.861
97559W        W64627  43.355   2.440  10.543
97560W        W64628  28.469   7.855  12.556
97561W        W64629   4.786  33.951   3.204
97562W        W64630  40.871   5.404   2.383
97563W        W64631  22.534  44.950  14.355
97564W        W64632  39.481  30.022   2.179
97565W        W64633  25.622  30.473   0.461
97566W        W64634  33.007   1.300  12.379
97567W        W64635  15.126  26.554  12.890
97568W        W64636   9.829  13.282  10.630
97569W        W64637   9.776  13.666   1.760
97570W        W64638  20.261  13.702  14.314
97571W        W64639   1.457  17.727   3.752
97572W        W64640  33.050  13.682  14.875
97573W        W64641  42.496   1.763   1.270
97574W        W64642  19.662  29.532   1.416
97575W        W64643   3.755  12.618   4.780
97576W        W64644  29.061  20.214   1.778
97577W        W64645  42.939  17.786   2.383
97578W        W64646  34.380  26.995   2.856
97579W        W64647  40.481  12.789   2.853
97580W        W64648   1.252   8.188  12.986
97581W        W64649   3.284  38.975  11.999
97582W        W64650   8.294  24.143   4.784
97583W        W64651  36.934  10.639   4.839
97584W        W64652  10.665  36.072  11.518
97585W        W64653  13.604  38.453  11.446
97586W        W64654  23.112  36.386  11.384
97587W        W64655  34.031  26.701   3.251
97588W        W64656   8.741  25.147   2.191
97589W        W64657  38.834   5.226   4.802
97590W        W64658  31.022  23.666   4.317
97591W        W64659  23.548  12.232  14.484
97592W        W64660   6.676  34.423  11.414
97593W        W64661   3.429   3.225   2.398
97594W        W64662   4.407   8.824   5.227
97595W        W64663  38.510  36.956   1.896
97596W        W64664   8.339   8.259   2.792
97597W        W64665  24.037  41.345   3.293
97598W        W64666  28.943   3.406   2.800
97599W        W64667  28.513   1.412  12.067
97600W        W64668  14.642  22.643   3.827
97601W        W64669  43.355  16.676  13.455
97602W        W64670   7.279  42.835  12.435
97603W        W64671  36.082   6.382   4.243
97604W        W64672   4.401  20.679   1.901
97605W        W64673  26.702  23.050  14.773
97606W        W64674  35.967  10.158  12.072
97607W        W64675  13.351  41.789   4.716
97608W        W64676  33.982  24.098   0.367
97609W        W64677  32.953  33.124  13.813
97610W        W64678  26.990  32.114  10.134
97611W        W64679  35.044   7.735  10.561
97612W        W64680  30.103   4.906   2.378
97613W        W64681  14.825  36.532   0.325
97614W        W64682  30.163   8.239   1.284
97615W        W64683  10.373  18.788  14.446
97616W        W64684  10.181  23.205  14.841
97617W        W64685  31.927  43.491   0.304
97618W        W64686   0.805  35.030   4.704
97619W        W64687  26.471   3.224  11.083
97620W        W64688  13.208  30.132  11.036
97621W        W64689  10.189  12.840   4.126
97622W        W64690  10.261  22.541  12.940
97623W        W64691   4.381   6.720  11.523
97624W        W64692   0.922  20.037   2.355
97625W        W64693   2.285  19.639  12.950
97626W        W64694   6.797  29.133   2.337
97627W        W64695  10.319  41.849  10.481
97628W        W64696  36.919  26.628  13.923
97629W        W64697  25.700   9.802   2.847
97630W        W64698  25.707  27.063   1.237
97631W        W64699  13.809  28.441  14.488
97632W        W64700  36.364   5.688   2.784
97633W        W64701  18.565  15.635   3.787
97634W        W64702  17.306  10.147   1.761
97635W        W64703  18.665  12.150  13.521
97636W        W64704  44.758  11.820   3.647
97637W        W64705  32.408  20.056   3.670
97638W        W64706  33.532  35.568  11.121
97639W        W64707  25.124  30.134  14.333
97640W        W64708  36.439  41.856  14.994
97641W        W64709  38.358  14.754  14.841
97642W        W64710  40.938   6.351   2.192
97643W        W64711  17.734  15.709   3.362
97644W        W64712  41.030   3.940   0.378
97645W        W64713  11.130  15.318   2.336
97646W        W64714  39.338  30.055  11.048
97647W        W64715  11.685   7.278  12.538
97648W        W64716  21.220  28.581   1.881
97649W        W64717  38.392  36.489  13.919
97650W        W64718   7.706  38.510  11.890
97651W        W64719  22.626  34.921   3.775
97652W        W64720  41.480  37.838  13.340
97653W        W64721  10.330  43.409  12.339
97654W        W64722  13.779  22.145   4.135
97655W        W64723  26.542  40.877   1.331
97656W        W64724  29.918  27.010  12.005
97657W        W64725   3.398  29.088   1.219
97658W        W64726  27.533  32.958   1.906
97659W        W64727  24.073  20.094  10.440
97660W        W64728  16.697  32.900   2.274
97661W        W64729   0.849  34.934  11.865
97662W        W64730   3.716  23.073  13.383
97663W        W64731  35.561   4.323   2.209
97664W        W64732  17.083  36.589  13.805
97665W        W64733  27.049  23.556  13.817
97666W        W64734  33.382  32.102   2.719
97667W        W64735  42.355  40.442  10.418
97668W        W64736  23.498  21.528  12.566
97669W        W64737  41.325  40.003  14.406
97670W        W64738  19.269  37.873   3.641
97671W        W64739  40.008  31.147   3.767
97672W        W64740  32.987   5.353   2.842
97673W        W64741  38.864  34.874  13.467
97674W        W64742  34.877  42.948   0.729
97675W        W64743   2.897  35.569  14.421
97676W        W64744  35.067  36.533   2.394
97677W        W64745  33.606   8.895   3.787
97678W        W64746  27.045  31.066   2.219
97679W        W64747   2.798  15.715   4.348
97680W        W64748   6.838   6.755   1.255
97681W        W64749  19.057  29.946  11.962
97682W        W64750   0.493  34.399   3.790
97683W        W64751  12.775  22.184   3.771
97684W        W64752  32.397  38.826   4.691
97685W        W64753  34.410   3.831   2.783
97686W        W64754  11.351  28.658   1.902
97687W        W64755  28.178  41.397   3.362
97688W        W64756  41.366  42.837   2.330
97689W        W64757  43.957  36.542   4.233
97690W        W64758  11.758  27.131   2.751
97691W        W64759  21.207  40.425   1.789
97692W        W64760   8.868   5.366  11.499
97693W        W64761  27.683   0.394   2.704
97694W        W64762  39.480   5.279   3.233
97695W        W64763  21.256   3.287   4.317
97696W        W64764  43.328  39.362   1.901
97697W        W64765  44.784  17.730  13.391
97698W        W64766  12.650   7.811  12.080
97699W        W64767   2.469  16.736   3.276
97700W        W64768  43.447   7.405   2.854
97701W        W64769  33.036  13.107   1.746
97702W        W64770  39.403   1.947  10.930
97703W        W64771  32.954  30.111  14.410
97704W        W64772  17.656  12.123  13.404
97705W        W64773  34.940  35.888   4.130
97706W        W64774   1.370   6.195  10.496
97707W        W64775  14.658  42.878  11.484
97708W        W64776  13.288  25.611  14.377
97709W        W64777  29.116  29.953  13.847
97710W        W64778  38.397  11.226  13.885
97711W        W64779  30.641   0.437   0.331
97712W        W64780  17.684   1.356   1.926
97713W        W64781  20.708  15.187   1.276
97714W        W64782  44.921  43.927   4.720
97715W        W64783  37.345  38.350  14.845
97716W        W64784  21.220  21.145  10.888
97717W        W64785  37.412  15.780  11.582
97718W        W64786  10.674  28.676   3.708
97719W        W64787  43.910  16.192   3.843
97720W        W64788  29.565  30.416   2.828
97721W        W64789  23.631  37.868   3.357
97722W        W64790  33.912  37.962   0.442
97723W        W64791  37.498   0.744  12.439
97724W        W64792  34.376  10.279   2.370
97725W        W64793  41.843   7.411  12.346
97726W        W64794   7.779  27.645   4.235
97727W        W64795   8.323  31.930  11.911
97728W        W64796  28.986  43.349  10.516
97729W        W64797  39.862  35.900   0.960
97730W        W64798   9.853  17.633  10.541
97731W        W64799  35.479   4.829  13.919
97732W        W64800  12.674  15.210   2.319
97733W        W64801   1.967  17.200  11.926
97734W        W64802   4.303  11.127  12.475
97735W        W64803  40.468  33.997  10.508
97736W        W64804  19.674  32.562  12.958
97737W        W64805  29.560   3.419  10.074
97738W        W64806  34.880  33.452   4.631
97739W        W64807  41.408  15.796  13.500
97740W        W64808  14.109   4.805  11.418
97741W        W64809  30.150  10.749   1.306
97742W        W64810  17.215  42.883  11.018
97743W        W64811  21.620  22.648   2.686
97744W        W64812   0.484  40.854   4.139
97745W        W64813  20.069   7.685   4.345
97746W        W64814  36.376  41.020   4.331
97747W        W64815  36.377  18.778  10.550
97748W        W64816   8.890   9.153  11.064
97749W        W64817  10.713  23.177  11.048
97750W        W64818  15.717  25.602   0.768
97751W        W64819  42.906  15.304  11.546
97752W        W64820  34.499  32.101   0.775
97753W        W64821  19.098  44.961   4.186
97754W        W64822  24.154  33.962   1.795
97755W        W64823  30.027  22.040   1.855
97756W        W64824  27.641  28.103   2.352
97757W        W64825   3.367  32.087   2.677
97758W        W64826  21.062  26.170   1.805
97759W        W64827  30.471  21.050  14.954
97760W        W64828  43.986   3.448  13.420
97761W        W64829   5.327  21.541   1.429
97762W        W64830  24.038  17.684  13.417
97763W        W64831  20.149   8.716  11.978
97764W        W64832  39.810  20.067   0.381
97765W        W64833   2.920  16.634  13.932
97766W        W64834  37.360  18.770  14.495
97767W        W64835  22.047  40.045   0.424
97768W        W64836  43.443  22.215  11.590
97769W        W64837  16.616   4.787   1.798
97770W        W64838  24.977  38.560  11.894
97771W        W64839  10.777  15.287   2.220
97772W        W64840  35.547  35.927  12.838
97773W        W64841  43.463  22.715  14.328
97774W        W64842  12.709  27.146  12.540
97775W        W64843   8.891  20.148   3.371
97776W        W64844   3.251  33.084  14.477
97777W        W64845   3.243  33.596   2.329
97778W        W64846  26.662  12.690  11.921
97779W        W64847   9.835  21.029   0.404
97780W        W64848  41.367   4.441  13.987
97781W        W64849  15.197   6.848  12.017
97782W        W64850  14.117   1.845   1.242
97783W        W64851  43.315   6.380  12.440
97784W        W64852  13.710  25.194  11.118
97785W        W64853  14.769   8.283  12.997
97786W        W64854  39.974  34.995  10.558
97787W        W64855  27.647  37.457  13.036
97788W        W64856  24.003  38.466   1.261
97789W        W64857  28.499  20.110   3.300
97790W        W64858   2.749  33.971  11.869
97791W        W64859  40.384  11.243   4.134
97792W        W64860  26.565   7.754   0.789
97793W        W64861  35.412   0.310  12.340
97794W        W64862   2.442  18.695  11.061
97795W        W64863  43.894  30.058   4.778
97796W        W64864  41.314   2.347   3.282
97797W        W64865  24.123   2.344  12.344
97798W        W64866  11.645  31.965   5.128
97799W        W64867  16.147  30.017   4.157
97800W        W64868   1.899   4.217  11.524
97801W        W64869   6.205  39.895  13.370
97802W        W64870  34.032  11.760  10.021
97803W        W64871  35.937   4.444   3.190
97804W        W64872   7.180  20.147  12.889
97805W        W64873  16.120  37.892  11.488
97806W        W64874   7.704  31.962  11.044
97807W        W64875   9.676  12.813  14.276
97808W        W64876  38.979  33.434  12.462
97809W        W64877  27.688  34.901  14.865
97810W        W64878  27.628   1.435  13.871
97811W        W64879  42.304   3.952   0.383
97812W        W64880  44.295   6.775  10.598
97813W        W64881   7.275  37.503   0.413
97814W        W64882  24.081  18.267  13.839
97815W        W64883  17.156   8.186  11.491
97816W        W64884  13.165   4.926   0.833
97817W        W64885  14.147  33.623  11.457
97818W        W64886  23.189  20.267  13.809
97819W        W64887  30.128  32.029  11.076
97820W        W64888  11.833  35.952  10.122
97821W        W64889  17.669   3.854  11.519
97822W        W64890  44.362   4.729  13.542
97823W        W64891  17.686  37.582   1.445
97824W        W64892   2.744  31.449   2.179
97825W        W64893   7.348  43.359   3.765
97826W        W64894  39.361  10.270   3.261
97827W        W64895   5.407  16.249   4.821
97828W        W64896  34.576  37.384  14.352
97829W        W64897  20.227   3.294  10.522
97830W        W64898  40.846  25.986   1.797
97831W        W64899  37.336  15.230  14.946
97832W        W64900  29.038  17.687   1.890
97833W        W64901  25.169  12.247   4.756
97834W        W64902  24.686  21.553   1.304
97835W        W64903  25.138  41.450  14.364
97836W        W64904  22.237   3.453  12.060
97837W        W64905  38.065  16.095  11.122
97838W        W64906  16.645  38.358   4.318
97839W        W64907  28.448  44.978  12.930
97840W        W64908  29.474  19.113   1.843
97841W        W64909  43.992  34.519   9.552
97842W        W64910   6.393   6.356   2.865
97843W        W64911   8.216  30.004  13.849
97844W        W64912  38.566  24.044   3.217
97845W        W64913  35.866   2.944   1.249
97846W        W64914  34.370  27.470   0.941
97847W        W64915   7.282  33.456   4.677
97848W        W64916  37.061  37.958  10.477
97849W        W64917   8.205   0.973   4.191
97850W        W64918  12.625  30.130   1.325
97851W        W64919  27.172   0.375   3.379
97852W        W64920  41.944  39.022   4.648
97853W        W64921  10.657  12.239  11.469
97854W        W64922  35.900  32.516  13.965
97855W        W64923  23.089  43.469  12.055
97856W        W64924   3.459  25.172  10.437
97857W        W64925  25.983  25.215  12.558
97858W        W64926  28.079  24.651  12.000
97859W        W64927   9.683  34.376  12.062
97860W        W64928  37.975  22.738  10.894
97861W        W64929   8.853   0.952   9.659
97862W        W64930  23.222  17.093  13.314
97863W        W64931  26.620   5.811  12.070
97864W        W64932  13.651   9.828  11.441
97865W        W64933   9.383  13.116  14.786
97866W        W64934  26.101  27.587  13.361
97867W        W64935  24.165   5.281   2.761
97868W        W64936  39.879   0.774  12.400
97869W        W64937   0.425  28.576   0.257
97870W        W64938   5.284  39.439  13.879
97871W        W64939   1.351  29.117   0.245
97872W        W64940  24.154  12.730  12.577
97873W        W64941  30.472  14.742   9.589
97874W        W64942  43.498   3.339   2.221
97875W        W64943  43.472  36.844  14.456
97876W        W64944   3.373  20.100   2.416
97877W        W64945  30.104  35.460   2.854
97878W        W64946  25.093  34.021  12.877
97879W        W64947   2.263  17.241   5.114
97880W        W64948   0.292  34.452  11.513
97881W        W64949   7.181   7.830   2.680
97882W        W64950  31.479  34.942  14.498
97883W        W64951  40.943  14.700   3.281
97884W        W64952  11.724   0.467  10.055
97885W        W64953  35.395  33.418   1.424
97886W        W64954  37.858  12.262  12.834
97887W        W64955   6.242  22.032   3.645
97888W        W64956  26.687  13.684   2.723
97889W        W64957  43.444   5.302   2.397
97890W        W64958  32.588  14.120   4.347
97891W        W64959  14.602  24.179  14.899
97892W        W64960  41.394  25.988   3.737
97893W        W64961  10.773   1.322   5.206
97894W        W64962  24.606  28.083   3.208
97895W        W64963  24.066  23.160  12.022
97896W        W64964  11.760  17.646   1.811
97897W        W64965  14.111  27.454   0.292
97898W        W64966   0.375  10.240   4.248
97899W        W64967  39.496  11.264   3.636
97900W        W64968  12.772   0.308   1.771
97901W        W64969  25.596  35.559   2.685
97902W        W64970  16.695  16.599  14.463
97903W        W64971  39.820  33.603  12.874
97904W        W64972   1.922  30.417  13.519
97905W        W64973  11.229  21.216  13.408
97906W        W64974  22.172  38.439   1.433
97907W        W64975  17.123   0.352  12.872
97908W        W64976  31.598   2.257  13.956
97909W        W64977  14.174  34.088  14.961
97910W        W64978  43.417   0.780  13.947
97911W        W64979  42.287  32.040  13.874
97912W        W64980   1.474  43.391  12.891
97913W        W64981   4.364   3.461  11.995
97914W        W64982   0.463   4.842   3.275
97915W        W64983   9.181   3.406   2.402
97916W        W64984  41.884  15.200  14.356
97917W        W64985  42.852  42.783  11.545
97918W        W64986   1.409  33.876   0.754
97919W        W64987  19.103  39.452   4.725
97920W        W64988  18.255  41.964   2.196
97921W        W64989  24.208  40.904   1.760
97922W        W64990  37.497   8.174   2.245
97923W        W64991   6.739  13.155  14.405
97924W        W64992  31.643  17.221   2.838
97925W        W64993  11.763  21.137  13.443
97926W        W64994  29.159  26.623   4.667
97927W        W64995  24.147   8.720  14.914
97928W        W64996  18.206  28.967   4.714
97929W        W64997  23.562  41.313   2.303
97930W        W64998   5.334  18.752   2.846
97931W        W64999   0.481  41.020  11.597
97932W        W65000  42.866  33.881   2.329
97933W        W65001  28.486   0.799   4.601
97934W        W65002   0.291  24.711   4.724
97935W        W65003   9.679  15.770  14.440
97936W        W65004  27.998  25.093   3.645
97937W        W65005   4.772  33.054   1.284
97938W        W65006   0.876   2.459  11.523
97939W        W65007  29.073  43.500  11.570
97940W        W65008  23.152  21.170   2.183
97941W        W65009  16.753  14.682  14.300
97942W        W65010  25.190  17.170  13.046
97943W        W65011  18.053  32.914   1.788
97944W        W65012  10.803   4.747  11.962
97945W        W65013  27.643  38.515   2.260
97946W        W65014  24.615  25.072  14.482
97947W        W65015  21.168   1.354  11.920
97948W        W65016   9.320   7.265  10.950
97949W        W65017  26.703  14.240   1.334
97950W        W65018  20.537  44.339  11.056
97951W        W65019  14.605  38.999   3.678
97952W        W65020  33.029  12.162   4.762
97953W        W65021  35.499  17.232  11.882
97954W        W65022  15.688   6.883  14.345
97955W        W65023  44.443  36.862  12.453
97956W        W65024   6.877   7.895   4.131
97957W        W65025   3.928  13.240  13.795
97958W        W65026  31.424  17.589   2.240
97959W        W65027  33.091  42.995  10.012
97960W        W65028   0.434   9.852  13.825
97961W        W65029  23.219  40.475  10.997
97962W        W65030  22.189  26.152  10.580
97963W        W65031  15.701   3.930   0.334
97964W        W65032   2.916  41.946   0.251
97965W        W65033  43.513  10.357  11.052
97966W        W65034  26.974  13.778  10.517
97967W        W65035  44.883  19.208   2.236
97968W        W65036  12.774  37.388   2.341
97969W        W65037  11.357  22.541   2.717
97970W        W65038  13.839  12.697  13.498
97971W        W65039  25.155  34.429   2.800
97972W        W65040  22.231  16.091   2.681
97973W        W65041  43.433  39.809  12.967
97974W        W65042  32.519  14.305  11.603
97975W        W65043   3.726  31.977  14.426
97976W        W65044  44.864  16.694   2.720
97977W        W65045  40.394  21.181   4.836
97978W        W65046   3.781  17.732   3.699
97979W        W65047  42.890   8.800  11.966
97980W        W65048  26.047  14.130   1.232
97981W        W65049  21.644  14.612   3.360
97982W        W65050  42.376  25.609   2.293
97983W        W65051  22.223  19.621  12.453
97984W        W65052  31.129  19.219   2.361
97985W        W65053  22.693   8.199   3.366
97986W        W65054   0.754   8.807   0.878
97987W        W65055  18.093  20.177  10.427
97988W        W65056  39.059  42.812   4.320
97989W        W65057   3.748   1.482   3.352
97990W        W65058   6.375  16.167  13.935
97991W        W65059  39.437  23.642  11.437
97992W        W65060  41.016  14.628   0.406
97993W        W65061  31.498  40.483  13.922
97994W        W65062   8.884  44.009  14.863
97995W        W65063   1.279   4.788  11.020
97996W        W65064  21.678  31.601   2.801
97997W        W65065  27.971  37.472   9.940
97998W        W65066  16.659  23.025  12.546
97999W        W65067  22.503  28.474  14.448
98000W        W65068  39.897  27.530  12.392
98001W        W65069  26.990  11.715   1.400
98002W        W65070  15.226  44.774   0.870
98003W        W65071   3.840   0.379   2.719
98004W        W65072   7.872   1.924  14.914
98005W        W65073  34.978  20.563  12.869
98006W        W65074  42.018   5.885  13.013
98007W        W65075  38.902  21.232   3.638
98008W        W65076  39.479  43.858  13.815
98009W        W65077   9.868  42.407   2.418
98010W        W65078  14.728  37.535   4.283
98011W        W65079  16.316  42.993   1.842
98012W        W65080  18.206  31.600   1.431
98013W        W65081   0.948  32.895   0.887
98014W        W65082  23.561  24.071  14.287
98015W        W65083  21.529  34.545  13.032
98016W        W65084  16.103  21.567  14.881
98017W        W65085  27.658  23.154  11.101
98018W        W65086   6.905   5.689  10.976
98019W        W65087  18.743  21.716   3.740
98020W        W65088  24.582  19.773   0.904
98021W        W65089  27.054   2.882   2.733
98022W        W65090  21.752  36.085  14.502
98023W        W65091   8.164   7.766   0.325
98024W        W65092  31.997  32.628   2.254
98025W        W65093   3.303  29.567  11.071
98026W        W65094   3.350   9.666  10.955
98027W        W65095  11.133   6.398   0.877
98028W        W65096  20.533   6.727  12.859
98029W        W65097  21.073  19.590   1.896
98030W        W65098  34.903  32.439   3.697
98031W        W65099   8.345  21.199  12.492
98032W        W65100  34.912  14.319   3.725
98033W        W65101  29.061   1.863  10.919
98034W        W65102  38.548  44.334   3.668
98035W        W65103  30.941  11.771  13.484
98036W        W65104  32.610   9.872   3.661
98037W        W65105  41.969  39.899  14.486
98038W        W65106  36.051  21.029  12.914
98039W        W65107  36.857   4.421   1.803
98040W        W65108   5.391  33.880   0.437
98041W        W65109  13.283  25.985  12.974
98042W        W65110  18.064  27.526   5.614
98043W        W65111  31.475  29.641   2.869
98044W        W65112   1.961   8.678  10.926
98045W        W65113  17.640  19.125   3.194
98046W        W65114  36.589  11.299  12.989
98047W        W65115  43.489   2.727   3.674
98048W        W65116  43.852  32.942  12.535
98049W        W65117  12.127  36.079  11.104
98050W        W65118  10.836   1.353   3.230
98051W        W65119  31.640  36.559  10.996
98052W        W65120  25.504  41.996  14.511
98053W        W65121  44.883  28.503   0.464
98054W        W65122  41.536  19.265  12.888
98055W        W65123  32.489  30.160   3.858
98056W        W65124  26.589  11.839   2.663
98057W        W65125  12.772   2.740   2.664
98058W        W65126  24.100   9.814   1.864
98059W        W65127  31.489  27.658   3.249
98060W        W65128  19.253  12.637  10.454
98061W        W65129  24.698  31.502  11.023
98062W        W65130  35.945  19.566  12.507
98063W        W65131   0.984  31.469  10.997
98064W        W65132  41.818   7.816  12.344
98065W        W65133  39.845  39.835   2.339
98066W        W65134  28.160  40.982  11.998
98067W        W65135  21.559  40.369   2.679
98068W        W65136  24.569  39.008   2.346
98069W        W65137  37.901   3.220  10.414
98070W        W65138   8.794  40.036   2.698
98071W        W65139  31.095   3.270  10.895
98072W        W65140  30.911   5.247  12.951
98073W        W65141  38.943   6.291   3.713
98074W        W65142  40.981   0.331   0.830
98075W        W65143  22.246  27.476   1.320
98076W        W65144   3.724   7.820   1.925
98077W        W65145  28.159  35.000  11.121
98078W        W65146  23.168   0.854   4.736
98079W        W65147  41.492   0.370  13.985
98080W        W65148  32.949  42.362  10.954
98081W        W65149  43.880   3.762  11.587
98082W        W65150  14.253  29.167   3.315
98083W        W65151   1.393   1.371   0.291
98084W        W65152  18.239  18.780  13.988
98085W        W65153  20.099   3.359  13.433
98086W        W65154  13.825   4.320   1.379
98087W        W65155   5.401   3.366   4.828
98088W        W65156  25.035  44.983   2.277
98089W        W65157  43.431  12.697  14.782
98090W        W65158  13.109  41.369   3.223
98091W        W65159  10.295  31.964   4.822
98092W        W65160  23.676   5.310   1.444
98093W        W65161  24.586  33.456  12.058
98094W        W65162  31.057  22.046   3.836
98095W        W65163  19.571  34.552  10.593
98096W        W65164  35.069  19.124  10.511
98097W        W65165  39.978  12.190  10.898
98098W        W65166  37.575  31.624  10.915
98099W        W65167  26.531  36.984   3.784
98100W        W65168  28.523  26.991   1.319
98101W        W65169   7.791  31.105   4.710
98102W        W65170  27.173  23.660   2.729
98103W        W65171  40.957  17.685  14.960
98104W        W65172  40.832  39.845  14.299
98105W        W65173  39.338  40.831   3.213
98106W        W65174  37.938  26.149   4.759
98107W        W65175  28.053  16.752   4.655
98108W        W65176  40.009   4.417   1.798
98109W        W65177  11.326  30.579  11.425
98110W        W65178  11.742  42.913  13.536
98111W        W65179  37.881  26.538   4.712
98112W        W65180  17.205  42.835  13.351
98113W        W65181  24.187  42.977   3.242
98114W        W65182  41.853  29.613  11.031
98115W        W65183  34.559  44.377  10.980
98116W        W65184  31.619  33.433  13.983
98117W        W65185  37.466  22.244  14.887
98118W        W65186  18.695  28.026  12.032
98119W        W65187  15.777  21.077  11.388
98120W        W65188  42.343  10.152  13.022
98121W        W65189  35.497  18.060  14.957
98122W        W65190  44.766  43.999   0.340
98123W        W65191  27.577  17.671  14.360
98124W        W65192  19.732  12.235   1.819
98125W        W65193  33.033  43.815   0.299
98126W        W65194  29.137   0.843   0.353
98127W        W65195  33.531  16.204  10.639
98128W        W65196  22.648  31.569  12.879
98129W        W65197  42.340  40.855  13.901
98130W        W65198  22.657  14.139   2.803
98131W        W65199  26.085  39.554   0.953
98132W        W65200  20.155   1.967  10.483
98133W        W65201  20.669  20.565   2.334
98134W        W65202  28.591  35.039   4.178
98135W        W65203  34.444  18.081   2.770
98136W        W65204  42.448   5.195  13.807
98137W        W65205   0.884  18.787  13.018
98138W        W65206  10.793  32.939  10.633
98139W        W65207  21.617  16.705   0.421
98140W        W65208   6.861  42.817   2.414
98141W        W65209  31.571   6.191   3.850
98142W        W65210  28.114  25.499  12.005
98143W        W65211  26.559  37.969   1.792
98144W        W65212   4.206  14.729  11.920
98145W        W65213  35.416  42.414   3.187
98146W        W65214  26.466  10.858  13.800
98147W        W65215  21.244  37.049   3.378
98148W        W65216  14.122  42.803  11.463
98149W        W65217  14.203  21.682  10.586
98150W        W65218   3.953  25.680  12.990
98151W        W65219   6.348  14.696   4.758
98152W        W65220  43.816  19.726   1.278
98153W        W65221   1.454  20.142  13.965
98154W        W65222  25.068   5.892   4.605
98155W        W65223  21.175   0.392   9.958
98156W        W65224  44.420  31.488  14.403
98157W        W65225  13.614   8.267   4.193
98158W        W65226  33.428  13.658  10.969
98159W        W65227  31.005  37.056  12.014
98160W        W65228  42.494   7.243   3.736
98161W        W65229  34.447   4.801  10.440
98162W        W65230  24.658  14.717   3.328
98163W        W65231  16.291  33.945  14.284
98164W        W65232   1.929  30.942  10.413
98165W        W65233  30.462   8.305  12.076
98166W        W65234  10.811  21.617  12.960
98167W        W65235  39.830  43.816  13.487
98168W        W65236   8.230  19.117   1.270
98169W        W65237  32.021  14.141   3.636
98170W        W65238  24.722  31.575  11.385
98171W        W65239  39.514  16.589  10.943
98172W        W65240  39.990  15.683  14.373
98173W        W65241  32.497   0.266   4.740
98174W        W65242  28.496  22.160  10.638
98175W        W65243  10.860  42.443   1.445
98176W        W65244  42.027   3.248  12.510
98177W        W65245  36.079   5.360   0.859
98178W        W65246  19.258  18.276  11.868
98179W        W65247  37.966   3.861  11.427
98180W        W65248  43.452  27.599   2.253
98181W        W65249  20.764  27.942  10.033
98182W        W65250  22.651   5.867   9.997
98183W        W65251  42.427  17.576   3.864
98184W        W65252  17.602   2.275   2.339
98185W        W65253  19.645  30.133   3.272
98186W        W65254  19.570  13.643  14.336
98187W        W65255  34.976  29.653   3.731
98188W        W65256  42.799  28.027  13.031
98189W        W65257  16.639  19.590  12.920
98190W        W65258  27.983  33.518   2.688
98191W        W65259  28.987  19.554   3.747
98192W        W65260  26.665  34.057   1.803
98193W        W65261  25.095  22.513  11.902
98194W        W65262  23.544   2.943  14.824
98195W        W65263  29.612  27.675   4.292
98196W        W65264   7.737   7.855   0.929
98197W        W65265  19.658  29.163  14.850
98198W        W65266  38.504  35.461   1.212
98199W        W65267  37.457  22.214   2.812
98200W        W65268   9.244   1.881   1.357
98201W        W65269   8.882  25.612   3.842
98202W        W65270  16.735  43.369   1.408
98203W        W65271  39.354  23.604   3.259
98204W        W65272  36.479  32.534   4.354
98205W        W65273   4.317  20.623   2.883
98206W        W65274  20.082   4.840   0.478
98207W        W65275  34.059   0.931   4.739
98208W        W65276   0.984  44.283  12.543
98209W        W65277   2.964  26.629   3.698
98210W        W65278   7.409  38.521   2.389
98211W        W65279   1.363  26.038   3.281
98212W        W65280  33.038  36.509  14.339
98213W        W65281   1.735  25.692  10.551
98214W        W65282  16.662  39.936   3.268
98215W        W65283   9.704  15.149   1.806
98216W        W65284  17.612  15.786   1.355
98217W        W65285  12.321   4.803  12.905
98218W        W65286  30.530  14.305   2.699
98219W        W65287  10.230   5.205   2.233
98220W        W65288  16.160  18.109   0.478
98221W        W65289   6.831  29.100   0.456
98222W        W65290  43.333  34.063  12.085
98223W        W65291  37.939  15.310   1.733
98224W        W65292  22.697  12.116  10.486
98225W        W65293  43.989  11.772   1.303
98226W        W65294  24.520   3.417  14.879
98227W        W65295   9.750  14.652  11.599
98228W        W65296  40.349  16.663  11.451
98229W        W65297  16.214   2.264   1.734
98230W        W65298  22.198  30.536  12.963
98231W        W65299   5.402  35.953   2.706
98232W        W65300  37.928  36.054   4.757
98233W        W65301  26.080   1.236   3.352
98234W        W65302  41.335  25.143  12.351
98235W        W65303  36.045  35.937  12.967
98236W        W65304  19.139   8.871   1.271
98237W        W65305  20.681  27.618   2.753
98238W        W65306  13.780  26.690  11.534
98239W        W65307  33.425  18.158   0.472
98240W        W65308  31.958  23.000   2.853
98241W        W65309  15.761   8.201   1.845
98242W        W65310  38.341  12.746   3.164
98243W        W65311  10.852  42.864  11.045
98244W        W65312  41.823  36.931  13.802
98245W        W65313  10.167  30.003   3.762
98246W        W65314   3.452  18.242   1.337
98247W        W65315   0.484  11.238   3.146
98248W        W65316  10.779  41.789   0.267
98249W        W65317  10.691   4.835  10.117
98250W        W65318  37.967  30.122  11.951
98251W        W65319  33.002  20.736  14.340
98252W        W65320  21.210  43.289  12.478
98253W        W65321  30.513  24.619  12.043
98254W        W65322   2.466   7.880   2.298
98255W        W65323   3.870   6.219   2.306
98256W        W65324   8.785   0.444   3.362
98257W        W65325   2.336  34.501   4.289
98258W        W65326   3.729  15.660   3.675
98259W        W65327  40.414  16.259  14.296
98260W        W65328  37.979  41.792  10.555
98261W        W65329   7.668  27.631   2.242
98262W        W65330  21.110  20.064  10.526
98263W        W65331  18.670  11.139   1.286
98264W        W65332  29.096  15.250  14.864
98265W        W65333  32.891  24.014   1.909
98266W        W65334  15.630  39.314  12.341
98267W        W65335  34.952  34.950  10.146
98268W        W65336  33.455  20.764  12.902
98269W        W65337  18.219  17.713  14.857
98270W        W65338  17.790   0.280   4.252
98271W        W65339   2.408  26.034  10.996
98272W        W65340  13.148  42.843  10.527
98273W        W65341  37.479   2.457  12.494
98274W        W65342  32.102  24.688  11.554
98275W        W65343  18.192  13.702   1.814
98276W        W65344   1.882   5.363   4.177
98277W        W65345  14.758  40.947   1.779
98278W        W65346  18.714  17.583   4.673
98279W        W65347   8.655  19.280   5.127
98280W        W65348  44.448  28.504  13.473
98281W        W65349  33.978   2.257   1.303
98282W        W65350  10.713  33.947   2.670
98283W        W65351  32.442   0.396  11.536
98284W        W65352  17.169   3.255  11.595
98285W        W65353  35.950   8.764  11.523
98286W        W65354  35.045  14.786   4.747
98287W        W65355  35.550  22.117   1.903
98288W        W65356   3.739  14.217   0.304
98289W        W65357  19.098  41.403  13.490
98290W        W65358   2.860  24.983  13.343
98291W        W65359   4.839  23.095  10.425
98292W        W65360  28.980  10.783   2.828
98293W        W65361  41.505  21.602   0.366
98294W        W65362  28.034  15.312  11.869
98295W        W65363  36.553  22.245  13.878
98296W        W65364  10.142   8.863   2.816
98297W        W65365   0.442  33.075  11.516
98298W        W65366   1.482   8.331  12.041
98299W        W65367  26.499  19.645  10.140
98300W        W65368  19.242  14.667  13.346
98301W        W65369  20.529   2.782   2.681
98302W        W65370  28.963  23.135  12.918
98303W        W65371  35.394  11.338   2.367
98304W        W65372  42.440  44.947   2.900
98305W        W65373  36.359  35.468  13.397
98306W        W65374  44.757  11.673  13.832
98307W        W65375  30.107  32.548  10.534
98308W        W65376  26.654  24.637  14.774
98309W        W65377  33.060  30.097  12.444
98310W        W65378  38.386  27.517  13.497
98311W        W65379  15.125  16.570   4.787
98312W        W65380   3.879  36.876  12.890
98313W        W65381  18.294   3.744  12.913
98314W        W65382  12.760  39.342   4.219
98315W        W65383  11.180  14.641  14.839
98316W        W65384   9.796  30.456   3.642
98317W        W65385  31.005  31.415   4.664
98318W        W65386  42.854  19.188  11.873
98319W        W65387  34.429   7.775   2.335
98320W        W65388  34.457  21.155   5.204
98321W        W65389  20.536  25.200   4.159
98322W        W65390  28.136  16.218  13.360
98323W        W65391  39.973  41.458  12.375
98324W        W65392  43.947  29.132   1.417
98325W        W65393   6.876  37.406  12.909
98326W        W65394  28.075  11.193  11.451
98327W        W65395   7.417  10.330  12.038
98328W        W65396   8.658  39.512  13.945
98329W        W65397  26.557  41.965  10.897
98330W        W65398   3.261   9.291   0.797
98331W        W65399  36.962  18.567   4.806
98332W        W65400   0.894  18.201  12.881
98333W        W65401   8.697   0.352  11.468
98334W        W65402  17.608  35.906   4.791
98335W        W65403   9.802  23.604   0.798
98336W        W65404  27.991   5.309  12.931
98337W        W65405  41.528  39.039  14.437
98338W        W65406  43.434   8.193  13.317
98339W        W65407  31.958   8.221  12.021
98340W        W65408  24.010  28.513  13.522
98341W        W65409  41.472  35.422  13.852
98342W        W65410  39.048  43.447   2.797
98343W        W65411  19.183  10.862   0.926
98344W        W65412  44.857   4.727  11.868
98345W        W65413  14.112  10.687  12.855
98346W        W65414  24.642   1.450   0.965
98347W        W65415  34.568   8.869  13.885
98348W        W65416  14.637  28.083  14.310
98349W        W65417   9.224   6.375   3.172
98350W        W65418   9.700  11.241  13.419
98351W        W65419  14.803  10.214   1.322
98352W        W65420  41.007  19.674  10.427
98353W        W65421  14.829  19.257   1.386
98354W        W65422  16.670  36.499  11.488
98355W        W65423  13.745   5.890   0.309
98356W        W65424  16.603  27.606  13.517
98357W        W65425  40.867   0.872   1.342
98358W        W65426   8.328  43.941  11.958
98359W        W65427  12.335   8.789  12.079
98360W        W65428  38.964  28.186   1.367
98361W        W65429  42.902  38.475  14.974
98362W        W65430  10.200  12.182   3.867
98363W        W65431  26.967  20.061  12.866
98364W        W65432  27.584  41.336   0.384
98365W        W65433  19.139  42.944   1.448
98366W        W65434  29.662  41.445   9.993
98367W        W65435  11.178  21.056   3.662
98368W        W65436  29.551  21.181   0.740
98369W        W65437  42.467  44.907   1.426
98370W        W65438   8.658  12.841  10.614
98371W        W65439  24.626   3.266  11.549
98372W        W65440  41.374  44.395   0.415
98373W        W65441  21.234  21.181  14.920
98374W        W65442  16.680  42.508  10.437
98375W        W65443  23.622   7.889  13.335
98376W        W65444  33.021  29.996   2.284
98377W        W65445  38.988   0.757   3.246
98378W        W65446   0.292   7.392  13.791
98379W        W65447  44.396  36.364  12.981
98380W        W65448  19.676   8.341  10.586
98381W        W65449   1.780  39.974  12.084
98382W        W65450  23.544  28.503   1.295
98383W        W65451  44.822  13.202   1.382
98384W        W65452  38.346  44.977  14.419
98385W        W65453  38.527   3.354  12.549
98386W        W65454   2.858  12.220  14.805
98387W        W65455  15.749  44.460   0.825
98388W        W65456   6.276  34.603  10.974
98389W        W65457   0.253  41.806   4.700
98390W        W65458  25.708  24.688  11.536
98391W        W65459  42.407  22.101  12.506
98392W        W65460  38.897  29.525  11.859
98393W        W65461  19.703   4.858   1.289
98394W        W65462  13.777   9.659   4.688
98395W        W65463  20.272  41.502  13.501
98396W        W65464  14.818  19.687  12.521
98397W        W65465  40.549  14.805   3.707
98398W        W65466   8.160  38.973  11.513
98399W        W65467  17.251  18.171   2.901
98400W        W65468  25.622  16.109  11.859
98401W        W65469  40.036  44.418  11.992
98402W        W65470  39.052  19.258   1.305
98403W        W65471  24.685   0.465   4.733
98404W        W65472   4.853  18.773  12.089
98405W        W65473   2.944  11.770   3.689
98406W        W65474  22.640  26.474   2.386
98407W        W65475   9.850  22.115  10.447
98408W        W65476  14.816  17.075   0.369
98409W        W65477  29.972  43.366  11.466
98410W        W65478  28.625  27.061   2.886
98411W        W65479  33.956  12.681  13.920
98412W        W65480  17.134  21.562   2.848
98413W        W65481  20.656  37.465   1.215
98414W        W65482   8.841  30.039  12.574
98415W        W65483  30.089  39.963  13.377
98416W        W65484   5.757  29.168  13.442
98417W        W65485  36.459  34.043  14.024
98418W        W65486   1.767  40.405   4.293
98419W        W65487  43.333  38.544  11.517
98420W        W65488  32.485   6.328   3.276
98421W        W65489  43.920  16.088  13.973
98422W        W65490  14.626  20.609  13.456
98423W        W65491  31.403  28.591  12.395
98424W        W65492  38.986  10.840  13.943
98425W        W65493  14.646  33.898  12.984
98426W        W65494  23.730  25.580   2.705
98427W        W65495  42.932  34.930   0.258
98428W        W65496  34.409  22.225   4.793
98429W        W65497  25.519  11.360   3.351
98430W        W65498  29.978  28.977   4.307
98431W        W65499   2.423  34.499  13.024
98432W        W65500  41.318  35.391   1.797
98433W        W65501  40.995  16.283  14.917
98434W        W65502  11.802  31.553   2.389
98435W        W65503  10.180  44.498   1.298
98436W        W65504  11.843  15.321  13.450
98437W        W65505  42.353  26.174   0.254
98438W        W65506  19.192  26.517  11.939
98439W        W65507  27.122  40.426  10.534
98440W        W65508   5.730   4.742   4.181
98441W        W65509  13.619  44.496  13.817
98442W        W65510   5.831   3.799  12.378
98443W        W65511  43.347  33.019   3.686
98444W        W65512   1.462  29.005   2.816
98445W        W65513  13.803  32.902  13.319
98446W        W65514  24.187  16.588  13.524
98447W        W65515   0.255  42.367  11.600
98448W        W65516  21.259   2.821   2.763
98449W        W65517  23.007  15.811   0.284
98450W        W65518  17.735  31.421   2.808
98451W        W65519  40.472  32.633  12.367
98452W        W65520   4.370  36.070   2.703
98453W        W65521  11.851  30.983   2.270
98454W        W65522  29.475   9.745   3.708
98455W        W65523  22.572  19.711  10.056
98456W        W65524  43.998  43.288   0.790
98457W        W65525  14.707  16.787   1.788
98458W        W65526   9.872  31.551  12.417
98459W        W65527  16.795  16.656   0.895
98460W        W65528  39.974  43.891   0.929
98461W        W65529  42.360  14.320   4.262
98462W        W65530  19.709  22.242   2.414
98463W        W65531  28.556  22.164  14.924
98464W        W65532  32.957  41.970  13.855
98465W        W65533   1.953   7.315   0.445
98466W        W65534  40.856   7.289   2.383
98467W        W65535   4.381   6.315  10.641
98468W        W65536  37.923  19.562   4.245
98469W        W65537   3.786  13.609   4.330
98470W        W65538  18.564  23.656   4.826
98471W        W65539  14.714   3.337   4.620
98472W        W65540  42.860  24.053   3.636
98473W        W65541  40.833  30.484  13.836
98474W        W65542   3.249  37.028  10.040
98475W        W65543  41.974   3.412  14.347
98476W        W65544   3.429  23.192  11.859
98477W        W65545  37.416  20.531   0.918
98478W        W65546   4.916  17.647  14.907
98479W        W65547  12.166   4.277  10.907
98480W        W65548  13.757  23.116   3.767
98481W        W65549  27.091   1.813  11.907
98482W        W65550  44.990  17.307  13.884
98483W        W65551   9.791  42.842   3.369
98484W        W65552  12.785  40.986  10.582
98485W        W65553  33.984  18.565   4.800
98486W        W65554  11.276  19.127  12.568
98487W        W65555   8.865  33.435  14.831
98488W        W65556  14.167  30.094   4.301
98489W        W65557  15.749  30.519  13.395
98490W        W65558  32.912  23.177   3.317
98491W        W65559  21.255  14.232   0.259
98492W        W65560  31.450  19.112  13.865
98493W        W65561  32.473   7.367   4.689
98494W        W65562  22.175   0.263  12.074
98495W        W65563  23.026   1.407  13.452
98496W        W65564   3.915   7.325  13.941
98497W        W65565  25.100  17.629  11.554
98498W        W65566  30.574  35.075  14.439
98499W        W65567  26.581   0.766   3.833
98500W        W65568  37.543  35.110   2.413
98501W        W65569   1.254   5.724   0.953
98502W        W65570   9.715   7.289   4.641
98503W        W65571  43.420  14.100   1.278
98504W        W65572  29.643  22.520  14.500
98505W        W65573  37.431  32.608  12.847
98506W        W65574  11.202  34.554  10.903
98507W        W65575  25.079  39.476  14.028
98508W        W65576  13.810   6.817   4.802
98509W        W65577  30.446  23.490  12.080
98510W        W65578  30.572  28.019  12.452
98511W        W65579   4.873   6.250   1.230
98512W        W65580  20.720  39.332   2.216
98513W        W65581  42.998  31.907   3.831
98514W        W65582  39.488  44.763   2.721
98515W        W65583  36.523  40.929   3.861
98516W        W65584   7.332  39.933  13.352
98517W        W65585  40.874   6.326  10.538
98518W        W65586   9.655  34.111  13.334
98519W        W65587  44.850  19.130   0.960
98520W        W65588  16.108  30.136  11.901
98521W        W65589  24.114  14.227   1.934
98522W        W65590  15.598   9.172   4.779
98523W        W65591  35.467  32.968   1.297
98524W        W65592  27.615   0.383   4.331
98525W        W65593  25.654  31.434   3.346
98526W        W65594  13.298  15.746  12.436
98527W        W65595  26.094  19.094   1.439
98528W        W65596  15.090  42.802   4.200
98529W        W65597  16.567  10.683   2.777
98530W        W65598  18.661  22.636  12.023
98531W        W65599  20.556   1.379  12.529
98532W        W65600  11.684  33.487   1.222
98533W        W65601  25.135   6.219  11.036
98534W        W65602  15.227  34.029   3.211
98535W        W65603   5.914  17.130   5.604
98536W        W65604  39.963  37.910  14.427
98537W        W65605  26.047  18.788  12.886
98538W        W65606  35.922  40.363   4.217
98539W        W65607   8.772  14.645   4.336
98540W        W65608   1.393  32.549   1.396
98541W        W65609  36.891  11.725  11.936
98542W        W65610  40.361  11.734  10.142
98543W        W65611  31.111  19.639   4.699
98544W        W65612  36.949  22.007  12.963
98545W        W65613  43.381  16.295  12.889
98546W        W65614   2.744  42.336  14.504
98547W        W65615  23.539  39.381  13.826
98548W        W65616  17.142  17.574   0.910
98549W        W65617  23.158  10.782  12.879
98550W        W65618  12.336  36.566  14.920
98551W        W65619  14.272  31.490   1.440
98552W        W65620  11.790  16.792   4.205
98553W        W65621  29.944  12.273  12.414
98554W        W65622  35.897  38.478   1.220
98555W        W65623  17.617  13.219  11.079
98556W        W65624   9.819  17.240  10.432
98557W        W65625  36.480   7.768   4.266
98558W        W65626  16.694  13.815  13.927
98559W        W65627  15.148   1.334   1.239
98560W        W65628  33.001   9.334   2.356
98561W        W65629  43.021  29.126  14.477
98562W        W65630  20.618  32.519   3.309
98563W        W65631  30.068   0.803  12.472
98564W        W65632  40.892  33.607   3.364
98565W        W65633  25.695   7.911  13.316
98566W        W65634   8.395  10.260   1.412
98567W        W65635   9.269  41.521   0.805
98568W        W65636   8.824  25.160  10.508
98569W        W65637  25.680  25.111   3.744
98570W        W65638  35.540  24.992   4.762
98571W        W65639  35.020   9.857   3.303
98572W        W65640  30.645  39.050  14.366
98573W        W65641  32.956   1.978  11.993
98574W        W65642   6.390   5.295  13.311
98575W        W65643  15.742  44.904   1.225
98576W        W65644  29.990  18.204  14.808
98577W        W65645   0.270  12.306  14.288
98578W        W65646  31.544   5.915  10.990
98579W        W65647  36.054  11.207   2.321
98580W        W65648   2.925  19.101  13.828
98581W        W65649  41.443  23.238   4.305
98582W        W65650  40.430  25.118   5.299
98583W        W65651   3.760  19.224  12.492
98584W        W65652   4.942  26.997  11.088
98585W        W65653   1.462   0.845   3.821
98586W        W65654  20.135  35.486  14.951
98587W        W65655  18.670  27.673   1.231
98588W        W65656  25.700  23.607   0.878
98589W        W65657  44.962  36.933   1.861
98590W        W65658  32.912  39.047  13.038
98591W        W65659   7.852  43.906   1.403
98592W        W65660  38.510  32.573  12.072
98593W        W65661  23.015  31.578  12.414
98594W        W65662  29.066   5.857  13.459
98595W        W65663  15.287  35.424   1.837
98596W        W65664  16.279   1.303  12.421
98597W        W65665  24.074  23.662   3.842
98598W        W65666  36.355   3.390  14.508
98599W        W65667  15.771   7.210  10.950
98600W        W65668  19.106  39.358   1.419
98601W        W65669  36.379   6.898   1.436
98602W        W65670   2.747  33.397  14.938
98603W        W65671   3.878   3.414   3.299
98604W        W65672   8.380  37.970  12.899
98605W        W65673  42.469  36.592   2.412
98606W        W65674   0.962  12.689   3.245
98607W        W65675  28.061  42.413   9.983
98608W        W65676  35.362  44.358  10.955
98609W        W65677   0.836  17.724  12.906
98610W        W65678  27.954   5.194  10.549
98611W        W65679  23.491  21.688  10.590
98612W        W65680   3.427  27.494  11.438
98613W        W65681  10.792  25.144  13.375
98614W        W65682  29.137  41.894   2.767
98615W        W65683   6.330   3.805  11.510
98616W        W65684  35.515  20.558  13.863
98617W        W65685  14.616  14.207  14.783
98618W        W65686  22.241  34.430   0.920
98619W        W65687  30.581  26.662   2.339
98620W        W65688  23.003  40.440  13.842
98621W        W65689  26.628  17.726  12.072
98622W        W65690  41.406  24.538   4.819
98623W        W65691  27.106  23.044  14.841
98624W        W65692  43.902  40.019   4.657
98625W        W65693  32.906  10.204   2.305
98626W        W65694  24.168  37.880  11.969
98627W        W65695  20.187  11.164   2.250
98628W        W65696  24.552  10.163  10.518
98629W        W65697   9.389  22.133   2.206
98630W        W65698  13.750  28.462   3.681
98631W        W65699  30.552  41.466   3.153
98632W        W65700  23.213  33.007  14.389
98633W        W65701  40.489  19.627  13.971
98634W        W65702  40.369   7.363   9.948
98635W        W65703   9.844  19.570  10.998
98636W        W65704   8.235  20.634   4.340
98637W        W65705  34.096  27.943   4.255
98638W        W65706  42.404  39.989   1.432
98639W        W65707  16.207  28.524  12.578
98640W        W65708  26.109  25.679  13.448
98641W        W65709  12.351  44.853  11.926
98642W        W65710   4.205  29.492   2.799
98643W        W65711  14.654   3.231   4.229
98644W        W65712   2.228  44.915  13.321
98645W        W65713  42.512  39.946   0.402
98646W        W65714  41.005   4.389   2.674
98647W        W65715  12.681  43.341  10.574
98648W        W65716   2.850   4.870   4.222
98649W        W65717  24.598  11.173  12.933
98650W        W65718   1.456  15.130   2.289
98651W        W65719  17.154  27.998   4.676
98652W        W65720  19.274   5.348  13.965
98653W        W65721  24.710   9.338   0.337
98654W        W65722  40.907  36.960   3.263
98655W        W65723   1.450  11.844  14.771
98656W        W65724  33.935   2.857  13.438
98657W        W65725  34.108  36.878  13.317
98658W        W65726  39.345  26.139   0.726
98659W        W65727  22.554  35.504   0.820
98660W        W65728  25.578  32.901  10.905
98661W        W65729  22.726  34.084  10.640
98662W        W65730  32.049  15.164   2.404
98663W        W65731   8.772   7.677   2.304
98664W        W65732  24.059  13.688   2.887
98665W        W65733   7.395  19.143   5.624
98666W        W65734  24.542  15.703  11.954
98667W        W65735  22.677  24.537   3.684
98668W        W65736   3.804  34.552   3.778
98669W        W65737  37.896  11.768   1.760
98670W        W65738   4.924  30.557   3.176
98671W        W65739  29.063  39.871  11.045
98672W        W65740   0.797  21.261   4.751
98673W        W65741  25.212  33.103  12.868
98674W        W65742  38.372  18.686   3.253
98675W        W65743  40.381  44.385  10.067
98676W        W65744  41.991  42.795   4.168
98677W        W65745  40.312   2.871   4.170
98678W        W65746  35.018  43.361   4.151
98679W        W65747  18.275  29.566   1.694
98680W        W65748  25.146  26.687   0.428
98681W        W65749  14.125  34.492   1.407
98682W        W65750  21.704  18.703   0.784
98683W        W65751  32.978   5.745   0.341
98684W        W65752  19.719   8.345  12.988
98685W        W65753  43.801  40.514  10.910
98686W        W65754  27.507   4.714   0.380
98687W        W65755  31.077  30.590  13.890
98688W        W65756  44.917  13.159  11.376
98689W        W65757  44.797  33.999  11.964
98690W        W65758  36.924  13.157  11.076
98691W        W65759   7.411  21.655   0.250
98692W        W65760  12.728  37.970   3.657
98693W        W65761  24.499  43.916  11.895
98694W        W65762  44.323  19.205   3.779
98695W        W65763  18.545  26.961   2.772
98696W        W65764   8.264  11.799   1.796
98697W        W65765   7.278  19.214   1.889
98698W        W65766  37.538  23.677   9.947
98699W        W65767  40.008   1.474   1.818
98700W        W65768  41.459  23.512   4.767
98701W        W65769  21.144  36.965  11.590
98702W        W65770  32.529  23.679   4.822
98703W        W65771   4.826  21.153   2.278
98704W        W65772  20.618   2.269   0.358
98705W        W65773  28.976  36.016  14.492
98706W        W65774  32.451   3.904  12.096
98707W        W65775  10.258  39.370  13.021
98708W        W65776   0.380  38.492   0.764
98709W        W65777  31.148  31.992   0.357
98710W        W65778  43.417  17.638   3.749
98711W        W65779  23.697  26.541   2.327
98712W        W65780  34.416  44.274   3.754
98713W        W65781  27.450  18.203  11.970
98714W        W65782   9.265   6.753  10.531
98715W        W65783   6.277  18.753   4.602
98716W        W65784  44.500  38.501  14.025
98717W        W65785   7.849   2.364   2.828
98718W        W65786  25.703  16.596   3.865
98719W        W65787  37.566  39.398  14.509
98720W        W65788  35.500  25.013  12.434
98721W        W65789  28.584  10.293   1.440
98722W        W65790  27.181   2.315   3.237
98723W        W65791  13.769  21.733  13.976
98724W        W65792  27.452  14.180  14.469
98725W        W65793  32.414  21.193  10.160
98726W        W65794  43.442   1.248   3.780
98727W        W65795  23.195   4.911  13.829
98728W        W65796  23.633  35.092  14.397
98729W        W65797  25.588  41.375   2.745
98730W        W65798  20.060  35.895   3.694
98731W        W65799  31.563  16.723  13.466
98732W        W65800  22.220  30.594   0.371
98733W        W65801  24.614  14.745  12.378
98734W        W65802   2.943   8.220  13.063
98735W        W65803  22.619  20.613  11.603
98736W        W65804  19.044  36.416   3.861
98737W        W65805  28.516  39.893   4.117
98738W        W65806  17.231  14.159  12.526
98739W        W65807  22.560   2.303   4.628
98740W        W65808   5.859  33.427   1.309
98741W        W65809  26.200  25.667   1.394
98742W        W65810  24.112  34.491   3.214
98743W        W65811   2.837  23.606   2.817
98744W        W65812  18.655  19.565   3.857
98745W        W65813  37.354  15.811  12.468
98746W        W65814  21.231  13.678  10.464
98747W        W65815  39.497  28.571  10.638
98748W        W65816  42.981  14.193   4.155
98749W        W65817  15.110  18.123  12.932
98750W        W65818  34.432  19.092   4.182
98751W        W65819  11.244  11.713  10.990
98752W        W65820  21.662  11.862  13.002
98753W        W65821  35.565  12.736  14.368
98754W        W65822   0.471  11.359   1.728
98755W        W65823  33.384   8.710   1.853
98756W        W65824  12.828   4.914  13.498
98757W        W65825  38.435   3.401  11.866
98758W        W65826   3.936   0.844  13.817
98759W        W65827  40.848  44.765   4.186
98760W        W65828  25.208  42.489  12.349
98761W        W65829   1.742  33.617   2.720
98762W        W65830  24.692  26.121   1.728
98763W        W65831  23.636   6.698  13.315
98764W        W65832  33.947  37.901   2.188
98765W        W65833   4.379   3.783  11.055
98766W        W65834  14.195  20.103  11.934
98767W        W65835  41.369  35.522  13.024
98768W        W65836  39.909  13.716  13.474
98769W        W65837   0.371  22.668  14.418
98770W        W65838   8.698  44.295   5.125
98771W        W65839  20.657  20.244   3.647
98772W        W65840  43.292  41.917  13.339
98773W        W65841  15.164  33.002  11.108
98774W        W65842  13.675   1.845   3.163
98775W        W65843  22.175  32.104  11.920
98776W        W65844  17.567  21.128  13.831
98777W        W65845  17.183  23.549  11.083
98778W        W65846  39.370  25.970  13.546
98779W        W65847  25.208   9.260   3.773
98780W        W65848  41.512  19.222   3.267
98781W        W65849  34.910   8.285  14.465
98782W        W65850   6.920   7.806  14.456
98783W        W65851  27.679   0.744   1.795
98784W        W65852  21.067   2.392   0.792
98785W        W65853   7.336   3.815   3.220
98786W        W65854  31.044  11.810   1.864
98787W        W65855  42.797  21.652  13.488
98788W        W65856  21.723  37.386   2.272
98789W        W65857  34.413  40.995  12.546
98790W        W65858  39.036   8.327  11.998
98791W        W65859  32.494  13.323  12.841
98792W        W65860  37.012  20.736   1.743
98793W        W65861  15.088  27.580   2.350
98794W        W65862  29.966  34.898   0.793
98795W        W65863   0.292  30.030  12.428
98796W        W65864   4.765  33.428  10.599
98797W        W65865  25.629  24.174   0.253
98798W        W65866   7.232  21.586   2.761
98799W        W65867  36.948   5.835   0.732
98800W        W65868  24.573  36.059   0.295
98801W        W65869  15.620  40.366  14.003
98802W        W65870  15.799  18.258  10.153
98803W        W65871  20.738  37.340  11.389
98804W        W65872  39.421  43.963  12.915
98805W        W65873  33.118  31.637   2.347
98806W        W65874   9.245  15.581   3.154
98807W        W65875  44.315  10.855  14.278
98808W        W65876  29.525  25.532   2.715
98809W        W65877  24.551  27.672  10.638
98810W        W65878  38.380  29.577  13.323
98811W        W65879  44.446   4.265  14.442
98812W        W65880  35.365  25.188   4.339
98813W        W65881  22.586  14.197   1.802
98814W        W65882  27.641  25.157   1.430
98815W        W65883  16.226  10.868   5.728
98816W        W65884  28.560   1.399   4.780
98817W        W65885  15.147  37.992  11.520
98818W        W65886  29.924   6.702  14.869
98819W        W65887  29.133   2.868  13.942
98820W        W65888  17.276  16.209  12.442
98821W        W65889  32.912  39.539  12.046
98822W        W65890  17.066  19.041  13.369
98823W        W65891  20.217  30.626   0.268
98824W        W65892   7.845  19.676   1.796
98825W        W65893  29.115  33.622   2.846
98826W        W65894  32.090  11.705   0.871
98827W        W65895   9.259   1.733  12.068
98828W        W65896   1.958   2.358  10.513
98829W        W65897  25.492   7.320   2.235
98830W        W65898  20.141  35.541   1.797
98831W        W65899  13.769   6.693  11.537
98832W        W65900  32.066  16.643  11.587
98833W        W65901  34.977  13.747  13.365
98834W        W65902  24.574  39.399   2.334
98835W        W65903  42.906  17.785  14.784
98836W        W65904  25.585   9.200  13.537
98837W        W65905  34.977  34.979   3.706
98838W        W65906  44.502  40.341  14.952
98839W        W65907  41.354   0.745   4.303
98840W        W65908   0.402  16.315   1.257
98841W        W65909  16.813   7.196   3.153
98842W        W65910  16.240   0.887   0.749
98843W        W65911  38.387  15.187   2.198
98844W        W65912   3.444  34.994  12.550
98845W        W65913  11.171   1.426  14.874
98846W        W65914   8.733  11.127  10.936
98847W        W65915  30.996   7.836  11.438
98848W        W65916   0.930  30.558   1.424
98849W        W65917   5.437  31.519  11.474
98850W        W65918  11.147  33.935  14.308
98851W        W65919  38.063  22.647  13.321
98852W        W65920  40.903  30.954  13.336
98853W        W65921  42.486  25.701   3.815
98854W        W65922  44.345  22.657  14.804
98855W        W65923  44.409  15.724  13.944
98856W        W65924  30.032  30.157   0.481
98857W        W65925  18.086  43.476   2.848
98858W        W65926  11.749  42.435   1.328
98859W        W65927  31.988  33.883   2.290
98860W        W65928  35.971   2.882  13.376
98861W        W65929  16.724  19.664  11.037
98862W        W65930  24.700  20.239  14.313
98863W        W65931  40.513  40.543  10.611
98864W        W65932  40.488  16.791   1.790
98865W        W65933  32.025  20.057  10.494
98866W        W65934  25.073  21.618  13.324
98867W        W65935  29.432  25.093  11.004
98868W        W65936  11.282   9.879  10.634
98869W        W65937  15.791   6.295   3.804
98870W        W65938  22.170   3.415  11.571
98871W        W65939  42.883  44.261  11.956
98872W        W65940   1.431   6.807  14.354
98873W        W65941  18.178  20.089   0.479
98874W        W65942  34.391  21.538   2.247
98875W        W65943  36.541  25.187   9.941
98876W        W65944  38.983  41.992  10.580
98877W        W65945  28.164  16.254   2.307
98878W        W65946  29.658  42.304   0.443
98879W        W65947  31.919  32.618  14.407
98880W        W65948   4.761  15.107   0.296
98881W        W65949   5.301  22.087  10.404
98882W        W65950  18.780  37.047   0.905
98883W        W65951   5.704   0.832  13.894
98884W        W65952  25.040   9.281   3.192
98885W        W65953   2.872  20.567   3.172
98886W        W65954  39.476  26.055   2.418
98887W        W65955   7.207  16.710   0.801
98888W        W65956   9.197  32.436  11.889
98889W        W65957  15.087   5.735   4.755
98890W        W65958   3.829  17.091  13.837
98891W        W65959  40.524  39.976  11.910
98892W        W65960  24.522   5.691   3.672
98893W        W65961   3.374  14.629  12.375
98894W        W65962  18.235   1.904   2.682
98895W        W65963  20.084  31.897   3.201
98896W        W65964  14.830  11.836   1.696
98897W        W65965  13.785  22.673   1.726
98898W        W65966  14.187  33.957   4.785
98899W        W65967  10.768  14.748  13.908
98900W        W65968  17.721  41.014  10.565
98901W        W65969  16.273   9.341   0.732
98902W        W65970  10.693  15.088   1.772
98903W        W65971   5.278  41.425  11.111
98904W        W65972  11.650   7.800  13.369
98905W        W65973  41.408  41.433   2.315
98906W        W65974  25.498   6.242   3.816
98907W        W65975   2.327  12.122   4.168
98908W        W65976  33.964  25.559   3.228
98909W        W65977  15.694  43.816  10.639
98910W        W65978  25.476  40.912  14.291
98911W        W65979  33.394  27.133  14.319
98912W        W65980   8.392  26.639   4.320
98913W        W65981  32.630  35.004  11.956
98914W        W65982  22.642   8.378  14.781
98915W        W65983  27.641  44.410   2.894
98916W        W65984  44.831  32.137   1.850
98917W        W65985  18.766  12.756   2.742
98918W        W65986  15.143  44.377  11.389
98919W        W65987  40.497  27.945  12.445
98920W        W65988  30.940   4.351  11.406
98921W        W65989  28.118  11.815   3.690
98922W        W65990  22.514  15.100   1.341
98923W        W65991   6.731  25.161   1.277
98924W        W65992  32.906  41.408   0.857
98925W        W65993  35.005  41.042   3.237
98926W        W65994  21.198  43.875   3.207
98927W        W65995  30.076   5.780   2.678
98928W        W65996  17.764  16.589  14.341
98929W        W65997  28.593   2.226  11.485
98930W        W65998  17.610  42.314  11.486
98931W        W65999  29.058  16.671   3.788
98932W        W66000   3.294  19.096  12.461
98933W        W66001  37.938  21.217   0.461
98934W        W66002  15.106   9.875   1.778
98935W        W66003  21.156  36.078  13.881
98936W        W66004  44.775   8.218   2.807
98937W        W66005  35.417  37.966   4.811
98938W        W66006  38.469  36.911  14.396
98939W        W66007  26.030  16.608   0.732
98940W        W66008   8.174   8.663  14.340
98941W        W66009  40.821  22.244  14.429
98942W        W66010   1.355  31.017   0.335
98943W        W66011  38.523   7.818   3.163
98944W        W66012  15.807  42.467  10.452
98945W        W66013  33.459  18.194  10.479
98946W        W66014  40.495  42.440  13.469
98947W        W66015   3.944  26.135   4.830
98948W        W66016  14.253  40.441  14.015
98949W        W66017   3.323  31.125  14.968
98950W        W66018  15.307  28.469  14.969
98951W        W66019  19.635  24.624  11.520
98952W        W66020  41.351  43.448  12.476
98953W        W66021  33.442   9.151   3.280
98954W        W66022   3.795  36.995   3.663
98955W        W66023   0.309  16.204  14.828
98956W        W66024  43.823  39.012  12.514
98957W        W66025  21.219   2.411  13.825
98958W        W66026  12.773  29.634  13.017
98959W        W66027   5.702  35.895   2.394
98960W        W66028  29.462  39.024  10.551
98961W        W66029  30.514   0.307  10.966
98962W        W66030  15.675   0.950  14.275
98963W        W66031  35.493  10.675  14.464
98964W        W66032  43.310   1.357  13.385
98965W        W66033   7.197   1.887  11.512
98966W        W66034  30.963  35.876   5.266
98967W        W66035   9.292   6.921  13.916
98968W        W66036  33.481  10.746   3.158
98969W        W66037  32.413  31.634   1.415
98970W        W66038  14.814  27.607  12.039
98971W        W66039  18.714  34.042   1.800
98972W        W66040  41.484   5.822  13.391
98973W        W66041  36.435   7.835  11.033
98974W        W66042  31.594   6.775  14.312
98975W        W66043  16.152  41.962   3.825
98976W        W66044  36.415  44.342  12.850
98977W        W66045   2.291  11.624  13.046
98978W        W66046   9.238   2.839   1.291
98979W        W66047   7.335  15.643   3.868
98980W        W66048  32.063   0.253  13.979
98981W        W66049  40.510   8.893   2.364
98982W        W66050  13.141  32.524   1.308
98983W        W66051  36.028   1.246   0.740
98984W        W66052   1.769  24.012  13.914
98985W        W66053  44.989   7.350   2.388
98986W        W66054  42.015  44.988  14.366
98987W        W66055   8.833  20.574   4.802
98988W        W66056  20.209   3.438  14.510
98989W        W66057   7.219  38.994   4.670
98990W        W66058  25.530  24.222   2.782
98991W        W66059   0.755  39.398  13.019
98992W        W66060  19.756  12.652   2.719
98993W        W66061  22.114  37.512   2.403
98994W        W66062  24.999  19.660  13.797
98995W        W66063  16.254  40.447  11.416
98996W        W66064   6.879  11.679  14.440
98997W        W66065  17.176  13.687   1.845
98998W        W66066  40.387  37.473  10.149
98999W        W66067  23.048  22.510  11.408
99000W        W66068  19.176   8.789  11.064
99001W        W66069  13.600  18.157   2.847
99002W        W66070  44.338  42.373   3.815
99003W        W66071  41.011   0.297  12.888
99004W        W66072  34.448  18.160  14.814
99005W        W66073  25.149  34.110  12.092
99006W        W66074  41.483  11.699  13.455
99007W        W66075  15.637  10.682   3.174
99008W        W66076  32.056  23.544   3.871
99009W        W66077  29.052   3.273   1.263
99010W        W66078  21.081  40.417   0.409
99011W        W66079  35.885   6.732   1.249
99012W        W66080  31.411   5.885   0.483
99013W        W66081   2.848   7.180   4.608
99014W        W66082  38.001  20.626  11.448
99015W        W66083  44.449  32.611  13.517
99016W        W66084  31.001  38.864   1.313
99017W        W66085  12.347  36.092  12.471
99018W        W66086  39.382   8.813   1.702
99019W        W66087  25.484  34.019  12.845
99020W        W66088  38.070   0.988  10.416
99021W        W66089  27.468  27.040   1.278
99022W        W66090  11.244  12.821  14.911
99023W        W66091  18.130  43.332   0.257
99024W        W66092  19.101  35.911   2.665
99025W        W66093   1.327  13.299   2.689
99026W        W66094  42.009  18.252  10.018
99027W        W66095   4.342  22.179   3.366
99028W        W66096  20.705   4.771   0.301
99029W        W66097  24.074  37.026   0.480
99030W        W66098  44.922   9.844   3.734
99031W        W66099  40.865  13.718   3.218
99032W        W66100  17.667  31.441   1.212
99033W        W66101  37.070  37.031   2.347
99034W        W66102  26.492   5.781   2.408
99035W        W66103   1.934   7.363  11.019
99036W        W66104  36.578  41.947  13.355
99037W        W66105  44.324  11.648   2.203
99038W        W66106  42.429  27.084  12.006
99039W        W66107   0.775   4.917  11.551
99040W        W66108  16.262  28.482   2.332
99041W        W66109  40.513  22.673   4.600
99042W        W66110  11.851  42.825  11.001
99043W        W66111  37.084  20.561   3.812
99044W        W66112  29.162  29.475   3.766
99045W        W66113  36.418  16.588  14.843
99046W        W66114  44.418  17.700  10.076
99047W        W66115  30.567  37.903  10.988
99048W        W66116  28.069  30.441  11.403
99049W        W66117  12.759  29.996   3.367
99050W        W66118  24.700  19.603   3.741
99051W        W66119  37.890  28.552   4.668
99052W        W66120   1.948   8.205   0.280
99053W        W66121  25.708  33.549  11.113
99054W        W66122  32.139  18.082   1.296
99055W        W66123  14.170   1.321  12.340
99056W        W66124  21.531  33.084   0.278
99057W        W66125   4.274  10.767  13.446
99058W        W66126   5.234   7.395  12.529
99059W        W66127  21.068  12.734   1.436
99060W        W66128  10.259  33.004  14.842
99061W        W66129   2.855  29.505   3.714
99062W        W66130  27.978   5.813   1.306
99063W        W66131  29.594  23.104   3.687
99064W        W66132   9.662  31.107   4.650
99065W        W66133  30.044   7.394   2.881
99066W        W66134  41.884   3.920   2.314
99067W        W66135   2.467  42.871   5.176
99068W        W66136  36.992   5.207  13.851
99069W        W66137  26.671   6.239   2.185
99070W        W66138  35.522  32.112  11.501
99071W        W66139  41.498  19.074  11.570
99072W        W66140  18.175  13.807   0.304
99073W        W66141   4.330  29.601  13.432
99074W        W66142   7.806  32.919   3.346
99075W        W66143  11.335   4.834  12.368
99076W        W66144  18.277   3.290  10.599
99077W        W66145  20.080  43.318  10.425
99078W        W66146  14.147  31.008   3.336
99079W        W66147  44.280  17.671   0.787
99080W        W66148   2.834  43.882   3.364
99081W        W66149  40.429  20.036   3.196
99082W        W66150  20.271  31.415   3.766
99083W        W66151  31.636  12.764  14.822
99084W        W66152   3.237  35.946  11.486
99085W        W66153  21.122  37.377  14.988
99086W        W66154   5.747  38.362   0.811
99087W        W66155  41.484   5.337  10.522
99088W        W66156  29.430   0.390   0.780
99089W        W66157  40.987  31.113   0.386
99090W        W66158  10.811  41.510   4.821
99091W        W66159   5.870   3.886   2.212
99092W        W66160  36.971   0.822   1.808
99093W        W66161  44.867  41.491   4.634
99094W        W66162  30.078   3.853   0.797
99095W        W66163  28.588  38.902  14.971
99096W        W66164  21.745  14.617   2.896
99097W        W66165  11.333  43.803   1.779
99098W        W66166  15.707   8.720  11.491
99099W        W66167   2.392  33.987   4.173
99100W        W66168  13.220  38.951   2.238
99101W        W66169  22.715  20.210   1.391
99102W        W66170  21.531  41.839  11.875
99103W        W66171  21.257  31.526  11.409
99104W        W66172   9.334  28.484  10.899
99105W        W66173  19.674  11.832  14.795
99106W        W66174  30.448  11.688  12.464
99107W        W66175  43.782  22.566  13.927
99108W        W66176  16.579  37.075  10.615
99109W        W66177  11.865  36.080   5.182
99110W        W66178  20.562  24.075  10.528
99111W        W66179  22.109  35.583   4.156
99112W        W66180  25.625  35.478  14.373
99113W        W66181  34.404  17.183  12.391
99114W        W66182   8.713  40.025   4.335
99115W        W66183  39.823  15.278   0.243
99116W        W66184  35.999  18.290   1.903
99117W        W66185   5.358  20.702  10.593
99118W        W66186  15.784  39.481   2.814
99119W        W66187  25.496   1.396  10.471
99120W        W66188  38.885  16.719   2.749
99121W        W66189  42.929   8.813   5.187
99122W        W66190  44.355  33.500   1.741
99123W        W66191  43.284   1.915   0.354
99124W        W66192  31.569   6.784  11.473
99125W        W66193  37.395  25.202  14.398
99126W        W66194  44.988  42.469  11.516
99127W        W66195  13.649  10.203  12.850
99128W        W66196  19.156  17.271   3.354
99129W        W66197  14.314  21.255   3.704
99130W        W66198   0.302  42.519  14.923
99131W        W66199  12.132   1.473  11.422
99132W        W66200   8.171  37.835   2.249
99133W        W66201  37.470  43.952  14.915
99134W        W66202   7.275  23.057  11.408
99135W        W66203  23.702   1.889  10.564
99136W        W66204  11.714   3.295  14.394
99137W        W66205  35.403   2.761  11.858
99138W        W66206   4.291  15.203   2.393
99139W        W66207   4.321  30.945  10.601
99140W        W66208  13.767  11.813  14.275
99141W        W66209  23.635  23.723  14.510
99142W        W66210  13.738  31.494   2.766
99143W        W66211  21.754   5.788  14.462
99144W        W66212  11.689  26.195  14.925
99145W        W66213  23.230  27.044  11.451
99146W        W66214  18.697  30.575  11.983
99147W        W66215  26.681   7.844   3.739
99148W        W66216   3.920  34.927   3.354
99149W        W66217  31.962  11.622   4.690
99150W        W66218  12.813  39.988  13.440
99151W        W66219   3.873  25.169   0.319
99152W        W66220   1.937   2.771  12.025
99153W        W66221   2.323  13.190  11.893
99154W        W66222   3.887   1.843   1.214
99155W        W66223   5.721  12.288   3.644
99156W        W66224  30.496  44.971  10.911
99157W        W66225  38.500  25.641  13.796
99158W        W66226  39.892  15.123   3.211
99159W        W66227   4.707   2.327  11.012
99160W        W66228  43.474  18.185   2.804
99161W        W66229  34.083  42.409   1.813
99162W        W66230  40.501  26.117  12.993
99163W        W66231  34.421  32.486  12.520
99164W        W66232  31.526  41.891  11.411
99165W        W66233  15.238  37.361  14.824
99166W        W66234   7.897  31.436   0.758
99167W        W66235  23.724  16.644   3.373
99168W        W66236   2.268  12.857   4.760
99169W        W66237   1.324  28.051   1.918
99170W        W66238  31.615   3.442  13.801
99171W        W66239  28.569   4.812  14.873
99172W        W66240  42.318  31.143  11.127
99173W        W66241   8.264  36.046   0.730
99174W        W66242  38.834  41.376  13.501
99175W        W66243  18.254  13.130   1.443
99176W        W66244   6.200  37.524   4.139
99177W        W66245   1.843  29.605  13.829
99178W        W66246   2.750  17.610   1.715
99179W        W66247  35.410   4.745  12.542
99180W        W66248   4.897  19.040   1.829
99181W        W66249  44.845  35.897  11.068
99182W        W66250  28.150   4.337  12.848
99183W        W66251   6.846  43.384   4.223
99184W        W66252   6.706  10.822  13.333
99185W        W66253  37.901  11.776  12.395
99186W        W66254  12.122  32.087  13.877
99187W        W66255  33.388  15.725   2.243
99188W        W66256   2.741   4.775   4.721
99189W        W66257  26.538  35.988  14.306
99190W        W66258  44.006  24.620  10.526
99191W        W66259  17.711   7.676  11.059
99192W        W66260  30.096  31.083  13.040
99193W        W66261  41.015  16.134   4.217
99194W        W66262  28.006  22.076   0.257
99195W        W66263  14.226  28.019  12.501
99196W        W66264  22.646  17.557   2.188
99197W        W66265   7.758  20.754   1.346
99198W        W66266  21.150  11.833   3.661
99199W        W66267  21.577  32.637  10.445
99200W        W66268  26.985  32.918   1.425
99201W        W66269  34.490  18.179  12.924
99202W        W66270  22.688  14.246  12.559
99203W        W66271  30.461  34.544  10.460
99204W        W66272  20.717  41.027  10.959
99205W        W66273  23.151  12.225   0.345
99206W        W66274   0.362  12.822   1.697
99207W        W66275  28.139  13.249  10.603
99208W        W66276  34.493  35.518  13.931
99209W        W66277   2.312  16.318  13.540
99210W        W66278   5.333  38.483   0.896
99211W        W66279  24.164  42.467  12.827
99212W        W66280  13.716  17.266   0.966
99213W        W66281  35.577  28.441   2.313
99214W        W66282   0.775   9.674  10.489
99215W        W66283  22.202   7.848  11.885
99216W        W66284  19.051  40.988   4.322
99217W        W66285   6.916  19.659  13.499
99218W        W66286  31.915   2.389  13.968
99219W        W66287   9.816   4.317   0.830
99220W        W66288   9.170  26.584   3.300
99221W        W66289   5.431   7.219   4.242
99222W        W66290  13.803  44.502  10.547
99223W        W66291   7.410  23.137  13.035
99224W        W66292   2.807  28.078   1.800
99225W        W66293  26.968   2.771   0.461
99226W        W66294   4.911  11.670  13.994
99227W        W66295  27.980  43.892  10.530
99228W        W66296  21.078  42.332   0.742
99229W        W66297  43.794   5.421   4.203
99230W        W66298  20.696  34.391   1.325
99231W        W66299  17.183  26.118  13.467
99232W        W66300  20.241  32.403  11.428
99233W        W66301  36.490  10.849  13.927
99234W        W66302  36.955   9.345   0.747
99235W        W66303  44.987   7.819  11.884
99236W        W66304  29.105  14.317   0.410
99237W        W66305  19.700  24.657  12.071
99238W        W66306  39.377  39.354   3.715
99239W        W66307  21.224   7.310  11.463
99240W        W66308   0.782   5.720  11.049
99241W        W66309  20.726   5.312  14.437
99242W        W66310  25.216  16.160   0.878
99243W        W66311  11.759  24.114  13.316
99244W        W66312   2.762  30.446  14.422
99245W        W66313  16.151  22.661   3.313
99246W        W66314   5.425  30.562  14.341
99247W        W66315   1.844  11.716   4.183
99248W        W66316   8.181  33.385  11.925
99249W        W66317  37.360  17.132   3.190
99250W        W66318  41.461  13.738  13.865
99251W        W66319  44.009  25.608   2.894
99252W        W66320  26.029   7.886  11.917
99253W        W66321  18.638   1.830  14.463
99254W        W66322  36.093  31.965  14.356
99255W        W66323   6.771  26.126  13.438
99256W        W66324  11.726  20.634   3.745
99257W        W66325  34.919  44.402   0.894
99258W        W66326  12.241  39.445  13.545
99259W        W66327  28.998  12.827   3.166
99260W        W66328   9.302  27.490  11.612
99261W        W66329  20.090  29.119  13.469
99262W        W66330   5.274   0.315   0.476
99263W        W66331  11.211  12.292   2.351
99264W        W66332  29.982   0.307  12.934
99265W        W66333  41.455  40.973  13.507
99266W        W66334   4.801  44.482  12.406
99267W        W66335  36.909  32.092   1.921
99268W        W66336  39.356  34.604   0.895
99269W        W66337   0.818  34.454  13.045
99270W        W66338   8.207  29.124  14.463
99271W        W66339  26.604  36.441   1.775
99272W        W66340  29.926  44.842   1.737
99273W        W66341   1.243   5.932  14.412
99274W        W66342   3.345   0.388  12.896
99275W        W66343   2.734   3.942   2.754
99276W        W66344   5.399   8.191   1.305
99277W        W66345  20.142  31.521   2.267
99278W        W66346  15.733  40.490   2.721
99279W        W66347  26.023  21.549   1.838
99280W        W66348  36.517   0.478  13.040
99281W        W66349  28.537   8.216  11.606
99282W        W66350  19.046  43.782   2.879
99283W        W66351  28.026  31.641  14.994
99284W        W66352  18.053  27.523  13.018
99285W        W66353   9.740  33.591  13.987
99286W        W66354  43.787  43.975   2.788
99287W        W66355  29.533   1.956  13.367
99288W        W66356  11.307  38.343   2.824
99289W        W66357   9.236   9.203  10.475
99290W        W66358  11.313   4.893  10.037
99291W        W66359  27.639  37.387   0.258
99292W        W66360  13.600  32.025   1.334
99293W        W66361  27.038  26.104   1.883
99294W        W66362  40.316  44.831  11.988
99295W        W66363  31.925   5.831   3.734
99296W        W66364  27.080  23.710   1.703
99297W        W66365  28.091   3.793  11.080
99298W        W66366  11.258  11.354   2.379
99299W        W66367  22.240  33.083  13.852
99300W        W66368  44.406  19.560   1.704
99301W        W66369   8.845   2.233   5.206
99302W        W66370  33.434  22.738   1.315
99303W        W66371  25.096   7.773   1.719
99304W        W66372  12.178   6.209  14.835
99305W        W66373  43.800   2.463  13.306
99306W        W66374  41.843  16.756  11.465
99307W        W66375  23.547  21.674   0.796
99308W        W66376   7.778  38.355  14.818
99309W        W66377  10.786  41.809   2.804
99310W        W66378  12.754  41.420  14.031
99311W        W66379  42.024   0.400   4.206
99312W        W66380  28.471  35.949   4.244
99313W        W66381  11.771  18.548  13.005
99314W        W66382   3.247  10.710   4.147
99315W        W66383  22.106  38.552  13.457
99316W        W66384  27.067   1.931  10.407
99317W        W66385  32.933  20.734  14.862
99318W        W66386  27.605   7.368   3.706
99319W        W66387  40.538  29.929  13.371
99320W        W66388   1.299  34.877   0.961
99321W        W66389  31.022  32.021   2.888
99322W        W66390  41.819  26.703   2.283
99323W        W66391  27.996  24.999   5.127
99324W        W66392  28.047   4.289  13.938
99325W        W66393  20.193  44.331   3.278
99326W        W66394  31.147   9.788  12.474
99327W        W66395  23.684  43.391   4.179
99328W        W66396  37.351  12.294  13.923
99329W        W66397  17.149  10.658  11.586
99330W        W66398   9.262  21.630  14.860
99331W        W66399  26.093  11.717  14.466
99332W        W66400  13.665  12.286  11.449
99333W        W66401  44.392  12.680  11.560
99334W        W66402   2.904  32.022   0.482
99335W        W66403  22.733  14.120  12.903
99336W        W66404  34.901  39.508   4.745
99337W        W66405   5.774  11.345   3.687
99338W        W66406  23.551  32.020   1.321
99339W        W66407  35.926  17.616   2.376
99340W        W66408  27.985   2.363  13.053
99341W        W66409  43.439  22.093   3.846
99342W        W66410  10.369   3.892   0.467
99343W        W66411   2.312  29.147   1.402
99344W        W66412  29.471  42.286  11.450
99345W        W66413  14.724   1.275   3.731
99346W        W66414  25.994  13.287  13.479
99347W        W66415  26.208  12.135  11.568
99348W        W66416  31.018  42.527  14.328
99349W        W66417  17.734  21.114  13.307
99350W        W66418  13.128   3.321  12.035
99351W        W66419  29.450   3.372   4.153
99352W        W66420  17.610  32.035   1.884
99353W        W66421  35.453  38.910   2.378
99354W        W66422  26.476   6.755   0.749
99355W        W66423  29.166  25.054  11.945
99356W        W66424  32.415  44.959  12.505
99357W        W66425  31.939  36.856   0.351
99358W        W66426  30.450  17.270   9.970
99359W        W66427  39.886  18.752   0.737
99360W        W66428  12.796  42.996   2.255
99361W        W66429  35.085  16.775  14.434
99362W        W66430  26.101   3.383   0.395
99363W        W66431  24.110  43.274   3.660
99364W        W66432   0.472   4.208  13.975
99365W        W66433  40.046  34.025  13.314
99366W        W66434  19.284  28.534   4.219
99367W        W66435  12.664  24.569   3.222
99368W        W66436  30.413  21.039  13.799
99369W        W66437  33.481  18.175   3.191
99370W        W66438  29.435  28.057  10.498
99371W        W66439  34.107  27.584   0.249
99372W        W66440   7.295  34.085   1.244
99373W        W66441  25.132  43.381  12.517
99374W        W66442  36.501   1.872  10.481
99375W        W66443  29.984   2.767   1.312
99376W        W66444   2.310   1.411   1.229
99377W        W66445  34.555  28.597  14.854
99378W        W66446  11.284  28.465   2.686
99379W        W66447  10.759  34.964   4.817
99380W        W66448  22.612  28.152  12.081
99381W        W66449  10.201  15.639  10.610
99382W        W66450  24.668   4.207   3.322
99383W        W66451  43.830  20.524   2.885
99384W        W66452  13.224  26.624  11.002
99385W        W66453  23.184   8.813  11.401
99386W        W66454  38.997  15.200   1.888
99387W        W66455   4.394  33.117  13.007
99388W        W66456  27.047  36.963   2.769
99389W        W66457  29.522  34.536  13.993
99390W        W66458  27.672  22.012   0.739
99391W        W66459  18.765  26.609  10.472
99392W        W66460  30.596  44.303   4.155
99393W        W66461  44.992   0.358  11.057
99394W        W66462  24.562   6.241   3.204
99395W        W66463   3.299  35.440   1.833
99396W        W66464   0.849  14.254   2.683
99397W        W66465  13.193  26.124   3.377
99398W        W66466  36.076  42.928   0.852
99399W        W66467  29.939  27.046   0.396
99400W        W66468  33.547  16.706   4.808
99401W        W66469  23.673   1.483   0.281
99402W        W66470  12.177  26.028  12.042
99403W        W66471  26.691  19.653  12.855
99404W        W66472  15.271  25.022   0.964
99405W        W66473  38.057   9.378  13.030
99406W        W66474  21.135   8.859  12.461
99407W        W66475   6.407  42.862   2.886
99408W        W66476  37.890   2.310   4.278
99409W        W66477  21.578   3.432  11.592
99410W        W66478  12.721  17.717   0.246
99411W        W66479  18.170  42.997   3.630
99412W        W66480  31.948  43.959   4.198
99413W        W66481  13.107  21.131   2.697
99414W        W66482   8.832  27.475  10.553
99415W        W66483  42.859  14.217   1.289
99416W        W66484  25.009   3.374   1.699
99417W        W66485   5.894  30.929   0.453
99418W        W66486  15.111   8.294   3.743
99419W        W66487   7.362  30.598  13.508
99420W        W66488   4.242  33.522  10.553
99421W        W66489  36.855  16.607   3.219
99422W        W66490  20.551  33.521  14.284
99423W        W66491   0.334  44.799  13.806
99424W        W66492  10.745  23.071  10.491
99425W        W66493  39.526  22.683   3.282
99426W        W66494  26.054   6.265   2.385
99427W        W66495  34.456   4.340   3.736
99428W        W66496  13.228  13.600  11.504
99429W        W66497  18.607   2.318  10.985
99430W        W66498  16.118  28.644   9.441
99431W        W66499  20.537  10.298   2.280
99432W        W66500   0.361  15.108  11.427
99433W        W66501  24.027  33.131  14.992
99434W        W66502  15.599  24.175   3.838
99435W        W66503  36.386  18.724   2.331
99436W        W66504  42.465  10.360   0.474
99437W        W66505  20.048  10.166  13.841
99438W        W66506  20.749  43.495   3.346
99439W        W66507   9.374  13.838   2.329
99440W        W66508  15.117   0.757  14.849
99441W        W66509   7.824  35.470   2.186
99442W        W66510  15.144   9.883   2.329
99443W        W66511  25.648  13.834   3.214
99444W        W66512   0.947  25.526   9.920
99445W        W66513   0.315  20.039  13.538
99446W        W66514  39.998  35.430   2.791
99447W        W66515  13.729   5.248  13.354
99448W        W66516  31.918  23.141  12.518
99449W        W66517  42.296  42.297   0.464
99450W        W66518  32.529   4.919   3.214
99451W        W66519   6.415  33.031   3.733
99452W        W66520  15.597  27.628   9.948
99453W        W66521   3.234   1.238  13.387
99454W        W66522  10.796  27.666   2.209
99455W        W66523   3.753  41.031   1.291
99456W        W66524  39.906  37.888  13.895
99457W        W66525  31.111  28.169  13.331
99458W        W66526   1.440   7.239  10.431
99459W        W66527  35.511   1.900  12.850
99460W        W66528  34.533  41.959   2.832
99461W        W66529  42.393  41.476   2.216
99462W        W66530   8.766   7.224  13.445
99463W        W66531  22.686  17.307   3.671
99464W        W66532  44.381  37.542  14.442
99465W        W66533   4.804   6.391  13.941
99466W        W66534   6.328  28.524  12.062
99467W        W66535  31.927  22.140  13.879
99468W        W66536  38.474  23.115   0.827
99469W        W66537  35.056  29.043  14.011
99470W        W66538   3.929  23.706   1.327
99471W        W66539  20.211  41.294  13.900
99472W        W66540  19.102  17.717  11.400
99473W        W66541  37.890  29.515  13.366
99474W        W66542   7.845   0.867   1.910
99475W        W66543  29.625  27.042  12.983
99476W        W66544  25.019  39.005   3.870
99477W        W66545  44.786  14.325  14.965
99478W        W66546  42.338  18.187   4.236
99479W        W66547  25.988   6.859   0.877
99480W        W66548   8.324  39.943   1.935
99481W        W66549   1.851  15.248   3.855
99482W        W66550  40.359  30.042  10.955
99483W        W66551   7.326  11.826  13.042
99484W        W66552  35.463  24.986  12.934
99485W        W66553  34.076  29.453   2.417
99486W        W66554   2.867   3.278  12.346
99487W        W66555  20.616   3.344   0.899
99488W        W66556  13.653  17.742   3.646
99489W        W66557   5.334  25.092  11.550
99490W        W66558  13.600   2.844  12.494
99491W        W66559  28.665  23.502  13.815
99492W        W66560  15.171  42.962  12.579
99493W        W66561  21.560   8.732   0.268
99494W        W66562   7.192  18.787   2.413
99495W        W66563   5.309  11.258  11.910
99496W        W66564  22.090   6.203  14.803
99497W        W66565  11.722  26.023  12.880
99498W        W66566  39.442  11.800  11.577
99499W        W66567   9.375  32.066   4.276
99500W        W66568  12.196   2.804  11.875
99501W        W66569  24.648   2.800  10.624
99502W        W66570  39.317  43.951  13.477
99503W        W66571   1.830  38.911  10.989
99504W        W66572  39.327   1.895   4.323
99505W        W66573  34.566  32.618  13.038
99506W        W66574   4.858   5.872   1.694
99507W        W66575  30.922  31.028   1.772
99508W        W66576  16.793  27.552   1.235
99509W        W66577  42.779  11.356   1.239
99510W        W66578   1.357  21.242   2.245
99511W        W66579  42.408  28.059  11.410
99512W        W66580   8.318  19.680  11.019
99513W        W66581   5.204   8.782   4.783
99514W        W66582   8.362  18.052  10.980
99515W        W66583   5.349   6.310   1.238
99516W        W66584  22.151   6.679  12.002
99517W        W66585   7.670   6.783  13.919
99518W        W66586  39.536   1.314   2.228
99519W        W66587  21.089  21.559  12.011
99520W        W66588  20.081  43.908   0.754
99521W        W66589  22.077  31.490  14.301
99522W        W66590  43.295  15.199  13.054
99523W        W66591  25.540  23.571  11.502
99524W        W66592  18.154   5.917  14.455
99525W        W66593   2.470   2.828  10.641
99526W        W66594   8.820  15.297   1.379
99527W        W66595  27.692  33.132  11.934
99528W        W66596  39.500  41.537  13.808
99529W        W66597  24.096  29.922  13.524
99530W        W66598   1.328   2.335  12.050
99531W        W66599  11.368  27.187  14.320
99532W        W66600  32.954  41.476  14.952
99533W        W66601  19.600  22.084   4.134
99534W        W66602  42.337  24.597   4.790
99535W        W66603  29.985  12.638  14.796
99536W        W66604  39.904  20.098  13.042
99537W        W66605   9.191  43.967   4.691
99538W        W66606  30.096  20.577  12.026
99539W        W66607  13.268  23.713   2.791
99540W        W66608  30.562  29.048   1.367
99541W        W66609  35.920  20.663  10.560
99542W        W66610  44.959  29.665   2.745
99543W        W66611  39.818  20.154   4.757
99544W        W66612  16.688  34.429   4.351
99545W        W66613  40.389  42.397  12.382
99546W        W66614   6.772  44.408  11.388
99547W        W66615  31.028  35.515   4.677
99548W        W66616   9.302  30.570  11.401
99549W        W66617  20.042  32.451   1.762
99550W        W66618  13.342  33.022   1.243
99551W        W66619  30.461  21.568   3.825
99552W        W66620  44.289  13.707  11.596
99553W        W66621  20.657  44.341   2.839
99554W        W66622  24.138   6.904   3.203
99555W        W66623  28.017  26.054  13.520
99556W        W66624  15.135   8.706  13.885
99557W        W66625  28.669  23.009   1.317
99558W        W66626  40.445  35.080   0.303
99559W        W66627  42.024  30.071  14.946
99560W        W66628  23.505  21.563  14.466
99561W        W66629  39.476   8.668   0.740
99562W        W66630  20.045  11.334   1.888
99563W        W66631  29.622  30.041   4.709
99564W        W66632   2.302  25.588  11.475
99565W        W66633  41.869  28.140   2.834
99566W        W66634   6.756   6.331   0.807
99567W        W66635   3.809  31.515   3.760
99568W        W66636  23.652  40.441   3.301
99569W        W66637   9.366  14.186  10.413
99570W        W66638  42.875  40.005   1.890
99571W        W66639  25.111  17.229   1.783
99572W        W66640  44.890  22.214  11.987
99573W        W66641   4.812   0.985   0.963
99574W        W66642  13.237  32.509   2.240
99575W        W66643  17.689  21.205   2.269
99576W        W66644   4.719  33.611   5.157
99577W        W66645  11.856   0.821   1.732
99578W        W66646  40.316   9.888   4.707
99579W        W66647  16.188   0.473  14.839
99580W        W66648  34.092  21.654  13.044
99581W        W66649  12.198   6.881  12.429
99582W        W66650  18.074  20.128  11.613
99583W        W66651  23.586  15.241   3.647
99584W        W66652   6.793  32.129   3.716
99585W        W66653  12.360  40.374  11.935
99586W        W66654  33.887  12.131  12.561
99587W        W66655  36.844  24.115   2.329
99588W        W66656   3.814  14.254  11.959
99589W        W66657  33.406  24.628   0.250
99590W        W66658  42.524  10.701  14.456
99591W        W66659  23.122  15.748   0.916
99592W        W66660   3.309  29.047   4.246
99593W        W66661   7.260  44.983  13.925
99594W        W66662  42.356  38.074  11.498
99595W        W66663  23.216  39.994  11.543
99596W        W66664  14.210  23.643  13.473
99597W        W66665   5.761  20.178   3.765
99598W        W66666  30.947  24.078   3.247
99599W        W66667   6.353  43.362  12.947
99600W        W66668   4.912  23.038  12.347
99601W        W66669  29.432  17.249   1.403
99602W        W66670  24.002  21.563   1.933
99603W        W66671  24.995  14.261   2.667
99604W        W66672  17.197  31.987  12.580
99605W        W66673  30.472   9.679  11.421
99606W        W66674   9.690  16.800   3.255
99607W        W66675   9.165  15.310   1.705
99608W        W66676  14.125  25.966  14.407
99609W        W66677   0.352  22.610  11.020
99610W        W66678   0.491  41.298   4.294
99611W        W66679   0.405  28.552  14.859
99612W        W66680  42.803  32.956  12.478
99613W        W66681  17.637  23.526  12.520
99614W        W66682  27.668  25.970  10.487
99615W        W66683  14.826  11.717   2.307
99616W        W66684   8.878  41.036   1.426
99617W        W66685  20.595  43.499  11.524
99618W        W66686  13.750  18.590   3.766
99619W        W66687  25.967   0.256  10.988
99620W        W66688  34.090  25.551   2.413
99621W        W66689  26.023  16.232  11.488
99622W        W66690   0.268  32.497  11.605
99623W        W66691  37.861  19.142  12.536
99624W        W66692  44.370   6.350  13.409
99625W        W66693   1.248  12.209  14.489
99626W        W66694  28.051  31.906   0.905
99627W        W66695  38.826  25.649   4.705
99628W        W66696  22.615   1.777   4.770
99629W        W66697   3.317  21.752  12.067
99630W        W66698  17.623  22.213  11.129
99631W        W66699  11.211  25.665   4.741
99632W        W66700  36.886  28.507  12.089
99633W        W66701   5.897  25.123  10.513
99634W        W66702  23.020  42.033  13.409
99635W        W66703  10.361   3.719   2.863
99636W        W66704  18.121  30.422   3.666
99637W        W66705  40.431  23.546   9.988
99638W        W66706  26.045   9.829   4.251
99639W        W66707  32.963  36.845   1.344
99640W        W66708   5.772  12.839   1.789
99641W        W66709  17.593  24.013   4.263
99642W        W66710   7.866  29.166   4.298
99643W        W66711  21.107  37.971   3.772
99644W        W66712  12.784  32.086   0.960
99645W        W66713  22.084  41.325  14.851
99646W        W66714  41.305  23.234   2.830
99647W        W66715  33.000  18.747  14.450
99648W        W66716  18.230   4.870  14.935
99649W        W66717  32.468  24.206  14.499
99650W        W66718  36.356  18.083  10.459
99651W        W66719   1.950  20.589   1.277
99652W        W66720  10.359  17.149   1.696
99653W        W66721   5.713  34.512  10.923
99654W        W66722  44.407  21.547   1.359
99655W        W66723  17.240  43.965  12.988
99656W        W66724  29.566  20.542   2.191
99657W        W66725   7.911   7.277   1.843
99658W        W66726  33.130  40.888   1.245
99659W        W66727  17.758  43.473  13.472
99660W        W66728   7.323  35.097   1.751
99661W        W66729  24.579  31.922   4.708
99662W        W66730  29.630   4.846  13.888
99663W        W66731  42.826  12.776   0.925
99664W        W66732  18.754  34.893   2.893
99665W        W66733  35.037  16.610  11.115
99666W        W66734  26.576   5.773  13.317
99667W        W66735  17.673  26.579   3.745
99668W        W66736  21.177  34.957  11.455
99669W        W66737   0.345  43.418   1.365
99670W        W66738   4.705  36.547  12.837
99671W        W66739  13.714   6.841  10.585
99672W        W66740  29.483  25.003  12.424
99673W        W66741  11.822  24.212   0.334
99674W        W66742  41.452  32.620  14.898
99675W        W66743  32.964  44.758   0.317
99676W        W66744   5.402  26.697   2.888
99677W        W66745  30.562  41.005   1.336
99678W        W66746  19.169  37.081   3.823
99679W        W66747  33.453  38.433   1.358
99680W        W66748  34.070  27.524  12.969
99681W        W66749  38.963  13.608  13.465
99682W        W66750  10.367  30.093  10.526
99683W        W66751  31.552  11.276  10.556
99684W        W66752  18.714   2.439   3.671
99685W        W66753  38.357  12.714   2.822
99686W        W66754  20.128  22.666   3.709
99687W        W66755   6.197  14.676  12.574
99688W        W66756   0.916   3.740  14.029
99689W        W66757   0.489  19.674  12.412
99690W        W66758  14.763  23.187  12.938
99691W        W66759  12.290  32.480  14.799
99692W        W66760  40.530   3.905  11.003
99693W        W66761  22.723  33.611   5.201
99694W        W66762  23.530  39.920   3.740
99695W        W66763  26.663   6.904  11.572
99696W        W66764  39.940   0.888   4.633
99697W        W66765   4.310  12.642  13.377
99698W        W66766  15.658  31.613  10.032
99699W        W66767   9.200   6.189   2.836
99700W        W66768  22.032   4.315   3.345
99701W        W66769   6.802  31.647  14.781
99702W        W66770   0.899  23.042  14.376
99703W        W66771  36.568  19.552   4.709
99704W        W66772   2.868  29.576  11.033
99705W        W66773  15.219  40.510   2.662
99706W        W66774   6.873  23.114  14.475
99707W        W66775  36.872  33.054   3.317
99708W        W66776  11.159  41.517  13.977
99709W        W66777   4.446  26.649   3.668
99710W        W66778  36.525  12.198   0.867
99711W        W66779  14.329  18.674   1.310
99712W        W66780  15.203  28.140  14.315
99713W        W66781  29.053  32.418   2.705
99714W        W66782  36.006  30.625  14.377
99715W        W66783  27.941  28.966  12.552
99716W        W66784   3.380  31.434  12.421
99717W        W66785  14.097   5.428  11.553
99718W        W66786  37.357  42.933   2.739
99719W        W66787  33.953  13.193   4.209
99720W        W66788  29.935   8.246  10.611
99721W        W66789  33.481  22.713   1.912
99722W        W66790   2.832  28.158   4.163
99723W        W66791  17.596   0.757  13.817
99724W        W66792  31.090  37.446  14.794
99725W        W66793   2.918  30.574  12.539
99726W        W66794  27.983  26.182   2.815
99727W        W66795   2.341  11.765   1.252
99728W        W66796   3.330  18.672  13.960
99729W        W66797  26.498   9.264  13.984
99730W        W66798   2.797   1.764  10.995
99731W        W66799   1.319  33.877   0.335
99732W        W66800  15.129   7.272   2.869
99733W        W66801  42.942   7.401  10.543
99734W        W66802  11.738  22.725   4.164
99735W        W66803  27.578   6.769  11.044
99736W        W66804  43.913  25.133   2.751
99737W        W66805  24.684  41.957  13.362
99738W        W66806   4.249  20.106  10.155
99739W        W66807  39.962  35.960   3.221
99740W        W66808  44.271   6.396  11.592
99741W        W66809   7.879  24.624  11.486
99742W        W66810  33.121  23.010   4.228
99743W        W66811  23.588  30.963   3.723
99744W        W66812  41.402  19.205   1.314
99745W        W66813  18.133  22.017   1.895
99746W        W66814   0.423  36.874  13.916
99747W        W66815  42.348  19.240   0.455
99748W        W66816  10.145  33.607   3.688
99749W        W66817  32.396  14.646   1.918
99750W        W66818  18.282  30.538  13.965
99751W        W66819   1.395  28.157  14.307
99752W        W66820  38.452  22.070   3.163
99753W        W66821  37.966  38.852  13.391
99754W        W66822  20.104  32.519  13.904
99755W        W66823  21.132  23.652   3.158
99756W        W66824   0.427   7.344  14.491
99757W        W66825  26.501  32.505  12.876
99758W        W66826  29.618  33.969  10.543
99759W        W66827  42.343  24.503   3.645
99760W        W66828   5.436  39.546   3.151
99761W        W66829  11.363  24.560   2.741
99762W        W66830  40.914  21.606  13.829
99763W        W66831   4.879  33.075   0.302
99764W        W66832  19.183  43.819   3.714
99765W        W66833  36.024  25.709  12.974
99766W        W66834  35.869  10.207  14.944
99767W        W66835  37.366  30.648   0.289
99768W        W66836  24.034  38.971   3.223
99769W        W66837   0.856  13.793  12.434
99770W        W66838  27.500  10.800  12.903
99771W        W66839  22.171  12.315  11.523
99772W        W66840  38.408   6.426  14.804
99773W        W66841  42.006  31.071   2.816
99774W        W66842  33.981  18.713   3.869
99775W        W66843  22.148  10.239   2.798
99776W        W66844  39.533  29.964  13.824
99777W        W66845  14.124  29.988  11.122
99778W        W66846  41.324  19.690   5.253
99779W        W66847  32.961  13.238   2.333
99780W        W66848  16.118  11.835  14.305
99781W        W66849  41.789  40.333   1.770
99782W        W66850  12.126   7.417  13.464
99783W        W66851  16.587  35.021  11.389
99784W        W66852   1.742  25.034  13.031
99785W        W66853   3.868  36.515  10.964
99786W        W66854   4.733  36.560   5.139
99787W        W66855  41.353  34.615   1.236
99788W        W66856  19.711  17.273   3.822
99789W        W66857  41.323  25.061   3.808
99790W        W66858  16.724  44.819  13.010
99791W        W66859  28.071   9.299  13.854
99792W        W66860  20.229  26.100  14.462
99793W        W66861  19.600  33.441  12.072
99794W        W66862  35.023  13.277   4.155
99795W        W66863  23.584  13.641   4.170
99796W        W66864  42.018  21.216  13.422
99797W        W66865  27.655  30.066   1.259
99798W        W66866  28.528  11.744  13.510
99799W        W66867   6.225  28.107  10.534
99800W        W66868  40.958   4.767  14.351
99801W        W66869  18.703   7.343  12.996
99802W        W66870  37.502   9.223   2.805
99803W        W66871  16.614  14.631  12.557
99804W        W66872  22.574  12.644   1.372
99805W        W66873   1.346  16.146  10.417
99806W        W66874   4.745  29.110   1.343
99807W        W66875  10.254  28.617   4.225
99808W        W66876  11.338   3.781  13.895
99809W        W66877   2.354  14.718  13.014
99810W        W66878  16.764  13.844   0.912
99811W        W66879   8.900  43.910   0.278
99812W        W66880  21.596  10.364  14.809
99813W        W66881  42.334  22.589   3.767
99814W        W66882  41.430  11.338  10.525
99815W        W66883  34.496  33.424  14.845
99816W        W66884  15.253   3.319   1.696
99817W        W66885  33.939  27.479   3.833
99818W        W66886  43.815  29.040   4.295
99819W        W66887   1.802  42.479   2.819
99820W        W66888  19.719  20.536   2.358
99821W        W66889  19.171   4.268  12.063
99822W        W66890  26.663  17.735   3.240
99823W        W66891  27.087  10.661  13.530
99824W        W66892   8.842  13.299   4.289
99825W        W66893  15.121   7.697  10.030
99826W        W66894   3.935  14.272  13.051
99827W        W66895  26.199  42.466   1.850
99828W        W66896  27.527  30.414   2.754
99829W        W66897  13.220   8.752   0.879
99830W        W66898   1.309  44.354   1.812
99831W        W66899   1.451   8.212   2.794
99832W        W66900  31.026  23.220   1.769
99833W        W66901  15.675   7.734   0.465
99834W        W66902  35.085  28.477   2.692
99835W        W66903  15.168   2.441   2.809
99836W        W66904  35.567  35.859   4.306
99837W        W66905  24.523  11.828  11.014
99838W        W66906  16.758  24.984  14.297
99839W        W66907  40.923   6.330   0.782
99840W        W66908  15.683  36.437   2.880
99841W        W66909  43.943  33.893  10.641
99842W        W66910   5.761   9.232   4.675
99843W        W66911  16.278  26.600   3.830
99844W        W66912  12.835   9.207  13.916
99845W        W66913  29.552   1.809  11.998
99846W        W66914  22.536  26.690   2.677
99847W        W66915  42.933  26.101   0.742
99848W        W66916  20.045  36.423  10.562
99849W        W66917  32.978   3.383  14.354
99850W        W66918   8.894  17.659   2.798
99851W        W66919  31.542   8.389   3.692
99852W        W66920  18.555  26.569  13.030
99853W        W66921  39.343  13.682   3.784
99854W        W66922  13.271  26.471   2.181
99855W        W66923   9.673  40.835  14.024
99856W        W66924  39.558  21.574  11.858
99857W        W66925  19.619  13.239  13.891
99858W        W66926  30.521  24.493   0.771
99859W        W66927  40.861  17.740   3.333
99860W        W66928  19.610   8.821  10.572
99861W        W66929  25.561  26.149  12.425
99862W        W66930  23.123  29.155   0.875
99863W        W66931  20.069  30.420  10.422
99864W        W66932  26.664  21.222   0.911
99865W        W66933  11.289  30.574   2.778
99866W        W66934   8.734   8.365   1.342
99867W        W66935  38.829   0.932   4.278
99868W        W66936  21.256  34.555  14.787
99869W        W66937  33.446   5.243   0.862
99870W        W66938   3.822  37.464  11.551
99871W        W66939   9.151  20.739   0.918
99872W        W66940   2.324   8.728   3.271
99873W        W66941   1.396  30.096   1.313
99874W        W66942  10.639  37.058   0.915
99875W        W66943  20.715  36.977  14.300
99876W        W66944  15.288  26.701  11.070
99877W        W66945  21.682  14.218   2.186
99878W        W66946   0.348  25.078  13.314
99879W        W66947  30.428  32.580  12.952
99880W        W66948   3.875  33.584   5.252
99881W        W66949  44.781  31.054  10.902
99882W        W66950  26.099  26.640   3.716
99883W        W66951  33.613  28.057  11.391
99884W        W66952  11.857  25.190   3.307
99885W        W66953  11.207   8.662  10.621
99886W        W66954  30.541  29.092  10.405
99887W        W66955   7.897   4.220   0.935
99888W        W66956  22.043  21.138  10.407
99889W        W66957  39.904   6.360  12.390
99890W        W66958  35.005  14.678  14.900
99891W        W66959  21.208  33.402  12.920
99892W        W66960  15.146  15.326  12.866
99893W        W66961  40.952  24.096   2.903
99894W        W66962  18.663   3.229  14.393
99895W        W66963   1.315   5.209   1.411
99896W        W66964   7.778   4.915  11.514
99897W        W66965   5.359  43.859  13.010
99898W        W66966   6.184   5.316  10.584
99899W        W66967  14.291   8.826   0.285
99900W        W66968  33.963  33.418   3.749
99901W        W66969  33.985   0.491   2.408
99902W        W66970  19.563  34.383  12.422
99903W        W66971  30.939   6.303   1.872
99904W        W66972  33.420   8.312   1.220
99905W        W66973   4.413   3.792  13.449
99906W        W66974  39.058  13.778   1.283
99907W        W66975  25.648  12.179  12.921
99908W        W66976  18.652  18.641   3.849
99909W        W66977  20.568  41.528  13.833
99910W        W66978  28.060  29.426   3.255
99911W        W66979  42.437   6.231   3.811
99912W        W66980   0.403  24.629  10.912
99913W        W66981  23.668  16.277   1.740
99914W        W66982  33.945  10.658  12.021
99915W        W66983  29.950  44.987   2.680
99916W        W66984   0.778  40.405  11.580
99917W        W66985  14.304  42.944   1.906
99918W        W66986  38.342  12.646   4.302
99919W        W66987  36.904  36.965   1.821
99920W        W66988  24.609   1.339  10.459
99921W        W66989  43.858  16.275  10.445
99922W        W66990  25.706  12.663  13.399
99923W        W66991  18.583  35.981  11.872
99924W        W66992  16.571  10.872   4.126
99925W        W66993  18.600  23.170  10.918
99926W        W66994  43.483   1.393   1.842
99927W        W66995  29.936   1.859   2.235
99928W        W66996  36.966  42.837  10.518
99929W        W66997   2.468  28.656   2.884
99930W        W66998  36.461   3.865   4.763
99931W        W66999  16.712  32.628  12.354
99932W        W67000  31.497  44.303   2.242
99933W        W67001  34.089   1.835  14.974
99934W        W67002  37.418  28.519  11.052
99935W        W67003  34.430  26.499   0.370
99936W        W67004  27.616  44.973   0.405
99937W        W67005  35.909  34.974  11.474
99938W        W67006  11.673   0.746   3.688
99939W        W67007  30.932   3.770   1.885
99940W        W67008  12.286  27.113  14.431
99941W        W67009  26.074   6.752  13.353
99942W        W67010  44.799   3.361  14.841
99943W        W67011  44.273  42.793   4.175
99944W        W67012  37.385  16.291  14.293
99945W        W67013  17.204  34.041  10.553
99946W        W67014  43.998  19.117   2.747
99947W        W67015   4.445  25.697  13.989
99948W        W67016  15.641   7.744  12.997
99949W        W67017  15.770  44.757   2.748
99950W        W67018  35.016   6.341   3.363
99951W        W67019   8.297  18.279   2.213
99952W        W67020  11.724   7.867  14.028
99953W        W67021  14.811  38.006  13.439
99954W        W67022  43.306  42.429   2.346
99955W        W67023   2.919  14.733   1.711
99956W        W67024  14.648  23.193   1.338
99957W        W67025  14.096   5.720   2.200
99958W        W67026  39.039   5.195  12.995
99959W        W67027  12.619  36.463   1.697
99960W        W67028  22.101  26.551  11.904
99961W        W67029  23.083   9.199   3.827
99962W        W67030   0.847  29.074  10.491
99963W        W67031  25.123  13.672   1.339
99964W        W67032  26.552   3.447  10.599
99965W        W67033  25.124  35.533  13.342
99966W        W67034  23.598  23.535   0.747
99967W        W67035  16.297  41.318   3.233
99968W        W67036  27.037  14.180  10.493
99969W        W67037   9.383   5.333  10.639
99970W        W67038   0.988  19.075   2.829
99971W        W67039  31.591  43.983   4.139
99972W        W67040   2.381  27.112  12.436
99973W        W67041  15.687  16.716   3.296
99974W        W67042  23.558  27.612   2.837
99975W        W67043  20.743  21.597  13.449
99976W        W67044  16.072   7.826   1.929
99977W        W67045  10.849   2.358   4.638
99978W        W67046  42.324  16.644   0.910
99979W        W67047  19.196   1.331  12.383
99980W        W67048   4.346  24.620   2.345
99981W        W67049  14.163  16.318  12.530
99982W        W67050   6.801   5.373   3.190
99983W        W67051  29.152  32.558   3.330
99984W        W67052  23.159  29.970  11.561
99985W        W67053  20.071  17.192   4.701
99986W        W67054  42.803  16.160  13.419
99987W        W67055  11.181   1.403  14.307
99988W        W67056  43.820   2.742  11.463
99989W        W67057  42.527  21.152  14.990
99990W        W67058   9.722  33.413   4.733
99991W        W67059  18.691  24.622   3.847
99992W        W67060   6.863  15.106   3.711
99993W        W67061  27.121  15.731  12.384
99994W        W67062  43.356   4.330  11.606
99995W        W67063   7.329  28.631  13.525
99996W        W67064  40.886   3.401  14.353
99997W        W67065  21.661   1.902   2.273
99998W        W67066  14.249  23.135  13.012
99999W        W67067  43.515   3.920  14.387
    0W        W67068   1.766  31.976   2.208
    1W        W67069  28.640  32.478  12.543
    2W        W67070  12.152  11.622   4.174
    3W        W67071  32.497  40.485  12.517
    4W        W67072  33.031  21.087  11.100
    5W        W67073   9.822  32.930  10.480
    6W        W67074  22.182  37.954  13.497
    7W        W67075  18.576  25.520   2.331
    8W        W67076  31.960  15.296   0.956
    9W        W67077  40.514  32.028  13.913
   10W        W67078   9.698  25.037  14.007
   11W        W67079  13.641  29.599   3.185
   12W        W67080  34.005   6.791  14.396
   13W        W67081  27.525  10.233  12.096
   14W        W67082  39.506  27.191  12.970
   15W        W67083  24.503   4.245  14.786
   16W        W67084   9.644  15.712   1.269
   17W        W67085   3.360   5.834   4.331
   18W        W67086  29.999  10.650  13.920
   19W        W67087  18.101  22.659  14.992
   20W        W67088  27.591  25.496  12.880
   21W        W67089  31.109  41.873   0.893
   22W        W67090  42.870  11.373  11.875
   23W        W67091  39.975  39.948  12.090
   24W        W67092  36.370   1.900  13.413
   25W        W67093  30.643  19.202  14.823
   26W        W67094   0.852  40.966  13.466
   27W        W67095  20.131  27.617   1.877
   28W        W67096  37.031  26.180   3.734
   29W        W67097   1.478  28.125  12.891
   30W        W67098   5.872  14.218   1.266
   31W        W67099  17.591   7.893   1.816
   32W        W67100   7.252  13.782  14.322
   33W        W67101  38.913  26.588   4.330
   34W        W67102  21.220   5.917  11.024
   35W        W67103  41.508  33.116   0.908
   36W        W67104   7.880   8.880   0.302
   37W        W67105   6.427  27.484  10.593
   38W        W67106  43.477  36.935   3.221
   39W        W67107   4.211  34.100  12.428
   40W        W67108  19.717  33.416   0.957
   41W        W67109  38.497  34.589  11.484
   42W        W67110   5.256  39.052   2.670
   43W        W67111  18.572   2.367  10.448
   44W        W67112   3.431   6.833  10.986
   45W        W67113   1.284  41.322   0.801
   46W        W67114   9.162  26.100  11.556
   47W        W67115  23.730  25.591  13.878
   48W        W67116  18.223   8.195   1.717
   49W        W67117  17.682  29.935   2.271
   50W        W67118  39.051  23.662   3.658
   51W        W67119  11.355   0.309   0.862
   52W        W67120  33.461  37.951   2.375
   53W        W67121   8.291  23.528   0.876
   54W        W67122  43.311  19.561  12.083
   55W        W67123   9.214   0.979  12.347
   56W        W67124  28.454  39.031  13.473
   57W        W67125  34.599  18.730   0.374
   58W        W67126  15.613  37.503  10.018
   59W        W67127  36.944  17.732   0.729
   60W        W67128  30.567  37.396   1.326
   61W        W67129  11.650  39.368  10.488
   62W        W67130  32.903   4.361   2.277
   63W        W67131  28.122  15.255  11.118
   64W        W67132  22.102  37.414  10.579
   65W        W67133  11.322  27.154  10.944
   66W        W67134  43.963  29.003   4.701
   67W        W67135  17.687  26.968   2.410
   68W        W67136  32.030  19.245   1.222
   69W        W67137   2.298  24.482   2.400
   70W        W67138  12.782  37.575   4.714
   71W        W67139  12.315  14.150   2.190
   72W        W67140  33.982  26.095   3.773
   73W        W67141  43.399  20.556  13.310
   74W        W67142   1.294  16.087  13.491
   75W        W67143  34.006  36.389   1.776
   76W        W67144  35.403   7.261  12.395
   77W        W67145  27.609  13.630   1.238
   78W        W67146  32.537  30.421   1.820
   79W        W67147  27.679   5.251  10.496
   80W        W67148  39.985  24.559   3.159
   81W        W67149  32.025   7.204  14.878
   82W        W67150  40.962   3.887   1.442
   83W        W67151  20.028  15.187  14.494
   84W        W67152  14.288  16.803  11.573
   85W        W67153  28.981  23.656  14.278
   86W        W67154  33.119  36.872  14.802
   87W        W67155  34.918  19.658   2.382
   88W        W67156   1.753   0.962  14.434
   89W        W67157   4.877  36.444  10.563
   90W        W67158  27.563  36.437  14.961
   91W        W67159  21.552  36.409  10.945
   92W        W67160  18.061  27.979  11.866
   93W        W67161  17.747  12.850   2.285
   94W        W67162  17.147  11.172  11.867
   95W        W67163   2.858  12.295   1.366
   96W        W67164  31.962   4.864   4.162
   97W        W67165  15.686  27.972   0.374
   98W        W67166   2.238  44.295  12.523
   99W        W67167  15.321  30.617  11.873
  100W        W67168   4.368  14.807   1.770
  101W        W67169  17.710   2.459  13.881
  102W        W67170  37.882  32.576   0.322
  103W        W67171  21.093   9.879  14.286
  104W        W67172  34.587  30.121   4.244
  105W        W67173  22.737   7.818   0.407
  106W        W67174  18.183   0.881  10.505
  107W        W67175  35.587  36.461  14.286
  108W        W67176  44.404  41.448   4.317
  109W        W67177   9.693  21.533   4.697
  110W        W67178  11.282  35.932  13.421
  111W        W67179  18.657  28.503  10.965
  112W        W67180  15.141  17.690  10.418
  113W        W67181  22.033   3.371  14.441
  114W        W67182  21.617  22.200  13.532
  115W        W67183  10.804  27.678   4.674
  116W        W67184  28.996  35.053  12.007
  117W        W67185  28.172  19.618   1.847
  118W        W67186  11.170  17.082  12.851
  119W        W67187  40.537  18.290  12.847
  120W        W67188  19.538   7.871   4.608
  121W        W67189  27.148  43.280   4.208
  122W        W67190   8.866  41.291  13.538
  123W        W67191   0.374  23.538  12.084
  124W        W67192  16.729  13.805  10.962
  125W        W67193  30.440  36.556   4.270
  126W        W67194  41.506  19.152  14.870
  127W        W67195  11.630  33.439  10.608
  128W        W67196  17.649  20.034  14.930
  129W        W67197   3.360  21.111  12.845
  130W        W67198  39.326  25.550  11.098
  131W        W67199  24.141   6.916   0.808
  132W        W67200  15.695  31.422   2.728
  133W        W67201   5.401   3.318  13.996
  134W        W67202   5.221  14.785  14.773
  135W        W67203  23.617  22.026  13.918
  136W        W67204   0.394  18.753  13.441
  137W        W67205  37.445   9.738   4.354
  138W        W67206  11.255  15.677  14.831
  139W        W67207  24.092   6.803   1.708
  140W        W67208  14.708  32.136   2.799
  141W        W67209  42.518   6.279  11.538
  142W        W67210  16.566  15.312   2.327
  143W        W67211   6.208  10.374   5.201
  144W        W67212  19.076   4.376   4.205
  145W        W67213  13.711  11.161  10.577
  146W        W67214  21.635  40.001   3.165
  147W        W67215  41.472  15.818   0.443
  148W        W67216  44.899  12.730  11.905
  149W        W67217  27.655  43.383  14.972
  150W        W67218  30.644   9.771   1.783
  151W        W67219  32.592  25.065  14.932
  152W        W67220  24.545  15.628   1.400
  153W        W67221  20.038   6.890  12.989
  154W        W67222   9.798  37.035   1.393
  155W        W67223  21.035  28.482  12.450
  156W        W67224  12.659  33.591   1.394
  157W        W67225  37.368  31.014   0.835
  158W        W67226  27.068  18.233  10.961
  159W        W67227  11.742  20.577   3.244
  160W        W67228  24.030  23.156  13.042
  161W        W67229  25.028  21.083  12.356
  162W        W67230  35.369  26.140   4.135
  163W        W67231   9.859  10.824   4.326
  164W        W67232   0.812  41.297  10.950
  165W        W67233  41.340  29.140  10.455
  166W        W67234  44.876  28.999   3.309
  167W        W67235  32.556  12.835   0.838
  168W        W67236  26.602  33.077  11.386
  169W        W67237  10.281  36.578   9.940
  170W        W67238  23.008  30.059  11.986
  171W        W67239  22.996   9.385  12.963
  172W        W67240  35.953  31.143   3.330
  173W        W67241  22.536  10.370  14.026
  174W        W67242   9.771  22.163  13.395
  175W        W67243   1.478  32.115   0.830
  176W        W67244  12.640  25.113  13.844
  177W        W67245  39.029   7.390  11.522
  178W        W67246  42.984  21.683   2.377
  179W        W67247   6.323   2.860  13.389
  180W        W67248  41.355  27.075   4.305
  181W        W67249  44.465  31.599   3.346
  182W        W67250  22.085  32.437  10.412
  183W        W67251   0.979  30.107   3.672
  184W        W67252  43.909   9.228  11.425
  185W        W67253  35.870  20.044   3.737
  186W        W67254  38.859  44.325   4.332
  187W        W67255  13.189  22.225  11.448
  188W        W67256   5.351   6.862   4.782
  189W        W67257  12.181  40.802   1.285
  190W        W67258  37.892   7.853   0.750
  191W        W67259  26.978  27.038  14.361
  192W        W67260  44.816  12.197   2.404
  193W        W67261   6.272  44.482  13.028
  194W        W67262   4.818  17.765   4.646
  195W        W67263  38.936  25.185  11.483
  196W        W67264   8.350  32.618   4.329
  197W        W67265   4.831  23.134   1.387
  198W        W67266  25.635  38.923  10.153
  199W        W67267  22.550  37.392   0.295
  200W        W67268  18.286  27.052  11.400
  201W        W67269   8.727  41.003   4.799
  202W        W67270  42.518  41.960   0.479
  203W        W67271  35.863  12.210   4.291
  204W        W67272  32.898  34.896  11.897
  205W        W67273  37.003  17.243  10.925
  206W        W67274  12.238  12.714   4.730
  207W        W67275  43.838  15.218   2.825
  208W        W67276  31.553  23.063   3.369
  209W        W67277  10.270  36.878   1.910
  210W        W67278  37.834  25.200  14.385
  211W        W67279  43.405   5.795   0.883
  212W        W67280  29.147  26.992   9.964
  213W        W67281  29.431  11.711   0.259
  214W        W67282  19.073  32.091   1.214
  215W        W67283  25.129  16.628  14.790
  216W        W67284  20.172  43.512  12.414
  217W        W67285   8.720  24.057  14.495
  218W        W67286  41.904  31.024  14.967
  219W        W67287  28.560  40.959  12.043
  220W        W67288  43.457  14.322   4.165
  221W        W67289   0.852   6.354   4.120
  222W        W67290  13.351  12.133  11.484
  223W        W67291  40.409  14.806   0.461
  224W        W67292  42.791   3.848  14.320
  225W        W67293  44.279  35.035  12.823
  226W        W67294  26.554  31.489   4.264
  227W        W67295  43.411  36.588   0.359
  228W        W67296   6.398  15.747   2.356
  229W        W67297   4.303   2.932   1.834
  230W        W67298  17.649  22.223   0.347
  231W        W67299   5.921  23.188   4.637
  232W        W67300  23.065  10.296  12.409
  233W        W67301  31.445   9.189   0.843
  234W        W67302  14.673  43.434  11.529
  235W        W67303  35.577  12.294   2.221
  236W        W67304  37.058  15.263  12.386
  237W        W67305  28.654  12.230   0.415
  238W        W67306  36.081  12.162  11.067
  239W        W67307   1.740  13.235  14.014
  240W        W67308  36.484  15.169  13.997
  241W        W67309  42.356  44.961  11.004
  242W        W67310  25.646  25.488   0.916
  243W        W67311  35.969   0.962   4.633
  244W        W67312  36.070  25.013  14.276
  245W        W67313  13.118  36.522  10.555
  246W        W67314  14.722   3.869   0.897
  247W        W67315  38.557  42.445   3.818
  248W        W67316  25.962   4.791   2.371
  249W        W67317  17.567  20.155  13.956
  250W        W67318  14.136  28.668   0.742
  251W        W67319  41.412  35.584  11.385
  252W        W67320  20.219  28.008  14.790
  253W        W67321  11.661  41.961  12.502
  254W        W67322  11.807   8.804  11.517
  255W        W67323  24.111   1.240  11.958
  256W        W67324   8.212  43.948   4.626
  257W        W67325  11.223  26.598   2.355
  258W        W67326   0.391  11.630  13.822
  259W        W67327   5.402   1.955  14.784
  260W        W67328  25.529   3.788   4.118
  261W        W67329  24.133  32.131  10.112
  262W        W67330  24.026  40.021   3.273
  263W        W67331  15.311  27.948   0.938
  264W        W67332  39.540  22.691   2.375
  265W        W67333  23.033  34.526  13.420
  266W        W67334  20.233   5.822  12.072
  267W        W67335  23.686  27.194   1.245
  268W        W67336   3.278  30.652   1.336
  269W        W67337  27.009  43.504   3.717
  270W        W67338  26.103  12.681   0.248
  271W        W67339   0.932  14.667   0.731
  272W        W67340  43.272   8.385   2.774
  273W        W67341  26.497  42.322   1.420
  274W        W67342  10.643  29.972  11.571
  275W        W67343   5.932   2.857  14.772
  276W        W67344  12.830   6.882   2.745
  277W        W67345  41.962  10.802  11.957
  278W        W67346   9.314  19.700  13.948
  279W        W67347   2.810  16.642   0.263
  280W        W67348  11.812   8.892  13.021
  281W        W67349  19.223  21.232  13.008
  282W        W67350  26.016  17.130  13.964
  283W        W67351  42.463  17.716  14.295
  284W        W67352  17.654  25.552  13.438
  285W        W67353  39.943  29.664   2.764
  286W        W67354  11.259  22.023   1.875
  287W        W67355  21.563   2.287  10.937
  288W        W67356  37.859  38.003   3.379
  289W        W67357  39.461   0.798   1.228
  290W        W67358  36.562  30.929  11.046
  291W        W67359  19.150  14.674  11.415
  292W        W67360  27.123  42.444   2.867
  293W        W67361  42.350  24.490  12.441
  294W        W67362  34.518  11.734  14.821
  295W        W67363  15.822  27.170   2.209
  296W        W67364   9.763  42.954   0.740
  297W        W67365  10.187   3.779  10.986
  298W        W67366  19.659   0.941   4.335
  299W        W67367  28.957  24.189  14.393
  300W        W67368   7.170   6.220   1.385
  301W        W67369  28.077  39.347   0.315
  302W        W67370  31.549  39.449   3.374
  303W        W67371  15.678  24.130  13.435
  304W        W67372   5.423  27.116  10.562
  305W        W67373  20.657  23.605   3.354
  306W        W67374  36.965  34.096   1.760
  307W        W67375  16.187   5.922   1.862
  308W        W67376  31.976  14.105  14.450
  309W        W67377  30.022  30.091  12.474
  310W        W67378  31.965  32.952  11.014
  311W        W67379  38.996  29.089   1.227
  312W        W67380   2.819   9.351   3.149
  313W        W67381  43.444  38.563   1.917
  314W        W67382  13.129  19.746   4.717
  315W        W67383  24.035   0.969  13.978
  316W        W67384  17.151  17.306   2.682
  317W        W67385  26.695  30.442   4.159
  318W        W67386  36.531  25.609   0.881
  319W        W67387   6.319  21.108   5.111
  320W        W67388  39.531  17.751  10.896
  321W        W67389  20.272  40.859  12.006
  322W        W67390  16.088  19.695  13.986
  323W        W67391  32.901  36.005   0.756
  324W        W67392   3.398   1.734  11.068
  325W        W67393  35.416  42.297   1.338
  326W        W67394  22.162   0.786   4.787
  327W        W67395  35.533  21.226  12.443
  328W        W67396  20.063  19.608   2.284
  329W        W67397  17.675  26.027   4.128
  330W        W67398  29.494  19.240   2.760
  331W        W67399  30.645   8.397  11.481
  332W        W67400  39.932   3.911   4.277
  333W        W67401  22.220  27.550  14.492
  334W        W67402  44.383  15.313   3.205
  335W        W67403  14.768  37.908  12.472
  336W        W67404   7.909  20.652   2.327
  337W        W67405  20.064  43.344   1.810
  338W        W67406  38.031  29.060  13.029
  339W        W67407   4.333  28.988   4.728
  340W        W67408  26.673  36.941  13.048
  341W        W67409  27.554   0.772   4.320
  342W        W67410  16.615  19.268   4.292
  343W        W67411  41.938  13.189   4.636
  344W        W67412   2.289  19.565   3.650
  345W        W67413   8.837   9.832  10.901
  346W        W67414  31.438  29.443   3.858
  347W        W67415  43.799   6.260  13.793
  348W        W67416  14.707   2.737   3.730
  349W        W67417  25.204  10.137  12.438
  350W        W67418  35.876  24.070  14.327
  351W        W67419  38.000   7.407  12.978
  352W        W67420   2.863  42.395  11.430
  353W        W67421  14.793  19.238   3.348
  354W        W67422   6.867  36.095  11.501
  355W        W67423  21.147  18.097   2.228
  356W        W67424  25.497   6.340  10.555
  357W        W67425  30.473  40.899   2.792
  358W        W67426  29.611  37.886   4.136
  359W        W67427  15.260  35.574   4.687
  360W        W67428  20.170   2.272   3.745
  361W        W67429  32.442  10.643   2.336
  362W        W67430  15.313  42.797  14.277
  363W        W67431   6.850  31.561  12.395
  364W        W67432  19.263  29.548   1.760
  365W        W67433   0.855  18.687   4.321
  366W        W67434  14.256  35.440   1.896
  367W        W67435  42.018  14.198   1.819
  368W        W67436  11.758   1.872   4.318
  369W        W67437  19.137  24.127   1.386
  370W        W67438  42.007  20.669   3.365
  371W        W67439  35.906  20.532   2.676
  372W        W67440   8.719  30.533  10.409
  373W        W67441  40.006  22.081   2.305
  374W        W67442  12.335  39.962  10.598
  375W        W67443  38.441  14.657  11.605
  376W        W67444   8.184  31.594   2.779
  377W        W67445  36.471   9.680  11.968
  378W        W67446   9.286  24.054  12.424
  379W        W67447  33.539  16.191   0.802
  380W        W67448  19.743  10.690   0.730
  381W        W67449  13.302  21.053  12.970
  382W        W67450  35.964  10.333  10.553
  383W        W67451  40.912  31.573  10.529
  384W        W67452  43.442  12.855  11.975
  385W        W67453  32.562   7.692  11.888
  386W        W67454  12.686  22.565   3.846
  387W        W67455  27.645  15.688   2.385
  388W        W67456  33.874   5.236  10.626
  389W        W67457  29.945  41.343   0.733
  390W        W67458  42.330  21.137  11.884
  391W        W67459  10.843  35.033  14.915
  392W        W67460  39.437  34.105   4.781
  393W        W67461  17.079   8.809   2.725
  394W        W67462  29.527   4.246   0.460
  395W        W67463   0.820  31.442   0.452
  396W        W67464  10.274   7.296  12.378
  397W        W67465   9.658  41.902  14.962
  398W        W67466   6.270  33.886   2.245
  399W        W67467  34.086  43.481   1.319
  400W        W67468  11.312  31.151   0.822
  401W        W67469  28.630  34.547   0.796
  402W        W67470  15.315  32.551  10.435
  403W        W67471  20.057  43.969   4.182
  404W        W67472   9.683  22.110  14.406
  405W        W67473  43.332  12.747  10.934
  406W        W67474  12.149   9.714   3.643
  407W        W67475   7.874  26.494  12.951
  408W        W67476  39.500  31.032   1.739
  409W        W67477  36.010  37.878  13.961
  410W        W67478   1.268  38.346  14.382
  411W        W67479  10.787  14.739  11.471
  412W        W67480  37.073  27.991   4.823
  413W        W67481  13.776   8.179   1.450
  414W        W67482  16.259  41.036   2.385
  415W        W67483  37.920  43.894   4.822
  416W        W67484  28.054  13.830  12.469
  417W        W67485  34.537   7.854  10.893
  418W        W67486  26.055  10.341   1.740
  419W        W67487  21.146  15.684   0.346
  420W        W67488  32.087   7.405  11.100
  421W        W67489  26.525  14.264   9.926
  422W        W67490  24.575  14.595   1.707
  423W        W67491  24.662  42.824  13.349
  424W        W67492  21.173  20.074   2.714
  425W        W67493  14.154   3.269  11.373
  426W        W67494  44.982   2.308  14.892
  427W        W67495  25.192  24.634   1.368
  428W        W67496  26.162   5.233  14.960
  429W        W67497   7.253  40.334  14.017
  430W        W67498  35.537  22.065  11.574
  431W        W67499  44.387   6.828   0.806
  432W        W67500  14.709  13.690   1.346
  433W        W67501  15.609  12.791  10.920
  434W        W67502   7.804  40.490   0.814
  435W        W67503  32.096  35.041  10.432
  436W        W67504  24.214   9.353   4.739
  437W        W67505  40.526   3.715   4.681
  438W        W67506   9.173  44.364  13.408
  439W        W67507   7.834  13.135  13.545
  440W        W67508  40.545  44.423   2.774
  441W        W67509  19.134  24.038   0.381
  442W        W67510  42.960  36.006   4.701
  443W        W67511   3.839  24.703  12.963
  444W        W67512  27.980  12.244  11.075
  445W        W67513  12.846  40.047  11.103
  446W        W67514   7.780  23.603  13.000
  447W        W67515  10.768  38.547   0.827
  448W        W67516  42.866  26.032   0.336
  449W        W67517  35.943  43.852  10.607
  450W        W67518  27.132  25.052   4.780
  451W        W67519  21.623  36.895  12.046
  452W        W67520   0.306  26.687  12.510
  453W        W67521   4.437   6.407   1.323
  454W        W67522  38.541   2.752   0.727
  455W        W67523  38.571  19.160  11.481
  456W        W67524  23.227  32.593  13.435
  457W        W67525  19.692  22.531  12.964
  458W        W67526  37.388  42.430  12.028
  459W        W67527  39.056  36.456  10.946
  460W        W67528   8.735  33.594  12.417
  461W        W67529  22.611  20.251  10.507
  462W        W67530  38.929  19.259  11.600
  463W        W67531   9.212  31.455  10.635
  464W        W67532  42.517  23.496   3.183
  465W        W67533  36.077   2.273  13.533
  466W        W67534  33.523  36.976  12.451
  467W        W67535  40.487  33.508  11.043
  468W        W67536  27.152  10.141  14.476
  469W        W67537  26.551  21.752  13.389
  470W        W67538   4.828  42.026   1.419
  471W        W67539  39.024  24.142  10.635
  472W        W67540  22.995  25.507   1.807
  473W        W67541   2.396   5.783   3.181
  474W        W67542  31.570   7.303  11.504
  475W        W67543  31.593  26.482  12.503
  476W        W67544  31.439  20.080   4.653
  477W        W67545  11.678  26.965   4.828
  478W        W67546  13.299  20.545   4.615
  479W        W67547   1.291   7.236  14.492
  480W        W67548   0.860   7.287  10.026
  481W        W67549  40.981  10.810   1.893
  482W        W67550   2.816  23.141  10.557
  483W        W67551  27.606  29.929   2.302
  484W        W67552  43.863   4.741   0.858
  485W        W67553  36.841   3.430  13.824
  486W        W67554  13.139  23.694   3.717
  487W        W67555  30.513   3.792   0.438
  488W        W67556   4.745  30.155  11.894
  489W        W67557  11.196   3.286   0.879
  490W        W67558  35.063  42.936   1.769
  491W        W67559  42.325  28.185  12.928
  492W        W67560  44.302   7.380  12.092
  493W        W67561  43.868  30.487   1.853
  494W        W67562  18.128  17.138  12.074
  495W        W67563  32.455   8.754  11.447
  496W        W67564  31.043  43.795  12.503
  497W        W67565   7.383   2.406  11.612
  498W        W67566  39.397   5.206  14.915
  499W        W67567   6.849  36.582  13.954
  500W        W67568   5.851  16.582  10.984
  501W        W67569  18.183  43.415  13.468
  502W        W67570  21.150   2.790  11.563
  503W        W67571  20.642  17.222  10.433
  504W        W67572  40.464  34.009   1.272
  505W        W67573  22.205   2.794  11.071
  506W        W67574   5.878  28.659   1.733
  507W        W67575  35.016  27.592   1.841
  508W        W67576  40.047   5.392  13.948
  509W        W67577  27.467  12.158  11.980
  510W        W67578  29.027   4.873   4.834
  511W        W67579  21.222   0.292  14.515
  512W        W67580  18.717  39.536  12.032
  513W        W67581   9.744  22.221  12.950
  514W        W67582  13.654  29.453   0.951
  515W        W67583  11.186   0.805  13.450
  516W        W67584   0.464   0.447  10.579
  517W        W67585  20.621  40.347  14.448
  518W        W67586  15.669  34.589  12.376
  519W        W67587  37.401   5.261   0.289
  520W        W67588  32.117  33.454  11.434
  521W        W67589  38.040  16.657  10.493
  522W        W67590  13.133  33.963   1.331
  523W        W67591   9.333   3.302  14.828
  524W        W67592  44.789   1.812   4.707
  525W        W67593   9.390  24.023  14.774
  526W        W67594  41.981  19.562   0.945
  527W        W67595  38.829  34.973   2.412
  528W        W67596  44.385  40.421  11.468
  529W        W67597   1.278  27.990  10.521
  530W        W67598  23.727  36.078  14.879
  531W        W67599   6.732  35.441  11.496
  532W        W67600   9.193  23.587  12.380
  533W        W67601  27.538  22.025   1.420
  534W        W67602  12.179  36.917  13.386
  535W        W67603  33.970  25.591  12.543
  536W        W67604  39.866  32.971   3.661
  537W        W67605  24.987  20.084   5.241
  538W        W67606  30.659  21.711  12.966
  539W        W67607  31.105  30.966   2.797
  540W        W67608   8.877  35.443   1.803
  541W        W67609  22.104  19.080  10.552
  542W        W67610  10.289   3.920  12.009
  543W        W67611  15.595  20.149  14.439
  544W        W67612  12.362  11.293   1.776
  545W        W67613  29.619  35.997   0.859
  546W        W67614  12.155  17.697   2.813
  547W        W67615   3.229  23.103  14.894
  548W        W67616  22.538  16.281   2.289
  549W        W67617  33.549  38.009  10.425
  550W        W67618   4.842  40.330   3.387
  551W        W67619   2.870  32.947  12.526
  552W        W67620  19.760  22.707   4.174
  553W        W67621   4.717  17.793  13.313
  554W        W67622  23.641  35.420   0.752
  555W        W67623  19.065   4.338  11.448
  556W        W67624   1.753  26.473  13.452
  557W        W67625  31.974  38.019  12.942
  558W        W67626  10.327  42.010   0.354
  559W        W67627  25.143  15.114   0.739
  560W        W67628  19.043  36.998  11.419
  561W        W67629   1.371  15.278  14.449
  562W        W67630  14.340  44.276  11.068
  563W        W67631  36.399  31.639   4.640
  564W        W67632  18.785   8.797   1.747
  565W        W67633  22.234  37.831  11.891
  566W        W67634  27.981  38.454  10.423
  567W        W67635  40.362  23.033   2.894
  568W        W67636  44.796  22.613  14.955
  569W        W67637  32.957   5.340  12.389
  570W        W67638   3.778  37.938  13.997
  571W        W67639   2.452  29.073  11.556
  572W        W67640  14.324  43.375   1.394
  573W        W67641  19.777  23.165  11.587
  574W        W67642  11.128   7.227   3.659
  575W        W67643   8.751  41.481   0.954
  576W        W67644  10.773  23.994  11.032
  577W        W67645   9.811  40.331   2.183
  578W        W67646  31.411  25.199  11.042
  579W        W67647  23.713  17.284  10.632
  580W        W67648  34.406  21.022  14.515
  581W        W67649  13.293  19.702  13.431
  582W        W67650   4.878  12.220  13.916
  583W        W67651  44.788  34.517   5.104
  584W        W67652  34.475  12.847  10.447
  585W        W67653  14.201  22.246   4.761
  586W        W67654   1.760  23.054  12.948
  587W        W67655   3.389   7.668  13.334
  588W        W67656  37.004   3.764  11.414
  589W        W67657  16.807  19.614   5.090
  590W        W67658   0.485  43.775   2.383
  591W        W67659  39.396   2.815  13.951
  592W        W67660  41.019  25.058  11.892
  593W        W67661  13.318  27.979   4.639
  594W        W67662  14.332  27.959  13.797
  595W        W67663  41.391  27.582  14.787
  596W        W67664  22.158  37.856  12.958
  597W        W67665  23.659  32.122  11.519
  598W        W67666  10.310  32.915   3.788
  599W        W67667  23.615  13.654   1.338
  600W        W67668  14.708  15.145  13.493
  601W        W67669  13.262   2.278  10.952
  602W        W67670   8.738  35.388  10.993
  603W        W67671  42.964  43.367  14.348
  604W        W67672   7.232  18.573   2.827
  605W        W67673  33.971  31.923   2.227
  606W        W67674  37.004  37.925   3.717
  607W        W67675  30.476   9.695   4.210
  608W        W67676  27.452  16.153  13.062
  609W        W67677   4.935  21.193  12.940
  610W        W67678  27.967  39.974  10.014
  611W        W67679  25.536  42.299   4.240
  612W        W67680  36.978  39.364   1.288
  613W        W67681  40.449  24.671  11.988
  614W        W67682   8.824  37.949   4.144
  615W        W67683   1.759  24.490   2.829
  616W        W67684   0.308  41.361   1.794
  617W        W67685   5.774  14.822  14.403
  618W        W67686   5.911  26.481   3.234
  619W        W67687  10.721  37.042  13.495
  620W        W67688  23.048  13.611  13.533
  621W        W67689  44.466  35.893  11.533
  622W        W67690  42.994  28.034   2.354
  623W        W67691  35.894  31.120  12.936
  624W        W67692  10.308  16.265  10.034
  625W        W67693   2.412   9.731  12.927
  626W        W67694  39.014   5.278   2.332
  627W        W67695   2.829  39.858  14.791
  628W        W67696  31.920   9.246   5.159
  629W        W67697  33.000  31.623  13.831
  630W        W67698   0.268  21.658  14.819
  631W        W67699  40.837  38.337  10.617
  632W        W67700   3.386  43.396  13.311
  633W        W67701  16.316  17.710   2.285
  634W        W67702   9.753  10.692   3.862
  635W        W67703  42.331  39.920  13.517
  636W        W67704   0.428   3.347  14.501
  637W        W67705  34.553  38.467   0.350
  638W        W67706  20.220  22.210  11.977
  639W        W67707  27.556  28.583   0.342
  640W        W67708   5.323   3.828  12.836
  641W        W67709  18.687  33.117   2.777
  642W        W67710  17.662   3.459   3.726
  643W        W67711  18.548   6.419  13.032
  644W        W67712  30.642  24.626   2.179
  645W        W67713  36.953  31.512  11.909
  646W        W67714   1.965  38.824  12.951
  647W        W67715   5.884  44.860   0.875
  648W        W67716   8.862  25.589   4.306
  649W        W67717  21.167  12.313   1.724
  650W        W67718   2.316  44.821  11.015
  651W        W67719  39.872  27.507  13.942
  652W        W67720  35.481   7.886  14.294
  653W        W67721  10.264  43.450  14.351
  654W        W67722  24.593  16.277   2.783
  655W        W67723  28.585  24.690  11.095
  656W        W67724  12.633  40.502   3.830
  657W        W67725   3.768  24.069   2.680
  658W        W67726   8.698  27.634   4.135
  659W        W67727  18.225  31.109   1.372
  660W        W67728   2.909  43.931  10.956
  661W        W67729  14.110  10.820  10.991
  662W        W67730   1.404  26.463  14.357
  663W        W67731  28.660  14.670  10.979
  664W        W67732  41.835   0.956   3.738
  665W        W67733   2.449  21.710   1.798
  666W        W67734  19.086  33.502   4.695
  667W        W67735   1.453  29.152  12.573
  668W        W67736  20.559  44.791   3.257
  669W        W67737   0.894  40.035  12.842
  670W        W67738   8.899   8.182  14.786
  671W        W67739   8.336  17.182  14.417
  672W        W67740  32.459  16.762   4.334
  673W        W67741  39.993  28.501   1.915
  674W        W67742   2.233   5.256   3.822
  675W        W67743  13.616  30.072   2.747
  676W        W67744   6.858  31.518   3.282
  677W        W67745  10.278  22.619   2.893
  678W        W67746  34.065  35.013   1.214
  679W        W67747  13.722   7.304   2.319
  680W        W67748  38.497  38.059  12.418
  681W        W67749  11.247  15.671  11.396
  682W        W67750  33.882  43.960   4.831
  683W        W67751  38.839   2.808   0.817
  684W        W67752  15.794   2.297   5.244
  685W        W67753  37.037   2.850   2.208
  686W        W67754  34.050  16.122   4.210
  687W        W67755  17.189  23.729  11.929
  688W        W67756  27.503  31.437   4.179
  689W        W67757  44.384  41.436   2.776
  690W        W67758  44.786  39.557  10.997
  691W        W67759  29.918   5.395   0.855
  692W        W67760  14.128  31.488  12.507
  693W        W67761   6.346  32.034  13.938
  694W        W67762   5.731   6.217  12.986
  695W        W67763  30.600  44.476   0.428
  696W        W67764  34.376  31.094  13.823
  697W        W67765  15.269   6.386   0.287
  698W        W67766  29.644  23.117  11.081
  699W        W67767  23.015   8.745   3.835
  700W        W67768  10.296  18.690   0.946
  701W        W67769  28.069  41.877   3.634
  702W        W67770  23.570  17.245  12.939
  703W        W67771  39.841  41.041  13.451
  704W        W67772  24.151  26.062  13.844
  705W        W67773  32.530  39.487  13.903
  706W        W67774  28.444  39.328   0.281
  707W        W67775  37.857  39.026  14.471
  708W        W67776  23.199  23.497   1.915
  709W        W67777   1.836  25.967  10.992
  710W        W67778  17.617  29.641   2.323
  711W        W67779  30.951  31.125  12.842
  712W        W67780  28.621   0.803  12.977
  713W        W67781   8.701  21.611   3.233
  714W        W67782  28.663  34.047  11.992
  715W        W67783  18.128   9.822  11.049
  716W        W67784  23.603  33.623  13.522
  717W        W67785  10.704  32.077  14.901
  718W        W67786   4.334  36.525  11.486
  719W        W67787  28.972   4.397  10.926
  720W        W67788  31.594  24.575   1.211
  721W        W67789  37.415  18.123  10.921
  722W        W67790   7.887  40.861  11.396
  723W        W67791  40.969  18.741  12.046
  724W        W67792  38.040  13.685  13.494
  725W        W67793   9.326  35.487   2.294
  726W        W67794  23.711  43.417  11.449
  727W        W67795  29.119  13.685  13.367
  728W        W67796  30.545  28.977   3.672
  729W        W67797  23.612  15.295   1.889
  730W        W67798  36.394   9.833   4.604
  731W        W67799  44.264   7.267  13.966
  732W        W67800   7.295   7.903   4.795
  733W        W67801  21.628  13.632   3.358
  734W        W67802  14.298  34.956  10.465
  735W        W67803   0.472  11.834  12.476
  736W        W67804  37.061  40.851   2.732
  737W        W67805  24.084  13.180  11.388
  738W        W67806  23.563  40.861  14.867
  739W        W67807  35.074  11.149  13.941
  740W        W67808  25.682  10.333   4.344
  741W        W67809  18.546  43.443  12.430
  742W        W67810  17.283  29.065  12.859
  743W        W67811  32.025  19.745   0.745
  744W        W67812  25.175   2.939  12.996
  745W        W67813  35.095   9.348   3.642
  746W        W67814  14.250   0.329  11.560
  747W        W67815   7.860   0.456   2.727
  748W        W67816  36.458  21.029  11.041
  749W        W67817  42.510   6.848   4.837
  750W        W67818  41.824  30.658  14.912
  751W        W67819  42.354  38.022  10.424
  752W        W67820  42.502  29.666   1.262
  753W        W67821  29.137  17.096  12.937
  754W        W67822  12.613  42.520  14.776
  755W        W67823  39.408   8.303  12.560
  756W        W67824  41.431  38.400  14.982
  757W        W67825  40.824   8.170  14.442
  758W        W67826  26.143   8.881   0.359
  759W        W67827  36.094   9.385  14.468
  760W        W67828  33.129  15.315  12.902
  761W        W67829  25.570   0.976   2.231
  762W        W67830  28.985  29.061   2.279
  763W        W67831  12.739   9.827   0.247
  764W        W67832   7.882  43.883  14.854
  765W        W67833   6.875  34.508  14.812
  766W        W67834  12.650   9.161  11.005
  767W        W67835   5.385  39.518   0.270
  768W        W67836   7.750  38.850  13.442
  769W        W67837  15.747   3.432  10.643
  770W        W67838  21.575  22.234   3.812
  771W        W67839  43.397  42.387   4.711
  772W        W67840  44.834  16.783  12.850
  773W        W67841   3.398  38.929   1.447
  774W        W67842   2.954   6.767   2.381
  775W        W67843   6.289  25.617  12.869
  776W        W67844  31.081  39.898  14.934
  777W        W67845  42.355  40.545   3.861
  778W        W67846  26.069  14.737  12.877
  779W        W67847   0.427   7.781  14.986
  780W        W67848  37.050  23.993   1.820
  781W        W67849   1.443  40.028   0.932
  782W        W67850  32.533  18.249   4.254
  783W        W67851  10.343  38.848  11.554
  784W        W67852  19.741  17.243  11.985
  785W        W67853  18.239  22.228  10.567
  786W        W67854  31.026  16.265  10.437
  787W        W67855  17.244  26.588   1.734
  788W        W67856   1.958  20.724   1.848
  789W        W67857   3.884  43.937  12.372
  790W        W67858   1.240   0.895   1.809
  791W        W67859   7.258  33.490  14.447
  792W        W67860  37.851  37.032  11.011
  793W        W67861   5.729  10.636   0.476
  794W        W67862  43.767  16.590  11.859
  795W        W67863   7.849  26.637   4.322
  796W        W67864  23.024  26.957  10.441
  797W        W67865  38.437   4.415  12.451
  798W        W67866  41.292   6.310  11.604
  799W        W67867   6.882  34.578   2.754
  800W        W67868  17.269   9.677   1.916
  801W        W67869  19.624  38.995  13.830
  802W        W67870  35.448  42.343  10.524
  803W        W67871  12.646  38.382  14.438
  804W        W67872  24.518  28.161   2.718
  805W        W67873   8.258   5.889   1.378
  806W        W67874  14.740  24.609  14.372
  807W        W67875   4.751  11.251   1.229
  808W        W67876  34.485   8.823   0.801
  809W        W67877  31.479  11.682   4.226
  810W        W67878  13.349  32.404   3.816
  811W        W67879  27.551   0.925   1.397
  812W        W67880   7.841  43.485   4.321
  813W        W67881  16.175  43.356   3.355
  814W        W67882  28.145  17.100  10.452
  815W        W67883  26.072   6.812  11.467
  816W        W67884  29.629   1.932   2.871
  817W        W67885  43.322  12.713   3.770
  818W        W67886  34.493  17.597  14.869
  819W        W67887   2.450  42.450  12.397
  820W        W67888  22.082  25.048   2.203
  821W        W67889  18.731  32.452  14.874
  822W        W67890  31.524  28.665   4.622
  823W        W67891  16.610  31.425   0.777
  824W        W67892  23.508  11.284  11.538
  825W        W67893  36.554  30.130   0.412
  826W        W67894  28.097  44.775   3.212
  827W        W67895  23.208  26.952   4.152
  828W        W67896  41.351  25.510   0.789
  829W        W67897  41.458  19.565   4.617
  830W        W67898   5.196  28.146   3.323
  831W        W67899  13.333  35.424  10.404
  832W        W67900  40.332  23.570   2.858
  833W        W67901  36.368  15.229   0.324
  834W        W67902   1.955  41.513  10.481
  835W        W67903  39.476  25.648  13.975
  836W        W67904  31.928  10.214  12.499
  837W        W67905   8.778  25.645   5.279
  838W        W67906   6.339  19.634   1.771
  839W        W67907  12.313  24.588   2.847
  840W        W67908  26.038  31.934   3.195
  841W        W67909   8.190  11.626  12.868
  842W        W67910  29.540  25.581   1.869
  843W        W67911  44.274   5.269   3.386
  844W        W67912  42.352  19.736   1.366
  845W        W67913  41.444  10.152  13.419
  846W        W67914  10.862   1.860   2.697
  847W        W67915   6.241  35.047  14.792
  848W        W67916   1.350  42.029  11.611
  849W        W67917  12.711  31.962  14.487
  850W        W67918   1.772  23.019   4.134
  851W        W67919   3.833   8.847  11.097
  852W        W67920   6.707  14.711   4.651
  853W        W67921  19.710  38.041   3.258
  854W        W67922   1.404  34.918   4.206
  855W        W67923  44.867  39.514   4.336
  856W        W67924  27.482   1.392  14.852
  857W        W67925  11.621  24.158  10.528
  858W        W67926  38.571  12.242   3.307
  859W        W67927  34.455  32.105   3.752
  860W        W67928   0.459  12.348   4.333
  861W        W67929  42.335  18.132   3.650
  862W        W67930   5.322  22.142  13.959
  863W        W67931  15.204   9.199   0.832
  864W        W67932  41.923   3.939  13.427
  865W        W67933  32.453  41.356   3.800
  866W        W67934  18.175   5.907   2.309
  867W        W67935  35.087  29.535   5.187
  868W        W67936  38.854  31.900  11.478
  869W        W67937  21.524  39.431  14.429
  870W        W67938  28.930   7.211   0.793
  871W        W67939  11.732  15.200  10.541
  872W        W67940  26.952  34.588  12.491
  873W        W67941   9.328  22.536   2.208
  874W        W67942  25.094   1.460  12.075
  875W        W67943  28.582   0.459   4.721
  876W        W67944  16.201  42.785   2.334
  877W        W67945  13.223  36.556   1.852
  878W        W67946  27.446  24.612  14.330
  879W        W67947  28.459  20.246   0.779
  880W        W67948   8.714  38.390  10.413
  881W        W67949  15.721  38.067   0.921
  882W        W67950  24.644  12.355  13.795
  883W        W67951  16.784  21.527   1.366
  884W        W67952  25.156  28.141  10.904
  885W        W67953  22.011  40.007  12.370
  886W        W67954  44.474  39.421  11.978
  887W        W67955  43.462  44.347   0.833
  888W        W67956   1.438  27.978  13.489
  889W        W67957   7.235  27.947  12.025
  890W        W67958  23.538  23.133   3.734
  891W        W67959  38.994  16.584  14.024
  892W        W67960  11.286  23.629  13.452
  893W        W67961  14.242   0.299   1.886
  894W        W67962   7.309  38.570  14.348
  895W        W67963  28.070   3.237   4.653
  896W        W67964   3.759  19.047   3.763
  897W        W67965  32.912  22.185   0.370
  898W        W67966  26.668  14.226   2.285
  899W        W67967  43.441  12.793   0.444
  900W        W67968  36.487  12.325  13.501
  901W        W67969   1.251  10.192  12.996
  902W        W67970  36.919  32.967  12.068
  903W        W67971  19.204  14.753  10.994
  904W        W67972  20.654   6.868  12.557
  905W        W67973  17.159   5.325   0.765
  906W        W67974  22.198  21.673  12.521
  907W        W67975  15.759  11.309  11.562
  908W        W67976  13.278  35.569  12.027
  909W        W67977  44.367  40.997  10.556
  910W        W67978  13.624  31.150  10.469
  911W        W67979   3.812  12.139   4.717
  912W        W67980   6.407  29.065   4.186
  913W        W67981  39.898  38.374   4.271
  914W        W67982   2.786  18.741   4.805
  915W        W67983  20.045  33.501  11.942
  916W        W67984  24.544  38.934  14.837
  917W        W67985   3.425  42.965  12.038
  918W        W67986  13.677  33.940  11.531
  919W        W67987  29.665  21.641  12.560
  920W        W67988  29.117  16.567   0.849
  921W        W67989   4.702  20.079   3.214
  922W        W67990  10.330  23.615  11.550
  923W        W67991  32.567  35.370  10.491
  924W        W67992  41.044  42.966  13.367
  925W        W67993  19.659  38.950   5.132
  926W        W67994  44.482  16.805  12.862
  927W        W67995   3.420  43.425  11.020
  928W        W67996  41.405  38.384  10.984
  929W        W67997  43.340  10.157  13.935
  930W        W67998   6.817  22.036  10.535
  931W        W67999   5.315   6.713   1.294
  932W        W68000  26.208  12.269   0.450
  933W        W68001   6.274  38.953   1.400
  934W        W68002  42.829  17.581  11.093
  935W        W68003  34.423   0.488  13.933
  936W        W68004  10.265   7.751   5.101
  937W        W68005  43.017  36.560  11.589
  938W        W68006   7.805  28.142   0.409
  939W        W68007  22.133  12.736   0.363
  940W        W68008  24.210  28.576   0.779
  941W        W68009   7.410  21.561  11.598
  942W        W68010  26.700  34.869  10.984
  943W        W68011  35.473   3.343  11.091
  944W        W68012  20.074  15.715   4.715
  945W        W68013  43.857  31.083  13.428
  946W        W68014   0.957  11.199  11.987
  947W        W68015  22.227  25.543  12.895
  948W        W68016  13.738  11.262  13.512
  949W        W68017  24.494   3.933   0.870
  950W        W68018  20.754  28.577   0.452
  951W        W68019  12.130  33.425   1.716
  952W        W68020   3.226   5.796  14.025
  953W        W68021  19.718  28.959  13.958
  954W        W68022   1.379   6.323   2.402
  955W        W68023  15.169  28.443  12.361
  956W        W68024  42.979  22.652   4.662
  957W        W68025  11.714  38.408   1.242
  958W        W68026  16.694  35.945   4.810
  959W        W68027  25.474  41.901  12.040
  960W        W68028  30.436  22.018  11.463
  961W        W68029   9.810  24.541  13.532
  962W        W68030  38.994  26.198   1.279
  963W        W68031  17.653   0.747  14.844
  964W        W68032  40.854   4.858  14.003
  965W        W68033  20.208  31.113   3.363
  966W        W68034  43.344   5.765  10.642
  967W        W68035   3.935  28.158  12.922
  968W        W68036  30.645  15.245   2.367
  969W        W68037   6.912  23.679  12.988
  970W        W68038  11.286  35.955  14.943
  971W        W68039  17.111  20.162  14.348
  972W        W68040  42.016  42.990   3.858
  973W        W68041  10.698   7.710   3.656
  974W        W68042  11.326  38.855  14.460
  975W        W68043  29.031  39.421   2.785
  976W        W68044  37.857  15.088  13.452
  977W        W68045  27.018  24.034  13.524
  978W        W68046  37.502  34.503   2.715
  979W        W68047  14.637  29.629   4.115
  980W        W68048   0.266  18.246   1.789
  981W        W68049  13.735  14.314   0.335
  982W        W68050  38.431  44.482   4.242
  983W        W68051  11.256  20.731   2.292
  984W        W68052   9.801  31.131  12.401
  985W        W68053  21.688   5.354   2.383
  986W        W68054  31.939  38.442  13.402
  987W        W68055  23.103  43.478  13.042
  988W        W68056   4.247   0.408  14.282
  989W        W68057  41.354   9.225   4.335
  990W        W68058  33.914  30.045  14.912
  991W        W68059  38.523  11.721   3.170
  992W        W68060   7.398  23.703  12.040
  993W        W68061  28.134  30.929   4.766
  994W        W68062  44.859  33.513  10.892
  995W        W68063  16.594  21.673   0.256
  996W        W68064  21.258  12.702   4.787
  997W        W68065  33.530  42.487   1.356
  998W        W68066  34.427  15.145  11.518
  999W        W68067  41.973  13.232   3.328
 1000W        W68068  32.391   7.234   3.667
 1001W        W68069  30.054  16.241  13.831
 1002W        W68070   9.366   5.376   2.262
 1003W        W68071  28.514  31.506  12.096
 1004W        W68072  20.134  41.367   2.196
 1005W        W68073  17.579  25.999   2.663
 1006W        W68074  43.513  18.244   1.422
 1007W        W68075  13.665  40.874   2.189
 1008W        W68076  29.171  26.956  12.906
 1009W        W68077  31.131  21.735  10.437
 1010W        W68078   2.938  31.626  11.405
 1011W        W68079  29.442  13.833  13.316
 1012W        W68080  38.432  43.883   0.750
 1013W        W68081  10.834  23.004   4.815
 1014W        W68082  25.709  34.925  11.530
 1015W        W68083  25.103  11.313   1.734
 1016W        W68084  25.055   3.837   1.261
 1017W        W68085  16.156  29.478  14.803
 1018W        W68086  39.818  37.479  14.844
 1019W        W68087   1.767  21.757  10.900
 1020W        W68088  13.646  10.731  12.883
 1021W        W68089  43.956   4.733   2.717
 1022W        W68090  29.588  20.644  13.058
 1023W        W68091  22.127  10.718  10.514
 1024W        W68092  24.080   4.337  13.480
 1025W        W68093  16.119  19.104   4.225
 1026W        W68094  23.640  26.608  14.374
 1027W        W68095  15.806   4.896   2.858
 1028W        W68096   6.744   1.305  12.983
 1029W        W68097  38.443  37.528   4.199
 1030W        W68098   2.451  21.627  11.064
 1031W        W68099   1.319  34.869   3.848
 1032W        W68100  44.753  25.139  11.421
 1033W        W68101  15.190  43.946   1.884
 1034W        W68102   3.752   4.209  12.947
 1035W        W68103   8.183   0.894  10.631
 1036W        W68104   0.987  32.931  12.010
 1037W        W68105  13.155   3.862  14.801
 1038W        W68106  31.903  11.369  10.628
 1039W        W68107   0.342  44.839   0.955
 1040W        W68108  28.936  11.370  11.976
 1041W        W68109  26.156  31.501   3.255
 1042W        W68110  19.148  43.799   0.960
 1043W        W68111   7.758  41.337   2.354
 1044W        W68112  30.097  16.572  12.045
 1045W        W68113  32.515  28.542   3.656
 1046W        W68114   0.258  37.005   3.817
 1047W        W68115   9.789  20.590  14.882
 1048W        W68116   7.241  36.377  10.634
 1049W        W68117  33.584  10.187  14.856
 1050W        W68118  19.185  19.663   0.945
 1051W        W68119  38.919   9.652  10.587
 1052W        W68120  36.979  17.239   0.369
 1053W        W68121  15.771  44.971  12.990
 1054W        W68122   1.752  26.032   4.777
 1055W        W68123  16.120   2.259   3.837
 1056W        W68124  22.507  37.934   4.627
 1057W        W68125  24.068  26.991  13.020
 1058W        W68126  42.830  25.574   0.476
 1059W        W68127   8.303  28.020   0.859
 1060W        W68128  20.682  26.992   3.730
 1061W        W68129  11.281  14.780   0.252
 1062W        W68130  18.553  20.060   9.977
 1063W        W68131  38.548   9.655   1.935
 1064W        W68132  13.269  18.097  11.536
 1065W        W68133   1.258  36.051   2.679
 1066W        W68134  31.620   1.911   0.877
 1067W        W68135  21.702   2.798   0.915
 1068W        W68136  17.728   0.958  13.328
 1069W        W68137  27.110  26.597   0.851
 1070W        W68138  27.487  26.467  13.322
 1071W        W68139  26.167  44.956  11.890
 1072W        W68140  27.183  36.042   2.827
 1073W        W68141  33.988  22.512   2.781
 1074W        W68142  26.130   5.856   3.790
 1075W        W68143  18.586  34.989  11.943
 1076W        W68144   9.758  42.336  11.405
 1077W        W68145  31.574  39.389  14.499
 1078W        W68146   3.796  21.554   1.247
 1079W        W68147  41.437  20.273  13.981
 1080W        W68148   2.884   8.190  14.376
 1081W        W68149  31.590  11.657   3.651
 1082W        W68150  40.799  27.190  12.079
 1083W        W68151  38.919  39.361  14.400
 1084W        W68152  33.476  15.774  13.878
 1085W        W68153  10.868  44.424  13.046
 1086W        W68154  37.567  21.142   0.363
 1087W        W68155  19.093  28.977  10.993
 1088W        W68156  44.937   4.354   4.698
 1089W        W68157  36.990   2.323   4.256
 1090W        W68158  19.752  35.391  12.944
 1091W        W68159  17.109  10.682   1.830
 1092W        W68160  25.470  35.973  14.297
 1093W        W68161   4.230   7.808   0.340
 1094W        W68162  27.669  41.935   4.785
 1095W        W68163  44.951   9.863  11.511
 1096W        W68164  41.954  12.847  13.401
 1097W        W68165  33.593  21.212  12.865
 1098W        W68166   0.760  10.146   0.393
 1099W        W68167  22.747  39.014   4.831
 1100W        W68168  10.873  10.873  14.308
 1101W        W68169  11.290  16.700   0.308
 1102W        W68170  20.633  13.215   3.238
 1103W        W68171  30.529  28.513  11.414
 1104W        W68172  20.750   4.380  11.398
 1105W        W68173  15.324  35.432   0.739
 1106W        W68174   8.297   0.921   9.447
 1107W        W68175  22.527  40.346   1.279
 1108W        W68176  34.875  25.634   3.253
 1109W        W68177  22.681  12.218  14.392
 1110W        W68178  19.145  35.452   0.421
 1111W        W68179   0.755  17.173  10.127
 1112W        W68180  39.976  23.642  13.916
 1113W        W68181  28.548   4.730  13.046
 1114W        W68182   8.773  33.489   0.944
 1115W        W68183  38.444  30.120   4.754
 1116W        W68184   4.832  43.796  13.407
 1117W        W68185  39.969   4.794  12.084
 1118W        W68186  40.422  13.209  12.080
 1119W        W68187   2.253  23.687  13.007
 1120W        W68188  39.958  26.685  14.462
 1121W        W68189  27.047  37.500   3.825
 1122W        W68190   5.696  25.511   4.605
 1123W        W68191  38.860  14.303  11.551
 1124W        W68192  20.111   3.885  14.858
 1125W        W68193  42.992  19.609  12.572
 1126W        W68194  18.776  34.046   0.405
 1127W        W68195  39.933   1.400   4.164
 1128W        W68196  12.187  24.039   0.808
 1129W        W68197   0.901  37.371   1.836
 1130W        W68198  34.418  34.372   1.450
 1131W        W68199  41.432  30.505   1.313
 1132W        W68200  14.262   1.457  10.906
 1133W        W68201  42.502   2.303   3.823
 1134W        W68202  21.563  44.843   0.358
 1135W        W68203  42.517  34.033   4.800
 1136W        W68204   3.400  27.106  13.027
 1137W        W68205  40.487   5.929   1.313
 1138W        W68206  18.109  41.311   2.762
 1139W        W68207   9.726  22.734   0.277
 1140W        W68208  13.793   7.405   3.205
 1141W        W68209  27.683  22.664   2.202
 1142W        W68210  25.626  30.568   4.134
 1143W        W68211   6.790  31.575   4.759
 1144W        W68212  27.536  33.390  12.865
 1145W        W68213  27.184   4.836   1.229
 1146W        W68214  19.600  14.817   4.625
 1147W        W68215  37.066   1.283   0.792
 1148W        W68216  35.598  33.512  12.543
 1149W        W68217  31.602  13.801  11.444
 1150W        W68218   2.760  31.929  14.943
 1151W        W68219  44.921  14.173  12.373
 1152W        W68220  19.553  12.849   1.446
 1153W        W68221  13.277  44.265   3.648
 1154W        W68222  20.112  30.610  14.309
 1155W        W68223   8.829   4.269  12.502
 1156W        W68224  32.476   6.702   2.226
 1157W        W68225  29.666  10.152   1.703
 1158W        W68226  44.896  34.614  13.795
 1159W        W68227  11.151  28.126  13.465
 1160W        W68228  34.456   8.841   1.722
 1161W        W68229  43.483   1.961   2.352
 1162W        W68230  23.605  42.321  14.902
 1163W        W68231  10.153  30.077   5.297
 1164W        W68232  21.193   3.836   1.897
 1165W        W68233  21.055  37.448  12.835
 1166W        W68234  12.283  27.983  10.481
 1167W        W68235   6.297  28.178   2.748
 1168W        W68236   7.739  34.050  11.968
 1169W        W68237  14.736   7.218   9.965
 1170W        W68238   3.441  22.084  11.949
 1171W        W68239  14.244  41.975   1.413
 1172W        W68240  20.647  33.536   1.348
 1173W        W68241  31.065  25.184  11.518
 1174W        W68242  36.971  20.763  12.003
 1175W        W68243  23.138  43.460  10.451
 1176W        W68244  11.729   2.931   3.278
 1177W        W68245  37.430  40.399   0.830
 1178W        W68246  40.465  10.223  13.791
 1179W        W68247  41.375  17.085   3.841
 1180W        W68248  16.224  22.127  11.893
 1181W        W68249  44.405  21.114  10.460
 1182W        W68250  15.202  12.781   2.798
 1183W        W68251  41.391  39.528   2.348
 1184W        W68252  40.806  12.718   4.268
 1185W        W68253  38.064  15.156  11.992
 1186W        W68254   9.872  42.012  14.487
 1187W        W68255   8.657  15.179   3.640
 1188W        W68256  33.586  34.564  13.042
 1189W        W68257  31.545   9.170  13.435
 1190W        W68258  28.579  15.224   5.195
 1191W        W68259  10.851  34.462  14.479
 1192W        W68260   7.728  14.830   4.203
 1193W        W68261  12.282  30.079   2.766
 1194W        W68262  33.417  39.382  12.429
 1195W        W68263   5.768  14.248  12.977
 1196W        W68264   9.654  31.568  14.889
 1197W        W68265  15.670   8.739   1.785
 1198W        W68266  30.116  39.336   3.796
 1199W        W68267   0.931  40.818  14.459
 1200W        W68268  25.655  24.094  11.967
 1201W        W68269  27.054  15.276   0.871
 1202W        W68270  24.607  44.801  13.006
 1203W        W68271  13.644   3.440  10.643
 1204W        W68272  10.348   1.274   4.344
 1205W        W68273  15.319  23.654  11.388
 1206W        W68274  41.871  15.180   2.197
 1207W        W68275  19.676  11.699   2.300
 1208W        W68276   7.814  35.484  14.344
 1209W        W68277  15.162  43.359   2.721
 1210W        W68278  14.226   7.386  11.434
 1211W        W68279  23.029  16.275   4.338
 1212W        W68280  32.620  38.475   3.332
 1213W        W68281  17.073  44.980   4.627
 1214W        W68282   9.341  40.307  12.928
 1215W        W68283   4.759   6.792   3.639
 1216W        W68284  22.687   3.274  11.393
 1217W        W68285  21.582  11.244  14.892
 1218W        W68286   7.798  34.466   2.241
 1219W        W68287  30.481   2.852   0.843
 1220W        W68288  40.383  27.652  12.950
 1221W        W68289   5.724  16.102   1.841
 1222W        W68290  41.456  15.758   1.412
 1223W        W68291  38.853  38.937  10.446
 1224W        W68292  24.678  40.456  12.432
 1225W        W68293  12.810  13.781   1.856
 1226W        W68294  14.816   8.372   2.871
 1227W        W68295  15.730  21.693   1.705
 1228W        W68296   7.902   8.362   2.330
 1229W        W68297  25.011  38.857  10.993
 1230W        W68298  20.686   6.682  10.521
 1231W        W68299  14.128  29.568  10.576
 1232W        W68300  19.278   9.363   3.146
 1233W        W68301  36.506  43.941   0.272
 1234W        W68302  42.473  13.128   0.271
 1235W        W68303  12.825   9.870   2.251
 1236W        W68304  44.946  15.118   1.813
 1237W        W68305  40.847  31.082  12.516
 1238W        W68306  24.499  25.967   2.294
 1239W        W68307  27.156  41.983   3.846
 1240W        W68308  18.620  41.436  14.309
 1241W        W68309  31.430  30.015   1.932
 1242W        W68310  27.451  31.045  14.769
 1243W        W68311   8.235  42.405  13.999
 1244W        W68312   4.754  16.567   3.752
 1245W        W68313  12.805  11.847   0.292
 1246W        W68314  28.000  43.411   3.318
 1247W        W68315  12.737   2.823  10.567
 1248W        W68316   1.264  25.111   4.329
 1249W        W68317  16.705   1.960  14.763
 1250W        W68318  24.141  25.049   2.390
 1251W        W68319  25.999   7.713  10.566
 1252W        W68320   0.860  31.018  14.379
 1253W        W68321  14.119   7.208   1.824
 1254W        W68322  22.501  44.290   3.719
 1255W        W68323  31.550  11.369  13.993
 1256W        W68324  33.445  14.698   4.716
 1257W        W68325  31.932   2.779   0.338
 1258W        W68326   7.361  20.695   3.211
 1259W        W68327  26.062  28.956  10.615
 1260W        W68328  38.027  31.501  10.447
 1261W        W68329  21.104  16.198   3.825
 1262W        W68330   1.958  41.797  12.020
 1263W        W68331   2.469  34.510   9.462
 1264W        W68332  28.141   0.251   0.439
 1265W        W68333  38.975  24.159   0.946
 1266W        W68334   5.333  24.535  14.847
 1267W        W68335  42.990  43.485   0.395
 1268W        W68336  20.093  39.875  14.831
 1269W        W68337  25.469   4.294  11.584
 1270W        W68338   7.723  15.732  11.128
 1271W        W68339  27.509  19.699  13.905
 1272W        W68340  20.085  14.295   2.232
 1273W        W68341  33.479  44.346  13.807
 1274W        W68342  42.396  18.091  10.981
 1275W        W68343  20.610   7.859   4.147
 1276W        W68344  34.466  31.602  13.866
 1277W        W68345  24.056  32.562   0.819
 1278W        W68346   1.339  25.605  12.897
 1279W        W68347  36.860  25.637   0.745
 1280W        W68348   4.411  10.335  14.424
 1281W        W68349  22.213  36.583   3.756
 1282W        W68350   4.712  33.543  12.460
 1283W        W68351  11.278  44.981  13.426
 1284W        W68352  24.038  21.020   4.735
 1285W        W68353   0.388  29.652  14.997
 1286W        W68354   2.887  22.648  13.024
 1287W        W68355  12.798  21.198   5.082
 1288W        W68356  11.327  16.649   3.823
 1289W        W68357   3.829   0.491   1.237
 1290W        W68358  26.011   1.894   3.331
 1291W        W68359  22.182  33.564  10.936
 1292W        W68360  19.643  28.938  10.985
 1293W        W68361   5.320  30.558   0.942
 1294W        W68362  31.154  17.170  14.929
 1295W        W68363  36.050  16.762   2.270
 1296W        W68364  28.936  19.157  10.471
 1297W        W68365  34.039  34.453   2.742
 1298W        W68366  25.551   0.256  13.821
 1299W        W68367  22.666  18.202  11.112
 1300W        W68368  42.837  42.877  13.539
 1301W        W68369  27.076  18.191   1.780
 1302W        W68370  19.767  36.523   1.796
 1303W        W68371  17.680  40.047  12.340
 1304W        W68372  29.549  37.489  11.026
 1305W        W68373  38.905   1.838   4.817
 1306W        W68374  21.256  40.029  11.858
 1307W        W68375  23.613  21.132   3.179
 1308W        W68376  16.095  19.277  11.559
 1309W        W68377   9.228  31.574   3.164
 1310W        W68378  32.452  18.557  10.499
 1311W        W68379  19.194  32.547  10.611
 1312W        W68380  33.579  15.192  12.560
 1313W        W68381  17.731  34.036   1.873
 1314W        W68382  36.963  24.112   4.629
 1315W        W68383  33.606  20.552  12.467
 1316W        W68384   3.372  40.315  10.921
 1317W        W68385   9.808  43.504  13.880
 1318W        W68386  41.427  27.951  12.937
 1319W        W68387   0.295  38.349  10.959
 1320W        W68388  18.679  26.140  13.965
 1321W        W68389  17.246  24.608   1.387
 1322W        W68390  34.901  35.511  13.330
 1323W        W68391  44.891  39.062   3.308
 1324W        W68392  17.614   8.901  11.874
 1325W        W68393  27.495  10.309   3.201
 1326W        W68394  16.653  13.619   4.202
 1327W        W68395  37.542  27.969  10.968
 1328W        W68396  35.970  35.994   0.827
 1329W        W68397  32.460   1.376   0.361
 1330W        W68398  18.701  30.112   5.768
 1331W        W68399   0.918  23.187  11.600
 1332W        W68400  43.358  38.886   3.742
 1333W        W68401  36.468  30.513  10.919
 1334W        W68402  34.101  37.495  10.492
 1335W        W68403  11.640  41.460  11.027
 1336W        W68404  29.942   8.878   4.620
 1337W        W68405   4.709  32.894  14.412
 1338W        W68406  31.129  37.476   2.306
 1339W        W68407  23.694  20.677   4.316
 1340W        W68408  44.919   0.374   3.189
 1341W        W68409  37.474  22.121   3.857
 1342W        W68410  38.841  12.717   5.321
 1343W        W68411  13.294  38.423   1.929
 1344W        W68412  10.787   3.286  13.337
 1345W        W68413  37.395   6.707  12.018
 1346W        W68414  16.201  29.991   1.330
 1347W        W68415  20.065  40.439   0.737
 1348W        W68416  12.307  31.929   3.232
 1349W        W68417   7.244  23.103  13.820
 1350W        W68418   1.923  26.049   1.393
 1351W        W68419   7.297  43.392   4.329
 1352W        W68420   0.442  43.938   2.739
 1353W        W68421  22.632  37.008  13.823
 1354W        W68422  36.846  40.020  10.563
 1355W        W68423  14.265  20.119  14.898
 1356W        W68424  37.423  19.127   0.332
 1357W        W68425  21.037  10.786  12.441
 1358W        W68426   7.832   3.875  14.822
 1359W        W68427  16.136  15.177   2.750
 1360W        W68428  33.411  30.946  11.894
 1361W        W68429  31.609   8.705  13.441
 1362W        W68430  42.890  13.187   1.402
 1363W        W68431   5.278  20.607   4.324
 1364W        W68432  34.441  15.605  10.462
 1365W        W68433  27.667  40.027  13.405
 1366W        W68434   7.715  42.015  14.311
 1367W        W68435  27.477   4.374  13.031
 1368W        W68436  27.645  21.578  12.554
 1369W        W68437  31.621  42.979  12.360
 1370W        W68438  20.766  40.421  11.509
 1371W        W68439  29.443  35.428   0.783
 1372W        W68440  31.956  11.767  12.982
 1373W        W68441  10.186  23.096  11.092
 1374W        W68442  30.010   9.666   3.730
 1375W        W68443   7.836  21.125   3.272
 1376W        W68444  43.898  18.123   3.810
 1377W        W68445  11.688  29.614   4.160
 1378W        W68446   3.849  20.675   2.708
 1379W        W68447  17.693  28.082   3.851
 1380W        W68448   6.799  14.808   0.343
 1381W        W68449  28.965  20.715  13.426
 1382W        W68450  34.496  26.059   2.876
 1383W        W68451  22.212  14.335   0.751
 1384W        W68452  12.351  27.657  13.917
 1385W        W68453  15.732  11.152   5.140
 1386W        W68454  22.079  17.788  12.082
 1387W        W68455   4.338  35.434  13.986
 1388W        W68456  12.821   7.736  12.957
 1389W        W68457  27.665  31.600  11.882
 1390W        W68458   8.763  11.686  14.770
 1391W        W68459  11.782  12.815  11.048
 1392W        W68460  33.022  10.870  10.645
 1393W        W68461  20.127  33.103   4.181
 1394W        W68462  20.274  30.634   4.304
 1395W        W68463  31.953  23.504   3.169
 1396W        W68464  13.738  24.169   4.319
 1397W        W68465  10.238  40.488  11.025
 1398W        W68466  37.898   9.174  11.871
 1399W        W68467  13.714   3.332  13.815
 1400W        W68468  35.367  20.096   2.818
 1401W        W68469   1.322  28.936   0.960
 1402W        W68470   6.718  40.986  14.944
 1403W        W68471  31.928  40.368  13.413
 1404W        W68472  35.885  10.736  12.471
 1405W        W68473  43.823  33.066  11.094
 1406W        W68474  43.949  40.047  14.348
 1407W        W68475  31.459  15.655  13.870
 1408W        W68476  27.016  10.319  11.500
 1409W        W68477   3.793  19.232  10.505
 1410W        W68478   1.257   2.384  11.114
 1411W        W68479  19.203  40.045   2.826
 1412W        W68480  13.626  20.553  12.389
 1413W        W68481  21.033  10.639  12.860
 1414W        W68482  32.484  13.305   1.321
 1415W        W68483  11.194  30.521  13.836
 1416W        W68484  19.061  44.000  10.489
 1417W        W68485  33.558  33.489   4.218
 1418W        W68486  44.473   0.879   0.458
 1419W        W68487  12.124  41.322  10.640
 1420W        W68488  22.191  17.177  13.935
 1421W        W68489  44.488  32.552   3.707
 1422W        W68490  10.845   9.829  14.917
 1423W        W68491  19.623  18.727   5.211
 1424W        W68492   3.768  28.983   0.316
 1425W        W68493  38.942   4.871   0.425
 1426W        W68494  16.627  18.670  14.765
 1427W        W68495   4.744  40.306  14.939
 1428W        W68496   8.328  25.069   0.417
 1429W        W68497  30.137   0.476   1.403
 1430W        W68498  34.063  44.505  12.945
 1431W        W68499  16.645  16.146  14.024
 1432W        W68500  23.057  35.985  10.464
 1433W        W68501  39.329  32.895  10.411
 1434W        W68502  17.275  34.386  14.935
 1435W        W68503  33.079   1.914  10.471
 1436W        W68504   8.867  36.907   2.840
 1437W        W68505  39.902  11.787  14.513
 1438W        W68506  44.394   7.234   4.657
 1439W        W68507   4.754  21.169  10.440
 1440W        W68508  40.372   3.882   1.868
 1441W        W68509  40.444  38.835  11.493
 1442W        W68510   6.323  37.362   1.291
 1443W        W68511  18.759  38.932   0.812
 1444W        W68512  33.000  10.836  14.851
 1445W        W68513  21.144  34.517   2.183
 1446W        W68514  33.578  40.843  14.378
 1447W        W68515  41.429  34.561  14.843
 1448W        W68516   8.204  24.978  14.312
 1449W        W68517  16.751  43.019   4.168
 1450W        W68518  41.903  23.582  13.313
 1451W        W68519  13.831   2.920   4.131
 1452W        W68520  43.466  26.047   4.326
 1453W        W68521   9.693  14.622   0.796
 1454W        W68522  10.821  14.197   3.649
 1455W        W68523  23.131   3.883  10.623
 1456W        W68524  20.263  20.585   0.247
 1457W        W68525  30.921  15.612  12.530
 1458W        W68526  43.957   3.220   0.439
 1459W        W68527  40.514  29.128  12.371
 1460W        W68528  44.357  27.518  14.370
 1461W        W68529   4.755  12.634  11.885
 1462W        W68530  41.857  17.209   5.280
 1463W        W68531  14.276  16.112  13.375
 1464W        W68532  29.139  43.857   0.321
 1465W        W68533   0.877  35.491  12.399
 1466W        W68534  21.036  14.273  14.808
 1467W        W68535  25.111  42.001  12.526
 1468W        W68536   7.721  32.134   3.174
 1469W        W68537  40.527  12.742   3.219
 1470W        W68538  12.655  28.016  13.500
 1471W        W68539  17.088   8.822   0.422
 1472W        W68540   0.980  31.525  10.504
 1473W        W68541  21.037  41.368   1.221
 1474W        W68542  31.603  10.861   2.733
 1475W        W68543  33.487  26.538   1.707
 1476W        W68544  21.558   8.686   4.194
 1477W        W68545  37.441  28.117  14.785
 1478W        W68546  14.708  37.936  14.283
 1479W        W68547  23.700   5.287   2.769
 1480W        W68548  26.703  13.627  14.978
 1481W        W68549   0.359  16.242   2.404
 1482W        W68550  16.272  19.575   3.835
 1483W        W68551  37.553   4.312  11.513
 1484W        W68552  40.518  30.557  12.508
 1485W        W68553  26.571  17.679  10.546
 1486W        W68554  22.127   2.932   3.853
 1487W        W68555  37.986  44.374   4.236
 1488W        W68556  37.540  39.370   3.726
 1489W        W68557  43.960   6.853  13.970
 1490W        W68558  12.189  33.029  11.032
 1491W        W68559  33.049  40.807   2.782
 1492W        W68560  30.920  43.833   3.381
 1493W        W68561  20.100   8.279  11.114
 1494W        W68562  13.206  31.905  13.339
 1495W        W68563  29.938  17.702  14.806
 1496W        W68564  41.425   0.484  11.490
 1497W        W68565  16.254  11.176  10.059
 1498W        W68566  17.252  40.868  12.889
 1499W        W68567  34.571  21.524   3.680
 1500W        W68568  21.195  39.890  13.479
 1501W        W68569  21.629  21.744  10.643
 1502W        W68570  14.310   4.772   3.845
 1503W        W68571  35.579   5.340   1.732
 1504W        W68572  30.970  30.628  12.464
 1505W        W68573  26.646   4.840  10.632
 1506W        W68574   6.190  21.073   4.802
 1507W        W68575  16.746  22.588  11.978
 1508W        W68576  20.185  35.379   3.733
 1509W        W68577  36.857   5.290  14.808
 1510W        W68578  44.390  17.129  11.490
 1511W        W68579  31.130   5.690  10.931
 1512W        W68580  24.517  20.760   0.460
 1513W        W68581  40.371  31.496  13.376
 1514W        W68582   9.726  23.575  11.992
 1515W        W68583  44.004  41.498   3.175
 1516W        W68584  15.195  25.183  13.967
 1517W        W68585  21.124   4.358   0.925
 1518W        W68586  31.057  44.836  10.607
 1519W        W68587  42.944   1.884   4.610
 1520W        W68588  14.153  15.822   1.300
 1521W        W68589  26.474  38.522  13.955
 1522W        W68590  31.110   1.381   0.783
 1523W        W68591  25.606  34.017   0.302
 1524W        W68592  24.060  36.581  14.378
 1525W        W68593  44.992   3.853  13.307
 1526W        W68594  25.998   2.730  12.910
 1527W        W68595   0.415  36.886   0.471
 1528W        W68596  31.037   0.250   4.726
 1529W        W68597   5.756  16.140  13.431
 1530W        W68598  39.528  38.479   4.280
 1531W        W68599  31.053  14.597   9.945
 1532W        W68600  35.548  43.839  12.998
 1533W        W68601  40.534  18.224   1.445
 1534W        W68602  27.562   2.396  12.556
 1535W        W68603  29.072   8.856  14.829
 1536W        W68604   4.427  39.343   2.795
 1537W        W68605   6.189  20.155   3.645
 1538W        W68606  41.470  13.105  14.299
 1539W        W68607  34.533   5.881  13.009
 1540W        W68608  42.995  35.009  14.913
 1541W        W68609  27.945  12.694  13.937
 1542W        W68610  36.077  22.193   2.358
 1543W        W68611  15.321   7.334  12.990
 1544W        W68612  39.029  42.311   4.351
 1545W        W68613  34.459  28.656   0.765
 1546W        W68614  36.912  36.955  14.944
 1547W        W68615  17.149  41.886  11.005
 1548W        W68616  12.835  38.910   1.810
 1549W        W68617   6.369  37.391  13.823
 1550W        W68618  12.706  43.923   2.198
 1551W        W68619  22.093  16.257   3.163
 1552W        W68620  24.658  41.798   4.141
 1553W        W68621  28.163  20.265   1.832
 1554W        W68622  37.904  32.459   1.310
 1555W        W68623  43.330  27.116   3.166
 1556W        W68624  32.959  10.150   1.825
 1557W        W68625  27.662  10.382   2.363
 1558W        W68626  11.679  20.165   3.707
 1559W        W68627   4.241   4.207   3.688
 1560W        W68628  43.401  30.524  11.509
 1561W        W68629  34.887  11.366   2.334
 1562W        W68630  39.971  20.141   2.879
 1563W        W68631   1.974  35.475   0.844
 1564W        W68632  28.129  30.933  13.525
 1565W        W68633  30.047  20.057   0.268
 1566W        W68634  25.028  44.470  13.368
 1567W        W68635  30.488   4.442  12.937
 1568W        W68636  23.704  34.895   3.709
 1569W        W68637  27.154  27.073   3.705
 1570W        W68638  34.479  27.070   3.155
 1571W        W68639  25.116   8.660   4.231
 1572W        W68640  17.227   8.895   1.441
 1573W        W68641  20.071  19.700  14.329
 1574W        W68642  33.017   1.883   0.804
 1575W        W68643  24.518  23.506   0.360
 1576W        W68644  20.068  19.226   0.411
 1577W        W68645  10.696   5.918  13.807
 1578W        W68646  32.600  10.735   1.344
 1579W        W68647  29.534  42.505   4.253
 1580W        W68648  23.705  40.360   0.287
 1581W        W68649  39.501  37.468  11.981
 1582W        W68650  36.571   0.937  11.574
 1583W        W68651  14.756   1.264   4.746
 1584W        W68652  44.309  23.591  11.897
 1585W        W68653  38.542  37.036   0.961
 1586W        W68654  35.030  18.761  12.425
 1587W        W68655   4.904  15.633  10.039
 1588W        W68656  44.355  10.221  10.403
 1589W        W68657  15.758  36.001  14.370
 1590W        W68658  22.180  26.029   1.286
 1591W        W68659  25.664  39.899  13.983
 1592W        W68660   7.714   1.832   1.452
 1593W        W68661  37.914  39.518   0.262
 1594W        W68662   6.371  17.590  11.430
 1595W        W68663  26.656   3.928  11.538
 1596W        W68664  32.062   4.443   3.725
 1597W        W68665   1.400  18.779  11.474
 1598W        W68666  19.632  41.530  12.441
 1599W        W68667  19.541  26.687  12.007
 1600W        W68668  30.527  30.450  12.851
 1601W        W68669  19.537   9.681   1.275
 1602W        W68670  23.072  37.881   3.292
 1603W        W68671  32.034   2.746   3.715
 1604W        W68672  29.017  21.176   0.339
 1605W        W68673  25.492  14.099   2.308
 1606W        W68674  32.049  44.264   1.299
 1607W        W68675  41.849  38.434   4.603
 1608W        W68676  13.197  13.110  12.370
 1609W        W68677  28.602  36.853   2.190
 1610W        W68678  30.079   3.789  12.378
 1611W        W68679  20.207   7.711  14.961
 1612W        W68680  23.194  35.032  10.058
 1613W        W68681  26.039  37.987  11.577
 1614W        W68682  38.352  26.131  14.953
 1615W        W68683  13.232  42.936   1.236
 1616W        W68684  26.164  43.788   1.910
 1617W        W68685  38.050  40.378   2.857
 1618W        W68686   3.955  41.381  13.920
 1619W        W68687   5.912   7.400   0.429
 1620W        W68688   3.432  42.909   2.793
 1621W        W68689  25.704  21.757   4.790
 1622W        W68690  17.721  42.780   0.728
 1623W        W68691  23.003  30.624   0.913
 1624W        W68692  23.039  30.526  12.402
 1625W        W68693  20.633  24.510   1.234
 1626W        W68694  43.979  10.265  13.872
 1627W        W68695   7.309  14.735   3.818
 1628W        W68696  25.560  26.112   4.301
 1629W        W68697  42.997  36.447   0.753
 1630W        W68698  33.524  20.741   1.381
 1631W        W68699  21.210  26.180  10.011
 1632W        W68700  25.702   8.749  13.893
 1633W        W68701  38.435  44.880  12.839
 1634W        W68702  21.751   9.320  12.443
 1635W        W68703  20.046  17.257  13.518
 1636W        W68704  14.750  11.750  12.463
 1637W        W68705  41.324  35.034   1.446
 1638W        W68706  30.547   2.437   3.761
 1639W        W68707   3.339  39.553  14.427
 1640W        W68708   6.187  39.492  12.963
 1641W        W68709  16.242  13.820  12.520
 1642W        W68710  12.358  15.690  13.940
 1643W        W68711  31.503  20.720   4.837
 1644W        W68712  19.734   6.346  14.870
 1645W        W68713  32.394   0.945  13.974
 1646W        W68714  18.055  22.054   4.706
 1647W        W68715  13.654  42.328  14.420
 1648W        W68716  42.391  43.271  14.285
 1649W        W68717  14.325  11.845   4.779
 1650W        W68718  24.093   0.817  11.465
 1651W        W68719  15.599  33.022  11.016
 1652W        W68720  25.504   8.379   1.442
 1653W        W68721   8.161  44.326  13.481
 1654W        W68722  32.049  34.085  14.314
 1655W        W68723  19.121  32.636  13.949
 1656W        W68724  35.022  12.664  13.970
 1657W        W68725  17.110  13.240  10.465
 1658W        W68726  30.060   9.820   0.800
 1659W        W68727  39.034  20.745  12.938
 1660W        W68728  35.575   1.428  13.983
 1661W        W68729  31.437  40.975   2.764
 1662W        W68730  24.102  39.867   2.260
 1663W        W68731  24.084  16.630   1.861
 1664W        W68732  44.827   6.217   1.341
 1665W        W68733  15.160   7.195  14.885
 1666W        W68734  23.681   1.847   0.401
 1667W        W68735  10.814  19.618  12.840
 1668W        W68736  36.976  36.569   1.221
 1669W        W68737  13.604  25.205  14.456
 1670W        W68738  34.053  11.749  13.885
 1671W        W68739  13.154  38.923   1.788
 1672W        W68740  32.913  20.531   1.242
 1673W        W68741  20.755  23.665  13.395
 1674W        W68742  39.829  41.337  14.454
 1675W        W68743   5.206   6.325   0.279
 1676W        W68744   5.819  18.295   3.368
 1677W        W68745  29.054   2.781   2.322
 1678W        W68746  20.684  34.904  13.326
 1679W        W68747   0.880  10.337  12.462
 1680W        W68748  19.643  35.066  12.371
 1681W        W68749  42.953   1.769  10.934
 1682W        W68750  22.664  23.501  14.790
 1683W        W68751   4.849  38.351   4.647
 1684W        W68752  38.063  36.360   2.356
 1685W        W68753   9.382   3.925  12.343
 1686W        W68754  31.492  26.577  13.480
 1687W        W68755   6.901  36.846  14.915
 1688W        W68756  12.678  22.056  11.376
 1689W        W68757  37.567  37.050  11.080
 1690W        W68758  28.107  44.799   2.739
 1691W        W68759   7.724  23.611   2.235
 1692W        W68760  16.664  17.121  12.445
 1693W        W68761  27.996  18.641  10.995
 1694W        W68762   2.853  13.266   2.273
 1695W        W68763  24.228  31.094  12.525
 1696W        W68764  44.791  18.554   0.931
 1697W        W68765  10.328  36.406   2.836
 1698W        W68766  16.741  27.542  10.445
 1699W        W68767  14.725   2.468   1.437
 1700W        W68768  30.103  27.104   1.269
 1701W        W68769  30.926   6.782  12.471
 1702W        W68770  24.595   5.703   4.196
 1703W        W68771   5.714   5.908  13.007
 1704W        W68772  18.163  39.352  14.404
 1705W        W68773  14.613  29.567   1.240
 1706W        W68774   2.460  35.471  12.969
 1707W        W68775  44.848  17.783  11.084
 1708W        W68776  31.583   5.735   3.365
 1709W        W68777  20.714  26.121   4.814
 1710W        W68778  17.166  13.828  11.927
 1711W        W68779  17.200  25.472   1.251
 1712W        W68780  23.681   0.946   1.719
 1713W        W68781  27.503   6.341  11.025
 1714W        W68782  44.838  10.709  13.407
 1715W        W68783  14.664  20.065  11.962
 1716W        W68784   0.382   6.744  14.853
 1717W        W68785  43.854   4.308  12.578
 1718W        W68786  43.850  20.671   0.922
 1719W        W68787  17.659  40.958   1.303
 1720W        W68788  17.559  17.287   3.799
 1721W        W68789  36.389  22.187   1.333
 1722W        W68790  38.369  23.504  13.040
 1723W        W68791  17.710  28.073   2.326
 1724W        W68792  42.012   1.807   0.300
 1725W        W68793  15.088  27.081   1.389
 1726W        W68794  19.569  31.143   0.795
 1727W        W68795  40.008  25.031  10.550
 1728W        W68796  20.565  35.966   2.768
 1729W        W68797  31.518  40.929  14.432
 1730W        W68798  23.552   9.223  12.513
 1731W        W68799   8.310   4.721   1.785
 1732W        W68800  10.703  39.924  14.969
 1733W        W68801  16.632  25.970   3.314
 1734W        W68802   6.769  31.541   3.853
 1735W        W68803  42.305  24.660  11.010
 1736W        W68804  10.877  29.072  12.372
 1737W        W68805  37.853  33.054   3.189
 1738W        W68806  25.568  43.921   4.624
 1739W        W68807  13.644  36.918   1.322
 1740W        W68808   1.947  43.514   1.439
 1741W        W68809  37.468  34.094  12.474
 1742W        W68810  17.666  36.525   2.247
 1743W        W68811  44.377   0.420   1.444
 1744W        W68812   9.707  30.604  13.963
 1745W        W68813   1.449  33.027   5.664
 1746W        W68814  24.713  42.848  12.411
 1747W        W68815  22.202  40.452   2.243
 1748W        W68816  36.427  36.412  14.013
 1749W        W68817   6.879  13.286   0.869
 1750W        W68818   4.333  34.910   3.676
 1751W        W68819   1.306  29.651  12.573
 1752W        W68820  13.709  14.222  11.065
 1753W        W68821  27.135  13.610  14.316
 1754W        W68822  44.480  42.945   2.762
 1755W        W68823  29.664  29.948  12.499
 1756W        W68824  31.424  35.409  12.048
 1757W        W68825  20.631  27.664  13.907
 1758W        W68826  30.993  16.594   3.364
 1759W        W68827  18.106  13.307   0.340
 1760W        W68828  12.729  37.046   2.188
 1761W        W68829  28.482  36.526  11.610
 1762W        W68830  12.204  35.498  12.363
 1763W        W68831  18.732  20.177   4.139
 1764W        W68832  17.126  34.879   5.213
 1765W        W68833   8.813   4.903   2.398
 1766W        W68834  34.372  35.034   4.271
 1767W        W68835  10.184  22.125  11.914
 1768W        W68836  39.831  16.128  14.490
 1769W        W68837  11.731  15.819   0.911
 1770W        W68838  11.278  42.921   3.778
 1771W        W68839  43.333  32.935   3.245
 1772W        W68840  37.847   7.189  13.501
 1773W        W68841  25.144  10.151  13.919
 1774W        W68842   4.858   7.194  10.482
 1775W        W68843  36.882  42.443   4.205
 1776W        W68844  13.682  39.505   1.382
 1777W        W68845  30.946  13.106  12.897
 1778W        W68846  40.494  21.099  13.839
 1779W        W68847  21.102   9.155  11.481
 1780W        W68848  37.528  42.339   3.208
 1781W        W68849  36.525  36.000   4.771
 1782W        W68850  43.962  26.629   3.239
 1783W        W68851  30.991   4.336  11.895
 1784W        W68852  38.354  12.701  12.561
 1785W        W68853  22.652  21.517   2.763
 1786W        W68854   6.829  27.687   0.748
 1787W        W68855  19.248  10.713   2.341
 1788W        W68856  12.292  39.012   2.407
 1789W        W68857  14.652  34.392  13.893
 1790W        W68858   8.288  34.533   2.850
 1791W        W68859  30.938  25.022  11.105
 1792W        W68860  37.486  28.075   3.787
 1793W        W68861   7.336   8.747   3.751
 1794W        W68862  13.336  15.601  10.107
 1795W        W68863  11.319  40.874   1.346
 1796W        W68864  17.180  30.936  12.553
 1797W        W68865  26.620  30.051  14.335
 1798W        W68866  36.546  21.617  14.828
 1799W        W68867  20.748  21.142  11.104
 1800W        W68868  30.998   9.192  11.514
 1801W        W68869  40.883  26.109  12.044
 1802W        W68870  17.098   6.273   5.141
 1803W        W68871   2.722  16.140   0.791
 1804W        W68872  20.765  41.293   2.725
 1805W        W68873   7.317  18.254   0.452
 1806W        W68874  41.471  32.537   1.270
 1807W        W68875  41.430  37.894  10.473
 1808W        W68876   2.459   6.267   3.687
 1809W        W68877  19.590  22.541  12.070
 1810W        W68878  23.233  29.602   1.412
 1811W        W68879   1.338   3.388  10.977
 1812W        W68880  30.929  38.944  12.024
 1813W        W68881  39.945  37.548  10.899
 1814W        W68882   9.234   1.772  14.764
 1815W        W68883  11.130  21.053  10.419
 1816W        W68884  37.459  16.676  10.120
 1817W        W68885   2.274  30.109   2.331
 1818W        W68886   8.175  12.771  11.929
 1819W        W68887  44.958   2.952   4.809
 1820W        W68888  42.015  26.115   4.214
 1821W        W68889   7.767  41.008  10.973
 1822W        W68890  18.750  25.969  14.387
 1823W        W68891  44.281  27.982   2.378
 1824W        W68892  36.989  39.556  12.059
 1825W        W68893   9.868  37.869  10.629
 1826W        W68894   9.787  24.691   1.871
 1827W        W68895  35.512  36.405  12.570
 1828W        W68896  31.984  17.242  13.363
 1829W        W68897  13.757   4.274  14.499
 1830W        W68898  38.047  31.034   3.672
 1831W        W68899  43.408   7.304  14.406
 1832W        W68900  28.486  40.385  11.965
 1833W        W68901  32.110  12.785  14.288
 1834W        W68902   6.239  19.046  13.471
 1835W        W68903  16.701  27.147  12.083
 1836W        W68904  44.914   1.786   0.842
 1837W        W68905  19.207  30.127  11.608
 1838W        W68906  24.560   8.692  11.435
 1839W        W68907  36.045  39.050   0.770
 1840W        W68908   6.799  25.516  12.339
 1841W        W68909   0.869  12.244  14.890
 1842W        W68910  10.179  23.663   1.332
 1843W        W68911  28.458  15.235   2.759
 1844W        W68912  27.986  30.136   3.819
 1845W        W68913  37.851  19.227  10.890
 1846W        W68914  31.015   6.241  13.028
 1847W        W68915  31.033  21.559   4.151
 1848W        W68916  11.867  19.563   2.680
 1849W        W68917  32.576  28.939   2.689
 1850W        W68918   1.288  25.180  12.384
 1851W        W68919  13.162  36.096  14.831
 1852W        W68920  33.387  31.468  13.819
 1853W        W68921   4.824   3.902  11.400
 1854W        W68922  35.392  31.920   1.383
 1855W        W68923   3.887   3.316  14.403
 1856W        W68924  40.017  38.515   1.705
 1857W        W68925  30.942  16.775   3.848
 1858W        W68926  15.688   3.421  12.078
 1859W        W68927  16.266  19.545  13.401
 1860W        W68928  20.139   1.874   4.214
 1861W        W68929  23.064  34.867  13.363
 1862W        W68930  15.196  26.599  14.479
 1863W        W68931  23.545  39.856   4.139
 1864W        W68932  42.844  35.386   2.303
 1865W        W68933   7.856  22.662  10.993
 1866W        W68934  42.526   7.828  14.777
 1867W        W68935  25.521  18.131  13.434
 1868W        W68936  15.609  34.598  10.594
 1869W        W68937   8.301  26.068   0.402
 1870W        W68938  43.515  28.468   2.313
 1871W        W68939  22.583  10.261   2.301
 1872W        W68940  37.525  29.993   3.636
 1873W        W68941  32.074  12.284  14.974
 1874W        W68942  12.701  31.443   3.825
 1875W        W68943  35.096  38.472  12.828
 1876W        W68944  22.542  21.663   4.769
 1877W        W68945  32.139   5.299   2.407
 1878W        W68946  10.712   5.717   4.645
 1879W        W68947   6.787  18.284  13.861
 1880W        W68948   9.301  35.586  12.522
 1881W        W68949   8.664  13.293  12.387
 1882W        W68950  42.452  20.201   0.844
 1883W        W68951   9.376  28.161   3.184
 1884W        W68952  41.455  16.746  12.067
 1885W        W68953  30.478  27.070   1.843
 1886W        W68954  44.401  13.786  12.055
 1887W        W68955   7.761  36.536   0.807
 1888W        W68956  17.781  41.996   4.686
 1889W        W68957   4.421  26.689  11.071
 1890W        W68958  24.182  25.076   3.373
 1891W        W68959   4.711  25.709  11.863
 1892W        W68960  16.218  31.944   1.786
 1893W        W68961  33.878   3.413   4.324
 1894W        W68962   7.184   3.415   1.288
 1895W        W68963  26.642  41.861   1.216
 1896W        W68964   7.301   2.838  12.836
 1897W        W68965  30.974  30.102   0.823
 1898W        W68966  43.976  33.067   1.853
 1899W        W68967  21.534  27.671   1.896
 1900W        W68968  32.483  28.017   4.301
 1901W        W68969   8.830  37.392  14.454
 1902W        W68970   6.694  20.581  14.805
 1903W        W68971  24.661  37.974  12.972
 1904W        W68972  16.614   8.697  12.905
 1905W        W68973  31.912  22.250   3.180
 1906W        W68974  17.613   2.908  13.794
 1907W        W68975   1.803  32.931   0.772
 1908W        W68976  12.694  13.248   0.925
 1909W        W68977  12.684  13.325   2.726
 1910W        W68978  22.203  44.766   3.262
 1911W        W68979  27.180  23.015   4.767
 1912W        W68980  10.239  38.456  14.433
 1913W        W68981   4.359  18.782  12.825
 1914W        W68982  27.089  23.582  13.405
 1915W        W68983  34.988  30.074   4.601
 1916W        W68984  43.336  27.674   0.947
 1917W        W68985   2.739  17.151   0.306
 1918W        W68986  26.179  28.438  14.857
 1919W        W68987  40.520   9.323   3.333
 1920W        W68988  18.730  43.014  13.998
 1921W        W68989  36.908  23.227  14.826
 1922W        W68990  32.627  32.971   0.890
 1923W        W68991  24.112  28.052  14.986
 1924W        W68992   4.733   1.938  12.896
 1925W        W68993   2.395   8.253  14.286
 1926W        W68994  12.758  30.000  10.462
 1927W        W68995   1.252  13.826   2.687
 1928W        W68996  31.551  11.758  14.022
 1929W        W68997  30.559  35.411   0.790
 1930W        W68998  40.006  20.657  13.498
 1931W        W68999   9.258  33.511  13.832
 1932W        W69000  12.650   5.394   1.783
 1933W        W69001  43.369   3.290  10.999
 1934W        W69002  33.551  23.491  11.377
 1935W        W69003  16.599  44.786  13.911
 1936W        W69004   9.352   3.239   5.255
 1937W        W69005  11.819  44.405  13.526
 1938W        W69006  35.855  30.009  12.398
 1939W        W69007  33.401  13.227  10.550
 1940W        W69008  32.436  27.003  11.059
 1941W        W69009  23.102   3.839   4.720
 1942W        W69010  33.122  44.842   1.778
 1943W        W69011  43.352  41.989  12.853
 1944W        W69012   8.174  11.333  11.427
 1945W        W69013  21.126  43.284   3.645
 1946W        W69014  31.987   3.366   2.281
 1947W        W69015  42.868  11.649  10.500
 1948W        W69016  21.570   8.786  13.868
 1949W        W69017   1.287  17.063  10.405
 1950W        W69018  24.157  16.092  13.339
 1951W        W69019   9.652   5.789  10.471
 1952W        W69020  14.156  42.301   3.752
 1953W        W69021   4.372  31.648   0.414
 1954W        W69022  33.987   2.279  12.969
 1955W        W69023   7.752  35.952  11.585
 1956W        W69024   9.281  34.033  12.960
 1957W        W69025  13.231  12.154  14.344
 1958W        W69026  40.955   4.816   1.735
 1959W        W69027  18.213   9.841   4.251
 1960W        W69028  14.785   8.722   4.347
 1961W        W69029  27.037  12.699  11.566
 1962W        W69030   8.820   2.933  12.030
 1963W        W69031  10.383  26.966  11.948
 1964W        W69032  30.574  30.545  12.475
 1965W        W69033   2.782  29.480  12.519
 1966W        W69034  23.728  34.971   2.210
 1967W        W69035  37.035  28.107  14.835
 1968W        W69036  22.192  41.807   0.286
 1969W        W69037  18.139  40.456   0.819
 1970W        W69038  42.003  23.140   0.406
 1971W        W69039  35.954  44.010   1.212
 1972W        W69040   4.413  16.707  11.981
 1973W        W69041  31.990  13.620  13.534
 1974W        W69042  16.659  10.271  12.021
 1975W        W69043  31.924   9.668   2.274
 1976W        W69044   5.325  27.132  11.534
 1977W        W69045   4.424  24.575   4.702
 1978W        W69046  28.487  20.550   4.228
 1979W        W69047  44.493  17.281  12.533
 1980W        W69048  16.241  23.719   0.773
 1981W        W69049   0.918  27.451  14.870
 1982W        W69050  38.486   3.322  13.526
 1983W        W69051  15.715  25.556  12.949
 1984W        W69052   8.807  25.006  12.962
 1985W        W69053  32.075  31.407  11.128
 1986W        W69054  36.453   7.279   3.239
 1987W        W69055  39.377  17.231  14.762
 1988W        W69056  19.729   9.176  14.337
 1989W        W69057  16.203   9.868  11.578
 1990W        W69058  27.046   5.267   3.717
 1991W        W69059   1.856  21.587  11.428
 1992W        W69060   4.728  28.011  11.421
 1993W        W69061   8.235   8.844  12.829
 1994W        W69062   0.456  26.662   0.955
 1995W        W69063   6.705  25.670  14.468
 1996W        W69064  34.424  26.113   3.251
 1997W        W69065   5.229   9.334  14.795
 1998W        W69066   2.887  15.745   4.600
 1999W        W69067   4.250  43.911  14.855
 2000W        W69068   7.891  38.890  10.037
 2001W        W69069  11.291  17.656   1.361
 2002W        W69070  19.774   9.664   0.276
 2003W        W69071  22.246  27.615  10.939
 2004W        W69072   8.846  42.815   1.827
 2005W        W69073  27.533  25.976   1.407
 2006W        W69074  13.190   8.750  10.050
 2007W        W69075   9.282  16.729   4.279
 2008W        W69076  36.529  40.507   2.416
 2009W        W69077  20.542  29.463  10.465
 2010W        W69078  20.054  15.167   1.866
 2011W        W69079  19.061  21.529   2.801
 2012W        W69080  24.705  12.632  10.419
 2013W        W69081   7.722  13.686   1.813
 2014W        W69082  24.083  42.383   4.602
 2015W        W69083   6.312   4.798   1.264
 2016W        W69084  32.125  43.899  14.330
 2017W        W69085  35.390  18.157   0.479
 2018W        W69086   1.869  16.636   1.329
 2019W        W69087  42.350  42.507  12.423
 2020W        W69088   0.953  13.107   3.699
 2021W        W69089  16.115  16.205   1.396
 2022W        W69090  11.154  15.218   4.243
 2023W        W69091  44.765   3.821   2.202
 2024W        W69092   4.856  20.687  11.864
 2025W        W69093  17.733  41.338   0.341
 2026W        W69094  36.922   7.242   1.726
 2027W        W69095   5.253  17.644   3.813
 2028W        W69096  38.883   9.232   1.813
 2029W        W69097  14.236  38.913  13.933
 2030W        W69098   4.715  35.869  13.324
 2031W        W69099   6.872   6.828   2.388
 2032W        W69100   6.324  19.144  12.462
 2033W        W69101   0.288   7.892   2.857
 2034W        W69102  18.246  17.283  14.810
 2035W        W69103  20.634  24.981   2.688
 2036W        W69104  14.253   2.884   4.146
 2037W        W69105  21.078  25.650  12.431
 2038W        W69106  25.472  35.898  13.545
 2039W        W69107   3.361   3.853  12.020
 2040W        W69108  35.022  13.315   0.794
 2041W        W69109  39.027   1.844  14.900
 2042W        W69110   6.382  21.086  11.419
 2043W        W69111  13.649  34.066   1.833
 2044W        W69112  27.512  16.268   3.754
 2045W        W69113  31.578   0.922   3.236
 2046W        W69114  13.838   1.416  13.950
 2047W        W69115  24.702  26.964  12.933
 2048W        W69116  20.559   3.361   2.197
 2049W        W69117  35.456  40.346   4.805
 2050W        W69118  29.639   0.966   4.264
 2051W        W69119  21.639  44.927   3.315
 2052W        W69120  37.458   7.173  13.541
 2053W        W69121  22.024  12.296   3.646
 2054W        W69122  24.201  24.488   1.815
 2055W        W69123  20.561  21.123  11.445
 2056W        W69124  36.950   8.344  11.095
 2057W        W69125  12.793  37.530   3.707
 2058W        W69126  22.013   1.455   4.652
 2059W        W69127  40.919  12.152  14.929
 2060W        W69128   2.341  36.501   3.640
 2061W        W69129   8.253  14.303   1.429
 2062W        W69130  33.550  42.418  13.935
 2063W        W69131  14.816  25.213   2.712
 2064W        W69132  35.009  22.541   3.200
 2065W        W69133   5.363  12.766  11.592
 2066W        W69134   8.375  44.345   1.229
 2067W        W69135   7.312  13.751  14.848
 2068W        W69136  13.670  29.161  14.916
 2069W        W69137  28.151  17.770   1.841
 2070W        W69138   0.418  33.591   3.657
 2071W        W69139  18.078   6.852  11.371
 2072W        W69140  12.661   0.464   0.310
 2073W        W69141  39.525   4.893   4.124
 2074W        W69142  41.459  24.039  10.598
 2075W        W69143   3.864  35.970   0.317
 2076W        W69144  25.546  10.697  10.558
 2077W        W69145  12.763  36.857  13.336
 2078W        W69146  26.569  28.530   3.814
 2079W        W69147  15.582   8.185   0.820
 2080W        W69148   5.343  13.618  13.858
 2081W        W69149  12.216  24.065  10.633
 2082W        W69150   1.281  26.074  11.874
 2083W        W69151   2.265  32.979  14.452
 2084W        W69152  14.186  39.861  12.391
 2085W        W69153  22.503   0.283  14.415
 2086W        W69154   0.772   8.232  13.866
 2087W        W69155  13.740  13.720  14.362
 2088W        W69156   0.786   3.413   9.932
 2089W        W69157  35.492  44.306   3.754
 2090W        W69158   4.300  34.110   2.719
 2091W        W69159  34.993  24.146  11.127
 2092W        W69160  12.744  30.040  14.913
 2093W        W69161  37.896  11.223   1.815
 2094W        W69162  16.655  32.888  14.840
 2095W        W69163  16.789  39.971  11.383
 2096W        W69164  16.185  21.736   0.810
 2097W        W69165  25.653  40.913   2.898
 2098W        W69166  41.961  37.847  14.427
 2099W        W69167  23.048   9.703  10.984
 2100W        W69168  25.638  13.209   4.814
 2101W        W69169   7.823  39.826   3.715
 2102W        W69170  22.123  44.407   2.733
 2103W        W69171  39.524  38.503  11.863
 2104W        W69172  34.082  24.510   4.234
 2105W        W69173  12.643  15.682  11.109
 2106W        W69174  14.746  41.434  12.940
 2107W        W69175  21.734  34.402  13.909
 2108W        W69176  35.393  32.399   4.239
 2109W        W69177   3.773   9.662  14.934
 2110W        W69178  42.342  42.891  11.055
 2111W        W69179  32.465   4.781  11.121
 2112W        W69180  31.451  19.631  12.569
 2113W        W69181  38.479   9.733  13.351
 2114W        W69182  17.700  25.078   0.281
 2115W        W69183  21.715  39.367  12.357
 2116W        W69184  42.821  18.617  13.477
 2117W        W69185  44.980  20.646   3.198
 2118W        W69186  36.959   1.470  14.806
 2119W        W69187  24.703  20.197  11.449
 2120W        W69188  38.482  24.052   3.733
 2121W        W69189  42.933  31.638   0.769
 2122W        W69190   6.901  39.458   3.316
 2123W        W69191  34.913  18.549  14.373
 2124W        W69192  31.107  19.057   4.640
 2125W        W69193  42.506   5.719  12.831
 2126W        W69194  21.678  32.435  14.495
 2127W        W69195   3.864  36.018   1.416
 2128W        W69196  24.056  23.725  13.495
 2129W        W69197  11.168  14.796   1.410
 2130W        W69198  18.594  25.071   4.255
 2131W        W69199  26.058   7.718  11.096
 2132W        W69200  10.828  37.397  12.394
 2133W        W69201  10.835  20.543  13.481
 2134W        W69202  18.595  39.489   3.161
 2135W        W69203  23.144  22.159  13.947
 2136W        W69204  26.493  28.649  11.066
 2137W        W69205  12.847  25.605  10.519
 2138W        W69206  21.532  37.977   5.619
 2139W        W69207  33.876   9.714  10.414
 2140W        W69208  13.794  40.538  11.976
 2141W        W69209  40.036  11.313   0.962
 2142W        W69210  21.597  40.817   3.250
 2143W        W69211  12.808  14.228   2.408
 2144W        W69212  28.445  26.617  12.573
 2145W        W69213  32.035   3.236  10.931
 2146W        W69214  18.220   8.170  11.005
 2147W        W69215  38.486  31.904  14.981
 2148W        W69216  30.107  29.464   4.617
 2149W        W69217   3.374  14.325  12.854
 2150W        W69218  35.485  21.575   4.750
 2151W        W69219  23.114   8.317  13.859
 2152W        W69220  43.964  23.049  14.865
 2153W        W69221  35.456  11.248   1.827
 2154W        W69222  15.194  34.010   1.409
 2155W        W69223   7.801  22.012  10.920
 2156W        W69224  24.231  14.252  10.999
 2157W        W69225   7.744  19.062  13.796
 2158W        W69226  10.322  24.531  11.531
 2159W        W69227  43.272  38.544  13.540
 2160W        W69228  14.780   1.464   3.164
 2161W        W69229  20.194  15.666   3.381
 2162W        W69230  33.027   7.757   0.849
 2163W        W69231   5.267  19.255  14.369
 2164W        W69232  32.565  25.191   2.703
 2165W        W69233  24.628  43.006   1.257
 2166W        W69234  29.011   3.318  11.090
 2167W        W69235  19.535  28.084   4.662
 2168W        W69236  28.960  23.194   1.722
 2169W        W69237  17.078   2.845  13.006
 2170W        W69238  43.885  21.564   0.727
 2171W        W69239  21.514  33.945  11.965
 2172W        W69240  41.877  29.967  13.940
 2173W        W69241  16.158  14.288  10.922
 2174W        W69242   7.213  34.019  14.421
 2175W        W69243  33.413  18.116   4.302
 2176W        W69244  31.558  35.472  14.985
 2177W        W69245  42.429   8.697  11.580
 2178W        W69246  14.589  42.938   4.697
 2179W        W69247  18.781  44.881   2.388
 2180W        W69248  26.636  37.472   9.931
 2181W        W69249  22.628  15.141  14.444
 2182W        W69250   1.290  23.699  11.034
 2183W        W69251  12.282  10.178  14.418
 2184W        W69252  39.457  17.729  12.977
 2185W        W69253   3.837   3.891   0.887
 2186W        W69254   1.857  28.524  11.474
 2187W        W69255  41.009   9.273   3.691
 2188W        W69256  29.069  23.059   4.140
 2189W        W69257   1.466  31.454   9.925
 2190W        W69258   4.708   3.826   4.221
 2191W        W69259  29.993  14.329   1.327
 2192W        W69260   0.951  22.195  11.867
 2193W        W69261   4.271  41.795   0.339
 2194W        W69262  23.627  19.701   1.277
 2195W        W69263  20.157   0.765   1.913
 2196W        W69264  17.248  13.199   4.322
 2197W        W69265  42.833  14.623  12.825
 2198W        W69266  28.007  38.503   3.235
 2199W        W69267  21.057  42.970   2.855
 2200W        W69268  12.757  42.789   1.227
 2201W        W69269  16.270  17.088  14.793
 2202W        W69270   6.378  21.613   3.811
 2203W        W69271  31.101  11.230  14.899
 2204W        W69272  37.918  31.522  12.928
 2205W        W69273   8.709  16.187   1.838
 2206W        W69274  41.325  38.522   2.805
 2207W        W69275  28.634  37.030  11.405
 2208W        W69276   6.851   5.920  10.440
 2209W        W69277  17.306  40.818   2.779
 2210W        W69278   0.872  37.925  11.379
 2211W        W69279  34.468  18.159  11.904
 2212W        W69280  33.052   2.836   2.365
 2213W        W69281   1.850  19.081   3.207
 2214W        W69282  43.008  21.536   4.654
 2215W        W69283  34.104   5.733  12.524
 2216W        W69284  11.722  10.814   0.929
 2217W        W69285  27.942  12.233   2.198
 2218W        W69286  38.382   6.912   2.758
 2219W        W69287   9.693   9.644   2.666
 2220W        W69288  21.178  28.018   3.378
 2221W        W69289  33.993  36.957  12.425
 2222W        W69290  33.550  14.807   1.252
 2223W        W69291   2.952  21.134  14.896
 2224W        W69292  15.624   8.843  14.816
 2225W        W69293  17.297  11.828  13.982
 2226W        W69294   1.320  37.064   2.674
 2227W        W69295   1.794  32.542  14.865
 2228W        W69296  28.991  31.564   4.698
 2229W        W69297  23.712  12.230   2.222
 2230W        W69298  37.401  34.075  10.978
 2231W        W69299  44.882  19.102  11.907
 2232W        W69300  28.020  40.387   4.704
 2233W        W69301  26.526   7.372   2.719
 2234W        W69302  43.813  41.948  14.951
 2235W        W69303  41.984  31.512  12.440
 2236W        W69304  13.331  25.144   3.335
 2237W        W69305   9.772   1.391   4.251
 2238W        W69306  37.418  42.305   2.769
 2239W        W69307  31.592  24.553  11.509
 2240W        W69308   2.295  31.646  14.805
 2241W        W69309  20.072  23.180   0.384
 2242W        W69310  15.305  28.508  12.870
 2243W        W69311  30.504   9.663  12.083
 2244W        W69312  24.146  16.233   4.644
 2245W        W69313  31.484   4.811  13.364
 2246W        W69314  13.323  30.075   4.743
 2247W        W69315  14.102  35.030   2.680
 2248W        W69316  14.240  43.873  14.451
 2249W        W69317  17.802  21.636  11.514
 2250W        W69318  15.177  37.556  13.391
 2251W        W69319  40.803  17.168  13.873
 2252W        W69320  26.147   3.285   2.759
 2253W        W69321  37.997  43.406   1.756
 2254W        W69322   2.433   5.702  14.860
 2255W        W69323  17.116  43.476   0.961
 2256W        W69324  43.862  28.095  10.973
 2257W        W69325  34.523  43.846   2.872
 2258W        W69326   8.319   6.869  12.470
 2259W        W69327  25.082  26.145  12.050
 2260W        W69328  16.150  17.738  14.773
 2261W        W69329  15.115  19.624   1.733
 2262W        W69330  33.911  31.583  13.349
 2263W        W69331  44.784  16.709   2.396
 2264W        W69332  29.515  20.189   3.337
 2265W        W69333  17.153  31.537  14.339
 2266W        W69334  26.076  27.980   4.213
 2267W        W69335   2.937  21.070  12.555
 2268W        W69336  12.641  44.494   3.246
 2269W        W69337  30.012  43.957  12.424
 2270W        W69338   5.913  25.092   2.318
 2271W        W69339  33.403  10.639   1.363
 2272W        W69340   3.399  18.576   2.301
 2273W        W69341  26.651  32.094   3.823
 2274W        W69342   9.674  14.623  12.534
 2275W        W69343  16.585  10.334   3.785
 2276W        W69344  11.832  29.494   0.244
 2277W        W69345  37.002   9.187   4.655
 2278W        W69346  24.148  16.643  12.340
 2279W        W69347  33.126  34.424   0.901
 2280W        W69348  32.489  21.569   1.917
 2281W        W69349  25.999  27.446   4.598
 2282W        W69350  11.757  26.090   0.272
 2283W        W69351   3.809   9.277  10.922
 2284W        W69352  23.029   5.341   2.830
 2285W        W69353   2.724   5.861   0.484
 2286W        W69354  30.125  14.166   4.754
 2287W        W69355   5.747  23.066   2.239
 2288W        W69356   6.320   6.428  14.407
 2289W        W69357  37.011  19.260   1.213
 2290W        W69358  29.639  26.072   2.230
 2291W        W69359  22.696  31.116   2.755
 2292W        W69360  44.276  40.805   4.768
 2293W        W69361  42.437  32.534  14.434
 2294W        W69362   4.203  38.033   1.836
 2295W        W69363  18.076  13.727  14.894
 2296W        W69364  32.607  10.342   1.852
 2297W        W69365  42.955  32.581   3.638
 2298W        W69366  28.622  13.251  13.820
 2299W        W69367  38.365  15.781  14.875
 2300W        W69368  38.001   2.752  13.011
 2301W        W69369  22.215  26.952   0.256
 2302W        W69370   2.335  43.466  11.528
 2303W        W69371  31.926  41.888  11.426
 2304W        W69372  37.544  12.221   0.825
 2305W        W69373  29.508  12.286   4.775
 2306W        W69374  44.436   3.894   1.273
 2307W        W69375  16.271   5.900   2.751
 2308W        W69376  39.838  41.497  10.481
 2309W        W69377  12.683  25.555  11.863
 2310W        W69378  33.971  11.729   1.828
 2311W        W69379  39.314  42.782   4.760
 2312W        W69380  21.537  37.421   1.886
 2313W        W69381  28.528  30.930   1.259
 2314W        W69382  32.126   1.878   3.780
 2315W        W69383  30.417  25.627  12.382
 2316W        W69384  29.992  11.729  10.457
 2317W        W69385  26.078   2.957   0.943
 2318W        W69386   0.761   2.255  13.819
 2319W        W69387   6.713  35.974  13.920
 2320W        W69388  37.834  44.331   4.674
 2321W        W69389  21.107  19.137  10.988
 2322W        W69390  27.528  14.744   1.262
 2323W        W69391  37.969  22.242   0.857
 2324W        W69392   9.842  22.625   3.845
 2325W        W69393  11.858  21.064  11.944
 2326W        W69394  23.606   1.746  14.925
 2327W        W69395  28.079  14.267   4.811
 2328W        W69396  15.109  23.226   0.334
 2329W        W69397  18.582   2.946   1.910
 2330W        W69398   1.828  12.837   3.307
 2331W        W69399   2.960  43.397   1.262
 2332W        W69400  19.174  28.017   5.246
 2333W        W69401  41.864  20.263  14.305
 2334W        W69402   1.903  24.717   0.955
 2335W        W69403  32.908  44.913  13.823
 2336W        W69404  30.513  11.285  11.375
 2337W        W69405  30.597  27.486  11.088
 2338W        W69406   8.250  41.314   1.331
 2339W        W69407  42.811  40.867  10.477
 2340W        W69408   9.646   8.210   2.828
 2341W        W69409  29.031   9.388   1.350
 2342W        W69410  41.420  23.223  13.442
 2343W        W69411  18.646   2.959  14.996
 2344W        W69412  30.947  36.581   2.347
 2345W        W69413  31.406  34.603  10.457
 2346W        W69414  15.199  20.676   2.365
 2347W        W69415   7.218  41.932  11.577
 2348W        W69416  26.479  20.750  12.387
 2349W        W69417  36.377  43.319   4.141
 2350W        W69418  15.091  29.610   2.318
 2351W        W69419  25.710  16.733   3.225
 2352W        W69420  12.124  20.218   1.249
 2353W        W69421  23.622   0.362   3.356
 2354W        W69422  16.629  24.178   1.914
 2355W        W69423  16.648  16.205  12.391
 2356W        W69424  22.102  14.100   3.736
 2357W        W69425  30.427  11.819  12.951
 2358W        W69426  32.960  17.661  11.598
 2359W        W69427  35.997  17.242  13.832
 2360W        W69428  35.540  16.766   2.237
 2361W        W69429  11.814  18.756   1.355
 2362W        W69430   6.811  26.079   2.291
 2363W        W69431   1.900  27.540  13.994
 2364W        W69432  36.960  15.136  13.812
 2365W        W69433  27.151   5.347   2.383
 2366W        W69434   0.281  20.045  10.588
 2367W        W69435  36.469  43.963  13.900
 2368W        W69436  12.781  22.624   1.212
 2369W        W69437  26.169  24.989   0.368
 2370W        W69438  29.104  25.174  10.064
 2371W        W69439   7.859  16.587   4.611
 2372W        W69440  33.007  33.130  12.051
 2373W        W69441  16.810  44.922  14.370
 2374W        W69442  13.241   4.877  14.770
 2375W        W69443  27.600  29.965   0.479
 2376W        W69444  44.335  16.606  13.343
 2377W        W69445  15.808  28.932   0.449
 2378W        W69446  33.432   3.374  14.339
 2379W        W69447  24.522  11.224  13.316
 2380W        W69448   5.768  36.561   4.284
 2381W        W69449   7.264  17.778   1.333
 2382W        W69450  38.015  27.490  12.935
 2383W        W69451  16.263  37.347   1.757
 2384W        W69452  24.609  42.325  14.816
 2385W        W69453   4.799   7.179  12.550
 2386W        W69454   1.301  29.119  11.430
 2387W        W69455  17.211  10.205   9.974
 2388W        W69456   8.232  24.588  11.488
 2389W        W69457  29.126  35.510   2.396
 2390W        W69458  12.683  18.628  11.855
 2391W        W69459  13.312  11.320  13.935
 2392W        W69460  44.392  22.030   2.897
 2393W        W69461  43.950  35.924  14.505
 2394W        W69462  39.865  32.967  11.064
 2395W        W69463   2.346  10.299   3.327
 2396W        W69464  32.561  40.835   1.243
 2397W        W69465  25.620  37.461  10.906
 2398W        W69466   4.862  33.895  12.854
 2399W        W69467  20.568   2.839   4.699
 2400W        W69468   6.790  19.134  12.525
 2401W        W69469   1.917  34.101   2.339
 2402W        W69470   4.368  39.361   4.811
 2403W        W69471  41.325  42.413  12.551
 2404W        W69472  10.159   0.986   3.717
 2405W        W69473  27.138  29.007   0.309
 2406W        W69474  13.840   1.436  13.526
 2407W        W69475  30.111  19.732   1.291
 2408W        W69476   6.716   4.713   4.116
 2409W        W69477  21.215  39.922  10.567
 2410W        W69478  22.647  18.770  14.424
 2411W        W69479  29.588  10.170  12.357
 2412W        W69480  17.559   4.801   0.405
 2413W        W69481  22.731  33.500   1.828
 2414W        W69482  32.544  32.120  14.827
 2415W        W69483   6.702   2.864   1.254
 2416W        W69484  35.961   0.913  11.903
 2417W        W69485  13.153  16.683   4.146
 2418W        W69486  11.861  22.719  12.930
 2419W        W69487  39.440  36.410   3.313
 2420W        W69488  40.401  21.644   0.247
 2421W        W69489  29.174  39.813   3.672
 2422W        W69490  25.706  10.184  12.370
 2423W        W69491  29.585  33.129   2.786
 2424W        W69492  12.241  31.627  11.934
 2425W        W69493  17.115   6.803   1.223
 2426W        W69494  32.460  44.997   3.736
 2427W        W69495  25.962  20.648  10.483
 2428W        W69496  27.504  36.094  12.433
 2429W        W69497  29.613  40.477   3.821
 2430W        W69498  15.611  24.703   3.697
 2431W        W69499  16.157   2.738   3.184
 2432W        W69500  13.624   0.430   9.929
 2433W        W69501  33.442  29.069   3.344
 2434W        W69502  31.964  13.621   2.234
 2435W        W69503  25.711  26.613  10.450
 2436W        W69504  22.096  39.885   0.769
 2437W        W69505  32.464   8.327  13.490
 2438W        W69506  40.863   0.978  14.496
 2439W        W69507  29.975  41.345   4.310
 2440W        W69508  20.049  22.110  13.804
 2441W        W69509  16.181  36.880  10.450
 2442W        W69510   7.299  34.911   4.776
 2443W        W69511  24.715  12.672  14.300
 2444W        W69512  33.015  25.709  10.949
 2445W        W69513  30.956  17.764   1.213
 2446W        W69514   1.376  15.317  12.924
 2447W        W69515  34.896  28.003   4.758
 2448W        W69516   2.344  24.494  10.421
 2449W        W69517  10.806  22.182  12.975
 2450W        W69518  38.003   6.424  14.766
 2451W        W69519  13.667   8.344   0.413
 2452W        W69520  31.979  43.451   4.601
 2453W        W69521  16.607   6.692  14.324
 2454W        W69522  31.613   4.772   4.232
 2455W        W69523  17.575  41.292   1.760
 2456W        W69524  13.840  17.572  13.358
 2457W        W69525   7.809  24.030  13.041
 2458W        W69526  43.971  14.282   0.886
 2459W        W69527  14.115  43.859  13.903
 2460W        W69528  19.235   8.397   4.779
 2461W        W69529  35.940  22.086  11.057
 2462W        W69530  29.063   4.359  13.389
 2463W        W69531  40.479  13.639  13.466
 2464W        W69532  23.142  20.604   0.469
 2465W        W69533  42.015  16.283  14.932
 2466W        W69534  11.305  21.203  13.870
 2467W        W69535   8.822  27.580  10.894
 2468W        W69536  35.993  39.314   1.294
 2469W        W69537  39.878  31.418   0.349
 2470W        W69538  13.212  40.359   1.306
 2471W        W69539  13.754  26.562   4.296
 2472W        W69540  23.126  25.190  14.030
 2473W        W69541  15.669  14.781  13.904
 2474W        W69542  37.035   5.416  11.864
 2475W        W69543  11.357   0.472  14.277
 2476W        W69544   9.178  40.325  14.998
 2477W        W69545   4.714  41.299   1.243
 2478W        W69546  21.079  27.049   3.252
 2479W        W69547  30.605  44.758   4.189
 2480W        W69548  42.826  27.664  11.938
 2481W        W69549  20.593   9.687   1.885
 2482W        W69550  32.489  25.642  12.503
 2483W        W69551  43.440  37.549  11.005
 2484W        W69552   3.389   7.376  12.879
 2485W        W69553  38.444  42.020  12.861
 2486W        W69554  36.466  28.132  13.456
 2487W        W69555  17.666  41.340   1.236
 2488W        W69556  11.283  42.349   2.388
 2489W        W69557  34.075  24.587   1.308
 2490W        W69558  16.569  40.394   3.171
 2491W        W69559  37.046  10.827  13.991
 2492W        W69560  28.624   4.834   4.215
 2493W        W69561   4.317  35.389   3.848
 2494W        W69562   8.290  13.121   4.156
 2495W        W69563  17.264  33.104   0.327
 2496W        W69564  31.429   8.671   4.660
 2497W        W69565   1.811  22.127  14.417
 2498W        W69566  26.975  40.385  11.055
 2499W        W69567  31.514  10.768   3.264
 2500W        W69568  32.894  27.513   4.773
 2501W        W69569  44.814  34.959  13.989
 2502W        W69570  31.581  33.084   4.199
 2503W        W69571   0.887   5.763   4.733
 2504W        W69572   0.863  26.953   2.881
 2505W        W69573   8.833   5.259   4.632
 2506W        W69574  44.439   5.353   1.779
 2507W        W69575  32.968   0.881   2.412
 2508W        W69576   8.858   8.870   0.810
 2509W        W69577  19.147  21.546  12.942
 2510W        W69578   4.814  34.065   1.749
 2511W        W69579  26.085  39.519   4.201
 2512W        W69580  24.596  32.143  14.480
 2513W        W69581  15.280  41.871   1.340
 2514W        W69582  29.953   5.225  11.022
 2515W        W69583  23.627  10.741   1.360
 2516W        W69584   7.399  17.080  14.954
 2517W        W69585  13.115  15.133   4.753
 2518W        W69586  27.628   7.678  14.323
 2519W        W69587  24.519   5.218  13.308
 2520W        W69588   3.953  44.793   2.259
 2521W        W69589  34.398   8.275  14.442
 2522W        W69590  28.487  44.266   4.822
 2523W        W69591  16.183   6.849   9.654
 2524W        W69592   4.217  36.371   2.241
 2525W        W69593  32.926  23.608   2.219
 2526W        W69594  13.218  37.466  10.104
 2527W        W69595  32.546  13.613   3.737
 2528W        W69596  44.333  14.619  12.468
 2529W        W69597  43.949   1.919  12.006
 2530W        W69598  12.336  24.178   1.427
 2531W        W69599  38.969  42.327   3.640
 2532W        W69600  21.707   3.228   3.312
 2533W        W69601  29.063  34.472   3.202
 2534W        W69602  44.787  35.058  10.072
 2535W        W69603  24.216  37.979  14.781
 2536W        W69604  22.591   8.788  12.962
 2537W        W69605  14.597  31.638   3.754
 2538W        W69606  38.535  10.306   1.211
 2539W        W69607   9.680  14.756  14.376
 2540W        W69608  20.192  16.104   1.267
 2541W        W69609   7.310  34.594  12.511
 2542W        W69610   6.758  35.588  12.571
 2543W        W69611  18.130   7.325  11.918
 2544W        W69612  31.923  34.089  12.506
 2545W        W69613   8.845   5.894   3.375
 2546W        W69614   3.885  24.643   0.748
 2547W        W69615  27.186  40.385  12.520
 2548W        W69616  12.354   1.970  12.458
 2549W        W69617  15.150  13.166   0.883
 2550W        W69618  33.890  28.450   2.877
 2551W        W69619  13.603  19.763   1.282
 2552W        W69620   7.872  14.200   2.758
 2553W        W69621  28.176  29.082   2.813
 2554W        W69622   4.767  16.210  14.845
 2555W        W69623  12.668   9.711  14.419
 2556W        W69624  30.983  16.636   1.377
 2557W        W69625  44.971  26.204  11.054
 2558W        W69626  39.861  17.708   4.169
 2559W        W69627  29.043  37.955   3.241
 2560W        W69628  21.048  23.196  11.122
 2561W        W69629  18.187   8.890   2.381
 2562W        W69630  13.782  33.112   1.375
 2563W        W69631  25.088  21.537  14.025
 2564W        W69632  18.154  28.033  14.502
 2565W        W69633  35.966  23.139  10.514
 2566W        W69634   3.316   7.197  12.434
 2567W        W69635  28.508   2.855  11.374
 2568W        W69636  14.169  10.649   3.685
 2569W        W69637  28.551  16.572  11.947
 2570W        W69638  32.941  10.643  11.981
 2571W        W69639  17.580   5.416  14.862
 2572W        W69640  14.625  17.603   2.814
 2573W        W69641  15.740  39.450  12.070
 2574W        W69642  42.360   9.239   4.649
 2575W        W69643   7.313  23.067   4.180
 2576W        W69644  12.153  17.145  11.392
 2577W        W69645  23.733  12.149  11.929
 2578W        W69646   7.770  44.380  14.454
 2579W        W69647  11.727  18.264  10.599
 2580W        W69648  10.278  41.422   2.880
 2581W        W69649  19.103  17.645  12.361
 2582W        W69650  41.804  17.241  14.916
 2583W        W69651  33.551  21.178   3.811
 2584W        W69652  29.075  11.691   0.414
 2585W        W69653   7.402   5.724   1.835
 2586W        W69654  28.605   4.276   2.249
 2587W        W69655  41.501  37.542  14.362
 2588W        W69656  38.403  14.606  14.012
 2589W        W69657   7.375  29.982  13.453
 2590W        W69658  43.770  18.619   4.206
 2591W        W69659  36.941  36.876  13.521
 2592W        W69660  33.046  41.798  14.980
 2593W        W69661  30.444  41.892   4.684
 2594W        W69662  34.922  18.547   3.717
 2595W        W69663  21.121  41.858   3.165
 2596W        W69664  24.481  34.611   1.406
 2597W        W69665   0.822   7.191  14.943
 2598W        W69666  23.666   4.308  12.991
 2599W        W69667  33.081  26.486  12.484
 2600W        W69668  40.831  27.974  13.864
 2601W        W69669  31.586  43.813  12.391
 2602W        W69670  15.670  38.329   0.952
 2603W        W69671  33.495   9.715  13.833
 2604W        W69672  28.471  27.629  13.330
 2605W        W69673  18.199  23.545   3.756
 2606W        W69674  34.080  37.436  12.022
 2607W        W69675  18.263  37.479   4.762
 2608W        W69676  21.142  28.495  12.025
 2609W        W69677  29.490  13.273   9.456
 2610W        W69678  30.142   9.363   2.896
 2611W        W69679  10.343  15.325   0.871
 2612W        W69680  27.112  33.129   0.398
 2613W        W69681   6.721  24.100   2.827
 2614W        W69682  40.398  14.112  11.077
 2615W        W69683  12.709  18.110  14.987
 2616W        W69684  38.991  19.613  12.372
 2617W        W69685  39.844  32.480   4.204
 2618W        W69686  44.264  44.757  14.327
 2619W        W69687   7.187  24.690  11.378
 2620W        W69688   1.769  21.185  11.895
 2621W        W69689  16.677  40.458   0.899
 2622W        W69690  21.087  38.906  10.606
 2623W        W69691  24.627  41.000  14.982
 2624W        W69692  32.449  42.334   3.843
 2625W        W69693  39.450  38.453   2.780
 2626W        W69694   5.237  39.389  10.509
 2627W        W69695   8.281  15.628   0.843
 2628W        W69696   3.294   9.232  11.112
 2629W        W69697  42.388  27.175   0.771
 2630W        W69698   4.907  18.227  12.516
 2631W        W69699  28.118   1.469   3.740
 2632W        W69700  33.885   5.735   2.286
 2633W        W69701  26.534  28.114   5.104
 2634W        W69702   4.834  28.013   1.451
 2635W        W69703  15.101  44.409  14.837
 2636W        W69704   7.240  11.706   0.457
 2637W        W69705  16.197  27.534   9.967
 2638W        W69706   6.246  15.752   3.349
 2639W        W69707  23.132  16.184   3.664
 2640W        W69708  11.712   2.471  14.935
 2641W        W69709  30.112  42.890  14.515
 2642W        W69710  16.573  42.341   2.769
 2643W        W69711   2.845  19.128  12.063
 2644W        W69712  28.506  18.283   3.661
 2645W        W69713  37.531  35.932  13.967
 2646W        W69714  39.441  15.167   2.704
 2647W        W69715  37.076   3.451   0.960
 2648W        W69716  15.735  10.767   5.312
 2649W        W69717  23.606  23.114  12.901
 2650W        W69718  32.987   6.758  14.901
 2651W        W69719  15.586  16.129  13.827
 2652W        W69720  17.764  11.724  11.505
 2653W        W69721  17.177  10.239   3.759
 2654W        W69722  38.003   7.673  10.583
 2655W        W69723  26.026  29.515  14.287
 2656W        W69724  14.110  25.654   5.150
 2657W        W69725  21.166  32.508  12.855
 2658W        W69726  36.989  16.091  11.939
 2659W        W69727   3.924  37.407   3.344
 2660W        W69728  37.582  20.218  13.367
 2661W        W69729  38.549  36.846  11.091
 2662W        W69730   7.815  27.073  12.445
 2663W        W69731  44.865  16.598  13.363
 2664W        W69732  38.895  35.534   2.773
 2665W        W69733  38.876  29.448  14.014
 2666W        W69734  44.354   6.312   2.758
 2667W        W69735  20.206  41.038   5.232
 2668W        W69736  34.105  40.800  12.466
 2669W        W69737  31.091  36.982  13.843
 2670W        W69738  35.920  12.260   0.287
 2671W        W69739  37.909  35.998  11.458
 2672W        W69740  43.323  15.241   4.120
 2673W        W69741  37.022  37.347   0.354
 2674W        W69742   0.409  42.445  11.102
 2675W        W69743   4.897  34.952  12.855
 2676W        W69744  22.620   6.326   1.798
 2677W        W69745  28.492  29.142  14.820
 2678W        W69746  17.223   3.952  11.586
 2679W        W69747  23.507  18.143  12.917
 2680W        W69748  31.451  25.494  11.115
 2681W        W69749  24.592  40.348   3.725
 2682W        W69750  29.063  44.881  13.807
 2683W        W69751  18.239  21.119  14.509
 2684W        W69752  35.028  17.167   1.750
 2685W        W69753  33.406  37.028  10.478
 2686W        W69754   7.726  27.139   1.786
 2687W        W69755  20.654  24.558  14.383
 2688W        W69756  29.641  10.333   4.796
 2689W        W69757   7.752  13.739  13.468
 2690W        W69758  41.352  10.353  14.389
 2691W        W69759  14.671  38.008  12.943
 2692W        W69760   4.416  20.610   2.245
 2693W        W69761  34.533  20.651  12.919
 2694W        W69762   1.854  36.471   0.883
 2695W        W69763  10.744  13.150   4.234
 2696W        W69764   4.860  39.819   2.246
 2697W        W69765  29.128  18.125  11.999
 2698W        W69766  16.083  41.885   0.831
 2699W        W69767  35.529  29.121  10.959
 2700W        W69768   4.226  15.660  10.608
 2701W        W69769   3.388  24.518   0.807
 2702W        W69770  10.334  29.656  10.628
 2703W        W69771  14.608  13.834   4.291
 2704W        W69772  32.401  40.919   2.774
 2705W        W69773  17.124  14.179  10.147
 2706W        W69774  15.756  40.400   2.274
 2707W        W69775  38.825   6.316  13.397
 2708W        W69776   8.764  10.152   1.919
 2709W        W69777   1.894  32.602  10.607
 2710W        W69778  33.549   5.716   1.830
 2711W        W69779  42.816  39.434  10.890
 2712W        W69780  34.494   8.391  10.625
 2713W        W69781   6.263  22.604   2.836
 2714W        W69782  17.105  40.968   1.901
 2715W        W69783  22.046   7.392   3.224
 2716W        W69784  30.614   7.326   1.860
 2717W        W69785  28.605  38.498   4.134
 2718W        W69786  23.723   5.368  12.015
 2719W        W69787  11.204  22.065  12.471
 2720W        W69788   4.365   2.449   1.246
 2721W        W69789  30.596  23.142  13.340
 2722W        W69790  35.461  19.737   1.885
 2723W        W69791  29.668   1.796  10.152
 2724W        W69792  27.597   9.885  12.455
 2725W        W69793  28.641  25.477   1.759
 2726W        W69794  37.969  14.259   0.246
 2727W        W69795  17.253  40.435  13.048
 2728W        W69796   7.293  11.137   4.726
 2729W        W69797  36.078  27.466   0.741
 2730W        W69798  44.882  10.810  13.853
 2731W        W69799   4.347  17.064  14.364
 2732W        W69800   0.322   3.825  12.835
 2733W        W69801  39.507  34.414   1.790
 2734W        W69802  27.986  18.654  14.853
 2735W        W69803   9.254  16.645   2.815
 2736W        W69804  19.112  19.064   2.711
 2737W        W69805   6.298  40.545  12.838
 2738W        W69806  39.552  22.230   4.655
 2739W        W69807  32.418   2.371  12.056
 2740W        W69808  16.585  36.414  14.318
 2741W        W69809  28.979   1.767  13.538
 2742W        W69810  24.577  11.230  10.466
 2743W        W69811  20.531  35.487   1.884
 2744W        W69812  40.918   7.767  11.485
 2745W        W69813  16.265  44.460  10.126
 2746W        W69814  10.346  13.804   0.313
 2747W        W69815  20.674  37.346  13.441
 2748W        W69816  41.410   2.387   0.867
 2749W        W69817  10.332  39.361   1.266
 2750W        W69818  24.635   1.313   3.673
 2751W        W69819   5.714   7.208  10.952
 2752W        W69820  29.641   4.768  11.123
 2753W        W69821   0.324   0.812  14.370
 2754W        W69822  41.821  40.007  14.877
 2755W        W69823  30.997   7.321   0.742
 2756W        W69824   3.306  41.005  11.912
 2757W        W69825   3.253  27.019   5.241
 2758W        W69826   5.438  32.560  14.758
 2759W        W69827   1.385  34.114  13.871
 2760W        W69828  26.615  25.104   4.717
 2761W        W69829  33.578   9.374  12.860
 2762W        W69830  44.345  10.244   2.708
 2763W        W69831   4.228  44.892  11.450
 2764W        W69832  26.987  30.474   2.324
 2765W        W69833  27.042  11.240  14.284
 2766W        W69834  43.954  40.865  14.836
 2767W        W69835  40.470  10.656  12.059
 2768W        W69836  41.007  40.478  11.128
 2769W        W69837  18.769  13.695   3.737
 2770W        W69838  23.526  26.647   2.883
 2771W        W69839  27.467   5.382   1.729
 2772W        W69840   8.376  40.017   2.824
 2773W        W69841   0.776  11.347   4.268
 2774W        W69842  12.162  41.868   2.819
 2775W        W69843  38.060  44.909  11.540
 2776W        W69844  23.180  19.620   0.890
 2777W        W69845   1.924  13.286   2.823
 2778W        W69846  15.254   1.753  12.066
 2779W        W69847  11.143  32.032  10.478
 2780W        W69848  18.756  18.561   0.409
 2781W        W69849  28.106  14.284  14.845
 2782W        W69850  14.618  16.754  14.325
 2783W        W69851   1.269  40.547   1.779
 2784W        W69852  23.074  25.677   2.821
 2785W        W69853  21.110  21.671  10.530
 2786W        W69854  16.143  19.756  12.420
 2787W        W69855  37.847  24.028  13.351
 2788W        W69856  39.010  41.500  12.538
 2789W        W69857  13.139  40.338   4.614
 2790W        W69858  10.214  16.731   2.689
 2791W        W69859  12.742   2.762   3.229
 2792W        W69860  41.419   7.301   3.288
 2793W        W69861  39.817   8.769   0.821
 2794W        W69862  21.692  25.517   4.236
 2795W        W69863  25.043  34.388  10.927
 2796W        W69864  41.951  43.333  11.863
 2797W        W69865  14.800   2.857   1.726
 2798W        W69866  26.693  22.502   1.877
 2799W        W69867  44.965  17.229   9.939
 2800W        W69868  29.559  38.494   0.864
 2801W        W69869  38.908   1.745   3.823
 2802W        W69870  43.313   6.295  11.495
 2803W        W69871  37.404  13.317  12.523
 2804W        W69872   0.766   7.237  13.507
 2805W        W69873  34.100  16.075  11.945
 2806W        W69874  19.718  17.196  12.894
 2807W        W69875   0.422  25.100  14.901
 2808W        W69876   2.850   5.808   3.781
 2809W        W69877   6.825  44.840  13.914
 2810W        W69878  18.123  37.000  12.021
 2811W        W69879  29.058  23.174  14.306
 2812W        W69880   3.752  42.946   4.780
 2813W        W69881  25.143  18.254   2.358
 2814W        W69882  27.449  31.563   0.392
 2815W        W69883   6.724  20.585   1.754
 2816W        W69884  42.288  32.989   2.249
 2817W        W69885  32.599   4.204  14.303
 2818W        W69886  36.933  13.305   1.423
 2819W        W69887   1.449  18.159  10.583
 2820W        W69888  18.103  11.201  10.517
 2821W        W69889  23.652  11.626  11.505
 2822W        W69890  14.120  23.172   0.809
 2823W        W69891  34.442  26.953  14.785
 2824W        W69892   6.842   3.365   3.294
 2825W        W69893  35.983  26.624   0.446
 2826W        W69894  20.098   5.199   1.737
 2827W        W69895  15.618  20.625  12.575
 2828W        W69896  10.199  38.391   2.359
 2829W        W69897  11.662   9.282   3.777
 2830W        W69898   3.761  16.146  14.016
 2831W        W69899  36.508   3.215  14.831
 2832W        W69900  16.251  26.130  13.404
 2833W        W69901  32.938  31.489   4.757
 2834W        W69902  22.227  41.838  11.399
 2835W        W69903  36.568  37.904  10.539
 2836W        W69904  11.628  10.701   2.825
 2837W        W69905  32.559  18.704   3.702
 2838W        W69906  33.560  11.325   3.734
 2839W        W69907  36.384  17.108  10.413
 2840W        W69908   3.855   0.778   0.778
 2841W        W69909  29.666  21.081   2.216
 2842W        W69910   7.689  35.863   0.903
 2843W        W69911  15.269   3.744   3.296
 2844W        W69912  27.195  18.265  13.943
 2845W        W69913  19.265   2.954   0.439
 2846W        W69914  25.697   3.869   0.450
 2847W        W69915   8.393  38.531  10.443
 2848W        W69916  16.726  33.047   0.909
 2849W        W69917  20.626  42.352   3.634
 2850W        W69918  33.513  35.556   4.336
 2851W        W69919  40.394  11.793   3.771
 2852W        W69920  30.955  40.903  11.999
 2853W        W69921  19.765   1.746  10.597
 2854W        W69922  39.482   6.817  11.977
 2855W        W69923   2.346  23.157   1.249
 2856W        W69924  11.839   2.769   3.740
 2857W        W69925  30.086  30.112   3.359
 2858W        W69926  32.616  35.946  10.586
 2859W        W69927  23.205  25.129  10.615
 2860W        W69928  44.491  34.863   3.671
 2861W        W69929  32.539  23.169   2.188
 2862W        W69930  27.478  13.257  14.347
 2863W        W69931  22.562  15.724  14.384
 2864W        W69932  38.445  36.020  10.433
 2865W        W69933  40.927  16.732  12.438
 2866W        W69934  29.558  37.428   1.385
 2867W        W69935  18.225   2.356   4.183
 2868W        W69936  30.161  23.198  12.464
 2869W        W69937   9.375   9.827   1.871
 2870W        W69938  13.766   2.349  14.356
 2871W        W69939   7.871  34.009  13.905
 2872W        W69940   8.194  17.304   1.725
 2873W        W69941  30.605  13.718   4.167
 2874W        W69942  17.115   9.165  13.445
 2875W        W69943   0.361  30.573  14.772
 2876W        W69944   9.172  16.146   2.311
 2877W        W69945  17.159  37.993  14.892
 2878W        W69946  25.525  38.938  11.466
 2879W        W69947  25.024   4.410   2.683
 2880W        W69948  28.025  15.691  11.607
 2881W        W69949  13.711  25.539   4.778
 2882W        W69950  30.157  43.311  14.390
 2883W        W69951  15.318  16.105   1.344
 2884W        W69952   2.756  42.837  11.439
 2885W        W69953  13.724  21.691   0.289
 2886W        W69954   8.286  42.966  14.433
 2887W        W69955  24.099  23.208   2.848
 2888W        W69956  36.940  22.190  11.904
 2889W        W69957  29.499  15.753   4.290
 2890W        W69958  26.015  27.677  11.571
 2891W        W69959  27.048   0.420  10.616
 2892W        W69960  32.541   5.887   4.139
 2893W        W69961  38.373   6.776  12.355
 2894W        W69962  28.560  35.377  12.868
 2895W        W69963   1.464   4.837  12.014
 2896W        W69964  15.613  43.764  11.380
 2897W        W69965  12.746  27.574  14.933
 2898W        W69966  20.674  33.959   2.787
 2899W        W69967   8.368  16.768  12.836
 2900W        W69968  38.392  11.795  14.878
 2901W        W69969   6.330  14.601  11.374
 2902W        W69970  20.678  41.466   1.367
 2903W        W69971  41.859  34.018  12.841
 2904W        W69972  28.958  29.070   3.285
 2905W        W69973  37.563  26.485  11.973
 2906W        W69974   8.711  42.518   0.426
 2907W        W69975  42.326  16.587   1.741
 2908W        W69976  35.364  26.599   3.792
 2909W        W69977  13.274  28.961  10.088
 2910W        W69978  21.555  23.066  13.326
 2911W        W69979  37.896  23.536  14.857
 2912W        W69980  10.217   4.717  11.417
 2913W        W69981  31.912  19.780  10.490
 2914W        W69982  25.216  40.993   0.431
 2915W        W69983  36.913  25.106   4.692
 2916W        W69984  28.533  23.133  12.899
 2917W        W69985  23.235  43.782  10.425
 2918W        W69986   9.167  25.181   2.195
 2919W        W69987  27.061  41.360  11.083
 2920W        W69988  35.571  31.995   1.726
 2921W        W69989  12.347  19.634  12.377
 2922W        W69990  40.499   8.687   4.624
 2923W        W69991   9.834   5.373  11.435
 2924W        W69992   3.431  26.104   3.216
 2925W        W69993  30.585  26.495   3.282
 2926W        W69994  19.119  10.828  14.794
 2927W        W69995  24.646  27.971   0.750
 2928W        W69996  42.284  24.063  14.841
 2929W        W69997  15.743  25.550   3.175
 2930W        W69998  31.031  44.276   4.640
 2931W        W69999  16.210   9.383   2.704
 2932W        W70000   5.703  27.082  13.820
 2933W        W70001   7.811  27.017  11.049
 2934W        W70002  18.136  26.493  14.793
 2935W        W70003  32.133  40.050   2.292
 2936W        W70004  10.339   8.209   3.725
 2937W        W70005  24.532  31.419  14.290
 2938W        W70006   6.746  40.045   1.896
 2939W        W70007   8.362  11.261   2.759
 2940W        W70008  29.429  26.146  10.966
 2941W        W70009  29.017  42.331   1.396
 2942W        W70010  23.127  37.838   1.820
 2943W        W70011  24.217  15.727  14.832
 2944W        W70012   9.295  43.504  10.425
 2945W        W70013  16.271  30.024   0.265
 2946W        W70014   0.460   3.762   2.234
 2947W        W70015  22.169   8.186   3.832
 2948W        W70016  17.203  43.285  14.929
 2949W        W70017   4.355  10.256   1.747
 2950W        W70018   0.780  37.379   1.265
 2951W        W70019  28.987   1.752   2.372
 2952W        W70020  10.788  10.689   4.305
 2953W        W70021  41.314  13.607  14.978
 2954W        W70022  14.229   8.392   9.465
 2955W        W70023  17.096  42.425  13.998
 2956W        W70024  33.513  37.530   5.142
 2957W        W70025  22.090  29.647   3.277
 2958W        W70026   0.397  14.751  12.532
 2959W        W70027   5.205  13.209   2.687
 2960W        W70028  29.927  43.424  12.029
 2961W        W70029  21.134  41.533   4.324
 2962W        W70030  18.682  32.096   1.341
 2963W        W70031  27.061  26.158  13.965
 2964W        W70032  41.862  23.099  13.328
 2965W        W70033  23.536  41.856  10.959
 2966W        W70034  23.494  32.924  10.598
 2967W        W70035  37.445  26.702   1.260
 2968W        W70036  30.009  17.783  10.544
 2969W        W70037  30.622  17.758  13.045
 2970W        W70038  24.170  23.099  14.028
 2971W        W70039   3.948   2.748  11.081
 2972W        W70040  34.420  15.745  12.345
 2973W        W70041  44.329  34.411  10.070
 2974W        W70042  36.398  26.489  13.401
 2975W        W70043  40.841   8.742  14.857
 2976W        W70044  33.540  13.791  12.089
 2977W        W70045   0.946  18.544  11.600
 2978W        W70046  38.987  18.749   4.182
 2979W        W70047  20.185   0.332   1.276
 2980W        W70048  39.438  18.116  10.432
 2981W        W70049   1.299  22.730  11.880
 2982W        W70050  26.982  36.370   3.756
 2983W        W70051  36.510   2.832   1.409
 2984W        W70052   7.844   1.927  12.511
 2985W        W70053   4.381   9.317  10.902
 2986W        W70054  41.492   4.244   1.378
 2987W        W70055  18.613  19.716  12.947
 2988W        W70056  34.913  42.298   1.335
 2989W        W70057  25.638  20.169   3.203
 2990W        W70058  26.582  33.102   5.181
 2991W        W70059  37.389  40.989   3.665
 2992W        W70060  30.043  22.542  11.501
 2993W        W70061  28.001  32.562  10.478
 2994W        W70062  29.964  36.382  11.968
 2995W        W70063  29.062  31.520   0.280
 2996W        W70064  17.138  41.414  13.522
 2997W        W70065  16.193  21.138  14.306
 2998W        W70066  15.623  36.858   2.212
 2999W        W70067  28.978  29.563   0.776
 3000W        W70068  36.011  13.649   4.231
 3001W        W70069   2.953   4.260   3.371
 3002W        W70070  16.160   5.712   1.386
 3003W        W70071  42.811  18.228  14.821
 3004W        W70072  31.108  40.333  10.519
 3005W        W70073  20.698   2.855   4.118
 3006W        W70074  14.760   4.713   3.378
 3007W        W70075   4.430  12.834  10.931
 3008W        W70076  22.076  42.332   2.225
 3009W        W70077  35.089   8.222   1.409
 3010W        W70078   1.425  42.521   1.704
 3011W        W70079  30.955   9.167   3.743
 3012W        W70080  44.912  39.422   0.266
 3013W        W70081   0.961  44.375  14.426
 3014W        W70082  14.306  19.697  14.875
 3015W        W70083  35.430  25.505   3.740
 3016W        W70084  24.484  19.203  12.374
 3017W        W70085   4.721  21.082  10.916
 3018W        W70086   5.340   9.318   1.405
 3019W        W70087  27.612   7.293   2.382
 3020W        W70088  12.116  39.367  12.356
 3021W        W70089   2.965  42.496   3.719
 3022W        W70090  21.660   5.290  13.311
 3023W        W70091   7.240  36.970  12.490
 3024W        W70092  42.893  37.409   0.452
 3025W        W70093  30.504  18.292  12.061
 3026W        W70094  29.466  26.647   4.135
 3027W        W70095  34.066  28.626  10.912
 3028W        W70096  30.594  29.957  13.523
 3029W        W70097  17.742  31.994   0.907
 3030W        W70098  34.023  13.229   4.692
 3031W        W70099  42.023  43.328  10.433
 3032W        W70100  43.984  26.104   4.267
 3033W        W70101   5.376  32.067   1.342
 3034W        W70102  37.845  13.711  11.103
 3035W        W70103  35.026  29.154  13.321
 3036W        W70104  18.137  12.340   4.634
 3037W        W70105  18.728  21.246  13.790
 3038W        W70106  43.849  33.409  12.013
 3039W        W70107  17.720  13.157   0.795
 3040W        W70108  27.991  43.437   2.703
 3041W        W70109  19.587  33.051   0.481
 3042W        W70110   1.764  19.061   1.711
 3043W        W70111  16.236  26.698  14.373
 3044W        W70112  38.434   6.739   3.675
 3045W        W70113   0.948   6.210  12.373
 3046W        W70114   6.379  38.893   0.243
 3047W        W70115   3.290   1.970  12.483
 3048W        W70116  11.864   2.897   0.872
 3049W        W70117  16.193  10.343  11.881
 3050W        W70118  13.759  15.824   2.330
 3051W        W70119   1.778  41.015   4.330
 3052W        W70120  38.044  29.511  13.037
 3053W        W70121  16.660  43.390  14.347
 3054W        W70122  37.573  15.199  12.904
 3055W        W70123  21.189  30.453   4.775
 3056W        W70124  43.301   0.337   1.808
 3057W        W70125   4.925  38.359   0.430
 3058W        W70126  39.500  29.084   0.888
 3059W        W70127  14.174   7.756  10.628
 3060W        W70128  39.362  13.749  10.966
 3061W        W70129  41.866  15.591  14.956
 3062W        W70130   3.348  15.294  11.881
 3063W        W70131  42.339  40.420   4.799
 3064W        W70132  42.913  34.482  12.072
 3065W        W70133  16.704  12.137  11.055
 3066W        W70134   4.742  19.246   3.738
 3067W        W70135  27.074  32.974   4.614
 3068W        W70136  37.033   2.357   0.264
 3069W        W70137  31.079  12.741  10.963
 3070W        W70138  36.001  19.195  10.977
 3071W        W70139  18.152  34.603  10.988
 3072W        W70140  19.598  37.573  14.020
 3073W        W70141  29.104  28.571   2.761
 3074W        W70142  34.934   6.223  14.995
 3075W        W70143  35.408   5.735  12.074
 3076W        W70144  11.714  22.542   0.280
 3077W        W70145  23.710  16.123   2.198
 3078W        W70146  42.486  37.564   1.898
 3079W        W70147  13.738  42.433  11.445
 3080W        W70148   1.882   3.716  11.487
 3081W        W70149   2.835   5.693   2.235
 3082W        W70150  10.319  10.284  12.073
 3083W        W70151  22.220  12.117  11.900
 3084W        W70152  19.759  10.263   0.472
 3085W        W70153  43.764   7.908  10.889
 3086W        W70154  15.208  16.749   3.818
 3087W        W70155  23.588  36.545  12.096
 3088W        W70156  25.469  27.612   2.834
 3089W        W70157  42.800   1.328   1.735
 3090W        W70158  35.544  38.820   4.116
 3091W        W70159  35.858   4.877  13.448
 3092W        W70160  32.006   9.717  12.988
 3093W        W70161  16.247  31.938   4.241
 3094W        W70162  34.896  44.259  12.912
 3095W        W70163  19.708  39.909  11.000
 3096W        W70164  35.524   6.202  11.985
 3097W        W70165  39.517   4.424   0.379
 3098W        W70166  35.061  22.569   2.229
 3099W        W70167   5.275   0.929  10.959
 3100W        W70168  42.521  32.995   0.335
 3101W        W70169  37.870  33.077   2.252
 3102W        W70170  33.493  27.090   4.803
 3103W        W70171  12.226  10.182   2.773
 3104W        W70172  40.427  11.847   2.182
 3105W        W70173  44.766  17.087  10.426
 3106W        W70174  27.980  40.888  13.869
 3107W        W70175  44.805  11.774   1.274
 3108W        W70176   0.745  23.658  13.823
 3109W        W70177   9.771  40.545   3.231
 3110W        W70178  23.210  44.800  13.418
 3111W        W70179  43.282  20.145   2.285
 3112W        W70180  17.638   4.741   4.619
 3113W        W70181  16.291  10.849  10.444
 3114W        W70182  18.129  12.231   0.866
 3115W        W70183  16.623  22.663   5.207
 3116W        W70184  37.420  27.984   4.814
 3117W        W70185   7.773  28.939   1.779
 3118W        W70186  44.843   0.747   1.729
 3119W        W70187  32.014  14.752  14.499
 3120W        W70188  43.931  29.143  10.549
 3121W        W70189  36.457  39.461  13.816
 3122W        W70190  38.462  10.794  13.458
 3123W        W70191   9.197  14.135   4.655
 3124W        W70192   9.738  25.168  12.561
 3125W        W70193  31.528  27.035  11.606
 3126W        W70194   6.724  42.382   2.292
 3127W        W70195  30.518  35.481  12.012
 3128W        W70196   3.243  43.899  13.790
 3129W        W70197   0.405   4.386   3.740
 3130W        W70198  16.283  17.772  11.103
 3131W        W70199  17.594  38.447   1.865
 3132W        W70200  36.849  43.017  14.295
 3133W        W70201   6.355  41.807   1.254
 3134W        W70202  32.580  36.416  11.086
 3135W        W70203  23.182  44.348  11.971
 3136W        W70204  18.147  17.650   3.795
 3137W        W70205   6.724  22.618   3.768
 3138W        W70206  16.082  33.451  13.011
 3139W        W70207  43.485   4.810   3.744
 3140W        W70208   6.885   4.790   2.877
 3141W        W70209  19.662  39.536   2.887
 3142W        W70210  14.625  22.603   3.161
 3143W        W70211  27.129  26.626   4.729
 3144W        W70212  13.261  29.159  12.916
 3145W        W70213  21.236  34.998  14.387
 3146W        W70214  23.992   9.370   1.705
 3147W        W70215  29.940  17.675   1.421
 3148W        W70216  24.030  26.517   4.669
 3149W        W70217  22.617  43.438  12.520
 3150W        W70218   4.244  32.627  14.826
 3151W        W70219  12.250  36.515   0.779
 3152W        W70220  42.436  42.369   3.708
 3153W        W70221  29.068  12.318  11.122
 3154W        W70222  22.106  37.507  12.367
 3155W        W70223  16.271  37.922  10.403
 3156W        W70224   3.315   0.464   1.745
 3157W        W70225  19.698  14.318   3.706
 3158W        W70226  25.028  16.744  11.531
 3159W        W70227  27.474  23.619  11.080
 3160W        W70228  38.965  35.567   1.711
 3161W        W70229   0.943  22.027  12.833
 3162W        W70230  15.083  19.673  11.390
 3163W        W70231   7.875  39.380  11.014
 3164W        W70232  42.855  17.130  11.128
 3165W        W70233  20.587  19.718  11.957
 3166W        W70234   0.395   6.406  10.630
 3167W        W70235   1.413  43.908   2.304
 3168W        W70236  22.061  21.221   0.269
 3169W        W70237  28.132  28.088  11.436
 3170W        W70238  34.945  37.959  12.430
 3171W        W70239   3.315  23.681   4.739
 3172W        W70240  19.539   5.399  11.053
 3173W        W70241   4.273  15.232  10.619
 3174W        W70242  28.181  35.429  10.913
 3175W        W70243   4.796  10.709   3.715
 3176W        W70244  26.658  11.163  12.426
 3177W        W70245  11.810  27.455   2.836
 3178W        W70246  10.797  43.308  12.828
 3179W        W70247  35.358  12.227  10.608
 3180W        W70248  24.044  39.444  11.415
 3181W        W70249  25.646  31.501   0.432
 3182W        W70250  37.038   6.185   1.400
 3183W        W70251  41.469  42.292   4.689
 3184W        W70252  17.728   6.835  12.943
 3185W        W70253  25.188   3.846   2.864
 3186W        W70254  39.921  30.418  12.922
 3187W        W70255   9.731  13.128   4.203
 3188W        W70256  43.979   4.742   0.465
 3189W        W70257  41.303  13.172   4.687
 3190W        W70258  13.296  32.995   3.246
 3191W        W70259  17.674  35.970  10.566
 3192W        W70260  17.068  28.551  13.864
 3193W        W70261  30.556  19.670   2.811
 3194W        W70262   5.414  24.131   1.835
 3195W        W70263  11.770  42.925   0.917
 3196W        W70264  29.979  44.427  10.903
 3197W        W70265  27.023  39.997   3.356
 3198W        W70266  17.588  13.766  13.474
 3199W        W70267  34.595  24.678   2.730
 3200W        W70268  38.062   6.707   1.889
 3201W        W70269  41.982  44.767  10.541
 3202W        W70270  21.184   5.293   4.789
 3203W        W70271  32.560  28.933   2.269
 3204W        W70272  26.125  34.873   3.264
 3205W        W70273  32.989  30.568   1.803
 3206W        W70274  34.538  36.964   2.735
 3207W        W70275   5.380  16.592  13.520
 3208W        W70276  40.484  36.991  14.911
 3209W        W70277  23.071  40.851  14.454
 3210W        W70278   0.985  28.518   3.307
 3211W        W70279  15.789   3.329  13.385
 3212W        W70280   3.716  21.158  14.289
 3213W        W70281   9.178   1.385  13.877
 3214W        W70282  20.098  12.256  13.048
 3215W        W70283  10.162  44.493   3.171
 3216W        W70284  39.024   7.229  13.853
 3217W        W70285  19.100   7.317   3.148
 3218W        W70286  14.630   5.354   2.849
 3219W        W70287  22.066  44.389   1.701
 3220W        W70288   6.758  14.753   4.221
 3221W        W70289  35.603   0.249   0.967
 3222W        W70290  39.961  15.304  11.416
 3223W        W70291  20.263  39.420   3.681
 3224W        W70292   8.702  31.940  14.453
 3225W        W70293  41.852  37.985   2.723
 3226W        W70294  41.406  27.491  13.348
 3227W        W70295  27.590  35.541  12.573
 3228W        W70296  39.342  12.328   1.315
 3229W        W70297   9.343   9.307   1.920
 3230W        W70298  17.713   7.251   1.359
 3231W        W70299  39.981  16.248  14.994
 3232W        W70300  24.098  22.245   3.204
 3233W        W70301   7.806  23.999  14.893
 3234W        W70302  30.115  14.167  14.784
 3235W        W70303   8.810  12.798   2.191
 3236W        W70304  40.008  11.642  10.636
 3237W        W70305  23.138  37.006  12.843
 3238W        W70306  18.595  43.898   2.703
 3239W        W70307  39.813   8.725   4.703
 3240W        W70308  12.839  20.032   0.907
 3241W        W70309  12.622  28.531   2.700
 3242W        W70310  29.124  21.020  11.990
 3243W        W70311   3.390  20.670   4.742
 3244W        W70312   4.329  29.639   4.755
 3245W        W70313  21.541  32.520   2.798
 3246W        W70314  16.093  29.641  14.276
 3247W        W70315  30.459  22.158  10.507
 3248W        W70316  35.930  34.973   0.270
 3249W        W70317  41.942  24.029  11.538
 3250W        W70318   2.387  23.087   1.776
 3251W        W70319  20.622  39.481  11.890
 3252W        W70320  23.493   0.286  11.965
 3253W        W70321  24.064   5.350  10.453
 3254W        W70322  42.457   0.443   3.172
 3255W        W70323  30.451  15.294   4.649
 3256W        W70324  34.932  25.710   2.231
 3257W        W70325  24.596   3.399  14.504
 3258W        W70326  25.562  15.205   1.767
 3259W        W70327  41.317  14.736   3.242
 3260W        W70328  13.707   6.896  14.892
 3261W        W70329  31.582  20.241   1.404
 3262W        W70330  28.672  41.873   3.655
 3263W        W70331  16.197  39.317  13.461
 3264W        W70332  19.155   4.842  14.276
 3265W        W70333  18.266   9.846   3.281
 3266W        W70334   6.784   1.951  12.991
 3267W        W70335  22.032   5.695  12.541
 3268W        W70336   2.261   3.294   2.196
 3269W        W70337  14.735  23.016   1.741
 3270W        W70338  37.569  31.924   3.641
 3271W        W70339  29.497  17.145   3.217
 3272W        W70340  37.999  43.893   3.711
 3273W        W70341  14.631  38.398  14.940
 3274W        W70342   5.731  43.011   2.678
 3275W        W70343  34.009  28.667  11.887
 3276W        W70344  37.463  37.421  11.923
 3277W        W70345  28.624   4.277  10.621
 3278W        W70346  34.975  22.661  10.900
 3279W        W70347  29.118  37.949  12.034
 3280W        W70348  22.710   9.715   4.810
 3281W        W70349  37.523  31.465   0.474
 3282W        W70350   1.909  39.335   3.769
 3283W        W70351  36.453   1.813   2.277
 3284W        W70352  14.760  41.363   0.336
 3285W        W70353  39.848  41.877  14.008
 3286W        W70354  41.326  20.705  13.886
 3287W        W70355  18.770  27.065  10.011
 3288W        W70356  16.213  25.713   1.264
 3289W        W70357  25.511  42.431   0.396
 3290W        W70358  21.127  42.381  10.515
 3291W        W70359  39.551  42.403   1.902
 3292W        W70360  37.565  37.507   0.779
 3293W        W70361  18.660  16.207  10.459
 3294W        W70362  37.572  40.353  14.368
 3295W        W70363  34.420  34.986   3.835
 3296W        W70364  30.023   0.954  11.590
 3297W        W70365  14.111  18.124   0.738
 3298W        W70366  41.386  25.132   4.153
 3299W        W70367  18.052  11.766   4.706
 3300W        W70368  12.722  41.298   3.272
 3301W        W70369  33.501   9.648   2.327
 3302W        W70370   4.816  40.808  10.147
 3303W        W70371  38.003  41.818  11.007
 3304W        W70372  28.938   7.211  12.467
 3305W        W70373  27.506   3.869   1.321
 3306W        W70374  25.030  15.782   1.879
 3307W        W70375   1.916  31.617   3.337
 3308W        W70376   8.173  34.104   1.860
 3309W        W70377  40.515  25.019  13.834
 3310W        W70378  28.451  12.821   1.745
 3311W        W70379   2.454   2.777   1.392
 3312W        W70380  15.140  41.967  10.451
 3313W        W70381  43.851   1.779   3.302
 3314W        W70382  20.136  17.708   2.858
 3315W        W70383  17.648   0.763  12.353
 3316W        W70384  38.845  24.528  14.506
 3317W        W70385   0.299  26.998   4.609
 3318W        W70386  29.082  39.540   0.342
 3319W        W70387   9.868   2.879   4.604
 3320W        W70388   2.922  14.297   2.757
 3321W        W70389  22.582  39.045  10.550
 3322W        W70390  38.027  35.458   3.148
 3323W        W70391   4.871  18.134   0.289
 3324W        W70392  35.081   8.391  13.989
 3325W        W70393   7.243   1.822   2.682
 3326W        W70394  30.950   1.303   4.797
 3327W        W70395  10.653  32.491   1.448
 3328W        W70396  36.921  20.749   2.242
 3329W        W70397  41.838  10.225  11.606
 3330W        W70398  16.289  10.757   2.743
 3331W        W70399   6.193  42.291   1.327
 3332W        W70400  41.523  19.729   2.739
 3333W        W70401  18.124   9.285   2.233
 3334W        W70402  15.285  13.791  11.078
 3335W        W70403  43.320  35.033  10.531
 3336W        W70404   5.855  12.325  14.980
 3337W        W70405  20.580  29.668  14.007
 3338W        W70406  18.183  26.179   2.897
 3339W        W70407  30.041  12.708   5.236
 3340W        W70408  20.087   6.789   1.272
 3341W        W70409  25.691   6.882   3.771
 3342W        W70410  11.752  10.848  13.352
 3343W        W70411  24.153  36.941  11.879
 3344W        W70412  36.523  35.937  13.996
 3345W        W70413  20.162  14.171  13.996
 3346W        W70414  38.992   8.725  14.360
 3347W        W70415  43.490  42.007  12.044
 3348W        W70416  37.952  41.337   4.334
 3349W        W70417  42.920  31.117   1.930
 3350W        W70418  26.518   3.733  10.419
 3351W        W70419  21.037  29.017  11.508
 3352W        W70420  12.686  28.165   1.769
 3353W        W70421   5.750  28.179  10.469
 3354W        W70422  17.286   7.869  13.387
 3355W        W70423  31.540  28.110   2.405
 3356W        W70424  28.134  16.318   2.781
 3357W        W70425   4.815  16.129  13.515
 3358W        W70426  11.647  15.154   4.812
 3359W        W70427  29.578  44.858  14.952
 3360W        W70428  32.455  29.110   1.318
 3361W        W70429  24.555  27.466   2.254
 3362W        W70430  33.972   2.764  12.996
 3363W        W70431  24.644  44.385   2.319
 3364W        W70432  29.122  15.253   1.716
 3365W        W70433  33.494  42.391  13.436
 3366W        W70434  19.722  11.685  11.101
 3367W        W70435   0.906  37.529  12.886
 3368W        W70436  22.543  36.937  14.459
 3369W        W70437  34.938   5.427   1.734
 3370W        W70438  32.080  25.963  12.095
 3371W        W70439   8.333   3.726  11.083
 3372W        W70440  34.978   7.281  13.900
 3373W        W70441  44.911  14.324  11.104
 3374W        W70442  35.464  19.589  12.882
 3375W        W70443  28.525  24.038  14.511
 3376W        W70444   5.245  17.239   1.298
 3377W        W70445   3.886  32.490   0.255
 3378W        W70446   2.950  23.691  14.449
 3379W        W70447  33.084  20.633   1.763
 3380W        W70448   6.320  21.717  10.462
 3381W        W70449   8.717  44.353   1.888
 3382W        W70450  15.675  10.187   4.717
 3383W        W70451  24.548  26.061   4.739
 3384W        W70452  36.998   6.247  13.372
 3385W        W70453   3.253  11.210   4.297
 3386W        W70454   0.250  31.896  14.325
 3387W        W70455  44.498  38.060   2.795
 3388W        W70456  18.690   6.349   1.808
 3389W        W70457  22.593  25.041   0.479
 3390W        W70458  20.667  21.575   2.215
 3391W        W70459  12.838  36.036   2.898
 3392W        W70460  21.071  11.190  14.384
 3393W        W70461  37.912  44.005  14.295
 3394W        W70462  26.575  36.461  14.322
 3395W        W70463   4.208  25.145  10.453
 3396W        W70464  37.491  25.555   0.855
 3397W        W70465  40.922  32.085   2.258
 3398W        W70466  32.558  11.712   2.412
 3399W        W70467  24.138   9.728  10.950
 3400W        W70468  23.086  38.441   4.791
 3401W        W70469  31.473  28.548  14.929
 3402W        W70470  31.502   9.302  13.796
 3403W        W70471  24.491  13.689   0.442
 3404W        W70472  31.940  36.846   4.142
 3405W        W70473  43.927  36.029  11.485
 3406W        W70474   1.891  16.575  14.324
 3407W        W70475   8.202  25.631  13.363
 3408W        W70476  42.388   9.346  10.471
 3409W        W70477   8.799  28.035  12.927
 3410W        W70478  16.179  10.247   1.310
 3411W        W70479  23.603  42.802  11.474
 3412W        W70480   2.311   7.222   0.345
 3413W        W70481  18.090   2.898   3.311
 3414W        W70482  23.194  25.104   1.917
 3415W        W70483  17.143   1.468   1.228
 3416W        W70484   7.803  34.565   3.288
 3417W        W70485  30.988  35.467  13.445
 3418W        W70486  12.356   0.980  11.944
 3419W        W70487   0.281   2.286  13.877
 3420W        W70488  17.580  38.382   1.400
 3421W        W70489   3.379  35.567  14.864
 3422W        W70490  20.694   5.806   3.355
 3423W        W70491  43.352  34.045   1.405
 3424W        W70492  10.686  18.256  11.583
 3425W        W70493  28.136  21.708  11.898
 3426W        W70494   0.849  37.908   3.753
 3427W        W70495  24.719  40.013  11.443
 3428W        W70496   7.340  19.094  14.363
 3429W        W70497   3.921  37.018   0.448
 3430W        W70498  31.104  39.391  12.530
 3431W        W70499   6.764  23.683   3.792
 3432W        W70500  11.272  20.043  10.518
 3433W        W70501  33.495  10.240  10.565
 3434W        W70502   2.733  22.142   2.880
 3435W        W70503  19.181  18.763   3.149
 3436W        W70504  10.732  19.613   4.244
 3437W        W70505  34.402  23.580   1.411
 3438W        W70506  38.329  18.650  13.455
 3439W        W70507  19.756  12.312   2.722
 3440W        W70508  28.662  23.068  12.537
 3441W        W70509  19.170  30.932  10.139
 3442W        W70510  34.513  35.417   0.458
 3443W        W70511   6.878  24.010  11.506
 3444W        W70512   3.850  18.695  10.958
 3445W        W70513  23.516   1.761  14.352
 3446W        W70514  25.615  17.729   3.809
 3447W        W70515  16.283  29.472  12.434
 3448W        W70516  42.331   0.768  13.041
 3449W        W70517   2.762  42.936   0.773
 3450W        W70518  29.536  29.943   2.355
 3451W        W70519   7.881  24.978   4.227
 3452W        W70520  42.013  31.434   3.747
 3453W        W70521   9.681  20.186  13.445
 3454W        W70522  19.150  36.848   0.361
 3455W        W70523  36.884  43.275  10.590
 3456W        W70524   9.879  26.047   0.830
 3457W        W70525  11.251   0.909  12.952
 3458W        W70526  37.965  14.653  11.973
 3459W        W70527   7.768  37.085   1.759
 3460W        W70528   1.845  40.407  12.086
 3461W        W70529  35.569  33.060   4.816
 3462W        W70530   4.283   3.300  12.836
 3463W        W70531   0.869  35.510  13.387
 3464W        W70532  26.133   2.264   2.415
 3465W        W70533  32.085  18.155  10.897
 3466W        W70534  15.258  20.218   5.321
 3467W        W70535  35.853  28.021   5.161
 3468W        W70536  30.936   3.359   3.167
 3469W        W70537  18.621  21.037  11.066
 3470W        W70538  28.663  29.609  12.072
 3471W        W70539   8.376  38.493  13.496
 3472W        W70540  15.787  11.223  11.069
 3473W        W70541   2.256   2.366   3.842
 3474W        W70542  29.077  31.086  13.997
 3475W        W70543  28.069  28.660  13.017
 3476W        W70544  20.560  31.037  13.317
 3477W        W70545  23.035  21.181   3.256
 3478W        W70546   4.314  25.627   3.324
 3479W        W70547  30.132  21.080   4.638
 3480W        W70548  21.070  32.972  13.952
 3481W        W70549  25.611  21.159  11.578
 3482W        W70550  34.505  44.878  14.336
 3483W        W70551  35.373  15.210   4.324
 3484W        W70552  26.182  42.324  14.910
 3485W        W70553  21.589  43.327  12.919
 3486W        W70554  44.349  39.876   3.331
 3487W        W70555  26.047   9.267  12.998
 3488W        W70556  18.646  28.438  11.469
 3489W        W70557  17.727  28.437  13.446
 3490W        W70558  38.958   7.297   3.366
 3491W        W70559  16.145  34.606   4.285
 3492W        W70560  29.000  42.418   4.243
 3493W        W70561  42.887  20.630   0.780
 3494W        W70562   0.791   6.402  11.487
 3495W        W70563   8.804   8.378  11.592
 3496W        W70564   0.395  32.563  13.820
 3497W        W70565  30.950  39.858   3.318
 3498W        W70566  43.273  21.153  13.879
 3499W        W70567   2.805  26.516  10.525
 3500W        W70568   6.882   6.707   4.750
 3501W        W70569   7.718   0.784   1.434
 3502W        W70570  21.235  22.557  12.921
 3503W        W70571  41.327  44.353  12.008
 3504W        W70572  40.395  25.587   2.392
 3505W        W70573  27.182   2.864   0.789
 3506W        W70574  15.178  17.143   3.752
 3507W        W70575  17.721  16.628  13.004
 3508W        W70576   1.933   2.282   4.244
 3509W        W70577  41.974  44.413   4.216
 3510W        W70578   2.833   7.191  13.874
 3511W        W70579  34.101  29.931   1.788
 3512W        W70580  41.436  27.951   2.287
 3513W        W70581  17.772  32.515  12.535
 3514W        W70582  12.765  24.709   2.347
 3515W        W70583  43.767  14.139   3.673
 3516W        W70584  21.644   8.212  11.123
 3517W        W70585   8.801   2.961  11.394
 3518W        W70586  11.761  42.814   4.335
 3519W        W70587  17.801   8.817  14.352
 3520W        W70588  30.961  13.305  13.840
 3521W        W70589  33.104   3.222  11.462
 3522W        W70590   3.743  32.923   3.634
 3523W        W70591  10.767  33.537   1.403
 3524W        W70592  16.241  12.187   2.680
 3525W        W70593  38.519  33.495   3.737
 3526W        W70594  10.818  31.145  14.955
 3527W        W70595  23.111  30.066  12.354
 3528W        W70596  35.404  34.091  13.529
 3529W        W70597   6.833  29.513   1.340
 3530W        W70598  43.995   4.763  11.535
 3531W        W70599   2.472  10.830  11.591
 3532W        W70600  40.543  31.918   0.311
 3533W        W70601  15.752  32.610   5.237
 3534W        W70602   4.266  27.588   0.335
 3535W        W70603   3.737  21.641  12.969
 3536W        W70604  28.510  32.979  13.423
 3537W        W70605   0.255  14.210  13.038
 3538W        W70606  38.540   9.275  13.802
 3539W        W70607  21.623  12.682  13.830
 3540W        W70608  12.201  10.260   5.308
 3541W        W70609   3.949  34.472  11.405
 3542W        W70610  22.529  24.611  13.308
 3543W        W70611  25.621  38.325   1.883
 3544W        W70612  28.679  20.574  12.495
 3545W        W70613  23.045  44.387   0.440
 3546W        W70614  35.856  24.191  14.908
 3547W        W70615  22.118  27.508   0.478
 3548W        W70616  12.357  36.540  12.536
 3549W        W70617  27.517  32.546   1.439
 3550W        W70618   0.760  31.052  10.896
 3551W        W70619  43.446  28.025  13.401
 3552W        W70620  41.320  40.340  11.488
 3553W        W70621  22.681  11.667  12.892
 3554W        W70622  30.452  12.304  13.445
 3555W        W70623  29.514  24.062  14.428
 3556W        W70624  18.783  35.561   4.803
 3557W        W70625  19.686  43.305  13.470
 3558W        W70626   3.230  32.119   0.951
 3559W        W70627  19.172  35.960   3.706
 3560W        W70628  20.054  43.889  14.417
 3561W        W70629  32.572  37.004  11.438
 3562W        W70630   5.703  22.504  14.399
 3563W        W70631  13.154  28.568   1.826
 3564W        W70632  26.112  42.518   4.819
 3565W        W70633   0.782  10.808  11.004
 3566W        W70634  36.991  10.791  10.945
 3567W        W70635   8.898  20.636  12.345
 3568W        W70636   4.301  29.996  12.053
 3569W        W70637  34.031  28.615  13.393
 3570W        W70638   0.308  28.144  10.626
 3571W        W70639  22.633   6.783   3.788
 3572W        W70640  18.144   2.821   4.799
 3573W        W70641  35.372  18.720  11.978
 3574W        W70642  34.587  29.623  12.449
 3575W        W70643  23.608  27.645  12.343
 3576W        W70644  15.803   8.350  10.961
 3577W        W70645  20.133  38.457  14.413
 3578W        W70646  31.074  31.403  10.427
 3579W        W70647  41.395  38.427   1.755
 3580W        W70648   2.753  26.652   1.235
 3581W        W70649  22.119  35.094  10.946
 3582W        W70650  43.958  28.966   1.896
 3583W        W70651  22.591  19.710  14.496
 3584W        W70652  16.194  33.456  11.445
 3585W        W70653  17.685  19.745   3.198
 3586W        W70654  20.759  15.758   3.693
 3587W        W70655  15.702  43.470  14.986
 3588W        W70656   6.862  42.371  11.427
 3589W        W70657  31.149  30.138   0.249
 3590W        W70658  37.500  37.888   4.729
 3591W        W70659  25.665  39.894  14.433
 3592W        W70660  13.309  23.675  10.152
 3593W        W70661  25.082  38.864  12.950
 3594W        W70662   4.759  29.655  12.451
 3595W        W70663   3.341  12.666  11.482
 3596W        W70664  11.809  29.541   3.683
 3597W        W70665  44.353  29.945  14.913
 3598W        W70666  14.670   9.810   0.911
 3599W        W70667  13.716  28.531  12.880
 3600W        W70668   2.737   7.666  12.554
 3601W        W70669   6.900  12.645   0.369
 3602W        W70670  43.805   7.700   2.290
 3603W        W70671  16.090  25.619   2.212
 3604W        W70672  38.944  38.421   5.208
 3605W        W70673  23.596  30.421   3.172
 3606W        W70674  21.537   1.373   1.706
 3607W        W70675  12.175  41.441   1.730
 3608W        W70676   6.864   5.386   4.299
 3609W        W70677  13.349  14.337   5.225
 3610W        W70678   0.328  21.531   0.898
 3611W        W70679  36.593  36.531   0.461
 3612W        W70680  25.171  26.552  13.807
 3613W        W70681  26.000  39.510   3.297
 3614W        W70682   3.271  13.192  11.067
 3615W        W70683  36.523  24.117   4.790
 3616W        W70684  14.710  15.164   1.695
 3617W        W70685  24.679  23.021  11.971
 3618W        W70686  12.284  24.107   3.347
 3619W        W70687  27.997   6.728  13.424
 3620W        W70688   8.856  39.022   2.395
 3621W        W70689   1.775  33.471   1.347
 3622W        W70690  36.005   1.356  13.445
 3623W        W70691   6.688   6.735   0.408
 3624W        W70692  35.560  11.800   1.446
 3625W        W70693  32.106   7.239  10.069
 3626W        W70694  29.586  10.798   3.203
 3627W        W70695  38.967  24.092  12.095
 3628W        W70696  20.769   3.780  13.483
 3629W        W70697  41.527  29.521   3.348
 3630W        W70698   2.813  39.416  10.506
 3631W        W70699  16.680   6.359  13.932
 3632W        W70700   4.724  23.241  11.943
 3633W        W70701   2.460  15.089   1.367
 3634W        W70702  20.622   0.884  14.877
 3635W        W70703  30.963   2.935  14.862
 3636W        W70704  16.619  43.291   3.721
 3637W        W70705  41.863   3.754  11.539
 3638W        W70706  25.621  36.919  11.992
 3639W        W70707  37.006  37.517  10.577
 3640W        W70708  11.754  36.432   4.719
 3641W        W70709   1.779  33.067  12.866
 3642W        W70710  23.095  33.998   2.852
 3643W        W70711  13.706  35.415   0.415
 3644W        W70712  20.132   3.923  12.379
 3645W        W70713  31.113   6.732  14.372
 3646W        W70714  42.852   4.204  12.088
 3647W        W70715  17.262  32.928   4.611
 3648W        W70716  14.732   8.268  12.416
 3649W        W70717  22.043  31.421  14.028
 3650W        W70718  22.189   9.214   3.252
 3651W        W70719  36.461  43.864  13.481
 3652W        W70720  17.595  15.736  11.570
 3653W        W70721  29.058  21.708  13.839
 3654W        W70722  37.502  13.312   4.597
 3655W        W70723  41.874   0.400   3.232
 3656W        W70724  26.036  18.779  10.894
 3657W        W70725  28.183  43.839   2.687
 3658W        W70726  37.415   5.744  14.931
 3659W        W70727   5.346  10.811  10.524
 3660W        W70728  35.961  13.148  12.436
 3661W        W70729  37.902   4.263  14.943
 3662W        W70730  38.852  29.545  12.457
 3663W        W70731  41.865  25.979   1.820
 3664W        W70732  19.626  13.136   0.803
 3665W        W70733  24.219  40.335   3.349
 3666W        W70734  12.318  23.587   1.375
 3667W        W70735  35.880  39.953  13.880
 3668W        W70736   2.878  27.963  14.974
 3669W        W70737  13.644   8.330  13.399
 3670W        W70738  39.053   1.847   3.274
 3671W        W70739   6.889   0.902  13.833
 3672W        W70740  16.689   5.382  13.470
 3673W        W70741  10.278   6.348   1.816
 3674W        W70742   2.464  38.360  10.588
 3675W        W70743  18.108  10.216   1.241
 3676W        W70744   8.817  26.207   1.261
 3677W        W70745  22.187  37.851  14.458
 3678W        W70746   7.786  34.382   9.943
 3679W        W70747  13.695   0.984   0.281
 3680W        W70748  30.058  26.620  10.629
 3681W        W70749   4.407  23.726  14.362
 3682W        W70750  31.984   2.936  12.042
 3683W        W70751   0.816   5.263  10.485
 3684W        W70752  11.729  21.535   4.276
 3685W        W70753  11.664   3.395  13.482
 3686W        W70754   2.845   2.390  11.371
 3687W        W70755  34.889  37.971  13.524
 3688W        W70756   4.366  33.911   2.327
 3689W        W70757   0.437   7.224   3.183
 3690W        W70758  23.709  38.455   0.815
 3691W        W70759  36.513   2.824   3.783
 3692W        W70760  15.783  29.520  12.555
 3693W        W70761  35.553  12.360   0.301
 3694W        W70762  42.891  32.510   2.867
 3695W        W70763  10.863   6.363   0.936
 3696W        W70764   4.418  34.114  11.393
 3697W        W70765  14.775  20.738   4.255
 3698W        W70766  37.999  17.717   0.743
 3699W        W70767  41.858  27.132  11.561
 3700W        W70768  35.911  40.428   1.821
 3701W        W70769  37.484  21.052   1.850
 3702W        W70770  38.903  10.837   1.804
 3703W        W70771  30.085  14.234  12.975
 3704W        W70772  15.106  44.354   4.832
 3705W        W70773  14.697  42.288   1.330
 3706W        W70774  34.898  16.148   1.914
 3707W        W70775  22.087  17.224  14.871
 3708W        W70776  10.166   4.418   1.294
 3709W        W70777  15.190  11.311   3.215
 3710W        W70778  12.286  40.901   3.322
 3711W        W70779  42.861  38.350   1.816
 3712W        W70780  11.189  24.154   1.381
 3713W        W70781  30.012  12.230   2.679
 3714W        W70782  30.144  16.189  13.539
 3715W        W70783   4.209  13.800   2.846
 3716W        W70784  37.496  11.739   5.254
 3717W        W70785  38.538  42.954  10.569
 3718W        W70786  32.984  25.140  11.043
 3719W        W70787  35.536  36.586   4.168
 3720W        W70788   6.911  27.686  12.989
 3721W        W70789  22.088  29.594  14.785
 3722W        W70790  19.078  27.972  12.459
 3723W        W70791   9.168  15.250   0.279
 3724W        W70792  22.014   0.307   2.410
 3725W        W70793  29.028  10.697  12.572
 3726W        W70794  34.109  30.468   5.184
 3727W        W70795  11.722  40.485  11.435
 3728W        W70796  22.194   2.454   0.296
 3729W        W70797  23.672  24.667  10.526
 3730W        W70798  35.518   3.271  10.526
 3731W        W70799  26.027  13.291   2.216
 3732W        W70800  20.582   3.861   1.330
 3733W        W70801  10.339  19.583   4.661
 3734W        W70802  28.036   2.286   2.873
 3735W        W70803  11.841  11.843  11.977
 3736W        W70804  15.800  40.977  13.845
 3737W        W70805  12.680   6.224   4.313
 3738W        W70806  11.353  35.359   2.187
 3739W        W70807   7.284  30.432  14.857
 3740W        W70808  16.668  34.529  11.910
 3741W        W70809  27.621  20.234   4.638
 3742W        W70810  10.704  35.570   1.844
 3743W        W70811   2.741  13.639  13.469
 3744W        W70812   7.230   1.255   3.850
 3745W        W70813  27.162  43.324  13.912
 3746W        W70814  20.705  34.924   1.911
 3747W        W70815  20.193  12.309  14.954
 3748W        W70816  15.198  10.175   2.732
 3749W        W70817  23.693  38.855   4.715
 3750W        W70818   8.818   2.240  11.078
 3751W        W70819   0.810  10.209   3.859
 3752W        W70820  28.174  31.443  10.422
 3753W        W70821   0.885  18.217   9.924
 3754W        W70822   6.726  16.795   0.436
 3755W        W70823  17.296  25.513  13.496
 3756W        W70824  12.840   9.808   4.635
 3757W        W70825  14.304  15.754   4.760
 3758W        W70826   2.791  30.993   3.271
 3759W        W70827  22.711  29.058   3.285
 3760W        W70828  22.250   4.931   3.206
 3761W        W70829  31.541  25.968  10.959
 3762W        W70830  17.188  19.540   4.238
 3763W        W70831  28.669  32.968   1.903
 3764W        W70832  40.350  39.955  13.869
 3765W        W70833  19.131  38.417  14.787
 3766W        W70834  13.185  10.231   1.215
 3767W        W70835  23.141   7.307   4.754
 3768W        W70836  21.702  10.633  14.894
 3769W        W70837  23.678  22.246   4.741
 3770W        W70838  20.039  21.618  12.478
 3771W        W70839  19.603  10.870  13.938
 3772W        W70840  36.458  43.293   3.702
 3773W        W70841  10.761  29.121  12.996
 3774W        W70842  15.302   8.778   4.183
 3775W        W70843  15.660   2.240   3.686
 3776W        W70844  21.130  27.591   1.403
 3777W        W70845  31.590  40.525  12.464
 3778W        W70846  19.248  38.356  12.533
 3779W        W70847  12.237  27.118  13.392
 3780W        W70848  38.827  22.224   4.166
 3781W        W70849   4.799  31.973   2.364
 3782W        W70850  30.480  38.998   0.748
 3783W        W70851  24.012   4.259  12.858
 3784W        W70852  11.796  39.885   4.630
 3785W        W70853  32.426   7.760   1.241
 3786W        W70854  43.287  44.823  10.550
 3787W        W70855   8.270  31.930  11.521
 3788W        W70856  25.122   4.716   4.784
 3789W        W70857  35.024  30.050   2.290
 3790W        W70858  42.326   3.789  13.417
 3791W        W70859  33.886   7.678  11.881
 3792W        W70860  14.732  21.657   2.352
 3793W        W70861  11.756  37.036   3.849
 3794W        W70862  27.160  27.643  13.905
 3795W        W70863   0.747  19.077   1.814
 3796W        W70864   8.259   7.338  11.080
 3797W        W70865  19.110  26.018   4.757
 3798W        W70866  14.268  36.432  11.431
 3799W        W70867   3.374  21.078  12.427
 3800W        W70868  14.304  29.987  12.963
 3801W        W70869  44.803   3.443   4.616
 3802W        W70870  42.003  24.230   0.463
 3803W        W70871  21.017   7.804   4.730
 3804W        W70872  40.998  36.578   1.696
 3805W        W70873  11.224  16.149   2.395
 3806W        W70874  44.446  12.243  12.096
 3807W        W70875  32.142   5.896  12.428
 3808W        W70876  21.021   2.964  12.094
 3809W        W70877  23.126  26.676   1.800
 3810W        W70878  15.244  22.038  11.855
 3811W        W70879  19.571  10.366  13.518
 3812W        W70880  12.857   5.746   1.412
 3813W        W70881  10.288  21.119  10.524
 3814W        W70882  33.408  18.236  12.071
 3815W        W70883   5.732  29.563   2.816
 3816W        W70884  35.046  44.010  12.928
 3817W        W70885  29.583  27.513   4.710
 3818W        W70886  32.929  34.535   3.352
 3819W        W70887  27.122  16.292   2.254
 3820W        W70888  33.976  26.010  10.413
 3821W        W70889  29.955  24.516  11.519
 3822W        W70890   0.789  34.908   0.456
 3823W        W70891   2.845  11.279  11.889
 3824W        W70892  12.136  40.495  12.886
 3825W        W70893  36.955  29.132   1.370
 3826W        W70894   9.662   2.878  11.510
 3827W        W70895  30.143   2.328   3.326
 3828W        W70896   8.172   7.853   2.302
 3829W        W70897  43.345  31.408   2.311
 3830W        W70898  11.320   4.283   3.795
 3831W        W70899   9.340  33.598   2.322
 3832W        W70900  36.437  19.767  13.521
 3833W        W70901  28.554  11.636   4.815
 3834W        W70902  20.695  39.950  14.452
 3835W        W70903  19.721  27.187   3.376
 3836W        W70904  13.342  39.916   1.746
 3837W        W70905  15.091  17.718   0.320
 3838W        W70906  14.731  17.156   3.150
 3839W        W70907  28.504  34.942   1.441
 3840W        W70908  28.536  36.034   3.173
 3841W        W70909  17.656   8.375   4.262
 3842W        W70910  21.132   5.832  14.774
 3843W        W70911  39.015   0.366  11.091
 3844W        W70912  11.861   7.695   2.209
 3845W        W70913   6.376   9.746   1.243
 3846W        W70914  24.176   4.923   2.694
 3847W        W70915  29.156  17.143   3.707
 3848W        W70916  37.481  13.190  13.040
 3849W        W70917  10.703  18.203   5.138
 3850W        W70918  26.961  21.641   2.722
 3851W        W70919   6.338  34.912   1.294
 3852W        W70920  13.246   5.284   1.284
 3853W        W70921  10.872   1.343  12.068
 3854W        W70922  40.486  22.666  13.379
 3855W        W70923  36.352  17.262  13.515
 3856W        W70924  40.855  41.013  14.308
 3857W        W70925  21.212   1.874  14.452
 3858W        W70926  38.453   6.413  13.509
 3859W        W70927  38.951  27.568  10.606
 3860W        W70928  27.176  37.962   2.321
 3861W        W70929  15.602  39.545  14.976
 3862W        W70930  18.296   7.175   2.899
 3863W        W70931  28.970  43.765   3.838
 3864W        W70932  17.621  44.382  11.416
 3865W        W70933  36.970   3.361  10.512
 3866W        W70934  15.667  15.092   2.269
 3867W        W70935  11.804  38.533  11.413
 3868W        W70936   5.896  43.387  10.498
 3869W        W70937  35.875  36.892  14.998
 3870W        W70938  38.376  11.138   4.794
 3871W        W70939  21.070  10.767  13.417
 3872W        W70940  15.323  21.746   0.340
 3873W        W70941   1.443  10.352  11.523
 3874W        W70942   8.177   9.175  11.038
 3875W        W70943  11.832  32.635   4.680
 3876W        W70944  44.421   7.298   1.840
 3877W        W70945   1.410   8.238   1.772
 3878W        W70946  39.842  36.931  12.345
 3879W        W70947  20.631  42.389  13.792
 3880W        W70948   6.324   1.295  14.279
 3881W        W70949  41.972  18.781  14.335
 3882W        W70950   4.238  27.483  12.446
 3883W        W70951  31.411  32.521   3.638
 3884W        W70952   1.451  11.169   4.172
 3885W        W70953  32.573  37.398  12.061
 3886W        W70954  10.718  25.214   2.192
 3887W        W70955   3.215  28.026  13.453
 3888W        W70956   1.336  25.634   0.340
 3889W        W70957   4.363  35.030  12.836
 3890W        W70958  38.842  27.056   4.765
 3891W        W70959  15.668   4.255   4.625
 3892W        W70960   1.954  26.138   3.644
 3893W        W70961  34.937  31.959  14.344
 3894W        W70962  19.735  18.779   2.237
 3895W        W70963  31.995  19.764  13.881
 3896W        W70964  35.076  24.621  12.403
 3897W        W70965   8.676  13.811   2.284
 3898W        W70966  31.020  17.270  10.022
 3899W        W70967  24.707   7.846  11.471
 3900W        W70968  13.126  18.631   3.277
 3901W        W70969  40.335  26.169  14.281
 3902W        W70970  36.384  31.091   0.355
 3903W        W70971  12.134  17.731   1.816
 3904W        W70972  10.323  20.089   3.655
 3905W        W70973  21.670  26.196   1.211
 3906W        W70974  41.308   8.861   3.846
 3907W        W70975   9.862  34.998   2.668
 3908W        W70976  27.450   7.245  14.446
 3909W        W70977  11.265  37.083   4.132
 3910W        W70978   2.455  35.855  11.898
 3911W        W70979  36.936  33.544   4.704
 3912W        W70980   7.753   6.823  12.012
 3913W        W70981  39.890  17.624  10.522
 3914W        W70982  28.474  43.400   2.223
 3915W        W70983  29.984  28.932  12.031
 3916W        W70984  35.015  30.637  10.578
 3917W        W70985  13.197  43.287  14.991
 3918W        W70986  13.759  29.667  13.451
 3919W        W70987  42.979  14.777   1.335
 3920W        W70988  34.419  26.162   4.636
 3921W        W70989  12.702  25.478  14.910
 3922W        W70990  39.363  20.209   2.403
 3923W        W70991  33.477  37.868  13.015
 3924W        W70992   1.971  36.904   0.264
 3925W        W70993   7.808   3.757   1.836
 3926W        W70994  12.762  31.973   4.711
 3927W        W70995   0.844  35.853   2.684
 3928W        W70996  23.118  18.126  14.864
 3929W        W70997  34.583  22.027  11.547
 3930W        W70998  39.992  16.219  13.397
 3931W        W70999  38.009  43.417   2.344
 3932W        W71000   0.861  17.131  11.017
 3933W        W71001  44.334   7.696  12.983
 3934W        W71002   4.263   1.377   0.934
 3935W        W71003  33.131   0.391  13.009
 3936W        W71004  24.169   4.835   3.760
 3937W        W71005  33.928  41.517   4.147
 3938W        W71006  18.256  43.341  13.990
 3939W        W71007   7.175  19.617  14.922
 3940W        W71008  26.083  44.827  10.936
 3941W        W71009  29.165   2.296  11.931
 3942W        W71010  16.241  20.688   4.284
 3943W        W71011  41.501   3.391   2.879
 3944W        W71012   2.727  11.864   0.481
 3945W        W71013  14.195  34.059  13.471
 3946W        W71014  26.618  21.669   4.624
 3947W        W71015  20.621  32.027  11.593
 3948W        W71016  19.082   7.201  11.968
 3949W        W71017  40.906  36.396   3.321
 3950W        W71018  12.714   0.866   3.297
 3951W        W71019  22.502  23.192  12.479
 3952W        W71020  28.629   6.272   0.480
 3953W        W71021  31.593   1.885  13.809
 3954W        W71022  17.287   1.917  14.935
 3955W        W71023  32.047  36.068  14.366
 3956W        W71024  15.631  42.921   4.222
 3957W        W71025  30.919  10.270   2.851
 3958W        W71026  15.673  34.457   2.303
 3959W        W71027  27.616  37.519   1.879
 3960W        W71028  28.491  30.601   2.788
 3961W        W71029   3.236  36.892  13.889
 3962W        W71030  21.223  26.031   1.358
 3963W        W71031  10.775  23.037   4.202
 3964W        W71032  11.666  15.634  14.777
 3965W        W71033  12.854   7.327  10.492
 3966W        W71034   4.232  17.705  11.906
 3967W        W71035   1.816  23.555  13.877
 3968W        W71036  13.681  15.117   4.205
 3969W        W71037  16.803  29.020  13.338
 3970W        W71038   0.804  25.122  12.072
 3971W        W71039  11.652   9.723   2.313
 3972W        W71040  23.496  24.521   0.419
 3973W        W71041  13.718  37.484  12.507
 3974W        W71042   1.432  43.827   0.456
 3975W        W71043   9.246  27.961   1.413
 3976W        W71044  27.038  27.565  14.487
 3977W        W71045  36.026  39.859  10.975
 3978W        W71046  33.556  41.803  14.924
 3979W        W71047  26.200   8.752   3.645
 3980W        W71048   7.382  11.270  13.449
 3981W        W71049  26.968  32.927   3.700
 3982W        W71050  12.820  17.283   1.224
 3983W        W71051  30.556  22.009  13.874
 3984W        W71052  30.037  18.271  10.994
 3985W        W71053  27.948  20.573  14.910
 3986W        W71054  33.583  15.797  14.781
 3987W        W71055   6.311   5.322  11.453
 3988W        W71056  16.242  28.991   4.806
 3989W        W71057  35.524  15.643   4.675
 3990W        W71058  34.472  39.962   4.746
 3991W        W71059   1.949  43.820  12.493
 3992W        W71060  19.681  36.056  11.564
 3993W        W71061  11.303  32.960  12.447
 3994W        W71062  21.736  36.948   0.857
 3995W        W71063   2.761  14.291   0.773
 3996W        W71064  18.731  23.187  13.315
 3997W        W71065   1.810  11.315   1.707
 3998W        W71066  13.236  20.244   0.313
 3999W        W71067  42.526  29.622   2.180
 4000W        W71068  33.100  30.039  11.947
 4001W        W71069  34.586  22.043   0.947
 4002W        W71070  41.304  26.619   2.819
 4003W        W71071   6.232   1.822   5.281
 4004W        W71072  10.672  42.347   4.278
 4005W        W71073  12.708  10.713  12.488
 4006W        W71074  40.878   7.775  14.307
 4007W        W71075   3.716  26.007  14.282
 4008W        W71076  19.283  34.591  11.040
 4009W        W71077  32.109  40.490   3.322
 4010W        W71078   9.232  11.163  12.841
 4011W        W71079  28.034   7.846  14.923
 4012W        W71080  24.661  24.695   3.677
 4013W        W71081  36.392  38.926   1.285
 4014W        W71082  27.983  30.024  12.023
 4015W        W71083  27.492  29.609   4.669
 4016W        W71084  33.449  10.294  11.560
 4017W        W71085  42.949  10.241  12.087
 4018W        W71086   2.911  17.797   4.144
 4019W        W71087  20.246  15.251  13.357
 4020W        W71088  16.245  36.459  14.275
 4021W        W71089  30.536   8.244   2.366
 4022W        W71090  27.535  14.787   2.693
 4023W        W71091  31.087   3.912  14.368
 4024W        W71092  30.911  16.602  10.627
 4025W        W71093  44.503  13.141   3.164
 4026W        W71094  32.931  37.926  12.061
 4027W        W71095  27.498  35.420   3.330
 4028W        W71096  11.340  18.659  11.859
 4029W        W71097  15.090   1.242   0.866
 4030W        W71098  16.140  38.367   1.816
 4031W        W71099   4.782  26.121   2.348
 4032W        W71100  14.629   3.318  12.533
 4033W        W71101  13.655  18.730   3.351
 4034W        W71102  17.259  41.358   0.864
 4035W        W71103   6.890   6.388   1.387
 4036W        W71104  13.157   2.316  12.956
 4037W        W71105  13.697  38.361  12.095
 4038W        W71106  27.128   5.712  13.407
 4039W        W71107  12.214  13.208  14.006
 4040W        W71108  37.548   4.262   1.259
 4041W        W71109  21.707  21.210   0.255
 4042W        W71110   6.874  22.636  10.551
 4043W        W71111   0.297  29.565  10.943
 4044W        W71112  44.853  17.707   4.198
 4045W        W71113  21.221  31.417  11.101
 4046W        W71114  42.438  35.931   3.227
 4047W        W71115  30.045   5.393  12.832
 4048W        W71116  25.068   6.893  11.889
 4049W        W71117   5.294  44.795  11.989
 4050W        W71118   9.179  44.303   0.349
 4051W        W71119  18.747   5.857  14.887
 4052W        W71120  12.208  37.085   0.243
 4053W        W71121  24.094  44.970  14.922
 4054W        W71122  30.623  28.167  13.939
 4055W        W71123  21.694   7.387  11.924
 4056W        W71124  39.521  39.466  12.482
 4057W        W71125  40.970  17.560   2.252
 4058W        W71126   0.805  28.023   1.223
 4059W        W71127  40.987  11.153  11.028
 4060W        W71128  40.523   8.690  11.008
 4061W        W71129  35.395  10.674   2.735
 4062W        W71130  15.644  13.145  10.007
 4063W        W71131  15.184  23.985   1.843
 4064W        W71132   0.908   0.302  14.503
 4065W        W71133  41.845  21.207   3.362
 4066W        W71134   0.913   7.210  13.963
 4067W        W71135  40.463  28.105   4.701
 4068W        W71136  15.312  13.611   4.807
 4069W        W71137  30.099  27.643  11.973
 4070W        W71138  27.134  29.005  11.109
 4071W        W71139  32.054  18.614   1.367
 4072W        W71140   5.205   4.877   0.853
 4073W        W71141   5.359  29.662  11.016
 4074W        W71142  11.238  38.949   1.839
 4075W        W71143  22.201  15.155  11.965
 4076W        W71144   8.893  31.477   2.877
 4077W        W71145  15.733  44.967  13.804
 4078W        W71146  16.076  25.636  12.908
 4079W        W71147   2.852  24.595   1.842
 4080W        W71148   4.702  40.962  11.027
 4081W        W71149  43.991   9.200   0.415
 4082W        W71150  18.086  42.337  10.611
 4083W        W71151  20.151  25.098  11.950
 4084W        W71152  25.492  10.853   1.728
 4085W        W71153   3.802   8.345  10.618
 4086W        W71154   1.975   4.749  13.516
 4087W        W71155  25.674  20.142   4.741
 4088W        W71156  22.244  27.044  12.985
 4089W        W71157  36.051  17.227  14.285
 4090W        W71158  21.075  24.022  11.869
 4091W        W71159   2.899  40.456  12.837
 4092W        W71160   4.334  37.459  14.856
 4093W        W71161  22.629  37.846   4.128
 4094W        W71162  15.253  33.898   2.301
 4095W        W71163  27.095  27.135  13.323
 4096W        W71164  35.502  35.861  12.449
 4097W        W71165  34.956  12.199  11.596
 4098W        W71166  34.476  22.530  10.897
 4099W        W71167  11.677  38.420  10.903
 4100W        W71168  17.565  34.602   3.181
 4101W        W71169  12.687  37.470   3.167
 4102W        W71170   0.804  27.982  10.142
 4103W        W71171  21.511  41.846  12.480
 4104W        W71172  25.006   7.333   3.831
 4105W        W71173  31.598   0.804   1.736
 4106W        W71174  23.180   6.314   3.313
 4107W        W71175  27.134  22.657  13.921
 4108W        W71176   7.254  43.934   3.718
 4109W        W71177  16.610  22.027  10.621
 4110W        W71178  31.532  44.872   3.689
 4111W        W71179  19.543  24.196   3.704
 4112W        W71180  15.743  18.709   4.277
 4113W        W71181  27.489  36.909   3.147
 4114W        W71182  43.901  14.635   0.253
 4115W        W71183   0.765  41.872  13.830
 4116W        W71184   0.373  43.863  11.990
 4117W        W71185  10.345  43.989  10.090
 4118W        W71186   1.870  28.624  11.989
 4119W        W71187  17.660   3.847   0.733
 4120W        W71188   5.697   7.769   2.701
 4121W        W71189  11.165   1.918   2.366
 4122W        W71190  22.583  37.492  13.509
 4123W        W71191   0.815  26.001  11.415
 4124W        W71192   7.262  23.045   0.286
 4125W        W71193  28.969  24.024   2.679
 4126W        W71194  22.142   6.901  12.477
 4127W        W71195  13.212  37.875  14.453
 4128W        W71196  20.748  29.954   0.440
 4129W        W71197  43.385  29.590   4.291
 4130W        W71198   7.880  23.121  10.412
 4131W        W71199   0.749   6.868  14.881
 4132W        W71200  21.713   1.863   1.905
 4133W        W71201  33.616  43.772   0.809
 4134W        W71202  44.892  27.973  10.989
 4135W        W71203  15.111  37.561  11.111
 4136W        W71204   4.224  24.165  14.345
 4137W        W71205  19.583   6.857   1.331
 4138W        W71206   5.924  42.392  11.451
 4139W        W71207  27.538   5.928  12.868
 4140W        W71208  20.044   5.692  11.477
 4141W        W71209  38.995   5.797   1.400
 4142W        W71210  34.109  38.076   1.891
 4143W        W71211  12.833  32.998   1.241
 4144W        W71212  14.172  19.252  11.420
 4145W        W71213  16.730  16.588   0.413
 4146W        W71214  32.467  27.676   3.348
 4147W        W71215  23.174  33.893   2.386
 4148W        W71216  27.135  35.408  10.004
 4149W        W71217  11.780  37.836   0.287
 4150W        W71218   4.933  23.030   1.745
 4151W        W71219  32.512  30.536  14.346
 4152W        W71220  24.697  41.031  14.439
 4153W        W71221   8.372  24.034   0.250
 4154W        W71222  31.617  15.592  12.429
 4155W        W71223   0.342  40.536  13.450
 4156W        W71224  19.081  32.508   4.679
 4157W        W71225   4.299  34.442   2.874
 4158W        W71226  20.033   6.395   3.248
 4159W        W71227  13.288  44.471  10.479
 4160W        W71228   7.906  35.006   2.292
 4161W        W71229  19.241  11.837   3.662
 4162W        W71230  34.008  32.902   4.681
 4163W        W71231   5.695  12.780  14.364
 4164W        W71232  29.143  31.949   3.774
 4165W        W71233  23.492  30.107   4.229
 4166W        W71234  30.575   1.305   1.752
 4167W        W71235   6.270  42.401   3.281
 4168W        W71236  12.325  30.562   3.227
 4169W        W71237  12.319  44.788  14.924
 4170W        W71238  41.525  25.006  13.012
 4171W        W71239  39.505  43.359  13.487
 4172W        W71240  29.577  12.640  11.896
 4173W        W71241   7.674  18.110   3.314
 4174W        W71242  11.146  34.514   2.415
 4175W        W71243  23.734  26.598  13.893
 4176W        W71244  40.480  30.059   1.267
 4177W        W71245   4.388  28.677  13.542
 4178W        W71246   4.844  36.040  10.557
 4179W        W71247  43.432   5.922  14.352
 4180W        W71248  17.743  31.602   3.337
 4181W        W71249  39.406  39.328  13.479
 4182W        W71250  18.735  28.979   4.798
 4183W        W71251  31.124  43.878  13.415
 4184W        W71252  12.353  40.999  10.523
 4185W        W71253   5.739  33.548   1.762
 4186W        W71254  38.417  29.017  14.025
 4187W        W71255  11.335  19.556  14.029
 4188W        W71256  11.809  41.393   1.870
 4189W        W71257  23.027  13.676  14.788
 4190W        W71258   0.965  26.458  13.835
 4191W        W71259   0.817  29.128   1.329
 4192W        W71260  19.662   4.386   3.296
 4193W        W71261  15.639  33.916   2.892
 4194W        W71262   1.812  37.971   1.386
 4195W        W71263  39.521  25.591   3.775
 4196W        W71264   7.694  29.942  11.983
 4197W        W71265   8.746  14.799  14.912
 4198W        W71266  14.821   6.371  13.426
 4199W        W71267  20.621  11.301   4.191
 4200W        W71268  38.826  26.577  10.158
 4201W        W71269  36.534   0.744   2.692
 4202W        W71270  42.930  42.356  12.490
 4203W        W71271  31.514  15.779   9.930
 4204W        W71272  23.170  18.561   3.840
 4205W        W71273  35.402  33.986   3.322
 4206W        W71274  35.601  11.155  14.278
 4207W        W71275  32.478  11.796   0.313
 4208W        W71276  40.941  20.087  13.048
 4209W        W71277  13.187   2.397  12.505
 4210W        W71278  13.720  18.204  11.859
 4211W        W71279  14.148  19.191  11.940
 4212W        W71280  36.445  23.064   3.203
 4213W        W71281   5.303  35.109   0.271
 4214W        W71282  43.929  30.124  14.367
 4215W        W71283  18.132  15.649  10.461
 4216W        W71284  10.271   6.711   1.403
 4217W        W71285  42.355  37.931  13.063
 4218W        W71286   3.284  12.174  13.836
 4219W        W71287  20.266   7.416   0.428
 4220W        W71288  27.015   9.800   2.215
 4221W        W71289  11.316  14.639  13.518
 4222W        W71290  32.917  36.916  13.897
 4223W        W71291  12.210  29.940   3.681
 4224W        W71292  21.089  15.652   1.216
 4225W        W71293   4.890  36.854   2.257
 4226W        W71294  39.998  18.711   0.478
 4227W        W71295   4.938  41.471  12.957
 4228W        W71296  20.710  22.015  14.514
 4229W        W71297  31.069  17.091  12.828
 4230W        W71298  43.495  27.117   3.674
 4231W        W71299  27.949   5.874   0.965
 4232W        W71300  30.645   1.784   0.886
 4233W        W71301   5.857  42.903   3.212
 4234W        W71302  19.152  13.644   4.662
 4235W        W71303  10.776  32.922   4.699
 4236W        W71304  17.608  11.759  10.540
 4237W        W71305  43.003  17.188   4.622
 4238W        W71306  25.189  35.442  12.855
 4239W        W71307  21.679   2.835  14.424
 4240W        W71308   2.741  25.044  11.409
 4241W        W71309  24.985  28.615   4.793
 4242W        W71310  28.013  19.280   4.693
 4243W        W71311  35.864  14.620  13.406
 4244W        W71312  24.482  38.891  12.503
 4245W        W71313  41.826  18.296   2.189
 4246W        W71314   8.327   9.758   2.290
 4247W        W71315  44.850   6.212   4.218
 4248W        W71316  32.934  25.003   1.797
 4249W        W71317  23.124  19.095   2.404
 4250W        W71318  23.680  16.630   1.385
 4251W        W71319  10.662  27.076  14.919
 4252W        W71320  24.488  15.581  11.595
 4253W        W71321  44.401  19.179  12.056
 4254W        W71322  27.092  38.567   2.769
 4255W        W71323   0.260  28.676  13.996
 4256W        W71324   9.284  41.300  11.012
 4257W        W71325  38.334  24.644  14.283
 4258W        W71326  18.229  33.557  10.573
 4259W        W71327  13.160   7.179  13.979
 4260W        W71328  18.073  22.557  12.837
 4261W        W71329  34.516  16.791   2.814
 4262W        W71330  13.746  16.613  11.435
 4263W        W71331  40.012   5.858   1.221
 4264W        W71332  38.451  20.227   1.877
 4265W        W71333  33.604  29.954  13.401
 4266W        W71334  44.489  44.476  12.942
 4267W        W71335  33.902  11.281  10.642
 4268W        W71336  34.977   7.886  12.017
 4269W        W71337  26.580  36.081   1.729
 4270W        W71338  44.839  28.446   2.693
 4271W        W71339  22.160  23.090   2.188
 4272W        W71340   2.453  15.124  11.607
 4273W        W71341  33.602  44.499  11.433
 4274W        W71342  12.206   9.257   1.236
 4275W        W71343  34.389  11.787  12.544
 4276W        W71344   5.931  37.039   0.359
 4277W        W71345  15.767  39.436  11.502
 4278W        W71346  29.605  41.313   2.849
 4279W        W71347  36.071  20.120   1.212
 4280W        W71348  26.061  33.022   0.474
 4281W        W71349  26.557  42.904  13.918
 4282W        W71350  42.794  30.052  14.817
 4283W        W71351   2.723  29.492   1.368
 4284W        W71352  31.917  34.986  11.942
 4285W        W71353  15.666   2.764  14.024
 4286W        W71354  29.658  28.108   0.248
 4287W        W71355  14.823   5.872  10.472
 4288W        W71356   0.374  30.941   0.924
 4289W        W71357  41.000  23.003  13.046
 4290W        W71358  39.041  13.820   4.782
 4291W        W71359  38.546  13.289  11.118
 4292W        W71360  40.395  11.720  12.968
 4293W        W71361   3.914  21.646  13.921
 4294W        W71362  36.446  29.548   4.292
 4295W        W71363  31.911   6.781  11.421
 4296W        W71364  19.213  20.550  11.912
 4297W        W71365  29.507  23.553   0.909
 4298W        W71366  17.239   9.250   4.284
 4299W        W71367  44.416  27.136   4.194
 4300W        W71368  22.734  41.449  13.321
 4301W        W71369  24.134  30.642  10.916
 4302W        W71370   3.349  40.881   4.613
 4303W        W71371  18.590  31.613   5.102
 4304W        W71372   7.329  23.599  12.916
 4305W        W71373   9.720  31.630   0.260
 4306W        W71374  25.063  41.040  10.912
 4307W        W71375  24.480  29.168  10.891
 4308W        W71376   7.675   6.281  10.150
 4309W        W71377   0.943  40.333  11.020
 4310W        W71378  43.874  27.178   1.907
 4311W        W71379   6.334   7.820   2.827
 4312W        W71380   3.228   1.913  12.833
 4313W        W71381   6.731  41.427  11.447
 4314W        W71382  34.074  22.636  11.547
 4315W        W71383   2.466   2.738   2.205
 4316W        W71384   7.198  42.980   3.740
 4317W        W71385  40.817  38.989   1.764
 4318W        W71386   7.884  25.590  13.040
 4319W        W71387  26.620  35.034   4.174
 4320W        W71388   2.283   5.791   1.849
 4321W        W71389  29.468  34.381   1.759
 4322W        W71390  10.274  16.767  11.483
 4323W        W71391  36.852   2.956  13.029
 4324W        W71392  38.006  37.927  12.838
 4325W        W71393   3.341  28.975  10.950
 4326W        W71394   7.290  34.475  14.326
 4327W        W71395  19.631  42.983   0.393
 4328W        W71396   1.847  32.433  10.042
 4329W        W71397  16.576   0.787  11.093
 4330W        W71398  34.459   8.174   1.412
 4331W        W71399  29.547  44.945   3.157
 4332W        W71400  29.492  18.141   0.258
 4333W        W71401  14.164  29.047  11.980
 4334W        W71402  35.858  19.707  10.430
 4335W        W71403   3.283   5.772   2.194
 4336W        W71404  16.127  11.791   5.250
 4337W        W71405  27.167  14.797   4.328
 4338W        W71406  12.671  10.778   1.211
 4339W        W71407  23.189  13.217   4.223
 4340W        W71408  15.625  22.601   3.290
 4341W        W71409   0.350  28.647   2.248
 4342W        W71410  25.564  10.740   4.167
 4343W        W71411  38.942  27.190   3.761
 4344W        W71412   6.362  34.500   0.461
 4345W        W71413  13.286  12.118  13.853
 4346W        W71414  29.068  17.782   4.743
 4347W        W71415  36.026  34.993  14.355
 4348W        W71416  41.989  24.598   1.225
 4349W        W71417  10.790  20.190   3.328
 4350W        W71418  16.189  25.590  11.934
 4351W        W71419   0.330  43.270   1.717
 4352W        W71420   3.750  35.388   4.350
 4353W        W71421  24.481  36.482  13.472
 4354W        W71422  15.214  27.575  12.024
 4355W        W71423  24.049  41.036   4.684
 4356W        W71424  20.659  12.354  11.555
 4357W        W71425  36.932  38.521   0.907
 4358W        W71426  44.392  17.277  10.975
 4359W        W71427  31.537  34.456   0.834
 4360W        W71428  32.394  44.841   3.219
 4361W        W71429  28.578  27.526  12.368
 4362W        W71430  22.191  36.054  12.519
 4363W        W71431  43.478  42.413   3.165
 4364W        W71432  43.974   9.191   1.860
 4365W        W71433  21.612  29.435   4.150
 4366W        W71434  20.667   6.862  13.395
 4367W        W71435  31.645  27.127   4.813
 4368W        W71436  35.454  11.368  13.058
 4369W        W71437  24.655   6.767  12.457
 4370W        W71438  17.716  10.257   2.229
 4371W        W71439  25.148  44.958   0.794
 4372W        W71440  29.624  10.279   1.247
 4373W        W71441   5.372   3.327   5.197
 4374W        W71442  23.072  36.360  11.123
 4375W        W71443   8.700   0.471  10.560
 4376W        W71444  37.502   2.780  11.003
 4377W        W71445   7.379  33.899   2.345
 4378W        W71446   0.480  21.264  10.561
 4379W        W71447  36.842   9.156   1.723
 4380W        W71448  16.786  44.854  13.527
 4381W        W71449  36.391   6.183   5.245
 4382W        W71450  31.645  40.484   0.281
 4383W        W71451  15.772  29.130  10.480
 4384W        W71452  15.663  40.372   5.084
 4385W        W71453  41.522  23.160  11.856
 4386W        W71454  35.413   3.288  11.432
 4387W        W71455  11.345  23.047   1.322
 4388W        W71456   2.352  15.683   5.161
 4389W        W71457  42.434   7.665   4.728
 4390W        W71458  25.096  25.139   1.304
 4391W        W71459   7.709  38.512  11.438
 4392W        W71460   9.853  26.990   0.899
 4393W        W71461  24.160   6.393   4.310
 4394W        W71462  43.876  27.659  14.399
 4395W        W71463  14.790   9.149  14.982
 4396W        W71464  27.979  41.824   1.286
 4397W        W71465  25.600  25.048   2.414
 4398W        W71466  16.201  30.956   3.866
 4399W        W71467   6.420  25.612  11.544
 4400W        W71468   4.400   9.395   1.265
 4401W        W71469  42.903   4.416  12.825
 4402W        W71470  17.646  32.122  13.818
 4403W        W71471   2.725  16.769  14.312
 4404W        W71472   8.261  26.493  14.362
 4405W        W71473  31.508  43.367   3.676
 4406W        W71474  37.468  23.065  10.914
 4407W        W71475  39.505  17.079  11.501
 4408W        W71476   3.855  20.740   0.735
 4409W        W71477  14.150  41.929   3.236
 4410W        W71478  28.038  42.923  11.971
 4411W        W71479  30.024  12.345  14.768
 4412W        W71480  12.754  19.166   4.748
 4413W        W71481  26.575  27.463   1.817
 4414W        W71482  12.245  16.773   3.743
 4415W        W71483   0.310  33.437   2.741
 4416W        W71484  11.193  25.207   2.888
 4417W        W71485  17.074   7.895  12.925
 4418W        W71486  20.648  35.401   2.239
 4419W        W71487  21.566  26.648  10.577
 4420W        W71488  25.646   9.728  12.553
 4421W        W71489  31.577  38.363   1.439
 4422W        W71490  40.999  21.187   3.738
 4423W        W71491   6.794  40.452  14.985
 4424W        W71492  28.168  43.509  12.499
 4425W        W71493  44.973   7.900  14.880
 4426W        W71494  29.628  43.985   0.732
 4427W        W71495   3.405  34.400  13.440
 4428W        W71496  39.365  21.649  14.810
 4429W        W71497  20.616  43.774  14.475
 4430W        W71498   8.353  30.982   0.934
 4431W        W71499  30.491   8.796  10.504
 4432W        W71500  13.806  10.205   2.874
 4433W        W71501  38.885  15.789  14.857
 4434W        W71502  12.243  22.244   3.340
 4435W        W71503   7.202  30.160   3.265
 4436W        W71504  30.419  25.502   2.230
 4437W        W71505  44.493  29.512  10.628
 4438W        W71506  24.174  34.933  11.979
 4439W        W71507   9.753  37.576  11.977
 4440W        W71508  21.250   0.249   1.907
 4441W        W71509   8.848  10.285  14.009
 4442W        W71510   2.442  31.403  13.454
 4443W        W71511  31.458  43.869  11.478
 4444W        W71512   0.799  25.991   2.276
 4445W        W71513  13.272  30.650   5.143
 4446W        W71514  38.949  44.423  10.144
 4447W        W71515   0.873  25.985   4.251
 4448W        W71516  39.329  26.498   2.380
 4449W        W71517  15.272   0.440  13.536
 4450W        W71518   4.304   3.818  14.908
 4451W        W71519  43.357   7.354   2.369
 4452W        W71520  35.954  12.239  13.471
 4453W        W71521  23.562  13.280  14.861
 4454W        W71522   6.328  26.641  11.414
 4455W        W71523  38.444  34.864  13.312
 4456W        W71524  30.500  19.662  14.769
 4457W        W71525  29.940  28.176   2.875
 4458W        W71526  17.093  23.599  13.866
 4459W        W71527  26.554  27.144  14.501
 4460W        W71528  41.498   1.450  10.973
 4461W        W71529  22.620  38.518  13.908
 4462W        W71530  38.331  32.055   2.685
 4463W        W71531   8.239  25.112  10.503
 4464W        W71532  14.172   8.362   2.238
 4465W        W71533  20.177  21.211   2.899
 4466W        W71534  10.313  37.962  14.928
 4467W        W71535  21.657  38.446   4.804
 4468W        W71536   0.856  33.535  12.370
 4469W        W71537  35.094  20.257   1.278
 4470W        W71538  35.358  20.108  13.454
 4471W        W71539  13.257   1.762   2.182
 4472W        W71540  10.632  43.863  10.444
 4473W        W71541   3.953  35.857  12.852
 4474W        W71542  10.246  43.514  13.885
 4475W        W71543  30.998   2.290  13.847
 4476W        W71544  33.606  44.375   1.212
 4477W        W71545  18.707  19.668  13.380
 4478W        W71546   8.729  14.770   2.737
 4479W        W71547  40.410  10.868  14.968
 4480W        W71548  26.514  16.723   0.298
 4481W        W71549  19.247  37.931  14.811
 4482W        W71550  42.477  33.106   2.708
 4483W        W71551  37.405   1.763   0.451
 4484W        W71552   6.893  31.899  13.523
 4485W        W71553   3.241  23.087   0.335
 4486W        W71554  14.683   7.823  14.030
 4487W        W71555  10.672   0.488  11.560
 4488W        W71556   8.242  30.453   2.833
 4489W        W71557  30.450  13.711  13.390
 4490W        W71558   0.929   6.239   4.783
 4491W        W71559  28.669  11.713   0.255
 4492W        W71560   1.431   2.402   0.766
 4493W        W71561   1.237  27.125   4.242
 4494W        W71562   1.907  41.483   4.331
 4495W        W71563   0.316   8.837  11.931
 4496W        W71564  30.499  20.686  11.388
 4497W        W71565  17.593  10.778  13.516
 4498W        W71566  34.400  23.240  12.889
 4499W        W71567  33.563  22.161   4.610
 4500W        W71568   3.799  16.606   1.793
 4501W        W71569  28.083  10.633   4.751
 4502W        W71570  40.985  28.930  11.373
 4503W        W71571   5.400  21.024   0.440
 4504W        W71572   9.805   1.880   3.195
 4505W        W71573   9.874  16.656  14.979
 4506W        W71574  10.752  25.689  13.936
 4507W        W71575   6.837   2.912  12.027
 4508W        W71576  21.729   4.234  13.030
 4509W        W71577  26.083  27.062   0.442
 4510W        W71578  21.122  28.053   2.898
 4511W        W71579   2.290  26.974   2.288
 4512W        W71580  38.915  39.550   2.876
 4513W        W71581  30.966  16.692   2.840
 4514W        W71582   3.743  28.646  11.437
 4515W        W71583  32.022  16.703   3.203
 4516W        W71584  31.906  38.851   1.220
 4517W        W71585  38.339  15.280   4.260
 4518W        W71586  18.668   8.675   4.805
 4519W        W71587  35.919  17.222  12.379
 4520W        W71588   1.323  43.296   3.297
 4521W        W71589  27.672  34.923  10.936
 4522W        W71590  28.054  24.699   2.265
 4523W        W71591  25.554   4.718  14.448
 4524W        W71592  39.006  39.924   1.786
 4525W        W71593  10.281  33.095   5.217
 4526W        W71594  33.432  33.900   0.270
 4527W        W71595   9.307  29.939   0.779
 4528W        W71596  34.979  23.706  11.597
 4529W        W71597  35.478   5.371  14.341
 4530W        W71598  23.603   8.759  10.643
 4531W        W71599  12.259  30.646   2.744
 4532W        W71600   3.877  24.691   1.858
 4533W        W71601  36.515  35.527   1.830
 4534W        W71602   7.369  41.811   4.704
 4535W        W71603   2.776  28.121   0.384
 4536W        W71604  27.157  20.072   1.264
 4537W        W71605  33.540  29.660   1.850
 4538W        W71606  21.190   5.701   0.751
 4539W        W71607  28.621  21.244   4.256
 4540W        W71608  14.781  12.249   0.963
 4541W        W71609  14.300  30.913   2.330
 4542W        W71610   0.816   9.719   2.283
 4543W        W71611  18.622   3.849   3.226
 4544W        W71612  40.956  39.994  13.413
 4545W        W71613  32.124  27.096   4.145
 4546W        W71614  13.316  44.322   9.951
 4547W        W71615   1.889  14.721   0.746
 4548W        W71616  33.908  13.196   3.344
 4549W        W71617  37.451  25.592   5.242
 4550W        W71618  34.577  13.625  13.035
 4551W        W71619  26.976  38.992   4.132
 4552W        W71620  20.180  16.739   1.797
 4553W        W71621  14.122  21.123  12.404
 4554W        W71622  40.426   1.458   3.381
 4555W        W71623  31.451  37.386   3.655
 4556W        W71624  20.217  12.799   3.310
 4557W        W71625  13.635  15.117   3.386
 4558W        W71626   7.671  31.072   2.732
 4559W        W71627   7.394   3.800  14.880
 4560W        W71628   9.769  44.762   4.262
 4561W        W71629  20.758  42.841  13.474
 4562W        W71630  37.541  26.094  12.352
 4563W        W71631   7.297  44.418  12.488
 4564W        W71632  23.998  25.067  13.888
 4565W        W71633  26.638  29.066  10.582
 4566W        W71634   2.229  27.023   0.920
 4567W        W71635  15.807   9.386   0.415
 4568W        W71636  17.253  43.815  14.938
 4569W        W71637   5.243  25.061  13.905
 4570W        W71638  30.604  24.221   4.706
 4571W        W71639   4.370   1.747   0.936
 4572W        W71640  39.466   4.910   3.857
 4573W        W71641  30.635  15.671  12.430
 4574W        W71642  34.098  12.263   0.861
 4575W        W71643  18.147  31.476   3.694
 4576W        W71644  26.161   8.791  14.001
 4577W        W71645  20.090  43.351   0.857
 4578W        W71646  38.053  28.157  12.025
 4579W        W71647  38.371  43.329   1.780
 4580W        W71648  15.093   4.908  11.467
 4581W        W71649  17.193  17.692   2.395
 4582W        W71650   7.334  20.215  12.396
 4583W        W71651  23.534   9.268   0.871
 4584W        W71652   5.719  44.349  13.034
 4585W        W71653   6.382  27.180  13.840
 4586W        W71654  13.790  41.296   3.368
 4587W        W71655  10.807   0.876  10.488
 4588W        W71656  41.801  33.547   4.782
 4589W        W71657  11.167  37.477  10.488
 4590W        W71658  24.555  31.029   2.271
 4591W        W71659  29.591  32.039   5.103
 4592W        W71660  15.613  25.514  14.397
 4593W        W71661  39.402  32.473  14.365
 4594W        W71662  38.330  18.293   3.782
 4595W        W71663  14.328   8.691   2.808
 4596W        W71664   5.727  16.078   2.899
 4597W        W71665  22.586  14.723  10.947
 4598W        W71666   4.277   8.320   0.785
 4599W        W71667  10.727  28.646   1.289
 4600W        W71668  11.362   1.815   4.227
 4601W        W71669  24.132  44.809  11.371
 4602W        W71670  15.667  19.571  14.319
 4603W        W71671  36.900  35.398  11.419
 4604W        W71672  24.707  32.635  10.613
 4605W        W71673  31.526  27.456  11.124
 4606W        W71674  10.713  38.374  11.474
 4607W        W71675   2.931  10.271   1.739
 4608W        W71676  39.422   3.237   1.280
 4609W        W71677  13.330  44.894   4.183
 4610W        W71678  40.798  24.224  14.794
 4611W        W71679  10.164  32.529  11.541
 4612W        W71680  42.366  14.100  10.531
 4613W        W71681  17.298  21.677   2.344
 4614W        W71682  30.078  12.790   0.480
 4615W        W71683  24.040   0.447  13.809
 4616W        W71684  10.222  11.181   2.226
 4617W        W71685  19.262  43.440   2.698
 4618W        W71686  30.986  11.305   0.457
 4619W        W71687  14.183  15.287   9.923
 4620W        W71688  12.213  25.046  11.543
 4621W        W71689  30.573  19.110   4.739
 4622W        W71690  43.980  28.939   0.855
 4623W        W71691  33.554  16.755  10.063
 4624W        W71692  21.670  35.916   5.139
 4625W        W71693  27.106  39.960  11.964
 4626W        W71694  42.345   3.454   3.276
 4627W        W71695   1.360  22.082  13.369
 4628W        W71696  13.775  37.078   1.851
 4629W        W71697  12.822  33.111   1.839
 4630W        W71698  11.172  36.570  11.979
 4631W        W71699   2.278   7.288   2.877
 4632W        W71700   0.781  33.888   1.842
 4633W        W71701  44.272  11.153  11.445
 4634W        W71702   8.389  21.098   2.761
 4635W        W71703  43.855  14.226  11.914
 4636W        W71704   6.706  22.617  11.961
 4637W        W71705  30.987  20.272  13.952
 4638W        W71706  29.475  13.645  12.429
 4639W        W71707  29.609  44.789   2.187
 4640W        W71708  44.399  12.176  10.054
 4641W        W71709  19.780  12.315  14.506
 4642W        W71710  34.025  23.121   0.419
 4643W        W71711  12.324  39.936  11.494
 4644W        W71712  27.062  36.023  13.006
 4645W        W71713  29.430   8.761   5.132
 4646W        W71714  12.648   9.279   3.860
 4647W        W71715  44.904   4.330  14.294
 4648W        W71716   4.233   2.960  14.825
 4649W        W71717  44.842  34.593   2.803
 4650W        W71718  42.380  10.275  14.970
 4651W        W71719  35.101  38.461   2.727
 4652W        W71720  40.414  16.665  13.385
 4653W        W71721  26.087  26.664  12.473
 4654W        W71722  33.929  34.600  13.818
 4655W        W71723  29.046  23.059  13.364
 4656W        W71724  40.934  31.989  10.423
 4657W        W71725  12.308  20.681   3.160
 4658W        W71726  10.384  36.513  13.809
 4659W        W71727   8.758  19.044   2.216
 4660W        W71728  34.432  15.588  12.021
 4661W        W71729  14.254  13.657  14.851
 4662W        W71730   4.283  21.157  11.418
 4663W        W71731   5.432  20.152   4.740
 4664W        W71732  26.012   6.322  12.464
 4665W        W71733   6.304  43.316   0.850
 4666W        W71734  28.577  42.324   3.171
 4667W        W71735  36.902   1.277   1.407
 4668W        W71736  19.605  40.338  10.100
 4669W        W71737  38.069  23.636  13.803
 4670W        W71738  24.068  10.320  10.418
 4671W        W71739  37.524  29.453   3.345
 4672W        W71740   2.841   1.237  13.458
 4673W        W71741  22.747  14.733   4.150
 4674W        W71742   8.851  20.722  12.019
 4675W        W71743   0.754  28.985  10.917
 4676W        W71744  44.894  34.071   2.782
 4677W        W71745  40.441  30.436   0.836
 4678W        W71746  18.737  35.976   1.851
 4679W        W71747  11.315  37.404  14.371
 4680W        W71748  39.012   9.680   1.703
 4681W        W71749  11.310  28.041   0.925
 4682W        W71750  18.588  30.469  11.021
 4683W        W71751  20.062  18.652  14.860
 4684W        W71752  20.630  21.226   1.782
 4685W        W71753  28.569   0.851   0.909
 4686W        W71754   5.875  23.177   0.755
 4687W        W71755  28.034  27.638  10.426
 4688W        W71756  40.018   9.277  11.104
 4689W        W71757   6.873  14.186   4.322
 4690W        W71758  16.655  25.032  12.916
 4691W        W71759   6.750  18.721  13.946
 4692W        W71760  31.509  23.728   4.740
 4693W        W71761  36.362  22.705   4.719
 4694W        W71762   6.354  27.478  14.319
 4695W        W71763  24.639   8.727   3.656
 4696W        W71764  22.086  32.540  14.928
 4697W        W71765  44.413  30.142   5.271
 4698W        W71766   1.772   3.386  14.776
 4699W        W71767  42.523  10.714  12.483
 4700W        W71768  13.781  43.430  12.876
 4701W        W71769  36.000  11.790   0.841
 4702W        W71770  25.613  12.816   3.685
 4703W        W71771  14.756  27.156   2.756
 4704W        W71772  36.458  23.548  14.349
 4705W        W71773  14.673  43.885   3.644
 4706W        W71774  15.641  40.970   0.777
 4707W        W71775  21.035  43.809  14.998
 4708W        W71776  19.576  26.957  11.971
 4709W        W71777   3.789  13.773  13.506
 4710W        W71778  24.657  34.372   2.233
 4711W        W71779  22.244   3.922  12.407
 4712W        W71780  44.008  41.855   1.254
 4713W        W71781  20.062  39.322   0.907
 4714W        W71782  37.876   4.770  13.378
 4715W        W71783   4.889   3.360  14.337
 4716W        W71784  33.607  12.207  13.504
 4717W        W71785  21.621  22.240  11.002
 4718W        W71786  21.110   9.304   2.794
 4719W        W71787   8.849  42.929  14.402
 4720W        W71788  36.570  11.190  12.468
 4721W        W71789  12.710  15.802   1.321
 4722W        W71790  11.218  37.573  13.819
 4723W        W71791  38.947   3.926   3.385
 4724W        W71792  30.050  12.172   3.340
 4725W        W71793  11.234  12.772   4.705
 4726W        W71794  17.795  27.494  11.889
 4727W        W71795  26.696   5.438   4.839
 4728W        W71796  10.805  10.174  13.438
 4729W        W71797  14.681   7.716   5.170
 4730W        W71798   4.921  28.084   4.683
 4731W        W71799  13.659  18.782   2.889
 4732W        W71800  30.625  39.341  13.390
 4733W        W71801  43.963  27.645  12.860
 4734W        W71802   6.765  30.613   1.380
 4735W        W71803   8.292  42.958   2.387
 4736W        W71804  44.494   0.881   2.281
 4737W        W71805  14.171  28.674   3.236
 4738W        W71806   7.249  13.316  11.564
 4739W        W71807   6.367  29.018  12.955
 4740W        W71808  38.363   3.225   3.276
 4741W        W71809  24.514  31.047   3.655
 4742W        W71810   0.980   9.856  14.376
 4743W        W71811  12.680  17.137  11.526
 4744W        W71812  27.560   7.298  11.446
 4745W        W71813  27.596  40.832  12.372
 4746W        W71814  43.375  24.991  13.971
 4747W        W71815  42.436  21.749   3.263
 4748W        W71816  20.043  27.461   0.443
 4749W        W71817  27.154  37.377  13.516
 4750W        W71818  21.242   1.354   0.402
 4751W        W71819  40.329  33.973   4.825
 4752W        W71820   8.866  20.137  14.504
 4753W        W71821  17.078  30.137   0.421
 4754W        W71822   5.905   5.840  13.841
 4755W        W71823  16.188  13.697  13.928
 4756W        W71824  43.980  43.812   0.398
 4757W        W71825  26.976  14.781  13.543
 4758W        W71826  36.454  19.665   3.181
 4759W        W71827  20.130  13.262   4.135
 4760W        W71828   3.262  38.978  10.966
 4761W        W71829  38.389  21.080  11.996
 4762W        W71830  19.663  22.507   3.195
 4763W        W71831   3.388  28.672  10.505
 4764W        W71832  20.119  19.206   1.933
 4765W        W71833   9.772   8.654  14.433
 4766W        W71834  40.801   5.301   0.934
 4767W        W71835  30.477  37.444  10.637
 4768W        W71836  43.974   3.267   4.205
 4769W        W71837  27.564  10.368  13.005
 4770W        W71838  25.089  26.498  11.890
 4771W        W71839   8.865  30.079  11.050
 4772W        W71840  36.080  23.589   1.420
 4773W        W71841  30.515   6.914   1.774
 4774W        W71842  41.520  19.236  11.053
 4775W        W71843  20.614  11.343   3.303
 4776W        W71844   9.295  37.958   4.328
 4777W        W71845  15.582  26.522   2.323
 4778W        W71846  10.863  10.659   2.276
 4779W        W71847  41.963  42.357  11.872
 4780W        W71848  12.334  33.517  13.469
 4781W        W71849  22.655  31.137  14.494
 4782W        W71850  15.285  44.341  13.308
 4783W        W71851  18.249   0.893   0.745
 4784W        W71852  10.757  12.349   0.818
 4785W        W71853  24.649  13.342   4.123
 4786W        W71854  29.664   8.729  11.449
 4787W        W71855  19.669  39.524  14.441
 4788W        W71856  23.052   7.713  13.466
 4789W        W71857  40.004  14.815  12.513
 4790W        W71858  26.638  11.227   3.237
 4791W        W71859  30.957  28.959  13.809
 4792W        W71860  30.588  23.176  10.503
 4793W        W71861  14.282  12.343   3.814
 4794W        W71862   9.770  38.998   2.744
 4795W        W71863   8.717  42.476  10.504
 4796W        W71864  24.118  32.058   5.230
 4797W        W71865  34.869  23.505   4.714
 4798W        W71866   2.804  12.832  10.925
 4799W        W71867   6.271  22.606  13.409
 4800W        W71868  22.012  39.973  12.962
 4801W        W71869   0.938  39.994   2.277
 4802W        W71870  12.797   1.855  11.392
 4803W        W71871  29.137  42.900   3.776
 4804W        W71872  28.041   5.254   3.839
 4805W        W71873  44.280  39.361  11.033
 4806W        W71874  32.466  29.062  14.470
 4807W        W71875  13.732   8.743  14.759
 4808W        W71876  23.174   2.819  14.427
 4809W        W71877  30.460  23.191   1.796
 4810W        W71878  11.183  27.962   2.235
 4811W        W71879  10.721  24.988  14.512
 4812W        W71880  30.120   3.431  12.063
 4813W        W71881  19.075  33.082   0.386
 4814W        W71882  27.664   6.200  11.890
 4815W        W71883  10.150  40.527   3.648
 4816W        W71884  11.720  31.623   4.637
 4817W        W71885  26.073  12.263  12.983
 4818W        W71886   1.784  29.926  14.499
 4819W        W71887  30.036  14.284  11.514
 4820W        W71888   8.748  25.657   3.266
 4821W        W71889  18.089  42.865   0.953
 4822W        W71890  29.106  20.238   0.917
 4823W        W71891   0.881  30.970   3.795
 4824W        W71892   8.204  31.556   1.865
 4825W        W71893  33.480  40.436   3.658
 4826W        W71894  43.767  40.999   4.125
 4827W        W71895  13.193  44.376  12.574
 4828W        W71896  12.163  29.042   3.822
 4829W        W71897  29.613  11.154   1.910
 4830W        W71898  23.576  26.569   1.929
 4831W        W71899   0.290  23.059   4.287
 4832W        W71900  33.546  36.413  13.861
 4833W        W71901  13.844   6.296   4.335
 4834W        W71902  41.986  26.161  10.985
 4835W        W71903   1.261  22.192  11.993
 4836W        W71904  20.260  27.608  13.497
 4837W        W71905  22.641  35.861  12.558
 4838W        W71906  43.458  35.886  14.891
 4839W        W71907  14.645   1.852  12.058
 4840W        W71908  33.921  37.449   5.259
 4841W        W71909  40.352  32.998  14.970
 4842W        W71910  43.871  43.503   3.153
 4843W        W71911  26.622  28.471   1.223
 4844W        W71912  33.987  20.249   2.195
 4845W        W71913   2.922  40.997  12.980
 4846W        W71914  11.721  11.150   1.384
 4847W        W71915  26.514  16.090  12.898
 4848W        W71916  40.022   0.886   2.716
 4849W        W71917   9.690  10.317  14.281
 4850W        W71918  25.188  38.919   4.825
 4851W        W71919  22.567  42.314   1.711
 4852W        W71920   6.862  19.630   0.963
 4853W        W71921  22.045  37.369  11.439
 4854W        W71922   2.838  35.935   1.839
 4855W        W71923  21.691  30.500  13.821
 4856W        W71924   8.160  33.426  11.498
 4857W        W71925  40.844  16.141  11.524
 4858W        W71926  11.293   5.429   4.778
 4859W        W71927  11.631  43.858   1.407
 4860W        W71928  15.194   4.777   0.373
 4861W        W71929  16.102  40.431   3.728
 4862W        W71930  29.541   0.400   1.782
 4863W        W71931  32.481  17.702  13.039
 4864W        W71932  41.536   3.395  10.517
 4865W        W71933  42.973  27.637  13.948
 4866W        W71934   2.934  33.092   3.642
 4867W        W71935  29.144  23.537   0.345
 4868W        W71936  15.659  32.390   3.247
 4869W        W71937  40.947  29.974   4.616
 4870W        W71938  30.908  17.638  13.791
 4871W        W71939  27.186  10.231   3.812
 4872W        W71940  28.660  17.085   2.879
 4873W        W71941  44.754  39.958  14.947
 4874W        W71942  37.360  10.694  13.845
 4875W        W71943  35.566  22.024  12.437
 4876W        W71944  37.580  31.648   0.933
 4877W        W71945   9.239  37.507  11.988
 4878W        W71946  27.080  36.364  14.976
 4879W        W71947  17.703  38.515  12.945
 4880W        W71948   7.909  40.812   4.645
 4881W        W71949  19.766  35.077   0.945
 4882W        W71950   6.225  30.639   4.703
 4883W        W71951  34.998  10.384   4.297
 4884W        W71952  16.270  14.773  14.411
 4885W        W71953  19.151  10.311   1.794
 4886W        W71954   2.307  30.032   4.221
 4887W        W71955  22.211  44.302   1.250
 4888W        W71956   5.831  44.922  14.786
 4889W        W71957  27.992  44.493   1.824
 4890W        W71958  24.106  26.155   2.218
 4891W        W71959  10.779  17.710  10.917
 4892W        W71960  39.488  30.125   3.869
 4893W        W71961  30.127  26.463   5.245
 4894W        W71962  43.793   5.837  11.019
 4895W        W71963   0.743  15.589  13.962
 4896W        W71964  19.061  40.993   3.311
 4897W        W71965   2.277  10.325  12.559
 4898W        W71966  35.989   4.259  14.422
 4899W        W71967   8.261  32.907   0.469
 4900W        W71968  17.673  30.980  13.470
 4901W        W71969  39.378  31.483  11.400
 4902W        W71970  14.621   7.182  11.107
 4903W        W71971  15.809   8.692  10.431
 4904W        W71972  41.407  40.375  10.493
 4905W        W71973   9.761  38.421  13.392
 4906W        W71974   9.737  29.920   0.346
 4907W        W71975  17.176   5.784  12.824
 4908W        W71976   6.787  24.199  13.402
 4909W        W71977  25.037  36.360  10.497
 4910W        W71978  10.181   9.767   4.673
 4911W        W71979  10.831  16.713  13.506
 4912W        W71980   8.248  19.731   1.814
 4913W        W71981  10.345   7.343  10.956
 4914W        W71982   3.900  24.075   4.118
 4915W        W71983  36.098  37.960   1.380
 4916W        W71984   6.910   8.697  13.964
 4917W        W71985  26.108  20.088   1.893
 4918W        W71986   7.277  23.516  11.529
 4919W        W71987   5.748  20.587  14.893
 4920W        W71988  36.981   1.845  10.955
 4921W        W71989  43.969   2.340   1.380
 4922W        W71990  29.068  20.738  12.578
 4923W        W71991  32.489  16.140  11.583
 4924W        W71992  16.129  15.288   3.345
 4925W        W71993   9.307  10.367   0.395
 4926W        W71994  38.378  10.871   4.212
 4927W        W71995  14.703  27.006   1.417
 4928W        W71996   0.931  36.939  13.800
 4929W        W71997  43.003   2.349  10.573
 4930W        W71998   7.230  21.075  12.517
 4931W        W71999  41.887  10.754   1.312
 4932W        W72000   2.409  19.550  10.925
 4933W        W72001  23.045  40.309   5.195
 4934W        W72002  29.535  40.008  11.038
 4935W        W72003   0.897  20.266   3.342
 4936W        W72004  25.079  16.275   3.746
 4937W        W72005  43.373  11.172  11.989
 4938W        W72006  13.265  31.943   1.444
 4939W        W72007  15.736   2.820   0.452
 4940W        W72008  13.268  30.615   1.772
 4941W        W72009  43.796  37.538   4.605
 4942W        W72010  27.515   2.418   3.246
 4943W        W72011  21.678  13.613  13.886
 4944W        W72012  21.561   2.244  11.558
 4945W        W72013  38.393  27.649  14.866
 4946W        W72014  11.745  38.380   0.418
 4947W        W72015  28.098  14.241   1.849
 4948W        W72016  22.683  30.042   2.416
 4949W        W72017   8.202  37.835   0.316
 4950W        W72018  13.296  11.200  11.517
 4951W        W72019  19.242  40.519  10.435
 4952W        W72020  38.531  37.432  14.800
 4953W        W72021  17.113  21.590  13.442
 4954W        W72022   9.811  36.575   2.351
 4955W        W72023  24.973  16.680   0.359
 4956W        W72024  42.847   1.442   0.283
 4957W        W72025  38.985  40.804   3.252
 4958W        W72026  12.248  25.122   3.647
 4959W        W72027  35.044  41.845  13.337
 4960W        W72028  27.043  36.537  12.374
 4961W        W72029  44.298  22.120   4.237
 4962W        W72030  31.960   0.936  12.492
 4963W        W72031  23.114  16.725   3.257
 4964W        W72032  34.597  38.519   2.418
 4965W        W72033  18.183  36.512  10.411
 4966W        W72034   9.870  44.940   1.752
 4967W        W72035   9.838  39.934   1.779
 4968W        W72036  28.977  27.619   1.325
 4969W        W72037   2.741  30.487  11.933
 4970W        W72038  24.119   1.409   3.381
 4971W        W72039  29.432   9.373  13.332
 4972W        W72040  35.853  23.723  10.581
 4973W        W72041  43.423  34.103   4.801
 4974W        W72042   9.192  29.426  12.497
 4975W        W72043  17.265  31.411  10.496
 4976W        W72044  33.444  32.435   0.923
 4977W        W72045  15.276  40.449  11.417
 4978W        W72046   8.392  28.480  13.414
 4979W        W72047  44.395  43.450  12.444
 4980W        W72048  15.656  20.065  14.768
 4981W        W72049  32.620  14.314   1.236
 4982W        W72050   9.850  22.556  13.846
 4983W        W72051   0.778  29.139  14.804
 4984W        W72052  32.094  36.043   1.885
 4985W        W72053  33.461  32.429  14.293
 4986W        W72054  24.170   8.683   5.122
 4987W        W72055   5.917  15.123  12.084
 4988W        W72056  35.475   8.296  14.920
 4989W        W72057  37.894  35.027  10.888
 4990W        W72058  43.308  18.135   4.217
 4991W        W72059   2.839  15.299  14.410
 4992W        W72060  19.246  30.033   3.738
 4993W        W72061  38.984  26.127  10.413
 4994W        W72062   1.455   5.785  12.544
 4995W        W72063   7.258  18.130   1.888
 4996W        W72064  22.094  25.059   4.347
 4997W        W72065  25.602  19.260   1.384
 4998W        W72066  39.859  10.729  10.621
 4999W        W72067  43.990  25.054   3.803
 5000W        W72068  16.792  25.497  12.569
 5001W        W72069   9.884  44.927   2.189
 5002W        W72070  12.151   5.196   0.264
 5003W        W72071  12.833  11.713   4.224
 5004W        W72072  11.628  25.498   4.627
 5005W        W72073  38.466  12.703   2.259
 5006W        W72074  38.543  44.295   4.633
 5007W        W72075   6.856   1.304  12.387
 5008W        W72076   8.803  18.660   5.155
 5009W        W72077   0.792  26.624   0.356
 5010W        W72078  20.183  21.092  11.893
 5011W        W72079  17.136   8.388   3.706
 5012W        W72080  24.171  24.100   3.181
 5013W        W72081   0.336  32.000  12.572
 5014W        W72082   4.764   4.332   3.743
 5015W        W72083  43.312  18.737  13.956
 5016W        W72084  41.901  34.605  13.879
 5017W        W72085  24.076  23.541  10.010
 5018W        W72086  13.793  39.012   4.238
 5019W        W72087  17.615  29.157   1.307
 5020W        W72088   0.272  32.513  10.523
 5021W        W72089  32.058  15.701   1.435
 5022W        W72090   9.701  35.074  13.423
 5023W        W72091  22.700  20.717   1.875
 5024W        W72092  28.493  21.555   2.728
 5025W        W72093  33.485  32.609  12.565
 5026W        W72094   9.815  42.018   3.682
 5027W        W72095  33.011  10.663   1.798
 5028W        W72096  21.523   8.222  13.912
 5029W        W72097  31.072  41.306   0.889
 5030W        W72098  33.421   3.824  12.965
 5031W        W72099  44.880  32.035   3.156
 5032W        W72100  27.666  40.481   1.285
 5033W        W72101  32.601   8.768  14.902
 5034W        W72102  44.328  42.009  12.450
 5035W        W72103  23.064   3.420   4.339
 5036W        W72104  39.401  36.853  13.459
 5037W        W72105  18.692  34.090  11.401
 5038W        W72106  14.131  42.346   1.403
 5039W        W72107  40.879  27.561  10.506
 5040W        W72108  43.309  43.021   2.314
 5041W        W72109  21.619   6.362  10.543
 5042W        W72110  31.552   2.453  12.022
 5043W        W72111  35.006  29.636   0.857
 5044W        W72112  12.341   1.855   2.190
 5045W        W72113   6.274   8.820   4.162
 5046W        W72114  35.003   3.944   1.908
 5047W        W72115  16.113  23.151   4.186
 5048W        W72116  32.051  30.533   2.272
 5049W        W72117  41.406   6.799   3.639
 5050W        W72118  22.529   4.795  10.430
 5051W        W72119   5.782  22.176  14.417
 5052W        W72120   8.671   9.178   3.373
 5053W        W72121  28.648  17.634   3.760
 5054W        W72122  11.707  27.072  12.383
 5055W        W72123  43.305  40.983  11.027
 5056W        W72124  37.022  15.690   4.826
 5057W        W72125  22.578  30.422  11.062
 5058W        W72126  40.934  43.498   1.801
 5059W        W72127   2.364  41.412  10.532
 5060W        W72128  25.504  14.328  10.449
 5061W        W72129  40.953  43.951   0.422
 5062W        W72130  33.547   5.788  14.515
 5063W        W72131  29.986  42.477   3.237
 5064W        W72132  44.903  12.199  10.572
 5065W        W72133  27.601  14.217   4.122
 5066W        W72134  21.713  34.933   1.918
 5067W        W72135  15.328  10.251   0.755
 5068W        W72136  29.131   9.730   4.153
 5069W        W72137  35.902  26.163   1.407
 5070W        W72138  29.126  19.533   0.942
 5071W        W72139  36.032  21.692  13.801
 5072W        W72140  20.765  23.229  12.918
 5073W        W72141  22.561  26.490  11.536
 5074W        W72142  37.040   7.774   2.255
 5075W        W72143  38.392  22.021  10.433
 5076W        W72144  16.280  36.971  13.841
 5077W        W72145   0.746  35.456   3.771
 5078W        W72146   8.327   7.869  10.569
 5079W        W72147  44.844  12.203  13.045
 5080W        W72148  31.951  15.185  13.054
 5081W        W72149  39.885  12.842   1.290
 5082W        W72150  27.038  40.400   0.247
 5083W        W72151  43.981  12.332   4.754
 5084W        W72152  17.252  16.258   0.446
 5085W        W72153  15.713  12.309   3.834
 5086W        W72154  39.944  41.880   4.113
 5087W        W72155  35.496  38.503   4.176
 5088W        W72156  10.289  24.978   1.888
 5089W        W72157  12.211   6.404  11.057
 5090W        W72158  18.060   3.261  12.557
 5091W        W72159  34.610  43.449   1.405
 5092W        W72160  37.968  26.059   0.883
 5093W        W72161  22.024   8.822  11.946
 5094W        W72162  40.334  43.473  13.495
 5095W        W72163  36.033   0.862   1.382
 5096W        W72164  35.562  22.181   4.737
 5097W        W72165   6.735  32.899  13.880
 5098W        W72166  12.125  27.493   2.218
 5099W        W72167  26.016   7.204   4.767
 5100W        W72168  37.877  24.107   3.387
 5101W        W72169  10.653  16.755   2.728
 5102W        W72170   5.322  10.649  11.446
 5103W        W72171  29.575  18.205  14.781
 5104W        W72172  19.611  29.566   0.863
 5105W        W72173   0.312   7.832  14.455
 5106W        W72174  34.955  29.641   2.867
 5107W        W72175   8.724  28.142   1.847
 5108W        W72176  29.573   6.298  11.055
 5109W        W72177   5.752  10.776   0.842
 5110W        W72178  41.532  21.100   1.729
 5111W        W72179  20.585  38.851   3.274
 5112W        W72180  18.296   7.903  14.883
 5113W        W72181  31.091  27.454  12.369
 5114W        W72182  29.105  25.516   4.196
 5115W        W72183  14.224  24.618   4.351
 5116W        W72184  11.191  12.280   1.368
 5117W        W72185  13.214  40.468   3.237
 5118W        W72186   2.911   0.968   1.789
 5119W        W72187   6.421   6.331   4.781
 5120W        W72188  35.493  11.363  13.330
 5121W        W72189   2.800  10.763  13.418
 5122W        W72190  27.639  23.566   3.651
 5123W        W72191  13.769  33.435  10.909
 5124W        W72192  38.524  30.139  12.012
 5125W        W72193   2.455  22.107  13.361
 5126W        W72194  16.296  19.711  11.093
 5127W        W72195  14.812  17.691  14.009
 5128W        W72196  41.918  38.062  12.406
 5129W        W72197  18.095  17.763   4.206
 5130W        W72198   8.735  30.092   0.915
 5131W        W72199  43.395  20.232  11.530
 5132W        W72200  33.556   7.671  12.062
 5133W        W72201   9.815  27.034   4.185
 5134W        W72202  37.974  24.066   1.761
 5135W        W72203   7.837  25.508  11.374
 5136W        W72204  37.567   1.916   4.752
 5137W        W72205  27.611  14.602   3.864
 5138W        W72206  25.215   5.813  10.480
 5139W        W72207  11.338   4.871   4.786
 5140W        W72208  20.178  41.015   1.349
 5141W        W72209  19.112  13.651   2.736
 5142W        W72210  10.804  19.656  12.054
 5143W        W72211  35.912  41.872   3.704
 5144W        W72212  24.147  18.219  11.932
 5145W        W72213  36.406  40.395  11.511
 5146W        W72214  22.623  13.785  11.988
 5147W        W72215  12.853   3.740  13.834
 5148W        W72216  24.659  33.556  10.614
 5149W        W72217  43.826  31.944   0.769
 5150W        W72218  43.313  41.891   0.954
 5151W        W72219  31.597  24.566   9.488
 5152W        W72220  41.941  27.617   1.423
 5153W        W72221   3.349  30.922  13.913
 5154W        W72222  29.544  25.571   5.134
 5155W        W72223  16.098  22.016   5.777
 5156W        W72224  34.987  22.173  14.978
 5157W        W72225  13.127  13.819  13.820
 5158W        W72226   4.351   8.387   2.201
 5159W        W72227   3.746   1.242   1.340
 5160W        W72228  14.596  17.109  11.509
 5161W        W72229   2.302  18.152   4.280
 5162W        W72230  31.114  25.026   0.402
 5163W        W72231  26.165  21.709  10.482
 5164W        W72232  19.729  16.796   2.198
 5165W        W72233  43.856  31.464   0.928
 5166W        W72234  23.080  15.769   2.381
 5167W        W72235  21.053  39.519  11.567
 5168W        W72236  39.512   1.281  12.514
 5169W        W72237  20.258  11.814  13.429
 5170W        W72238  24.709  10.139   9.924
 5171W        W72239  41.030  20.195   1.388
 5172W        W72240  44.492   9.649   2.688
 5173W        W72241  30.104  23.662  12.936
 5174W        W72242  19.273  32.604  11.464
 5175W        W72243  44.483   5.279  14.927
 5176W        W72244   9.741  12.132   0.322
 5177W        W72245  38.825  15.723   3.359
 5178W        W72246  34.563   6.234  11.028
 5179W        W72247  28.497  42.399   0.263
 5180W        W72248  17.108   2.787  11.999
 5181W        W72249  35.103  16.151   2.686
 5182W        W72250   5.432  15.238  13.413
 5183W        W72251  13.724  23.053   2.339
 5184W        W72252  35.068  41.788  14.797
 5185W        W72253   6.765  11.356  12.532
 5186W        W72254   3.439  38.569   0.818
 5187W        W72255  21.186  41.474   2.353
 5188W        W72256  15.304  44.370   2.894
 5189W        W72257   2.392  25.091   0.836
 5190W        W72258  44.010  28.645   1.820
 5191W        W72259  10.793  24.680   2.253
 5192W        W72260  41.317  43.001   3.375
 5193W        W72261  29.495   1.319   4.336
 5194W        W72262  27.169  26.042  10.641
 5195W        W72263  36.451  13.221   2.766
 5196W        W72264  11.798   3.314   0.906
 5197W        W72265  36.546  31.948  11.591
 5198W        W72266  21.147  28.092  14.878
 5199W        W72267  38.350  40.885  12.930
 5200W        W72268  39.953   4.285  12.936
 5201W        W72269  31.410  26.470  13.010
 5202W        W72270   7.686  42.939   2.349
 5203W        W72271  14.118  39.544   3.672
 5204W        W72272  25.641  24.201  12.825
 5205W        W72273  19.232  40.397   1.777
 5206W        W72274  23.154  34.483  14.447
 5207W        W72275  28.134  22.015  14.843
 5208W        W72276  16.736  12.317   1.890
 5209W        W72277  43.879  43.821   1.824
 5210W        W72278  16.639  32.421   1.791
 5211W        W72279  33.593  42.901  12.067
 5212W        W72280  42.032  21.091   5.251
 5213W        W72281   3.847  20.688   3.376
 5214W        W72282  10.325  37.449   9.991
 5215W        W72283  16.576   4.209  10.488
 5216W        W72284   8.833  18.624  14.287
 5217W        W72285   6.230  21.698   2.729
 5218W        W72286   4.934  28.455   4.223
 5219W        W72287   1.368  44.978  10.922
 5220W        W72288  14.636  31.944   1.351
 5221W        W72289  33.020  23.210   0.932
 5222W        W72290  44.968   0.316  13.814
 5223W        W72291  30.117  33.102  12.417
 5224W        W72292   9.326   6.852  14.917
 5225W        W72293  30.595   9.767   4.702
 5226W        W72294  32.582  27.467  12.856
 5227W        W72295  18.148  27.585  11.098
 5228W        W72296  10.783  12.214   2.329
 5229W        W72297  20.548  15.679  11.992
 5230W        W72298  20.102  37.506   2.338
 5231W        W72299   9.390   0.492   2.362
 5232W        W72300  39.018  27.503  11.986
 5233W        W72301  33.902  23.651  12.549
 5234W        W72302   5.933   6.276   2.753
 5235W        W72303  44.400  17.263   4.649
 5236W        W72304  37.961  19.213   1.296
 5237W        W72305  29.462  32.097   9.974
 5238W        W72306  35.914   1.271   3.263
 5239W        W72307  20.629  13.753  10.913
 5240W        W72308  35.467  26.171   2.891
 5241W        W72309  35.434  39.894   4.613
 5242W        W72310   6.361   6.348   1.237
 5243W        W72311   3.396   3.301  10.895
 5244W        W72312  35.486  33.993   1.900
 5245W        W72313  39.343  41.365   0.849
 5246W        W72314  37.511  17.245  14.856
 5247W        W72315  27.584  23.155  13.962
 5248W        W72316   2.430  43.869  14.983
 5249W        W72317   8.182  41.418  12.871
 5250W        W72318  43.289   4.216  14.921
 5251W        W72319  30.996  38.920   3.386
 5252W        W72320  41.362  13.164  14.829
 5253W        W72321   7.239  20.600  11.487
 5254W        W72322   6.273  23.682  13.014
 5255W        W72323  34.423  27.997   1.823
 5256W        W72324  43.910   5.738   1.846
 5257W        W72325   6.421  17.187   9.927
 5258W        W72326   2.228  33.003   4.623
 5259W        W72327  38.412   4.396   1.264
 5260W        W72328  12.341  43.812   2.764
 5261W        W72329   3.381  18.777  10.499
 5262W        W72330  38.417  29.654   2.827
 5263W        W72331  14.166  32.567  13.005
 5264W        W72332   7.328  37.983  12.025
 5265W        W72333  22.067  30.564   1.249
 5266W        W72334  19.048   3.722  10.970
 5267W        W72335  39.809  38.379   1.280
 5268W        W72336  15.734  22.138  12.397
 5269W        W72337  16.177  38.052  12.019
 5270W        W72338  10.856  40.545  13.419
 5271W        W72339  27.041  20.745   0.350
 5272W        W72340  10.697  15.720   4.192
 5273W        W72341  44.332  30.433   3.346
 5274W        W72342   2.758   8.794   3.157
 5275W        W72343  17.205  40.465  10.481
 5276W        W72344  29.546  16.157  10.958
 5277W        W72345   8.212   1.480   5.585
 5278W        W72346  31.007   4.768   0.770
 5279W        W72347  34.120  18.761   0.372
 5280W        W72348   9.792  29.637  13.485
 5281W        W72349   5.291  18.061  13.390
 5282W        W72350   8.857  27.000   3.848
 5283W        W72351  37.864  11.158  12.523
 5284W        W72352  37.062  44.378   3.359
 5285W        W72353  25.984  18.275   2.810
 5286W        W72354  21.663   6.279   0.247
 5287W        W72355  34.109   6.891   4.731
 5288W        W72356  19.650  13.114  13.488
 5289W        W72357  30.039  39.325   3.280
 5290W        W72358  11.804   6.715   2.388
 5291W        W72359   5.774   2.790  14.472
 5292W        W72360  41.524   8.808  14.781
 5293W        W72361  32.024  38.961  12.458
 5294W        W72362   8.826   4.906   0.952
 5295W        W72363  26.183  13.663   2.382
 5296W        W72364   4.879   9.310  11.380
 5297W        W72365  26.005  41.409   1.260
 5298W        W72366   8.350  20.184   4.642
 5299W        W72367  17.705  43.460   1.803
 5300W        W72368   5.687  34.609   4.240
 5301W        W72369  20.667  28.440   4.689
 5302W        W72370  35.538  18.091  11.578
 5303W        W72371   5.412  11.156  12.567
 5304W        W72372  28.587  33.497  13.312
 5305W        W72373   4.799   1.441  13.426
 5306W        W72374  23.547   4.252  10.510
 5307W        W72375  15.595  32.535   1.329
 5308W        W72376  40.408   8.388   3.248
 5309W        W72377  29.145  29.994   0.362
 5310W        W72378   7.259   8.170  11.938
 5311W        W72379  32.049  44.275   3.701
 5312W        W72380  39.542  28.528   0.786
 5313W        W72381  20.087  17.063  13.957
 5314W        W72382  39.436   1.970   3.342
 5315W        W72383  23.024  39.982  12.935
 5316W        W72384   4.397  31.017  12.928
 5317W        W72385  25.669   8.788   1.288
 5318W        W72386  11.197  22.727  11.513
 5319W        W72387   9.697  15.585  12.933
 5320W        W72388  12.749  40.897  13.546
 5321W        W72389  20.114  39.056  13.423
 5322W        W72390  14.286   6.738   1.381
 5323W        W72391  19.706  11.165  13.478
 5324W        W72392  25.699  34.447   1.833
 5325W        W72393  44.835  35.432   0.253
 5326W        W72394  17.664  28.561  14.828
 5327W        W72395  18.549   4.368  12.577
 5328W        W72396  40.508   3.730   3.806
 5329W        W72397  37.344  10.677   2.886
 5330W        W72398  27.522  16.763  10.933
 5331W        W72399   9.650   9.843  13.524
 5332W        W72400  24.075   2.934   0.401
 5333W        W72401  38.352  17.080  12.527
 5334W        W72402  25.500  41.950  13.363
 5335W        W72403  42.424  26.549   2.709
 5336W        W72404  32.082  32.055   4.723
 5337W        W72405   6.793  26.205  13.851
 5338W        W72406   8.857  26.994   1.711
 5339W        W72407  32.069  32.920   1.427
 5340W        W72408   6.422  26.607  13.369
 5341W        W72409   1.350  16.164   2.362
 5342W        W72410  37.956  32.104   0.875
 5343W        W72411   4.375   8.335  13.059
 5344W        W72412  20.199  28.510   2.847
 5345W        W72413  29.937  22.678   2.363
 5346W        W72414  32.961   0.318  14.949
 5347W        W72415  18.244  41.430  10.445
 5348W        W72416  29.945   8.697   1.754
 5349W        W72417  21.232  24.139  12.499
 5350W        W72418  38.354  13.240   1.352
 5351W        W72419  42.456  42.427   4.768
 5352W        W72420  18.138  23.720  10.610
 5353W        W72421  34.026  11.196  13.939
 5354W        W72422   9.707   3.797   3.274
 5355W        W72423  32.069  18.241   0.916
 5356W        W72424  24.128  28.003   0.923
 5357W        W72425  42.934  44.985  14.917
 5358W        W72426   1.779  37.931   0.956
 5359W        W72427  25.091  31.600   3.708
 5360W        W72428  36.422   0.876  14.872
 5361W        W72429  35.486  25.473   4.759
 5362W        W72430   3.728  29.098  10.549
 5363W        W72431  12.132  10.670   4.792
 5364W        W72432  28.935  37.356  11.984
 5365W        W72433  34.989  22.241   1.747
 5366W        W72434  36.969  27.070   3.220
 5367W        W72435  19.064  31.013   0.887
 5368W        W72436  21.125  34.111   3.323
 5369W        W72437  15.694   4.761  12.018
 5370W        W72438  43.289  11.334   0.451
 5371W        W72439  36.097  21.124   3.256
 5372W        W72440   0.947  16.275   1.719
 5373W        W72441  41.293   0.876   2.202
 5374W        W72442  38.466  12.638  14.868
 5375W        W72443  24.171   8.327   4.283
 5376W        W72444   9.370   1.432   1.284
 5377W        W72445  43.477  22.689  12.955
 5378W        W72446   4.926  16.276   3.256
 5379W        W72447  27.953  43.880  12.526
 5380W        W72448  14.181  20.195   4.732
 5381W        W72449  24.611   5.849  11.441
 5382W        W72450   3.799  33.479  13.363
 5383W        W72451  37.873   4.773   0.249
 5384W        W72452  40.882  18.051  14.808
 5385W        W72453  11.651  23.586  12.539
 5386W        W72454  14.758  23.617   3.851
 5387W        W72455  28.104   9.293   2.864
 5388W        W72456  36.939  30.965   4.732
 5389W        W72457  25.087  16.679  13.029
 5390W        W72458  37.861  11.322  14.319
 5391W        W72459   6.363   5.203  12.360
 5392W        W72460  26.065  44.304   0.857
 5393W        W72461   5.218  12.307   4.699
 5394W        W72462  40.365  10.711   0.386
 5395W        W72463  21.683   7.771   3.661
 5396W        W72464  16.588   8.683   0.823
 5397W        W72465  36.950  18.104   2.780
 5398W        W72466  35.394  21.131  11.963
 5399W        W72467  39.855  12.252   1.762
 5400W        W72468   3.797  36.879   4.623
 5401W        W72469  22.574   6.883  11.419
 5402W        W72470   6.808  22.566   1.419
 5403W        W72471  41.898  29.118   2.410
 5404W        W72472   1.932  33.071  14.411
 5405W        W72473  33.566  42.943  10.134
 5406W        W72474  11.129  38.456   0.439
 5407W        W72475  32.904  21.597   2.822
 5408W        W72476  29.593  36.853   3.795
 5409W        W72477   8.737  40.904   4.301
 5410W        W72478  17.730   0.779  12.029
 5411W        W72479  29.111  30.469   3.375
 5412W        W72480  36.023  13.156   4.654
 5413W        W72481  15.235  14.207   0.821
 5414W        W72482  39.830  27.542  11.052
 5415W        W72483  24.511  13.331  14.353
 5416W        W72484  12.724  31.647  13.447
 5417W        W72485  20.550  22.667  10.414
 5418W        W72486  23.006  27.140  13.379
 5419W        W72487   5.910  11.207   3.182
 5420W        W72488  29.452  22.187   1.832
 5421W        W72489  33.981  26.490  13.334
 5422W        W72490   9.833  32.977  14.355
 5423W        W72491  12.765  34.534  11.937
 5424W        W72492  32.926  32.497  11.896
 5425W        W72493  39.008  40.054   0.875
 5426W        W72494  27.073  21.017  12.944
 5427W        W72495   4.275   8.729   3.806
 5428W        W72496  33.007  41.414   1.780
 5429W        W72497  41.022  41.862   0.405
 5430W        W72498  32.128  10.736   4.646
 5431W        W72499  30.564  19.097   1.384
 5432W        W72500  14.645  35.997  11.989
 5433W        W72501  36.008  15.796   2.358
 5434W        W72502   6.793  15.186  13.398
 5435W        W72503  17.237  12.802  11.931
 5436W        W72504  27.577  43.447   4.628
 5437W        W72505  42.325  25.078  11.093
 5438W        W72506  37.928   3.911   1.883
 5439W        W72507  24.116  28.983  11.102
 5440W        W72508   8.388  17.303  13.822
 5441W        W72509  10.140  28.163  10.415
 5442W        W72510   8.863  28.079  14.393
 5443W        W72511  11.692  37.531  12.020
 5444W        W72512   0.322   2.731  11.475
 5445W        W72513  10.203  38.469   3.231
 5446W        W72514  11.739  23.184   0.742
 5447W        W72515  24.069  33.490   0.840
 5448W        W72516  10.142  37.453   3.282
 5449W        W72517  34.007  22.068  14.425
 5450W        W72518  40.824  39.834  10.909
 5451W        W72519  36.458  34.885  14.277
 5452W        W72520  24.630   1.321   1.434
 5453W        W72521  42.421  17.138   4.632
 5454W        W72522  14.231   2.314   2.335
 5455W        W72523  39.051  44.934  14.790
 5456W        W72524  37.014   5.709   1.365
 5457W        W72525  42.302  29.982   2.286
 5458W        W72526  13.710  40.539   4.676
 5459W        W72527  23.111   9.355   1.254
 5460W        W72528  11.133  26.597  14.293
 5461W        W72529   8.178  18.249   0.742
 5462W        W72530  11.666  14.767   4.752
 5463W        W72531   4.883   1.385  13.802
 5464W        W72532   3.946   0.493   3.256
 5465W        W72533  33.413  32.110  13.399
 5466W        W72534   2.299   9.374   1.251
 5467W        W72535  29.092  31.080  11.102
 5468W        W72536   2.858   0.972   0.306
 5469W        W72537  43.768  17.141   4.834
 5470W        W72538  24.169  19.218   2.381
 5471W        W72539  31.938  19.629   1.750
 5472W        W72540  14.632  35.074   2.289
 5473W        W72541  11.304  17.081  14.358
 5474W        W72542  43.773  38.371  11.398
 5475W        W72543  38.465  29.948   1.793
 5476W        W72544  30.071  28.535   3.372
 5477W        W72545   5.880  35.555  12.084
 5478W        W72546  24.054  23.104   4.186
 5479W        W72547  22.244  19.040   3.689
 5480W        W72548  41.990   8.719  13.497
 5481W        W72549  39.363  39.315   3.234
 5482W        W72550  27.022  23.670  14.289
 5483W        W72551  24.007  18.188  10.530
 5484W        W72552  37.895  11.693  11.003
 5485W        W72553  35.574  38.934   4.617
 5486W        W72554  33.044  35.857   2.351
 5487W        W72555   2.932  38.326   3.255
 5488W        W72556  30.493  11.201  14.816
 5489W        W72557  26.983  44.354   3.221
 5490W        W72558  43.504  18.632  12.971
 5491W        W72559   6.267  35.046   2.754
 5492W        W72560   9.311  16.633  13.791
 5493W        W72561  13.677  41.900   0.773
 5494W        W72562  19.754   6.805   4.335
 5495W        W72563  13.173  35.915   1.930
 5496W        W72564  29.113  11.816   1.907
 5497W        W72565   9.345   2.791  13.436
 5498W        W72566  27.111  34.883  13.058
 5499W        W72567  18.687   0.855   3.819
 5500W        W72568  44.818  20.119   0.425
 5501W        W72569  28.510   0.799   3.728
 5502W        W72570  39.808  15.707  14.774
 5503W        W72571  44.374   9.771  10.137
 5504W        W72572  21.095  15.092   2.813
 5505W        W72573  33.520  40.524  11.121
 5506W        W72574   8.874  15.675  10.541
 5507W        W72575  43.012  17.124  10.616
 5508W        W72576  38.981  13.643   2.701
 5509W        W72577  42.392  35.441   2.662
 5510W        W72578  19.110  18.790   3.866
 5511W        W72579  17.630  43.331  14.438
 5512W        W72580  24.977  28.492  11.866
 5513W        W72581  13.182   1.262  13.005
 5514W        W72582  41.361  31.565   0.773
 5515W        W72583  33.549  19.556   2.795
 5516W        W72584  38.562  22.618   4.742
 5517W        W72585  28.026  28.631  11.110
 5518W        W72586   3.263   0.753   3.248
 5519W        W72587   5.199  30.005   0.318
 5520W        W72588  24.987  21.071   4.227
 5521W        W72589   0.935   8.808  13.439
 5522W        W72590  12.138  38.351   2.419
 5523W        W72591  40.400   0.282   4.665
 5524W        W72592  11.178  34.572   1.442
 5525W        W72593  29.090  19.171  13.467
 5526W        W72594  28.516  40.857   0.437
 5527W        W72595  43.321   9.877  11.568
 5528W        W72596  14.634  18.194   4.648
 5529W        W72597  17.245  35.014  13.504
 5530W        W72598  27.573   3.297  14.787
 5531W        W72599  14.227  12.746  11.077
 5532W        W72600  21.570   6.278   1.282
 5533W        W72601  33.101  12.705  14.920
 5534W        W72602   9.350  43.356   1.831
 5535W        W72603  20.746   4.879  14.464
 5536W        W72604   8.179   6.758   3.352
 5537W        W72605   1.410   6.289   0.443
 5538W        W72606  39.928  34.033   2.770
 5539W        W72607  15.172   8.308  12.985
 5540W        W72608  26.633  13.654  12.409
 5541W        W72609  35.884  33.977  13.355
 5542W        W72610  41.389  27.108  12.555
 5543W        W72611  40.850  11.744  13.949
 5544W        W72612  10.341  40.955   1.388
 5545W        W72613  35.435  37.341   1.909
 5546W        W72614  10.725  26.058  13.546
 5547W        W72615  44.873   9.253  10.449
 5548W        W72616  35.075   2.451  12.439
 5549W        W72617  18.740   0.411   2.240
 5550W        W72618  22.020  16.175   1.886
 5551W        W72619  35.952  23.704   2.817
 5552W        W72620  19.054  42.973  14.849
 5553W        W72621  40.367  34.497   0.357
 5554W        W72622   7.281  27.464   0.331
 5555W        W72623  18.631  30.000  14.006
 5556W        W72624   5.227  10.775   2.353
 5557W        W72625   4.945  37.955  11.105
 5558W        W72626  44.757  34.543   3.305
 5559W        W72627  34.926   1.376   1.434
 5560W        W72628  27.022  19.664  11.918
 5561W        W72629   1.740  41.505  12.962
 5562W        W72630   0.346  17.193  10.584
 5563W        W72631  40.950  29.441   2.711
 5564W        W72632  28.951   0.353   3.666
 5565W        W72633  36.953  42.863   5.229
 5566W        W72634  32.612  11.709  13.939
 5567W        W72635  15.170  27.003   2.702
 5568W        W72636  38.378  38.076   0.880
 5569W        W72637  38.475   8.876   4.638
 5570W        W72638  22.602   1.893  10.034
 5571W        W72639  33.540  19.116   0.276
 5572W        W72640  30.601   3.445   2.875
 5573W        W72641  19.593  14.635  11.875
 5574W        W72642   6.690  20.141   4.208
 5575W        W72643   3.789   6.333  12.063
 5576W        W72644  21.148  37.028  11.097
 5577W        W72645   2.766  15.087  10.612
 5578W        W72646   9.194  41.846   3.758
 5579W        W72647  39.888   3.815   0.276
 5580W        W72648  35.926  38.351  11.977
 5581W        W72649  42.424   0.886   3.721
 5582W        W72650  11.805  10.187  12.371
 5583W        W72651  23.630  36.585  13.003
 5584W        W72652  32.600   4.759   0.737
 5585W        W72653   2.351   5.210  11.093
 5586W        W72654   7.229  41.377   2.668
 5587W        W72655  36.854  44.332  11.038
 5588W        W72656  33.088  44.817   1.212
 5589W        W72657  10.242  43.956   4.729
 5590W        W72658  25.116  25.202   3.868
 5591W        W72659   0.263  22.717  14.807
 5592W        W72660  30.492  20.159   3.263
 5593W        W72661  25.974  35.476  14.781
 5594W        W72662  26.572  16.647  10.465
 5595W        W72663  28.657   8.310  13.538
 5596W        W72664  37.949  32.457   2.856
 5597W        W72665  37.467   2.369   0.860
 5598W        W72666  33.891  33.073  14.869
 5599W        W72667  43.332  36.366  12.571
 5600W        W72668  29.646  22.026   2.184
 5601W        W72669  11.774  22.153  10.604
 5602W        W72670   0.899  38.402   1.420
 5603W        W72671   1.457  17.684   4.230
 5604W        W72672   0.782   7.873   3.799
 5605W        W72673  43.325  10.349   1.271
 5606W        W72674  12.762  26.520  11.042
 5607W        W72675  44.804   1.924  14.483
 5608W        W72676  23.525   1.788   3.869
 5609W        W72677  15.303  12.251  12.015
 5610W        W72678  35.429  42.368  14.969
 5611W        W72679  17.680   2.233  14.761
 5612W        W72680  33.583  17.644  11.936
 5613W        W72681   3.285   0.867   4.716
 5614W        W72682  33.464  26.155   1.320
 5615W        W72683  19.688  24.091   0.939
 5616W        W72684  44.960  16.693  11.872
 5617W        W72685  27.492  36.078  11.037
 5618W        W72686  32.592   1.272  13.014
 5619W        W72687  42.891  22.104   2.219
 5620W        W72688  42.782  38.486  12.903
 5621W        W72689  12.293   2.947   2.189
 5622W        W72690  34.516  15.303   3.690
 5623W        W72691  24.681   2.811   2.771
 5624W        W72692  25.207  38.043   3.758
 5625W        W72693   4.896  31.459   2.697
 5626W        W72694  15.308  11.687  10.494
 5627W        W72695  30.607  23.075   3.766
 5628W        W72696  12.690   6.203   1.451
 5629W        W72697  23.134   2.412   2.742
 5630W        W72698  30.928  13.693  13.471
 5631W        W72699  40.396  21.563   2.401
 5632W        W72700   6.284  26.505  14.794
 5633W        W72701   1.738   5.879  11.458
 5634W        W72702  31.033  29.047  11.083
 5635W        W72703  43.423  31.581   0.368
 5636W        W72704  13.643   0.483  11.432
 5637W        W72705   1.760   5.293  13.417
 5638W        W72706   1.384  14.111   0.474
 5639W        W72707   3.437  38.402   4.653
 5640W        W72708  25.079  33.023   0.800
 5641W        W72709  23.702  20.171  13.366
 5642W        W72710  38.442  24.157  13.857
 5643W        W72711  19.130  30.143   5.270
 5644W        W72712  18.640  29.024  10.978
 5645W        W72713   9.695  29.161  14.289
 5646W        W72714   5.829  18.238   2.327
 5647W        W72715  11.371  18.114  14.946
 5648W        W72716   6.902   3.876  13.377
 5649W        W72717  22.039  10.260  11.387
 5650W        W72718   8.327  36.849  11.917
 5651W        W72719   7.351  11.182  11.463
 5652W        W72720  35.041  26.005  10.917
 5653W        W72721  31.966  32.540   1.281
 5654W        W72722  31.028  12.125  14.010
 5655W        W72723  39.872  38.949  13.877
 5656W        W72724  31.957  21.044   4.798
 5657W        W72725  12.678  41.863  12.982
 5658W        W72726  36.892  35.466   1.240
 5659W        W72727  28.098  15.320   1.320
 5660W        W72728  15.668  15.749   4.135
 5661W        W72729  24.186  40.481   0.414
 5662W        W72730  33.506  24.504   4.793
 5663W        W72731  39.877  42.777  14.358
 5664W        W72732  33.502   4.233   2.293
 5665W        W72733   0.324  42.317  13.035
 5666W        W72734  33.001   3.905  11.439
 5667W        W72735  40.410  31.559   3.667
 5668W        W72736  30.424  39.529   1.267
 5669W        W72737  21.168  10.170  14.986
 5670W        W72738  10.311   6.256  13.469
 5671W        W72739  13.126  39.338  10.444
 5672W        W72740  41.987  34.966  13.874
 5673W        W72741  10.863  31.598   4.291
 5674W        W72742  12.655  40.306  11.535
 5675W        W72743   9.657  18.090   3.251
 5676W        W72744  17.290  44.479  11.945
 5677W        W72745  38.014   3.819  14.874
 5678W        W72746   4.254  19.535   3.367
 5679W        W72747  14.834  29.608  12.904
 5680W        W72748  13.763  31.508  11.958
 5681W        W72749   3.863  41.004   2.687
 5682W        W72750   4.429  18.268   0.312
 5683W        W72751  38.372  10.635   4.722
 5684W        W72752  38.918   1.260   3.347
 5685W        W72753  17.633  18.755  14.024
 5686W        W72754  39.394  19.116   1.234
 5687W        W72755  18.674  16.621  12.041
 5688W        W72756  39.449   9.351  14.496
 5689W        W72757  26.126  24.523   2.774
 5690W        W72758  36.995  37.845  14.358
 5691W        W72759  41.986  32.627   4.643
 5692W        W72760  29.939  37.966  12.500
 5693W        W72761  21.169  39.364   5.110
 5694W        W72762  17.203  12.202  13.902
 5695W        W72763   8.668  41.486  12.019
 5696W        W72764   6.207  14.767  10.897
 5697W        W72765  33.521  44.983  12.423
 5698W        W72766  32.991  40.846   4.834
 5699W        W72767  16.212   9.182   3.775
 5700W        W72768  26.083  32.491  14.303
 5701W        W72769   7.810  19.685   0.775
 5702W        W72770  38.545   5.794   2.877
 5703W        W72771  10.826  32.015  12.345
 5704W        W72772  15.260  26.069   2.776
 5705W        W72773  13.802   1.382   0.925
 5706W        W72774  42.805  38.952  12.886
 5707W        W72775  40.378  40.825  10.996
 5708W        W72776  37.551  37.527   1.889
 5709W        W72777   9.360  38.919   2.826
 5710W        W72778  20.630  36.958  12.524
 5711W        W72779  28.657  14.283   1.723
 5712W        W72780  16.679  24.167   2.764
 5713W        W72781   4.335  31.538   3.863
 5714W        W72782  11.756  20.695  14.412
 5715W        W72783  42.000  33.903   0.744
 5716W        W72784  22.534  11.216  13.024
 5717W        W72785   6.331  31.009   3.717
 5718W        W72786   6.331  33.453   0.751
 5719W        W72787  29.985  17.108   5.294
 5720W        W72788   9.815  19.780   4.198
 5721W        W72789  14.120  22.576   4.270
 5722W        W72790  13.242  14.699  13.798
 5723W        W72791  21.063  14.778   0.733
 5724W        W72792  36.532   0.317   4.208
 5725W        W72793  25.616  26.538   1.860
 5726W        W72794   4.255   0.815  14.454
 5727W        W72795  20.042   7.860   0.385
 5728W        W72796  19.621  39.947   0.248
 5729W        W72797  23.024  14.632   4.818
 5730W        W72798  16.795  42.861  10.566
 5731W        W72799  39.358   5.835   4.698
 5732W        W72800  40.960  26.618   2.331
 5733W        W72801   0.464  14.631   3.677
 5734W        W72802  21.624  39.388   4.139
 5735W        W72803   5.223  17.736  13.054
 5736W        W72804   1.799  31.999   1.304
 5737W        W72805  20.195  26.500  10.123
 5738W        W72806   0.383  23.105  14.296
 5739W        W72807   0.817  40.411  12.061
 5740W        W72808  10.641   8.284  13.945
 5741W        W72809  16.585  10.860   1.315
 5742W        W72810   2.847  35.603   3.238
 5743W        W72811  25.144  15.318   2.744
 5744W        W72812  30.090   3.753   2.230
 5745W        W72813  35.359  15.313  14.981
 5746W        W72814  13.815   4.894  12.080
 5747W        W72815  26.208  14.703  11.111
 5748W        W72816  23.724  12.778   3.726
 5749W        W72817  24.539   3.421  12.353
 5750W        W72818   7.813  32.114  12.382
 5751W        W72819  18.715  33.110   0.789
 5752W        W72820  20.721  15.647   0.760
 5753W        W72821   4.242  19.220  13.455
 5754W        W72822   5.383   4.334  10.994
 5755W        W72823   2.271  17.302  10.159
 5756W        W72824  19.071  34.078   4.773
 5757W        W72825  39.825  26.687  12.535
 5758W        W72826  27.165  33.065   2.382
 5759W        W72827  31.062  24.140  10.497
 5760W        W72828  39.925  18.547   4.144
 5761W        W72829  37.959  42.892   1.900
 5762W        W72830  32.403  43.452  14.792
 5763W        W72831  40.001  17.725   2.400
 5764W        W72832   7.794   8.322   0.482
 5765W        W72833  23.634  31.420   2.819
 5766W        W72834  40.518  37.929   2.223
 5767W        W72835  10.800  31.440  13.862
 5768W        W72836  18.671  39.366   2.252
 5769W        W72837  39.868   6.402   2.288
 5770W        W72838  30.947  38.032  11.595
 5771W        W72839  42.385  38.552   0.430
 5772W        W72840  41.040  10.664  12.467
 5773W        W72841  31.974  18.252  14.952
 5774W        W72842  38.452  10.145  13.035
 5775W        W72843  24.227   6.223   1.821
 5776W        W72844  22.515  30.934   1.770
 5777W        W72845  19.184  14.655   1.316
 5778W        W72846   0.964   1.800   3.209
 5779W        W72847  27.111  42.849  11.547
 5780W        W72848  28.489   2.749  14.284
 5781W        W72849   9.289  30.095   4.823
 5782W        W72850  12.198   6.685  14.829
 5783W        W72851  19.661  33.424  11.603
 5784W        W72852  43.785  21.749   1.878
 5785W        W72853   7.222  30.476  13.063
 5786W        W72854  16.089  23.615   0.246
 5787W        W72855  30.911  34.880  10.517
 5788W        W72856  34.945   8.231  11.537
 5789W        W72857  36.454   4.253   0.382
 5790W        W72858  10.731  42.850  11.469
 5791W        W72859  28.069  32.117  14.479
 5792W        W72860  10.283  30.937   0.242
 5793W        W72861  24.979   3.723  14.437
 5794W        W72862  38.384  25.604  11.460
 5795W        W72863   7.217  28.176  10.416
 5796W        W72864   5.292  32.121  10.947
 5797W        W72865  40.471  33.472   3.287
 5798W        W72866  20.124  10.724  11.078
 5799W        W72867  10.148  27.170  12.455
 5800W        W72868  13.798  10.295   3.660
 5801W        W72869  28.615   1.365  13.377
 5802W        W72870   1.766  11.719   2.666
 5803W        W72871  11.269   0.288   3.685
 5804W        W72872  21.094  24.092  14.445
 5805W        W72873  32.964   0.422  14.280
 5806W        W72874  27.995  18.676  10.640
 5807W        W72875  18.132   9.875  12.498
 5808W        W72876  26.130  40.853  12.036
 5809W        W72877  32.626  28.179   0.391
 5810W        W72878  28.129  18.575   4.294
 5811W        W72879  41.805  36.005   3.262
 5812W        W72880  17.114  11.708   0.841
 5813W        W72881  24.529  40.915   4.340
 5814W        W72882  10.287  21.241   9.936
 5815W        W72883  40.823   3.723   2.195
 5816W        W72884  32.946  39.857   2.664
 5817W        W72885  13.145  15.151   0.798
 5818W        W72886  41.916  14.164   4.121
 5819W        W72887  26.490  32.441  14.772
 5820W        W72888   7.828   2.364  14.845
 5821W        W72889   4.387  11.632  14.848
 5822W        W72890  17.201  30.537   1.922
 5823W        W72891   5.827   2.736   2.877
 5824W        W72892  42.786  28.453  12.930
 5825W        W72893   1.265   3.855   0.860
 5826W        W72894   0.802  30.135   4.834
 5827W        W72895   2.425  14.194   0.392
 5828W        W72896  21.611   1.315   4.621
 5829W        W72897  36.456  13.295   4.317
 5830W        W72898  22.184   9.856  13.875
 5831W        W72899  26.580  13.139  11.951
 5832W        W72900  34.957  38.525  11.966
 5833W        W72901   9.281   3.422   4.135
 5834W        W72902  23.672  21.140  12.514
 5835W        W72903  37.047  13.717   4.145
 5836W        W72904  23.993  11.158   3.200
 5837W        W72905  21.215  10.170   5.110
 5838W        W72906   2.962  12.631  13.925
 5839W        W72907  38.887  40.048   2.720
 5840W        W72908  33.886  40.318   1.245
 5841W        W72909   2.426  21.519  14.834
 5842W        W72910  36.073  11.645   3.864
 5843W        W72911  28.461   0.365   0.439
 5844W        W72912  29.498  15.178   2.877
 5845W        W72913  41.911  21.537  14.792
 5846W        W72914  16.735  37.535   2.193
 5847W        W72915  39.983  43.861   4.608
 5848W        W72916  21.609   9.883   1.227
 5849W        W72917  35.536  29.652   4.678
 5850W        W72918  33.480  10.675   2.184
 5851W        W72919   6.413  37.028   0.325
 5852W        W72920  35.401  39.420   1.858
 5853W        W72921  39.326  22.746   4.634
 5854W        W72922  33.034  16.298   3.261
 5855W        W72923   4.240  18.162   1.296
 5856W        W72924  11.275   6.225   2.771
 5857W        W72925  43.495  30.100   1.917
 5858W        W72926   8.688  18.616  10.998
 5859W        W72927  18.165   3.270  14.370
 5860W        W72928   7.226  12.284  13.914
 5861W        W72929  18.674  29.649   4.206
 5862W        W72930   9.671  39.490   1.749
 5863W        W72931  23.014  15.806  11.405
 5864W        W72932  30.550   0.428  13.427
 5865W        W72933  17.187  15.102   4.154
 5866W        W72934  40.893   2.872  12.466
 5867W        W72935  11.866  30.651  10.130
 5868W        W72936  26.462  13.728  10.505
 5869W        W72937  36.547  20.223   3.296
 5870W        W72938  28.008  27.179   0.285
 5871W        W72939  15.174  11.727  14.810
 5872W        W72940  15.639   6.680   2.303
 5873W        W72941  22.193  20.064   1.863
 5874W        W72942   7.683  42.451  12.875
 5875W        W72943  18.050   3.264   3.349
 5876W        W72944  17.225  44.010  12.488
 5877W        W72945   2.284  17.587  12.917
 5878W        W72946   0.254  32.431   2.328
 5879W        W72947  22.527  35.594   1.784
 5880W        W72948  41.806  35.943  10.913
 5881W        W72949  21.039   8.862   2.803
 5882W        W72950  24.028  36.491  12.999
 5883W        W72951  12.148  37.883  12.086
 5884W        W72952   7.777  16.240   0.328
 5885W        W72953  28.447  36.015   0.439
 5886W        W72954  14.261  41.363  10.627
 5887W        W72955  14.183   8.882  12.824
 5888W        W72956  34.883   3.219  10.643
 5889W        W72957   3.880  37.485   5.234
 5890W        W72958   4.709   6.697   0.328
 5891W        W72959  16.252  43.359   4.704
 5892W        W72960  12.686  38.054   2.307
 5893W        W72961  32.037  40.023  10.090
 5894W        W72962  10.728  24.016  12.846
 5895W        W72963  26.198   5.712   1.433
 5896W        W72964   9.305  38.008  12.381
 5897W        W72965  18.124  14.323   3.318
 5898W        W72966  13.146   5.712  13.818
 5899W        W72967  42.515  36.966   2.271
 5900W        W72968   0.773  43.500  14.328
 5901W        W72969  26.618  33.520  10.110
 5902W        W72970  19.639  23.591  10.422
 5903W        W72971  38.483  36.551  14.919
 5904W        W72972   6.828  21.683   0.464
 5905W        W72973  39.955  36.959   1.266
 5906W        W72974  39.434   3.298   2.262
 5907W        W72975  41.812  25.626  14.460
 5908W        W72976  31.550  39.364  13.900
 5909W        W72977  32.542  22.652  11.583
 5910W        W72978   4.931  26.154  12.392
 5911W        W72979  23.018  40.866   3.831
 5912W        W72980  37.907   1.435  13.405
 5913W        W72981  39.327  25.095   2.322
 5914W        W72982  29.473  17.086  11.446
 5915W        W72983  22.115  43.892   1.778
 5916W        W72984  33.548  31.940  12.418
 5917W        W72985   8.763  21.253   1.298
 5918W        W72986   1.921  27.575   1.697
 5919W        W72987  29.477  38.889  13.435
 5920W        W72988   8.753   6.810  11.433
 5921W        W72989  21.167  26.178   3.802
 5922W        W72990  16.604  25.471  11.557
 5923W        W72991  17.278  18.204   0.876
 5924W        W72992  16.209  31.055   0.947
 5925W        W72993   8.694  34.956  14.308
 5926W        W72994  42.925  44.295  10.142
 5927W        W72995  11.703  14.289   1.404
 5928W        W72996  26.600   5.422   1.917
 5929W        W72997  41.803  44.278   2.358
 5930W        W72998  20.132  10.817  14.288
 5931W        W72999  37.836  12.738   3.290
 5932W        W73000  34.378  41.423   3.188
 5933W        W73001  35.515   9.652  11.986
 5934W        W73002  31.101  39.997  12.028
 5935W        W73003  21.721   5.316  14.990
 5936W        W73004  28.138  36.926   4.135
 5937W        W73005  12.195  42.480   2.216
 5938W        W73006  41.972  19.115  11.480
 5939W        W73007   9.751  44.284  14.946
 5940W        W73008  23.511  33.581   0.285
 5941W        W73009  43.895  11.141  12.406
 5942W        W73010  20.117  22.661  10.131
 5943W        W73011  28.144   7.184  12.847
 5944W        W73012  44.874  42.987   2.251
 5945W        W73013  21.207  20.108   3.358
 5946W        W73014   6.192  20.092   5.089
 5947W        W73015  19.720   1.829   2.724
 5948W        W73016  32.961  13.245  13.957
 5949W        W73017  25.009  35.084  11.086
 5950W        W73018  12.773  34.415   4.136
 5951W        W73019  17.788   3.405  14.491
 5952W        W73020  33.033  44.863  14.829
 5953W        W73021  25.986  29.627  12.880
 5954W        W73022  13.669   9.240  12.044
 5955W        W73023   3.830  29.004   0.873
 5956W        W73024  26.009  40.434  10.619
 5957W        W73025  30.530  13.826  12.423
 5958W        W73026  36.549  25.216   3.648
 5959W        W73027  22.632  38.351   5.149
 5960W        W73028  33.011  38.953  10.623
 5961W        W73029   5.691  36.092  11.066
 5962W        W73030  12.629  30.415   3.230
 5963W        W73031  19.543  40.503   3.723
 5964W        W73032  22.731  27.095  13.540
 5965W        W73033  27.944  29.032  12.862
 5966W        W73034   6.888   4.758   0.259
 5967W        W73035  43.304  39.878  13.335
 5968W        W73036  33.899  13.826   1.343
 5969W        W73037  30.657   2.820   2.733
 5970W        W73038  29.652  21.717   2.301
 5971W        W73039  41.390  15.594  14.336
 5972W        W73040  27.948  38.852   0.741
 5973W        W73041  15.669  29.542   5.299
 5974W        W73042   4.909  40.314   5.218
 5975W        W73043  11.363  24.627   0.860
 5976W        W73044  12.220   4.919  12.070
 5977W        W73045   1.418  24.557   3.729
 5978W        W73046   5.205  19.695  14.844
 5979W        W73047   3.822  33.929   3.776
 5980W        W73048  15.102  37.416   4.819
 5981W        W73049  27.633  31.459  13.374
 5982W        W73050  27.004  16.186   3.370
 5983W        W73051  21.200  33.457  13.468
 5984W        W73052  18.276  34.468   0.771
 5985W        W73053   5.388  38.499  14.022
 5986W        W73054   0.769  37.880   0.879
 5987W        W73055   4.829  27.621   0.759
 5988W        W73056  44.764  40.030  13.976
 5989W        W73057  11.822  23.026  14.429
 5990W        W73058   9.787  25.561  11.577
 5991W        W73059  44.766  22.158   3.362
 5992W        W73060  13.111   1.771   1.896
 5993W        W73061   6.425   3.443  10.493
 5994W        W73062  42.344  36.432  14.936
 5995W        W73063  17.151  42.907  12.378
 5996W        W73064  22.176  39.908  13.910
 5997W        W73065   7.883  30.655   0.369
 5998W        W73066  29.121  40.985   1.929
 5999W        W73067  40.047  39.317   3.849
 6000W        W73068   4.900  38.984   4.671
 6001W        W73069   8.722  40.513   0.918
 6002W        W73070  23.074  30.128  14.935
 6003W        W73071  27.122   1.925   4.702
 6004W        W73072  26.186   4.367  10.988
 6005W        W73073  21.029   5.759   4.206
 6006W        W73074  39.883   1.385  13.931
 6007W        W73075  16.672  15.220  12.001
 6008W        W73076  43.840  14.214   2.708
 6009W        W73077   5.390  26.968  10.929
 6010W        W73078   5.423   9.794   4.167
 6011W        W73079  24.664  10.365  10.947
 6012W        W73080   6.739  42.854   3.802
 6013W        W73081  39.047   8.192  14.900
 6014W        W73082  18.103  25.605  11.956
 6015W        W73083  26.641  31.443   2.366
 6016W        W73084   3.781  15.699   0.369
 6017W        W73085  36.430  25.682   2.892
 6018W        W73086  41.795  43.777   3.295
 6019W        W73087  14.238   4.720  11.872
 6020W        W73088  12.188  10.212   4.164
 6021W        W73089  13.792   9.685   1.444
 6022W        W73090   2.323  25.475  11.925
 6023W        W73091  12.357  15.644   2.736
 6024W        W73092  25.620  38.827   3.775
 6025W        W73093  26.544   7.327   3.168
 6026W        W73094  38.330  27.495  13.056
 6027W        W73095  25.977  31.013   0.251
 6028W        W73096  35.955  21.248  14.501
 6029W        W73097  43.897  11.212  13.451
 6030W        W73098  19.670  11.806  14.007
 6031W        W73099   5.347  17.773  11.982
 6032W        W73100  41.966   1.256  10.500
 6033W        W73101  18.545  37.043  14.498
 6034W        W73102   3.904  10.153  13.999
 6035W        W73103  24.548  42.349  14.464
 6036W        W73104  13.692   8.876   4.639
 6037W        W73105  21.701   3.227  11.072
 6038W        W73106  26.679  36.069   2.749
 6039W        W73107  18.278  19.747   1.447
 6040W        W73108  22.208  31.528   0.962
 6041W        W73109  27.966  29.979  11.603
 6042W        W73110  18.231   4.794  13.894
 6043W        W73111  39.968  14.125   4.316
 6044W        W73112  20.244  26.477  11.024
 6045W        W73113  29.490  29.164   1.716
 6046W        W73114  38.964  34.077  12.443
 6047W        W73115  15.752   9.222  13.962
 6048W        W73116  37.917   9.859  13.793
 6049W        W73117  26.680   6.251   0.831
 6050W        W73118  42.510   1.757  13.436
 6051W        W73119  25.081  38.824   0.771
 6052W        W73120  22.733  11.349   0.413
 6053W        W73121  21.023  34.869   4.284
 6054W        W73122  40.882   6.736   2.404
 6055W        W73123  29.162  19.555   4.719
 6056W        W73124  31.141  16.777  13.824
 6057W        W73125  15.602   7.196   1.452
 6058W        W73126   5.747   4.795   2.746
 6059W        W73127   1.875  22.042   1.796
 6060W        W73128   0.985  42.903  14.030
 6061W        W73129  13.277  27.998  12.896
 6062W        W73130  23.715  17.742   0.762
 6063W        W73131  14.742   7.283  12.528
 6064W        W73132  25.155  24.602  12.068
 6065W        W73133  17.121  18.253  11.860
 6066W        W73134   9.759  14.630   4.298
 6067W        W73135  44.867  24.150  10.425
 6068W        W73136  14.158  20.127  11.006
 6069W        W73137  22.528  23.037  11.011
 6070W        W73138  41.416   2.777  13.427
 6071W        W73139  24.998  14.680   0.252
 6072W        W73140  39.021   9.835   0.391
 6073W        W73141  17.206  22.170   0.945
 6074W        W73142  40.512  10.732   1.221
 6075W        W73143  37.427  36.946   0.269
 6076W        W73144  17.209  32.493   1.365
 6077W        W73145  22.042  29.545   1.922
 6078W        W73146   9.395  19.578   2.776
 6079W        W73147   9.889  19.219   2.846
 6080W        W73148   8.372  32.072   5.217
 6081W        W73149  16.318  37.966   3.838
 6082W        W73150  43.277  43.018  14.329
 6083W        W73151  14.235  32.982  12.349
 6084W        W73152  11.308  40.032   3.147
 6085W        W73153   1.397  27.100  12.968
 6086W        W73154   0.326  29.478  13.396
 6087W        W73155  11.783  35.545  14.832
 6088W        W73156  14.593  18.164  12.366
 6089W        W73157   2.403   9.829   4.316
 6090W        W73158  36.860  31.412   2.224
 6091W        W73159  21.157   1.869   3.638
 6092W        W73160  39.542  19.095  10.976
 6093W        W73161  33.117  31.952  11.893
 6094W        W73162  18.283  41.913  14.478
 6095W        W73163  43.898  43.285   4.226
 6096W        W73164  28.043  18.260   3.199
 6097W        W73165  25.625  19.695  14.469
 6098W        W73166   1.413  21.219   3.676
 6099W        W73167  16.773   8.364  13.823
 6100W        W73168  27.495  32.143   4.259
 6101W        W73169  41.464  38.850   3.676
 6102W        W73170  12.798   0.406  13.830
 6103W        W73171  32.560  37.968  11.126
 6104W        W73172   3.433  31.439   4.759
 6105W        W73173  30.913  27.124  10.516
 6106W        W73174  15.217  18.687  12.987
 6107W        W73175  13.276  11.817  14.972
 6108W        W73176  28.061   0.830   2.415
 6109W        W73177  15.603   7.859   3.174
 6110W        W73178  39.425  12.778   4.268
 6111W        W73179  33.982  33.998  14.375
 6112W        W73180   5.767   2.851  12.492
 6113W        W73181  35.460  41.323   2.860
 6114W        W73182  24.979  44.274   3.232
 6115W        W73183   9.341   8.396  14.465
 6116W        W73184  18.646   8.223  11.003
 6117W        W73185  38.485  42.307   1.781
 6118W        W73186  21.744  16.292  10.518
 6119W        W73187   5.403  14.106   2.860
 6120W        W73188  22.679  36.022  12.837
 6121W        W73189  17.138   6.702  12.954
 6122W        W73190  17.697   1.399   2.667
 6123W        W73191   6.384  25.573   2.740
 6124W        W73192   6.337   3.227   9.990
 6125W        W73193  41.904   5.433   4.631
 6126W        W73194  26.646  36.980  12.415
 6127W        W73195  42.962  22.201   4.615
 6128W        W73196  32.610  27.170   0.842
 6129W        W73197   4.205  11.707  12.990
 6130W        W73198  42.846   3.293   0.369
 6131W        W73199   9.647   1.289  12.889
 6132W        W73200   5.194  27.522   4.116
 6133W        W73201  27.064  42.303  13.052
 6134W        W73202  13.616  42.786   4.783
 6135W        W73203  17.105  41.349   0.271
 6136W        W73204  12.220  19.149  11.067
 6137W        W73205  13.738   6.293  14.309
 6138W        W73206  44.888   1.345  13.040
 6139W        W73207   3.305   4.750  14.470
 6140W        W73208  11.330  20.193   1.933
 6141W        W73209  17.691  18.681   2.367
 6142W        W73210  15.597  41.410   4.305
 6143W        W73211  42.377  27.487   2.846
 6144W        W73212  19.111  41.424  11.990
 6145W        W73213   0.818   1.344  11.601
 6146W        W73214  28.159  25.591  13.490
 6147W        W73215   8.260  22.079   2.826
 6148W        W73216  36.380  17.144  12.359
 6149W        W73217  36.442  23.496   2.787
 6150W        W73218   9.698  40.442   0.417
 6151W        W73219  21.757   5.709   0.964
 6152W        W73220  41.979   6.427   3.255
 6153W        W73221  41.009   2.730   2.324
 6154W        W73222   2.341  43.994   2.265
 6155W        W73223  34.441  41.018   3.728
 6156W        W73224   2.266  27.456   0.375
 6157W        W73225  43.408   4.383  14.366
 6158W        W73226   8.756  20.161  13.889
 6159W        W73227  18.760  40.371   3.825
 6160W        W73228  29.918  33.443  11.488
 6161W        W73229  17.138  34.383   4.322
 6162W        W73230  22.178  30.448  13.991
 6163W        W73231  35.362  38.905   0.396
 6164W        W73232  36.959  26.020   0.832
 6165W        W73233  40.474  31.971   2.377
 6166W        W73234   7.832  22.597  12.525
 6167W        W73235  11.637  12.342   1.323
 6168W        W73236   6.693  19.055  11.117
 6169W        W73237  42.342  16.682  12.933
 6170W        W73238   6.398  24.597  11.877
 6171W        W73239  15.154  26.629   4.179
 6172W        W73240   3.886  24.040   3.817
 6173W        W73241  39.348  42.401  12.006
 6174W        W73242  13.213  17.205  14.412
 6175W        W73243  29.019  29.968   1.767
 6176W        W73244  39.878  15.818  12.403
 6177W        W73245  33.528  19.222  13.481
 6178W        W73246  26.131  32.000   0.461
 6179W        W73247  12.116  44.765   1.745
 6180W        W73248  13.185  38.399  10.582
 6181W        W73249  39.911  27.943   3.756
 6182W        W73250  13.677  33.451  12.379
 6183W        W73251  10.244   9.289   0.257
 6184W        W73252  18.247  10.745  14.936
 6185W        W73253  26.156  27.680  12.345
 6186W        W73254  40.823  10.764   0.467
 6187W        W73255  29.505  36.523  14.841
 6188W        W73256  15.668  41.295  10.047
 6189W        W73257  25.579  32.911  12.569
 6190W        W73258  17.303   5.367  13.798
 6191W        W73259   0.356   5.376  13.467
 6192W        W73260   4.803  29.644  13.958
 6193W        W73261   2.800  14.203   3.858
 6194W        W73262   2.324  18.615   0.923
 6195W        W73263   2.884  10.852  12.853
 6196W        W73264  13.613  13.341   0.407
 6197W        W73265  30.044  36.020  13.943
 6198W        W73266  44.755  43.384  13.804
 6199W        W73267  19.602  25.659  13.024
 6200W        W73268  28.521  37.370  13.391
 6201W        W73269  42.437  34.932  10.495
 6202W        W73270  19.269  26.064   1.327
 6203W        W73271  11.260  29.661  14.023
 6204W        W73272  40.970  12.156   0.786
 6205W        W73273  19.625  10.776  10.613
 6206W        W73274   3.365  34.564   1.932
 6207W        W73275  41.369  36.553  13.933
 6208W        W73276   8.835  27.654   2.844
 6209W        W73277  20.131  27.612   4.642
 6210W        W73278  37.501  16.768  13.033
 6211W        W73279  13.180   9.655   4.139
 6212W        W73280  35.495  11.291   3.815
 6213W        W73281  12.335   8.871   4.677
 6214W        W73282  25.524  15.245   3.747
 6215W        W73283  25.969  27.688  10.973
 6216W        W73284   9.211  21.673   1.845
 6217W        W73285  16.763  16.733   3.635
 6218W        W73286  42.349  24.493  13.944
 6219W        W73287   3.822  21.124   0.467
 6220W        W73288  35.963  44.895  14.300
 6221W        W73289  30.523  17.785  10.533
 6222W        W73290  27.667   2.726  13.489
 6223W        W73291  18.278  14.167   0.420
 6224W        W73292   0.742  29.996  11.409
 6225W        W73293  17.656  16.134  11.023
 6226W        W73294  30.937  28.638  14.345
 6227W        W73295  12.208  17.270   1.882
 6228W        W73296   1.750  37.986  14.382
 6229W        W73297  12.312  22.187   0.415
 6230W        W73298  30.065  33.588   4.267
 6231W        W73299  20.217  33.937   2.332
 6232W        W73300  15.313  15.657  10.534
 6233W        W73301  31.990  37.068  11.924
 6234W        W73302  44.841  40.941   2.825
 6235W        W73303  26.465  37.028  14.801
 6236W        W73304  43.425   3.314  14.842
 6237W        W73305  28.177  26.969  14.906
 6238W        W73306  33.533  27.115  12.061
 6239W        W73307  38.866  15.653  14.400
 6240W        W73308  43.441  27.081   0.937
 6241W        W73309  22.565   6.345  12.073
 6242W        W73310  13.614  14.324  12.950
 6243W        W73311  32.901  25.486  13.943
 6244W        W73312  33.042   9.166  12.983
 6245W        W73313  10.836   3.356  13.040
 6246W        W73314  42.454  31.146  11.890
 6247W        W73315   1.237  22.693   4.121
 6248W        W73316   2.281   0.889  13.394
 6249W        W73317  38.522  39.405   1.821
 6250W        W73318  30.938  41.882  12.568
 6251W        W73319  43.893  21.171   3.800
 6252W        W73320  10.294  34.578   5.242
 6253W        W73321  16.264   2.424  11.485
 6254W        W73322   2.332  12.306   1.781
 6255W        W73323  22.653  21.073  12.482
 6256W        W73324  21.522   9.750   3.349
 6257W        W73325  26.609  23.088  12.875
 6258W        W73326  18.160  10.354   0.957
 6259W        W73327   4.358  43.983  13.541
 6260W        W73328  37.544  19.184   2.232
 6261W        W73329  30.946  41.376  13.394
 6262W        W73330  36.054  18.253  10.959
 6263W        W73331  39.427   4.266   2.355
 6264W        W73332  30.046   3.798   1.348
 6265W        W73333  36.396  36.527  12.413
 6266W        W73334  31.126  35.984   1.369
 6267W        W73335  35.539  28.648  11.998
 6268W        W73336   6.720  11.142   0.365
 6269W        W73337   6.727   4.914   2.262
 6270W        W73338  17.684  35.382  11.566
 6271W        W73339   6.298  14.139  14.335
 6272W        W73340  32.094  20.085   3.687
 6273W        W73341  19.621  13.806  13.862
 6274W        W73342  10.780   3.340   2.678
 6275W        W73343  21.205  36.008  14.787
 6276W        W73344  25.662  19.142   2.237
 6277W        W73345  43.409  14.108   0.933
 6278W        W73346  19.592  44.432   0.284
 6279W        W73347  30.008  28.019  12.849
 6280W        W73348  23.524  19.119   2.701
 6281W        W73349  44.872   1.292  10.452
 6282W        W73350  33.426  19.633   5.148
 6283W        W73351  19.607   8.280   4.121
 6284W        W73352   2.242   7.671  12.095
 6285W        W73353  42.485  18.296   1.232
 6286W        W73354  11.822  34.030   3.248
 6287W        W73355  23.151  14.663   0.361
 6288W        W73356  13.678   8.881  12.050
 6289W        W73357  23.099  11.859   2.252
 6290W        W73358  13.726  26.041  14.966
 6291W        W73359  12.266  12.327   1.780
 6292W        W73360  37.909  42.333   2.781
 6293W        W73361  27.090  14.655  13.861
 6294W        W73362   6.423  17.232   2.688
 6295W        W73363   5.258  16.237   2.348
 6296W        W73364  36.931  28.142   3.688
 6297W        W73365  16.802  25.046   3.340
 6298W        W73366   8.386   1.889   4.668
 6299W        W73367   4.448  39.988  13.018
 6300W        W73368  21.150  21.031  12.832
 6301W        W73369  42.449   2.781   1.239
 6302W        W73370  27.616   6.922  12.578
 6303W        W73371   4.282  42.971   2.832
 6304W        W73372  23.509  17.781   4.627
 6305W        W73373   9.313  29.149  12.929
 6306W        W73374  44.359   2.835  11.596
 6307W        W73375  27.062  11.806  11.955
 6308W        W73376  17.599  24.180   0.372
 6309W        W73377  39.825  34.457   3.698
 6310W        W73378   7.907   6.807  12.996
 6311W        W73379  34.983  20.245  14.977
 6312W        W73380  17.162  15.223  14.481
 6313W        W73381  40.972  38.970  14.947
 6314W        W73382  30.950  22.563  13.042
 6315W        W73383  15.652  18.091   2.698
 6316W        W73384  32.129  26.495   4.153
 6317W        W73385  23.549  25.652  10.623
 6318W        W73386  35.893  29.607   4.327
 6319W        W73387  11.673  19.667  12.374
 6320W        W73388  40.392   5.898  13.798
 6321W        W73389  43.420   8.834   1.898
 6322W        W73390   8.699  13.717   0.896
 6323W        W73391   5.287  37.003  11.434
 6324W        W73392   5.742  21.245  10.596
 6325W        W73393  34.918  42.495  11.932
 6326W        W73394  42.793  13.167   5.210
 6327W        W73395  36.510  36.901   0.435
 6328W        W73396  20.751  32.087  12.968
 6329W        W73397  16.721   1.787   2.318
 6330W        W73398   3.313  23.676   3.654
 6331W        W73399   0.965  18.743  12.573
 6332W        W73400  12.843  13.236   4.192
 6333W        W73401  28.971  22.678   4.709
 6334W        W73402  18.214   7.172  12.390
 6335W        W73403  16.285  12.749  14.770
 6336W        W73404   2.756  16.315  11.120
 6337W        W73405   1.250   4.450   1.721
 6338W        W73406  31.999  20.589  14.885
 6339W        W73407  11.725   1.899   2.789
 6340W        W73408  41.944  35.470   3.690
 6341W        W73409  43.787  16.110   0.377
 6342W        W73410  15.103   2.905  11.050
 6343W        W73411  24.018  20.674  12.961
 6344W        W73412  12.212   6.850   0.352
 6345W        W73413  15.163  31.935   1.258
 6346W        W73414   2.773   1.914   4.263
 6347W        W73415  40.478  18.679  11.395
 6348W        W73416  35.895  19.684   3.347
 6349W        W73417   4.420  24.026   3.245
 6350W        W73418  37.550  43.907  13.993
 6351W        W73419   1.378  23.154   2.813
 6352W        W73420   9.320  37.850   0.753
 6353W        W73421  20.167  29.456  13.890
 6354W        W73422  32.905  33.598   1.434
 6355W        W73423  33.974  13.255  11.375
 6356W        W73424  14.245  12.733  13.964
 6357W        W73425  16.716   6.411   4.166
 6358W        W73426  23.003   6.254  14.906
 6359W        W73427  10.204  16.195   4.180
 6360W        W73428   6.852  10.231   4.676
 6361W        W73429  14.141  34.427   2.887
 6362W        W73430  15.611  28.026   1.806
 6363W        W73431  37.405  34.446   3.281
 6364W        W73432  35.091  14.134   5.155
 6365W        W73433  28.091  19.645  13.350
 6366W        W73434  30.549  16.203   1.340
 6367W        W73435  16.240  40.423  13.347
 6368W        W73436  15.664  36.007  12.380
 6369W        W73437   5.216   8.214   1.758
 6370W        W73438   0.357  16.594   1.296
 6371W        W73439  34.944   5.322   4.161
 6372W        W73440  30.992  40.838   4.162
 6373W        W73441  31.635  27.111   4.290
 6374W        W73442  34.479  16.689   4.617
 6375W        W73443  31.039  10.842  13.534
 6376W        W73444  18.148   0.889   0.266
 6377W        W73445  13.756  32.035   3.370
 6378W        W73446  30.907  44.819  11.037
 6379W        W73447   5.842   7.223  13.469
 6380W        W73448  20.577  11.705  10.568
 6381W        W73449  15.807   5.413   4.129
 6382W        W73450  11.675  30.960  14.974
 6383W        W73451  12.613   2.962   4.147
 6384W        W73452  28.981  44.947  13.322
 6385W        W73453  36.351  26.116  10.978
 6386W        W73454  33.874  14.275  12.893
 6387W        W73455  44.923   6.324   4.736
 6388W        W73456  10.805   8.274  13.390
 6389W        W73457  18.646  16.669   3.345
 6390W        W73458   2.467  33.927   3.348
 6391W        W73459  16.631  38.883   3.340
 6392W        W73460  19.615  41.810   2.297
 6393W        W73461  10.844  11.738   3.838
 6394W        W73462  26.070  39.835   4.836
 6395W        W73463  13.212   1.358  13.546
 6396W        W73464   7.330  36.002  11.995
 6397W        W73465  12.227  39.922   3.861
 6398W        W73466  35.014   2.264   0.403
 6399W        W73467  43.770   9.392  11.020
 6400W        W73468  41.022  34.608  13.537
 6401W        W73469   0.890   5.769   1.344
 6402W        W73470  25.160  33.406  14.473
 6403W        W73471  40.476   4.801  13.424
 6404W        W73472  10.283  35.093   5.154
 6405W        W73473  26.527  35.560   4.232
 6406W        W73474   6.406   8.367   3.635
 6407W        W73475  33.975   1.447   1.309
 6408W        W73476  41.883  35.393   2.811
 6409W        W73477  24.085  22.122   0.408
 6410W        W73478  22.078  15.167   2.265
 6411W        W73479  10.171   8.842   0.439
 6412W        W73480  39.544  15.707   5.144
 6413W        W73481  42.881  10.352   1.729
 6414W        W73482   5.208  34.601   3.152
 6415W        W73483  12.193   7.843   4.598
 6416W        W73484  32.452  27.182  13.969
 6417W        W73485   4.403  16.277  12.993
 6418W        W73486  19.147   0.859   0.863
 6419W        W73487  44.905  25.144  12.542
 6420W        W73488  27.111  31.913   3.205
 6421W        W73489   5.934  17.566  11.981
 6422W        W73490  31.410  36.942   0.757
 6423W        W73491  32.487  27.168  14.462
 6424W        W73492  44.949   8.169  12.385
 6425W        W73493  36.002  21.564  10.631
 6426W        W73494   3.847  14.136  14.889
 6427W        W73495   7.271  35.858   2.245
 6428W        W73496  27.446  33.537   4.350
 6429W        W73497   2.436   4.882  12.349
 6430W        W73498  30.549   0.855  11.032
 6431W        W73499   6.793  40.008  11.902
 6432W        W73500  41.335  36.951  10.628
 6433W        W73501  12.243  33.123   1.419
 6434W        W73502   7.769  23.989   3.868
 6435W        W73503  23.045  32.535   4.251
 6436W        W73504   4.840  29.145   9.970
 6437W        W73505   8.199  31.456   2.180
 6438W        W73506  24.092  21.111   1.714
 6439W        W73507   6.193  34.406   4.278
 6440W        W73508  14.713  12.213   2.692
 6441W        W73509  11.733  19.600  14.793
 6442W        W73510  12.696  33.027   2.243
 6443W        W73511  24.491  18.787  11.390
 6444W        W73512  38.543  12.687   1.725
 6445W        W73513  26.097  15.736  12.014
 6446W        W73514  22.067  29.921  10.431
 6447W        W73515  20.166   6.280   1.240
 6448W        W73516   0.263  23.028  10.636
 6449W        W73517  25.994  34.454   3.857
 6450W        W73518  39.560  27.115  10.485
 6451W        W73519  31.437   5.391   2.689
 6452W        W73520  37.343  18.268  13.020
 6453W        W73521  31.592  25.551   1.398
 6454W        W73522  42.465  12.740   3.750
 6455W        W73523  33.538  27.545   3.374
 6456W        W73524  16.113  14.619  11.122
 6457W        W73525  20.621  39.317  12.487
 6458W        W73526   7.814  31.068  11.077
 6459W        W73527  18.254  34.446   4.670
 6460W        W73528   3.725   6.910   0.940
 6461W        W73529  21.699  36.856  12.927
 6462W        W73530   4.901  25.188  13.803
 6463W        W73531  14.282  28.186   5.236
 6464W        W73532  38.035  33.042  12.867
 6465W        W73533  26.177   1.898   4.125
 6466W        W73534  13.322  43.879   4.256
 6467W        W73535  33.443   5.266  12.565
 6468W        W73536   0.979   0.856   1.335
 6469W        W73537  21.255  22.037  12.004
 6470W        W73538  37.921  27.631   0.959
 6471W        W73539  11.314  31.542   2.388
 6472W        W73540  32.105  16.718   4.223
 6473W        W73541  29.924  41.042   2.751
 6474W        W73542  44.279  21.745   4.312
 6475W        W73543  33.944   7.679  14.771
 6476W        W73544  15.822  38.967  10.908
 6477W        W73545   5.733   3.214  13.061
 6478W        W73546  28.108  10.651  10.425
 6479W        W73547  18.099  38.501  13.441
 6480W        W73548  38.040  24.079   2.259
 6481W        W73549  44.307  13.273  11.474
 6482W        W73550  24.626  24.696  13.439
 6483W        W73551  27.518  33.948  12.342
 6484W        W73552  23.989  41.307  12.357
 6485W        W73553  25.693  17.263  10.082
 6486W        W73554  34.375  42.404  14.997
 6487W        W73555  11.733  35.068   1.715
 6488W        W73556  17.242  11.145   3.229
 6489W        W73557  17.699  12.669  14.896
 6490W        W73558  16.138  26.163  14.980
 6491W        W73559   5.695  21.619  11.910
 6492W        W73560  11.746  10.724   4.237
 6493W        W73561  38.820   9.376  13.061
 6494W        W73562  40.472  32.607  12.840
 6495W        W73563   6.886  29.993  11.517
 6496W        W73564  22.651   7.678   3.369
 6497W        W73565  39.022  10.810   0.480
 6498W        W73566  41.798  17.794   0.451
 6499W        W73567  15.141  18.247   0.456
 6500W        W73568  32.617  27.484   4.610
 6501W        W73569  23.622  25.198   3.747
 6502W        W73570  44.295  24.113   5.275
 6503W        W73571  19.601  40.329   2.289
 6504W        W73572  38.992   2.750   3.664
 6505W        W73573   7.880  10.874  11.391
 6506W        W73574  38.859  13.147  10.905
 6507W        W73575  32.484  40.001   1.715
 6508W        W73576  18.558  10.239  14.993
 6509W        W73577  28.596  41.934   4.215
 6510W        W73578  33.946  42.476  11.909
 6511W        W73579   4.903  10.148   5.286
 6512W        W73580  33.563   7.328   0.449
 6513W        W73581  29.653  29.925   0.751
 6514W        W73582  18.755  27.181   3.772
 6515W        W73583  25.530  29.133  10.608
 6516W        W73584  43.447  40.534   4.749
 6517W        W73585  40.483  41.825  11.035
 6518W        W73586   3.832  13.176  11.577
 6519W        W73587  11.774  12.157   0.740
 6520W        W73588  16.142  38.510   2.666
 6521W        W73589   9.320   4.448  12.422
 6522W        W73590  18.728   0.421   3.805
 6523W        W73591   4.417  41.302  11.483
 6524W        W73592  16.628  15.641   0.830
 6525W        W73593  28.956  44.335   2.815
 6526W        W73594  16.725  34.430  14.344
 6527W        W73595   2.459  19.634  14.370
 6528W        W73596  25.148  18.721  10.408
 6529W        W73597   3.935  17.569   2.418
 6530W        W73598  34.474  14.135  10.416
 6531W        W73599   9.823   1.241  14.396
 6532W        W73600  32.522  22.623  14.346
 6533W        W73601  29.587  36.889  12.892
 6534W        W73602   0.894  32.482   2.839
 6535W        W73603   6.243  11.866   4.641
 6536W        W73604  40.510   8.763   3.685
 6537W        W73605   9.881  20.652   1.771
 6538W        W73606   8.383  26.659   2.232
 6539W        W73607   1.281  22.095  11.116
 6540W        W73608  13.272  37.523   2.838
 6541W        W73609   2.251  16.570   2.319
 6542W        W73610  15.321  36.000   0.737
 6543W        W73611  28.032   8.886  11.984
 6544W        W73612  35.901  32.960   4.124
 6545W        W73613  16.259  21.097  13.310
 6546W        W73614  40.331   4.746  11.051
 6547W        W73615  36.954  31.463   3.272
 6548W        W73616  25.084  35.045  10.462
 6549W        W73617   4.920  13.140  10.927
 6550W        W73618  29.013  25.544  12.528
 6551W        W73619  38.407   0.921   0.286
 6552W        W73620  32.441  19.223   3.859
 6553W        W73621  44.288  43.868   2.695
 6554W        W73622  18.197   8.876   3.781
 6555W        W73623  16.132   8.816   4.257
 6556W        W73624  12.284  11.208  14.467
 6557W        W73625  14.138  36.355   4.276
 6558W        W73626  11.676  42.853  13.994
 6559W        W73627  15.665   9.263   1.811
 6560W        W73628  25.665  19.631  10.912
 6561W        W73629  11.288  25.111  14.793
 6562W        W73630  37.383  37.838   2.295
 6563W        W73631   1.772  28.965   0.758
 6564W        W73632   5.325   5.425  13.434
 6565W        W73633  22.695  42.780  10.580
 6566W        W73634  43.936  33.535   5.762
 6567W        W73635  37.378  37.553   2.274
 6568W        W73636   1.241  31.097  10.894
 6569W        W73637  42.926   0.952   0.285
 6570W        W73638  26.990  14.255  14.776
 6571W        W73639  34.052  19.135  12.025
 6572W        W73640  18.061  37.041   3.744
 6573W        W73641  35.863  43.909  12.879
 6574W        W73642  20.206  26.091  11.965
 6575W        W73643  25.584  40.442   2.311
 6576W        W73644  41.448  36.549  14.281
 6577W        W73645   0.923  18.119  11.077
 6578W        W73646  31.019  36.586   4.345
 6579W        W73647  26.114  44.342   2.724
 6580W        W73648  37.918   2.896  13.899
 6581W        W73649   4.223  43.392   4.798
 6582W        W73650   4.772  16.647   2.745
 6583W        W73651  36.842  23.640  13.887
 6584W        W73652  26.056  34.503   4.316
 6585W        W73653  34.054  17.773  13.003
 6586W        W73654  10.735  25.614  11.571
 6587W        W73655  12.790  10.792   4.750
 6588W        W73656  12.748  35.972  12.097
 6589W        W73657  23.678  18.738  14.847
 6590W        W73658  27.527  41.452   3.252
 6591W        W73659   6.246  10.169  13.810
 6592W        W73660  30.921   9.850   0.258
 6593W        W73661  25.010  42.842   0.742
 6594W        W73662  24.690  31.130  14.488
 6595W        W73663   8.689  13.820  10.931
 6596W        W73664  41.957  25.174   1.393
 6597W        W73665  36.579  22.565   2.282
 6598W        W73666  22.249  29.919  13.429
 6599W        W73667   0.421  21.017  11.405
 6600W        W73668  25.101  44.859  11.030
 6601W        W73669  32.913  30.478   4.791
 6602W        W73670   0.867   8.760   2.392
 6603W        W73671  10.817   7.766  11.379
 6604W        W73672  22.148  19.225  11.886
 6605W        W73673  20.672   4.282  12.389
 6606W        W73674  38.383  40.318   4.614
 6607W        W73675  15.705  41.028  11.415
 6608W        W73676  16.665  35.070   3.723
 6609W        W73677  26.012  30.018  11.116
 6610W        W73678  37.077  39.905   1.415
 6611W        W73679   8.389   2.270   4.162
 6612W        W73680   4.329  16.605   5.243
 6613W        W73681  29.964  19.118  10.470
 6614W        W73682  14.190  38.868   3.265
 6615W        W73683  20.213   4.443   0.785
 6616W        W73684  26.166  29.023  14.869
 6617W        W73685  30.471   0.441   3.310
 6618W        W73686   2.926  15.673  10.533
 6619W        W73687  23.240  32.893  14.849
 6620W        W73688   0.318  35.425  14.032
 6621W        W73689  41.858  24.155   2.308
 6622W        W73690  27.940  39.983   1.917
 6623W        W73691   9.380  19.138  12.966
 6624W        W73692  11.222   4.865  13.967
 6625W        W73693  13.609  21.642   1.724
 6626W        W73694   1.849  30.916  13.999
 6627W        W73695  34.514  28.469   1.873
 6628W        W73696  22.172  24.631  11.062
 6629W        W73697   7.190  17.156  10.938
 6630W        W73698  11.679  23.993   4.219
 6631W        W73699  30.945   8.812  11.390
 6632W        W73700  37.467  32.483  13.311
 6633W        W73701  14.301  29.622  12.873
 6634W        W73702  41.992   9.239   3.768
 6635W        W73703  41.790   8.870  11.473
 6636W        W73704  31.533   8.283   4.598
 6637W        W73705  35.464  32.577  10.641
 6638W        W73706   3.758   1.744   0.831
 6639W        W73707   3.237  13.754   4.348
 6640W        W73708  37.909  29.038  14.788
 6641W        W73709  40.393  37.995  11.583
 6642W        W73710  15.646   1.321  11.396
 6643W        W73711   4.926  24.206   4.727
 6644W        W73712   6.739  15.092  14.032
 6645W        W73713  34.028   6.416   0.417
 6646W        W73714  14.162  21.094  11.930
 6647W        W73715  32.515  23.227   5.605
 6648W        W73716  44.398  18.637   2.854
 6649W        W73717  40.824  42.979   0.734
 6650W        W73718  38.860  30.652   0.468
 6651W        W73719  24.057  18.685  12.979
 6652W        W73720   8.183  44.360   4.729
 6653W        W73721   9.818  19.248  10.994
 6654W        W73722  37.991  39.937   3.824
 6655W        W73723  43.981   2.293   4.204
 6656W        W73724  42.872   4.841   3.193
 6657W        W73725  38.871  39.871   3.741
 6658W        W73726  21.534  43.293  11.933
 6659W        W73727  42.341  40.417  11.961
 6660W        W73728  26.122  38.466  11.551
 6661W        W73729  20.560  23.584   0.369
 6662W        W73730   9.274  25.494   4.256
 6663W        W73731  16.719  31.152  13.544
 6664W        W73732  24.120  18.067   3.378
 6665W        W73733  27.524  20.252   1.386
 6666W        W73734  28.473  18.612   1.372
 6667W        W73735  35.897  44.391   1.855
 6668W        W73736  29.158  24.990  14.987
 6669W        W73737  30.110  28.677   0.476
 6670W        W73738   6.348  22.665  14.286
 6671W        W73739   7.703  15.282  11.564
 6672W        W73740  20.645  11.719   0.265
 6673W        W73741   8.209  36.367   4.791
 6674W        W73742  13.167   1.419  11.092
 6675W        W73743  19.774  36.419   5.154
 6676W        W73744  10.776  23.626   2.209
 6677W        W73745  38.012  34.030  10.421
 6678W        W73746  23.670  19.730   2.828
 6679W        W73747   2.230  40.350   1.816
 6680W        W73748  32.544  24.704  13.438
 6681W        W73749   7.810  37.854   3.182
 6682W        W73750  40.960  37.580  14.914
 6683W        W73751  16.738  36.572  10.950
 6684W        W73752   7.826  42.802  13.451
 6685W        W73753  19.675  25.087   0.356
 6686W        W73754  27.185  15.188   4.677
 6687W        W73755   7.800  40.462  10.518
 6688W        W73756  39.532  43.352  12.027
 6689W        W73757   9.833  26.979   1.374
 6690W        W73758  17.620   6.729   3.154
 6691W        W73759  10.144  20.162  13.038
 6692W        W73760   5.717   4.870   0.331
 6693W        W73761  13.707  17.242  12.018
 6694W        W73762  17.593  31.623   4.673
 6695W        W73763  16.226  19.597   1.706
 6696W        W73764  23.083  17.656   2.398
 6697W        W73765  15.801  44.453   2.223
 6698W        W73766  40.044  22.642  11.951
 6699W        W73767   0.821  20.187   1.820
 6700W        W73768  18.574  16.146   3.262
 6701W        W73769  31.636   7.413  13.058
 6702W        W73770  11.314  23.014   0.835
 6703W        W73771  39.929  26.171  14.806
 6704W        W73772  35.568  34.494  12.894
 6705W        W73773   0.885  27.607  12.973
 6706W        W73774  32.062   6.186   1.702
 6707W        W73775  20.658   7.326   1.331
 6708W        W73776  22.045  13.806  10.533
 6709W        W73777  41.307  10.661   4.675
 6710W        W73778  37.509  38.508   1.394
 6711W        W73779  19.079  10.779  13.030
 6712W        W73780  16.746   7.268  11.908
 6713W        W73781  23.211  20.566  14.461
 6714W        W73782  18.612  34.875   4.287
 6715W        W73783  23.074  41.503   2.858
 6716W        W73784  15.290  11.175  11.573
 6717W        W73785  39.489  15.211  14.853
 6718W        W73786  44.876  33.922  14.893
 6719W        W73787  31.099   8.230  13.931
 6720W        W73788  26.457  32.537  14.354
 6721W        W73789   5.218  40.930  10.913
 6722W        W73790  25.617   8.399  10.971
 6723W        W73791   8.829   4.778  14.966
 6724W        W73792  13.145   6.915  12.827
 6725W        W73793  27.183   5.837  12.965
 6726W        W73794  35.408  40.363  11.607
 6727W        W73795  29.005  21.568  12.069
 6728W        W73796  14.169  26.650  10.544
 6729W        W73797  16.211  13.726   1.309
 6730W        W73798   7.254  39.022   3.688
 6731W        W73799  20.075  22.741   0.866
 6732W        W73800   1.751   9.713   4.628
 6733W        W73801  17.598  38.381  13.542
 6734W        W73802  18.786  43.954  10.909
 6735W        W73803  42.935  28.127   4.791
 6736W        W73804  31.480   8.209   2.218
 6737W        W73805  23.682  36.869   2.663
 6738W        W73806  42.795  14.168  13.465
 6739W        W73807   5.829  37.538  13.379
 6740W        W73808  44.765  34.054  13.495
 6741W        W73809  12.324  36.390  10.572
 6742W        W73810  26.672   7.868  14.409
 6743W        W73811  31.897  16.695  12.520
 6744W        W73812  23.227   5.314   1.343
 6745W        W73813  24.092  28.500   4.311
 6746W        W73814  34.887  28.482  13.312
 6747W        W73815  28.517  30.139  12.852
 6748W        W73816  38.947  44.759  13.506
 6749W        W73817  21.639   8.869   2.236
 6750W        W73818  34.039  15.685   0.424
 6751W        W73819  20.114   5.873  12.560
 6752W        W73820   6.711  16.784  13.007
 6753W        W73821  19.554   9.156   4.677
 6754W        W73822  40.328  32.109  14.921
 6755W        W73823  15.617   1.429  12.430
 6756W        W73824  11.657   8.366   2.727
 6757W        W73825  17.764  27.992   9.470
 6758W        W73826  33.012   4.382   1.927
 6759W        W73827  38.533  13.170  14.949
 6760W        W73828  38.877  32.582  10.543
 6761W        W73829  40.365  17.764  11.054
 6762W        W73830   6.867  28.074   4.834
 6763W        W73831  17.705   2.812   3.170
 6764W        W73832  36.032  22.211  12.512
 6765W        W73833  23.019  34.012  10.992
 6766W        W73834  42.825  32.921   1.788
 6767W        W73835  18.119  34.547  11.914
 6768W        W73836  14.233  41.483   2.812
 6769W        W73837   3.875   1.262   0.943
 6770W        W73838  25.688  13.302   3.802
 6771W        W73839  29.001  38.563  12.865
 6772W        W73840   4.888  15.107   3.289
 6773W        W73841  22.197  22.996  11.001
 6774W        W73842  26.954   2.322   1.319
 6775W        W73843   6.853  16.288   0.465
 6776W        W73844  21.180  19.096  14.821
 6777W        W73845   1.315  27.471  13.887
 6778W        W73846  20.268  28.585  13.875
 6779W        W73847  27.583  34.420   5.203
 6780W        W73848  26.039  14.604   3.653
 6781W        W73849  24.163  37.341  10.585
 6782W        W73850  30.459  10.216   0.783
 6783W        W73851  32.019  22.078  14.802
 6784W        W73852  10.276  16.644  11.027
 6785W        W73853  13.717  19.756  13.414
 6786W        W73854  30.616   2.831  11.580
 6787W        W73855  39.536  33.613  13.539
 6788W        W73856  42.983  10.757  13.967
 6789W        W73857   3.895  37.474   4.759
 6790W        W73858  19.686   6.224  10.486
 6791W        W73859  25.172  29.536   4.219
 6792W        W73860  44.354   5.901   0.376
 6793W        W73861  37.012   4.730   2.340
 6794W        W73862   3.304   1.740   3.283
 6795W        W73863  22.651  33.109   3.744
 6796W        W73864  28.441  19.156  12.901
 6797W        W73865  11.708  43.505   3.371
 6798W        W73866   0.358  17.165  12.389
 6799W        W73867  34.034  17.203   3.633
 6800W        W73868  35.408  32.066  14.979
 6801W        W73869  41.968  22.621   4.630
 6802W        W73870  10.706   2.840   1.364
 6803W        W73871   5.369  26.511   0.255
 6804W        W73872  35.379   8.311   2.408
 6805W        W73873   8.768  18.730   0.922
 6806W        W73874  27.477  11.828   3.713
 6807W        W73875   1.329  27.621  14.448
 6808W        W73876   5.859   8.394  14.923
 6809W        W73877  12.330  31.904  10.122
 6810W        W73878  11.369  14.137   4.135
 6811W        W73879  27.660   6.380   3.312
 6812W        W73880  21.057  39.974   0.831
 6813W        W73881  33.380   5.391  14.886
 6814W        W73882  28.576  30.015   3.282
 6815W        W73883  21.022  31.613  13.388
 6816W        W73884  21.027  19.725   2.376
 6817W        W73885  27.945  23.135   2.281
 6818W        W73886  30.577  11.828  11.532
 6819W        W73887  31.585  35.473  13.989
 6820W        W73888  15.156   3.247   0.930
 6821W        W73889  31.151  30.130   4.345
 6822W        W73890  42.940   8.860  14.907
 6823W        W73891  27.195  24.201   2.193
 6824W        W73892  17.228  28.080   0.361
 6825W        W73893   9.158  27.541  14.419
 6826W        W73894  39.553   7.211  10.914
 6827W        W73895   9.777  27.959   3.152
 6828W        W73896  41.925   8.701   4.335
 6829W        W73897  25.649   5.317  13.832
 6830W        W73898  26.966  37.928  13.867
 6831W        W73899  28.121  19.183  12.877
 6832W        W73900  23.663  12.840  12.051
 6833W        W73901  43.325  23.596  12.951
 6834W        W73902  21.032  42.778  11.097
 6835W        W73903  41.296  14.185   3.159
 6836W        W73904  10.750   5.250   1.371
 6837W        W73905  18.628  41.887   0.293
 6838W        W73906   4.344  29.170  13.885
 6839W        W73907  13.819   8.186  12.932
 6840W        W73908  18.249  33.021   2.210
 6841W        W73909  39.318  17.683  13.415
 6842W        W73910   1.347  28.970   3.754
 6843W        W73911  30.122  38.988  12.342
 6844W        W73912  44.947  20.620  14.868
 6845W        W73913   6.919  25.601   0.461
 6846W        W73914   2.389  33.074   4.245
 6847W        W73915  29.652  20.116   4.660
 6848W        W73916  20.235  28.469   3.334
 6849W        W73917  37.864   9.193  14.861
 6850W        W73918  28.088   0.248   4.338
 6851W        W73919   4.810   6.256  14.903
 6852W        W73920  38.462  11.142   2.352
 6853W        W73921   1.758  43.795  12.958
 6854W        W73922  35.062  23.507   1.425
 6855W        W73923   2.931  43.398  13.935
 6856W        W73924  13.649  11.364  11.968
 6857W        W73925  22.251  38.331  13.912
 6858W        W73926   3.909   3.256   2.262
 6859W        W73927   6.702  24.522   4.816
 6860W        W73928   0.364  23.123   3.193
 6861W        W73929  33.597  27.458   3.676
 6862W        W73930  33.896  37.580  14.514
 6863W        W73931  20.747  22.565   1.265
 6864W        W73932   8.268  38.841   1.767
 6865W        W73933  20.238   8.824  14.286
 6866W        W73934  14.185  39.865   2.232
 6867W        W73935  36.863   3.447   4.681
 6868W        W73936  31.462  27.528  13.818
 6869W        W73937  14.827  10.297  12.909
 6870W        W73938  30.039  21.691  14.361
 6871W        W73939  12.329  17.786  13.510
 6872W        W73940  41.512  10.166  12.545
 6873W        W73941   6.690  21.089   2.309
 6874W        W73942   9.188  26.109   4.743
 6875W        W73943  28.101  34.494  12.461
 6876W        W73944   4.742  28.502   0.881
 6877W        W73945  42.936  30.157   4.641
 6878W        W73946  27.958  44.923   3.771
 6879W        W73947  22.055  28.524  12.519
 6880W        W73948  22.529  34.000   3.746
 6881W        W73949  19.215  16.135  13.910
 6882W        W73950  33.389  41.394   1.386
 6883W        W73951  29.437  20.239   2.247
 6884W        W73952  23.645  42.824   2.662
 6885W        W73953  41.398  32.606   2.776
 6886W        W73954  41.467  23.619   2.389
 6887W        W73955  38.467  35.480  13.019
 6888W        W73956  35.379   5.924  13.827
 6889W        W73957  41.042  37.368   1.715
 6890W        W73958  16.721  28.442  11.064
 6891W        W73959  36.974  33.123   2.745
 6892W        W73960  36.480  31.099  14.771
 6893W        W73961  11.790   4.715   3.720
 6894W        W73962  28.601  31.123  12.347
 6895W        W73963  27.038  33.483  12.023
 6896W        W73964  34.476  28.956  14.815
 6897W        W73965  15.149  10.872   4.677
 6898W        W73966   6.750  38.422   2.876
 6899W        W73967   4.823  21.121   5.096
 6900W        W73968   0.981  35.852  12.520
 6901W        W73969  36.874  24.091  14.781
 6902W        W73970  34.115  21.249  10.581
 6903W        W73971   1.811  12.779   1.794
 6904W        W73972  25.631  14.813  13.885
 6905W        W73973  10.749  31.987  14.010
 6906W        W73974  24.525  16.103  11.056
 6907W        W73975  21.166   2.317   3.303
 6908W        W73976  17.598   4.311   4.262
 6909W        W73977   2.926  11.706   2.399
 6910W        W73978  25.705  16.078   1.849
 6911W        W73979  36.099  23.032  13.488
 6912W        W73980  20.607  40.817   5.241
 6913W        W73981  32.589  28.059   3.240
 6914W        W73982  40.833  19.669   1.905
 6915W        W73983  40.851   7.789  11.946
 6916W        W73984  25.545   1.872   3.834
 6917W        W73985  25.021  27.513   1.821
 6918W        W73986  23.523   1.406  13.405
 6919W        W73987  34.492  26.695   4.619
 6920W        W73988  38.489  27.609  14.349
 6921W        W73989  12.286   2.461   1.317
 6922W        W73990   3.757   0.396  10.485
 6923W        W73991   7.184  38.541  12.927
 6924W        W73992  33.443  35.096  14.979
 6925W        W73993  29.496  44.495   3.835
 6926W        W73994  11.738  25.479  11.427
 6927W        W73995  11.835  35.061  10.504
 6928W        W73996  22.669  10.782  14.869
 6929W        W73997  29.129  11.187   2.200
 6930W        W73998  19.190   3.237   3.697
 6931W        W73999  13.221  28.029  11.516
 6932W        W74000  26.458  30.578   0.803
 6933W        W74001  37.510   2.404   1.407
 6934W        W74002  25.518   3.272   5.229
 6935W        W74003  21.590  26.993  13.039
 6936W        W74004   0.842  40.449   0.810
 6937W        W74005  13.811  30.003  10.487
 6938W        W74006  16.744  34.918   4.331
 6939W        W74007  43.853  26.651  10.612
 6940W        W74008  15.102  43.450  14.453
 6941W        W74009  43.898  12.648  11.901
 6942W        W74010  11.178  29.008   2.225
 6943W        W74011  22.233  31.986   4.287
 6944W        W74012  22.223  27.131   1.317
 6945W        W74013   6.262  30.608  13.932
 6946W        W74014   3.317   2.767   3.838
 6947W        W74015  16.190  41.904  10.522
 6948W        W74016   2.383   6.793   0.339
 6949W        W74017  37.956  43.916  12.885
 6950W        W74018  19.655  42.993   0.827
 6951W        W74019  33.965  21.192   3.278
 6952W        W74020  16.085  42.306   2.876
 6953W        W74021  41.841  18.106  11.579
 6954W        W74022  18.187  16.106   2.393
 6955W        W74023  25.658  38.449  12.875
 6956W        W74024  23.984  31.930   4.819
 6957W        W74025  10.858   6.249   0.466
 6958W        W74026  41.466  37.376  12.940
 6959W        W74027   9.285  29.437  14.894
 6960W        W74028   5.390   0.972  13.871
 6961W        W74029  19.061  38.862   3.258
 6962W        W74030   4.776  39.319   4.680
 6963W        W74031  22.217   0.922  14.776
 6964W        W74032  14.693  31.640   4.804
 6965W        W74033  18.687  10.679  12.905
 6966W        W74034  24.204  43.818  10.974
 6967W        W74035  10.871   3.738  10.498
 6968W        W74036  18.171  30.066   0.243
 6969W        W74037  17.181   4.713   2.193
 6970W        W74038  19.117  44.009  14.935
 6971W        W74039  40.873  24.690  14.935
 6972W        W74040  29.006  28.969  13.468
 6973W        W74041  15.120  19.593   1.366
 6974W        W74042  36.385  20.040  11.535
 6975W        W74043  19.631  20.161   3.275
 6976W        W74044  28.651   8.724   1.867
 6977W        W74045  14.205  34.420   1.933
 6978W        W74046  37.968  42.937   3.734
 6979W        W74047   3.876   3.323   4.706
 6980W        W74048  36.558   6.883   3.644
 6981W        W74049  41.310  24.189  12.484
 6982W        W74050  13.833   4.224   0.752
 6983W        W74051  14.693  16.720  12.957
 6984W        W74052  42.415  44.448   1.225
 6985W        W74053  30.995  33.504   0.475
 6986W        W74054  25.197  32.433  14.007
 6987W        W74055  19.126  18.249  11.049
 6988W        W74056  40.401  15.141   2.205
 6989W        W74057  44.414  33.480  12.946
 6990W        W74058  23.619   4.237   1.260
 6991W        W74059  39.993   7.737  12.366
 6992W        W74060   8.391  39.402  14.859
 6993W        W74061  15.654  25.186   2.765
 6994W        W74062  36.405  42.318  14.758
 6995W        W74063  29.446  31.100  12.541
 6996W        W74064   1.303  22.691  14.876
 6997W        W74065  23.642  38.539  10.935
 6998W        W74066  14.720  40.324  14.405
 6999W        W74067   7.362  43.308   3.304
 7000W        W74068  31.056  15.719   4.317
 7001W        W74069  36.919  13.755   2.386
 7002W        W74070   7.177  34.966   2.860
 7003W        W74071   4.875  28.958  14.381
 7004W        W74072  15.269  24.529  11.019
 7005W        W74073  22.536  41.803   4.699
 7006W        W74074  13.601  18.113   2.201
 7007W        W74075  22.564   3.266  13.441
 7008W        W74076  32.007  24.026  12.517
 7009W        W74077  16.183  35.067  13.000
 7010W        W74078  44.842  19.696  13.955
 7011W        W74079   3.261  12.131   4.254
 7012W        W74080  16.611  38.837   1.213
 7013W        W74081  44.279  42.525   0.449
 7014W        W74082  37.369  26.080  13.396
 7015W        W74083   7.759   6.286  13.808
 7016W        W74084  21.219  20.719   0.425
 7017W        W74085   1.911   9.391   2.324
 7018W        W74086  40.332  38.437  13.365
 7019W        W74087   8.708  26.072   0.334
 7020W        W74088  34.532  43.966   4.259
 7021W        W74089   3.261  11.694   4.732
 7022W        W74090  13.804  33.078   2.217
 7023W        W74091  35.441  40.373   0.822
 7024W        W74092   4.203  22.133  14.402
 7025W        W74093   4.242  23.150  10.901
 7026W        W74094  12.320  23.029   3.711
 7027W        W74095  20.173   8.768   1.906
 7028W        W74096  12.696  19.762   2.815
 7029W        W74097  34.444  14.693   0.741
 7030W        W74098   2.250  15.735  12.902
 7031W        W74099  25.981  12.234  10.465
 7032W        W74100   5.756   5.211   1.880
 7033W        W74101   0.378   9.210   4.812
 7034W        W74102  40.381   6.884   1.805
 7035W        W74103  35.556  24.979  11.003
 7036W        W74104  38.535  39.485   1.249
 7037W        W74105  12.352  13.750  12.835
 7038W        W74106  43.362   3.942   0.750
 7039W        W74107  26.078   2.762  13.812
 7040W        W74108  10.268  41.805   2.342
 7041W        W74109  27.971  39.954  11.554
 7042W        W74110   7.257   0.763  12.421
 7043W        W74111  32.039  43.289   4.178
 7044W        W74112  42.365   8.870   2.373
 7045W        W74113   3.780  39.880  14.492
 7046W        W74114  44.895  43.291   3.849
 7047W        W74115  26.651  32.930  10.971
 7048W        W74116  35.009  16.192   3.213
 7049W        W74117  29.509  42.886  11.608
 7050W        W74118  28.585  26.168  13.979
 7051W        W74119  16.644  12.644   1.301
 7052W        W74120  36.011  16.316  11.116
 7053W        W74121  13.124  35.441   4.655
 7054W        W74122   2.885  44.995   2.900
 7055W        W74123  21.696   9.748   2.791
 7056W        W74124  24.010   7.372  11.032
 7057W        W74125  13.682  34.433   2.400
 7058W        W74126  21.054  17.622   1.305
 7059W        W74127   8.756  39.833   1.263
 7060W        W74128  12.781  28.053   2.353
 7061W        W74129  21.666  31.453  10.497
 7062W        W74130  35.882  33.063  12.057
 7063W        W74131   6.191  10.252   1.750
 7064W        W74132  43.020   7.238   3.254
 7065W        W74133   4.929   7.873  10.548
 7066W        W74134  16.305  36.437   4.344
 7067W        W74135  18.740  27.091   1.732
 7068W        W74136  27.005  40.801   4.688
 7069W        W74137   0.312   7.810   0.423
 7070W        W74138  33.017  17.559  10.554
 7071W        W74139  43.851   3.905   1.780
 7072W        W74140  12.141  24.618   4.598
 7073W        W74141  15.173  41.299  13.507
 7074W        W74142   0.390  27.109  10.636
 7075W        W74143  41.359  15.172  14.961
 7076W        W74144  42.878  25.695  13.034
 7077W        W74145  30.045  44.287   9.997
 7078W        W74146  32.582  10.247  14.407
 7079W        W74147   8.663  20.597   1.715
 7080W        W74148  29.494  28.121   5.114
 7081W        W74149  36.080   4.869   2.380
 7082W        W74150  33.934  23.128  11.123
 7083W        W74151  32.107  42.910   1.399
 7084W        W74152  34.879  10.370  12.847
 7085W        W74153  16.619  26.499  11.015
 7086W        W74154   2.757  24.025  12.917
 7087W        W74155  13.312  40.491  11.883
 7088W        W74156  32.622  23.066   4.212
 7089W        W74157  41.935  24.165   2.687
 7090W        W74158  44.947  17.253   0.398
 7091W        W74159  34.918  19.601   3.856
 7092W        W74160  43.803  18.162   4.696
 7093W        W74161  10.797   7.380  13.043
 7094W        W74162   5.426  25.533  12.090
 7095W        W74163  16.742  27.100   1.697
 7096W        W74164  23.627  18.665   4.792
 7097W        W74165   5.227  41.316   4.731
 7098W        W74166  21.527  41.337  11.506
 7099W        W74167   0.945   7.903  11.445
 7100W        W74168  42.476  23.620  13.855
 7101W        W74169  33.384  12.840  10.639
 7102W        W74170   3.459  35.107  14.808
 7103W        W74171   8.763  20.714   0.778
 7104W        W74172   2.254   7.673   4.681
 7105W        W74173  14.748  18.596  10.944
 7106W        W74174  39.392  42.886  13.374
 7107W        W74175  24.722  14.779  14.452
 7108W        W74176  30.088  21.142  14.337
 7109W        W74177  28.176  22.722   3.308
 7110W        W74178  44.470   6.280   0.430
 7111W        W74179  10.656  19.145   4.192
 7112W        W74180  39.961  23.215  12.394
 7113W        W74181   0.253  25.702   2.324
 7114W        W74182  41.003  18.096   2.179
 7115W        W74183  26.465  37.381   3.728
 7116W        W74184  30.566  18.069   3.852
 7117W        W74185  30.431  34.600   1.741
 7118W        W74186  26.556   3.840   1.391
 7119W        W74187   2.806  15.585  12.017
 7120W        W74188  38.060  16.245  12.548
 7121W        W74189  22.175   9.709   1.711
 7122W        W74190  27.671  14.315   4.617
 7123W        W74191   8.386  39.475  11.059
 7124W        W74192  36.025  26.958   3.820
 7125W        W74193  21.568  43.390   2.233
 7126W        W74194   5.394  37.362  13.380
 7127W        W74195  29.540  24.106   2.297
 7128W        W74196  42.497  41.813  11.410
 7129W        W74197  21.690  36.855   4.670
 7130W        W74198  13.176  28.528  12.033
 7131W        W74199   7.232   3.214   2.357
 7132W        W74200  12.152  18.073  14.792
 7133W        W74201  26.980  13.769  12.939
 7134W        W74202   7.270  15.302   2.845
 7135W        W74203  25.490  17.231  14.925
 7136W        W74204  27.646  40.452  11.932
 7137W        W74205   9.257  24.104  10.519
 7138W        W74206  13.228  27.073  11.545
 7139W        W74207  10.159   9.850   2.375
 7140W        W74208  25.661  14.244   1.813
 7141W        W74209  33.954  13.258  14.008
 7142W        W74210   3.356  17.652  14.313
 7143W        W74211  33.490   2.888  10.981
 7144W        W74212  17.676  33.928   1.435
 7145W        W74213  23.499  20.581  11.918
 7146W        W74214  17.226   9.698   3.770
 7147W        W74215   3.747   3.215  12.381
 7148W        W74216   8.173  40.962  13.321
 7149W        W74217  31.126  44.288  11.383
 7150W        W74218  20.743  13.832   4.784
 7151W        W74219  39.380  42.933   3.704
 7152W        W74220  11.263  17.154  13.412
 7153W        W74221  34.444  21.751   2.900
 7154W        W74222  37.860  41.508  10.600
 7155W        W74223  16.253  41.303   0.904
 7156W        W74224  16.775  37.378  14.007
 7157W        W74225  17.137  11.840   1.223
 7158W        W74226  18.270  18.114  12.507
 7159W        W74227   4.209  17.194  11.898
 7160W        W74228  38.350  10.233   0.246
 7161W        W74229  37.931   1.351   0.911
 7162W        W74230  35.857  25.605  10.553
 7163W        W74231  39.989  30.455  14.434
 7164W        W74232  41.025  16.769   0.783
 7165W        W74233   1.287  30.465  11.519
 7166W        W74234   9.854  35.027   4.728
 7167W        W74235  25.170   1.382  14.881
 7168W        W74236   4.204   5.353   1.882
 7169W        W74237  10.768  22.077  14.447
 7170W        W74238  16.104   7.392   4.336
 7171W        W74239  31.901  17.577  13.001
 7172W        W74240  18.071  24.511  13.910
 7173W        W74241   7.407  34.089   0.335
 7174W        W74242  40.388  10.182  14.317
 7175W        W74243  23.523  31.513  11.445
 7176W        W74244  30.986  27.079  14.835
 7177W        W74245  11.163  10.249   0.755
 7178W        W74246  31.503   9.262   1.437
 7179W        W74247  36.078  16.698   0.445
 7180W        W74248  21.123  11.680  14.417
 7181W        W74249  29.087   5.214  14.789
 7182W        W74250  38.462   2.792   1.219
 7183W        W74251   1.334  41.007  14.955
 7184W        W74252  30.010  41.501   1.850
 7185W        W74253  12.336  37.043  10.432
 7186W        W74254   6.256  19.218   0.780
 7187W        W74255  14.121  20.543   3.274
 7188W        W74256  26.952  31.454   4.827
 7189W        W74257  44.987  36.413   3.803
 7190W        W74258  40.978   9.827   0.255
 7191W        W74259   9.862   4.261   0.262
 7192W        W74260  29.551  43.832  11.860
 7193W        W74261   5.382  44.008   1.214
 7194W        W74262  21.042  22.502  13.510
 7195W        W74263  13.117  41.963   2.269
 7196W        W74264  10.725  39.472  12.025
 7197W        W74265  20.543  31.644   4.277
 7198W        W74266   7.746  37.415   1.868
 7199W        W74267  34.956   1.808   3.228
 7200W        W74268   5.392  26.462  14.373
 7201W        W74269  43.940  38.881   0.768
 7202W        W74270  15.202  44.865  11.588
 7203W        W74271  22.023  14.102   1.903
 7204W        W74272  35.061  44.877   0.372
 7205W        W74273  39.873  37.546   2.809
 7206W        W74274  43.887  21.164  11.457
 7207W        W74275  19.057  12.252  13.356
 7208W        W74276   3.440   6.191   4.332
 7209W        W74277  26.690  36.985  14.295
 7210W        W74278  23.127  40.515  14.303
 7211W        W74279  22.230  10.268   3.307
 7212W        W74280  17.648   1.472  11.417
 7213W        W74281  12.801  41.931  13.395
 7214W        W74282  14.193  34.015  11.420
 7215W        W74283  24.114  34.560  13.546
 7216W        W74284  39.530  42.842   5.150
 7217W        W74285  31.472  22.054  13.857
 7218W        W74286  22.626  11.285  10.095
 7219W        W74287  10.707  43.990   4.752
 7220W        W74288  11.830  30.108  13.826
 7221W        W74289  38.965  21.513   0.811
 7222W        W74290  11.344  28.028  10.499
 7223W        W74291  33.009   8.656  12.545
 7224W        W74292  17.189   0.960   4.317
 7225W        W74293   6.396  41.376   3.739
 7226W        W74294  39.037   4.295   2.201
 7227W        W74295  22.733   5.404  10.516
 7228W        W74296  34.507  16.175  12.433
 7229W        W74297  34.415  18.226   4.642
 7230W        W74298  34.065  18.560  10.579
 7231W        W74299  33.444  20.112   2.713
 7232W        W74300   2.427   6.791   3.280
 7233W        W74301   2.471  41.864   0.445
 7234W        W74302  18.121  39.407  12.358
 7235W        W74303  43.335  38.873  10.455
 7236W        W74304   9.167   2.779   3.697
 7237W        W74305  37.346   3.873  11.377
 7238W        W74306  37.506  37.009   2.793
 7239W        W74307  19.686  32.488  14.460
 7240W        W74308  12.645   5.868  11.103
 7241W        W74309  17.752  44.372   1.363
 7242W        W74310   6.305  44.870   2.856
 7243W        W74311   6.426  30.432  12.887
 7244W        W74312  39.953   7.712   0.807
 7245W        W74313   0.301  39.357  10.980
 7246W        W74314  27.584  38.379  13.973
 7247W        W74315  15.789  36.947  10.579
 7248W        W74316  30.012  30.568   4.143
 7249W        W74317  36.400   5.416   1.287
 7250W        W74318  26.166   1.909   0.949
 7251W        W74319  41.797  31.032  11.866
 7252W        W74320  30.503  12.266   2.283
 7253W        W74321  19.775  44.977   1.434
 7254W        W74322  38.035  30.036  14.983
 7255W        W74323  10.214  28.005   0.263
 7256W        W74324  40.858  42.784   4.291
 7257W        W74325  43.825  37.471  14.359
 7258W        W74326  30.507  29.481   2.378
 7259W        W74327  16.601  42.382  13.040
 7260W        W74328   7.698   3.289   2.778
 7261W        W74329  35.942   9.800  11.386
 7262W        W74330  18.156  44.977  12.529
 7263W        W74331  19.124   1.852   1.339
 7264W        W74332  14.251  12.715   2.406
 7265W        W74333  10.658  24.501  12.093
 7266W        W74334  43.352  35.052   0.873
 7267W        W74335  39.551  40.826   2.308
 7268W        W74336  27.991   1.463  11.085
 7269W        W74337  41.925  14.684  12.013
 7270W        W74338   6.392   5.256   3.185
 7271W        W74339  40.505  21.204   4.264
 7272W        W74340  11.694  42.343   4.312
 7273W        W74341  36.944  35.488   4.787
 7274W        W74342  30.476  37.476   2.871
 7275W        W74343  30.493  21.119  14.488
 7276W        W74344  30.921  34.489  14.028
 7277W        W74345  10.351  14.124   4.244
 7278W        W74346   0.469  25.707  12.426
 7279W        W74347  44.496  37.552   3.376
 7280W        W74348  14.323  15.802  14.990
 7281W        W74349  37.864  26.202   3.311
 7282W        W74350  20.579  35.560   3.853
 7283W        W74351  13.725  19.253  13.426
 7284W        W74352  27.104  20.695   4.231
 7285W        W74353  23.688  24.575  12.343
 7286W        W74354   7.299  23.575  10.642
 7287W        W74355  39.990   3.945   1.315
 7288W        W74356  37.345  15.614  10.991
 7289W        W74357  27.591  43.296  10.612
 7290W        W74358  43.274  35.406   1.325
 7291W        W74359   4.417   7.880  12.050
 7292W        W74360  23.699  19.545   3.189
 7293W        W74361  38.556  28.976  12.497
 7294W        W74362  25.668  20.748   1.800
 7295W        W74363  27.690  23.174   2.878
 7296W        W74364  11.206   0.953   3.266
 7297W        W74365  28.004  16.300   3.241
 7298W        W74366  10.727   4.751  14.829
 7299W        W74367  34.071  36.018  12.492
 7300W        W74368  27.155  16.131  14.795
 7301W        W74369  22.088   4.361   1.747
 7302W        W74370  26.641   4.377   2.716
 7303W        W74371  23.518  37.914   2.850
 7304W        W74372  19.600  21.100   3.844
 7305W        W74373   8.898   3.796   2.883
 7306W        W74374  11.237   3.719   0.333
 7307W        W74375   4.849   8.686  13.051
 7308W        W74376  37.395  10.815  14.817
 7309W        W74377   1.351  16.798   2.201
 7310W        W74378   2.822  19.257   2.416
 7311W        W74379  42.464  23.125  11.961
 7312W        W74380  43.842  27.015  14.422
 7313W        W74381  43.767  33.438  10.013
 7314W        W74382  22.708  44.362   9.953
 7315W        W74383  33.933  13.843  12.476
 7316W        W74384  24.499  34.971   0.950
 7317W        W74385  31.999  20.696  11.428
 7318W        W74386  39.875  23.103   2.181
 7319W        W74387  33.888  41.975  11.407
 7320W        W74388  10.327  25.669   4.741
 7321W        W74389  38.925  22.538  11.990
 7322W        W74390   0.776   9.357  14.318
 7323W        W74391  41.821  16.187  10.928
 7324W        W74392  12.692   5.821  14.931
 7325W        W74393   5.254  42.509   3.347
 7326W        W74394  12.166  16.089  10.505
 7327W        W74395  40.476  44.380  14.908
 7328W        W74396  30.138  29.935   0.810
 7329W        W74397  44.498  21.058  10.120
 7330W        W74398  12.733  20.658  11.973
 7331W        W74399   2.382   6.230   2.668
 7332W        W74400  34.980  10.804   2.772
 7333W        W74401  42.955  39.943   2.805
 7334W        W74402  15.129  41.963  13.541
 7335W        W74403  23.576   1.800  11.551
 7336W        W74404  16.766  38.947   2.902
 7337W        W74405  22.235  30.152  12.502
 7338W        W74406  33.975  18.153  13.960
 7339W        W74407  23.042  18.067  10.474
 7340W        W74408  14.267  11.152  12.524
 7341W        W74409  19.591  36.422   3.357
 7342W        W74410  27.487  28.144  12.364
 7343W        W74411  17.574  12.702   4.317
 7344W        W74412  12.679   9.218  12.036
 7345W        W74413  30.162   0.758  13.827
 7346W        W74414  16.189  36.543   2.246
 7347W        W74415  27.981  35.974   0.803
 7348W        W74416  43.483  41.429  14.868
 7349W        W74417  21.138  23.081   0.464
 7350W        W74418  18.172   8.340   0.358
 7351W        W74419   8.789  11.774   3.818
 7352W        W74420  10.747   7.338   4.676
 7353W        W74421  28.586  13.710   0.457
 7354W        W74422  25.007  39.845   4.169
 7355W        W74423   1.311  38.982   2.739
 7356W        W74424  31.996   1.785  12.496
 7357W        W74425  36.533  41.804   3.325
 7358W        W74426  18.265  26.167  13.313
 7359W        W74427  25.168   1.338  10.636
 7360W        W74428  33.011  31.607  11.593
 7361W        W74429  16.753  23.162  10.437
 7362W        W74430  25.621  21.554   4.210
 7363W        W74431  24.070  43.893   0.462
 7364W        W74432  29.130  42.346  13.974
 7365W        W74433  17.711   3.788  12.924
 7366W        W74434   1.923  44.788   3.682
 7367W        W74435  16.227  24.138  12.988
 7368W        W74436  13.744  24.647  14.325
 7369W        W74437  16.207  29.085  11.979
 7370W        W74438  42.857  37.524   4.794
 7371W        W74439  23.142   3.868   0.892
 7372W        W74440  10.321  24.583   4.659
 7373W        W74441   7.247  30.094   0.875
 7374W        W74442  23.552  14.290   4.129
 7375W        W74443  33.073  31.067   0.828
 7376W        W74444   9.208  32.596  10.638
 7377W        W74445   7.730  35.912   0.325
 7378W        W74446  21.618  40.404   1.263
 7379W        W74447   4.871  35.102   4.231
 7380W        W74448  10.652  17.140  14.399
 7381W        W74449  36.586  11.315   0.243
 7382W        W74450   0.988   1.760  13.437
 7383W        W74451  11.366  42.289  12.499
 7384W        W74452  28.610  19.551   0.247
 7385W        W74453  37.461  42.419   3.786
 7386W        W74454  29.005  25.146   2.384
 7387W        W74455  39.032  42.342   2.856
 7388W        W74456  32.547  24.118   3.334
 7389W        W74457  30.566  31.538   2.359
 7390W        W74458  38.041   6.877   2.741
 7391W        W74459  31.061  35.377  11.436
 7392W        W74460  41.989  26.181  12.863
 7393W        W74461   5.804  33.467   2.284
 7394W        W74462  43.001  21.718   3.173
 7395W        W74463  33.494   3.256  11.992
 7396W        W74464  39.895   8.830  14.361
 7397W        W74465  39.888  12.137  11.856
 7398W        W74466   4.896  30.444   9.975
 7399W        W74467  24.482  29.121   2.300
 7400W        W74468  34.866  39.965  11.888
 7401W        W74469   2.740  10.678   4.628
 7402W        W74470  39.971  29.948  10.433
 7403W        W74471  18.768  27.473  14.825
 7404W        W74472   1.978  44.304   3.784
 7405W        W74473  15.755  14.297   1.726
 7406W        W74474  21.594  44.979  14.458
 7407W        W74475  13.740  27.135  11.592
 7408W        W74476  29.486  43.333  10.436
 7409W        W74477  44.451  36.897   4.823
 7410W        W74478  21.028  19.123  12.824
 7411W        W74479  23.688  44.845   4.730
 7412W        W74480  23.087  14.776   0.863
 7413W        W74481  12.241  39.403  10.636
 7414W        W74482  40.942  10.698  13.522
 7415W        W74483   6.789  14.218   0.417
 7416W        W74484  25.121  17.181   5.308
 7417W        W74485   5.331   9.244   4.270
 7418W        W74486   4.269  22.532   0.818
 7419W        W74487  25.477  44.456   3.184
 7420W        W74488  36.357  22.100  13.056
 7421W        W74489  41.992  24.699   0.347
 7422W        W74490   5.280  11.181  13.400
 7423W        W74491  42.968  27.559  14.367
 7424W        W74492   8.844  18.694  11.879
 7425W        W74493  13.692  27.062  12.933
 7426W        W74494  18.565  19.633   4.327
 7427W        W74495   9.183  28.159   4.820
 7428W        W74496  11.766  32.071  10.134
 7429W        W74497  22.228  39.860   1.222
 7430W        W74498  22.626  12.233   3.733
 7431W        W74499   5.879   2.233   1.411
 7432W        W74500  19.062  16.667  13.907
 7433W        W74501  28.003  43.495  12.000
 7434W        W74502  40.021  10.832   2.393
 7435W        W74503  19.044  40.846   1.737
 7436W        W74504   6.905  28.501   1.742
 7437W        W74505  43.282  30.950   2.835
 7438W        W74506   5.413  21.632   3.751
 7439W        W74507   8.304  28.449   2.836
 7440W        W74508  16.674  34.077   1.836
 7441W        W74509   4.350  14.739  11.066
 7442W        W74510  25.205   0.480  10.907
 7443W        W74511  31.596   1.468  11.867
 7444W        W74512  36.587  36.916  10.894
 7445W        W74513  40.941   6.391   1.408
 7446W        W74514  19.052  38.001  10.578
 7447W        W74515  23.578  16.701  12.898
 7448W        W74516   0.745  35.946  11.428
 7449W        W74517  33.912  36.995   2.787
 7450W        W74518  26.581  41.485   1.785
 7451W        W74519  18.722  31.418   0.816
 7452W        W74520  12.666   4.335   2.348
 7453W        W74521  17.791  24.175  10.557
 7454W        W74522  37.551  44.320  11.433
 7455W        W74523  35.860  31.419   0.839
 7456W        W74524   7.412  22.641  14.791
 7457W        W74525  37.565  24.109  13.866
 7458W        W74526   0.321  13.617  10.637
 7459W        W74527  33.536   1.925  13.982
 7460W        W74528  12.230  30.054  11.904
 7461W        W74529  16.765  32.972  12.897
 7462W        W74530  44.774  29.474  13.911
 7463W        W74531  12.138  13.200   2.251
 7464W        W74532   7.375   5.227   0.955
 7465W        W74533  14.251  39.487  13.007
 7466W        W74534   5.421  12.352  12.423
 7467W        W74535  38.955  17.657   3.711
 7468W        W74536  33.442  42.889   2.368
 7469W        W74537  26.098  24.678   2.274
 7470W        W74538  38.569  29.986  11.439
 7471W        W74539  18.206   5.305   3.698
 7472W        W74540  40.000  31.539   4.649
 7473W        W74541  42.365   2.822   2.269
 7474W        W74542  39.012  10.210   2.716
 7475W        W74543   2.469   2.326  11.979
 7476W        W74544  12.834  13.712  11.971
 7477W        W74545  39.918  28.002   3.340
 7478W        W74546  19.640  12.289   2.248
 7479W        W74547  42.867   0.861  14.873
 7480W        W74548  33.460  15.085  10.038
 7481W        W74549  30.919  16.084  10.074
 7482W        W74550   9.776  32.124   0.397
 7483W        W74551  10.690  30.071   3.862
 7484W        W74552  31.078  37.470   3.822
 7485W        W74553  23.661  44.405  10.501
 7486W        W74554  41.878   0.345  11.880
 7487W        W74555  33.497  43.287  13.390
 7488W        W74556  33.595  16.281  14.347
 7489W        W74557  24.042  41.993   0.745
 7490W        W74558  36.858  10.667  11.996
 7491W        W74559  36.010  31.536   3.334
 7492W        W74560  11.660  16.759  13.544
 7493W        W74561  28.142   0.777   0.904
 7494W        W74562   3.302  25.626  12.836
 7495W        W74563  40.327  25.608  13.548
 7496W        W74564   0.889   6.840   4.623
 7497W        W74565  35.896  23.194   0.330
 7498W        W74566  44.983  19.070   3.241
 7499W        W74567  19.686  32.560  10.554
 7500W        W74568  36.040  30.976  13.531
 7501W        W74569  15.150   6.776   4.612
 7502W        W74570  11.859   8.314   4.820
 7503W        W74571  28.931  19.131   3.252
 7504W        W74572   6.207  43.801   4.285
 7505W        W74573   5.911  35.957  11.957
 7506W        W74574  34.096  29.455  13.866
 7507W        W74575  12.794  28.000   4.135
 7508W        W74576  41.038  38.359  10.941
 7509W        W74577  14.635  28.663   4.686
 7510W        W74578  10.826  45.000  13.994
 7511W        W74579  35.935  30.008  10.442
 7512W        W74580  22.620  19.683  12.857
 7513W        W74581  27.501  24.560  10.974
 7514W        W74582  11.830  31.438  12.967
 7515W        W74583  27.097  42.470  11.986
 7516W        W74584  34.993  31.980  12.029
 7517W        W74585  40.510   6.227  11.983
 7518W        W74586  23.695  27.958  11.583
 7519W        W74587  14.676  15.691   2.721
 7520W        W74588  23.223  27.455  14.506
 7521W        W74589  24.984   0.478  14.299
 7522W        W74590   7.298  35.581  10.908
 7523W        W74591  16.780   8.673  13.332
 7524W        W74592  32.089  20.715   2.285
 7525W        W74593   2.860  43.014   2.665
 7526W        W74594  28.958  25.996   3.384
 7527W        W74595  11.260  12.637   3.641
 7528W        W74596  26.614  35.529   1.832
 7529W        W74597  40.506  21.103  12.066
 7530W        W74598  20.055  16.174   3.820
 7531W        W74599  39.013  39.465  11.868
 7532W        W74600  13.621  15.579  11.984
 7533W        W74601   9.241  25.665  14.500
 7534W        W74602  28.485  28.671  10.477
 7535W        W74603  27.958  42.386  11.491
 7536W        W74604  33.593  27.569  14.377
 7537W        W74605  19.735   5.758  13.020
 7538W        W74606  32.125  13.257  12.537
 7539W        W74607  39.012  35.944   1.364
 7540W        W74608  39.033  41.440  11.604
 7541W        W74609  34.934  21.733   3.793
 7542W        W74610  20.246  42.887  10.109
 7543W        W74611  39.816  34.525  14.797
 7544W        W74612   3.288  34.964   0.899
 7545W        W74613  24.527   3.380   3.732
 7546W        W74614   7.360  39.007   4.186
 7547W        W74615  37.513  34.956   1.361
 7548W        W74616  36.001  38.523   3.225
 7549W        W74617  42.030  34.392  13.508
 7550W        W74618  12.743  21.564  11.480
 7551W        W74619  44.504  13.231   4.676
 7552W        W74620  19.678  33.602   3.363
 7553W        W74621  30.108  10.817   2.761
 7554W        W74622  43.823  28.059   1.222
 7555W        W74623  17.607  31.636  13.535
 7556W        W74624  38.059  18.559  13.326
 7557W        W74625  31.606  29.134   0.929
 7558W        W74626  43.830  42.984   5.160
 7559W        W74627  32.900  14.233   3.355
 7560W        W74628  29.061  42.472  12.459
 7561W        W74629  20.048  42.439   2.312
 7562W        W74630   8.862   6.350   5.259
 7563W        W74631  38.850  25.175  12.496
 7564W        W74632  20.110  36.551  14.308
 7565W        W74633   5.347   8.379  12.969
 7566W        W74634  33.945   5.829   0.735
 7567W        W74635  43.912  36.501   1.380
 7568W        W74636  27.183  10.246  10.572
 7569W        W74637   2.873  32.633   4.213
 7570W        W74638   0.787  23.127  11.916
 7571W        W74639  31.921  32.091  14.800
 7572W        W74640  27.663  26.518   0.882
 7573W        W74641  17.101   6.794  14.343
 7574W        W74642   9.391  17.783  13.868
 7575W        W74643   0.827  24.174  12.873
 7576W        W74644  40.038  33.406  13.992
 7577W        W74645   6.292   7.738   1.296
 7578W        W74646  15.585   5.435  14.423
 7579W        W74647  38.043   7.220  12.526
 7580W        W74648   1.462   5.744   1.283
 7581W        W74649  35.600  16.701   4.641
 7582W        W74650  18.764  10.674  11.988
 7583W        W74651   2.758  42.371   0.338
 7584W        W74652  31.487  44.915  12.532
 7585W        W74653  20.560   2.760   1.700
 7586W        W74654  44.296  44.413   1.854
 7587W        W74655  22.169  26.041   4.338
 7588W        W74656  40.819  27.953   0.392
 7589W        W74657  36.475  12.695   4.307
 7590W        W74658   9.737   8.810  13.489
 7591W        W74659  18.790  27.502  12.901
 7592W        W74660   1.474  32.614   4.261
 7593W        W74661  10.222  27.948   0.892
 7594W        W74662  14.221   9.824   4.694
 7595W        W74663  19.606   6.192   0.830
 7596W        W74664  37.874  38.066  11.065
 7597W        W74665  31.971  15.284   4.142
 7598W        W74666  34.574  24.184  14.776
 7599W        W74667  36.365   3.402  13.908
 7600W        W74668  36.540   0.349   2.389
 7601W        W74669  29.108  29.976  12.033
 7602W        W74670   2.271   0.371   2.675
 7603W        W74671   6.783  30.571  12.972
 7604W        W74672  31.038  19.088   3.869
 7605W        W74673   7.267  25.699   3.835
 7606W        W74674  40.879  29.453   1.824
 7607W        W74675  27.507  44.847   4.787
 7608W        W74676   1.811  32.102   2.695
 7609W        W74677  23.118  43.344  13.325
 7610W        W74678  12.789  24.198   3.795
 7611W        W74679  21.131  15.264  13.491
 7612W        W74680   4.929   9.807  13.808
 7613W        W74681  23.724  20.562  13.822
 7614W        W74682  18.616  18.637  12.025
 7615W        W74683  24.671  19.190   1.397
 7616W        W74684  18.215  28.982   0.899
 7617W        W74685   5.280  42.807   1.419
 7618W        W74686  43.419  26.592   2.253
 7619W        W74687  41.508   9.748  11.082
 7620W        W74688  37.889  30.948   4.621
 7621W        W74689  30.503   4.892   2.893
 7622W        W74690  21.104  35.417   3.342
 7623W        W74691  25.703  22.727   0.800
 7624W        W74692   8.802   2.923   1.325
 7625W        W74693  35.551  22.661   0.288
 7626W        W74694  10.653  27.051  11.117
 7627W        W74695  43.508  15.740  14.491
 7628W        W74696  32.417  25.214  12.448
 7629W        W74697  19.609  31.899   3.207
 7630W        W74698  30.142  26.573   3.369
 7631W        W74699  22.646   0.793  12.060
 7632W        W74700   0.927  43.907  14.372
 7633W        W74701  21.737  30.563   3.790
 7634W        W74702  21.559  30.435   0.957
 7635W        W74703  33.097   1.770  14.906
 7636W        W74704  36.521  15.738   2.182
 7637W        W74705  39.532  37.450  11.412
 7638W        W74706  43.488   9.853   3.845
 7639W        W74707  38.916   1.468  12.348
 7640W        W74708  15.787   6.184   4.347
 7641W        W74709   5.382  31.437  10.415
 7642W        W74710   8.778   2.733  14.497
 7643W        W74711  35.936   9.676   2.320
 7644W        W74712   4.808  27.564   1.358
 7645W        W74713  24.168   4.876   1.910
 7646W        W74714  17.753   4.273  13.941
 7647W        W74715  34.927  13.317   1.353
 7648W        W74716  21.116  20.644  13.899
 7649W        W74717  31.964  17.759   3.253
 7650W        W74718  16.204   3.279  14.489
 7651W        W74719  27.106  27.517   1.226
 7652W        W74720  23.657  19.539  12.096
 7653W        W74721  27.656  39.414  12.538
 7654W        W74722  31.093  21.078   1.401
 7655W        W74723  32.553  11.827   4.715
 7656W        W74724  14.245  13.259  14.813
 7657W        W74725  21.038  13.614   2.397
 7658W        W74726  36.003  17.190  13.370
 7659W        W74727   6.764  16.673   4.186
 7660W        W74728   8.838  17.274   1.445
 7661W        W74729  11.858   4.218  11.988
 7662W        W74730  34.025   6.891   1.892
 7663W        W74731   9.837   9.650   4.765
 7664W        W74732  16.290  26.997  10.930
 7665W        W74733  37.055  18.638   2.331
 7666W        W74734   1.882  12.160   4.807
 7667W        W74735   0.846  27.539  13.817
 7668W        W74736   1.282  25.071   3.360
 7669W        W74737   0.888  13.657  11.523
 7670W        W74738  27.169  11.705  11.072
 7671W        W74739   7.206  33.407  11.938
 7672W        W74740  20.200  12.629  14.822
 7673W        W74741  14.198  19.650  11.408
 7674W        W74742  13.798  37.062   2.843
 7675W        W74743  28.538  41.918   1.907
 7676W        W74744   9.729  20.194  12.494
 7677W        W74745  32.077  42.998  11.890
 7678W        W74746  40.328   8.736   0.964
 7679W        W74747  44.004  39.324  13.039
 7680W        W74748  15.115   2.874  14.478
 7681W        W74749   4.318  25.517  11.450
 7682W        W74750  22.551  35.487  10.927
 7683W        W74751  18.600  10.336  13.859
 7684W        W74752  40.402   9.272  14.967
 7685W        W74753  25.973  11.671  11.492
 7686W        W74754  36.039  41.356   4.280
 7687W        W74755  22.703  29.131   1.727
 7688W        W74756  10.731  14.212  10.888
 7689W        W74757  36.518  20.730  11.974
 7690W        W74758   5.203  21.082   1.916
 7691W        W74759  12.655  16.149   3.205
 7692W        W74760  43.889  16.577  12.390
 7693W        W74761  44.477  35.566  13.361
 7694W        W74762   8.863   0.759   2.341
 7695W        W74763  33.607  40.986   4.829
 7696W        W74764   7.776   7.869   1.826
 7697W        W74765  44.305  14.818  14.293
 7698W        W74766  39.320  18.655   3.831
 7699W        W74767  33.017   7.401  14.953
 7700W        W74768  24.585  24.143   1.796
 7701W        W74769  33.538  38.898   2.325
 7702W        W74770  39.914   7.348   1.773
 7703W        W74771  35.452  31.621   3.214
 7704W        W74772   2.735  21.638   2.731
 7705W        W74773  11.687  21.698  12.896
 7706W        W74774  41.893  25.707   4.794
 7707W        W74775  23.126  24.693   3.674
 7708W        W74776  37.567   9.154  10.618
 7709W        W74777  39.329  11.738  13.494
 7710W        W74778  40.956  19.666   1.347
 7711W        W74779  33.049  28.553  13.340
 7712W        W74780  23.052  14.156   4.193
 7713W        W74781  41.791  18.186   2.678
 7714W        W74782  17.735  23.642  11.935
 7715W        W74783  36.950  17.629   0.275
 7716W        W74784  31.627  35.063  11.101
 7717W        W74785   1.757  18.075  14.494
 7718W        W74786  21.657  25.519  13.857
 7719W        W74787   2.332   3.370  13.413
 7720W        W74788   0.877  23.591  10.602
 7721W        W74789  41.470  21.571  12.034
 7722W        W74790  33.510  24.515  14.380
 7723W        W74791  36.882  12.131  10.422
 7724W        W74792  12.640  30.022   3.800
 7725W        W74793  38.350  11.647  11.423
 7726W        W74794  24.544   8.228   4.230
 7727W        W74795  35.484  40.929  11.548
 7728W        W74796  13.826  43.801   0.287
 7729W        W74797  41.990  40.332  12.363
 7730W        W74798  44.441  21.221   2.758
 7731W        W74799  11.803   1.886  13.507
 7732W        W74800   6.201   5.754   0.483
 7733W        W74801  17.283   9.703  12.054
 7734W        W74802   2.957   4.898  12.959
 7735W        W74803  32.544  32.453  12.911
 7736W        W74804  33.452   1.312  13.874
 7737W        W74805  44.404  35.934   1.897
 7738W        W74806  25.125  13.831  14.911
 7739W        W74807  20.585  30.447  10.457
 7740W        W74808  31.436  42.917   0.273
 7741W        W74809   2.734  25.591   4.345
 7742W        W74810  13.804  14.255   4.258
 7743W        W74811   3.930  21.088   0.929
 7744W        W74812  16.713  12.166   2.662
 7745W        W74813  41.963  43.852   0.817
 7746W        W74814  10.715  34.106   1.886
 7747W        W74815  32.527  42.800   1.839
 7748W        W74816  13.287  16.691   0.456
 7749W        W74817  33.528   6.219  14.937
 7750W        W74818  24.119  44.919   2.695
 7751W        W74819  25.647  28.572  11.499
 7752W        W74820  19.211  10.751  11.921
 7753W        W74821  44.416  37.990   1.921
 7754W        W74822  25.025  42.321  13.923
 7755W        W74823   6.371  38.963  13.513
 7756W        W74824   0.955  24.625   2.304
 7757W        W74825  29.040   2.240  11.483
 7758W        W74826  35.402  20.130   1.338
 7759W        W74827  39.444  10.139  12.080
 7760W        W74828   1.949   3.865  10.420
 7761W        W74829  40.038  43.330   1.754
 7762W        W74830  32.082   2.240   0.831
 7763W        W74831  14.108   2.896   3.768
 7764W        W74832   8.699   3.934  13.903
 7765W        W74833  18.628  21.179   3.827
 7766W        W74834  39.844  21.631  14.424
 7767W        W74835  10.723  33.552   4.654
 7768W        W74836  20.686  30.507  14.820
 7769W        W74837  38.011  20.134  13.358
 7770W        W74838  10.656  35.375   0.291
 7771W        W74839  25.094  13.281   3.344
 7772W        W74840  19.131  29.960   1.316
 7773W        W74841  27.994  23.621  14.331
 7774W        W74842  29.173  17.230  10.516
 7775W        W74843   4.309  35.984   1.348
 7776W        W74844  38.432  21.604  11.008
 7777W        W74845  34.920   0.789  14.384
 7778W        W74846  37.892  20.644  14.772
 7779W        W74847  32.954  22.639   2.270
 7780W        W74848  35.358   5.822   1.707
 7781W        W74849  30.493  14.626   4.664
 7782W        W74850   6.383  28.999  12.575
 7783W        W74851   2.769  22.648   3.315
 7784W        W74852  41.826   5.361  12.049
 7785W        W74853  39.437  18.743   0.903
 7786W        W74854  42.813   1.239  13.974
 7787W        W74855  39.857  21.174   5.137
 7788W        W74856  30.552  24.048  12.464
 7789W        W74857  27.960   2.361   0.289
 7790W        W74858   7.172  37.891   3.633
 7791W        W74859   6.276   5.321   3.632
 7792W        W74860  35.005   4.739  14.962
 7793W        W74861  34.888  30.437  11.557
 7794W        W74862  35.985  16.190  14.411
 7795W        W74863  13.326   5.760   1.311
 7796W        W74864  32.566  17.061  13.923
 7797W        W74865  34.592  38.965  13.061
 7798W        W74866  10.282  37.904   1.429
 7799W        W74867  18.583  16.744   4.657
 7800W        W74868   4.342  18.738  12.083
 7801W        W74869  27.552   1.351  12.013
 7802W        W74870  42.508  32.414   2.729
 7803W        W74871  27.669  20.223   3.850
 7804W        W74872  29.615  14.153  11.594
 7805W        W74873  28.004  21.210  11.023
 7806W        W74874  37.907  40.016   2.754
 7807W        W74875  37.345  24.603   1.911
 7808W        W74876   2.888  37.084  11.008
 7809W        W74877   0.817  22.185   0.429
 7810W        W74878  18.272  15.244  11.976
 7811W        W74879  26.952  16.760  14.937
 7812W        W74880  22.063  40.546   3.700
 7813W        W74881  31.482  25.046  14.486
 7814W        W74882  21.633  22.194  12.989
 7815W        W74883  20.264  26.648   3.810
 7816W        W74884   4.382  21.675   1.708
 7817W        W74885  18.607  35.864   2.262
 7818W        W74886  24.665  41.850   0.754
 7819W        W74887  42.883   0.792  13.535
 7820W        W74888  42.853  14.169   3.245
 7821W        W74889   2.805   6.887   3.213
 7822W        W74890  44.003  25.022  13.370
 7823W        W74891  18.208  32.484  13.856
 7824W        W74892  43.794  33.022  13.045
 7825W        W74893  31.030  30.046  10.554
 7826W        W74894  29.931  24.063   2.247
 7827W        W74895  41.456  42.446  13.011
 7828W        W74896  18.066   2.348  10.521
 7829W        W74897  27.162  44.453  10.418
 7830W        W74898  24.100  17.102  13.355
 7831W        W74899  26.491   4.802   5.164
 7832W        W74900  11.660  31.050  10.058
 7833W        W74901   0.345  16.813   2.354
 7834W        W74902  31.535  19.724   3.192
 7835W        W74903  38.503  13.295   2.683
 7836W        W74904  43.282  24.177   3.718
 7837W        W74905  22.190  24.078   0.474
 7838W        W74906   0.790   2.736  12.369
 7839W        W74907  10.238  36.038  13.337
 7840W        W74908  13.169  11.773   4.818
 7841W        W74909  27.595  10.661  13.463
 7842W        W74910  13.334  24.589  13.311
 7843W        W74911  25.169  19.159  12.922
 7844W        W74912   7.890   1.734  13.970
 7845W        W74913  30.134  34.467   3.361
 7846W        W74914  11.335  43.514   4.288
 7847W        W74915  43.801  20.100   4.713
 7848W        W74916  35.439  39.319  12.082
 7849W        W74917  26.596  26.956  10.909
 7850W        W74918   5.284  19.201   2.885
 7851W        W74919  33.589  41.976  12.529
 7852W        W74920   9.318  36.017   5.317
 7853W        W74921   9.172   5.850   1.253
 7854W        W74922  36.475  44.844  13.498
 7855W        W74923  22.081   0.891  11.436
 7856W        W74924  27.944  43.372   1.402
 7857W        W74925  29.154  16.156  10.609
 7858W        W74926   6.684  38.336  14.294
 7859W        W74927  15.675   6.193   1.701
 7860W        W74928  34.464  14.741   4.311
 7861W        W74929  40.835   5.243   4.223
 7862W        W74930   1.471   0.884   4.350
 7863W        W74931  16.660  28.496  13.415
 7864W        W74932   7.174  32.035   2.848
 7865W        W74933  36.414  37.848  14.426
 7866W        W74934  16.622  30.582   3.638
 7867W        W74935  34.402  31.578   4.823
 7868W        W74936  35.488  24.505   2.829
 7869W        W74937  31.140   0.306   3.191
 7870W        W74938  33.998   6.354   1.831
 7871W        W74939  24.169  20.126   3.734
 7872W        W74940  36.495  40.040   3.752
 7873W        W74941   3.289  14.815  12.971
 7874W        W74942  24.497  44.323   0.951
 7875W        W74943   5.889   0.396  13.492
 7876W        W74944  42.477  35.461   3.699
 7877W        W74945  41.527   5.862  10.489
 7878W        W74946  30.424   8.338  12.441
 7879W        W74947  37.513  44.814  11.073
 7880W        W74948  44.893  20.246   2.864
 7881W        W74949   2.793  41.471  10.442
 7882W        W74950  31.025  27.479   0.483
 7883W        W74951  44.006  19.053   0.911
 7884W        W74952  31.484  34.879   3.170
 7885W        W74953  28.961  13.222  13.929
 7886W        W74954   0.443  34.056  10.910
 7887W        W74955  22.221  33.999  14.496
 7888W        W74956   8.378  34.428  14.899
 7889W        W74957  44.864  37.428  12.989
 7890W        W74958   6.320  16.750   0.418
 7891W        W74959  30.161  24.013  13.896
 7892W        W74960  39.502  11.215   4.724
 7893W        W74961  38.825  17.583  12.025
 7894W        W74962  32.538  18.579   3.347
 7895W        W74963  28.932   0.299  12.080
 7896W        W74964  19.250  15.746   0.333
 7897W        W74965  31.611  14.755   1.830
 7898W        W74966   9.207  32.631  13.025
 7899W        W74967  17.221  39.540  10.910
 7900W        W74968   8.793   5.316  14.025
 7901W        W74969  30.498  38.562   4.338
 7902W        W74970  13.206  41.858  12.080
 7903W        W74971  23.155  14.108  10.643
 7904W        W74972  23.691  22.206  14.787
 7905W        W74973  13.172  18.190  12.441
 7906W        W74974  40.935   2.847  14.762
 7907W        W74975  31.565   1.923  14.801
 7908W        W74976  32.473   2.858   1.387
 7909W        W74977  36.842  28.983  11.022
 7910W        W74978  31.151  27.622   3.158
 7911W        W74979  25.140  13.305  11.089
 7912W        W74980  34.509  28.105   4.121
 7913W        W74981   5.404   9.180  14.337
 7914W        W74982  14.780  17.221   3.831
 7915W        W74983  44.461   9.712  11.502
 7916W        W74984  36.519  43.999  10.921
 7917W        W74985  29.152  13.346   4.274
 7918W        W74986  34.093  43.453  13.017
 7919W        W74987   4.938   0.772  10.421
 7920W        W74988  25.977  40.376   1.799
 7921W        W74989  24.221  12.730  10.995
 7922W        W74990  23.206  10.326   1.716
 7923W        W74991  32.489  18.661  13.981
 7924W        W74992  38.421  11.723  13.896
 7925W        W74993  42.873   3.399  11.577
 7926W        W74994  42.422   0.800  14.759
 7927W        W74995  32.456  15.241   1.908
 7928W        W74996  11.671   5.892  11.129
 7929W        W74997  32.088  29.920   2.748
 7930W        W74998  34.888  20.064  14.337
 7931W        W74999  20.744  17.677  10.503
 7932W        W75000   3.734  34.033   1.907
 7933W        W75001   3.746   7.316  11.031
 7934W        W75002  32.041   3.862   4.249
 7935W        W75003  29.942  32.413   3.313
 7936W        W75004  38.517   3.391  14.948
 7937W        W75005  18.259  24.550   4.617
 7938W        W75006  13.119   9.712   3.822
 7939W        W75007  19.082   9.825   3.799
 7940W        W75008   3.233   4.314  11.033
 7941W        W75009  20.645   6.285  14.013
 7942W        W75010   2.390   1.304  11.956
 7943W        W75011  17.144   3.743   1.317
 7944W        W75012  21.748  31.608   3.284
 7945W        W75013  22.546  29.023  10.995
 7946W        W75014  32.472  29.121  11.951
 7947W        W75015   2.352  11.673   4.119
 7948W        W75016  35.591  11.773   0.459
 7949W        W75017  24.155  27.519   0.962
 7950W        W75018   1.476  18.547  11.905
 7951W        W75019  23.636  26.503   0.255
 7952W        W75020   5.350   8.784  10.408
 7953W        W75021  44.773  11.178  13.433
 7954W        W75022  13.136   2.916  11.000
 7955W        W75023  17.563  44.390   1.757
 7956W        W75024  39.456   6.888   2.710
 7957W        W75025  37.419   6.378  11.058
 7958W        W75026   8.382  25.044   4.799
 7959W        W75027  25.218  40.808   1.271
 7960W        W75028   9.162  25.971   3.694
 7961W        W75029  14.647  17.204  13.382
 7962W        W75030  33.882  30.088   3.244
 7963W        W75031   0.850  25.570  12.347
 7964W        W75032  16.619  34.007  12.836
 7965W        W75033   6.353  24.175  13.470
 7966W        W75034  36.559  23.109   3.832
 7967W        W75035   9.188  26.973   0.465
 7968W        W75036  23.633  14.814  11.520
 7969W        W75037   8.199   6.286   3.760
 7970W        W75038  11.346  21.752   1.731
 7971W        W75039  38.884  19.194  11.929
 7972W        W75040  23.492  35.502  13.829
 7973W        W75041  24.556  42.924  14.476
 7974W        W75042  25.506  36.062   0.955
 7975W        W75043  35.998  32.099   4.253
 7976W        W75044  36.904  35.095   2.305
 7977W        W75045  31.482  36.436  13.368
 7978W        W75046  37.493   8.662  13.395
 7979W        W75047  30.149  28.182  13.518
 7980W        W75048  41.038   0.868  13.914
 7981W        W75049  38.944  11.197  12.970
 7982W        W75050  37.500  31.121  13.013
 7983W        W75051  11.755  22.518  14.003
 7984W        W75052  31.572  17.595   4.283
 7985W        W75053   3.883  36.925  10.520
 7986W        W75054  16.573  15.647  13.849
 7987W        W75055  34.096  15.232   4.185
 7988W        W75056  40.511  29.934   1.912
 7989W        W75057  26.566   4.804   2.267
 7990W        W75058   0.764  29.051   3.368
 7991W        W75059  41.400  33.552   1.870
 7992W        W75060   1.278   0.482   1.238
 7993W        W75061  11.686  35.082  13.346
 7994W        W75062   8.833  25.140  12.024
 7995W        W75063  28.629  41.922   0.332
 7996W        W75064  41.978  43.809   2.711
 7997W        W75065   0.390  27.115   0.928
 7998W        W75066  42.850  24.659  13.460
 7999W        W75067  34.469  26.481  14.435
 8000W        W75068  18.113  18.709  11.003
 8001W        W75069  27.521  35.924   1.332
 8002W        W75070  27.150  44.278   4.302
 8003W        W75071  14.207   0.312   0.741
 8004W        W75072   3.355  13.663  13.021
 8005W        W75073  17.149  14.154  14.416
 8006W        W75074   2.946   9.232  12.976
 8007W        W75075  21.258  28.623  10.515
 8008W        W75076  22.568  29.447   2.764
 8009W        W75077  25.166   0.276  14.970
 8010W        W75078  42.461  36.930   3.867
 8011W        W75079  34.555  32.123  10.486
 8012W        W75080   2.367  17.188   1.894
 8013W        W75081  35.065  41.343  12.845
 8014W        W75082   2.860  35.963  13.023
 8015W        W75083   5.751  32.516  14.342
 8016W        W75084   2.271  18.604  13.805
 8017W        W75085   3.823  22.231  11.101
 8018W        W75086   0.318  39.343   0.830
 8019W        W75087   1.276  39.326  13.016
 8020W        W75088   9.843  32.599  14.398
 8021W        W75089   3.248  41.823   0.296
 8022W        W75090  23.128  15.808   4.697
 8023W        W75091  17.293   7.204  10.956
 8024W        W75092   2.271  37.582  14.849
 8025W        W75093   0.877  29.993   0.729
 8026W        W75094  21.174  31.486   0.751
 8027W        W75095   1.319  19.213   1.724
 8028W        W75096   3.430  14.601   1.807
 8029W        W75097  39.906  21.116   4.712
 8030W        W75098   8.874  30.160   2.838
 8031W        W75099  21.734  42.911  12.844
 8032W        W75100   2.444   7.284  13.364
 8033W        W75101  43.380  23.070  13.923
 8034W        W75102  16.743  37.381   3.793
 8035W        W75103   7.378  20.057  10.985
 8036W        W75104  43.011  23.550  13.366
 8037W        W75105  27.071  43.408   0.943
 8038W        W75106  21.514   9.799  14.942
 8039W        W75107   2.466   1.781   3.222
 8040W        W75108  23.656  37.398   2.191
 8041W        W75109   9.197  18.670  11.579
 8042W        W75110  36.560  15.591  12.346
 8043W        W75111  24.686  32.390  12.399
 8044W        W75112  18.689  42.378   1.443
 8045W        W75113  30.586  40.518  11.980
 8046W        W75114  28.006   8.820  14.345
 8047W        W75115  14.317  38.033   2.222
 8048W        W75116  27.003  43.370   3.226
 8049W        W75117  40.026  25.055   2.240
 8050W        W75118  44.424  29.547   3.313
 8051W        W75119  29.485  24.634  13.518
 8052W        W75120  41.361  16.686   0.943
 8053W        W75121  28.450   0.454   0.737
 8054W        W75122  38.397  26.058  12.463
 8055W        W75123  34.033   8.348   4.759
 8056W        W75124  31.038  33.511  12.920
 8057W        W75125  30.418  34.574   4.286
 8058W        W75126  17.202  27.667   0.854
 8059W        W75127  34.939  30.474   1.869
 8060W        W75128  31.122   5.701   1.267
 8061W        W75129  44.917   7.696   1.893
 8062W        W75130  38.525  44.474   0.948
 8063W        W75131  10.292  34.604   1.838
 8064W        W75132  11.265  17.121  14.027
 8065W        W75133   0.965  42.817  12.496
 8066W        W75134  34.538   1.454   2.820
 8067W        W75135  25.128  18.171   0.326
 8068W        W75136  22.641   2.367  14.882
 8069W        W75137  36.095   4.374   1.812
 8070W        W75138  41.499   8.671  12.839
 8071W        W75139   0.905   3.782   0.954
 8072W        W75140   6.257  10.665  12.527
 8073W        W75141  34.010  36.017  10.960
 8074W        W75142   0.426  22.203   4.744
 8075W        W75143  42.340  33.393  12.089
 8076W        W75144  29.033  23.713   0.912
 8077W        W75145   1.958  25.210   1.319
 8078W        W75146  28.997  19.775  12.476
 8079W        W75147  15.765  10.742   4.165
 8080W        W75148  26.690   1.363  13.833
 8081W        W75149  12.331   7.895  11.372
 8082W        W75150  37.582  17.288  13.947
 8083W        W75151  35.926   4.870  12.009
 8084W        W75152  41.026  43.301  11.066
 8085W        W75153  11.847  33.000  14.823
 8086W        W75154   0.757  25.623  11.515
 8087W        W75155   9.326  32.556  14.004
 8088W        W75156  17.250  28.018  11.490
 8089W        W75157  36.940   6.767  13.977
 8090W        W75158  15.296  38.915  11.381
 8091W        W75159   2.881   3.903  10.560
 8092W        W75160  29.465  19.175  13.371
 8093W        W75161   0.415   4.898   1.394
 8094W        W75162  40.371  13.153  13.379
 8095W        W75163  24.092   6.417   4.666
 8096W        W75164  27.129  39.922  12.470
 8097W        W75165  24.682  32.008   4.124
 8098W        W75166   3.818  14.188  13.811
 8099W        W75167  14.176   0.795  11.006
 8100W        W75168  35.563  20.738   2.178
 8101W        W75169   9.387  43.449   3.768
 8102W        W75170   4.925  32.119   0.359
 8103W        W75171  35.013  28.440   4.219
 8104W        W75172   1.855  29.046  11.990
 8105W        W75173  13.225  10.247   0.863
 8106W        W75174  24.651  34.433  12.487
 8107W        W75175  34.538  44.337  10.610
 8108W        W75176  15.318  13.123  11.510
 8109W        W75177  22.680  27.504  14.488
 8110W        W75178  32.065  17.793  13.394
 8111W        W75179   6.701  42.400  13.469
 8112W        W75180  24.605   9.757  13.025
 8113W        W75181  22.501  12.282   3.361
 8114W        W75182   7.719  13.155   2.720
 8115W        W75183  42.481  14.737   0.414
 8116W        W75184  43.325  28.562  12.045
 8117W        W75185   1.760  12.615  12.556
 8118W        W75186   0.364  41.905  14.322
 8119W        W75187  10.202  41.341   5.181
 8120W        W75188  17.289  13.686  11.448
 8121W        W75189   2.797  28.652   3.671
 8122W        W75190   5.851   8.877   3.669
 8123W        W75191   7.275  41.860  12.938
 8124W        W75192  13.121  38.520  11.493
 8125W        W75193  13.314  24.216   4.336
 8126W        W75194   5.804  20.758   2.347
 8127W        W75195  43.406  34.521   0.468
 8128W        W75196  25.628  17.084   4.804
 8129W        W75197   1.436  23.022  12.033
 8130W        W75198  25.679  19.642   5.155
 8131W        W75199  17.679  41.841  12.407
 8132W        W75200  36.464   6.307  13.453
 8133W        W75201  44.783  40.305   3.833
 8134W        W75202  18.097   8.249  13.473
 8135W        W75203   0.827  12.265  11.380
 8136W        W75204  38.959  22.013   3.296
 8137W        W75205   3.270  27.579   3.709
 8138W        W75206   8.760  28.611   3.826
 8139W        W75207   4.833  11.843   1.852
 8140W        W75208  44.267  10.761   3.190
 8141W        W75209  31.621  17.255   1.271
 8142W        W75210  41.450  20.695   3.836
 8143W        W75211   5.279  33.986  12.369
 8144W        W75212  27.587  20.100   1.716
 8145W        W75213   0.975  12.243  10.975
 8146W        W75214  33.982  27.013   0.750
 8147W        W75215  14.289  22.719   1.218
 8148W        W75216  22.136  32.904   3.370
 8149W        W75217  17.618   5.796  14.461
 8150W        W75218  29.124  27.163  10.486
 8151W        W75219   1.891  25.021   4.618
 8152W        W75220  17.737  11.830   2.827
 8153W        W75221  31.519  37.568  10.920
 8154W        W75222   2.401  31.900   1.306
 8155W        W75223   0.803  35.944   3.229
 8156W        W75224  32.009   4.343  10.631
 8157W        W75225   5.925  38.062   2.321
 8158W        W75226  20.203  27.546  11.530
 8159W        W75227  13.224   4.398  14.013
 8160W        W75228  22.583  25.641   1.433
 8161W        W75229  31.446   3.399   0.785
 8162W        W75230  29.928  22.702  14.885
 8163W        W75231  28.636  14.660  11.924
 8164W        W75232  11.767  31.539  11.523
 8165W        W75233  11.636   7.820   3.843
 8166W        W75234   3.311  26.588   1.340
 8167W        W75235  10.837  42.032  13.339
 8168W        W75236  33.020  24.095   0.255
 8169W        W75237   6.289  36.036  13.932
 8170W        W75238  19.252  11.285   2.690
 8171W        W75239  13.789   9.813   2.681
 8172W        W75240  20.106  17.709   3.845
 8173W        W75241  39.551  23.211  11.080
 8174W        W75242   5.853  13.342  13.377
 8175W        W75243  41.537  17.688   2.343
 8176W        W75244   2.842  14.196   4.327
 8177W        W75245   9.810  38.892  12.968
 8178W        W75246  34.591  44.836   4.787
 8179W        W75247  36.585  32.008   0.476
 8180W        W75248  31.638  18.550  10.545
 8181W        W75249  10.821  36.033  12.022
 8182W        W75250  41.498  24.616  14.948
 8183W        W75251  39.849  25.049   3.853
 8184W        W75252   2.323   8.849   4.607
 8185W        W75253  36.865  18.628  10.949
 8186W        W75254  37.059  20.060   1.703
 8187W        W75255  25.166  36.486   3.356
 8188W        W75256  13.763  28.990   0.287
 8189W        W75257  10.777   0.857  13.477
 8190W        W75258  25.116  27.641   4.800
 8191W        W75259  32.897  36.377   2.249
 8192W        W75260  29.580  21.069   2.849
 8193W        W75261  23.223   3.235   3.303
 8194W        W75262  39.843   0.900  12.955
 8195W        W75263  43.300   0.900   0.925
 8196W        W75264  43.891  20.722   4.782
 8197W        W75265  20.201  13.610  13.427
 8198W        W75266  23.686  36.917  12.084
 8199W        W75267  18.685  24.111  13.953
 8200W        W75268  41.817  19.679  10.011
 8201W        W75269  30.535  23.177  11.090
 8202W        W75270  40.376   4.260  12.860
 8203W        W75271  34.382  21.052   4.192
 8204W        W75272   7.391  42.477  10.410
 8205W        W75273  34.606  25.122   4.195
 8206W        W75274  18.121  22.110   0.821
 8207W        W75275   0.474   7.704   1.409
 8208W        W75276  44.335  23.992  12.515
 8209W        W75277  36.371   2.301  12.002
 8210W        W75278   3.278   1.976   2.770
 8211W        W75279  41.358   2.294   3.636
 8212W        W75280  39.808  22.127   2.903
 8213W        W75281  17.119  23.734   3.854
 8214W        W75282  16.726  21.727   0.791
 8215W        W75283  35.554  20.129   0.477
 8216W        W75284  23.570  18.263   2.714
 8217W        W75285  17.665  34.379   0.761
 8218W        W75286  28.592  32.465   4.758
 8219W        W75287  37.001   5.806  14.932
 8220W        W75288  38.373  14.277  12.416
 8221W        W75289  17.290  29.536   2.889
 8222W        W75290  29.013  42.328   2.385
 8223W        W75291  20.185  38.457  12.536
 8224W        W75292  17.704  30.126  11.961
 8225W        W75293  38.835  27.132  11.997
 8226W        W75294  35.364  16.190   3.666
 8227W        W75295  18.253  37.996   0.963
 8228W        W75296  42.826   1.462  12.053
 8229W        W75297  17.130  30.162  14.486
 8230W        W75298   8.852  42.381  14.771
 8231W        W75299  10.841  41.352   1.242
 8232W        W75300  21.082  17.193  11.371
 8233W        W75301   4.223   7.410  10.564
 8234W        W75302  40.354  41.974  11.879
 8235W        W75303  12.797  28.138   4.735
 8236W        W75304   0.962  17.791  13.984
 8237W        W75305   9.822  29.552   4.784
 8238W        W75306  14.216  43.858  11.436
 8239W        W75307  10.361  44.829  13.016
 8240W        W75308  38.391  43.839  11.005
 8241W        W75309  26.491   2.416   5.222
 8242W        W75310   3.751  43.407  13.374
 8243W        W75311  39.034  35.532  12.550
 8244W        W75312  26.099   0.946   0.818
 8245W        W75313  24.976   9.264  12.346
 8246W        W75314  30.494  30.147  13.963
 8247W        W75315  14.779  21.143   2.332
 8248W        W75316  16.183  18.174  10.538
 8249W        W75317  23.202  33.016  13.955
 8250W        W75318  17.234  44.410  13.991
 8251W        W75319  18.228  26.675   0.875
 8252W        W75320  19.543  39.527   0.924
 8253W        W75321  23.665   3.839   3.642
 8254W        W75322  17.593  17.680   2.850
 8255W        W75323  18.210  24.562  12.853
 8256W        W75324  42.816  31.055   2.226
 8257W        W75325  33.471  11.812   4.635
 8258W        W75326  40.912  30.931   4.808
 8259W        W75327  43.406   3.914   3.248
 8260W        W75328  25.535  18.632   2.304
 8261W        W75329  10.185  43.792  14.367
 8262W        W75330  18.203  34.116   1.317
 8263W        W75331   9.687  41.340  10.437
 8264W        W75332  20.657  29.035   1.258
 8265W        W75333  26.106  28.515  11.128
 8266W        W75334  33.549   0.960  14.017
 8267W        W75335  34.868  29.005  11.028
 8268W        W75336   4.287  34.397   3.190
 8269W        W75337  16.602  41.821  13.400
 8270W        W75338  11.218  35.033  13.505
 8271W        W75339  12.676  23.984   1.862
 8272W        W75340   0.821  32.981   3.857
 8273W        W75341  26.005  18.168   0.839
 8274W        W75342  34.475   5.853  14.847
 8275W        W75343  42.909  33.501  11.002
 8276W        W75344  37.992  26.485  10.996
 8277W        W75345  40.879  26.644   2.842
 8278W        W75346  27.951   9.267  13.412
 8279W        W75347  26.081  21.116   3.208
 8280W        W75348  26.185  41.930   3.382
 8281W        W75349  10.268   3.945   5.087
 8282W        W75350  24.535  43.482   4.323
 8283W        W75351  41.862  26.543   1.213
 8284W        W75352  15.795  22.078   5.245
 8285W        W75353  36.958   8.882   4.223
 8286W        W75354   9.824  30.545   4.830
 8287W        W75355  13.741  24.194  10.437
 8288W        W75356  40.419  16.195   3.706
 8289W        W75357  21.712  11.241   4.731
 8290W        W75358  37.006  12.631   1.832
 8291W        W75359  22.173  27.523  13.941
 8292W        W75360   2.437   4.836  13.453
 8293W        W75361   0.294  21.174   0.416
 8294W        W75362  22.744  40.989  11.045
 8295W        W75363   2.472  27.523  12.063
 8296W        W75364  23.164  38.020   0.848
 8297W        W75365  29.128  38.544   3.170
 8298W        W75366  19.258  19.264  11.570
 8299W        W75367  34.398   8.277   2.405
 8300W        W75368  32.592   5.784  11.972
 8301W        W75369  29.592  11.364   4.723
 8302W        W75370  37.467  15.691  14.316
 8303W        W75371  14.675  23.559  13.027
 8304W        W75372   4.401  24.612   0.323
 8305W        W75373  43.302  41.958  14.894
 8306W        W75374  14.797  26.559  10.890
 8307W        W75375  17.781  15.578  14.028
 8308W        W75376  41.521  20.542  11.091
 8309W        W75377  27.965  16.175   0.282
 8310W        W75378   0.321  44.285   3.291
 8311W        W75379  16.169   8.300  12.970
 8312W        W75380  40.864  29.022  12.017
 8313W        W75381  20.267  35.087  14.422
 8314W        W75382  15.166  39.883  11.112
 8315W        W75383  28.081  16.669  14.365
 8316W        W75384  11.752  16.603  10.924
 8317W        W75385  12.670  42.504   2.415
 8318W        W75386  32.495   5.874  10.619
 8319W        W75387  18.208   6.226   2.381
 8320W        W75388  25.470  37.567  14.511
 8321W        W75389  30.951  17.307   1.387
 8322W        W75390  31.434  43.496   0.347
 8323W        W75391  30.418  31.587  12.571
 8324W        W75392  11.292   3.218   3.761
 8325W        W75393  42.332  23.100  13.909
 8326W        W75394   0.904   2.911  11.127
 8327W        W75395  42.525  39.544   2.203
 8328W        W75396   1.739  32.481   2.331
 8329W        W75397   9.714  17.118   3.759
 8330W        W75398   9.299  21.041   0.477
 8331W        W75399  30.437  20.252   5.156
 8332W        W75400  38.971  27.469   0.885
 8333W        W75401  42.838   9.276  12.992
 8334W        W75402   5.768  38.955   3.169
 8335W        W75403  36.087  42.780  12.475
 8336W        W75404  30.063  34.929   4.218
 8337W        W75405  33.065  25.692   2.363
 8338W        W75406  40.470  40.523   2.311
 8339W        W75407   7.893  23.216   3.864
 8340W        W75408  22.593  19.128  11.425
 8341W        W75409   9.737   3.816  10.989
 8342W        W75410  26.122  29.173   2.752
 8343W        W75411  42.009  43.415  13.897
 8344W        W75412  40.351  14.272   5.143
 8345W        W75413   4.242   2.372   3.810
 8346W        W75414  18.064   0.774  12.956
 8347W        W75415  20.619   9.184   1.231
 8348W        W75416  11.753  25.218  14.965
 8349W        W75417  44.896  20.060   2.233
 8350W        W75418  11.712   7.201  10.957
 8351W        W75419   3.453  19.180   4.220
 8352W        W75420  38.557   0.904   4.164
 8353W        W75421  17.583  42.890  13.880
 8354W        W75422  29.956   1.885  13.360
 8355W        W75423  27.973   4.406  12.473
 8356W        W75424  27.014  37.003   4.340
 8357W        W75425  10.203  30.135  12.566
 8358W        W75426  44.404  14.605  11.499
 8359W        W75427  35.042   2.411  14.289
 8360W        W75428  42.306  35.054  10.957
 8361W        W75429  19.668  13.226   3.828
 8362W        W75430   6.831   6.680   0.960
 8363W        W75431   5.240  24.072  14.854
 8364W        W75432  44.848  35.428  13.390
 8365W        W75433  22.640  42.789  12.984
 8366W        W75434  43.954  10.246  13.425
 8367W        W75435   4.352  31.144   1.916
 8368W        W75436  44.995   1.846  11.083
 8369W        W75437  24.720  35.497   0.847
 8370W        W75438  29.965  34.413  13.431
 8371W        W75439   0.900   6.251  13.998
 8372W        W75440  33.614   3.295  13.395
 8373W        W75441  41.413  39.500   1.854
 8374W        W75442  34.591  24.040  10.510
 8375W        W75443  23.191  31.146   1.346
 8376W        W75444  27.144  20.557   0.773
 8377W        W75445  20.120   4.292  12.886
 8378W        W75446   7.338  35.550   0.482
 8379W        W75447   9.310  12.151   2.765
 8380W        W75448   3.765  10.828  10.438
 8381W        W75449   3.277  12.758   4.318
 8382W        W75450  25.067  19.039   3.241
 8383W        W75451  18.201  12.251   4.238
 8384W        W75452  30.601   4.793   1.771
 8385W        W75453  37.529  10.374  14.398
 8386W        W75454  13.167  39.391  12.011
 8387W        W75455  41.829  38.923  14.792
 8388W        W75456   3.810  21.085   4.769
 8389W        W75457  17.262  12.241  12.429
 8390W        W75458  34.420  16.688  10.635
 8391W        W75459  31.048  33.021   3.174
 8392W        W75460   8.802   2.864  10.935
 8393W        W75461   8.387  18.294   2.770
 8394W        W75462  39.984  21.575   4.121
 8395W        W75463  18.290  25.583  14.406
 8396W        W75464  41.438  39.413  12.824
 8397W        W75465  34.578  16.580  12.848
 8398W        W75466  40.541   6.245   9.978
 8399W        W75467  19.044  24.715  12.517
 8400W        W75468  32.557   3.841   0.864
 8401W        W75469  31.058  16.127  13.431
 8402W        W75470  37.913  12.729  10.617
 8403W        W75471  44.889  41.935   3.729
 8404W        W75472  27.016   6.876  12.434
 8405W        W75473  16.275  27.982   3.279
 8406W        W75474   1.439  31.593   2.404
 8407W        W75475  44.409  22.101   1.915
 8408W        W75476  22.555   8.702   2.809
 8409W        W75477   0.825  22.515  12.354
 8410W        W75478  40.035  35.880  12.001
 8411W        W75479   4.724  27.680  12.374
 8412W        W75480  25.985  14.829   2.336
 8413W        W75481  11.238  29.989   1.315
 8414W        W75482  40.473  14.139   2.210
 8415W        W75483  43.358  30.651   3.871
 8416W        W75484  33.531   4.832  10.075
 8417W        W75485  37.357  43.280  11.121
 8418W        W75486  34.515   7.758  12.884
 8419W        W75487  25.196  21.643   2.230
 8420W        W75488  41.474  19.729   0.959
 8421W        W75489   4.417  36.551   0.895
 8422W        W75490  29.102  30.657  10.432
 8423W        W75491  29.103  14.784   2.868
 8424W        W75492  36.358  32.471  12.455
 8425W        W75493   2.253  19.076  13.002
 8426W        W75494  37.472  42.345   1.810
 8427W        W75495  32.500   0.460  12.865
 8428W        W75496  22.609   9.661   0.843
 8429W        W75497   8.406  43.888  10.624
 8430W        W75498  14.597  31.579  14.823
 8431W        W75499   4.837  15.752   4.780
 8432W        W75500  29.140  37.961  10.628
 8433W        W75501  23.735  26.008  11.892
 8434W        W75502   9.309  23.134  10.909
 8435W        W75503  29.971  31.054   3.248
 8436W        W75504   0.328   3.359   2.862
 8437W        W75505  34.079  13.845  11.579
 8438W        W75506  23.092  28.106   2.385
 8439W        W75507  37.577   7.746  11.964
 8440W        W75508  22.735  30.164   4.323
 8441W        W75509  24.505  21.261  10.605
 8442W        W75510  12.276   3.254  14.401
 8443W        W75511  35.038   0.384  14.456
 8444W        W75512  15.793  43.918  12.478
 8445W        W75513   4.908  21.526   4.777
 8446W        W75514  23.645   9.733   1.242
 8447W        W75515   3.928  16.097   1.812
 8448W        W75516  19.045   5.224   0.774
 8449W        W75517  44.913  22.704   0.956
 8450W        W75518  18.130  23.703   3.169
 8451W        W75519  32.628  43.514  11.960
 8452W        W75520  38.937   1.289   0.923
 8453W        W75521   5.788   6.734  11.428
 8454W        W75522  17.771  38.408  10.949
 8455W        W75523  38.826  33.553   2.772
 8456W        W75524  30.626  30.579   0.326
 8457W        W75525  41.808   0.978  11.555
 8458W        W75526  25.619   9.260   2.879
 8459W        W75527  12.233  29.559  14.433
 8460W        W75528  19.129  41.381  10.001
 8461W        W75529   0.471  37.043  14.354
 8462W        W75530   7.295  27.075   1.873
 8463W        W75531   3.422  10.288  14.461
 8464W        W75532  31.932   3.444   5.264
 8465W        W75533   0.978  23.014  14.028
 8466W        W75534  37.032  33.450   4.142
 8467W        W75535   1.239  41.849  10.405
 8468W        W75536   2.428  35.885  13.491
 8469W        W75537  21.698  42.002   4.661
 8470W        W75538  21.251  13.767  13.982
 8471W        W75539  26.965  29.657  11.022
 8472W        W75540  20.732  10.307  11.603
 8473W        W75541  34.969  26.567   2.374
 8474W        W75542  24.655  14.119   4.166
 8475W        W75543  27.951  35.550  12.491
 8476W        W75544  27.571  14.746   3.201
 8477W        W75545  24.017  24.070   2.294
 8478W        W75546  27.454  23.715   0.298
 8479W        W75547  38.914  26.582  10.420
 8480W        W75548  28.975  40.308   1.924
 8481W        W75549  30.459  31.101   3.321
 8482W        W75550  28.153   4.267  11.474
 8483W        W75551  32.622  25.153   0.438
 8484W        W75552  22.696   6.784  11.054
 8485W        W75553  27.136   8.266  13.376
 8486W        W75554  12.256  10.734  12.912
 8487W        W75555  12.150  38.373   0.291
 8488W        W75556  14.598  43.765  11.974
 8489W        W75557  15.662   5.850   2.279
 8490W        W75558  36.849   6.780  12.836
 8491W        W75559  39.820  19.656   4.694
 8492W        W75560  20.271  34.513   1.757
 8493W        W75561  30.501   1.272  13.361
 8494W        W75562  26.957  38.850   3.820
 8495W        W75563   8.794  20.083   1.359
 8496W        W75564  40.397  13.617  14.323
 8497W        W75565  23.642  23.089  10.416
 8498W        W75566  23.068  26.995   0.438
 8499W        W75567  11.303   0.784  10.988
 8500W        W75568  23.042  30.516  13.541
 8501W        W75569  20.252  19.277   2.222
 8502W        W75570  18.700  43.368   3.687
 8503W        W75571  12.780  37.434  12.888
 8504W        W75572  41.019   8.672   2.671
 8505W        W75573  33.891  32.909   3.856
 8506W        W75574  16.137  18.589   1.339
 8507W        W75575  43.284  10.310   3.371
 8508W        W75576  13.318   9.672  12.396
 8509W        W75577   0.406  16.614  14.027
 8510W        W75578  11.777  15.288   1.291
 8511W        W75579   1.460  43.406   4.137
 8512W        W75580  20.560  32.566   2.387
 8513W        W75581  39.065  26.606   0.923
 8514W        W75582  12.627  23.674  13.432
 8515W        W75583  39.057   5.849  11.494
 8516W        W75584  24.225   4.831   2.337
 8517W        W75585  38.377  21.035   0.308
 8518W        W75586   2.447  34.881  14.486
 8519W        W75587  40.488  34.582  13.911
 8520W        W75588   5.780  32.502   1.371
 8521W        W75589  25.650  17.642  11.102
 8522W        W75590  11.679  39.848  12.944
 8523W        W75591  20.223   9.717  11.413
 8524W        W75592  12.791   7.757   3.147
 8525W        W75593  17.794   2.257   3.366
 8526W        W75594  35.535  43.289   3.663
 8527W        W75595   7.244   4.717  12.418
 8528W        W75596   2.813  15.590   5.119
 8529W        W75597   1.356   4.218  13.447
 8530W        W75598  10.274  13.196  13.792
 8531W        W75599  29.041  25.674  10.915
 8532W        W75600  15.210  24.133   0.400
 8533W        W75601  33.906  22.089   0.944
 8534W        W75602  33.466  15.204  14.784
 8535W        W75603  23.221   3.450  12.828
 8536W        W75604  33.906   2.939  11.480
 8537W        W75605  34.946  30.944  12.095
 8538W        W75606  19.675  29.617   1.875
 8539W        W75607   2.387   7.666   3.227
 8540W        W75608  37.578  38.829  14.979
 8541W        W75609  29.092  42.781  12.997
 8542W        W75610  44.434   9.658  12.034
 8543W        W75611  33.994  38.450  12.349
 8544W        W75612  30.961  32.951   1.906
 8545W        W75613  38.844   0.294  10.108
 8546W        W75614  28.436  38.407   1.796
 8547W        W75615   1.840   3.823   3.757
 8548W        W75616  35.028  31.603   3.295
 8549W        W75617  24.562  42.893   4.663
 8550W        W75618  36.421   6.727  10.604
 8551W        W75619   6.813  28.082   2.259
 8552W        W75620   7.222   0.260  13.845
 8553W        W75621  21.132  35.014   1.756
 8554W        W75622  29.485  40.815   3.705
 8555W        W75623  40.414  28.449  11.885
 8556W        W75624   5.814  16.654   2.399
 8557W        W75625  15.595   1.910  12.084
 8558W        W75626  33.975  29.046  12.467
 8559W        W75627  14.318  10.372   2.900
 8560W        W75628   1.848  37.067   4.710
 8561W        W75629  31.627  43.486   1.729
 8562W        W75630   4.380  41.439  13.527
 8563W        W75631  20.093  26.177  12.861
 8564W        W75632  12.660  34.099   0.462
 8565W        W75633  26.675  41.458  12.031
 8566W        W75634  17.071  27.674   0.266
 8567W        W75635  19.701   9.846   2.702
 8568W        W75636   8.840  13.311  11.377
 8569W        W75637  37.962  24.616   2.748
 8570W        W75638   3.268  32.961  12.560
 8571W        W75639  18.681  15.162   2.843
 8572W        W75640  27.625  20.170   2.286
 8573W        W75641  30.972  36.548  11.472
 8574W        W75642  13.189  26.095  10.482
 8575W        W75643  43.954  28.591  11.931
 8576W        W75644  23.156  42.452  14.497
 8577W        W75645  25.026  30.447  13.354
 8578W        W75646  10.840  34.947   2.875
 8579W        W75647  22.566   9.777  12.836
 8580W        W75648  16.074  37.582   2.224
 8581W        W75649   0.443   0.766  11.929
 8582W        W75650  40.475  33.114  10.551
 8583W        W75651  21.184   4.809   1.372
 8584W        W75652   6.819  36.934   4.342
 8585W        W75653   0.915   3.885  11.590
 8586W        W75654   6.426   1.310  12.358
 8587W        W75655  22.660  37.369   0.776
 8588W        W75656  13.319   0.306   3.694
 8589W        W75657  23.676  43.359   3.800
 8590W        W75658  31.971   3.337  10.111
 8591W        W75659  17.303   8.661   3.181
 8592W        W75660  36.476  26.124   4.313
 8593W        W75661  35.941  16.073   3.765
 8594W        W75662  41.968  14.238  11.489
 8595W        W75663  29.606  33.929  13.534
 8596W        W75664   2.383   4.760   0.265
 8597W        W75665  15.154   1.303   3.342
 8598W        W75666   4.714  28.074   1.851
 8599W        W75667  42.814  25.133   3.723
 8600W        W75668  30.004  42.904   4.776
 8601W        W75669  41.790   2.278  12.492
 8602W        W75670  18.196  42.785   3.213
 8603W        W75671  22.570   7.846  11.101
 8604W        W75672  11.361  32.605  13.327
 8605W        W75673  23.179   0.959  11.517
 8606W        W75674  16.317  35.460  12.959
 8607W        W75675  26.120  25.978   1.306
 8608W        W75676  40.809  36.025  12.562
 8609W        W75677  12.660   2.336   4.122
 8610W        W75678   0.930   3.380  12.066
 8611W        W75679  26.527  34.864  11.421
 8612W        W75680   2.932  27.161  12.038
 8613W        W75681  36.972  35.983  10.928
 8614W        W75682  42.878  11.727  11.969
 8615W        W75683  33.416  37.956  11.047
 8616W        W75684  31.986  21.236  12.060
 8617W        W75685  44.924   9.774   3.246
 8618W        W75686  38.509  27.668  12.096
 8619W        W75687  17.751  17.633   4.630
 8620W        W75688  31.127   2.350   2.823
 8621W        W75689  31.971  13.776  14.999
 8622W        W75690  43.369  29.938  11.532
 8623W        W75691  23.215  18.745  14.280
 8624W        W75692  35.016  19.285   0.345
 8625W        W75693  14.126  20.266   2.816
 8626W        W75694  29.523  20.698   0.785
 8627W        W75695  36.451  17.766  13.901
 8628W        W75696  20.560  27.515   1.387
 8629W        W75697  35.498  16.735  14.338
 8630W        W75698   5.802  11.214   2.774
 8631W        W75699   3.872  35.985  10.029
 8632W        W75700   0.957   4.701  11.053
 8633W        W75701  19.614   9.335  13.907
 8634W        W75702   9.865  11.235  10.538
 8635W        W75703  35.935   8.287  11.555
 8636W        W75704   9.184   6.183  14.929
 8637W        W75705  40.021   7.243   0.738
 8638W        W75706  35.420  25.974   1.727
 8639W        W75707  36.072  26.597  14.777
 8640W        W75708  19.195  30.485  12.444
 8641W        W75709  36.081  13.162  13.513
 8642W        W75710  35.987  37.387   2.687
 8643W        W75711   6.325  17.076   9.446
 8644W        W75712  39.516   2.333   2.702
 8645W        W75713   2.433   9.262   0.786
 8646W        W75714  22.095  41.825  14.925
 8647W        W75715  30.439  31.549   0.779
 8648W        W75716  27.125  25.516   1.854
 8649W        W75717  40.465  42.805  11.600
 8650W        W75718  11.251  32.015   3.711
 8651W        W75719  20.246  30.156  12.562
 8652W        W75720   4.435   9.208  12.893
 8653W        W75721  22.600  18.293   1.334
 8654W        W75722  18.767   3.929   3.631
 8655W        W75723   2.386   1.457  14.319
 8656W        W75724  42.346   2.350  11.877
 8657W        W75725  32.020  35.065   0.941
 8658W        W75726  37.937   9.778  14.874
 8659W        W75727  29.613  26.612  12.002
 8660W        W75728  21.172  30.541   3.152
 8661W        W75729   6.767  42.866  12.429
 8662W        W75730   4.884  15.606  11.590
 8663W        W75731  40.986  31.016   3.371
 8664W        W75732  35.519  29.961  12.932
 8665W        W75733   9.355  12.841  14.474
 8666W        W75734   0.828  39.964  14.321
 8667W        W75735  22.683  19.654  13.429
 8668W        W75736  21.601  27.492  14.357
 8669W        W75737  17.730  35.599   0.314
 8670W        W75738  42.912  29.946  11.988
 8671W        W75739  44.955  41.338  12.540
 8672W        W75740  23.989  24.511   1.313
 8673W        W75741  29.090  29.589   2.198
 8674W        W75742  38.986   8.682  12.365
 8675W        W75743  27.518  33.472   0.384
 8676W        W75744  26.167  38.029  10.631
 8677W        W75745  17.703   5.268   1.267
 8678W        W75746   5.419  28.446  14.813
 8679W        W75747  10.839  39.840  12.012
 8680W        W75748   9.890  13.600   0.361
 8681W        W75749  28.017  24.151  12.359
 8682W        W75750  43.361  31.583   1.843
 8683W        W75751  35.530   7.786  14.871
 8684W        W75752   7.268  32.547  13.902
 8685W        W75753  22.035   1.299   0.367
 8686W        W75754  34.049  16.656   1.856
 8687W        W75755  37.443  22.559  13.333
 8688W        W75756  33.488  15.165   0.954
 8689W        W75757   4.881  36.572  11.412
 8690W        W75758   4.406  36.480   1.818
 8691W        W75759  29.524  35.439   0.479
 8692W        W75760  21.737  20.610   4.657
 8693W        W75761  35.965  37.475   4.609
 8694W        W75762  35.503  33.131   4.190
 8695W        W75763   7.329  29.566  14.924
 8696W        W75764  42.462  32.926  13.900
 8697W        W75765  21.706  37.436   0.852
 8698W        W75766  19.745  43.009  11.049
 8699W        W75767  25.095  38.957   1.738
 8700W        W75768  22.745  39.328   1.275
 8701W        W75769  12.338  43.949   0.877
 8702W        W75770  24.152  26.658  10.090
 8703W        W75771  23.235  10.281   3.656
 8704W        W75772  29.445   7.211  13.508
 8705W        W75773  35.975  33.537   0.756
 8706W        W75774  17.264  15.680  14.475
 8707W        W75775  37.983   8.656  14.281
 8708W        W75776  12.350  34.585  12.408
 8709W        W75777  35.450   1.909   2.183
 8710W        W75778  12.131  11.248  13.395
 8711W        W75779  32.925  27.072  11.558
 8712W        W75780  11.789  41.429  11.579
 8713W        W75781  33.572  41.400   0.814
 8714W        W75782  34.532  31.618  12.046
 8715W        W75783  31.627  37.010   2.778
 8716W        W75784  14.134  12.119  10.530
 8717W        W75785  13.616  42.996  13.507
 8718W        W75786   6.188   2.808  14.793
 8719W        W75787  33.423  29.445  11.024
 8720W        W75788  11.358  39.863  11.602
 8721W        W75789   1.302  22.620  12.368
 8722W        W75790  26.157   0.359   0.928
 8723W        W75791  25.063  20.754  12.521
 8724W        W75792  10.373   5.224   1.419
 8725W        W75793  29.442   8.850   1.295
 8726W        W75794   6.781  25.140   1.856
 8727W        W75795  39.975  30.521   0.440
 8728W        W75796  15.172  14.798  10.895
 8729W        W75797  12.321   8.359   4.781
 8730W        W75798   9.683  30.143  11.099
 8731W        W75799  24.987   5.897   1.251
 8732W        W75800  13.125  17.670  14.327
 8733W        W75801  34.601  31.422  11.082
 8734W        W75802  18.163  22.692  11.462
 8735W        W75803  29.601  35.405   2.207
 8736W        W75804  20.123   3.933  12.908
 8737W        W75805  27.584  24.628  13.409
 8738W        W75806  44.784  13.811  11.498
 8739W        W75807  43.303  26.028   0.814
 8740W        W75808  38.004  13.799   4.114
 8741W        W75809  20.159   6.379   3.660
 8742W        W75810  21.621   9.665  11.441
 8743W        W75811  26.191   3.802   4.216
 8744W        W75812  28.044  36.958   2.418
 8745W        W75813  23.036   0.811  13.824
 8746W        W75814   6.733  26.480   2.368
 8747W        W75815  44.500  28.670   1.819
 8748W        W75816  14.825  13.339   1.448
 8749W        W75817  21.662  42.952   1.809
 8750W        W75818  44.836  21.109   2.372
 8751W        W75819  23.513   2.435   1.767
 8752W        W75820  14.230  29.541  12.576
 8753W        W75821  36.955  26.548  14.900
 8754W        W75822  16.291   7.741   4.346
 8755W        W75823  21.581  22.517  11.123
 8756W        W75824  21.207  17.802   9.995
 8757W        W75825  16.625  23.082  10.127
 8758W        W75826  22.642  37.360  11.074
 8759W        W75827   1.368   1.345  13.487
 8760W        W75828  25.652  22.150   2.229
 8761W        W75829  19.691  38.037   0.253
 8762W        W75830  13.715   1.934  11.869
 8763W        W75831  34.929   5.420  12.075
 8764W        W75832  17.258  44.827  14.876
 8765W        W75833   5.430  24.542  10.640
 8766W        W75834  33.512  13.155   0.870
 8767W        W75835   0.291  33.071   2.237
 8768W        W75836  25.208  36.451  12.906
 8769W        W75837   1.315  20.035  12.062
 8770W        W75838  18.673  25.072   3.313
 8771W        W75839   6.850  20.672  11.568
 8772W        W75840  18.579  37.359  14.412
 8773W        W75841  29.611  10.203   0.384
 8774W        W75842  19.598  11.804   3.209
 8775W        W75843  25.673  33.406  13.014
 8776W        W75844  41.942  44.391  13.519
 8777W        W75845  33.506   5.878  13.850
 8778W        W75846  36.012  34.942  12.954
 8779W        W75847  43.479  13.203  13.314
 8780W        W75848  28.156   9.215  11.377
 8781W        W75849  15.594  20.159  11.477
 8782W        W75850  14.147  24.178  11.559
 8783W        W75851  22.645  24.519  11.533
 8784W        W75852  44.987  32.564   4.346
 8785W        W75853  42.854  19.273   4.641
 8786W        W75854  36.440  42.832   1.708
 8787W        W75855  35.962  27.552  12.004
 8788W        W75856  13.316  42.466  14.951
 8789W        W75857  20.675  30.136   4.270
 8790W        W75858  33.890  33.051   1.858
 8791W        W75859  36.927  32.634  14.464
 8792W        W75860  31.044  37.449   0.389
 8793W        W75861  43.365  24.025  11.452
 8794W        W75862   2.341  33.487   3.383
 8795W        W75863  10.784  44.296  13.911
 8796W        W75864  32.036  16.801   0.335
 8797W        W75865  32.026   5.920  14.934
 8798W        W75866  12.191  17.247   2.890
 8799W        W75867  37.376  35.596  14.002
 8800W        W75868  29.651  38.421   4.794
 8801W        W75869  18.638  43.301   1.241
 8802W        W75870  40.968  22.127   3.360
 8803W        W75871   2.942  37.040  12.828
 8804W        W75872   2.885   4.744   1.277
 8805W        W75873  44.416  14.283  12.544
 8806W        W75874  27.056  43.996   3.187
 8807W        W75875  23.719  10.208  12.851
 8808W        W75876  22.711  42.937  14.305
 8809W        W75877   2.930  19.186   0.848
 8810W        W75878  25.171  26.972  14.009
 8811W        W75879  36.995   4.283   2.257
 8812W        W75880  28.088  22.239   3.693
 8813W        W75881  25.523  13.191  13.879
 8814W        W75882  20.630   5.435   0.327
 8815W        W75883  37.337  32.567  14.981
 8816W        W75884  11.249  31.069   0.480
 8817W        W75885  34.433  34.974   3.387
 8818W        W75886  28.485  14.813   3.631
 8819W        W75887  37.391  30.492  13.989
 8820W        W75888  39.951  22.131   1.903
 8821W        W75889  22.243   2.245   4.291
 8822W        W75890  27.092  34.951   4.656
 8823W        W75891  14.325  17.672  10.983
 8824W        W75892  19.253  31.142  13.516
 8825W        W75893  33.509  32.096   4.753
 8826W        W75894  21.552  39.359  12.940
 8827W        W75895  39.064  38.030  12.064
 8828W        W75896   1.448  44.296   2.672
 8829W        W75897  22.050  14.695   4.813
 8830W        W75898  23.662  42.026  13.406
 8831W        W75899  29.134  28.584   4.272
 8832W        W75900  30.965  10.661   2.208
 8833W        W75901  35.940  28.570   0.831
 8834W        W75902  30.515  38.009  13.500
 8835W        W75903  18.769  33.556  12.050
 8836W        W75904   3.314  12.130   1.220
 8837W        W75905  40.998  17.599  13.470
 8838W        W75906  29.012  34.519   1.301
 8839W        W75907   0.810  42.825   3.864
 8840W        W75908  11.336  35.382   1.879
 8841W        W75909  35.107  26.006  12.480
 8842W        W75910  17.190  41.346   4.698
 8843W        W75911  43.506  29.447   1.211
 8844W        W75912  14.829  13.313  14.513
 8845W        W75913   3.913  20.102  11.888
 8846W        W75914  32.420   9.840   2.797
 8847W        W75915  41.422  14.329  12.542
 8848W        W75916  15.601   1.845   4.294
 8849W        W75917  36.565  32.973   2.664
 8850W        W75918  37.566  16.642   0.324
 8851W        W75919  32.099  39.370  10.635
 8852W        W75920  22.207  31.615  14.818
 8853W        W75921  12.822  33.083  11.440
 8854W        W75922  41.435  37.914   4.258
 8855W        W75923  31.100  39.051  13.960
 8856W        W75924   0.390   8.807  11.391
 8857W        W75925  24.627   0.452   1.253
 8858W        W75926  12.357   7.341  11.112
 8859W        W75927  30.070  27.194  13.031
 8860W        W75928  40.004  40.411  12.518
 8861W        W75929  43.906  19.762  14.494
 8862W        W75930  44.497  20.730   0.466
 8863W        W75931  35.027  39.522   2.380
 8864W        W75932  29.944  36.510   0.805
 8865W        W75933  26.047  28.164  14.004
 8866W        W75934  11.260  31.938  11.406
 8867W        W75935  23.056  23.193  14.472
 8868W        W75936  40.991  33.910  13.527
 8869W        W75937  31.004   9.851  12.877
 8870W        W75938   9.760  26.180  10.959
 8871W        W75939  16.699  42.817  10.112
 8872W        W75940  18.228   3.724  14.306
 8873W        W75941  21.260  42.777  13.994
 8874W        W75942  22.677  34.893   1.451
 8875W        W75943  42.500  21.579   2.365
 8876W        W75944  20.131  34.489  11.022
 8877W        W75945  20.198  32.578   1.310
 8878W        W75946  25.667  18.600   2.736
 8879W        W75947  43.447   3.775  13.814
 8880W        W75948   4.205  27.634   3.856
 8881W        W75949  40.505   6.232  14.313
 8882W        W75950   7.215  32.141  11.888
 8883W        W75951   0.370  35.048  10.076
 8884W        W75952  25.614  42.938  11.040
 8885W        W75953   0.320   8.279  12.996
 8886W        W75954  21.154   7.342  14.805
 8887W        W75955  34.878   2.911  13.889
 8888W        W75956   3.940  30.474   1.712
 8889W        W75957  32.419  11.329  14.389
 8890W        W75958  13.210  10.871   2.232
 8891W        W75959   7.193  14.300   1.433
 8892W        W75960  22.158  16.662   1.415
 8893W        W75961   3.908  14.724  12.551
 8894W        W75962  32.091   4.888   3.671
 8895W        W75963   2.785  23.209  14.932
 8896W        W75964  23.039  13.181  13.546
 8897W        W75965  36.391  28.012  13.949
 8898W        W75966   9.217  16.713   0.324
 8899W        W75967  21.078  18.138  13.325
 8900W        W75968  41.855  24.489   2.263
 8901W        W75969  19.588  22.170   3.809
 8902W        W75970   4.262  30.916  11.378
 8903W        W75971   7.719  18.101  11.923
 8904W        W75972   5.296   0.767  10.435
 8905W        W75973  35.949   1.383   2.214
 8906W        W75974  32.129  28.165  11.446
 8907W        W75975  12.226   9.281   4.184
 8908W        W75976   8.263  23.213   4.776
 8909W        W75977   0.383  19.041  11.523
 8910W        W75978  31.017  26.196  12.428
 8911W        W75979  42.420  12.169  13.801
 8912W        W75980  30.617   7.832   0.444
 8913W        W75981   5.854  43.500   2.381
 8914W        W75982  37.958  26.967   3.346
 8915W        W75983  39.036  42.284   3.156
 8916W        W75984  38.898  40.890  12.949
 8917W        W75985  24.978  31.046  13.392
 8918W        W75986  43.510  38.014  13.932
 8919W        W75987  20.274  26.157  12.562
 8920W        W75988  37.040  19.635  13.501
 8921W        W75989  23.201  32.889   0.280
 8922W        W75990   4.791  16.597  12.511
 8923W        W75991  44.828   2.363   3.277
 8924W        W75992  21.556  34.095  10.570
 8925W        W75993   0.756   7.292  11.463
 8926W        W75994  34.614  30.018  13.925
 8927W        W75995  27.531  23.709   4.277
 8928W        W75996   4.923  24.553   1.695
 8929W        W75997  43.915   6.900   1.359
 8930W        W75998  15.591   1.952  14.991
 8931W        W75999  30.040  16.257  12.920
 8932W        W76000   7.410  27.178  14.977
 8933W        W76001  35.493  41.373  14.961
 8934W        W76002  33.957  39.543   4.302
 8935W        W76003   1.885  16.315  11.885
 8936W        W76004  25.117  32.131   5.155
 8937W        W76005  26.672  18.612   2.692
 8938W        W76006   5.869  16.755  11.903
 8939W        W76007  36.411  38.905   2.869
 8940W        W76008  37.999  36.929  10.442
 8941W        W76009   7.218  13.173   1.861
 8942W        W76010  10.850  12.269   4.817
 8943W        W76011  19.579  22.194  12.023
 8944W        W76012  15.086  11.337  12.411
 8945W        W76013  41.336   4.225  14.412
 8946W        W76014   4.737  13.693  12.961
 8947W        W76015   9.323  42.029  12.857
 8948W        W76016   3.425  39.982  11.987
 8949W        W76017  40.516  18.082   2.306
 8950W        W76018  43.808  28.454  13.993
 8951W        W76019   8.674   0.842   1.909
 8952W        W76020  18.677  39.532   1.289
 8953W        W76021   2.390  43.840   0.434
 8954W        W76022  19.716   2.817  10.557
 8955W        W76023   8.663   7.773  11.065
 8956W        W76024  24.113  10.866  12.847
 8957W        W76025   0.979   2.814   4.675
 8958W        W76026  33.513  42.946   0.945
 8959W        W76027   3.317  30.471  13.018
 8960W        W76028  25.157  23.013  13.816
 8961W        W76029  12.359  37.843   2.292
 8962W        W76030   4.700   7.181   0.400
 8963W        W76031  26.610  43.491  12.952
 8964W        W76032  12.623  23.572   4.772
 8965W        W76033  21.025  15.713  13.520
 8966W        W76034  34.385  19.704  14.910
 8967W        W76035  36.068  37.429   3.152
 8968W        W76036   2.383   5.838   1.320
 8969W        W76037  11.150  27.159  12.545
 8970W        W76038  43.871  13.226  14.451
 8971W        W76039  19.263   7.226  11.551
 8972W        W76040  38.366  22.502   3.360
 8973W        W76041  26.161  29.465   1.841
 8974W        W76042  33.427  35.006   2.212
 8975W        W76043  16.634  27.686   4.696
 8976W        W76044  10.368  32.547  14.972
 8977W        W76045   6.860  37.859   1.301
 8978W        W76046  19.113  12.732   0.300
 8979W        W76047  26.978  38.964  10.974
 8980W        W76048  24.004  24.669  12.509
 8981W        W76049  27.691  33.509   2.371
 8982W        W76050  11.626   3.411   3.787
 8983W        W76051  10.876  22.683   1.422
 8984W        W76052   2.943   2.858   4.766
 8985W        W76053  35.552  18.791  14.283
 8986W        W76054  42.355  13.646  10.977
 8987W        W76055  16.762   9.776  11.436
 8988W        W76056  18.584  31.642   2.263
 8989W        W76057  15.724   8.781   3.762
 8990W        W76058   5.934  42.807   4.349
 8991W        W76059  36.009  32.938  14.444
 8992W        W76060  15.172  30.999   1.787
 8993W        W76061  21.724  42.326  12.530
 8994W        W76062   0.750  22.679   9.937
 8995W        W76063  12.329   3.817  11.526
 8996W        W76064  28.959   9.785   1.726
 8997W        W76065  27.465  43.269  13.969
 8998W        W76066   8.259  15.732   1.785
 8999W        W76067  17.787  10.644   3.261
 9000W        W76068  24.548   4.396   1.824
 9001W        W76069   6.236  10.252  11.520
 9002W        W76070  28.487  43.950  11.476
 9003W        W76071   0.761  44.886   2.677
 9004W        W76072  13.279   6.305  14.515
 9005W        W76073  19.589  23.222  12.995
 9006W        W76074  43.504  36.028  13.971
 9007W        W76075  31.141   1.929   2.307
 9008W        W76076   6.185  42.480  14.303
 9009W        W76077  14.755   9.883  13.389
 9010W        W76078   4.235  43.448  14.846
 9011W        W76079  19.246  30.976   5.261
 9012W        W76080  43.498  32.963  13.376
 9013W        W76081   8.766  44.841   1.756
 9014W        W76082  34.559   8.698   3.771
 9015W        W76083  18.185   2.797  14.954
 9016W        W76084  22.559   2.776  14.784
 9017W        W76085  42.309  37.837  11.091
 9018W        W76086  12.354  33.618   0.806
 9019W        W76087  24.989   4.711  12.365
 9020W        W76088  38.824  33.086  14.389
 9021W        W76089  26.002  31.901  12.541
 9022W        W76090  19.209  35.432   2.897
 9023W        W76091  35.536  37.387   2.251
 9024W        W76092  20.106  30.472  10.961
 9025W        W76093  15.101  17.284  14.991
 9026W        W76094  14.181  19.140   1.766
 9027W        W76095  14.263  18.729   3.150
 9028W        W76096  16.176  29.609   4.656
 9029W        W76097  29.962   6.207  11.115
 9030W        W76098   9.338  30.136   2.694
 9031W        W76099  17.668   5.882   3.158
 9032W        W76100  29.549   9.164   1.323
 9033W        W76101  42.988  10.188  12.912
 9034W        W76102   7.795  40.847  14.967
 9035W        W76103  33.468  21.706   4.760
 9036W        W76104   1.323  17.651  12.964
 9037W        W76105  18.668  36.351  11.482
 9038W        W76106  33.508  41.867  12.073
 9039W        W76107  31.423  17.766  14.975
 9040W        W76108   5.895  41.991  10.986
 9041W        W76109  16.683  31.432   3.721
 9042W        W76110  18.544  40.014   1.221
 9043W        W76111  21.018  35.091   0.332
 9044W        W76112  22.723  22.501   0.812
 9045W        W76113  30.443  10.677  12.468
 9046W        W76114  43.833  42.507  12.932
 9047W        W76115  31.054  28.180   2.364
 9048W        W76116  34.468  22.150  11.973
 9049W        W76117  19.689  25.687  13.830
 9050W        W76118  28.081   9.789   0.478
 9051W        W76119   2.940  35.020  14.960
 9052W        W76120  19.083  21.547   5.156
 9053W        W76121   7.776  26.582   5.241
 9054W        W76122  39.423  32.067  13.468
 9055W        W76123  21.116  14.595  10.445
 9056W        W76124  19.173   7.413   0.415
 9057W        W76125  28.490  28.991  10.488
 9058W        W76126  22.564  11.851   3.280
 9059W        W76127  33.519   0.814  10.996
 9060W        W76128  34.900  28.613   0.366
 9061W        W76129  28.474  30.629   0.765
 9062W        W76130  43.875  21.229   5.161
 9063W        W76131  44.433  43.996   3.200
 9064W        W76132  27.995  11.159   3.822
 9065W        W76133  42.908   8.355   0.774
 9066W        W76134  28.019   8.304  10.471
 9067W        W76135  25.493  30.593   3.355
 9068W        W76136  37.511  20.543   4.322
 9069W        W76137   9.343  21.753   4.670
 9070W        W76138  19.151   9.853   4.636
 9071W        W76139  42.826  25.207  14.458
 9072W        W76140  21.755  24.002  12.553
 9073W        W76141  11.215  21.160  14.812
 9074W        W76142  13.228  35.855  13.853
 9075W        W76143  12.763  42.954   0.270
 9076W        W76144   4.715  25.032  11.075
 9077W        W76145  28.032  27.029   1.302
 9078W        W76146  23.072  36.879   2.788
 9079W        W76147  22.161  39.833  11.127
 9080W        W76148  13.714   9.809  10.026
 9081W        W76149  38.031   4.304  11.384
 9082W        W76150  10.805   6.683  14.768
 9083W        W76151  12.834  33.621   4.235
 9084W        W76152   9.184  41.847   0.727
 9085W        W76153  22.044  30.066   1.804
 9086W        W76154   4.259   0.467   3.840
 9087W        W76155  14.237  12.785  13.376
 9088W        W76156  17.698  37.833   4.800
 9089W        W76157  36.038  22.047  13.545
 9090W        W76158  26.044  33.035  14.314
 9091W        W76159  19.040  16.583  13.458
 9092W        W76160  10.154  20.662  12.997
 9093W        W76161  31.150  21.102  12.089
 9094W        W76162   4.781   6.403  10.592
 9095W        W76163   9.752  44.482   3.769
 9096W        W76164  24.998  31.435   0.293
 9097W        W76165  27.112  26.634  13.917
 9098W        W76166  13.801   3.760  11.867
 9099W        W76167   7.414  39.523  13.864
 9100W        W76168  32.502  36.583  12.973
 9101W        W76169  11.343  39.851  13.879
 9102W        W76170   9.646  11.198   1.935
 9103W        W76171  14.627  39.371  13.510
 9104W        W76172  19.572  11.640   4.164
 9105W        W76173  44.003   3.409  13.794
 9106W        W76174   6.247  39.855  12.891
 9107W        W76175   3.412  28.095  11.553
 9108W        W76176   9.876  36.406  13.413
 9109W        W76177  43.888  21.097  13.873
 9110W        W76178  31.475  34.424  13.010
 9111W        W76179   5.352   9.755  13.403
 9112W        W76180  27.013  11.846  12.368
 9113W        W76181  14.655  39.961  12.421
 9114W        W76182  20.587  34.402   2.191
 9115W        W76183  31.037  24.061  14.347
 9116W        W76184   9.368  39.495  10.947
 9117W        W76185  18.586  10.232   3.269
 9118W        W76186  44.416  32.521   1.745
 9119W        W76187  12.725  26.650   1.853
 9120W        W76188  10.270  12.635  12.044
 9121W        W76189   8.212   0.874   2.673
 9122W        W76190  11.736  43.360  14.334
 9123W        W76191   0.319  31.627  11.956
 9124W        W76192  10.799  39.984  11.568
 9125W        W76193  43.969  33.069   9.986
 9126W        W76194  15.663  26.661  13.904
 9127W        W76195  38.561  26.636   4.193
 9128W        W76196  14.690  27.150  10.481
 9129W        W76197  42.946  12.132  11.476
 9130W        W76198  24.083  36.379   2.416
 9131W        W76199  13.110   5.277   1.919
 9132W        W76200  30.587  41.496   1.826
 9133W        W76201  13.142  44.423   4.782
 9134W        W76202  20.687   5.776  10.446
 9135W        W76203  26.205   3.400   2.194
 9136W        W76204   3.348  29.668  13.006
 9137W        W76205  13.743  31.971   0.909
 9138W        W76206  36.887  34.013   4.233
 9139W        W76207   6.875  13.644  13.846
 9140W        W76208   7.859  21.512   4.332
 9141W        W76209  16.207  23.235   1.387
 9142W        W76210  35.532  17.704   3.783
 9143W        W76211  31.533  28.955  10.633
 9144W        W76212  10.847  13.338   0.819
 9145W        W76213  29.150  44.844  11.948
 9146W        W76214  36.094  39.939  12.540
 9147W        W76215  28.084  38.983   1.883
 9148W        W76216   0.412  11.720  11.049
 9149W        W76217  19.119  24.009   1.774
 9150W        W76218   5.781  21.740   1.347
 9151W        W76219  28.608  37.427   1.295
 9152W        W76220  11.206  24.091  12.362
 9153W        W76221   5.693   9.163  14.434
 9154W        W76222   1.466  26.624  10.429
 9155W        W76223  11.805  13.648   3.826
 9156W        W76224  22.104  39.836  14.382
 9157W        W76225   2.852  23.618   1.218
 9158W        W76226  37.077   6.410  10.598
 9159W        W76227  18.605  39.000   4.703
 9160W        W76228  10.806  37.370  14.889
 9161W        W76229   0.431  12.647  12.388
 9162W        W76230  12.798  17.601   4.222
 9163W        W76231  41.459  39.960  10.988
 9164W        W76232  13.640   8.165  11.477
 9165W        W76233  17.086  30.918  10.911
 9166W        W76234  21.623  31.108   2.383
 9167W        W76235   1.886  44.981  13.883
 9168W        W76236  19.658  17.265   0.392
 9169W        W76237  13.643  29.541  12.424
 9170W        W76238  19.271  28.119   3.196
 9171W        W76239  13.326   0.877  10.068
 9172W        W76240  33.912  39.557  13.385
 9173W        W76241  13.729   3.263  11.872
 9174W        W76242  41.538  23.561   2.801
 9175W        W76243  28.026  25.120   1.292
 9176W        W76244   6.423  13.616  10.979
 9177W        W76245  29.927  20.658   4.289
 9178W        W76246  27.069  33.076   2.848
 9179W        W76247  12.301  40.381  10.500
 9180W        W76248   4.387  33.458  11.586
 9181W        W76249   5.811  14.672   0.371
 9182W        W76250  19.660  32.576   3.296
 9183W        W76251  43.936  38.377  10.897
 9184W        W76252  38.040  13.745  10.456
 9185W        W76253  32.393  32.059  14.483
 9186W        W76254   7.401  31.061   1.442
 9187W        W76255   7.697   2.911  12.892
 9188W        W76256  21.207  16.216   2.769
 9189W        W76257  15.742  29.438   0.430
 9190W        W76258  13.805  30.644  11.873
 9191W        W76259   0.785  32.006  10.010
 9192W        W76260  14.681   6.824  14.345
 9193W        W76261  28.118   6.206   3.738
 9194W        W76262  13.622   5.282   3.695
 9195W        W76263  10.831   4.794   3.775
 9196W        W76264  21.129   1.284   1.422
 9197W        W76265  44.805  30.936  11.859
 9198W        W76266  11.329  13.628   0.266
 9199W        W76267  28.507  42.994  10.039
 9200W        W76268   2.947  36.580   1.282
 9201W        W76269  41.509  13.804   2.186
 9202W        W76270  19.568  25.056  12.516
 9203W        W76271  23.199   1.262   4.763
 9204W        W76272   1.393  30.481   0.743
 9205W        W76273   7.358   1.799  11.903
 9206W        W76274  11.844  21.027  12.949
 9207W        W76275  20.084  32.415  13.040
 9208W        W76276  33.975  39.505   3.837
 9209W        W76277  44.861  24.049  14.016
 9210W        W76278  18.176  22.034  12.036
 9211W        W76279  27.105  22.033   2.317
 9212W        W76280  31.038  17.080  10.551
 9213W        W76281  41.418  15.590   5.114
 9214W        W76282  35.384   3.401   4.672
 9215W        W76283  14.294  34.491  13.397
 9216W        W76284  18.203   9.363  10.598
 9217W        W76285  36.995  24.988  10.908
 9218W        W76286   8.218  41.353   0.428
 9219W        W76287  20.576  22.536   2.354
 9220W        W76288  11.671   7.412   1.785
 9221W        W76289   9.675   1.265   0.307
 9222W        W76290  29.929  12.705   4.172
 9223W        W76291  12.789   0.930  10.605
 9224W        W76292  22.694  16.174  12.083
 9225W        W76293  34.959  14.782   0.345
 9226W        W76294   0.356  17.575  12.469
 9227W        W76295   1.395  25.575   0.745
 9228W        W76296  25.051  18.771  13.059
 9229W        W76297  41.503  38.525   1.304
 9230W        W76298  23.722  25.188  13.425
 9231W        W76299  26.534  16.162  10.908
 9232W        W76300  12.226   8.887  13.307
 9233W        W76301   7.295  11.298   4.187
 9234W        W76302  17.105  40.523   1.356
 9235W        W76303  34.395  23.192   2.881
 9236W        W76304  26.681   7.295  13.356
 9237W        W76305  23.141   0.451  13.397
 9238W        W76306  35.387  20.596   0.402
 9239W        W76307  39.965  21.154   3.744
 9240W        W76308  24.519  12.168  12.043
 9241W        W76309  27.639   5.216   4.719
 9242W        W76310  30.989  28.592  14.977
 9243W        W76311   6.743  39.960   4.211
 9244W        W76312  18.630  12.697   3.197
 9245W        W76313  33.552  41.329  10.105
 9246W        W76314  25.199   0.795  13.924
 9247W        W76315  41.294   1.358  12.958
 9248W        W76316  43.282  40.826   3.306
 9249W        W76317  41.353  40.405  14.486
 9250W        W76318  10.369  29.129   4.637
 9251W        W76319  21.573   6.766  10.947
 9252W        W76320  28.021   8.734   5.131
 9253W        W76321  40.852  28.483   1.239
 9254W        W76322  25.987  23.513  13.515
 9255W        W76323  41.304  11.638   2.399
 9256W        W76324  39.064   2.349   0.420
 9257W        W76325   8.395  19.158  10.908
 9258W        W76326  26.593  26.112  13.420
 9259W        W76327  39.965   9.847   2.730
 9260W        W76328  12.244  43.779   0.243
 9261W        W76329  42.512  41.437  14.836
 9262W        W76330  22.046   9.277  14.468
 9263W        W76331  24.146   8.250   3.811
 9264W        W76332   0.404   9.821  14.802
 9265W        W76333  33.045   7.720   1.367
 9266W        W76334  32.920  10.300  12.918
 9267W        W76335  42.430  32.027  12.399
 9268W        W76336  14.228  32.566   0.885
 9269W        W76337  17.721  12.288  12.910
 9270W        W76338  25.640  29.596   4.648
 9271W        W76339  40.426  19.074  14.423
 9272W        W76340   8.299  12.718   4.245
 9273W        W76341   7.899  27.102   0.304
 9274W        W76342  36.589  41.529  11.088
 9275W        W76343   4.218  29.097   1.719
 9276W        W76344   6.783  41.007  14.471
 9277W        W76345  44.862   5.930   0.327
 9278W        W76346  29.459  22.578   0.738
 9279W        W76347  34.456  10.718  14.786
 9280W        W76348   2.271   9.746  13.408
 9281W        W76349  21.083   4.300  10.452
 9282W        W76350  42.301  26.703   0.799
 9283W        W76351  15.626  30.939   5.285
 9284W        W76352   0.283  41.920   3.746
 9285W        W76353  17.601  10.737  10.452
 9286W        W76354   2.857  22.668  13.448
 9287W        W76355  33.115  16.268  12.986
 9288W        W76356  36.847  22.705  13.001
 9289W        W76357  20.694  27.548   1.916
 9290W        W76358   3.323   1.946  14.493
 9291W        W76359  36.576   6.775  13.864
 9292W        W76360  42.936  42.514  13.390
 9293W        W76361   9.722  43.465  13.343
 9294W        W76362  22.547  13.631  11.090
 9295W        W76363   9.156   5.223   0.252
 9296W        W76364  28.476  10.182   3.757
 9297W        W76365  24.057  29.660  13.019
 9298W        W76366  39.978  42.815  12.906
 9299W        W76367  33.529  29.987   2.300
 9300W        W76368  31.954   4.741  13.801
 9301W        W76369  10.179   1.259  14.302
 9302W        W76370   7.385   1.428   2.815
 9303W        W76371   7.295  34.874  12.858
 9304W        W76372  18.244  37.578   1.317
 9305W        W76373  25.179  29.948  10.552
 9306W        W76374  22.997   4.291  12.879
 9307W        W76375  12.747  21.184  11.448
 9308W        W76376  34.869  22.103   4.208
 9309W        W76377  14.198  16.072   1.889
 9310W        W76378  22.183  26.487  13.402
 9311W        W76379  39.472  12.847  12.463
 9312W        W76380  21.062  27.012  14.995
 9313W        W76381  32.448   9.708  11.069
 9314W        W76382  11.739   6.922   1.355
 9315W        W76383  31.003   2.935   0.871
 9316W        W76384  26.652  26.650  12.431
 9317W        W76385  23.669  14.162  14.490
 9318W        W76386  11.192  30.104   2.751
 9319W        W76387  20.123   8.302  10.615
 9320W        W76388  34.550   9.710   1.712
 9321W        W76389  10.366  44.759   2.691
 9322W        W76390   9.156   4.824   0.356
 9323W        W76391  27.610  35.539   1.233
 9324W        W76392  28.536  25.214  10.520
 9325W        W76393  43.867  12.789   3.748
 9326W        W76394  36.556  13.234  10.449
 9327W        W76395   7.356  30.914  14.951
 9328W        W76396   8.683  39.422  11.472
 9329W        W76397  28.026  27.606  13.962
 9330W        W76398  22.035  34.863   0.450
 9331W        W76399  33.398   3.431  10.103
 9332W        W76400  39.374  16.681   3.336
 9333W        W76401  16.230  16.109  12.361
 9334W        W76402  12.683  21.665   1.392
 9335W        W76403  32.604  17.070  12.869
 9336W        W76404  33.889  35.054  11.451
 9337W        W76405   4.402   5.273   3.698
 9338W        W76406  24.113  19.061  12.056
 9339W        W76407  30.578  24.049   2.757
 9340W        W76408  42.947  44.878  11.471
 9341W        W76409  33.492  26.662   0.744
 9342W        W76410   1.325   2.268   3.251
 9343W        W76411  21.133  40.961  12.985
 9344W        W76412  36.905   2.941  10.613
 9345W        W76413  26.649   1.467  12.844
 9346W        W76414  17.295  27.538  11.606
 9347W        W76415  43.963   9.708  13.824
 9348W        W76416  35.526  32.036  10.991
 9349W        W76417   0.441  17.626  13.931
 9350W        W76418  29.098  17.194   0.963
 9351W        W76419   4.392   6.282   1.781
 9352W        W76420   1.466  40.438   0.835
 9353W        W76421  44.917  16.790  10.510
 9354W        W76422  13.274  19.717  14.028
 9355W        W76423  29.572  28.625  11.454
 9356W        W76424  38.832  25.967  14.020
 9357W        W76425  19.679   5.882  12.046
 9358W        W76426   8.278   0.977  14.869
 9359W        W76427   3.726  40.423  13.509
 9360W        W76428  38.467  29.573  11.391
 9361W        W76429   5.335  17.220   0.387
 9362W        W76430  26.530  13.179   0.927
 9363W        W76431  32.592   6.814  13.942
 9364W        W76432   3.902   3.745   3.289
 9365W        W76433  29.515  15.706   2.223
 9366W        W76434  27.675  19.556  10.464
 9367W        W76435  34.581  25.216   2.779
 9368W        W76436  33.934   8.289  11.053
 9369W        W76437   3.801  28.531   4.155
 9370W        W76438  31.632   1.408  14.367
 9371W        W76439  34.563   5.730   2.328
 9372W        W76440   4.337  19.624  12.405
 9373W        W76441  42.810  23.638   1.381
 9374W        W76442   8.162   9.677   0.732
 9375W        W76443  12.240  29.084  13.527
 9376W        W76444  41.017  12.780  12.414
 9377W        W76445  27.619  35.452  13.547
 9378W        W76446  19.593  13.195   1.861
 9379W        W76447  43.018  39.019   3.170
 9380W        W76448  21.158  44.861   3.216
 9381W        W76449   3.426  39.937   0.386
 9382W        W76450  31.544  22.720  12.439
 9383W        W76451  38.422  31.127  10.407
 9384W        W76452  24.115  27.980   2.850
 9385W        W76453  36.535  14.184  14.415
 9386W        W76454  29.622   4.856   2.731
 9387W        W76455  18.076   4.774  11.922
 9388W        W76456   2.397  42.451   1.890
 9389W        W76457  39.539  35.565  14.385
 9390W        W76458  10.842  13.827  13.052
 9391W        W76459  40.798   7.666  13.900
 9392W        W76460   5.383  21.021   2.272
 9393W        W76461   6.422  37.075  12.865
 9394W        W76462  22.647  22.708  10.567
 9395W        W76463  25.120   0.966  12.987
 9396W        W76464  44.376  43.508   3.798
 9397W        W76465   8.329  12.345  10.988
 9398W        W76466  14.681  28.967  14.425
 9399W        W76467  40.488  40.395  13.348
 9400W        W76468   7.846  36.381   4.749
 9401W        W76469  10.232  15.238  13.923
 9402W        W76470   1.809  13.224   4.636
 9403W        W76471  38.861  44.905   0.281
 9404W        W76472  31.949   4.419   2.862
 9405W        W76473  37.512   1.242  13.050
 9406W        W76474  35.430  35.876   1.319
 9407W        W76475  28.049  40.834  14.487
 9408W        W76476  27.469  32.938   4.607
 9409W        W76477  20.162  37.056   0.361
 9410W        W76478  22.072  28.133   2.213
 9411W        W76479  39.408  34.467  14.341
 9412W        W76480   0.749   9.191   0.453
 9413W        W76481  43.435  25.971  13.348
 9414W        W76482  33.120  32.914   4.314
 9415W        W76483  33.587  33.045   2.179
 9416W        W76484  15.658  44.881  11.939
 9417W        W76485  33.416   9.275  12.043
 9418W        W76486   4.816   7.908   3.260
 9419W        W76487  18.233  33.904  13.912
 9420W        W76488  44.774  28.936   2.764
 9421W        W76489  18.118   9.212   3.659
 9422W        W76490  15.320  31.451   0.258
 9423W        W76491  11.233  30.611  12.959
 9424W        W76492  36.517  38.046  11.563
 9425W        W76493   9.222  11.131   4.350
 9426W        W76494  43.479   0.763  12.010
 9427W        W76495  40.549  10.213   4.758
 9428W        W76496  28.541  40.998  12.450
 9429W        W76497   8.675   1.963  13.971
 9430W        W76498  21.534  36.448   1.769
 9431W        W76499  29.480   7.396   5.186
 9432W        W76500  21.226  28.613   4.716
 9433W        W76501  39.470  27.039   0.891
 9434W        W76502   4.409  18.767  13.500
 9435W        W76503  42.862  34.891   4.250
 9436W        W76504  24.171   1.241  10.990
 9437W        W76505   9.279   1.448   3.374
 9438W        W76506  12.155  24.699   3.207
 9439W        W76507  14.198  41.844  14.364
 9440W        W76508   8.179  20.680  13.482
 9441W        W76509   6.379  15.733   0.474
 9442W        W76510  19.212  42.349   3.660
 9443W        W76511  33.579  29.164  14.452
 9444W        W76512  26.961  44.898  11.048
 9445W        W76513  37.512  33.515  12.857
 9446W        W76514  31.412  11.693   1.757
 9447W        W76515  36.528  34.961   2.887
 9448W        W76516   3.807   9.314  10.482
 9449W        W76517   4.913  10.819  14.835
 9450W        W76518   8.238  42.437  13.522
 9451W        W76519  11.778  34.452   4.692
 9452W        W76520  22.523  21.074  11.461
 9453W        W76521  41.529  34.555   2.236
 9454W        W76522  32.605   8.250   3.319
 9455W        W76523  14.630  32.998   2.239
 9456W        W76524  18.759  34.614   0.322
 9457W        W76525   4.824  23.020   2.815
 9458W        W76526  14.648  20.138   2.678
 9459W        W76527  32.918  36.453   1.299
 9460W        W76528  30.532   4.926  14.446
 9461W        W76529  22.109  42.819   1.769
 9462W        W76530  11.231   9.735  14.391
 9463W        W76531  28.095   8.256   0.297
 9464W        W76532  12.286  21.675  10.580
 9465W        W76533  28.482  41.338   2.362
 9466W        W76534  20.083  31.587   0.418
 9467W        W76535  43.343  38.990   9.937
 9468W        W76536  44.319  38.847  12.933
 9469W        W76537  39.047  35.513  10.454
 9470W        W76538  31.468  32.519  12.938
 9471W        W76539  23.650   0.301   4.635
 9472W        W76540  44.308  14.113   2.329
 9473W        W76541  31.034   6.818  10.548
 9474W        W76542  31.521  25.072  12.943
 9475W        W76543  22.126   4.354  13.961
 9476W        W76544   3.825  11.703   3.243
 9477W        W76545  34.110  27.117   4.127
 9478W        W76546   4.233  43.993  12.511
 9479W        W76547  43.279  37.414   4.694
 9480W        W76548  16.764  43.993   0.885
 9481W        W76549   9.225  36.865  12.831
 9482W        W76550  24.974   0.471   3.188
 9483W        W76551  19.228  39.403  10.988
 9484W        W76552  13.780  11.781   3.366
 9485W        W76553  28.096  23.021   3.768
 9486W        W76554  24.550  15.600  14.384
 9487W        W76555   1.774  44.853   4.215
 9488W        W76556  39.526  33.113  14.013
 9489W        W76557   0.410   3.282   4.809
 9490W        W76558  41.454  24.528   3.235
 9491W        W76559  24.167   3.838   4.766
 9492W        W76560  37.356   9.353  14.878
 9493W        W76561  22.659   1.286  12.000
 9494W        W76562  35.974  31.519   4.303
 9495W        W76563  37.389  40.946  10.440
 9496W        W76564  30.578  22.186  12.096
 9497W        W76565  20.180  17.771  13.820
 9498W        W76566  12.216  37.568  10.127
 9499W        W76567  28.606   9.704  12.875
 9500W        W76568  29.540  16.131   3.683
 9501W        W76569  11.232  20.034  12.011
 9502W        W76570  12.822   4.255  10.482
 9503W        W76571   1.295  32.894   2.196
 9504W        W76572  13.804   5.300   4.307
 9505W        W76573  19.057  19.583   4.827
 9506W        W76574  27.168  42.411   2.376
 9507W        W76575  32.009  34.865  14.471
 9508W        W76576  25.214  38.428  14.990
 9509W        W76577   1.275  24.603  10.471
 9510W        W76578  33.001  25.567   4.211
 9511W        W76579  32.593  41.511   0.444
 9512W        W76580  33.036   1.306   2.327
 9513W        W76581  33.597  27.175   1.928
 9514W        W76582  39.407  13.118  11.942
 9515W        W76583  40.928  17.636  13.879
 9516W        W76584  28.178  14.256   5.229
 9517W        W76585  17.727  11.296   4.750
 9518W        W76586  29.492  25.179   1.699
 9519W        W76587  42.020  40.966  10.644
 9520W        W76588  32.415  40.960   1.747
 9521W        W76589  14.728  29.920  14.872
 9522W        W76590   4.887   4.320   0.416
 9523W        W76591  15.803  30.159  14.308
 9524W        W76592   6.320  31.993  13.440
 9525W        W76593  19.606   1.906  12.567
 9526W        W76594  44.765  28.665  10.957
 9527W        W76595  22.515  33.879   4.287
 9528W        W76596   2.938  18.618  12.541
 9529W        W76597  34.032  11.648   4.122
 9530W        W76598   4.369  35.914   0.298
 9531W        W76599  35.532  34.898  10.936
 9532W        W76600   8.240   9.384  14.429
 9533W        W76601   3.725  11.273  10.410
 9534W        W76602   4.882  25.519  13.889
 9535W        W76603  42.976  31.918  11.025
 9536W        W76604  26.159   9.184  14.940
 9537W        W76605  13.188  30.553   1.233
 9538W        W76606  38.329   9.793  11.601
 9539W        W76607   6.222  44.902  14.021
 9540W        W76608  35.933  37.081   0.813
 9541W        W76609  19.667  33.539  12.990
 9542W        W76610  10.158  35.575  11.904
 9543W        W76611   9.871  26.972  12.083
 9544W        W76612   6.836  25.674   4.819
 9545W        W76613  39.913   2.848  14.469
 9546W        W76614  25.565  38.387   0.423
 9547W        W76615   3.265  21.244  13.857
 9548W        W76616  41.816   9.248  10.404
 9549W        W76617  33.468  29.599  12.092
 9550W        W76618   2.890  27.132  12.367
 9551W        W76619  35.521  37.501   4.317
 9552W        W76620  18.754  16.574  14.297
 9553W        W76621  13.172  41.925  13.862
 9554W        W76622  26.670  20.741   0.299
 9555W        W76623  18.723   8.704   5.268
 9556W        W76624   8.349  23.995   3.232
 9557W        W76625  10.140  37.910  12.923
 9558W        W76626  32.019  34.615   2.792
 9559W        W76627  28.968  14.267  12.893
 9560W        W76628  28.142  17.798   2.852
 9561W        W76629  35.444  18.137   3.159
 9562W        W76630  29.022  30.003  10.940
 9563W        W76631  34.417  12.246  11.594
 9564W        W76632  12.249  37.408   2.400
 9565W        W76633  24.515   5.836  13.313
 9566W        W76634  31.520  29.557  13.825
 9567W        W76635  25.572   2.819  12.015
 9568W        W76636  15.325   4.435  12.992
 9569W        W76637   4.429   4.372  13.361
 9570W        W76638  38.358  34.085   1.710
 9571W        W76639   4.281  28.081   1.223
 9572W        W76640  22.581  43.360   0.375
 9573W        W76641  31.148   1.909   0.478
 9574W        W76642  17.194  27.544  13.318
 9575W        W76643   4.938  18.099  14.945
 9576W        W76644  34.945  17.796   3.328
 9577W        W76645   1.437  44.422   2.363
 9578W        W76646  28.595   1.857  14.777
 9579W        W76647  17.245  26.959  12.475
 9580W        W76648  32.530  37.963  12.413
 9581W        W76649  33.926  27.974  12.499
 9582W        W76650  15.673  25.151  12.088
 9583W        W76651   8.261  14.719   4.274
 9584W        W76652  20.725  44.964  12.017
 9585W        W76653  23.617  32.082   0.735
 9586W        W76654   7.310   9.842  10.596
 9587W        W76655   4.744  19.078   9.946
 9588W        W76656   6.342  16.591   4.225
 9589W        W76657   8.175  32.596   1.275
 9590W        W76658  30.938  26.550   0.364
 9591W        W76659  27.520  36.092  13.523
 9592W        W76660   3.881  33.918  12.917
 9593W        W76661  39.542  21.537   3.382
 9594W        W76662  10.695   9.874  13.063
 9595W        W76663   4.705  42.844  10.035
 9596W        W76664  11.820  37.339  11.474
 9597W        W76665  23.674  41.839  11.536
 9598W        W76666  37.567  25.213   1.356
 9599W        W76667  40.346  35.860   4.684
 9600W        W76668   8.243   2.798  13.827
 9601W        W76669   3.424   5.764  11.940
 9602W        W76670   2.903   2.408   1.222
 9603W        W76671  15.624  36.496   2.231
 9604W        W76672   4.801  16.581  14.009
 9605W        W76673  21.110  20.616  10.990
 9606W        W76674  24.087  19.657   0.901
 9607W        W76675  24.123  32.404   1.889
 9608W        W76676   8.259  17.703   0.266
 9609W        W76677   2.456   6.414   0.823
 9610W        W76678  37.445  14.599   2.187
 9611W        W76679  26.525  16.148   4.666
 9612W        W76680  26.082  10.673   1.878
 9613W        W76681  29.928   3.921   0.257
 9614W        W76682  26.486  37.839  13.924
 9615W        W76683   8.275  40.381   0.819
 9616W        W76684  40.392   2.393  13.522
 9617W        W76685  42.425  12.651  13.333
 9618W        W76686  19.212  38.330  10.524
 9619W        W76687   3.833  36.537  12.396
 9620W        W76688   6.314  41.943   0.288
 9621W        W76689  28.681   8.394  10.434
 9622W        W76690  16.149  10.153   0.446
 9623W        W76691  12.252  23.991  14.813
 9624W        W76692  29.589  28.502  10.599
 9625W        W76693  32.005   1.322  14.898
 9626W        W76694  34.959  12.779   0.754
 9627W        W76695  27.999  13.751  10.039
 9628W        W76696  27.979  21.171   5.154
 9629W        W76697   7.857   3.335   5.298
 9630W        W76698  43.366  19.553   3.342
 9631W        W76699  16.119  19.711  11.496
 9632W        W76700  25.656  31.044   3.636
 9633W        W76701  10.878  42.776   9.972
 9634W        W76702  42.514  18.061  10.522
 9635W        W76703  26.206  44.778  13.512
 9636W        W76704   1.850  21.739  10.470
 9637W        W76705  18.230  35.040   0.432
 9638W        W76706  31.100   3.851   0.470
 9639W        W76707  26.078   8.323   3.863
 9640W        W76708   2.295   5.701  13.399
 9641W        W76709  36.050  30.422  10.997
 9642W        W76710  15.596  23.728  13.802
 9643W        W76711   2.811  23.179   2.706
 9644W        W76712  33.015  36.881  11.512
 9645W        W76713   1.863  18.175  11.094
 9646W        W76714  11.849  37.891  11.893
 9647W        W76715  37.934  20.657   0.328
 9648W        W76716  28.178  34.981   2.314
 9649W        W76717   2.424  39.531   3.840
 9650W        W76718  32.499  30.943   2.368
 9651W        W76719  28.469  16.762  13.446
 9652W        W76720  28.483  30.960   0.474
 9653W        W76721  27.125  27.483  14.964
 9654W        W76722   0.248  25.699  11.112
 9655W        W76723  37.488  16.700  12.010
 9656W        W76724  36.382   4.432  10.470
 9657W        W76725  19.215  34.604  14.013
 9658W        W76726  42.940  13.676   2.230
 9659W        W76727  35.396   4.806   4.262
 9660W        W76728  26.166  12.348   1.763
 9661W        W76729  26.197  29.991  11.491
 9662W        W76730  29.598  35.098   2.361
 9663W        W76731  20.764  31.150  12.993
 9664W        W76732  38.448  26.506  12.500
 9665W        W76733  44.946  39.433  11.908
 9666W        W76734  32.915  23.536   4.599
 9667W        W76735   6.383   3.920   0.913
 9668W        W76736  13.812  28.157  12.477
 9669W        W76737   1.478  30.647  13.875
 9670W        W76738  37.426  10.871   3.692
 9671W        W76739  11.275  32.894   3.693
 9672W        W76740   7.820  35.951   4.207
 9673W        W76741  24.480   9.830  12.485
 9674W        W76742  22.625  39.991  14.887
 9675W        W76743  15.230  43.973  10.907
 9676W        W76744  15.789  10.218   1.300
 9677W        W76745  33.927  35.960  13.063
 9678W        W76746  20.127  39.504  13.414
 9679W        W76747  38.356   7.773   2.356
 9680W        W76748  12.643  18.133   0.413
 9681W        W76749  10.857   6.267   4.132
 9682W        W76750  10.703  42.317  14.943
 9683W        W76751  34.955  21.621   1.921
 9684W        W76752  32.600  14.638  12.955
 9685W        W76753  29.159  43.919   1.725
 9686W        W76754  17.296  40.519   5.162
 9687W        W76755   4.773  32.072   1.933
 9688W        W76756  32.546  13.647  12.433
 9689W        W76757  31.968  24.086   2.671
 9690W        W76758   9.164   9.846  11.604
 9691W        W76759  35.436  33.916  12.418
 9692W        W76760  34.392  31.055  10.997
 9693W        W76761  37.006   6.712   3.729
 9694W        W76762  43.310  35.509   2.396
 9695W        W76763  24.029  25.495   3.213
 9696W        W76764  14.183  16.596  10.503
 9697W        W76765  21.523  16.569   3.813
 9698W        W76766  25.032  13.211  11.419
 9699W        W76767  26.171  31.630   4.330
 9700W        W76768  28.111  39.560   4.140
 9701W        W76769  13.844  41.506   0.433
 9702W        W76770  20.760  35.576  14.438
 9703W        W76771  21.171   9.833  14.028
 9704W        W76772  16.080  20.678   0.281
 9705W        W76773  18.725   2.963  14.495
 9706W        W76774  28.048  10.366  14.830
 9707W        W76775  14.655  17.711  12.945
 9708W        W76776   4.898  10.357   0.925
 9709W        W76777  36.393  36.999  10.585
 9710W        W76778  29.456   3.955  14.410
 9711W        W76779  25.138  15.314  13.930
 9712W        W76780  28.469  22.596  10.485
 9713W        W76781  23.705  23.168   1.251
 9714W        W76782  34.586  27.016  13.520
 9715W        W76783  26.085  40.446   2.877
 9716W        W76784  20.119   4.929  14.789
 9717W        W76785  44.495  43.861  10.558
 9718W        W76786  12.306  33.557  14.471
 9719W        W76787  20.555  31.581   2.303
 9720W        W76788   5.840   4.800  13.907
 9721W        W76789  37.991   2.851  10.921
 9722W        W76790   6.322  43.776   2.827
 9723W        W76791   0.759  11.267   1.247
 9724W        W76792  17.786  44.399  12.374
 9725W        W76793  12.130   6.291   3.375
 9726W        W76794  13.318   6.323  13.795
 9727W        W76795  27.668  27.179  12.900
 9728W        W76796  24.588  14.744   4.294
 9729W        W76797  39.834  26.651  14.899
 9730W        W76798  37.976   5.826  12.516
 9731W        W76799  18.747  10.832  13.461
 9732W        W76800  24.120  17.260  12.485
 9733W        W76801  17.204  34.023   3.687
 9734W        W76802  13.689  32.937   2.687
 9735W        W76803  33.016  19.212   3.174
 9736W        W76804  38.941  30.978  12.078
 9737W        W76805  43.379  17.672  13.801
 9738W        W76806  18.138  17.767   2.801
 9739W        W76807  28.043   3.369   2.221
 9740W        W76808  20.658  28.458  11.558
 9741W        W76809  32.587   5.287   0.790
 9742W        W76810  34.499  13.656  14.860
 9743W        W76811  13.258  34.052  14.347
 9744W        W76812  30.564  28.938   0.383
 9745W        W76813  35.914  28.471   1.247
 9746W        W76814  26.631  38.022  11.491
 9747W        W76815  43.924  22.024  12.444
 9748W        W76816   8.230  15.222  12.960
 9749W        W76817   5.280  39.053  13.900
 9750W        W76818  10.665  22.658  12.065
 9751W        W76819   0.791  23.985   3.725
 9752W        W76820  11.273   4.873   3.771
 9753W        W76821  22.555  20.668  14.397
 9754W        W76822  35.498  22.724  11.537
 9755W        W76823  22.099  18.788  11.526
 9756W        W76824  28.477  19.700   0.883
 9757W        W76825  38.366  25.519  12.052
 9758W        W76826  20.262  25.978   1.359
 9759W        W76827  13.673   4.420  11.898
 9760W        W76828  33.435  16.629   4.159
 9761W        W76829   2.814  14.798   0.953
 9762W        W76830  22.247  29.081   1.801
 9763W        W76831  43.844   3.228  12.861
 9764W        W76832   3.283   9.787  13.390
 9765W        W76833  25.714   8.893  11.579
 9766W        W76834  27.642  30.972   2.315
 9767W        W76835  36.518   7.271   0.737
 9768W        W76836  26.595   7.313   1.282
 9769W        W76837  34.400  40.525   3.251
 9770W        W76838  40.417  28.591  12.510
 9771W        W76839  32.467  29.668  13.533
 9772W        W76840   3.952   7.907   0.965
 9773W        W76841  42.982   0.435   3.811
 9774W        W76842  37.408  28.058  13.056
 9775W        W76843  30.438  14.661   1.846
 9776W        W76844  38.844  38.533   2.263
 9777W        W76845  12.237   1.378  12.079
 9778W        W76846  36.494  32.464   0.853
 9779W        W76847  31.440  23.706  13.042
 9780W        W76848  26.668  16.608  12.457
 9781W        W76849   5.205   1.351   2.849
 9782W        W76850   1.453  15.220   3.210
 9783W        W76851   9.682  43.816   4.208
 9784W        W76852  25.196   1.754   0.753
 9785W        W76853  22.587  28.991   1.243
 9786W        W76854  27.034  44.879  13.818
 9787W        W76855  40.364  27.489  12.539
 9788W        W76856  19.661  19.266   1.228
 9789W        W76857  20.105   1.859   1.814
 9790W        W76858  26.490   1.863  11.541
 9791W        W76859  40.413   5.221   3.735
 9792W        W76860   2.870   2.915  14.031
 9793W        W76861   5.761   3.817  11.881
 9794W        W76862  33.961   6.714  13.964
 9795W        W76863  39.904  16.137   4.179
 9796W        W76864   3.859  16.292   3.318
 9797W        W76865  32.398  15.659   2.884
 9798W        W76866  29.010  20.578  14.407
 9799W        W76867   7.693  10.266  10.452
 9800W        W76868  11.844  37.578   4.314
 9801W        W76869  39.452   3.233  13.514
 9802W        W76870   7.335   3.230  13.021
 9803W        W76871  32.607  17.638  12.022
 9804W        W76872   2.884  30.424   4.688
 9805W        W76873  28.666  35.478   4.311
 9806W        W76874  26.543  16.794  10.993
 9807W        W76875  33.060  13.316   1.290
 9808W        W76876  26.615  31.496  10.516
 9809W        W76877  26.569  14.719   3.295
 9810W        W76878  10.691   2.796  14.849
 9811W        W76879  16.604  28.592   1.257
 9812W        W76880   5.767   7.271  12.440
 9813W        W76881  22.595  41.319  11.122
 9814W        W76882   4.277  22.531  13.400
 9815W        W76883  39.462  40.936   4.298
 9816W        W76884  33.579  44.934  14.435
 9817W        W76885  30.545   3.828  11.086
 9818W        W76886  32.437  25.970   2.204
 9819W        W76887  38.420  10.794  12.873
 9820W        W76888  27.145  22.212  14.828
 9821W        W76889  16.177  16.166  12.870
 9822W        W76890  14.197  41.856  10.585
 9823W        W76891   7.813  19.750   3.646
 9824W        W76892   8.775   3.844   4.749
 9825W        W76893   9.184   9.753   0.298
 9826W        W76894   7.767  17.722  12.901
 9827W        W76895   1.800  29.539  12.828
 9828W        W76896  18.126  22.025  11.545
 9829W        W76897  26.959   8.333   3.294
 9830W        W76898  35.078   0.478   0.808
 9831W        W76899  43.498   9.809   3.173
 9832W        W76900   6.773  33.999   4.189
 9833W        W76901  20.648  29.993   0.779
 9834W        W76902  25.058   7.761  11.413
 9835W        W76903  23.532  10.741  10.537
 9836W        W76904  18.625   8.864  11.087
 9837W        W76905  32.592  40.477   3.862
 9838W        W76906  15.182  30.108  14.368
 9839W        W76907  22.056  32.476  13.324
 9840W        W76908  19.123   0.905  12.536
 9841W        W76909  20.554  10.160  12.980
 9842W        W76910  27.488  22.235  12.380
 9843W        W76911   0.795   2.742  11.553
 9844W        W76912   7.415   7.779   0.743
 9845W        W76913  16.084  43.396  14.918
 9846W        W76914  24.215  32.956  11.413
 9847W        W76915  24.162  15.659   5.223
 9848W        W76916   3.816   5.345   2.399
 9849W        W76917   2.443   1.440   0.934
 9850W        W76918   2.785  27.035   3.849
 9851W        W76919  37.970   9.704  13.371
 9852W        W76920  23.689  14.773   3.347
 9853W        W76921  25.971  30.460   2.230
 9854W        W76922   9.334   2.867  11.474
 9855W        W76923  43.345  34.895  11.085
 9856W        W76924  42.509  32.054  10.531
 9857W        W76925  38.563  11.742  12.826
 9858W        W76926  38.888   6.232   0.442
 9859W        W76927  40.399  21.210   1.320
 9860W        W76928  40.879  37.939   4.329
 9861W        W76929  33.410  35.991  13.032
 9862W        W76930  43.437  16.111  11.382
 9863W        W76931   5.865  38.931  11.857
 9864W        W76932  40.043  39.016  10.592
 9865W        W76933  26.968  29.568  13.991
 9866W        W76934  17.764  37.052   3.302
 9867W        W76935  23.154  44.892  11.875
 9868W        W76936  23.723  34.059   2.256
 9869W        W76937  15.649  25.169   3.794
 9870W        W76938  23.217   4.765   2.748
 9871W        W76939  28.082  31.579  12.035
 9872W        W76940  43.923  12.323   3.272
 9873W        W76941  40.418  33.386   2.684
 9874W        W76942   0.401  35.043  11.026
 9875W        W76943   2.436  19.213  13.830
 9876W        W76944  38.462  23.174   2.185
 9877W        W76945  36.888  20.072   0.399
 9878W        W76946   6.358  39.389   2.737
 9879W        W76947   4.858  13.690   1.924
 9880W        W76948  33.512  26.660  14.503
 9881W        W76949  44.496   6.189   1.915
 9882W        W76950  33.048  18.250   0.409
 9883W        W76951  23.644   8.205   1.929
 9884W        W76952  27.046   4.700  12.083
 9885W        W76953  40.388  14.740   2.843
 9886W        W76954  32.970  23.682  13.433
 9887W        W76955  33.902  25.518  12.980
 9888W        W76956  41.420   9.379   1.372
 9889W        W76957  10.680  35.861  13.984
 9890W        W76958  17.668  30.107   2.820
 9891W        W76959  15.774  30.057   1.708
 9892W        W76960  27.048  19.778   3.771
 9893W        W76961  43.435  16.700  13.004
 9894W        W76962   8.699  13.207   4.636
 9895W        W76963  39.392  38.984   4.297
 9896W        W76964  14.288   1.929  13.921
 9897W        W76965   1.426  36.528  10.111
 9898W        W76966  31.119  32.480   5.180
 9899W        W76967  30.127   9.301  12.061
 9900W        W76968   0.939  20.105   4.665
 9901W        W76969  27.500   6.245   1.800
 9902W        W76970  29.587  22.029  13.358
 9903W        W76971  22.723   1.760  13.373
 9904W        W76972  24.991  40.896  12.921
 9905W        W76973  18.228  41.330   4.349
 9906W        W76974  16.188  38.410   4.223
 9907W        W76975   2.293  15.145   4.346
 9908W        W76976  37.049  17.672  12.014
 9909W        W76977  22.744  14.775  10.493
 9910W        W76978  17.561  28.477   1.736
 9911W        W76979  38.383  11.372  11.858
 9912W        W76980  33.593  33.093   1.889
 9913W        W76981  36.565  28.936   0.800
 9914W        W76982  26.576  44.767  12.877
 9915W        W76983  43.416   5.333  13.815
 9916W        W76984   9.248  14.677   1.845
 9917W        W76985  22.108  15.670   2.178
 9918W        W76986  10.310  31.030   2.718
 9919W        W76987   0.308  13.618   0.896
 9920W        W76988  39.971  44.797  11.515
 9921W        W76989  11.138   2.740   2.180
 9922W        W76990  15.295  37.841   0.278
 9923W        W76991  28.994   2.724   3.741
 9924W        W76992   1.263  36.952  14.020
 9925W        W76993  12.338  11.783   1.260
 9926W        W76994  31.948  37.902  14.846
 9927W        W76995   3.836  29.454  10.598
 9928W        W76996  12.334  35.040   4.738
 9929W        W76997  38.446  24.015  14.497
 9930W        W76998  13.167   9.863   4.751
 9931W        W76999   7.291  22.654   2.393
 9932W        W77000  40.433  33.622  12.485
 9933W        W77001  16.690  16.599   1.736
 9934W        W77002  27.527   0.337  14.894
 9935W        W77003  31.440  23.657  10.043
 9936W        W77004  34.393   2.249   3.699
 9937W        W77005  21.675  43.460  13.522
 9938W        W77006   6.409  14.768   2.829
 9939W        W77007  34.489  11.206  12.385
 9940W        W77008  27.962  36.962  14.932
 9941W        W77009  34.045  21.697   4.212
 9942W        W77010  10.872  23.150   3.847
 9943W        W77011  37.055  16.803   0.478
 9944W        W77012  20.545  18.716   3.158
 9945W        W77013   3.366  39.913  14.475
 9946W        W77014  17.797  16.696   3.786
 9947W        W77015  12.229  31.599   3.323
 9948W        W77016  15.121  32.121   3.207
 9949W        W77017  13.761   1.977   2.399
 9950W        W77018  18.141  18.283  14.410
 9951W        W77019   4.379   9.148  10.468
 9952W        W77020  29.146  37.838   1.370
 9953W        W77021  38.433  17.269  13.516
 9954W        W77022  39.371  24.713  12.052
 9955W        W77023  29.462  25.580   1.369
 9956W        W77024  14.199  23.592   0.917
 9957W        W77025  11.833   7.376  11.601
 9958W        W77026  43.776  38.483  12.074
 9959W        W77027  17.142  17.282   0.435
 9960W        W77028  42.810  22.743  11.069
 9961W        W77029  31.971  25.496   3.833
 9962W        W77030  17.108   5.356   4.806
 9963W        W77031  21.621  32.075  14.762
 9964W        W77032  40.826   1.788  11.030
 9965W        W77033  14.732   7.306  11.485
 9966W        W77034  37.894  21.235   3.231
 9967W        W77035  29.474  24.004  13.440
 9968W        W77036  12.668  15.271  10.620
 9969W        W77037  18.580  21.719  13.847
 9970W        W77038  23.557  34.564   4.683
 9971W        W77039   4.293  31.902   2.752
 9972W        W77040   2.723  42.466  14.984
 9973W        W77041  38.348  24.064   2.899
 9974W        W77042  38.828  18.564  12.564
 9975W        W77043   8.680  27.610  13.837
 9976W        W77044   8.708  41.379   3.791
 9977W        W77045  40.982  17.731  10.438
 9978W        W77046  28.653  29.014  13.859
 9979W        W77047   6.209  24.172   4.828
 9980W        W77048  14.235  20.765  14.015
 9981W        W77049  38.495  37.976  12.887
 9982W        W77050  19.597  15.121   0.824
 9983W        W77051  31.505  39.924  10.447
 9984W        W77052  11.208  23.140  13.875
 9985W        W77053   4.805  22.173   1.229
 9986W        W77054  19.602  29.107  14.434
 9987W        W77055   0.962  13.232   4.732
 9988W        W77056   3.954   1.405   0.305
 9989W        W77057  27.090   3.902  10.583
 9990W        W77058  13.704  34.405  14.309
 9991W        W77059  16.086  36.071   0.953
 9992W        W77060  36.856  42.909  12.904
 9993W        W77061  31.106  18.555  12.521
 9994W        W77062  13.661  42.888  12.947
 9995W        W77063  42.417   0.461   0.251
 9996W        W77064  24.493  12.705   3.266
 9997W        W77065  11.681   9.727   3.340
 9998W        W77066  40.409  26.602   3.209
 9999W        W77067  31.129  32.971  14.379
10000W        W77068  34.480  41.362   1.430
10001W        W77069  38.368   8.347  14.900
10002W        W77070   0.815   9.376   2.356
10003W        W77071  42.879  39.486   1.933
10004W        W77072  23.688  11.149   3.226
10005W        W77073  14.588  25.677  14.369
10006W        W77074   3.405  37.409  12.898
10007W        W77075  30.601  21.636   0.367
10008W        W77076  41.830   6.859   3.740
10009W        W77077   1.380  23.066  14.480
10010W        W77078  41.933  40.439  10.964
10011W        W77079   2.357   6.264  12.860
10012W        W77080  17.235   3.409  11.034
10013W        W77081  25.187  37.919   0.934
10014W        W77082  15.652   8.886   0.729
10015W        W77083  14.256   2.384  13.869
10016W        W77084  32.889  33.401   2.903
10017W        W77085  31.553  34.089   4.342
10018W        W77086  12.157  43.858   5.252
10019W        W77087  30.139  34.551  12.993
10020W        W77088  43.283  31.035   2.282
10021W        W77089   5.747   6.224   4.802
10022W        W77090  30.149  27.601  14.364
10023W        W77091  13.158   5.778  10.943
10024W        W77092  33.530  18.777   3.263
10025W        W77093  12.152  11.794  14.990
10026W        W77094  17.134  37.465   3.783
10027W        W77095  26.587  27.635   0.727
10028W        W77096  14.699  34.488   0.347
10029W        W77097  38.005  13.742   1.434
10030W        W77098  32.578  33.886  12.579
10031W        W77099  29.628  22.214  12.867
10032W        W77100  34.926  32.973  13.007
10033W        W77101  37.914  43.490   1.312
10034W        W77102  34.539   2.279   0.269
10035W        W77103  33.527  36.411  10.442
10036W        W77104  34.915   5.839   0.899
10037W        W77105  24.994  33.459  11.094
10038W        W77106  38.476  12.612  11.496
10039W        W77107  10.343  32.419   0.801
10040W        W77108   2.249  37.494  13.963
10041W        W77109  24.013  43.436   0.892
10042W        W77110  14.139  21.662  12.539
10043W        W77111   1.378   4.799  14.408
10044W        W77112  41.931   8.236   1.320
10045W        W77113  10.342   2.760   1.889
10046W        W77114  39.320  14.244  11.955
10047W        W77115  26.117   8.331   4.216
10048W        W77116  18.117  38.916  10.915
10049W        W77117  44.290   3.758   0.781
10050W        W77118   9.257   2.802   0.281
10051W        W77119  12.360   1.769   3.822
10052W        W77120  31.010  16.610  11.415
10053W        W77121  23.138  30.534   2.779
10054W        W77122  36.377  38.010   3.740
10055W        W77123  32.546  41.873  14.779
10056W        W77124  38.407   7.306  14.321
10057W        W77125  21.512  43.924   3.763
10058W        W77126  42.902  10.813   3.666
10059W        W77127  13.747  22.572   4.812
10060W        W77128  44.856  41.904   4.798
10061W        W77129  11.767  28.437   3.171
10062W        W77130  37.047  31.968  14.425
10063W        W77131  12.790  13.663  10.569
10064W        W77132   2.471  17.175   0.321
10065W        W77133   1.472   1.477  11.948
10066W        W77134  13.349  22.211  12.859
10067W        W77135  20.175   8.263   4.133
10068W        W77136   9.646  24.981   4.191
10069W        W77137  21.210  15.188  13.895
10070W        W77138  33.108  24.493   3.291
10071W        W77139  18.734  20.648   3.345
10072W        W77140  28.612   3.443   0.844
10073W        W77141  11.680  21.087   2.773
10074W        W77142  39.037  19.639  10.543
10075W        W77143   1.320  27.031  11.069
10076W        W77144  25.530  25.048  13.501
10077W        W77145  24.663  38.488   1.315
10078W        W77146  19.554   8.184  11.983
10079W        W77147  30.535  38.515  11.089
10080W        W77148  42.431  31.508   4.681
10081W        W77149  10.254  32.477   4.153
10082W        W77150   3.419   6.692  12.932
10083W        W77151  24.486  14.593   0.947
10084W        W77152  37.582  39.048   3.383
10085W        W77153   1.438   1.959   2.227
10086W        W77154  30.975  42.892   4.654
10087W        W77155  32.061   3.255   3.742
10088W        W77156  19.562  25.118  11.556
10089W        W77157  43.018  29.935   2.888
10090W        W77158   0.256   8.671  10.892
10091W        W77159  41.872  25.659   3.699
10092W        W77160  42.396  36.418   0.274
10093W        W77161  25.575   0.819  13.864
10094W        W77162  23.153  37.338  10.923
10095W        W77163  41.972  16.595   2.408
10096W        W77164   0.785  34.892   5.797
10097W        W77165  34.568   3.307  13.918
10098W        W77166  32.408  17.699   1.900
10099W        W77167  29.093   9.707   3.865
10100W        W77168  40.476  25.215   1.741
10101W        W77169  31.426  14.107  14.787
10102W        W77170  20.150   8.359   0.375
10103W        W77171  26.958  17.206   2.192
10104W        W77172   1.767  30.449   0.266
10105W        W77173  16.752  25.186   2.670
10106W        W77174  30.426   2.270   4.688
10107W        W77175  12.639  31.919   2.870
10108W        W77176  13.122   2.299   4.834
10109W        W77177  33.937  41.945  14.387
10110W        W77178   4.762   8.326   2.328
10111W        W77179   2.389  42.867   1.413
10112W        W77180   4.399  30.967  10.983
10113W        W77181   5.848  32.466   3.305
10114W        W77182   6.408  19.755   4.651
10115W        W77183  21.141  44.386   2.903
10116W        W77184  17.284  36.064   4.761
10117W        W77185  39.814  39.358  14.355
10118W        W77186  21.043  33.120   1.802
10119W        W77187  17.571  20.086   0.891
10120W        W77188   7.391  39.815   0.424
10121W        W77189  30.976  41.987  13.449
10122W        W77190  43.796  43.324  13.974
10123W        W77191  29.017   8.269  14.005
10124W        W77192  16.589  20.052  13.510
10125W        W77193  34.577  14.593  14.410
10126W        W77194   7.802   7.203   3.680
10127W        W77195  32.626  41.789   0.958
10128W        W77196   7.725  43.810   2.291
10129W        W77197  36.553  18.639   3.225
10130W        W77198  40.327  39.918   4.207
10131W        W77199  19.619  19.648   5.250
10132W        W77200   0.456  27.114   0.313
10133W        W77201  21.213   5.228  12.875
10134W        W77202   3.786  13.123   4.738
10135W        W77203  19.742   1.428  12.944
10136W        W77204   7.382  20.750   1.711
10137W        W77205  24.578  40.315  12.926
10138W        W77206  40.448  28.036  14.440
10139W        W77207  14.667   7.204   1.761
10140W        W77208  20.725  37.971   5.773
10141W        W77209  32.436  30.016  14.411
10142W        W77210  38.060   4.207  10.524
10143W        W77211  16.165   3.864   2.417
10144W        W77212  15.269  17.194   4.614
10145W        W77213  33.886  30.551  10.428
10146W        W77214   2.954  19.267   2.834
10147W        W77215   8.778  37.401   5.188
10148W        W77216  44.502  36.411  10.546
10149W        W77217  37.083  30.932   2.391
10150W        W77218  25.047  35.988  12.430
10151W        W77219  44.819  44.369   0.300
10152W        W77220  44.473  16.115  10.937
10153W        W77221  39.064  22.020  10.557
10154W        W77222  21.234  30.928   5.172
10155W        W77223  11.755  12.636  14.895
10156W        W77224   3.829  30.504  12.466
10157W        W77225  42.478  21.709   0.382
10158W        W77226  18.626  22.616   0.916
10159W        W77227   6.322  18.058   1.859
10160W        W77228   0.916  20.619   1.393
10161W        W77229   4.752   2.725   0.832
10162W        W77230  28.483  44.484   1.238
10163W        W77231  13.133   0.387  10.579
10164W        W77232   2.857   0.415   3.311
10165W        W77233  14.119  13.679   0.858
10166W        W77234  18.786   9.243   1.898
10167W        W77235  11.722   5.710   3.821
10168W        W77236  38.463   5.862   4.317
10169W        W77237   7.705  38.048   0.919
10170W        W77238  19.657  21.637  14.885
10171W        W77239  25.675  35.454  10.619
10172W        W77240  13.724  26.530  14.843
10173W        W77241  35.062  32.485  14.866
10174W        W77242  15.112  37.879  12.977
10175W        W77243   0.270  13.788  11.959
10176W        W77244  41.857  16.607   3.694
10177W        W77245  37.955  29.137  14.333
10178W        W77246  24.530  42.936   0.767
10179W        W77247  39.011  41.511  10.526
10180W        W77248  38.040   0.275   4.115
10181W        W77249  23.717  42.817  10.612
10182W        W77250  37.518  25.095   4.311
10183W        W77251  39.315  11.297  11.910
10184W        W77252   3.236  21.214   0.742
10185W        W77253   0.976  32.995   2.413
10186W        W77254  25.006   2.277   2.242
10187W        W77255  25.095  37.875   4.353
10188W        W77256  28.969  32.038  10.490
10189W        W77257  23.023  16.314   4.758
10190W        W77258  37.887   6.282   4.288
10191W        W77259  25.166   4.298  14.380
10192W        W77260   7.325  24.550   4.833
10193W        W77261  41.493  26.543  12.442
10194W        W77262  37.380  28.460  12.887
10195W        W77263  18.629  41.847   3.298
10196W        W77264  22.738   3.309   2.666
10197W        W77265  33.453  19.052  12.058
10198W        W77266   2.325  27.003  14.474
10199W        W77267   5.922   8.200   0.755
10200W        W77268  17.187  11.292   4.704
10201W        W77269  14.312  19.252   4.618
10202W        W77270  29.438  30.427   5.244
10203W        W77271  35.586   6.923   2.304
10204W        W77272  43.948  12.724  12.470
10205W        W77273  10.681  12.656   0.305
10206W        W77274   3.889   8.842  13.420
10207W        W77275  32.064  20.668   0.283
10208W        W77276   3.881  35.410   3.676
10209W        W77277  32.133  39.523   1.264
10210W        W77278  12.740  24.652   3.682
10211W        W77279  37.081   6.189  13.028
10212W        W77280   9.336   9.826   4.647
10213W        W77281   9.685  38.454   4.822
10214W        W77282  35.995  34.416  13.364
10215W        W77283  43.854  24.506  14.891
10216W        W77284  13.343  13.706   0.796
10217W        W77285  33.554   3.378   1.317
10218W        W77286  41.891  31.425   0.275
10219W        W77287   2.464  36.998   2.381
10220W        W77288  40.508  17.090  11.428
10221W        W77289   4.239  24.585   2.734
10222W        W77290  23.602  35.986   1.258
10223W        W77291  43.925  24.530  14.311
10224W        W77292  19.542   2.306   3.244
10225W        W77293  43.282  18.052   0.903
10226W        W77294   8.257  19.057  14.876
10227W        W77295   1.758  12.628   4.271
10228W        W77296  17.283  25.054  13.385
10229W        W77297  15.697  41.482   2.187
10230W        W77298   8.308  36.353  14.314
10231W        W77299  24.563   7.278   2.776
10232W        W77300   6.698   4.929  13.407
10233W        W77301  13.255  24.181   4.835
10234W        W77302  38.895  25.593  12.361
10235W        W77303  36.533  40.963  12.414
10236W        W77304  26.672  34.892  14.503
10237W        W77305  14.750   0.272  11.881
10238W        W77306  35.857  41.830   2.738
10239W        W77307  43.269  11.249  12.534
10240W        W77308  15.607  11.308   4.157
10241W        W77309  20.103  43.920  11.562
10242W        W77310   2.370  25.663   2.782
10243W        W77311  26.998  10.208   1.788
10244W        W77312  38.060  10.792   1.778
10245W        W77313  11.657  32.448   4.115
10246W        W77314  32.039  26.558  14.985
10247W        W77315  14.303  15.185   4.820
10248W        W77316  32.938  38.421  11.483
10249W        W77317  28.042  42.298  11.116
10250W        W77318  40.394  41.858  12.542
10251W        W77319  18.168  27.500   5.187
10252W        W77320  14.759  35.950  14.790
10253W        W77321  14.732   5.280  12.470
10254W        W77322  43.448  13.817  14.914
10255W        W77323  20.564  40.925  13.898
10256W        W77324  23.200  39.463  13.943
10257W        W77325   9.319   5.739  11.090
10258W        W77326  24.495  27.664  11.085
10259W        W77327  17.128  44.880   0.426
10260W        W77328  11.706  27.561   0.870
10261W        W77329  43.902  42.893  14.819
10262W        W77330   3.863  29.650   2.667
10263W        W77331  38.826   3.266  13.813
10264W        W77332   0.984  19.768  12.403
10265W        W77333  21.698  43.429   1.903
10266W        W77334  14.766  37.485  11.505
10267W        W77335  37.454  26.703  11.483
10268W        W77336  11.180  36.916   2.180
10269W        W77337  13.727  20.132  11.515
10270W        W77338  25.218  31.131   2.376
10271W        W77339  39.826  38.943   2.263
10272W        W77340  35.565  21.690   0.934
10273W        W77341  26.034  22.201   1.403
10274W        W77342  19.122  17.615   4.658
10275W        W77343  23.625  44.945   1.759
10276W        W77344  11.672   7.292  10.411
10277W        W77345  30.143  44.961   3.654
10278W        W77346  15.084  29.164   0.352
10279W        W77347  33.943  38.365  11.877
10280W        W77348  12.135   1.248  10.109
10281W        W77349  32.571  25.603   1.776
10282W        W77350  28.511  36.854   3.867
10283W        W77351  32.077   5.376  10.603
10284W        W77352  24.014  30.643  13.468
10285W        W77353   4.709  34.579  14.368
10286W        W77354  17.281  23.237  14.988
10287W        W77355  23.617   8.767   3.366
10288W        W77356  40.000  23.044  14.933
10289W        W77357   1.943  19.284  12.050
10290W        W77358  27.648   4.229   0.369
10291W        W77359   8.809  11.167  12.077
10292W        W77360   0.431  23.681   2.374
10293W        W77361  40.453  15.113  11.925
10294W        W77362  10.213  18.607  11.901
10295W        W77363  21.225  13.705   1.252
10296W        W77364  12.732  26.616  10.473
10297W        W77365  12.337  35.372  11.870
10298W        W77366  39.390  41.842  11.379
10299W        W77367   1.416   3.284   0.943
10300W        W77368  10.650  17.165  13.911
10301W        W77369  40.385  17.754   2.877
10302W        W77370  42.330  24.019  10.949
10303W        W77371  26.570   6.897  13.990
10304W        W77372   6.840  35.550  13.532
10305W        W77373  15.658  16.312   0.343
10306W        W77374  31.551  17.741   0.320
10307W        W77375  15.767  43.273   1.894
10308W        W77376  37.024  36.438   0.863
10309W        W77377  44.273  42.349   2.246
10310W        W77378   4.875   9.354   0.450
10311W        W77379  10.641   8.269   4.718
10312W        W77380  28.943  16.200   0.956
10313W        W77381  44.493  10.649   1.899
10314W        W77382  37.415  33.449   4.263
10315W        W77383  41.474  17.220   0.770
10316W        W77384   7.250  32.981  13.490
10317W        W77385  31.492   7.178   0.377
10318W        W77386  23.721  19.676   0.387
10319W        W77387  13.658  34.080   0.957
10320W        W77388  11.837  14.169  12.490
10321W        W77389  32.622  13.231   3.695
10322W        W77390  18.080   0.368  12.909
10323W        W77391  13.605  35.040  13.338
10324W        W77392   6.808  43.507  12.930
10325W        W77393   9.782  18.706   2.388
10326W        W77394  28.650  20.050  14.950
10327W        W77395  14.180   7.809   4.163
10328W        W77396  14.607  36.929   0.896
10329W        W77397  14.241  11.785  11.498
10330W        W77398  27.643  21.044   3.357
10331W        W77399  40.055   9.707  10.971
10332W        W77400  21.699  27.493   4.162
10333W        W77401  40.545   4.343  13.852
10334W        W77402   2.863  20.632  14.015
10335W        W77403  14.704  21.707  14.803
10336W        W77404  19.091   4.278  13.985
10337W        W77405   0.768  38.447   1.762
10338W        W77406  43.455  43.508   2.782
10339W        W77407  39.406  19.227  14.482
10340W        W77408  30.949   1.445  14.783
10341W        W77409  34.412  31.122  10.618
10342W        W77410  20.533  17.555   3.852
10343W        W77411  18.720  36.593  11.092
10344W        W77412  26.569  36.421  14.028
10345W        W77413  32.539  33.427   4.289
10346W        W77414  10.239   2.272   3.297
10347W        W77415  44.880   3.822  11.020
10348W        W77416   1.905  41.834   4.184
10349W        W77417  43.915  40.865  13.537
10350W        W77418  40.513  12.221  13.914
10351W        W77419  34.960   7.872   4.188
10352W        W77420  29.926  18.635   3.681
10353W        W77421  23.015   5.410   0.312
10354W        W77422   2.864   0.262  13.861
10355W        W77423   8.393  25.636   0.302
10356W        W77424  33.487  19.634  12.947
10357W        W77425  41.426  34.063   2.314
10358W        W77426  11.859   4.214  12.987
10359W        W77427   3.732  41.998  11.500
10360W        W77428  19.736  25.481   1.242
10361W        W77429   6.269  30.084  11.859
10362W        W77430  23.529   7.893   3.848
10363W        W77431  25.028  16.116   4.125
10364W        W77432  24.608   2.340  13.007
10365W        W77433  16.193   0.885   2.298
10366W        W77434  20.226  27.184   3.687
10367W        W77435  32.975  31.105  14.997
10368W        W77436  38.921   7.275   1.450
10369W        W77437  42.497  12.360   2.866
10370W        W77438  34.558  19.181  10.994
10371W        W77439  13.749   8.249  14.874
10372W        W77440  25.629  30.549   0.879
10373W        W77441  17.761  30.460  10.961
10374W        W77442  24.205  40.979  12.867
10375W        W77443  25.088  16.798  12.396
10376W        W77444  41.320  11.353   2.230
10377W        W77445  10.651  13.197  14.463
10378W        W77446  15.807  12.650  14.974
10379W        W77447  33.432  18.130   1.254
10380W        W77448  26.113   0.855   3.780
10381W        W77449  23.534  25.029   1.701
10382W        W77450  10.262  24.501   2.291
10383W        W77451  25.000  28.017  12.554
10384W        W77452  39.523  22.101  13.032
10385W        W77453  27.497  33.022  13.036
10386W        W77454  11.667  12.635  13.436
10387W        W77455   3.381  44.791   1.355
10388W        W77456  32.602  12.320  10.547
10389W        W77457   2.831   0.979   0.802
10390W        W77458   4.889   7.761   0.933
10391W        W77459  25.992   7.891  14.988
10392W        W77460  15.589   5.208  13.981
10393W        W77461  15.111  41.510   1.838
10394W        W77462   6.366  38.869   3.712
10395W        W77463  32.448   5.874  13.352
10396W        W77464   7.706   6.377   2.700
10397W        W77465  10.212  43.356  11.869
10398W        W77466  41.304  20.555  12.438
10399W        W77467  11.260  25.478  11.554
10400W        W77468  20.638   6.351   3.284
10401W        W77469  19.081   1.455   2.802
10402W        W77470  44.281  37.367   0.964
10403W        W77471  31.968  29.053   3.733
10404W        W77472  29.145  41.874  12.443
10405W        W77473  17.208  41.459  11.904
10406W        W77474  37.841  20.070   4.723
10407W        W77475  11.163  37.354   3.215
10408W        W77476  24.678   8.279   1.253
10409W        W77477  43.342  18.573   4.605
10410W        W77478  41.790  40.047  14.007
10411W        W77479  34.481  13.735   2.896
10412W        W77480  28.031  39.981   2.277
10413W        W77481   1.859   7.243   3.170
10414W        W77482  33.503  38.893   3.231
10415W        W77483  13.806  36.582  14.994
10416W        W77484  29.074   9.747  11.032
10417W        W77485  36.375   2.455  11.060
10418W        W77486  21.162   1.867   0.287
10419W        W77487  18.686   4.338  10.437
10420W        W77488  27.560  21.230  11.466
10421W        W77489  23.570  36.851   2.304
10422W        W77490   2.331  36.395   4.815
10423W        W77491   6.305  32.109   1.854
10424W        W77492  35.964  15.646   4.337
10425W        W77493   3.716  18.088   0.339
10426W        W77494  35.034  25.037   0.839
10427W        W77495   1.961  35.894  13.871
10428W        W77496  12.676  28.475   0.851
10429W        W77497  20.217  21.618  10.523
10430W        W77498   7.375  23.998   3.205
10431W        W77499  43.512  20.689  14.427
10432W        W77500   5.706  27.474   0.946
10433W        W77501  19.760  15.201  14.306
10434W        W77502  13.825  21.244   0.729
10435W        W77503  36.862  18.771  13.006
10436W        W77504   5.264   6.321   2.710
10437W        W77505  10.240  38.875   3.788
10438W        W77506  42.287  20.714   3.285
10439W        W77507  18.127   5.809   3.732
10440W        W77508  41.823  26.998   3.695
10441W        W77509   6.870  12.319  14.904
10442W        W77510  24.036   7.788  13.959
10443W        W77511  39.809  29.130  14.381
10444W        W77512  16.203   3.882  14.799
10445W        W77513   7.411   8.248  11.581
10446W        W77514   9.277  16.662   2.358
10447W        W77515   3.360  13.693   3.720
10448W        W77516  24.610  21.057   4.740
10449W        W77517  20.587  32.931   1.308
10450W        W77518  39.368  23.694   2.359
10451W        W77519  30.520  11.212   0.872
10452W        W77520   7.402  13.265  14.822
10453W        W77521  11.303   2.235  14.851
10454W        W77522  21.612  13.716   1.330
10455W        W77523  22.051   9.822   4.351
10456W        W77524  43.934  19.211   3.696
10457W        W77525  18.675  23.191   3.850
10458W        W77526   0.397  10.808  13.849
10459W        W77527  17.645  38.906   4.141
10460W        W77528   9.227  10.768   0.908
10461W        W77529  25.630  22.017  10.497
10462W        W77530  12.776  10.713   3.680
10463W        W77531  43.910   9.885  13.057
10464W        W77532  19.074  43.439  14.371
10465W        W77533   1.419  11.839  14.428
10466W        W77534  38.981  44.003   0.472
10467W        W77535  34.022  14.764   0.787
10468W        W77536  20.083  14.221  12.410
10469W        W77537  43.408  24.042  14.009
10470W        W77538  32.086  27.028   4.598
10471W        W77539  18.235  36.050  14.361
10472W        W77540  27.003   4.762  11.458
10473W        W77541  12.709  28.473  13.507
10474W        W77542   5.914   7.726   1.785
10475W        W77543  37.560  37.921  11.467
10476W        W77544  13.226  38.070  11.873
10477W        W77545  23.685  36.359   4.220
10478W        W77546  33.477   2.440   4.228
10479W        W77547  11.737   9.764   1.403
10480W        W77548  43.281  24.555  11.606
10481W        W77549  35.979  10.240  12.986
10482W        W77550  44.842  15.157  12.546
10483W        W77551  26.993  37.058  10.502
10484W        W77552  34.963  22.247  13.467
10485W        W77553  37.061  15.738  14.955
10486W        W77554  31.003  39.314  13.039
10487W        W77555   9.233  14.699  11.553
10488W        W77556  41.927  41.519   3.775
10489W        W77557  34.996  36.935  11.505
10490W        W77558  16.736  39.520   1.892
10491W        W77559  13.125  27.101   3.862
10492W        W77560  17.797  31.027   2.332
10493W        W77561  30.493   9.293   0.384
10494W        W77562  44.262  44.861   3.302
10495W        W77563  27.600  38.016  10.563
10496W        W77564  44.401   5.776  14.875
10497W        W77565   5.861  40.050  13.513
10498W        W77566  43.018  19.137  14.015
10499W        W77567   2.947  27.617   2.876
10500W        W77568  20.245  27.097  12.939
10501W        W77569  41.410  11.770   0.301
10502W        W77570  12.787  23.677   3.236
10503W        W77571  28.954   4.739  14.389
10504W        W77572  31.542  37.426  13.455
10505W        W77573  12.704  15.289  13.482
10506W        W77574  34.106  12.846  13.401
10507W        W77575  34.057  44.942   3.251
10508W        W77576  23.638  22.108  10.561
10509W        W77577  32.993  32.940   1.781
10510W        W77578  37.399  34.086   0.771
10511W        W77579  41.469  28.028   5.251
10512W        W77580  14.614  26.580  14.954
10513W        W77581   1.247  41.526   4.337
10514W        W77582  17.166  40.399  12.055
10515W        W77583   3.295  12.170  14.770
10516W        W77584  25.034  23.131   2.719
10517W        W77585  28.566  37.078  11.942
10518W        W77586  13.805  15.654  10.972
10519W        W77587   9.262   4.731   3.793
10520W        W77588  24.630  20.643   2.784
10521W        W77589  43.885  42.797  14.387
10522W        W77590  35.037   2.964  14.907
10523W        W77591  35.898  41.341  14.281
10524W        W77592  37.340  25.087  10.594
10525W        W77593   9.226  26.002   2.834
10526W        W77594  23.675  22.235   0.742
10527W        W77595  38.417  26.044   0.430
10528W        W77596  32.071   2.272  12.977
10529W        W77597  42.296   0.771  11.037
10530W        W77598  13.602  10.863  11.063
10531W        W77599  13.134  39.523   4.757
10532W        W77600  22.710  35.950  11.048
10533W        W77601  30.977  42.898   2.414
10534W        W77602  27.095  34.614  13.415
10535W        W77603  36.059  18.729   2.311
10536W        W77604  38.409  22.107   0.304
10537W        W77605  14.723  35.065  10.624
10538W        W77606   9.349  42.309   2.678
10539W        W77607  37.520  15.154   0.465
10540W        W77608  27.030  42.895   3.823
10541W        W77609  28.484   2.849   2.418
10542W        W77610  30.925  13.234   4.649
10543W        W77611   4.238  10.173   4.751
10544W        W77612  32.488  12.847   2.308
10545W        W77613  33.450  29.483   5.203
10546W        W77614  28.980  22.742   3.840
10547W        W77615  22.501  16.760   4.677
10548W        W77616  16.735  27.462   0.461
10549W        W77617  24.080   0.350   2.292
10550W        W77618  17.127  25.043  14.885
10551W        W77619  29.993  43.445   0.738
10552W        W77620  27.002  39.518   1.852
10553W        W77621  23.181  15.761  14.844
10554W        W77622   4.432  31.096   0.739
10555W        W77623  24.478  35.882   0.835
10556W        W77624  11.745  36.075   2.286
10557W        W77625   7.214  37.858   4.343
10558W        W77626  35.926  41.042  12.870
10559W        W77627   3.311  38.052   2.360
10560W        W77628   5.337  10.825   4.706
10561W        W77629  22.658  39.947  14.028
10562W        W77630   2.903  15.244  12.394
10563W        W77631  33.084  10.862   0.728
10564W        W77632  35.916  11.273   1.927
10565W        W77633   1.297  25.073  11.994
10566W        W77634  17.272   8.327  12.975
10567W        W77635  30.444  24.202   0.889
10568W        W77636   9.386  41.943   2.268
10569W        W77637   4.844  14.628   3.168
10570W        W77638   8.398  16.624  14.429
10571W        W77639  19.654   3.737   1.428
10572W        W77640  29.634  16.278  10.599
10573W        W77641  36.543  30.037  11.027
10574W        W77642  11.215  27.047   2.241
10575W        W77643  31.605  36.409   4.687
10576W        W77644  14.745  35.880   4.624
10577W        W77645  39.999   9.315  14.343
10578W        W77646  11.334   1.451  10.954
10579W        W77647  10.200  27.494  14.958
10580W        W77648  13.759  28.446   3.361
10581W        W77649  17.670  21.025   3.162
10582W        W77650   9.362   3.384   4.768
10583W        W77651  16.663  40.533   2.306
10584W        W77652  32.510  33.387   2.880
10585W        W77653   0.874   5.779  11.541
10586W        W77654  10.259  17.792  13.547
10587W        W77655   9.375  17.128   2.225
10588W        W77656  31.645   4.360   4.192
10589W        W77657  20.710  31.960   3.643
10590W        W77658  26.567  32.417  10.514
10591W        W77659   4.426  39.026  12.505
10592W        W77660  43.006  44.480   3.792
10593W        W77661   1.407  34.027  13.384
10594W        W77662  11.160   0.957  14.979
10595W        W77663  22.094   9.349  14.820
10596W        W77664  22.635  36.934  11.093
10597W        W77665  24.194  31.013  11.522
10598W        W77666  23.676  21.097  13.962
10599W        W77667   8.243  17.187  12.952
10600W        W77668   2.948  27.660  14.438
10601W        W77669  24.479  22.614  12.875
10602W        W77670  20.563  22.124  11.605
10603W        W77671   7.259  35.870   1.303
10604W        W77672  36.537  44.407   3.311
10605W        W77673  39.553   9.737  13.430
10606W        W77674  43.378  40.836   2.748
10607W        W77675   8.877  25.615   2.343
10608W        W77676  13.763  42.032  14.310
10609W        W77677  37.503  13.691  14.473
10610W        W77678   4.871   7.357  11.538
10611W        W77679  17.692  32.918   1.230
10612W        W77680  14.212   2.433   0.777
10613W        W77681  22.543  33.399   2.872
10614W        W77682  40.332  22.583  11.602
10615W        W77683   3.712  27.192   4.765
10616W        W77684  36.540   6.815  11.523
10617W        W77685  43.816  34.500  11.977
10618W        W77686  26.126  13.823  13.033
10619W        W77687  17.794  41.879  14.359
10620W        W77688  12.646  37.369   0.388
10621W        W77689  20.539  13.658   0.837
10622W        W77690   8.236  41.024  10.962
10623W        W77691   0.951  32.619  12.022
10624W        W77692  15.790  26.149  11.502
10625W        W77693  21.186  39.378   4.738
10626W        W77694  36.377   4.939   0.771
10627W        W77695  41.517  41.967   1.733
10628W        W77696  21.651  36.088   3.355
10629W        W77697  24.678   2.451   2.282
10630W        W77698  25.615  12.818  14.772
10631W        W77699   0.819  44.425   5.308
10632W        W77700   6.214  18.663   2.260
10633W        W77701  24.069  16.739  10.935
10634W        W77702   3.841   5.909   1.370
10635W        W77703  36.441   3.394   2.818
10636W        W77704  24.225  27.472  14.369
10637W        W77705  13.322  17.170  10.518
10638W        W77706  23.560  23.126   4.726
10639W        W77707  17.306  40.958   4.648
10640W        W77708   6.738  37.474  14.490
10641W        W77709  38.358   9.253  14.513
10642W        W77710   7.296  26.468  11.397
10643W        W77711  27.178  44.404  12.911
10644W        W77712  13.329  39.534   1.431
10645W        W77713  22.505  34.489  10.511
10646W        W77714  33.072  20.033   0.878
10647W        W77715  20.107   9.680  13.002
10648W        W77716  14.705   7.727  10.060
10649W        W77717  24.074   5.212  10.940
10650W        W77718  25.122  28.055  13.795
10651W        W77719   9.357  21.250  11.980
10652W        W77720   0.249  26.692  11.949
10653W        W77721   4.817   7.240  11.984
10654W        W77722  17.676  28.010  12.554
10655W        W77723  37.566  12.768   1.423
10656W        W77724  40.318   2.420  12.897
10657W        W77725  17.696  37.891  13.940
10658W        W77726   8.300   8.709  13.469
10659W        W77727  20.715  10.188   3.157
10660W        W77728  21.163  24.112  14.827
10661W        W77729   3.855  12.808  10.507
10662W        W77730  27.475   7.268  10.607
10663W        W77731   2.824  42.371   1.270
10664W        W77732  30.571  24.585   4.258
10665W        W77733  17.193   1.371   3.186
10666W        W77734  32.431  21.207   3.228
10667W        W77735  14.216  17.237  10.979
10668W        W77736   4.854  22.241  13.791
10669W        W77737   5.439  34.072   2.409
10670W        W77738  29.109  21.185   0.926
10671W        W77739  11.338  27.563   0.284
10672W        W77740  19.771  29.072   2.326
10673W        W77741  29.492  12.821   0.417
10674W        W77742  35.493  17.074  10.635
10675W        W77743  40.333  40.508   3.851
10676W        W77744   6.715  17.084  14.803
10677W        W77745  31.071  16.313  14.398
10678W        W77746  22.698  17.644  10.515
10679W        W77747   2.250  27.138  10.455
10680W        W77748  24.153  16.103  13.849
10681W        W77749  38.492  10.795   1.334
10682W        W77750  36.521  17.194   2.271
10683W        W77751  27.541   3.342  14.406
10684W        W77752  39.346  13.276   0.899
10685W        W77753  23.160  23.217   4.310
10686W        W77754  34.092   8.384   2.701
10687W        W77755  44.862  33.072   4.118
10688W        W77756  42.444  29.465   1.770
10689W        W77757  14.748  31.984   0.958
10690W        W77758  34.878  11.169  11.565
10691W        W77759   4.838   3.895   2.285
10692W        W77760  12.243  26.465   0.369
10693W        W77761  38.832  20.693  11.436
10694W        W77762  26.572   4.211  13.860
10695W        W77763  34.425  43.487   2.873
10696W        W77764  28.934   6.190   3.701
10697W        W77765  18.137  40.304  14.842
10698W        W77766  32.438   9.672   4.682
10699W        W77767  30.029  20.069   1.329
10700W        W77768  25.035   5.355  13.537
10701W        W77769   5.752  11.716   4.328
10702W        W77770  15.724  44.871   0.423
10703W        W77771  10.666  27.969  14.411
10704W        W77772  13.224  18.147   1.926
10705W        W77773  36.087   1.333   1.817
10706W        W77774  15.126  21.620   3.303
10707W        W77775  16.597  24.672   3.769
10708W        W77776  39.955  11.308  12.945
10709W        W77777  17.606  23.227   0.368
10710W        W77778  32.615  33.068   2.809
10711W        W77779  32.886  36.850  12.944
10712W        W77780  15.171  32.008   0.383
10713W        W77781  41.797  31.992  11.119
10714W        W77782   8.340  44.888  13.882
10715W        W77783  25.502  36.842  10.639
10716W        W77784   7.394  13.640   0.277
10717W        W77785  38.330  23.159   4.691
10718W        W77786  35.980  22.232  10.404
10719W        W77787  10.305  26.540   0.934
10720W        W77788  36.413   6.203  10.437
10721W        W77789  12.127  28.042   1.894
10722W        W77790   3.348  37.922   1.906
10723W        W77791  34.119  12.315   0.447
10724W        W77792   2.423   3.828   3.813
10725W        W77793  33.467  24.103   4.613
10726W        W77794  18.602  17.695   2.202
10727W        W77795   9.232  17.280  14.000
10728W        W77796  25.521   9.796  11.873
10729W        W77797  20.172  16.742   0.400
10730W        W77798  36.031   6.401   2.703
10731W        W77799  23.228   6.808  13.923
10732W        W77800  15.744  25.504  12.431
10733W        W77801  22.104  25.706  11.400
10734W        W77802  17.187  29.623   0.862
10735W        W77803  38.846  13.222  10.517
10736W        W77804  41.820  15.713   5.147
10737W        W77805  34.056   3.811   0.409
10738W        W77806   6.261   1.961  14.420
10739W        W77807  17.081  43.861   0.771
10740W        W77808   4.945  26.531   1.309
10741W        W77809  16.621  23.042   3.286
10742W        W77810  26.970  27.164  12.352
10743W        W77811  35.034  12.714  12.444
10744W        W77812  15.302  16.204  14.390
10745W        W77813  24.978   5.244   3.639
10746W        W77814  24.002  37.395   4.217
10747W        W77815  24.150  37.026   1.353
10748W        W77816   5.239  30.428  11.563
10749W        W77817  34.559  22.056  13.836
10750W        W77818   4.819  22.006   2.270
10751W        W77819  18.576  32.398   0.404
10752W        W77820  28.519   6.416  13.823
10753W        W77821  18.602   5.904   0.256
10754W        W77822  30.060  12.248   3.655
10755W        W77823   1.453   7.709  13.840
10756W        W77824  29.560   2.443  14.896
10757W        W77825  14.601  44.494   3.376
10758W        W77826  31.955  11.256  13.515
10759W        W77827  18.638  26.504   4.602
10760W        W77828   0.767  40.533   2.726
10761W        W77829  32.514  29.162  10.423
10762W        W77830  11.283  22.153   4.254
10763W        W77831  39.896  36.918   3.743
10764W        W77832  14.830  12.722   5.238
10765W        W77833  20.540  31.061  11.001
10766W        W77834  19.283  17.284  11.127
10767W        W77835  33.427  42.348   1.706
10768W        W77836   7.768   4.739  10.059
10769W        W77837  38.049  37.357  14.420
10770W        W77838  17.587  32.062   0.326
10771W        W77839  35.853   3.817  12.416
10772W        W77840  43.856  36.961   2.806
10773W        W77841  17.788  24.010   3.355
10774W        W77842  11.132  29.668   1.738
10775W        W77843  29.480   9.204   0.398
10776W        W77844  29.946  13.730  10.938
10777W        W77845  15.640  33.504  11.017
10778W        W77846  29.001  18.748   0.387
10779W        W77847   7.875  14.674  10.554
10780W        W77848  34.061  18.289  13.311
10781W        W77849  27.520  43.344  11.539
10782W        W77850   7.678  21.117   4.688
10783W        W77851  27.967  31.473   2.289
10784W        W77852   3.904  40.331  10.508
10785W        W77853  43.013  26.066  11.121
10786W        W77854  25.979  29.099   0.828
10787W        W77855  31.941  22.135  11.372
10788W        W77856   8.842  37.531  10.458
10789W        W77857   1.795  16.143   4.342
10790W        W77858  15.596  42.027  12.423
10791W        W77859  26.524  38.428  12.910
10792W        W77860   1.880  31.527   4.613
10793W        W77861  33.384  39.338  14.813
10794W        W77862  18.651  23.579  12.523
10795W        W77863   0.852  17.723   3.712
10796W        W77864  11.285  42.946   2.835
10797W        W77865  28.996   8.661  13.408
10798W        W77866   3.346   8.271   4.216
10799W        W77867  30.953   3.410   0.912
10800W        W77868  15.734  32.559   2.715
10801W        W77869  17.575   5.227   2.187
10802W        W77870  42.455   4.436  14.498
10803W        W77871   5.756  29.137   3.301
10804W        W77872  21.576  21.127   2.261
10805W        W77873   3.327   9.848  12.469
10806W        W77874  14.643  11.820   0.925
10807W        W77875  15.740  38.447   3.197
10808W        W77876  24.109  29.936   0.349
10809W        W77877  43.806  35.547   9.966
10810W        W77878   9.771  13.771  11.442
10811W        W77879   3.841  35.563  12.563
10812W        W77880   7.693  26.138   0.925
10813W        W77881   2.328  39.427  14.387
10814W        W77882  33.940  19.750   2.406
10815W        W77883  18.760  11.254   1.869
10816W        W77884   9.854  16.765  13.004
10817W        W77885  20.681  29.439  14.368
10818W        W77886  10.365  30.443  11.454
10819W        W77887   3.228  27.479  14.390
10820W        W77888  28.170   7.390   1.340
10821W        W77889   3.787  31.545  12.523
10822W        W77890  20.630   4.367   0.952
10823W        W77891  38.494   9.694   1.357
10824W        W77892  38.472  15.777  10.934
10825W        W77893  34.900   4.907  13.905
10826W        W77894  19.129  20.120   1.920
10827W        W77895  27.101  37.563  12.576
10828W        W77896  20.111  33.928  12.907
10829W        W77897   0.913  22.064   4.136
10830W        W77898  29.166  12.183  11.548
10831W        W77899  25.488  40.460   2.756
10832W        W77900  27.197  21.737   3.867
10833W        W77901  21.656  35.600   0.924
10834W        W77902  18.208  19.700   4.741
10835W        W77903   9.259  44.877  11.575
10836W        W77904  16.129   0.435   1.753
10837W        W77905   7.190  40.488   4.294
10838W        W77906  28.051  43.857  14.999
10839W        W77907  34.585  19.675  12.407
10840W        W77908  12.335  27.584   0.436
10841W        W77909  23.564  43.821  11.058
10842W        W77910  11.266   7.793  10.982
10843W        W77911  20.163  29.475   2.671
10844W        W77912  26.022  42.328   4.195
10845W        W77913  12.724  22.627  12.994
10846W        W77914  29.579  15.824   2.903
10847W        W77915   3.908  23.083  10.534
10848W        W77916  42.783  37.950  14.909
10849W        W77917  30.913  28.519   4.637
10850W        W77918   1.244  27.094   0.319
10851W        W77919  16.695   1.399   0.951
10852W        W77920  10.358  42.800  13.998
10853W        W77921  19.693  30.151  13.891
10854W        W77922  35.907  42.791   2.754
10855W        W77923  25.058  38.477  12.909
10856W        W77924   9.717  25.013   3.254
10857W        W77925   9.802  25.219  11.448
10858W        W77926   1.970  16.698  12.851
10859W        W77927  23.072  41.808   2.691
10860W        W77928   4.388  40.826   2.295
10861W        W77929  20.064   5.934  14.468
10862W        W77930   7.757  28.119  14.321
10863W        W77931  19.534  33.509  10.457
10864W        W77932   5.706  30.950  10.573
10865W        W77933  22.636  23.670   2.295
10866W        W77934  29.156  13.837  14.923
10867W        W77935  19.187  30.475  11.445
10868W        W77936  19.129  19.143   1.377
10869W        W77937   6.251  10.236  14.954
10870W        W77938   9.287  43.015  13.011
10871W        W77939  30.062  41.854  13.476
10872W        W77940  14.151  18.054   0.471
10873W        W77941  20.557  14.272  14.386
10874W        W77942  30.138  29.063   2.715
10875W        W77943  40.835   8.712  12.466
10876W        W77944   6.867  26.668  11.903
10877W        W77945  22.174  32.915  14.760
10878W        W77946   4.285  32.990   3.174
10879W        W77947   6.817  16.286   2.215
10880W        W77948   9.311  31.527   4.157
10881W        W77949  30.658  37.357  12.087
10882W        W77950   8.353   6.229   2.791
10883W        W77951  21.166  35.380  12.888
10884W        W77952  27.515  38.052  13.378
10885W        W77953  18.610  36.067  14.012
10886W        W77954  34.554   6.712  10.966
10887W        W77955  18.647  31.460   3.641
10888W        W77956  32.892  30.916  10.984
10889W        W77957  41.461  26.109  11.928
10890W        W77958   6.412  14.171   2.389
10891W        W77959  39.967   2.335  11.089
10892W        W77960  21.581  32.633  11.064
10893W        W77961  41.885  36.513  10.987
10894W        W77962   6.704  41.363   3.711
10895W        W77963  41.359  40.477   4.334
10896W        W77964   0.744  15.231   1.294
10897W        W77965  33.019   0.936   0.263
10898W        W77966  13.343   2.247  11.958
10899W        W77967  27.642  10.869  13.927
10900W        W77968   9.257   9.702   2.815
10901W        W77969  40.905   5.396   1.392
10902W        W77970  13.253  29.005   4.260
10903W        W77971   6.362  13.230   4.616
10904W        W77972  11.822  20.036   1.279
10905W        W77973  43.894   3.766  12.344
10906W        W77974  38.829  30.538  10.573
10907W        W77975  29.028  21.034   3.786
10908W        W77976  25.075  34.487  12.439
10909W        W77977  42.339  10.284   3.685
10910W        W77978  22.651  27.484  12.869
10911W        W77979   0.447  32.483  11.966
10912W        W77980  28.672  17.202   3.277
10913W        W77981  12.751   5.866   1.817
10914W        W77982   4.239  14.298   4.306
10915W        W77983  21.563  15.257  14.974
10916W        W77984  19.564   6.900  14.458
10917W        W77985   4.262  17.651   5.136
10918W        W77986   7.306  11.792  13.494
10919W        W77987  18.270  43.953  11.557
10920W        W77988  24.196   8.358  11.921
10921W        W77989  26.659  28.484  11.515
10922W        W77990   7.262   5.741   3.310
10923W        W77991  43.964  38.416  10.482
10924W        W77992  33.529   6.836   2.713
10925W        W77993   1.732   6.373   4.323
10926W        W77994   8.775  16.630  12.901
10927W        W77995  40.867  44.485   1.303
10928W        W77996  32.623  12.787  14.387
10929W        W77997  16.737  10.661   0.964
10930W        W77998  43.953  44.894   1.422
10931W        W77999  21.644  21.184   4.169
10932W        W78000  13.822  43.953  12.541
10933W        W78001   9.829  33.559  11.389
10934W        W78002   2.420  26.015  11.548
10935W        W78003  27.688  36.398   4.259
10936W        W78004  11.633  13.184   4.201
10937W        W78005  17.159  31.905  13.875
10938W        W78006  36.931   2.337  13.462
10939W        W78007  42.477  10.353  14.388
10940W        W78008  15.285   6.729   5.261
10941W        W78009  42.780  33.053   0.471
10942W        W78010  23.171  38.377   1.280
10943W        W78011  34.431  41.531  13.995
10944W        W78012   5.847   5.315  14.412
10945W        W78013  20.594  27.688  13.395
10946W        W78014   9.160  29.614   2.680
10947W        W78015  37.338  41.911  14.942
10948W        W78016  34.371  35.503  11.125
10949W        W78017  13.222   4.812   0.396
10950W        W78018  34.089  30.585   2.675
10951W        W78019  40.357   4.383   0.403
10952W        W78020   1.390   8.211   0.883
10953W        W78021  34.547  17.071  13.426
10954W        W78022  42.501  16.788   4.836
10955W        W78023   1.253   4.851   2.820
10956W        W78024  16.627  33.508   4.118
10957W        W78025  32.133  43.291   2.813
10958W        W78026  27.965  19.611  11.562
10959W        W78027   9.187   3.818   0.394
10960W        W78028  13.321  33.593  14.359
10961W        W78029   2.915  40.446  12.374
10962W        W78030  12.117  15.621   1.211
10963W        W78031  11.319  10.865  13.832
10964W        W78032  19.115   6.379  14.430
10965W        W78033  40.378  20.147   3.832
10966W        W78034  38.039   8.780  12.850
10967W        W78035  36.542  15.112   1.404
10968W        W78036  16.806  42.825  14.386
10969W        W78037   7.183  38.964  10.579
10970W        W78038  12.312  13.839   1.707
10971W        W78039  23.107  42.427   4.686
10972W        W78040  25.576   1.391  14.295
10973W        W78041   1.424  17.079  14.816
10974W        W78042  18.055  29.171  14.826
10975W        W78043  36.032  34.478  14.285
10976W        W78044  35.889   9.337   3.171
10977W        W78045  15.754  22.522  10.580
10978W        W78046   2.793  40.525  11.505
10979W        W78047  27.148  20.071   2.683
10980W        W78048  35.416  43.811  12.418
10981W        W78049   8.168   1.746  11.391
10982W        W78050  36.069  27.031  10.499
10983W        W78051   1.276   4.349   4.777
10984W        W78052   8.334   0.881   5.201
10985W        W78053  16.258  33.945   1.724
10986W        W78054  28.443   0.877  13.508
10987W        W78055  13.226  23.142  13.974
10988W        W78056  23.547  24.974   0.856
10989W        W78057   4.918   4.830   1.232
10990W        W78058  39.416  27.533  13.905
10991W        W78059   3.225  44.927   0.782
10992W        W78060  33.435  41.516   4.633
10993W        W78061  15.289  37.393   1.886
10994W        W78062   5.251  27.529   1.348
10995W        W78063  44.969  37.422  14.494
10996W        W78064   5.764  15.781  11.067
10997W        W78065  16.230  14.664   4.304
10998W        W78066  32.035  40.390  11.540
10999W        W78067  41.876  40.500  12.833
11000W        W78068  31.060  42.349  12.552
11001W        W78069  27.678  15.295   1.889
11002W        W78070  28.439  34.929   2.859
11003W        W78071  33.962  10.253   4.664
11004W        W78072  31.647   5.736  11.598
11005W        W78073  32.488  39.861  12.869
11006W        W78074   0.408  13.110   4.210
11007W        W78075  18.136  41.967  11.864
11008W        W78076   3.226   3.792   3.247
11009W        W78077  29.077   4.924  13.821
11010W        W78078  27.685   1.284  12.987
11011W        W78079  23.116  19.275   4.782
11012W        W78080   7.714  11.679  14.363
11013W        W78081  36.452  33.044  13.863
11014W        W78082  37.833  21.660   4.804
11015W        W78083   0.438  38.447  12.039
11016W        W78084  44.491   1.895   4.272
11017W        W78085   5.337  17.207  11.414
11018W        W78086  11.858  41.801   3.272
11019W        W78087  35.920  44.762   4.709
11020W        W78088  43.430  35.887   3.302
11021W        W78089   7.724  40.462  12.341
11022W        W78090  15.766  18.198   2.337
11023W        W78091  38.981  13.194   3.724
11024W        W78092   5.897  24.612   4.697
11025W        W78093   2.343  23.512   0.309
11026W        W78094   7.888   6.372  13.321
11027W        W78095  36.565  25.615  10.521
11028W        W78096   7.804  28.510   4.180
11029W        W78097  40.467   6.778  12.992
11030W        W78098   7.894  39.527   0.280
11031W        W78099  24.165  23.117  14.344
11032W        W78100  19.722  34.958  14.398
11033W        W78101  30.076  35.418   4.676
11034W        W78102  26.974  19.672  14.507
11035W        W78103  41.389  32.995   1.254
11036W        W78104  14.708  38.016   0.331
11037W        W78105  39.900   4.844  12.997
11038W        W78106   6.799  20.692  13.824
11039W        W78107  28.615  23.990   1.264
11040W        W78108  35.025  40.973  11.867
11041W        W78109  24.670  17.611   1.912
11042W        W78110  30.554  43.388   2.785
11043W        W78111  20.642  31.640  10.536
11044W        W78112  32.540  10.775  10.458
11045W        W78113   9.375  21.041  10.546
11046W        W78114   8.665  30.519  12.578
11047W        W78115  10.352  25.468   1.267
11048W        W78116  22.508  37.550  12.532
11049W        W78117  11.290   5.424   0.294
11050W        W78118  32.617  25.150  14.483
11051W        W78119  30.961  35.581   3.299
11052W        W78120  44.340  30.014   2.828
11053W        W78121  33.384   7.395  13.887
11054W        W78122   4.271  25.215  14.886
11055W        W78123  25.518  21.141   0.729
11056W        W78124  18.184   2.848   3.828
11057W        W78125  33.894  37.927  12.377
11058W        W78126   5.887  38.958  12.878
11059W        W78127  32.601  32.133   2.881
11060W        W78128  40.456  42.779  12.514
11061W        W78129  31.986  30.113   0.938
11062W        W78130  28.987  36.043   2.310
11063W        W78131  20.063   3.938   3.795
11064W        W78132   5.716  18.234   1.905
11065W        W78133  30.619  28.146  10.574
11066W        W78134  19.596  42.372   2.283
11067W        W78135  35.107  43.495  12.864
11068W        W78136  10.830  41.421  12.082
11069W        W78137  35.915  32.460   3.286
11070W        W78138  12.255  12.117   0.752
11071W        W78139   2.771  18.646  13.897
11072W        W78140  38.949  21.102   4.818
11073W        W78141  14.661  18.195   9.927
11074W        W78142  41.935   0.961   4.260
11075W        W78143  22.506   4.932  10.131
11076W        W78144  41.979   9.277   3.331
11077W        W78145  26.040  19.100   3.342
11078W        W78146  18.094   0.815  14.312
11079W        W78147  10.307  21.708  13.329
11080W        W78148  41.927  27.054   0.327
11081W        W78149  10.864  34.598   0.337
11082W        W78150  25.468  36.985  11.100
11083W        W78151  37.901  34.036   0.859
11084W        W78152  42.877   2.268  11.881
11085W        W78153  22.235  10.191  13.810
11086W        W78154  10.185  36.973  11.124
11087W        W78155   2.400  17.256  11.556
11088W        W78156   3.765  43.972  10.488
11089W        W78157   7.293   4.912   3.741
11090W        W78158  40.351  11.678   3.347
11091W        W78159  44.949  27.569   3.278
11092W        W78160  41.292  11.825  12.463
11093W        W78161  23.238  10.171   0.910
11094W        W78162  19.185   4.412  12.405
11095W        W78163  21.710  33.093   0.744
11096W        W78164   5.893  42.939   2.216
11097W        W78165  41.474  26.524   3.691
11098W        W78166  23.559  12.667  12.463
11099W        W78167   5.423  32.004   4.198
11100W        W78168  14.794  24.704   1.254
11101W        W78169  44.383  16.649   1.728
11102W        W78170   6.321  41.933   4.240
11103W        W78171  40.836   7.267  12.366
11104W        W78172   2.874  44.817   0.480
11105W        W78173  21.688  30.149   2.252
11106W        W78174  23.173  17.714  14.030
11107W        W78175  16.308  38.881   3.638
11108W        W78176  35.424  21.102   3.279
11109W        W78177   4.254  27.621  13.372
11110W        W78178   5.225  43.276   0.912
11111W        W78179  16.176  28.151   1.730
11112W        W78180   6.212   1.406  14.848
11113W        W78181  25.673  42.991   2.350
11114W        W78182  16.257  40.313   2.182
11115W        W78183  38.910   4.931   2.396
11116W        W78184  18.558  37.423  10.918
11117W        W78185  36.483   1.253   4.169
11118W        W78186  27.026  27.175   2.664
11119W        W78187   5.854   8.900   4.675
11120W        W78188  17.228   2.759  13.898
11121W        W78189   6.341  37.035  11.541
11122W        W78190  40.421  21.043  12.578
11123W        W78191  30.421  38.057   0.876
11124W        W78192  36.022  31.534   2.223
11125W        W78193  19.566   7.218   1.375
11126W        W78194  10.228   1.421  11.112
11127W        W78195  27.640  10.376  11.431
11128W        W78196  30.907  24.710  14.471
11129W        W78197  25.198  35.498   0.333
11130W        W78198   9.247  16.123   4.184
11131W        W78199  34.987  16.694  14.887
11132W        W78200   0.989  41.334   5.219
11133W        W78201  23.995  38.391  13.541
11134W        W78202  17.558  34.456  13.312
11135W        W78203  42.877  10.151  10.891
11136W        W78204  42.848  22.696   3.700
11137W        W78205  33.613  12.763   0.252
11138W        W78206   5.852  39.977   2.276
11139W        W78207  30.463  17.131  13.884
11140W        W78208  39.902  23.703   2.394
11141W        W78209  13.336   8.797   1.819
11142W        W78210   8.257   4.711  14.486
11143W        W78211   5.736   9.712   1.276
11144W        W78212  39.547   9.324  10.491
11145W        W78213  22.054  15.794   0.727
11146W        W78214  42.018  27.194  13.863
11147W        W78215  16.718  29.599   9.653
11148W        W78216  16.162  29.121  14.503
11149W        W78217  30.144  12.197  13.821
11150W        W78218  18.746   8.761   3.858
11151W        W78219   3.215  24.630   3.268
11152W        W78220  19.655  28.021   0.404
11153W        W78221  23.074  17.794   4.699
11154W        W78222  32.109  24.571  13.840
11155W        W78223  36.500  24.165   0.771
11156W        W78224  22.513  43.374  13.833
11157W        W78225   1.928   3.944   0.879
11158W        W78226  40.362  38.353  14.461
11159W        W78227  26.108   9.884  13.812
11160W        W78228  42.980  42.427   1.276
11161W        W78229  23.203  23.691  13.498
11162W        W78230  41.786  10.830  11.061
11163W        W78231   8.787  23.572  10.929
11164W        W78232  29.439  27.565  10.980
11165W        W78233  37.991  10.666  13.846
11166W        W78234  19.614  31.468  13.869
11167W        W78235  42.924  24.118  13.336
11168W        W78236  36.063  24.645  11.487
11169W        W78237  32.973  34.890   2.211
11170W        W78238  17.791  29.464  11.387
11171W        W78239  26.468  10.200   5.188
11172W        W78240  21.544  27.050   0.788
11173W        W78241  30.149  11.858   0.451
11174W        W78242  39.339  25.167  13.010
11175W        W78243  25.497  31.529   4.775
11176W        W78244  11.365  19.184  10.423
11177W        W78245  25.630  12.240   4.286
11178W        W78246  13.622  35.935   3.668
11179W        W78247  40.418   0.420   2.334
11180W        W78248   1.920   6.833   0.340
11181W        W78249   2.360  22.091   3.789
11182W        W78250  31.022  25.604   1.366
11183W        W78251  38.984  17.067   0.937
11184W        W78252   3.773  42.931   2.374
11185W        W78253   7.219  30.655  10.988
11186W        W78254  37.524  10.809   1.255
11187W        W78255  34.533  43.485   1.796
11188W        W78256   1.925  12.238   0.882
11189W        W78257  31.031  37.033  14.774
11190W        W78258   8.661  14.166  11.116
11191W        W78259  30.918   6.312  11.598
11192W        W78260  33.395  23.514   1.293
11193W        W78261  28.471  30.030   3.861
11194W        W78262  27.532  34.056  13.419
11195W        W78263  38.553  22.148   3.780
11196W        W78264   3.330  33.452  14.011
11197W        W78265  31.148  19.119   1.338
11198W        W78266  28.478   9.870   0.393
11199W        W78267  19.710  37.472  13.340
11200W        W78268  38.338  11.166  12.421
11201W        W78269   1.442  40.347  10.457
11202W        W78270  29.604  18.081  11.121
11203W        W78271   0.807   4.703  14.412
11204W        W78272  32.438  26.020  11.952
11205W        W78273  17.239  43.376   0.255
11206W        W78274  17.067  18.204  11.517
11207W        W78275   1.746   1.755  12.872
11208W        W78276  39.863  32.609  14.986
11209W        W78277  23.650  25.044   2.367
11210W        W78278  40.806  36.974   0.258
11211W        W78279  41.971  12.218  14.883
11212W        W78280   3.232  17.791   3.759
11213W        W78281  42.299  21.688  13.832
11214W        W78282   1.965  35.901  12.350
11215W        W78283   2.439  10.262  10.478
11216W        W78284  23.168  16.699   2.810
11217W        W78285  14.686  44.941  12.403
11218W        W78286  27.646  16.590  11.921
11219W        W78287  10.799  29.491   1.390
11220W        W78288  31.567  23.648   3.808
11221W        W78289   9.885  40.862  12.477
11222W        W78290  44.760  34.892  12.363
11223W        W78291  41.881   3.376   2.234
11224W        W78292  36.042  11.359   4.210
11225W        W78293  24.650   8.879  10.979
11226W        W78294  29.574  33.888  12.902
11227W        W78295   1.922  43.979  10.968
11228W        W78296   8.328  23.133  10.983
11229W        W78297   7.836  21.125   2.812
11230W        W78298  12.711  38.032   4.706
11231W        W78299  36.587  14.795  11.494
11232W        W78300  26.960  15.687   0.243
11233W        W78301   8.160  14.770  11.450
11234W        W78302   5.784  33.099   4.806
11235W        W78303  19.566   0.278  14.868
11236W        W78304  40.028  14.192  12.566
11237W        W78305  36.530   2.236   3.357
11238W        W78306   9.185  21.146   3.158
11239W        W78307   5.274  19.045   0.944
11240W        W78308  19.218   5.842   0.474
11241W        W78309  25.000  39.517  13.456
11242W        W78310  42.004  40.347  14.421
11243W        W78311  44.431  22.199   3.247
11244W        W78312  35.431  40.846   3.267
11245W        W78313  24.488  22.113   2.828
11246W        W78314  26.978  15.164  14.788
11247W        W78315  24.176  19.635   2.215
11248W        W78316  40.310  11.306   3.367
11249W        W78317  35.495  33.040  13.443
11250W        W78318  20.183   3.943   4.650
11251W        W78319   4.830  17.079   2.767
11252W        W78320  33.445  40.543   2.872
11253W        W78321  11.222  12.279   4.158
11254W        W78322   3.246  11.729  13.523
11255W        W78323  40.028  41.374  10.942
11256W        W78324  25.537   2.433  10.544
11257W        W78325  13.822  22.040   0.864
11258W        W78326  36.348  33.606  13.421
11259W        W78327   0.373  10.266   0.895
11260W        W78328  31.132   9.724  14.984
11261W        W78329   7.387   6.323  10.425
11262W        W78330  11.713  15.204  11.025
11263W        W78331  32.417  19.273   1.369
11264W        W78332   4.270  25.643  10.521
11265W        W78333   5.930  35.377   1.877
11266W        W78334   3.742  37.382  12.482
11267W        W78335  14.226  31.479   0.281
11268W        W78336  43.387  44.365   1.434
11269W        W78337  35.032  16.624   4.208
11270W        W78338  36.996  33.126  14.855
11271W        W78339   0.333  32.956  11.067
11272W        W78340  40.542  29.038   4.175
11273W        W78341  43.777  31.038   3.730
11274W        W78342  11.847  43.887  11.494
11275W        W78343  21.674  10.257   2.722
11276W        W78344  40.933  30.427  13.506
11277W        W78345  35.046   9.886  10.599
11278W        W78346  44.898  12.616  12.387
11279W        W78347  28.027  30.607  11.924
11280W        W78348  43.776  18.107   2.292
11281W        W78349  35.014   6.740   3.784
11282W        W78350  22.640  11.335   2.213
11283W        W78351  44.312  38.033  12.956
11284W        W78352  16.266  31.406   2.197
11285W        W78353  29.617  15.725  14.824
11286W        W78354  37.360  25.192   0.306
11287W        W78355   6.215   2.227  10.540
11288W        W78356  20.537  36.933   1.273
11289W        W78357   2.423  38.410   0.937
11290W        W78358  25.074   9.875   4.216
11291W        W78359   7.673  23.055  13.015
11292W        W78360  42.394  44.866   0.795
11293W        W78361  39.387  40.331   0.276
11294W        W78362  17.305  38.954   3.812
11295W        W78363  22.036  32.902  12.083
11296W        W78364   6.331  43.334   1.711
11297W        W78365  33.547  19.741   1.267
11298W        W78366  16.291   3.861  14.008
11299W        W78367  23.504  11.735   0.364
11300W        W78368  11.751  20.638  14.788
11301W        W78369  40.998  31.970  12.443
11302W        W78370  44.409  35.582   2.771
11303W        W78371  26.104   6.895   3.272
11304W        W78372   6.396   8.206  11.420
11305W        W78373  17.749  43.786   0.379
11306W        W78374  37.493  18.775   0.797
11307W        W78375   4.778  22.743  12.366
11308W        W78376   9.206   1.809  11.531
11309W        W78377  21.255   2.292  11.539
11310W        W78378  21.140  40.830  13.963
11311W        W78379   5.873   8.357   2.396
11312W        W78380  34.469   4.400   4.321
11313W        W78381   0.322   8.202   0.477
11314W        W78382  42.527  44.816   2.367
11315W        W78383  26.163  24.571  11.081
11316W        W78384  10.359  10.868   0.480
11317W        W78385  31.418   5.834  14.025
11318W        W78386  21.550  19.603   2.289
11319W        W78387   5.301  35.019  12.003
11320W        W78388  36.515  36.066  11.898
11321W        W78389  42.312   3.808  12.910
11322W        W78390  40.928   6.412  11.472
11323W        W78391   0.360  13.247   1.307
11324W        W78392   6.745  21.225  11.504
11325W        W78393  23.659  40.977   2.903
11326W        W78394  30.977  20.734   3.693
11327W        W78395   8.244  12.773   2.681
11328W        W78396  40.524  37.395  14.792
11329W        W78397  32.979  22.125  10.423
11330W        W78398  30.428  28.580  10.968
11331W        W78399  15.129  19.094  13.920
11332W        W78400   0.960   6.261  13.460
11333W        W78401   5.317   7.206   2.702
11334W        W78402  43.298  30.535   2.219
11335W        W78403  23.533   5.817  12.503
11336W        W78404   6.889  22.583  11.031
11337W        W78405  20.259  31.005   4.674
11338W        W78406   6.768  19.645   4.800
11339W        W78407  20.742  27.997  14.904
11340W        W78408  35.547   7.694  11.508
11341W        W78409  26.702  39.363   1.290
11342W        W78410   6.922  33.017   1.447
11343W        W78411   1.970  28.576   4.272
11344W        W78412   9.821  19.565  13.424
11345W        W78413  17.729  43.894  14.435
11346W        W78414  13.216  31.060   0.871
11347W        W78415  29.151  27.987  13.968
11348W        W78416   9.693  40.039  12.444
11349W        W78417  37.981  40.370  10.076
11350W        W78418  13.767   3.772   2.670
11351W        W78419  18.661  36.587   1.448
11352W        W78420   8.227   8.300  14.852
11353W        W78421  33.418  21.609   0.378
11354W        W78422  40.351   0.346   1.380
11355W        W78423   4.745  24.537  13.830
11356W        W78424   9.831   6.886  13.861
11357W        W78425  25.156  36.999  14.510
11358W        W78426  23.220  24.551  14.766
11359W        W78427  44.883  18.136   4.333
11360W        W78428  36.553  11.641  12.362
11361W        W78429  15.795  21.131  13.505
11362W        W78430  24.648  25.710   0.948
11363W        W78431  36.846  32.003  14.772
11364W        W78432  44.988  41.976  12.366
11365W        W78433  27.577  31.492  14.461
11366W        W78434  42.784  17.569   1.403
11367W        W78435   5.419  10.178  14.820
11368W        W78436   5.278   5.871  13.410
11369W        W78437  25.068   0.440   1.838
11370W        W78438  14.303  24.204   2.840
11371W        W78439  15.298  14.183  11.554
11372W        W78440  26.533  42.338  12.424
11373W        W78441  41.951   7.857   1.853
11374W        W78442  43.300   9.261  11.043
11375W        W78443   0.290   8.762   3.684
11376W        W78444  37.844   5.818   4.249
11377W        W78445  31.011  13.642   2.213
11378W        W78446  23.103   4.838   4.283
11379W        W78447  16.752  27.482   2.704
11380W        W78448  26.679   6.219  14.914
11381W        W78449  42.404  21.219  11.433
11382W        W78450  20.051  31.546  12.350
11383W        W78451   5.341  21.679  14.020
11384W        W78452  18.260   9.787   5.696
11385W        W78453  10.245   6.850   0.398
11386W        W78454  30.655  41.402  14.795
11387W        W78455  41.383   1.907   4.324
11388W        W78456  44.756  19.188  13.912
11389W        W78457   7.754  12.155  14.358
11390W        W78458  34.522   6.750   3.682
11391W        W78459  29.536  23.183   1.916
11392W        W78460   0.957  16.316  10.422
11393W        W78461  23.241  20.125   1.441
11394W        W78462  19.560  12.181  14.938
11395W        W78463   7.316   4.785   4.828
11396W        W78464  37.360  29.036   3.788
11397W        W78465  42.933  14.303   2.318
11398W        W78466  14.239  22.164  13.957
11399W        W78467  12.300  16.769   4.249
11400W        W78468  33.551   5.380   1.437
11401W        W78469  23.067  21.214  13.332
11402W        W78470  34.551  33.100   4.353
11403W        W78471  22.249  15.769  14.773
11404W        W78472   2.245  29.950  11.508
11405W        W78473   6.200  41.837  12.358
11406W        W78474  37.002  18.163   3.630
11407W        W78475  43.848  42.777   4.682
11408W        W78476  27.520  25.196  13.022
11409W        W78477  26.582  27.045   4.160
11410W        W78478  22.583  11.172   3.745
11411W        W78479  23.016  26.086   0.816
11412W        W78480  28.440  27.556  12.025
11413W        W78481  34.576  28.075   2.369
11414W        W78482  11.324  18.129  13.512
11415W        W78483  44.829  10.774  14.822
11416W        W78484   4.930  31.496   4.640
11417W        W78485   1.350  19.143  10.542
11418W        W78486  42.341  38.992   1.395
11419W        W78487  38.376  29.112  13.335
11420W        W78488  38.936  27.181  12.904
11421W        W78489  17.216  10.202   2.405
11422W        W78490  13.216   0.287  12.419
11423W        W78491  24.651  40.825   2.785
11424W        W78492  12.298  13.310  12.478
11425W        W78493  33.494  31.464   0.820
11426W        W78494  18.549  16.744  13.056
11427W        W78495  29.142   5.281   3.657
11428W        W78496  31.489  12.808   0.852
11429W        W78497  28.470  39.435  14.890
11430W        W78498   0.894  12.768  14.006
11431W        W78499  14.749  23.233  12.039
11432W        W78500  11.695  10.229   4.782
11433W        W78501  21.019  25.034   3.857
11434W        W78502  19.050  40.852   2.344
11435W        W78503  30.099  36.585  11.384
11436W        W78504  26.066  19.268  11.443
11437W        W78505   9.347  21.549  13.032
11438W        W78506  33.978  34.917  12.985
11439W        W78507  20.254  12.808  13.859
11440W        W78508  16.156  34.951  14.388
11441W        W78509   5.302  38.405  14.889
11442W        W78510  20.734  42.781   4.218
11443W        W78511  32.464   4.241   1.843
11444W        W78512  21.697  41.526  14.794
11445W        W78513   7.227  39.375  11.973
11446W        W78514  28.485  12.244   2.198
11447W        W78515  44.272  21.712  11.114
11448W        W78516   9.871  37.053   0.847
11449W        W78517   1.392  30.942  12.428
11450W        W78518   3.830  33.956   2.361
11451W        W78519  43.930   1.359  13.350
11452W        W78520  31.433   8.323  14.286
11453W        W78521  11.747  13.642  13.310
11454W        W78522  36.551  35.554  14.779
11455W        W78523  20.040  16.694   4.274
11456W        W78524  39.491   5.846  11.123
11457W        W78525   0.880   0.298  10.427
11458W        W78526  44.973  35.053   0.915
11459W        W78527   8.779  30.134   3.146
11460W        W78528  14.615  27.063   0.867
11461W        W78529   6.797   6.265  12.344
11462W        W78530  32.490  35.952  13.309
11463W        W78531  35.529  12.744   4.347
11464W        W78532  41.983  31.483   1.216
11465W        W78533  34.934  38.044   4.333
11466W        W78534  24.209   9.319  10.459
11467W        W78535  27.966   8.304  13.792
11468W        W78536  25.187  42.014   0.370
11469W        W78537   3.429  41.002   1.289
11470W        W78538  16.665  31.502  11.389
11471W        W78539   6.881  15.690  10.491
11472W        W78540  11.300  30.540   0.780
11473W        W78541  23.538  12.696   1.924
11474W        W78542   7.695  17.801   0.813
11475W        W78543  36.073   0.925   0.946
11476W        W78544   0.804  37.001   4.115
11477W        W78545   1.814  12.735   2.858
11478W        W78546  38.016   4.741  10.008
11479W        W78547   0.297  29.144   1.226
11480W        W78548  23.550  29.955  10.617
11481W        W78549  25.642  27.455  12.067
11482W        W78550  32.616   1.820  14.000
11483W        W78551  11.695  36.863   0.474
11484W        W78552  43.283   9.294   2.217
11485W        W78553  44.769  33.930   0.477
11486W        W78554  12.309  26.592   1.329
11487W        W78555   5.824  40.852   1.780
11488W        W78556  43.938  43.283  11.504
11489W        W78557  33.987  35.431  10.628
11490W        W78558  11.675  25.216   5.083
11491W        W78559  39.011  37.522   4.278
11492W        W78560  16.687   4.307   2.902
11493W        W78561  29.923  21.169  13.367
11494W        W78562  29.536  22.022   1.408
11495W        W78563  24.111  44.766   0.415
11496W        W78564  44.992  30.613   1.442
11497W        W78565   2.330  38.853  11.073
11498W        W78566  38.433   4.314  10.933
11499W        W78567  32.017  17.747  10.600
11500W        W78568  14.144   3.945   2.868
11501W        W78569   9.165  24.028   2.199
11502W        W78570  10.718  43.488   4.691
11503W        W78571  17.603  37.862  12.540
11504W        W78572   7.782  39.890   0.869
11505W        W78573  41.861  35.858  13.826
11506W        W78574  20.156  37.538   4.785
11507W        W78575  28.656  36.391   2.340
11508W        W78576  17.644  44.486   3.821
11509W        W78577  31.422  10.321   4.814
11510W        W78578   1.774  16.587   4.600
11511W        W78579  29.955  30.037  12.057
11512W        W78580   6.284  30.519   0.870
11513W        W78581  23.025   3.856  12.410
11514W        W78582  33.079  31.032   3.720
11515W        W78583  38.911  15.698   0.935
11516W        W78584   6.840  37.038   1.304
11517W        W78585  21.229   3.801   3.279
11518W        W78586  42.843  19.579  14.390
11519W        W78587  13.692  10.268  10.604
11520W        W78588   7.185  26.097  10.942
11521W        W78589  17.672   5.274  13.548
11522W        W78590   8.804  33.082   2.394
11523W        W78591  40.371  18.600  13.814
11524W        W78592  37.410   9.395   3.680
11525W        W78593  23.994  23.704  11.084
11526W        W78594  14.239   0.431  12.936
11527W        W78595   1.254  40.011   3.384
11528W        W78596  34.865   1.834  11.483
11529W        W78597  18.113  41.932  12.840
11530W        W78598  25.966  36.539  13.357
11531W        W78599  21.561  17.211   2.743
11532W        W78600  11.232  42.921   1.346
11533W        W78601   6.226  36.512  12.499
11534W        W78602  30.465   9.169   2.300
11535W        W78603  30.933  27.669   4.140
11536W        W78604  43.468  41.297   3.780
11537W        W78605  44.461  17.063  12.063
11538W        W78606   3.307  13.213  12.510
11539W        W78607  44.977  44.258  10.449
11540W        W78608  19.193  21.171  11.489
11541W        W78609  17.168  24.083  12.039
11542W        W78610   5.356  43.291  13.506
11543W        W78611  15.786   6.751  12.570
11544W        W78612  21.697  32.913   1.247
11545W        W78613  28.972   8.872   3.667
11546W        W78614  33.922  26.676   5.085
11547W        W78615   9.367  40.377  14.007
11548W        W78616   8.656  32.406  11.113
11549W        W78617  10.873  30.100  13.511
11550W        W78618  36.405  16.780  14.362
11551W        W78619   9.186   3.386   0.932
11552W        W78620   0.983  15.783  11.506
11553W        W78621  42.287  22.123  12.089
11554W        W78622  29.167  21.072  14.479
11555W        W78623  39.931  44.854   1.795
11556W        W78624  13.803  28.937   0.898
11557W        W78625  32.614  40.844   4.812
11558W        W78626  13.783  44.334   3.678
11559W        W78627  34.447   2.822   2.896
11560W        W78628  13.331  34.941   1.709
11561W        W78629   6.752  11.247  14.806
11562W        W78630   4.803  39.413   3.203
11563W        W78631  36.909  26.496   2.286
11564W        W78632  28.955  23.169   3.868
11565W        W78633  10.751  24.044   3.342
11566W        W78634  15.669  28.030   9.969
11567W        W78635  14.623  27.158   2.412
11568W        W78636   7.313   4.828   0.362
11569W        W78637  29.454   8.758  14.017
11570W        W78638  43.398   8.817   2.819
11571W        W78639  37.497  11.824  11.004
11572W        W78640  41.328  36.559   1.822
11573W        W78641   7.733   2.350  13.385
11574W        W78642  15.316   9.731  13.322
11575W        W78643  29.016   9.865  11.871
11576W        W78644   6.844  34.469   0.356
11577W        W78645  20.616  29.123   0.848
11578W        W78646  11.159  19.667   4.305
11579W        W78647   8.770  33.454   3.154
11580W        W78648  43.871   8.673   0.886
11581W        W78649  19.673  21.135   1.372
11582W        W78650   0.758  26.096   1.783
11583W        W78651  12.683  28.494  11.522
11584W        W78652  43.462  39.924  14.347
11585W        W78653  44.954  41.407  13.018
11586W        W78654  35.046  41.442  10.950
11587W        W78655  28.642  35.493  12.490
11588W        W78656  38.825  44.356  14.889
11589W        W78657  33.097  33.568   4.348
11590W        W78658  15.102  36.964  14.971
11591W        W78659  38.325  22.250   4.704
11592W        W78660  37.021   1.959   3.257
11593W        W78661   6.726  15.816   2.376
11594W        W78662  43.481   4.731  11.886
11595W        W78663  11.840   1.437   3.707
11596W        W78664  29.054  15.705   2.309
11597W        W78665  19.195   2.940   4.809
11598W        W78666  11.305  43.495  14.464
11599W        W78667  24.218  14.630   4.186
11600W        W78668  41.422  36.932  11.873
11601W        W78669  11.159  29.527   0.819
11602W        W78670  25.084  15.150   1.764
11603W        W78671  18.683   1.387  11.546
11604W        W78672   9.752  42.997  12.074
11605W        W78673  34.481  30.112  13.001
11606W        W78674  35.404  27.087  12.082
11607W        W78675  17.643   0.922   0.435
11608W        W78676   4.869  19.559   2.872
11609W        W78677  34.426  11.210  14.367
11610W        W78678  33.096   5.897  13.462
11611W        W78679  30.966  28.174   4.614
11612W        W78680  21.561  19.136   4.681
11613W        W78681  19.209  42.950   3.669
11614W        W78682   7.698  34.583  11.588
11615W        W78683  20.190  24.155  10.581
11616W        W78684   9.390   3.756  12.090
11617W        W78685  11.230  26.457  12.361
11618W        W78686  37.522   0.431   0.802
11619W        W78687  18.276  43.998  13.959
11620W        W78688  22.746  16.639  14.010
11621W        W78689  17.081  28.604   2.198
11622W        W78690   1.734  41.342  11.605
11623W        W78691  15.615  36.519  13.963
11624W        W78692   9.789  27.144   2.364
11625W        W78693  15.190   7.302  13.912
11626W        W78694  43.847  30.567   0.923
11627W        W78695   6.306  26.691   1.765
11628W        W78696  11.236  29.978  12.051
11629W        W78697  34.977   5.724   1.729
11630W        W78698  26.123  31.002  11.441
11631W        W78699  20.620  27.632  10.438
11632W        W78700  44.988   4.803  12.549
11633W        W78701  21.039  43.453   3.362
11634W        W78702  13.172  27.077  13.041
11635W        W78703  17.615  25.188   1.878
11636W        W78704  10.349   9.304   2.200
11637W        W78705   8.166  33.942  13.333
11638W        W78706   9.254   9.771  13.912
11639W        W78707   7.235  14.315   3.702
11640W        W78708   8.706  14.160  14.494
11641W        W78709  12.690  18.587   4.212
11642W        W78710  37.548  35.480   3.325
11643W        W78711   2.731  31.046  12.476
11644W        W78712  27.533  27.451  11.607
11645W        W78713  43.945   1.875   1.249
11646W        W78714  40.829  22.581  14.893
11647W        W78715  13.628  14.124  12.522
11648W        W78716  11.814   0.828  13.916
11649W        W78717  19.256   5.316  11.058
11650W        W78718   1.257  41.453  10.404
11651W        W78719  35.034  23.053   3.711
11652W        W78720  14.181  23.656   1.728
11653W        W78721  14.300  29.137  14.865
11654W        W78722   0.896  23.020   4.786
11655W        W78723  24.197  24.627   4.735
11656W        W78724  44.873  41.343   0.747
11657W        W78725   1.382  27.535  14.958
11658W        W78726  10.668  28.000  12.356
11659W        W78727   7.182  35.994   3.215
11660W        W78728  39.824  33.625   3.757
11661W        W78729  23.563  44.837  13.340
11662W        W78730  42.363  28.596  10.573
11663W        W78731  10.175  11.711  11.919
11664W        W78732  21.737  31.044   0.797
11665W        W78733  13.137  31.152  11.026
11666W        W78734  25.163  12.219  14.842
11667W        W78735   0.864  25.142   0.444
11668W        W78736  20.524   3.444  12.375
11669W        W78737   0.379   4.836  14.921
11670W        W78738  24.108  36.989  12.429
11671W        W78739   7.404  21.046   3.157
11672W        W78740   6.752  25.174   3.838
11673W        W78741  10.160   9.756   0.941
11674W        W78742  40.541  12.733   0.361
11675W        W78743   6.330  13.829   4.813
11676W        W78744  13.727  19.590  10.889
11677W        W78745  44.866  13.270   4.611
11678W        W78746   8.777  41.929   4.196
11679W        W78747  19.207  16.146  12.495
11680W        W78748   7.212  41.346  11.384
11681W        W78749   3.278   1.429  10.507
11682W        W78750  28.537  43.909   4.259
11683W        W78751  25.498  41.478  10.448
11684W        W78752   0.305  13.678   0.343
11685W        W78753  41.358   6.762  10.528
11686W        W78754  43.983  29.669   0.799
11687W        W78755  29.555  39.979  13.869
11688W        W78756  10.347  11.678   2.827
11689W        W78757  39.532  26.603  10.994
11690W        W78758  40.981   4.826   0.367
11691W        W78759  41.298   2.359  13.490
11692W        W78760  15.245  22.732  13.002
11693W        W78761  21.521  19.547   0.892
11694W        W78762  36.391   8.404   4.336
11695W        W78763  36.553  34.118  14.766
11696W        W78764  27.618   3.729  12.556
11697W        W78765  26.177  31.014   4.155
11698W        W78766  43.970   3.823   2.213
11699W        W78767  12.762  36.482   0.824
11700W        W78768  44.805  37.835  11.991
11701W        W78769  40.461  14.202   4.702
11702W        W78770  36.382  32.580   0.317
11703W        W78771  42.830   8.768   3.195
11704W        W78772  17.302   3.724   1.912
11705W        W78773  13.246  16.133   3.290
11706W        W78774  21.613  20.042   1.404
11707W        W78775  24.084  36.960   2.749
11708W        W78776  24.624  43.364  13.001
11709W        W78777  11.643  22.720  11.506
11710W        W78778   5.242  20.615   3.660
11711W        W78779   7.247  21.523  13.937
11712W        W78780   9.698  27.094  14.396
11713W        W78781  15.762  34.551   9.945
11714W        W78782  34.105  21.556   4.663
11715W        W78783  13.255  43.913  14.326
11716W        W78784  41.815   7.394   2.376
11717W        W78785  27.590  16.201   1.408
11718W        W78786  31.018  14.766   1.931
11719W        W78787  26.959  20.208  12.359
11720W        W78788  20.199  15.790   1.441
11721W        W78789  23.158  40.415  10.507
11722W        W78790  23.018  30.103   3.631
11723W        W78791  44.865  41.502  13.912
11724W        W78792  35.531  40.506   4.166
11725W        W78793  12.721  14.745   0.472
11726W        W78794  22.249  44.375  10.496
11727W        W78795  36.063  44.003  11.112
11728W        W78796  42.359  15.744   4.697
11729W        W78797  10.209  19.578   1.405
11730W        W78798  23.569  14.740   3.755
11731W        W78799  26.146  17.557  11.992
11732W        W78800  22.516   7.264  10.616
11733W        W78801   3.733  41.809   3.663
11734W        W78802  40.463  36.382  13.988
11735W        W78803   5.793  21.182   1.278
11736W        W78804  28.520  24.596  12.846
11737W        W78805  37.086  14.611   2.678
11738W        W78806  38.878  16.199   4.288
11739W        W78807   9.349   4.853   1.786
11740W        W78808  40.476  28.451   0.852
11741W        W78809  14.640  43.306   1.307
11742W        W78810  27.663  10.846   1.364
11743W        W78811  38.374  30.611  10.973
11744W        W78812  18.174  29.637  14.019
11745W        W78813   8.796  36.020  10.521
11746W        W78814  40.915  11.707   4.288
11747W        W78815  32.632  33.933  13.969
11748W        W78816  26.493  27.134   5.220
11749W        W78817  29.521  41.298  14.836
11750W        W78818  38.935  24.985   5.266
11751W        W78819   8.375  38.427   3.631
11752W        W78820  44.811  28.474   1.902
11753W        W78821  12.845   2.453  13.015
11754W        W78822  21.263  27.153   0.787
11755W        W78823  22.153  14.181  12.471
11756W        W78824  19.642  18.251  13.842
11757W        W78825  16.186  12.649   3.671
11758W        W78826   0.395   5.282  12.902
11759W        W78827  36.886  20.160  13.031
11760W        W78828  43.365  37.417  11.881
11761W        W78829  42.432  41.831   0.887
11762W        W78830  27.483  16.142   0.813
11763W        W78831  44.267  31.982   3.785
11764W        W78832  27.031  16.158   4.701
11765W        W78833   7.335  16.806   2.836
11766W        W78834  28.538  25.636  13.880
11767W        W78835  25.561  43.811  11.882
11768W        W78836  18.094  28.027  12.914
11769W        W78837  15.658  36.424   3.703
11770W        W78838  30.461   7.269  12.570
11771W        W78839  22.693  27.483   2.706
11772W        W78840  26.518  13.702  13.928
11773W        W78841  19.263  37.470  12.990
11774W        W78842  15.747  20.181  10.924
11775W        W78843  34.480  17.183  14.877
11776W        W78844  15.176   2.309   1.319
11777W        W78845  35.857  37.871  12.828
11778W        W78846  10.743  17.259  14.803
11779W        W78847  39.371  17.653  14.418
11780W        W78848  31.114  12.262  12.078
11781W        W78849  32.083   1.238  11.127
11782W        W78850  29.565  23.689  13.791
11783W        W78851  38.392  29.992  14.349
11784W        W78852  14.216  24.017  12.000
11785W        W78853  11.315  11.194  13.934
11786W        W78854  20.093  27.657   4.302
11787W        W78855  31.007  11.329  11.000
11788W        W78856  30.540  37.067  13.852
11789W        W78857  21.614   4.240   4.740
11790W        W78858  23.671   0.826  14.782
11791W        W78859  40.914  37.034   4.607
11792W        W78860  18.291  34.044  12.040
11793W        W78861  20.062  44.373   2.705
11794W        W78862  35.958  22.731  14.295
11795W        W78863   8.861  26.576  13.340
11796W        W78864  27.162  33.615  14.761
11797W        W78865  28.068  11.764   1.760
11798W        W78866  20.274  36.059  11.546
11799W        W78867   8.716  30.926   1.873
11800W        W78868  10.251  37.418  10.627
11801W        W78869  39.366  32.886   1.742
11802W        W78870  31.142  13.799  11.420
11803W        W78871  10.369   3.363   1.878
11804W        W78872  39.440  36.066  11.860
11805W        W78873  25.208  14.218   3.667
11806W        W78874  15.140   1.320   2.776
11807W        W78875  12.169  25.163   0.284
11808W        W78876  27.051  34.385  10.103
11809W        W78877  36.351  15.163  11.447
11810W        W78878  17.307  22.622  14.774
11811W        W78879  24.988  10.173  10.940
11812W        W78880  14.161  23.536   2.799
11813W        W78881  15.655   3.831   4.792
11814W        W78882  14.214  34.003  14.381
11815W        W78883   7.721  33.121  11.565
11816W        W78884  28.130  28.170   4.271
11817W        W78885  10.146   2.772   1.217
11818W        W78886  40.337  15.797   1.696
11819W        W78887  30.068  31.975   4.319
11820W        W78888  16.623   9.349   4.343
11821W        W78889  27.619   6.804  13.808
11822W        W78890   1.921  42.318   1.715
11823W        W78891  27.990  29.447  14.778
11824W        W78892  30.952  12.726   0.806
11825W        W78893  28.441  10.169   0.923
11826W        W78894  41.393  31.403  11.433
11827W        W78895  17.306  34.422   3.718
11828W        W78896  13.839  20.605   2.211
11829W        W78897  18.272   0.906   1.363
11830W        W78898  37.971   3.844   1.239
11831W        W78899  39.536  30.948  13.872
11832W        W78900  16.784  14.312  12.464
11833W        W78901   7.248  25.061   4.187
11834W        W78902   2.936  29.108  12.379
11835W        W78903   0.876  13.229   0.311
11836W        W78904  30.561  19.667   1.389
11837W        W78905  26.535   8.700  11.020
11838W        W78906  19.762  31.498   4.215
11839W        W78907   6.879  25.205   3.350
11840W        W78908  13.835  31.934  10.489
11841W        W78909  17.188  32.502   0.959
11842W        W78910  13.673   2.287   1.703
11843W        W78911  32.538  29.627   1.732
11844W        W78912  11.318  38.914  10.444
11845W        W78913   4.328   1.303  14.974
11846W        W78914  12.356  11.791  12.824
11847W        W78915  24.211  34.459  11.578
11848W        W78916   0.802  26.137  12.954
11849W        W78917   4.746  36.478   1.312
11850W        W78918   5.762  22.237  12.901
11851W        W78919  35.889  10.689  13.804
11852W        W78920  19.621  41.877   3.161
11853W        W78921  39.836  40.928  10.632
11854W        W78922  41.914  30.005  10.968
11855W        W78923  34.993  21.242  14.930
11856W        W78924  37.830  32.536  14.325
11857W        W78925  29.959  21.605  11.588
11858W        W78926  44.399  33.579  14.978
11859W        W78927  22.557  32.018   5.224
11860W        W78928   7.771   9.733  14.286
11861W        W78929   2.256  24.628  10.958
11862W        W78930  17.753  21.745  14.385
11863W        W78931  44.896  21.683   3.810
11864W        W78932   3.812  37.369   2.832
11865W        W78933  24.019  29.482  13.528
11866W        W78934  35.879  34.090   2.879
11867W        W78935  40.992   4.328  10.612
11868W        W78936  13.183  39.502  10.889
11869W        W78937   7.245   0.337   2.692
11870W        W78938   4.353   8.702   4.837
11871W        W78939  14.276  28.454   1.319
11872W        W78940  42.405  19.283  10.626
11873W        W78941  34.409   9.218   2.179
11874W        W78942  17.094  17.195  14.847
11875W        W78943   8.836  12.288  13.814
11876W        W78944  42.315  25.136   0.834
11877W        W78945   8.828   6.310   4.248
11878W        W78946  13.759   0.896  13.015
11879W        W78947   9.784  35.532   4.235
11880W        W78948  16.281  38.945   2.191
11881W        W78949  15.320   4.291   4.825
11882W        W78950   2.284  20.083   1.222
11883W        W78951  30.927  42.428   4.252
11884W        W78952  10.328   0.934   2.275
11885W        W78953  26.632   0.989  13.480
11886W        W78954  23.188   2.930   4.338
11887W        W78955  26.201   1.244   3.720
11888W        W78956  15.662  29.148   5.126
11889W        W78957  29.558  19.654   2.858
11890W        W78958  30.986  34.428   1.839
11891W        W78959   4.277   3.862   2.179
11892W        W78960  13.602  14.101  13.406
11893W        W78961  24.582  36.952   0.475
11894W        W78962  40.502  35.462  14.003
11895W        W78963   6.310  26.617   2.260
11896W        W78964  28.037  29.983  11.122
11897W        W78965  14.317  44.305  14.400
11898W        W78966  13.157  24.539   3.335
11899W        W78967  29.602  30.440  14.870
11900W        W78968   6.700  36.492  10.554
11901W        W78969  20.577   7.901   1.359
11902W        W78970  37.455  11.214  11.905
11903W        W78971  25.174  13.261  14.987
11904W        W78972  36.491  34.061  10.575
11905W        W78973  21.725   1.404   4.238
11906W        W78974  30.440  21.098   2.181
11907W        W78975  28.175  10.714   1.382
11908W        W78976  16.173  39.906  11.948
11909W        W78977  41.788  41.366   1.889
11910W        W78978   2.739  13.634   0.944
11911W        W78979  26.033   1.926  11.076
11912W        W78980  20.574  42.304   0.773
11913W        W78981  41.471   3.292   1.363
11914W        W78982   2.925  25.524   0.907
11915W        W78983   3.751  13.731  14.308
11916W        W78984  37.045   9.709  12.369
11917W        W78985  31.529   4.220  14.335
11918W        W78986  40.907  26.571   3.159
11919W        W78987  43.285   3.328  11.568
11920W        W78988  13.166  21.129   3.713
11921W        W78989  43.303  14.644   4.680
11922W        W78990  25.700  40.814   4.756
11923W        W78991  10.840   6.851  11.073
11924W        W78992   0.306  24.607   0.959
11925W        W78993  33.931  26.494  10.947
11926W        W78994  23.077  15.663   1.284
11927W        W78995  14.106  26.690  14.948
11928W        W78996  30.123  12.356  13.421
11929W        W78997   5.881  13.189   3.668
11930W        W78998   2.915  36.438  11.922
11931W        W78999   9.779  19.714   4.741
11932W        W79000  25.968  18.579   3.865
11933W        W79001   0.445   4.293   0.748
11934W        W79002  35.599  17.136   3.301
11935W        W79003  37.405   5.315   4.649
11936W        W79004   8.799  15.614   0.269
11937W        W79005   8.661  19.726   1.314
11938W        W79006  11.831  33.040  12.343
11939W        W79007  38.909   6.776   2.341
11940W        W79008  15.107  36.485  14.289
11941W        W79009   7.761  13.831  14.281
11942W        W79010  39.496   2.411   0.806
11943W        W79011  21.144   0.885   4.709
11944W        W79012  35.982  32.424  11.856
11945W        W79013  11.786  35.052  10.057
11946W        W79014  14.179   9.388  13.974
11947W        W79015  42.469   9.760  12.089
11948W        W79016  20.168   2.329   2.699
11949W        W79017  28.675  11.732   1.378
11950W        W79018  14.641   0.270  11.128
11951W        W79019   3.742   8.685  14.767
11952W        W79020  15.690   7.296   5.271
11953W        W79021  27.109  43.495   1.743
11954W        W79022  35.099  12.124   0.304
11955W        W79023  16.114   5.282  12.563
11956W        W79024  38.475   3.344   0.453
11957W        W79025  22.019  37.881   0.824
11958W        W79026  20.599  39.398   1.239
11959W        W79027  28.601  19.714  11.035
11960W        W79028   2.251  30.453   3.285
11961W        W79029  30.099  36.914   3.681
11962W        W79030  12.682  44.929   3.352
11963W        W79031  34.415  14.801  12.031
11964W        W79032  19.684  33.552   3.699
11965W        W79033  27.123  29.490   2.757
11966W        W79034   8.661  23.509  10.459
11967W        W79035  22.731  12.699  10.089
11968W        W79036  33.882  14.784  13.981
11969W        W79037  12.762  20.212  12.024
11970W        W79038   6.332  12.234  11.421
11971W        W79039   8.268  29.551   0.243
11972W        W79040  44.292   5.912  12.356
11973W        W79041  26.144  35.510   2.725
11974W        W79042  28.540  11.715   1.861
11975W        W79043   5.825  10.709   4.820
11976W        W79044  17.106   7.900  11.963
11977W        W79045  15.267  37.554   2.811
11978W        W79046  21.122  38.435   3.252
11979W        W79047  44.884  31.128   1.424
11980W        W79048  35.970   2.421  14.800
11981W        W79049  24.161   3.224  14.283
11982W        W79050  11.271  31.492   4.615
11983W        W79051   7.214   2.879  10.505
11984W        W79052  42.346  24.099   4.765
11985W        W79053   5.199  34.072   3.285
11986W        W79054  29.146  34.505   0.382
11987W        W79055   6.310   3.810  11.090
11988W        W79056  36.557  39.370   0.456
11989W        W79057  29.153  11.715  11.499
11990W        W79058  11.260  38.940  13.872
11991W        W79059  10.735  13.224  10.536
11992W        W79060  27.468  25.125   2.405
11993W        W79061  38.057  44.276  10.505
11994W        W79062   9.216  14.767  13.980
11995W        W79063  30.105  25.530  12.345
11996W        W79064  20.242   8.737   3.758
11997W        W79065  41.912   1.236  13.924
11998W        W79066  31.524   3.248  12.477
11999W        W79067  37.545  21.025   9.971
12000W        W79068   3.314   3.827   2.370
12001W        W79069  32.497   1.357  11.936
12002W        W79070  12.201  44.494  12.402
12003W        W79071  43.910  15.157  10.460
12004W        W79072  34.372   5.218   4.657
12005W        W79073   8.840   6.334  14.482
12006W        W79074  31.005  35.391   2.729
12007W        W79075  11.629  16.072   2.821
12008W        W79076  25.559  29.636  13.022
12009W        W79077   3.324  10.263  12.932
12010W        W79078  26.157  13.633  10.604
12011W        W79079  23.231  40.441  14.956
12012W        W79080   8.771   5.758   4.272
12013W        W79081  16.287   0.983  11.062
12014W        W79082  15.228   9.231  14.980
12015W        W79083  35.441  19.146  12.417
12016W        W79084   3.234  18.212   4.838
12017W        W79085  43.418   1.245  11.048
12018W        W79086  35.575  40.326   1.888
12019W        W79087  23.728   9.801   3.319
12020W        W79088  32.019  18.148   2.800
12021W        W79089  28.061  35.038   4.126
12022W        W79090  44.379  11.364   1.895
12023W        W79091  44.816  31.489   1.872
12024W        W79092  21.618  36.475  11.941
12025W        W79093   9.260  15.257  12.571
12026W        W79094   1.313  41.992   3.842
12027W        W79095  26.620  32.599   1.837
12028W        W79096  44.877   0.748  12.027
12029W        W79097   7.724  23.640  11.974
12030W        W79098  15.189  20.608  14.001
12031W        W79099  23.182  25.539   0.478
12032W        W79100  21.077  40.414   4.275
12033W        W79101  38.469  33.914  12.877
12034W        W79102  35.562  20.117  13.898
12035W        W79103  43.970  39.880   0.825
12036W        W79104  26.022  27.685   0.344
12037W        W79105  34.390  44.270  12.094
12038W        W79106  39.849  24.482   4.313
12039W        W79107   1.904  23.092   0.785
12040W        W79108  36.905   1.851   0.905
12041W        W79109   6.222   3.299  14.298
12042W        W79110  26.009  18.598   0.934
12043W        W79111  35.916  15.293   3.202
12044W        W79112   7.674  38.840  12.988
12045W        W79113   1.748  21.711   0.459
12046W        W79114   4.940  27.591  13.545
12047W        W79115  22.059  43.461  13.019
12048W        W79116  28.598  22.242  11.937
12049W        W79117   1.427  22.515   2.231
12050W        W79118  39.884   8.698   4.288
12051W        W79119  11.250  35.553  10.556
12052W        W79120  22.204  14.771   4.230
12053W        W79121  29.604  31.152  11.447
12054W        W79122  29.478  34.881   0.824
12055W        W79123   4.396  38.563   3.245
12056W        W79124  38.006  35.572  11.385
12057W        W79125  30.988  14.190  11.409
12058W        W79126   0.462  41.879  13.001
12059W        W79127   9.156  38.360   2.742
12060W        W79128  42.294  36.865   0.253
12061W        W79129   9.292  35.475   3.751
12062W        W79130  43.407  19.547   4.672
12063W        W79131  19.207  42.405  13.006
12064W        W79132  27.637  39.830   3.807
12065W        W79133  31.003  39.437  11.457
12066W        W79134  11.643  22.154  11.880
12067W        W79135  25.217  22.232  14.838
12068W        W79136  31.447  13.659   1.695
12069W        W79137  34.922   0.270  11.610
12070W        W79138  33.886   3.446  12.833
12071W        W79139  26.506  14.715   2.717
12072W        W79140  36.483  15.809   1.383
12073W        W79141  10.767  22.194   1.929
12074W        W79142  13.758  30.992  10.971
12075W        W79143  33.036  39.064   1.370
12076W        W79144  40.436  43.291   0.385
12077W        W79145  32.597  15.123  13.016
12078W        W79146  25.156  22.600   4.277
12079W        W79147  38.898  42.869  10.154
12080W        W79148  28.627  14.687  14.451
12081W        W79149  38.368  22.055   2.204
12082W        W79150   1.786   0.264  14.994
12083W        W79151  18.705  38.894   4.341
12084W        W79152  23.643  32.053  10.521
12085W        W79153  27.484  11.225  11.477
12086W        W79154  24.585   3.863   4.613
12087W        W79155  24.643  35.596  11.608
12088W        W79156  26.632  11.183   0.737
12089W        W79157  43.808  33.448  10.905
12090W        W79158  19.763  12.265  13.915
12091W        W79159  32.455  30.095   0.888
12092W        W79160  12.755  26.104  14.351
12093W        W79161   4.213  21.584  12.459
12094W        W79162  18.736  17.174  11.374
12095W        W79163   8.237  30.597   4.833
12096W        W79164  41.477  34.979  14.843
12097W        W79165  38.431  24.592   2.201
12098W        W79166  22.605  36.368   2.756
12099W        W79167  11.339  16.697  10.910
12100W        W79168  15.664  20.204   2.819
12101W        W79169  38.490  11.259   2.775
12102W        W79170  33.494  30.596  10.453
12103W        W79171  17.255  32.117  11.098
12104W        W79172   6.248  39.990   4.271
12105W        W79173  37.514  39.829   2.689
12106W        W79174   2.302  30.500   4.812
12107W        W79175  10.647  35.965   2.302
12108W        W79176  43.279  41.333   3.261
12109W        W79177  28.516  36.854  13.017
12110W        W79178   1.788  24.991  12.066
12111W        W79179  23.670  19.578   4.808
12112W        W79180   3.763  24.663  14.396
12113W        W79181  19.596  24.680   0.355
12114W        W79182   4.819  14.825   0.326
12115W        W79183   7.290  11.642  11.047
12116W        W79184   6.309   3.827   0.420
12117W        W79185  13.713   7.317  14.860
12118W        W79186  29.173  29.618  12.832
12119W        W79187   5.338  27.641  11.912
12120W        W79188  26.663  29.443   4.288
12121W        W79189  31.036  39.037  14.919
12122W        W79190  13.766  22.093   4.619
12123W        W79191  29.446   2.266  12.908
12124W        W79192  22.075  21.246  14.394
12125W        W79193  34.383  12.640   1.749
12126W        W79194  17.784  10.845  13.894
12127W        W79195  35.941  40.875   3.314
12128W        W79196  43.346  38.826  13.851
12129W        W79197  38.020  43.973   4.216
12130W        W79198  40.328  28.609  11.444
12131W        W79199   8.334   3.760   1.855
12132W        W79200  21.538  29.579  14.308
12133W        W79201  32.471  34.461  13.542
12134W        W79202   8.805  42.515   3.778
12135W        W79203  15.646  13.300   3.759
12136W        W79204  20.186   6.309  10.562
12137W        W79205  14.149  40.027   4.599
12138W        W79206  41.499   0.481   1.269
12139W        W79207  25.025   8.678  11.106
12140W        W79208  25.968  30.996   3.778
12141W        W79209  38.385  34.095   2.702
12142W        W79210   6.840   9.870  14.361
12143W        W79211  25.176  17.742  13.394
12144W        W79212  31.038   9.869   3.761
12145W        W79213  34.404  43.308  10.497
12146W        W79214  10.709  42.945   2.790
12147W        W79215   9.299  12.833   4.294
12148W        W79216  17.677   3.235  13.495
12149W        W79217  40.531   1.244  14.304
12150W        W79218   8.723  16.586   1.270
12151W        W79219  27.492  25.542   0.307
12152W        W79220  40.895  33.126  14.861
12153W        W79221  35.988  14.714  13.989
12154W        W79222   9.697  33.131   3.865
12155W        W79223  44.869  44.334   3.353
12156W        W79224  19.629  30.556   2.663
12157W        W79225  34.516  26.465  12.375
12158W        W79226  35.877  33.622  10.960
12159W        W79227  14.670   7.906  14.415
12160W        W79228  15.123  25.683  13.809
12161W        W79229  10.300  12.611   4.788
12162W        W79230  37.439   9.861   1.348
12163W        W79231  29.023   4.269  13.815
12164W        W79232  30.133  13.676  10.487
12165W        W79233   9.391  43.867   1.799
12166W        W79234  41.464  10.315   4.650
12167W        W79235   5.832  10.680  13.962
12168W        W79236  11.175  19.684  14.442
12169W        W79237  26.107  39.340   1.915
12170W        W79238  32.634  29.464  13.850
12171W        W79239  13.647  32.399  10.567
12172W        W79240  23.073  16.283  10.597
12173W        W79241  32.433  24.650  13.792
12174W        W79242  15.205  29.948   1.827
12175W        W79243   1.299   4.880   2.378
12176W        W79244  18.222  25.116   4.612
12177W        W79245   7.777  34.556  12.865
12178W        W79246  37.917  11.316  10.451
12179W        W79247  39.958   4.866  13.411
12180W        W79248  26.573   9.223  12.408
12181W        W79249  25.654  18.640   0.884
12182W        W79250  10.173  11.199   0.740
12183W        W79251  38.857  41.355   3.724
12184W        W79252  33.991  39.824   1.232
12185W        W79253  43.435  34.866   2.876
12186W        W79254  23.729  11.833   3.243
12187W        W79255  17.558  33.559  14.296
12188W        W79256  10.687  22.726   9.951
12189W        W79257  32.635  44.914  10.569
12190W        W79258  10.754  21.226   3.183
12191W        W79259  41.486  24.067  14.999
12192W        W79260   4.876  35.462  11.958
12193W        W79261  41.869  18.252   4.259
12194W        W79262  41.474  38.427  12.397
12195W        W79263   5.230   8.731   1.816
12196W        W79264  19.283  40.998  12.092
12197W        W79265   0.475  11.741  12.011
12198W        W79266   8.774  13.321  13.927
12199W        W79267  33.878  34.490   1.305
12200W        W79268  16.698  30.437  11.880
12201W        W79269  44.767  29.964   2.358
12202W        W79270   4.874   0.468   3.684
12203W        W79271   9.163   8.342  11.081
12204W        W79272  25.621  36.956   4.600
12205W        W79273   0.267  31.944   5.105
12206W        W79274  19.161  42.828  11.897
12207W        W79275  40.015  34.525  10.608
12208W        W79276  36.530   4.436   0.758
12209W        W79277  32.978  13.301   2.760
12210W        W79278  15.155  28.053  10.447
12211W        W79279  16.148  34.527  10.502
12212W        W79280  41.863   9.798  12.858
12213W        W79281  22.698   0.784  14.872
12214W        W79282  42.814  17.259  14.394
12215W        W79283  43.881  41.887   3.664
12216W        W79284  21.190  21.219  12.418
12217W        W79285  15.735   3.883   3.295
12218W        W79286   9.178  37.469  12.997
12219W        W79287  26.680  10.820  13.447
12220W        W79288   7.345  28.471  14.365
12221W        W79289  24.111  14.260   2.687
12222W        W79290  20.096  31.979   1.276
12223W        W79291   8.328  17.179  11.418
12224W        W79292  31.488  38.050  11.068
12225W        W79293  39.893   9.268   0.758
12226W        W79294  10.844  17.639   3.784
12227W        W79295  23.684   7.340  13.830
12228W        W79296  39.545  35.068   9.936
12229W        W79297  29.947   1.325  14.388
12230W        W79298  25.032  43.805   2.756
12231W        W79299  26.556  38.031  12.947
12232W        W79300  16.102   6.861   3.647
12233W        W79301  43.986  30.575   4.274
12234W        W79302   0.482  10.690   1.283
12235W        W79303  29.013   3.910  12.495
12236W        W79304  30.155  44.821   2.371
12237W        W79305   5.766  41.361  10.579
12238W        W79306  19.692  36.854  12.573
12239W        W79307  29.512  16.302  11.371
12240W        W79308  26.994  17.065  10.523
12241W        W79309  36.910  36.446  13.860
12242W        W79310  40.958  10.334   3.705
12243W        W79311  31.601   6.780   0.289
12244W        W79312  35.548  38.333   2.404
12245W        W79313  40.349  19.576   4.204
12246W        W79314  23.989  24.123   1.352
12247W        W79315   8.806   8.355  13.458
12248W        W79316  43.952  11.281  11.929
12249W        W79317   7.350  36.554   2.891
12250W        W79318   6.299  36.390  12.063
12251W        W79319  23.680   5.839   2.236
12252W        W79320  24.128   0.778   5.288
12253W        W79321   7.756  30.639   1.293
12254W        W79322  16.799  11.714   1.341
12255W        W79323  23.221  41.035  13.463
12256W        W79324  36.916  18.751   1.930
12257W        W79325  34.562  33.454  10.928
12258W        W79326  42.507  41.478   1.445
12259W        W79327  35.031  31.959  13.381
12260W        W79328   2.329  25.690   3.724
12261W        W79329   3.320  15.823   2.344
12262W        W79330  25.665   3.304   0.902
12263W        W79331  44.505  30.645  11.121
12264W        W79332   4.333  13.325  12.044
12265W        W79333  10.787  11.348  10.636
12266W        W79334  23.571   1.919  12.339
12267W        W79335   0.988  27.026  13.913
12268W        W79336  15.672  30.074   3.833
12269W        W79337  35.592   9.779   2.211
12270W        W79338  37.370  13.150  13.935
12271W        W79339  34.915  10.220   1.800
12272W        W79340   4.396  27.042   4.813
12273W        W79341  31.092  19.631  11.445
12274W        W79342   6.782  18.146   3.724
12275W        W79343  42.916   1.441  14.913
12276W        W79344  15.629  30.148   0.279
12277W        W79345  22.108  36.942   2.396
12278W        W79346  15.192  23.113   2.379
12279W        W79347  22.696  44.904   3.743
12280W        W79348  35.485  30.476   3.794
12281W        W79349  24.193  25.529  13.910
12282W        W79350  35.864  12.242  11.944
12283W        W79351   2.356   3.256  10.459
12284W        W79352  21.223   8.261   3.748
12285W        W79353  12.843   4.784   2.835
12286W        W79354  43.862  38.898  14.835
12287W        W79355  23.669  29.501  11.470
12288W        W79356   5.774   3.763   1.372
12289W        W79357  25.491  30.075   1.301
12290W        W79358  16.636   8.222   1.231
12291W        W79359  31.562  37.897   0.914
12292W        W79360  17.248  27.643   1.848
12293W        W79361   5.424  27.561  13.035
12294W        W79362   3.302  37.917  10.638
12295W        W79363  27.496  30.141  13.523
12296W        W79364   3.818   4.272   4.666
12297W        W79365   2.229  10.638   4.766
12298W        W79366  36.512  10.871  10.424
12299W        W79367  16.734  42.951   4.600
12300W        W79368  22.538   5.397   1.296
12301W        W79369  43.392   4.751   2.200
12302W        W79370  44.876  37.979  13.960
12303W        W79371  24.117   1.759  11.090
12304W        W79372  40.898  33.403  11.419
12305W        W79373   8.390  37.574  11.981
12306W        W79374   8.887   4.382   3.708
12307W        W79375  20.133   6.219  13.377
12308W        W79376  21.099  20.677   0.771
12309W        W79377   8.716  20.758   3.832
12310W        W79378  34.490  14.134  14.415
12311W        W79379  44.787  22.608  13.470
12312W        W79380  14.297  42.367  10.900
12313W        W79381  18.763  20.132   0.926
12314W        W79382  19.262  40.309   1.370
12315W        W79383  37.351   7.389  14.988
12316W        W79384  21.731   4.353   1.783
12317W        W79385  15.661  21.552  13.847
12318W        W79386   0.924  38.378   4.719
12319W        W79387   1.831  18.189  13.385
12320W        W79388  10.372  10.365   5.099
12321W        W79389  12.192  40.318  13.820
12322W        W79390  40.819   1.882   4.711
12323W        W79391   4.832   5.286  14.903
12324W        W79392  20.143  13.629  10.538
12325W        W79393   6.275  35.985   4.813
12326W        W79394  24.998  35.373  14.488
12327W        W79395  12.671   1.258   5.229
12328W        W79396  21.518   8.405   4.157
12329W        W79397  39.519  42.900  11.494
12330W        W79398  19.694  39.451   1.277
12331W        W79399  35.586  40.519  11.938
12332W        W79400  10.772   2.941  11.373
12333W        W79401  20.643  17.192   0.748
12334W        W79402  38.986  11.242   4.730
12335W        W79403   8.287  35.519   4.331
12336W        W79404  21.738  10.690   3.656
12337W        W79405  42.492   9.767   4.222
12338W        W79406  12.842  18.761   1.738
12339W        W79407  19.116  18.103  14.838
12340W        W79408  30.030  36.915  10.445
12341W        W79409  16.750  26.698   1.398
12342W        W79410  12.634  22.558   4.610
12343W        W79411  38.521  40.372   4.256
12344W        W79412  22.041   4.826  11.114
12345W        W79413  11.277   8.386  14.915
12346W        W79414  32.098  38.907  11.582
12347W        W79415  37.402  16.213   2.781
12348W        W79416  27.476  13.220  13.421
12349W        W79417  16.766  44.377  13.858
12350W        W79418  23.038  39.833   0.255
12351W        W79419  38.354  23.217   4.290
12352W        W79420  10.854  40.549  11.076
12353W        W79421  36.867   7.366   2.831
12354W        W79422   8.750  21.207   1.853
12355W        W79423  39.824   3.452  11.600
12356W        W79424  19.620  26.518   3.223
12357W        W79425  10.764  40.005  10.489
12358W        W79426  44.979   0.944  11.604
12359W        W79427   9.181  13.185  11.890
12360W        W79428  17.614  23.033   2.373
12361W        W79429   8.794  36.545  12.850
12362W        W79430  19.227  28.058  14.850
12363W        W79431  41.363   2.472   2.365
12364W        W79432  13.239   8.347   2.398
12365W        W79433  31.591  17.640  12.424
12366W        W79434  25.589  15.278  13.453
12367W        W79435   3.287  13.779  12.485
12368W        W79436  25.683  25.154   1.233
12369W        W79437  13.273  27.093  10.426
12370W        W79438   2.945  32.484  10.972
12371W        W79439   8.794  39.885   3.175
12372W        W79440   2.373  31.153   2.897
12373W        W79441  38.479  24.097  11.060
12374W        W79442   9.687  17.224   0.477
12375W        W79443  38.381  33.895  12.342
12376W        W79444  36.925  22.564  11.499
12377W        W79445  43.329   8.192  12.570
12378W        W79446  15.324   8.193  13.995
12379W        W79447  14.830  23.505  14.792
12380W        W79448  20.116  31.062  12.024
12381W        W79449  14.595  21.601   3.354
12382W        W79450  41.474   0.889   2.673
12383W        W79451  16.772  23.514   4.631
12384W        W79452  34.463  27.476   2.396
12385W        W79453   8.898  35.023  11.477
12386W        W79454   3.845  31.411  12.971
12387W        W79455  44.481   2.348  11.558
12388W        W79456  11.139  27.658   4.660
12389W        W79457  40.498   0.460   0.330
12390W        W79458   5.413  42.413  11.537
12391W        W79459  33.941  38.898   1.766
12392W        W79460  44.893  36.089   4.788
12393W        W79461   1.269  10.789  14.441
12394W        W79462  34.965   6.330  10.601
12395W        W79463  21.597  10.285  13.880
12396W        W79464  23.669  21.180  12.871
12397W        W79465  11.860   2.327   0.427
12398W        W79466  13.743  40.443  14.932
12399W        W79467  40.486   0.260  10.894
12400W        W79468  38.384  10.795  12.522
12401W        W79469  17.681  11.303  11.446
12402W        W79470  29.047   6.786  11.965
12403W        W79471  41.995  21.235   2.221
12404W        W79472  22.632   8.735  14.345
12405W        W79473  29.027  42.297   4.771
12406W        W79474  21.569  39.453   0.824
12407W        W79475   9.654  20.619   3.205
12408W        W79476  33.971  20.202  10.406
12409W        W79477  15.176  40.906   1.216
12410W        W79478  36.034  33.397   1.898
12411W        W79479  24.188   1.770  10.012
12412W        W79480  18.133  20.575  12.387
12413W        W79481  27.691  28.599  13.018
12414W        W79482  41.448   0.895   0.857
12415W        W79483  38.457  12.122  12.834
12416W        W79484  17.211  42.955   4.816
12417W        W79485  44.440   8.162   2.705
12418W        W79486  30.954  36.001   0.844
12419W        W79487  37.499  40.972  10.889
12420W        W79488   4.252  28.057   3.711
12421W        W79489  36.893  13.135   3.361
12422W        W79490   9.237   4.769  10.962
12423W        W79491  24.084  41.528  14.967
12424W        W79492   8.818   8.364  13.064
12425W        W79493  40.971  33.049  13.938
12426W        W79494  28.664   1.928  12.339
12427W        W79495  40.400   5.711  11.418
12428W        W79496  34.597  42.370   1.442
12429W        W79497  22.523  21.517   1.411
12430W        W79498  44.300   3.896  13.332
12431W        W79499   8.189  14.757   4.638
12432W        W79500   1.320  27.457  12.433
12433W        W79501  38.563  11.814   2.724
12434W        W79502  31.083   1.280  13.421
12435W        W79503   7.680  41.391   2.718
12436W        W79504  28.614   3.365  14.469
12437W        W79505  35.540   9.781  12.956
12438W        W79506  30.528  32.536  13.484
12439W        W79507  15.270   0.774  14.504
12440W        W79508  22.639  20.746  13.425
12441W        W79509   7.866   4.941   5.091
12442W        W79510  37.925  14.823  10.547
12443W        W79511  30.025   7.270  14.307
12444W        W79512  36.865   8.891  10.514
12445W        W79513  25.121  13.171  13.032
12446W        W79514  27.493  20.690  14.998
12447W        W79515  34.501   3.866  13.490
12448W        W79516  22.164  41.318   4.245
12449W        W79517  19.267  21.585   5.674
12450W        W79518  21.523   4.708  11.912
12451W        W79519  24.101  16.640   2.305
12452W        W79520   5.870  16.091   0.904
12453W        W79521   7.704  26.503   1.794
12454W        W79522   4.704  12.718  11.515
12455W        W79523  27.977  19.282   3.285
12456W        W79524  23.529  41.994   2.808
12457W        W79525  42.839  41.316   3.744
12458W        W79526  37.375  39.332  14.892
12459W        W79527  14.118  30.634   0.244
12460W        W79528  32.885  33.540   9.954
12461W        W79529  33.588   2.935   4.703
12462W        W79530   0.355  34.611   1.696
12463W        W79531   7.222  10.642  13.379
12464W        W79532  25.212  25.139   3.345
12465W        W79533  42.846   0.939   2.307
12466W        W79534  12.800  14.800  12.467
12467W        W79535  41.895  13.175  13.009
12468W        W79536  34.059  25.665  10.407
12469W        W79537  16.142  32.025  11.479
12470W        W79538  16.262  10.770  14.349
12471W        W79539  43.364  28.940  14.860
12472W        W79540   4.397  34.001  10.558
12473W        W79541  13.711  21.596  12.972
12474W        W79542  25.131   4.766   3.763
12475W        W79543  39.835  38.412  13.356
12476W        W79544  17.777  30.458   4.640
12477W        W79545  17.202  13.606   0.887
12478W        W79546   4.342  13.644   2.334
12479W        W79547   0.776  26.537  12.413
12480W        W79548  37.430  27.539  13.049
12481W        W79549  10.308  27.612  11.073
12482W        W79550  17.647  29.143  13.830
12483W        W79551  27.633  19.039  13.031
12484W        W79552   1.324  41.803  13.458
12485W        W79553  38.061   9.392   0.799
12486W        W79554  29.609  15.326   0.315
12487W        W79555  35.015  40.531  12.928
12488W        W79556  14.205   8.221  10.052
12489W        W79557  26.572  34.538   4.154
12490W        W79558  37.471  29.098   1.235
12491W        W79559   0.898  21.109  12.453
12492W        W79560  32.109   6.419  12.345
12493W        W79561  34.444  26.122   1.894
12494W        W79562  43.888   9.341  13.308
12495W        W79563   7.689   2.249  11.449
12496W        W79564  42.953   8.179  12.511
12497W        W79565  10.327   1.733   0.832
12498W        W79566  28.975   4.319  10.535
12499W        W79567   8.257  10.141   1.903
12500W        W79568  40.958  40.509   1.864
12501W        W79569  32.555  42.301  13.009
12502W        W79570  10.683   4.720   1.240
12503W        W79571  41.456  35.474  10.508
12504W        W79572  19.192  30.596   9.938
12505W        W79573  30.639  37.440  11.450
12506W        W79574  10.842  36.058  14.380
12507W        W79575  19.581   2.439   4.701
12508W        W79576  41.018  41.510   2.200
12509W        W79577  13.740  23.027  11.013
12510W        W79578  33.424   1.283   1.699
12511W        W79579  39.816  36.917  10.473
12512W        W79580  20.045  12.124  10.510
12513W        W79581  42.486  26.515   3.760
12514W        W79582  10.762  16.696   1.355
12515W        W79583  17.248  30.517  11.386
12516W        W79584   9.351   6.714  12.983
12517W        W79585  42.518  41.915   2.785
12518W        W79586   2.312   5.379  14.465
12519W        W79587  29.170  41.822  13.027
12520W        W79588  35.928  11.201  10.988
12521W        W79589  41.038   9.247  13.934
12522W        W79590  43.509  17.762   1.408
12523W        W79591   5.234   2.851  10.919
12524W        W79592  32.899  36.907   4.822
12525W        W79593  39.956  17.186  10.572
12526W        W79594  22.143   5.700  11.567
12527W        W79595  37.968   6.807   2.307
12528W        W79596  27.626  39.021  10.492
12529W        W79597  43.830  10.779   0.275
12530W        W79598  33.606  32.618   1.279
12531W        W79599  32.994  40.500   1.325
12532W        W79600  37.382  21.099  12.471
12533W        W79601  44.350   0.365  11.947
12534W        W79602  22.195  32.584   0.916
12535W        W79603  10.870  14.770   2.705
12536W        W79604  32.950  24.049  11.496
12537W        W79605   5.731  32.049   4.648
12538W        W79606  30.006   0.307   3.355
12539W        W79607  36.480   8.194  12.374
12540W        W79608  34.414  27.453   3.785
12541W        W79609  17.607   4.416   0.388
12542W        W79610  39.929  35.597  11.937
12543W        W79611  18.582  29.012  11.927
12544W        W79612  12.611  39.006  13.915
12545W        W79613  40.541   1.836  14.426
12546W        W79614   3.899  31.920   2.729
12547W        W79615   0.354  28.437   1.882
12548W        W79616  17.643   6.758  10.527
12549W        W79617  32.889  19.187  13.794
12550W        W79618  12.179  12.294   4.810
12551W        W79619  41.966  31.072   3.660
12552W        W79620  40.403  22.711  14.001
12553W        W79621  42.359  15.252  12.523
12554W        W79622   7.778  19.244  10.028
12555W        W79623  33.945   5.234   4.698
12556W        W79624  34.418   8.836  12.404
12557W        W79625  44.969   0.332  13.335
12558W        W79626  16.124   0.349   4.225
12559W        W79627  35.063  28.965  12.997
12560W        W79628   8.833  24.023  10.590
12561W        W79629   2.418  39.975   5.225
12562W        W79630  34.989  44.378  11.910
12563W        W79631  25.695  42.003   0.789
12564W        W79632  38.951  10.705  12.570
12565W        W79633  29.471  21.704   0.860
12566W        W79634  30.579  23.541   2.867
12567W        W79635   4.705   7.229   2.214
12568W        W79636  21.151   1.821  12.973
12569W        W79637  41.485   6.331  11.971
12570W        W79638   7.780  10.375  14.442
12571W        W79639  21.085  27.114  13.365
12572W        W79640   7.782  35.419   3.273
12573W        W79641  39.012   1.290   1.374
12574W        W79642  41.925  16.242   3.847
12575W        W79643  12.232  21.567  13.860
12576W        W79644  44.998   0.468   4.248
12577W        W79645   3.449  18.723  14.409
12578W        W79646   9.276  24.224   3.379
12579W        W79647  19.252  24.707  10.494
12580W        W79648  12.670  22.725  12.505
12581W        W79649  44.278  30.043  14.339
12582W        W79650  26.190  44.263   1.279
12583W        W79651  26.008  35.028  14.276
12584W        W79652  28.115  28.630   4.194
12585W        W79653  31.600  22.594   2.902
12586W        W79654   9.835  40.410   1.269
12587W        W79655  30.150  34.388  14.786
12588W        W79656   5.842  43.398   1.303
12589W        W79657  36.575  26.997   4.268
12590W        W79658   2.307  40.354  14.428
12591W        W79659  44.317  33.093  14.507
12592W        W79660  39.887  17.278  14.305
12593W        W79661  25.602  10.268  13.374
12594W        W79662   5.194   4.701  10.929
12595W        W79663  26.477  28.467   2.768
12596W        W79664   6.385  42.838   5.170
12597W        W79665   7.363  28.182   2.810
12598W        W79666   4.411   6.781  12.393
12599W        W79667  39.879   5.793  10.478
12600W        W79668  36.094  35.964  11.047
12601W        W79669   1.881   6.222  13.528
12602W        W79670   2.919  33.019   4.679
12603W        W79671  10.643  40.806  13.927
12604W        W79672  44.381  25.714  14.384
12605W        W79673  33.055  16.787  14.382
12606W        W79674  32.068  29.651  11.056
12607W        W79675  24.144  22.567   0.825
12608W        W79676   5.776  41.846  14.933
12609W        W79677  23.115   0.894   2.243
12610W        W79678  24.079  38.397   0.249
12611W        W79679  41.923  17.643  11.914
12612W        W79680  30.427  18.757   5.206
12613W        W79681   8.362  19.057   1.717
12614W        W79682  39.441   3.247   4.333
12615W        W79683  19.168  44.764  11.570
12616W        W79684  42.351   0.458   2.899
12617W        W79685  15.224   1.319   4.197
12618W        W79686  13.669  31.473  14.468
12619W        W79687  20.077  12.638  10.545
12620W        W79688  27.944  25.173   3.278
12621W        W79689  42.875  42.485   4.167
12622W        W79690  25.655  14.123  11.371
12623W        W79691  11.252   1.279   0.346
12624W        W79692  33.438  20.049  13.318
12625W        W79693  40.411   2.776  10.944
12626W        W79694  44.289  25.061  13.010
12627W        W79695  42.467  11.209   3.381
12628W        W79696  38.841  31.075  13.933
12629W        W79697  24.638  29.946   0.475
12630W        W79698  41.355  10.356   1.906
12631W        W79699  14.094  17.186   3.721
12632W        W79700  40.516  17.721  13.503
12633W        W79701   1.406  17.163   2.305
12634W        W79702  26.506  44.836   0.811
12635W        W79703  38.344  26.564   3.279
12636W        W79704  31.574  10.851  14.865
12637W        W79705  38.379  19.256  12.365
12638W        W79706  23.576  36.393   1.210
12639W        W79707   8.846  34.433  12.005
12640W        W79708  25.097  12.207  13.831
12641W        W79709  19.169  18.297   1.219
12642W        W79710   1.373  38.475  13.846
12643W        W79711  43.453  17.626  11.467
12644W        W79712   9.209   2.312  11.995
12645W        W79713  26.104  26.472   4.755
12646W        W79714  32.018  32.952  14.852
12647W        W79715  13.270   2.920   4.177
12648W        W79716  37.420  31.066   2.678
12649W        W79717  18.156  38.059   0.453
12650W        W79718  37.385  33.952  14.474
12651W        W79719  31.143  37.941  12.934
12652W        W79720  37.057  10.229  14.779
12653W        W79721  30.569  20.251   4.800
12654W        W79722  12.124  33.072   0.745
12655W        W79723   1.360   7.280   3.783
12656W        W79724  16.607  18.191   4.832
12657W        W79725   0.871   1.475   3.720
12658W        W79726  22.180  43.819   4.148
12659W        W79727  14.173  11.254  11.933
12660W        W79728  28.585  29.563   4.167
12661W        W79729  27.142  44.984  12.568
12662W        W79730  20.034   2.727   1.364
12663W        W79731   1.442  40.334  11.400
12664W        W79732  27.522  17.689  11.861
12665W        W79733  41.809  31.563   4.143
12666W        W79734   3.411  43.436   2.398
12667W        W79735  16.170  41.366  13.906
12668W        W79736  23.530  18.231   4.221
12669W        W79737  41.964  29.656  14.976
12670W        W79738  27.978  15.711   2.356
12671W        W79739  31.112  43.446   1.742
12672W        W79740  20.699  40.832   1.418
12673W        W79741   5.701  40.932  14.278
12674W        W79742  16.145  25.176  11.909
12675W        W79743  22.674  28.016  14.790
12676W        W79744  24.543  24.705  14.762
12677W        W79745  15.628  33.902  14.821
12678W        W79746  35.505  22.589   2.323
12679W        W79747   5.707  41.394   1.278
12680W        W79748   1.866  20.235  11.876
12681W        W79749  10.874  32.455   3.794
12682W        W79750  33.517  17.672   0.406
12683W        W79751  29.073   7.289  14.013
12684W        W79752  15.777  17.621  11.109
12685W        W79753  40.872  31.615  11.908
12686W        W79754  21.134  42.474   2.412
12687W        W79755  15.251  14.791  13.034
12688W        W79756  38.522  42.918   4.689
12689W        W79757  26.511  36.559   2.781
12690W        W79758  42.932  37.494  13.881
12691W        W79759  38.568  37.858  13.403
12692W        W79760   7.765  13.248   1.891
12693W        W79761  40.373  12.682   2.211
12694W        W79762   1.778  28.654   1.283
12695W        W79763  11.323   0.414  11.458
12696W        W79764  24.579  35.359   4.320
12697W        W79765  16.081  38.036   0.759
12698W        W79766   8.817  11.810   4.127
12699W        W79767  39.337  20.153  12.513
12700W        W79768  25.651   7.227   4.766
12701W        W79769  11.746  20.155  13.466
12702W        W79770  44.909   2.737   0.854
12703W        W79771  21.184  38.524   4.826
12704W        W79772  27.120  18.671   0.815
12705W        W79773  42.006  34.024  11.899
12706W        W79774  20.613  44.466  11.545
12707W        W79775  38.339   3.955  11.465
12708W        W79776  15.738  17.604   4.320
12709W        W79777  23.559  24.983  14.893
12710W        W79778  44.804  16.140   3.699
12711W        W79779   7.722   1.407   1.252
12712W        W79780  31.541  18.188  12.826
12713W        W79781   9.246  11.631  11.039
12714W        W79782  11.367  23.203   1.772
12715W        W79783  22.651  33.943  13.462
12716W        W79784  31.090  33.055   0.243
12717W        W79785  24.541  27.042  11.857
12718W        W79786  43.337  28.558  13.459
12719W        W79787   1.907  11.757   1.295
12720W        W79788   1.469  43.895   1.784
12721W        W79789  14.221  17.257  14.386
12722W        W79790  21.164  18.655   0.831
12723W        W79791  20.067  24.062   1.712
12724W        W79792  10.165  37.564  13.016
12725W        W79793  13.734  35.453   2.291
12726W        W79794  15.803  28.608   1.880
12727W        W79795   8.224  18.658  11.975
12728W        W79796  18.152  17.121   2.372
12729W        W79797  29.496  32.611  13.524
12730W        W79798  19.264  16.186   2.775
12731W        W79799  25.194  38.908   1.411
12732W        W79800  18.236  27.159   0.392
12733W        W79801  32.461  13.727  13.793
12734W        W79802  34.419  41.319  12.915
12735W        W79803  32.529  24.601  14.480
12736W        W79804  42.896  38.522   1.294
12737W        W79805  32.452  16.580  13.489
12738W        W79806  23.210   2.924   0.437
12739W        W79807  33.059  10.176   2.707
12740W        W79808  24.633   9.653  13.964
12741W        W79809  26.987  28.663  10.935
12742W        W79810  39.005  24.545  11.964
12743W        W79811  18.256  38.932  13.470
12744W        W79812   6.422  33.385  11.129
12745W        W79813  17.586   8.799   0.876
12746W        W79814  30.098  10.714  14.386
12747W        W79815  10.368  18.710  14.883
12748W        W79816  43.306  43.493  12.578
12749W        W79817  23.224  27.450  12.417
12750W        W79818  12.734   2.841  13.827
12751W        W79819  19.654  39.026   4.638
12752W        W79820  31.512  15.161  10.940
12753W        W79821  20.586   2.329   4.166
12754W        W79822   8.215  23.539   3.285
12755W        W79823  22.062   2.756   2.861
12756W        W79824  36.510  14.219  13.387
12757W        W79825   0.873   7.208   2.228
12758W        W79826  26.019  18.200  13.011
12759W        W79827  29.025  14.094  12.032
12760W        W79828  37.081  40.823  12.564
12761W        W79829  22.209   2.948   0.829
12762W        W79830  24.223  42.455  13.323
12763W        W79831  31.066  17.126   3.162
12764W        W79832  32.906   1.271  11.547
12765W        W79833   1.895  15.199   0.752
12766W        W79834  38.560   0.871   1.767
12767W        W79835  44.844  23.040   3.382
12768W        W79836  34.927   6.780  13.938
12769W        W79837  26.041   8.858  10.959
12770W        W79838   3.844  12.618  11.925
12771W        W79839   6.854  36.356  11.042
12772W        W79840  20.555  24.678  13.902
12773W        W79841  29.130  10.324   2.227
12774W        W79842   5.289  35.386  14.853
12775W        W79843   3.341   9.290  13.840
12776W        W79844   0.341  17.738   4.293
12777W        W79845   7.303   9.197  10.467
12778W        W79846  30.474   3.268  12.883
12779W        W79847  43.455   5.349   3.368
12780W        W79848  10.264  15.762  13.448
12781W        W79849  28.012   8.204  14.960
12782W        W79850   2.925  37.045   4.247
12783W        W79851  28.623  22.129  11.459
12784W        W79852   7.415   6.286   3.712
12785W        W79853  30.976  26.679  13.534
12786W        W79854   3.765  36.392  11.442
12787W        W79855  15.101  32.627  10.897
12788W        W79856  31.004   9.189  14.858
12789W        W79857  18.633  33.023  11.970
12790W        W79858  21.187  25.635  13.816
12791W        W79859  37.968  34.541  13.924
12792W        W79860  12.743  13.155   3.223
12793W        W79861   5.888  31.582   2.220
12794W        W79862  42.852  44.322   1.917
12795W        W79863  19.089  42.399  12.369
12796W        W79864  20.688  13.158   1.782
12797W        W79865  12.218  25.048   2.204
12798W        W79866  26.682  31.456   4.632
12799W        W79867  27.668  15.777  10.947
12800W        W79868   5.916  38.428  14.837
12801W        W79869  28.138   7.718  13.936
12802W        W79870  32.391   6.359   2.768
12803W        W79871   5.866   3.755  13.518
12804W        W79872  20.612  20.566   1.738
12805W        W79873  28.948   5.391  14.362
12806W        W79874  27.621  33.941  13.850
12807W        W79875   7.286  42.796   2.838
12808W        W79876   7.382  17.633  14.883
12809W        W79877   7.367  37.362   2.215
12810W        W79878  26.628  18.231   2.882
12811W        W79879   2.381  43.513  14.446
12812W        W79880  42.449  22.706   0.392
12813W        W79881  13.169  28.029  11.925
12814W        W79882  10.810  21.529   2.780
12815W        W79883   0.479  32.440  11.008
12816W        W79884  33.013  35.872   3.732
12817W        W79885  44.822  41.912  13.053
12818W        W79886  44.936   3.252   1.313
12819W        W79887   8.670  16.687  11.036
12820W        W79888  43.919   1.946   0.369
12821W        W79889  27.187   9.701   4.729
12822W        W79890  34.905  25.473   4.617
12823W        W79891  39.321  39.014   1.905
12824W        W79892  39.479  30.418  14.816
12825W        W79893  39.422  11.318   0.740
12826W        W79894   1.472   7.847   3.234
12827W        W79895  36.572  12.210  11.128
12828W        W79896   6.394  25.705   1.279
12829W        W79897  37.551  16.315  12.088
12830W        W79898  44.929  18.711   4.121
12831W        W79899  31.933  21.176   1.295
12832W        W79900  10.187  13.228   4.152
12833W        W79901  13.753  29.545   2.380
12834W        W79902  29.429   4.871   3.683
12835W        W79903  26.650  19.088  14.384
12836W        W79904  18.641  44.480   1.755
12837W        W79905  42.957  36.374   5.117
12838W        W79906  23.140  30.026   1.713
12839W        W79907  37.434   8.894   3.363
12840W        W79908  19.170  22.233   2.813
12841W        W79909  10.655  30.101  14.934
12842W        W79910   3.896  40.888  14.880
12843W        W79911   1.338   9.224  11.026
12844W        W79912   8.216  11.212   0.334
12845W        W79913   5.313   2.344  10.455
12846W        W79914  22.618  41.453  11.594
12847W        W79915  11.259  25.024   4.784
12848W        W79916  36.362  27.942  10.934
12849W        W79917  24.064  39.022  14.853
12850W        W79918   8.356   6.353  12.914
12851W        W79919  11.150  34.957   3.269
12852W        W79920   4.814  19.191   0.809
12853W        W79921  40.957  43.934  12.470
12854W        W79922  32.020  14.154  13.328
12855W        W79923  30.930  32.116   4.207
12856W        W79924   0.925  19.625  13.990
12857W        W79925  40.407   6.785  11.059
12858W        W79926  21.069   3.829  14.956
12859W        W79927   5.438  26.044  12.952
12860W        W79928  18.664  15.732  10.040
12861W        W79929  21.257  23.495   1.345
12862W        W79930  12.733  42.406   3.292
12863W        W79931   8.382   4.225   1.909
12864W        W79932   7.809  24.618   4.231
12865W        W79933  33.529  34.971   1.926
12866W        W79934  24.228  38.345   0.912
12867W        W79935  32.019  36.590   5.250
12868W        W79936  24.054  19.124  12.827
12869W        W79937  12.665  14.810   1.915
12870W        W79938  20.198  40.304   1.876
12871W        W79939   6.688  10.706  14.372
12872W        W79940  25.107  35.465  11.041
12873W        W79941   6.725   2.720   4.738
12874W        W79942   6.263  16.104   1.393
12875W        W79943  41.365   8.693   3.159
12876W        W79944  18.202  28.140   0.932
12877W        W79945  28.574  24.643  12.382
12878W        W79946  17.256  40.851  12.490
12879W        W79947  25.474  28.034  11.958
12880W        W79948   7.775  16.243  10.625
12881W        W79949  20.534   9.258  12.027
12882W        W79950   5.396  15.302  14.295
12883W        W79951  21.036   1.261  11.499
12884W        W79952   0.273   5.406  12.346
12885W        W79953  29.112  33.023   4.206
12886W        W79954  42.845  39.036   4.803
12887W        W79955  14.291  19.653   9.986
12888W        W79956  25.179  17.680   2.213
12889W        W79957   3.331  13.656  14.995
12890W        W79958  40.423  30.031   2.269
12891W        W79959   8.732   8.383  12.055
12892W        W79960  35.930   8.669  12.352
12893W        W79961  43.967   6.779  12.463
12894W        W79962  32.934  35.568  11.405
12895W        W79963  17.762  32.115   2.236
12896W        W79964  20.679   1.809   2.664
12897W        W79965  40.361  14.317  13.486
12898W        W79966  25.093  15.287   3.835
12899W        W79967   4.266  12.709   3.783
12900W        W79968  18.096  30.452  12.092
12901W        W79969  25.142  29.477   1.218
12902W        W79970  36.861  21.150   3.338
12903W        W79971  30.964  40.918   0.966
12904W        W79972  40.007  30.490   1.343
12905W        W79973  14.759  40.474   1.844
12906W        W79974  33.015  41.945  10.984
12907W        W79975  28.141  42.852  12.398
12908W        W79976  11.633  43.765  13.989
12909W        W79977   2.256   0.403  12.979
12910W        W79978  33.446  38.872  11.543
12911W        W79979  15.126   1.365  11.449
12912W        W79980  41.457  29.101   4.835
12913W        W79981  40.441  25.066   1.447
12914W        W79982   7.205  24.616   3.329
12915W        W79983   1.901  42.407  14.919
12916W        W79984  32.437  44.277   3.719
12917W        W79985  11.636  33.927   3.717
12918W        W79986  31.524  13.664   9.942
12919W        W79987   7.309  31.897  13.518
12920W        W79988  17.634  25.552  11.050
12921W        W79989  25.076  30.642   4.661
12922W        W79990  18.661  22.235  12.834
12923W        W79991  36.368   0.443   3.224
12924W        W79992  15.818  30.001   3.343
12925W        W79993  13.845  19.195  11.571
12926W        W79994   0.383  15.312  12.348
12927W        W79995   2.385  22.248   2.315
12928W        W79996  34.017  21.099  13.321
12929W        W79997   0.928  37.526   0.381
12930W        W79998   1.414  43.274  12.377
12931W        W79999  32.901   3.882  13.025
12932W        W80000  19.141  15.657   2.193
12933W        W80001   5.769   5.228   2.782
12934W        W80002  32.403  31.622  11.011
12935W        W80003  13.698  23.572   2.691
12936W        W80004  25.036  32.908  11.547
12937W        W80005  25.964  31.539   1.792
12938W        W80006   1.902  32.078   4.128
12939W        W80007  18.757  24.551  13.544
12940W        W80008  33.462  39.912   0.761
12941W        W80009  24.014  39.939   0.291
12942W        W80010  10.712   5.734   2.758
12943W        W80011  24.056  13.115  12.397
12944W        W80012  24.100  39.009  13.803
12945W        W80013   6.310  29.961   1.701
12946W        W80014  39.049  19.068   3.228
12947W        W80015  20.032   1.942  11.440
12948W        W80016  11.842  38.858   1.732
12949W        W80017  19.677   3.314  13.992
12950W        W80018  13.632  43.887   0.845
12951W        W80019  34.897  10.376   0.874
12952W        W80020  41.330  10.325  10.982
12953W        W80021  27.624  10.793   3.692
12954W        W80022  31.129  17.703   3.266
12955W        W80023  37.845  32.464   1.817
12956W        W80024   3.306  26.076  12.004
12957W        W80025  38.462  39.368  14.818
12958W        W80026   9.792  30.516   2.696
12959W        W80027  18.703   5.890  11.921
12960W        W80028  27.501  19.633  11.086
12961W        W80029  19.275   7.285  14.025
12962W        W80030  32.405  14.731  10.507
12963W        W80031   1.332  24.067  11.915
12964W        W80032  20.532  20.194   1.393
12965W        W80033  27.628  34.516   2.257
12966W        W80034  14.653   4.441  14.953
12967W        W80035  42.366  14.203   4.626
12968W        W80036  22.649  30.422  12.451
12969W        W80037  43.474  16.630   1.324
12970W        W80038  43.416  32.075  14.352
12971W        W80039  18.265  17.232  14.393
12972W        W80040   5.239  23.516  13.401
12973W        W80041  16.106  36.382   1.715
12974W        W80042   6.341  30.592   1.909
12975W        W80043  24.510  41.014  12.378
12976W        W80044  39.822  16.213  11.406
12977W        W80045  27.522  29.610  10.958
12978W        W80046  30.647  20.242  11.415
12979W        W80047  36.571  10.316   4.671
12980W        W80048  29.431   5.278  10.628
12981W        W80049  43.871  13.675   2.726
12982W        W80050  31.956  35.419  13.983
12983W        W80051   3.858   7.353   4.354
12984W        W80052  36.385  21.558   0.766
12985W        W80053   3.771  30.470   2.839
12986W        W80054  29.053   1.931   4.621
12987W        W80055  28.180  24.204   4.224
12988W        W80056   2.817  31.909  12.855
12989W        W80057  42.796  27.998   1.285
12990W        W80058  32.025   3.714   3.702
12991W        W80059   7.774  39.024   5.269
12992W        W80060  31.607   8.302   1.346
12993W        W80061   2.272  30.483   4.215
12994W        W80062  22.542  34.000   1.334
12995W        W80063  14.131  38.976  13.371
12996W        W80064  27.479  24.153  14.964
12997W        W80065  18.236  44.302   4.337
12998W        W80066  13.765  44.417  11.372
12999W        W80067  30.956  20.654  10.556
13000W        W80068  31.539   8.163   2.672
13001W        W80069  35.076  44.800  14.425
13002W        W80070  17.207  34.498  13.824
13003W        W80071  23.693  22.673   4.618
13004W        W80072  40.418  13.230  12.913
13005W        W80073  31.522  32.044   2.287
13006W        W80074  31.948  35.587   0.367
13007W        W80075   0.933  31.064   4.232
13008W        W80076  26.073  16.272   1.702
13009W        W80077  34.109   8.207   1.404
13010W        W80078  41.856  33.382  14.888
13011W        W80079  28.044  30.507  13.422
13012W        W80080  19.061  34.942  13.964
13013W        W80081   8.776  36.970   4.171
13014W        W80082   5.432  36.388   4.210
13015W        W80083  20.699  40.830  12.853
13016W        W80084  19.563   4.810  14.974
13017W        W80085  19.707  36.579   4.797
13018W        W80086   6.256   9.883   2.200
13019W        W80087  30.551  12.659   4.680
13020W        W80088  28.640  27.944  14.915
13021W        W80089  36.036  15.594  10.145
13022W        W80090   9.234  41.878   1.801
13023W        W80091  17.643  19.561  12.548
13024W        W80092   0.813  17.083   3.173
13025W        W80093   5.321  26.980  12.410
13026W        W80094   0.755  32.108   4.118
13027W        W80095  42.829   5.868   0.765
13028W        W80096  37.076  44.314   2.720
13029W        W80097   4.313   0.397   2.682
13030W        W80098  18.075  25.171  12.411
13031W        W80099  38.468   7.826   4.177
13032W        W80100  26.555  32.578  12.022
13033W        W80101  16.742   8.808   3.252
13034W        W80102  34.477  13.809   1.920
13035W        W80103   8.724  44.806  11.442
13036W        W80104   8.828  10.648   1.883
13037W        W80105  41.862   0.331   0.826
13038W        W80106  32.627   5.318  13.902
13039W        W80107  25.536  31.915  11.379
13040W        W80108  19.739  20.253   1.905
13041W        W80109  21.185  27.050  11.600
13042W        W80110  28.034  22.097  14.449
13043W        W80111   0.764   1.295  13.990
13044W        W80112  35.372  34.379  10.989
13045W        W80113  37.358   1.354  13.513
13046W        W80114  18.622  19.081  13.367
13047W        W80115  39.446  27.190   4.325
13048W        W80116  34.969  20.698   4.618
13049W        W80117  38.394  33.611  11.553
13050W        W80118  23.725  39.893  10.990
13051W        W80119  34.090  25.700  11.575
13052W        W80120  13.276  41.351  14.294
13053W        W80121  23.691  16.196  11.917
13054W        W80122  34.956  42.933   3.720
13055W        W80123  26.092  23.725  11.560
13056W        W80124  39.557  33.877   0.247
13057W        W80125   7.759   2.837   3.276
13058W        W80126  21.597  36.091   1.798
13059W        W80127   1.959  41.298   3.856
13060W        W80128   5.875  14.237  13.540
13061W        W80129  37.575  39.524  13.003
13062W        W80130  16.172  23.687  12.995
13063W        W80131  35.968   6.833   1.824
13064W        W80132  40.858  16.314   1.419
13065W        W80133  37.851   7.825   3.283
13066W        W80134  21.261  14.706   2.220
13067W        W80135  37.442  20.598  11.388
13068W        W80136  38.999  20.169  13.401
13069W        W80137  29.639   1.911  11.412
13070W        W80138  35.507  26.626   4.787
13071W        W80139  20.570   9.170  13.412
13072W        W80140  20.239  19.231  14.384
13073W        W80141  28.478  32.407   0.257
13074W        W80142  40.005  38.884  14.936
13075W        W80143  16.118  25.034   0.959
13076W        W80144  15.312  20.139   9.581
13077W        W80145  29.519  27.528   3.312
13078W        W80146  10.632   2.439  10.998
13079W        W80147  38.552  26.984  13.902
13080W        W80148   7.772  35.405  12.086
13081W        W80149  36.398  15.300   3.708
13082W        W80150   7.729  41.416  14.871
13083W        W80151  39.515  39.518   2.387
13084W        W80152  16.783  41.977   1.433
13085W        W80153  41.976  18.084  12.574
13086W        W80154  18.732  18.221   2.307
13087W        W80155  36.937   5.923   4.779
13088W        W80156  40.030  41.387  13.498
13089W        W80157   9.266  25.192  10.447
13090W        W80158  21.541  28.536   1.891
13091W        W80159   1.377  42.518  11.900
13092W        W80160  22.220   0.436   1.280
13093W        W80161   4.442  40.964  13.964
13094W        W80162  24.019  20.615   2.786
13095W        W80163  35.451  10.781  10.971
13096W        W80164  31.561  16.180   2.686
13097W        W80165  35.087  32.916  14.763
13098W        W80166  32.982  39.065  14.888
13099W        W80167  31.631   9.835   3.705
13100W        W80168  33.914  43.867   1.864
13101W        W80169  32.050  34.375  10.424
13102W        W80170   3.287  29.447  11.558
13103W        W80171  41.454   7.890  12.008
13104W        W80172  34.045   8.329  10.407
13105W        W80173  28.040  42.851  14.817
13106W        W80174  22.222   7.742   3.716
13107W        W80175  23.714   6.355  12.993
13108W        W80176   2.958   2.731  10.603
13109W        W80177  26.078  20.551  13.370
13110W        W80178   3.267  38.936   0.867
13111W        W80179   2.874  10.293  11.897
13112W        W80180  44.898  37.859  14.311
13113W        W80181  34.489  25.002  14.790
13114W        W80182  23.616  35.418  12.343
13115W        W80183  40.889  43.002  14.854
13116W        W80184   6.333   0.809   1.879
13117W        W80185  25.090   0.410  10.603
13118W        W80186  12.770  29.640  13.340
13119W        W80187  23.141  15.140  14.001
13120W        W80188  22.046  20.570  13.903
13121W        W80189  31.555  30.432   4.299
13122W        W80190  11.256  35.069  12.377
13123W        W80191  13.725  15.752  13.493
13124W        W80192   0.438  28.957   2.268
13125W        W80193  19.662  19.216  12.452
13126W        W80194  18.078  12.669  12.497
13127W        W80195  19.244  17.775   1.743
13128W        W80196   4.398  42.462  12.489
13129W        W80197  40.525  21.651  10.984
13130W        W80198  17.191   3.322   5.297
13131W        W80199  10.376  22.119   0.873
13132W        W80200  43.960   4.396  10.628
13133W        W80201  31.108  19.736  10.463
13134W        W80202  18.759   4.375  11.556
13135W        W80203  15.640  32.032   5.207
13136W        W80204  44.873  27.137   2.381
13137W        W80205  10.292  17.657  12.369
13138W        W80206  30.435  38.872  14.927
13139W        W80207   4.347  19.587  11.124
13140W        W80208   9.155  16.260  11.561
13141W        W80209   8.273  34.897  10.631
13142W        W80210   0.439  11.177   2.683
13143W        W80211  26.042  41.855   4.680
13144W        W80212  44.421   2.349  11.883
13145W        W80213  41.926  23.999   4.125
13146W        W80214  34.979   6.693   2.780
13147W        W80215  32.525   7.304   2.805
13148W        W80216  11.735  27.642  12.942
13149W        W80217   7.386  14.309   3.328
13150W        W80218  19.186  20.684   2.722
13151W        W80219  14.274  36.921  10.468
13152W        W80220  15.789  29.948  13.428
13153W        W80221  40.416   1.778   4.262
13154W        W80222  34.609  31.150   4.775
13155W        W80223   3.406  34.120   0.925
13156W        W80224  20.143  15.169   2.873
13157W        W80225  18.185  37.073  14.303
13158W        W80226   1.867  17.631   0.734
13159W        W80227  19.624   1.288   3.629
13160W        W80228  24.080  44.843  11.017
13161W        W80229  39.056  43.838  12.507
13162W        W80230  12.283  43.894  12.420
13163W        W80231  14.138  15.777   2.256
13164W        W80232   5.326   4.732   4.313
13165W        W80233  20.084   4.708   1.256
13166W        W80234   9.656  17.115  12.415
13167W        W80235  39.527  41.959  13.048
13168W        W80236  33.880  22.645   1.759
13169W        W80237  40.995  13.183  12.042
13170W        W80238  42.484  25.610  12.494
13171W        W80239  37.011  30.488   2.416
13172W        W80240  12.312   4.918   0.733
13173W        W80241  17.650   3.756  14.916
13174W        W80242  39.395  14.590   3.243
13175W        W80243  38.873  20.134   2.308
13176W        W80244   3.383   0.462  13.796
13177W        W80245  11.258   1.735   4.632
13178W        W80246   3.791  44.995   0.767
13179W        W80247  12.834  18.720   2.236
13180W        W80248  37.887  11.345  12.914
13181W        W80249  21.045  14.135   4.730
13182W        W80250  32.050   0.783   1.851
13183W        W80251  37.513  18.546  12.926
13184W        W80252   4.396   6.353   4.786
13185W        W80253  15.088  28.577   1.923
13186W        W80254  19.669  23.207  11.860
13187W        W80255   8.880  35.555   4.133
13188W        W80256  19.611  43.827   1.860
13189W        W80257  36.020  35.915   2.742
13190W        W80258  12.349   0.327  14.894
13191W        W80259   2.399  14.340   4.279
13192W        W80260  36.858  22.634  11.909
13193W        W80261  20.634  43.766  13.930
13194W        W80262   0.856  12.361   3.254
13195W        W80263  36.910  18.554  10.621
13196W        W80264  18.690  22.121  14.997
13197W        W80265  14.324  13.750   3.652
13198W        W80266  29.577   1.929   1.722
13199W        W80267  22.012   2.303  13.818
13200W        W80268  18.159  44.990   1.915
13201W        W80269  36.989  30.143   0.906
13202W        W80270   9.880  12.752  14.970
13203W        W80271   4.761   3.257  11.884
13204W        W80272  10.295  22.744   1.765
13205W        W80273  16.642   7.207  11.548
13206W        W80274   9.276  28.530  14.996
13207W        W80275  10.648  10.373  11.055
13208W        W80276  14.306  41.968  14.853
13209W        W80277  16.791   1.328   1.825
13210W        W80278  25.181   4.243   3.749
13211W        W80279  26.523  40.482   1.909
13212W        W80280  44.355  27.594   4.338
13213W        W80281  39.378   2.875   3.777
13214W        W80282   8.297  22.222  14.918
13215W        W80283  38.988  19.659  13.361
13216W        W80284  18.763  42.977  13.465
13217W        W80285   4.858  23.612  10.631
13218W        W80286  12.176  34.108   0.927
13219W        W80287  35.874  29.033   4.788
13220W        W80288   3.432   0.806   1.865
13221W        W80289   1.469   2.837  14.847
13222W        W80290  26.560  23.216  11.862
13223W        W80291  27.159  29.961   1.744
13224W        W80292  31.578  11.236   2.369
13225W        W80293  28.125  43.470  10.148
13226W        W80294  37.490  26.461   3.652
13227W        W80295   5.202   6.226  12.962
13228W        W80296   5.330  35.078   4.341
13229W        W80297   9.812  40.464  14.766
13230W        W80298   8.852  35.515  12.835
13231W        W80299  32.014   6.744  12.473
13232W        W80300   8.394   8.699  13.822
13233W        W80301  43.495  39.553   0.277
13234W        W80302  39.396  44.280   3.766
13235W        W80303  13.273  10.277   3.707
13236W        W80304  37.412  28.604  10.606
13237W        W80305  13.648   4.215  13.898
13238W        W80306  41.875  29.480  14.436
13239W        W80307   4.874  32.958   0.958
13240W        W80308  21.182  31.574  12.493
13241W        W80309  42.925   7.846   1.267
13242W        W80310  27.600  40.979  14.988
13243W        W80311  44.988  11.175   2.780
13244W        W80312   0.310  13.657  12.970
13245W        W80313  21.525  15.145  13.485
13246W        W80314  12.330  21.641   1.232
13247W        W80315  43.866   8.355   3.695
13248W        W80316  25.034  30.033   1.860
13249W        W80317  42.869  12.655  12.829
13250W        W80318  33.603  32.543  10.991
13251W        W80319   7.376  43.951   1.757
13252W        W80320  43.983  17.738   3.275
13253W        W80321  25.535  13.148  14.799
13254W        W80322  25.002  42.409  12.894
13255W        W80323  41.366  21.714   4.281
13256W        W80324  20.182  27.957   9.991
13257W        W80325   7.679  21.182   1.866
13258W        W80326  14.636  20.166  10.089
13259W        W80327  37.379   5.806   0.299
13260W        W80328   1.950  21.628   2.302
13261W        W80329  19.682  25.048  13.416
13262W        W80330  17.243  30.649  11.963
13263W        W80331   6.274  15.197   1.893
13264W        W80332  43.961  33.382  12.986
13265W        W80333  38.420   1.248  14.804
13266W        W80334  41.028  25.658   1.359
13267W        W80335  16.775  27.582   3.221
13268W        W80336  21.670  39.423   1.758
13269W        W80337   1.805  40.429  13.396
13270W        W80338  18.695  17.583   3.796
13271W        W80339  21.239  28.122  10.583
13272W        W80340  21.127  22.113  14.006
13273W        W80341  38.406  14.168   4.160
13274W        W80342  36.448  44.380  14.396
13275W        W80343  22.589  38.421   4.346
13276W        W80344  40.462  16.285   4.813
13277W        W80345  15.322  39.315  11.498
13278W        W80346   9.295  13.633  13.427
13279W        W80347  17.145  17.797  11.575
13280W        W80348  13.257  25.170   0.410
13281W        W80349  42.358  21.519  14.778
13282W        W80350  42.006   9.330  12.926
13283W        W80351  27.639  33.007  11.467
13284W        W80352  38.934  31.541  12.539
13285W        W80353   6.861   1.387  13.958
13286W        W80354  12.344  12.302  14.783
13287W        W80355   8.897  41.537   1.387
13288W        W80356  39.353  10.195  14.774
13289W        W80357  16.091  17.104   4.338
13290W        W80358  13.141  15.696  14.401
13291W        W80359  21.690  26.503   1.896
13292W        W80360   4.722  10.800   1.435
13293W        W80361  35.389  13.620  10.512
13294W        W80362   0.765  20.222  11.125
13295W        W80363  19.670  13.758  13.407
13296W        W80364  35.550  43.488   1.710
13297W        W80365  23.493  43.451   1.379
13298W        W80366  24.638  35.590   4.698
13299W        W80367   5.801  23.570   4.326
13300W        W80368  36.369  15.123   4.153
13301W        W80369   6.884  28.513  14.503
13302W        W80370  10.850   5.356  11.116
13303W        W80371  42.808  38.046   1.898
13304W        W80372  31.486   1.303  10.939
13305W        W80373  31.114  25.657  10.963
13306W        W80374  10.676  26.583  11.960
13307W        W80375  33.567  24.482   1.885
13308W        W80376  41.318   5.736   4.325
13309W        W80377  38.514  41.455  11.585
13310W        W80378  29.133  20.091  13.999
13311W        W80379   3.832  34.408   0.909
13312W        W80380   1.379  19.274   4.235
13313W        W80381  22.198  31.106  12.531
13314W        W80382  37.390   9.875  11.025
13315W        W80383   4.785   1.790  14.950
13316W        W80384   2.323  25.032  12.871
13317W        W80385  11.239  30.544  10.562
13318W        W80386  37.461  33.470   1.765
13319W        W80387  44.904  26.592   2.223
13320W        W80388  33.505   9.783   0.877
13321W        W80389   7.668  27.691   1.827
13322W        W80390  17.114  11.334  12.970
13323W        W80391  36.965  31.439   1.305
13324W        W80392   7.373  10.678  12.945
13325W        W80393  13.265   1.394   4.151
13326W        W80394   8.878   6.264  13.470
13327W        W80395  28.619   2.319   1.885
13328W        W80396  37.895  18.265   2.771
13329W        W80397  36.373  41.028  14.990
13330W        W80398  19.119  19.119  11.863
13331W        W80399  25.631  12.192   4.751
13332W        W80400  26.457  34.867   3.355
13333W        W80401  30.074  35.358   0.901
13334W        W80402  16.730  18.678  12.087
13335W        W80403  17.624  16.084   2.377
13336W        W80404  29.938  37.545   1.709
13337W        W80405   5.833   4.863   1.308
13338W        W80406  38.514  14.764   4.702
13339W        W80407  37.377  12.662   3.265
13340W        W80408  20.143  18.723  13.349
13341W        W80409  21.627  27.987  11.119
13342W        W80410  32.420   3.745  14.438
13343W        W80411   7.822  18.622   3.275
13344W        W80412  16.301  38.920  14.395
13345W        W80413  22.612  42.335   4.331
13346W        W80414  30.487   8.326   2.716
13347W        W80415  10.264   0.254  14.310
13348W        W80416  14.248  17.283  12.414
13349W        W80417  17.697  10.208   4.229
13350W        W80418   5.786  34.076   1.810
13351W        W80419   5.769  35.899  11.534
13352W        W80420  22.215  16.699   3.661
13353W        W80421  43.330  17.632   0.404
13354W        W80422   3.255  38.359  14.488
13355W        W80423  36.490   8.771  14.422
13356W        W80424  31.928  33.069   4.740
13357W        W80425  32.089   7.178  12.913
13358W        W80426  30.112  16.677   3.151
13359W        W80427  14.337  21.561   1.764
13360W        W80428  22.245  42.330   3.356
13361W        W80429  19.151  40.446  12.968
13362W        W80430  29.439  10.833  13.850
13363W        W80431   2.273   6.689  11.879
13364W        W80432  14.772  35.579  14.382
13365W        W80433  32.915  22.587   0.912
13366W        W80434  44.293  33.586   0.464
13367W        W80435  43.302   3.438   4.624
13368W        W80436   1.948  10.832  12.017
13369W        W80437  29.519  17.637   2.388
13370W        W80438  23.504   9.784  11.581
13371W        W80439  38.354  35.083   4.658
13372W        W80440   8.243   5.201   4.782
13373W        W80441  18.703  43.963   0.382
13374W        W80442  35.420  27.068   0.298
13375W        W80443  23.654   2.959  14.323
13376W        W80444  25.542   7.778   3.328
13377W        W80445  10.704  11.272  10.935
13378W        W80446  13.169  31.631   2.311
13379W        W80447   6.260  40.315   0.373
13380W        W80448  41.456  39.490  12.562
13381W        W80449  26.140  16.225   2.335
13382W        W80450  20.069  40.352   2.388
13383W        W80451   2.341  10.818   2.411
13384W        W80452  27.011  15.763   2.288
13385W        W80453   3.440  35.993  13.819
13386W        W80454  21.595  39.917   3.799
13387W        W80455   8.773   2.240  12.061
13388W        W80456  31.944  15.176   3.195
13389W        W80457  20.586  43.803  12.083
13390W        W80458   9.346   1.381  10.614
13391W        W80459  23.491  20.049  12.849
13392W        W80460   6.698  38.465   0.266
13393W        W80461  28.496  36.498  14.967
13394W        W80462  16.798  34.498  12.457
13395W        W80463  28.518   6.897  14.462
13396W        W80464  42.857  40.493   4.152
13397W        W80465  25.148  35.027  12.477
13398W        W80466  13.304  13.328   2.686
13399W        W80467  14.606  29.442  10.432
13400W        W80468  14.645   0.265   0.265
13401W        W80469   1.313   2.838  11.891
13402W        W80470   8.757  33.967   3.658
13403W        W80471   0.973  12.684  10.545
13404W        W80472  13.240  31.470   0.902
13405W        W80473  42.377  32.598  13.950
13406W        W80474  18.603  31.904  11.982
13407W        W80475  21.158   7.231  14.030
13408W        W80476   2.295  12.819  12.339
13409W        W80477  43.379  42.928   2.824
13410W        W80478  16.574  38.870  14.324
13411W        W80479   7.727  26.093  13.369
13412W        W80480  26.586  30.556  14.338
13413W        W80481  11.627  35.915  13.394
13414W        W80482  17.752  38.839  11.379
13415W        W80483  11.187  44.777   1.416
13416W        W80484  13.628  34.515  14.861
13417W        W80485  19.741  29.540  13.396
13418W        W80486   8.890  22.619   4.164
13419W        W80487  32.583   0.747  10.019
13420W        W80488  18.723  40.472   3.322
13421W        W80489  14.701  38.933   0.283
13422W        W80490   5.233   1.249   1.697
13423W        W80491  40.389  36.479  11.112
13424W        W80492  38.004  22.726  12.384
13425W        W80493  21.040  41.506  14.342
13426W        W80494  17.257   9.695  10.511
13427W        W80495  40.473  24.220  14.878
13428W        W80496  27.675  21.669   4.638
13429W        W80497  42.962  15.267  10.962
13430W        W80498  36.457  43.910   2.814
13431W        W80499  24.157  30.555   1.934
13432W        W80500  13.251   6.345   2.373
13433W        W80501   0.368  23.184   1.431
13434W        W80502  18.211  19.756  14.026
13435W        W80503   0.837  25.566  10.455
13436W        W80504   4.212  37.952   2.719
13437W        W80505  21.038  26.006  11.075
13438W        W80506   6.325  38.861  10.561
13439W        W80507  30.147  17.613  11.039
13440W        W80508  44.474  41.459   5.250
13441W        W80509  44.389  37.062   0.745
13442W        W80510  35.507  12.824  13.398
13443W        W80511  33.565  17.610   3.148
13444W        W80512  42.952  19.611  10.525
13445W        W80513  42.904   4.227   4.780
13446W        W80514  42.787  11.241  12.446
13447W        W80515  43.022  29.539  12.349
13448W        W80516  27.552  38.067   1.810
13449W        W80517  42.972  41.941   0.793
13450W        W80518  27.458  28.507  14.375
13451W        W80519  40.010  42.932   4.301
13452W        W80520  22.996  14.307  13.044
13453W        W80521   2.365  33.386  12.562
13454W        W80522  28.952  17.662  14.796
13455W        W80523  16.135  33.113   1.728
13456W        W80524   4.263  32.953  14.460
13457W        W80525   2.754  41.395   1.385
13458W        W80526   2.394  13.839   3.758
13459W        W80527   4.312  44.470  12.829
13460W        W80528  35.003   8.776  10.640
13461W        W80529   8.324  16.606  14.812
13462W        W80530  22.216  43.838   3.787
13463W        W80531  28.965   7.178  11.459
13464W        W80532   5.196  15.662  14.408
13465W        W80533  41.396  31.448  12.879
13466W        W80534  32.907  16.181  13.509
13467W        W80535  22.705  43.970   1.751
13468W        W80536   0.911   0.852  14.812
13469W        W80537  41.980  31.558  11.031
13470W        W80538   3.910   8.807   5.156
13471W        W80539   8.796  14.703   2.407
13472W        W80540  41.537  26.984  13.010
13473W        W80541  33.975   4.244  10.514
13474W        W80542   9.863   4.392  13.896
13475W        W80543  37.954  41.908  14.377
13476W        W80544  39.961  26.511  13.848
13477W        W80545  38.338  41.381   3.335
13478W        W80546  18.063  42.907   4.319
13479W        W80547  10.751  40.448   4.688
13480W        W80548  14.186  16.707   1.716
13481W        W80549  17.732  10.195   4.655
13482W        W80550  12.202  35.600   0.441
13483W        W80551   9.354  39.531   0.728
13484W        W80552  29.528  32.605  11.417
13485W        W80553  40.349  11.748  13.476
13486W        W80554  41.844  19.769  14.428
13487W        W80555  38.329  43.323  10.416
13488W        W80556   5.316  21.214   5.141
13489W        W80557  21.211  20.611  11.986
13490W        W80558  16.586  35.994   2.868
13491W        W80559  35.592  27.030  10.495
13492W        W80560  34.501  25.564  13.391
13493W        W80561   6.797  33.101  14.404
13494W        W80562   4.783  14.678   2.675
13495W        W80563  13.168   5.690  10.160
13496W        W80564  31.636  39.007  10.636
13497W        W80565  26.616  12.225  14.783
13498W        W80566  14.174  34.871   1.838
13499W        W80567  23.023   0.842   3.306
13500W        W80568  17.730  30.076  12.343
13501W        W80569   6.829   9.839  12.058
13502W        W80570  26.532  10.792   1.791
13503W        W80571  22.075  19.758   4.730
13504W        W80572   7.224  42.327  13.972
13505W        W80573   8.789  29.567   1.699
13506W        W80574  22.153  44.399   3.300
13507W        W80575  32.515   9.360  10.562
13508W        W80576  20.256  35.947   1.860
13509W        W80577  36.584  40.007  14.946
13510W        W80578  16.622   6.231   3.772
13511W        W80579  14.719  20.040   0.940
13512W        W80580   8.787  22.514  11.378
13513W        W80581   0.745  10.196  10.002
13514W        W80582  28.152   6.328  10.070
13515W        W80583  25.980  32.482   2.831
13516W        W80584  14.765   4.418  10.414
13517W        W80585  15.734  24.109   0.288
13518W        W80586  13.803  16.599  10.480
13519W        W80587  40.902  30.156  13.458
13520W        W80588  10.667  24.718   3.832
13521W        W80589  38.959  20.609   9.969
13522W        W80590  29.013   1.398  10.891
13523W        W80591  22.996   8.345  11.528
13524W        W80592  23.567  35.427   3.696
13525W        W80593  21.177   1.952   1.701
13526W        W80594  40.962  42.950  11.096
13527W        W80595  41.806  14.795  14.470
13528W        W80596  34.059  39.900   2.239
13529W        W80597  10.220  23.001   3.227
13530W        W80598  36.380  16.710   4.707
13531W        W80599  31.053  38.070  14.381
13532W        W80600   1.294  35.901  13.937
13533W        W80601  30.994  19.245  11.921
13534W        W80602  18.576  18.294   2.851
13535W        W80603   7.819  11.170   3.689
13536W        W80604   6.879  31.582   0.278
13537W        W80605   8.173   8.175   3.249
13538W        W80606  39.497  34.426   2.319
13539W        W80607  15.752  10.736  10.563
13540W        W80608  10.190  32.965   4.166
13541W        W80609  35.998  12.143  13.835
13542W        W80610  10.378  37.383   0.808
13543W        W80611  14.194   3.879   4.301
13544W        W80612  31.144  30.138  13.531
13545W        W80613  30.926   5.429  14.025
13546W        W80614  26.041  25.988  14.919
13547W        W80615  28.564   6.678   1.297
13548W        W80616  36.373  40.344   2.851
13549W        W80617  41.375  16.629  14.473
13550W        W80618  16.729  43.296  12.364
13551W        W80619  17.614  40.867   1.815
13552W        W80620   2.747   1.741   1.881
13553W        W80621  16.755   7.675  10.148
13554W        W80622  27.575  33.128  11.102
13555W        W80623  29.566  23.146  14.448
13556W        W80624   3.846  27.625  11.558
13557W        W80625  38.993  25.966  12.557
13558W        W80626  37.362  29.535  14.022
13559W        W80627  29.642  33.584  10.952
13560W        W80628  17.244  14.793  11.521
13561W        W80629  36.469  28.448  13.399
13562W        W80630  33.890  13.188  11.906
13563W        W80631   1.951  18.084  12.984
13564W        W80632   6.378   0.444  13.064
13565W        W80633  25.991  14.706   1.277
13566W        W80634  38.520  41.321  10.492
13567W        W80635  11.298   8.889  12.926
13568W        W80636  35.016  22.556  10.504
13569W        W80637  26.189  15.278   1.347
13570W        W80638  26.622  25.674  11.605
13571W        W80639  41.002   9.363   1.248
13572W        W80640  29.657  12.846  14.980
13573W        W80641   2.391  14.320   3.708
13574W        W80642  27.136  37.470   1.225
13575W        W80643  20.199  17.717  11.390
13576W        W80644  17.574  37.403  11.570
13577W        W80645   9.239  30.455  10.974
13578W        W80646  41.485  10.786   4.273
13579W        W80647  41.301  39.367  13.501
13580W        W80648  40.448   6.184  14.796
13581W        W80649  43.861   2.467   4.804
13582W        W80650  20.095   4.943   3.871
13583W        W80651  31.099  42.416   2.284
13584W        W80652   0.912  12.685  12.528
13585W        W80653  18.255  31.104  11.037
13586W        W80654  23.710  30.052  10.960
13587W        W80655  28.514   7.390   2.860
13588W        W80656  21.569  22.008  13.912
13589W        W80657   7.887  28.479  14.374
13590W        W80658  42.375  36.379  11.050
13591W        W80659  34.864  33.440  11.079
13592W        W80660   7.267  30.115   1.780
13593W        W80661  42.942  34.923  12.919
13594W        W80662   5.378   3.854   3.147
13595W        W80663  39.051  21.212   0.824
13596W        W80664  22.149   9.181   2.326
13597W        W80665   9.250  30.072  14.493
13598W        W80666  30.005  17.218   1.222
13599W        W80667  41.032  10.811   2.336
13600W        W80668  14.683   1.255   4.189
13601W        W80669   7.354  43.345   1.826
13602W        W80670  26.178  28.669   1.280
13603W        W80671  39.512   5.736   0.247
13604W        W80672   8.240  19.132   2.180
13605W        W80673  25.538  22.550   4.746
13606W        W80674   3.908  15.748  13.881
13607W        W80675  26.151  15.769  13.843
13608W        W80676  36.019   9.710  12.503
13609W        W80677   7.667  37.343  12.867
13610W        W80678  21.677  36.461  14.799
13611W        W80679  13.662  29.100  13.939
13612W        W80680   3.438  16.723  12.005
13613W        W80681   7.767  25.549   2.331
13614W        W80682   2.835  19.641   1.723
13615W        W80683  17.587  34.118  14.997
13616W        W80684  27.602  36.491   3.359
13617W        W80685  27.637  22.588  13.348
13618W        W80686  40.504  26.512  10.428
13619W        W80687  37.994  13.679   3.867
13620W        W80688  35.091  23.712   1.928
13621W        W80689  37.353  28.579  13.834
13622W        W80690  22.729  42.323  14.351
13623W        W80691   9.339  34.534  13.021
13624W        W80692   4.758   8.842   2.718
13625W        W80693  35.409  19.137  10.973
13626W        W80694  28.671   5.827  10.564
13627W        W80695  13.285  36.577  11.588
13628W        W80696  24.050  11.763  10.144
13629W        W80697  26.571   5.731   0.748
13630W        W80698  44.920   1.430   1.361
13631W        W80699   2.427  38.831  13.410
13632W        W80700   1.898  11.738  11.952
13633W        W80701   8.267  20.628   4.621
13634W        W80702  32.534  12.122  12.366
13635W        W80703  37.014  42.841   0.767
13636W        W80704  11.334  17.209   0.445
13637W        W80705   7.382   2.951   3.684
13638W        W80706  14.644   9.866  14.898
13639W        W80707  42.407  18.694   0.962
13640W        W80708  35.974  36.492  11.111
13641W        W80709   4.319  34.562  10.605
13642W        W80710  35.967  23.052   3.671
13643W        W80711  41.507   9.686  11.907
13644W        W80712  19.624   4.238   0.909
13645W        W80713   8.797   1.964   1.343
13646W        W80714  44.278  22.662   3.246
13647W        W80715  21.710  17.781  11.585
13648W        W80716  26.648  17.678  10.899
13649W        W80717   8.692  41.800  12.971
13650W        W80718  33.618  32.903  12.373
13651W        W80719   2.782  36.520   0.753
13652W        W80720  29.064   1.285   3.641
13653W        W80721  21.152  38.337   3.660
13654W        W80722  32.000   5.872  13.373
13655W        W80723  16.686   9.663   1.341
13656W        W80724   5.854  19.204   1.302
13657W        W80725  10.701  33.051  12.928
13658W        W80726  42.507   1.843  10.423
13659W        W80727  35.583  42.777   3.844
13660W        W80728  27.602  20.196  14.774
13661W        W80729  13.313   3.221   2.859
13662W        W80730   8.780   1.953   3.794
13663W        W80731  33.429  29.941  10.942
13664W        W80732  31.971  37.531  11.555
13665W        W80733  11.185  22.085   3.707
13666W        W80734   1.329  24.197   0.387
13667W        W80735  31.143  27.108  14.420
13668W        W80736  35.515  41.021  12.004
13669W        W80737  13.307   3.796  14.353
13670W        W80738  27.168  37.037   3.752
13671W        W80739  30.118  13.189  11.875
13672W        W80740  22.568  21.742   3.273
13673W        W80741   1.471   1.449   2.347
13674W        W80742   1.934   8.737   3.209
13675W        W80743  19.764   3.387  11.125
13676W        W80744   7.769  30.093   2.375
13677W        W80745  31.614  37.063   0.312
13678W        W80746  23.730  38.903   1.300
13679W        W80747  29.470  28.580   3.723
13680W        W80748   8.309  32.948   3.725
13681W        W80749  22.612  21.530  13.377
13682W        W80750   9.197  29.600   4.726
13683W        W80751  13.226   7.757  12.049
13684W        W80752  25.698  11.642  11.444
13685W        W80753  17.586  40.384  11.417
13686W        W80754   0.264  40.494   4.695
13687W        W80755  15.612  22.612   2.746
13688W        W80756   2.896  15.219  11.595
13689W        W80757  35.986  35.409  13.346
13690W        W80758   6.863  44.921   1.859
13691W        W80759   6.288  24.630   1.740
13692W        W80760  23.170  41.866  12.091
13693W        W80761   0.367   0.891  13.465
13694W        W80762   6.844  19.628   3.763
13695W        W80763   1.964   0.421  14.388
13696W        W80764  13.656  23.157   1.735
13697W        W80765  26.586  38.507  13.409
13698W        W80766  34.504  36.396   3.308
13699W        W80767  12.811  35.004   0.833
13700W        W80768   7.885  41.350  13.348
13701W        W80769  16.113  35.388  13.365
13702W        W80770  40.992  37.853  13.315
13703W        W80771  16.078  14.324  14.505
13704W        W80772  29.051  15.776   3.849
13705W        W80773  38.955  36.028   3.826
13706W        W80774  36.999  24.176  11.512
13707W        W80775  26.995  31.471   0.737
13708W        W80776   7.861  36.068   1.882
13709W        W80777  17.702   9.713  14.938
13710W        W80778  22.555   4.742  13.896
13711W        W80779  20.567  24.141  12.011
13712W        W80780  29.022   1.874  14.820
13713W        W80781  15.209   5.845   2.866
13714W        W80782  29.945  32.521   0.428
13715W        W80783  32.404  42.924  12.854
13716W        W80784  44.282  13.333  14.309
13717W        W80785  17.095  43.885   2.851
13718W        W80786  29.133  20.596  13.902
13719W        W80787  38.517  32.427   1.844
13720W        W80788  35.387  38.459   0.732
13721W        W80789  16.587  36.958   2.800
13722W        W80790  23.040  42.389   1.358
13723W        W80791  18.578  27.492   5.301
13724W        W80792   1.418  42.305  14.763
13725W        W80793  18.745   3.417   5.300
13726W        W80794  30.542   6.681   0.291
13727W        W80795  22.574  40.832  14.946
13728W        W80796   4.902   0.263  14.496
13729W        W80797  43.353  42.929  12.001
13730W        W80798   1.812  18.107  12.428
13731W        W80799  19.158   5.907  11.052
13732W        W80800   3.937  25.672  11.589
13733W        W80801   7.331  22.219   4.829
13734W        W80802  32.109   3.879  10.528
13735W        W80803  31.051  22.224  12.846
13736W        W80804  16.762  18.220  10.439
13737W        W80805  10.767  16.621  13.924
13738W        W80806  32.930  10.786   3.287
13739W        W80807  30.655  24.593  11.125
13740W        W80808  18.784  32.487  12.386
13741W        W80809  42.963  23.136   2.417
13742W        W80810  30.938  32.571   2.805
13743W        W80811  21.633  44.467   0.939
13744W        W80812  26.489  43.791  11.470
13745W        W80813   8.393  36.534   3.783
13746W        W80814  40.996  11.626  14.782
13747W        W80815   1.351  12.754  12.557
13748W        W80816  20.175   7.187  10.942
13749W        W80817  12.225   7.212  14.771
13750W        W80818  16.647  41.481  10.533
13751W        W80819  25.671  13.161   1.871
13752W        W80820  12.688  44.963   1.248
13753W        W80821   4.257  15.649  14.315
13754W        W80822  32.973  15.747  13.366
13755W        W80823   7.908  32.603   1.419
13756W        W80824   8.750  39.004   4.647
13757W        W80825  10.383  31.084   4.211
13758W        W80826  24.103   0.438  11.962
13759W        W80827   4.766   9.832  13.461
13760W        W80828  33.076   2.741   1.815
13761W        W80829  33.875  33.430   4.822
13762W        W80830  22.704   6.190   3.845
13763W        W80831  27.617  13.332  12.369
13764W        W80832  35.087  33.566  12.408
13765W        W80833  31.449  23.020  14.381
13766W        W80834  26.522   3.384  10.152
13767W        W80835  14.640  26.469   2.820
13768W        W80836   8.772   7.336  11.607
13769W        W80837  35.463  39.814  12.384
13770W        W80838  43.445   1.262   2.279
13771W        W80839   5.430  32.114   0.875
13772W        W80840  35.882   8.389   1.386
13773W        W80841  30.151   1.785   1.278
13774W        W80842  35.538  34.106   1.342
13775W        W80843  31.911   7.845  12.449
13776W        W80844  14.176  29.461   2.884
13777W        W80845  28.675  17.160   4.656
13778W        W80846  27.985  32.625   4.303
13779W        W80847  35.359  39.540  14.811
13780W        W80848  10.734   8.188   3.199
13781W        W80849  27.149   3.949   4.211
13782W        W80850   1.878  35.934  10.574
13783W        W80851   4.844  35.051  12.000
13784W        W80852  34.025  10.322   9.989
13785W        W80853  16.792  16.725  12.371
13786W        W80854  21.055  27.570  11.457
13787W        W80855  43.347   8.822   0.783
13788W        W80856  28.515  19.545  13.063
13789W        W80857  40.017  13.828  14.382
13790W        W80858  44.896  37.080  14.297
13791W        W80859   5.815   6.197  13.315
13792W        W80860  15.281  17.113   0.926
13793W        W80861  31.027  24.697  13.947
13794W        W80862  35.861  37.066  11.967
13795W        W80863  22.595  29.036  13.445
13796W        W80864   5.268  34.500  12.853
13797W        W80865  43.400   2.760   2.673
13798W        W80866  16.722  16.252  12.934
13799W        W80867  17.647  25.511   1.713
13800W        W80868  43.338  27.608  12.450
13801W        W80869  27.520  11.229   1.344
13802W        W80870  15.604  44.931   4.608
13803W        W80871  38.963  11.721   0.913
13804W        W80872   0.761  25.041  11.497
13805W        W80873  30.027  23.620  13.492
13806W        W80874  19.683  28.490   4.175
13807W        W80875   1.388  31.601   1.902
13808W        W80876  22.056  38.543   2.401
13809W        W80877   2.472  26.038  12.839
13810W        W80878  42.976  28.537   0.428
13811W        W80879  27.523  10.311   4.663
13812W        W80880  36.421  39.338   4.809
13813W        W80881  36.930  36.995   2.813
13814W        W80882  44.346  19.739  10.644
13815W        W80883   1.829  11.175   3.782
13816W        W80884  42.419  24.152  14.027
13817W        W80885  35.579   9.837   2.838
13818W        W80886  40.845  44.318   0.344
13819W        W80887  30.637  32.465   4.351
13820W        W80888  37.840  20.067  12.089
13821W        W80889  18.134   3.744   2.674
13822W        W80890  15.090  23.013   4.168
13823W        W80891  17.133  29.922   3.826
13824W        W80892  23.207  42.487  13.421
13825W        W80893  43.398  16.745   0.352
13826W        W80894  11.854  39.515   0.466
13827W        W80895   5.706  18.760   1.421
13828W        W80896  24.230  40.520  12.510
13829W        W80897  28.166   1.814  10.471
13830W        W80898  43.928  30.113   1.865
13831W        W80899  37.534  24.694  11.517
13832W        W80900  40.489  10.814  13.534
13833W        W80901  42.929  39.475  14.948
13834W        W80902  43.306  29.995   1.368
13835W        W80903  38.535  23.100  13.371
13836W        W80904  18.203  28.441  13.519
13837W        W80905  33.029  36.869   0.897
13838W        W80906  27.615  39.027   0.795
13839W        W80907  31.491  40.028   0.426
13840W        W80908  15.097   3.342   5.307
13841W        W80909  20.587  23.562  13.859
13842W        W80910  31.604  28.514   1.699
13843W        W80911  35.052  40.917   2.362
13844W        W80912  24.130  31.071  11.097
13845W        W80913   8.797  24.700  12.578
13846W        W80914  40.955  40.830   3.154
13847W        W80915  40.458  36.844   2.807
13848W        W80916  40.344  20.086  12.842
13849W        W80917   5.744  32.132  14.801
13850W        W80918  11.231  15.759  13.809
13851W        W80919  37.564   9.224   1.803
13852W        W80920  33.976   6.196   4.145
13853W        W80921  23.160  10.790  14.360
13854W        W80922  44.341   4.822   4.822
13855W        W80923  28.557  37.909  11.068
13856W        W80924   2.880  24.533   0.399
13857W        W80925  40.462  26.536   0.766
13858W        W80926   9.792   6.263  13.461
13859W        W80927  26.675   2.825  12.549
13860W        W80928  38.857   0.745   1.246
13861W        W80929   4.264  22.027  12.468
13862W        W80930  40.918  32.887   3.697
13863W        W80931   9.796  29.464   2.211
13864W        W80932  33.490   8.812  10.612
13865W        W80933  23.069  35.398   3.751
13866W        W80934  26.031  41.899   2.744
13867W        W80935  19.239  23.651   0.749
13868W        W80936  27.061  21.066   1.335
13869W        W80937  42.805  24.101   0.428
13870W        W80938  17.133  11.675  13.340
13871W        W80939  28.166  12.757   4.267
13872W        W80940   0.824  20.029   1.358
13873W        W80941  12.717  30.566  12.477
13874W        W80942   6.735  20.544   0.369
13875W        W80943   2.404  25.085   4.719
13876W        W80944  38.384  34.503   1.795
13877W        W80945   2.747  25.639  14.809
13878W        W80946  24.527  40.987  13.517
13879W        W80947  17.135   0.949   1.225
13880W        W80948  14.160   3.766  14.792
13881W        W80949  36.967  25.210  12.345
13882W        W80950  36.560  41.039   2.802
13883W        W80951  21.235  24.984  13.466
13884W        W80952   7.897   2.350   1.379
13885W        W80953   3.412  18.728   4.232
13886W        W80954  13.239  23.080  11.073
13887W        W80955  36.851  13.735  13.872
13888W        W80956   7.418  36.000   0.957
13889W        W80957  20.146  11.716   1.771
13890W        W80958   4.801  12.774   3.233
13891W        W80959  14.157  15.635  12.380
13892W        W80960   8.301   6.865  11.102
13893W        W80961  41.858  24.076  14.829
13894W        W80962  14.127  37.907  12.391
13895W        W80963  26.486   8.376   3.855
13896W        W80964  16.156  41.464  12.561
13897W        W80965   4.855  41.350  13.925
13898W        W80966  33.526  41.372   1.702
13899W        W80967  21.205  30.435   1.699
13900W        W80968  29.039  38.526   2.284
13901W        W80969  30.611  16.235  13.371
13902W        W80970   6.255  42.363  11.947
13903W        W80971  22.684  28.442  13.798
13904W        W80972  21.098  29.084   4.121
13905W        W80973   1.763  40.979   4.801
13906W        W80974  26.152  40.370   2.317
13907W        W80975   8.271   9.287   4.141
13908W        W80976  25.089  33.974   4.245
13909W        W80977  37.354  13.650  13.958
13910W        W80978  31.004  18.286  11.578
13911W        W80979  40.445  34.058  11.582
13912W        W80980  23.043  16.803  10.583
13913W        W80981   4.401  39.033  14.326
13914W        W80982  21.183  44.772   0.884
13915W        W80983  34.949  36.007  10.951
13916W        W80984  17.739  23.123   1.449
13917W        W80985  29.918  23.699   1.800
13918W        W80986  32.490  23.625   0.936
13919W        W80987   7.299   8.279  13.910
13920W        W80988  27.595  32.951   3.868
13921W        W80989  40.996  17.746   4.176
13922W        W80990  32.066  42.841   2.678
13923W        W80991  30.586  18.649  12.927
13924W        W80992  43.287  33.446  13.840
13925W        W80993  28.484  29.484   1.348
13926W        W80994  14.290  37.571  12.467
13927W        W80995  16.787  28.118  10.492
13928W        W80996  39.468  42.360  13.796
13929W        W80997   6.409  20.603   3.360
13930W        W80998  43.500  18.770  12.553
13931W        W80999  30.053  34.995   1.819
13932W        W81000  20.253  20.128   3.345
13933W        W81001  10.863  21.619  14.004
13934W        W81002  35.523   8.680  11.481
13935W        W81003   2.405  13.168  13.987
13936W        W81004  16.794  16.723   4.775
13937W        W81005  39.401   7.195   0.357
13938W        W81006  43.437  29.128   2.377
13939W        W81007  19.674   9.159   3.261
13940W        W81008   2.886  29.020   2.204
13941W        W81009  28.652  42.313   1.746
13942W        W81010  24.568  40.836  13.982
13943W        W81011   0.870  18.586  14.489
13944W        W81012  44.942  12.656   2.770
13945W        W81013  24.011  32.923  14.316
13946W        W81014  41.413  12.216  10.950
13947W        W81015  36.924  39.855  10.932
13948W        W81016   8.677  27.654  13.543
13949W        W81017  27.044  21.045   3.730
13950W        W81018  32.101   4.271  12.862
13951W        W81019  15.090  27.619  14.782
13952W        W81020  23.172   1.739  10.567
13953W        W81021  35.373  43.828   4.692
13954W        W81022  20.710  16.672   4.721
13955W        W81023   0.470   6.363  12.548
13956W        W81024   9.267  18.560   1.728
13957W        W81025  36.096  16.750   4.626
13958W        W81026  42.505  24.537   0.794
13959W        W81027  16.150  12.758   2.243
13960W        W81028  35.572   6.920  11.031
13961W        W81029  21.553  40.999  13.856
13962W        W81030   4.445  25.537   1.708
13963W        W81031  26.487   5.692  14.780
13964W        W81032  15.106  25.710   3.343
13965W        W81033  18.204  42.512  12.452
13966W        W81034   8.742   8.691   1.812
13967W        W81035  41.309  10.385  12.084
13968W        W81036  20.682  23.524   1.409
13969W        W81037  11.823  29.536  11.395
13970W        W81038  10.678  40.514   4.301
13971W        W81039  24.164  14.622  11.985
13972W        W81040  15.209  24.069   0.961
13973W        W81041  33.021  35.407   4.196
13974W        W81042  39.954  19.657   3.775
13975W        W81043   8.739  31.018   0.449
13976W        W81044  31.428  34.105   3.336
13977W        W81045  32.104  23.163  14.510
13978W        W81046  16.237   4.301  11.025
13979W        W81047  40.488  18.784  14.989
13980W        W81048  21.178   8.673   4.218
13981W        W81049  40.487  28.515   1.250
13982W        W81050  34.454   7.319  13.980
13983W        W81051  11.653   7.248   3.764
13984W        W81052  24.218  26.489  11.534
13985W        W81053  20.603   6.367   0.961
13986W        W81054  14.214  41.505  13.993
13987W        W81055  10.804   3.356   9.978
13988W        W81056  37.426  42.309  11.404
13989W        W81057   5.354  44.908   1.738
13990W        W81058   3.429  37.414   2.403
13991W        W81059   8.741  21.094  11.990
13992W        W81060   9.876  29.028   4.799
13993W        W81061  11.225  37.841   2.707
13994W        W81062  13.819   7.893  12.368
13995W        W81063  35.072  25.215  11.108
13996W        W81064  15.679  44.868   0.860
13997W        W81065  19.678   5.742   3.307
13998W        W81066   0.950  41.458  10.158
13999W        W81067   1.453  32.427   3.219
14000W        W81068  36.032  25.675   3.719
14001W        W81069  39.870  11.705  12.473
14002W        W81070  43.889  35.052  12.060
14003W        W81071  30.445   8.676   1.228
14004W        W81072  12.228   1.467  12.523
14005W        W81073  24.177  36.888  14.409
14006W        W81074  31.599  36.449  14.413
14007W        W81075   4.908   0.398   2.703
14008W        W81076   2.324  27.033   3.853
14009W        W81077  41.494   7.806  10.550
14010W        W81078  12.668  37.377  13.896
14011W        W81079  20.712  32.477   1.920
14012W        W81080  44.414  33.538   4.284
14013W        W81081  32.399  10.760   1.884
14014W        W81082   2.878   9.807  14.830
14015W        W81083  12.361   0.452   2.379
14016W        W81084  13.786   3.255   0.364
14017W        W81085  34.942  26.188   1.224
14018W        W81086   2.868  42.449  13.882
14019W        W81087  13.211  10.816  14.774
14020W        W81088  36.399  22.082  12.472
14021W        W81089  41.408  22.134   1.396
14022W        W81090  30.512  23.540  13.472
14023W        W81091   5.910   4.810  12.877
14024W        W81092  19.537  21.749   0.851
14025W        W81093  36.467  41.985   1.259
14026W        W81094  38.951  30.477  13.357
14027W        W81095  43.355  32.412   0.734
14028W        W81096   3.914  19.179   1.722
14029W        W81097  10.826  13.645   1.732
14030W        W81098  15.278   6.190  12.051
14031W        W81099  37.380  34.587  11.412
14032W        W81100  33.602   8.731   0.395
14033W        W81101   6.732  44.420  13.958
14034W        W81102  30.113  29.633  11.575
14035W        W81103  16.752  39.450  13.829
14036W        W81104  30.537  42.516   1.319
14037W        W81105  34.897  32.028   1.699
14038W        W81106  34.887  41.935  10.429
14039W        W81107  44.945   6.909  11.987
14040W        W81108  34.976  19.270   2.792
14041W        W81109  44.341  37.541   0.313
14042W        W81110  24.158  35.888  13.923
14043W        W81111  38.368  32.609  10.625
14044W        W81112  44.827  26.489   1.869
14045W        W81113  43.839  10.634  12.011
14046W        W81114   3.441  36.372  11.062
14047W        W81115  19.611  23.499   1.890
14048W        W81116  44.841   3.238   4.161
14049W        W81117   3.709   2.443  11.092
14050W        W81118  11.706  24.111   3.362
14051W        W81119  15.638  20.029  12.559
14052W        W81120  23.036  13.665   3.261
14053W        W81121   7.772   7.330  14.454
14054W        W81122   0.314  35.929   1.782
14055W        W81123  38.914  12.119   1.279
14056W        W81124  40.851  23.119   0.808
14057W        W81125  31.120  15.816   1.231
14058W        W81126  39.065  16.793   2.404
14059W        W81127  43.965  42.438   3.304
14060W        W81128  37.014   0.825  14.783
14061W        W81129   7.374  23.491   3.310
14062W        W81130  38.498  25.213   2.255
14063W        W81131   0.852  31.050   0.413
14064W        W81132  15.128  40.401   3.311
14065W        W81133  38.388  29.611  12.566
14066W        W81134  40.898  11.279   1.325
14067W        W81135  35.451  16.277   4.688
14068W        W81136  34.098  34.944   1.862
14069W        W81137  16.745  20.209   4.611
14070W        W81138  16.627  41.453  14.774
14071W        W81139   1.348  37.537   2.383
14072W        W81140  30.630   2.835  14.814
14073W        W81141  24.630  27.563  14.772
14074W        W81142   0.745   9.754   3.713
14075W        W81143  23.691  11.652   2.318
14076W        W81144  24.633   9.370   2.246
14077W        W81145   2.411   4.806   0.925
14078W        W81146  15.201   7.816  13.962
14079W        W81147   7.251   5.268  14.453
14080W        W81148  21.030  20.547  14.428
14081W        W81149   3.290  18.287  14.879
14082W        W81150  26.150  26.463   3.266
14083W        W81151  15.180   0.774  11.915
14084W        W81152  10.206   6.329  14.807
14085W        W81153  30.592  28.945  13.862
14086W        W81154  22.729  35.448  13.442
14087W        W81155  24.120  20.068   3.317
14088W        W81156  18.162   6.212  12.087
14089W        W81157  10.159  21.545  11.467
14090W        W81158  38.878  38.006   2.354
14091W        W81159  32.091  28.600   0.803
14092W        W81160  41.941   9.360   1.706
14093W        W81161  26.699  26.052  14.012
14094W        W81162  30.492  10.867  10.934
14095W        W81163  43.482   0.870   4.770
14096W        W81164  25.048  22.061   3.343
14097W        W81165   2.786   0.361  11.933
14098W        W81166  39.343  13.107  10.574
14099W        W81167  30.986  31.938  11.903
14100W        W81168  17.299  38.866  11.504
14101W        W81169  32.587   5.763  14.440
14102W        W81170  34.001  19.234   1.832
14103W        W81171  39.847  25.219  10.945
14104W        W81172  36.853  16.307  11.117
14105W        W81173  35.910  16.316   3.293
14106W        W81174   3.225  34.566   4.729
14107W        W81175  29.493   9.370   1.702
14108W        W81176  17.266  21.244   0.886
14109W        W81177   9.777  36.095  12.446
14110W        W81178  16.797  15.757   3.740
14111W        W81179  17.086   1.904   0.784
14112W        W81180   1.788  40.411   3.277
14113W        W81181  27.460  39.880   3.287
14114W        W81182  36.515  26.506   4.649
14115W        W81183  13.630  37.909  11.471
14116W        W81184  44.804  36.025   3.310
14117W        W81185   5.277  38.356   2.806
14118W        W81186  23.050  33.483  11.021
14119W        W81187   1.427  30.152  14.922
14120W        W81188  30.945  21.197   3.201
14121W        W81189  15.110  12.670  12.347
14122W        W81190  16.195  26.614  11.584
14123W        W81191  19.623   2.261   1.398
14124W        W81192   2.249  30.482  13.839
14125W        W81193  14.746  23.990   0.426
14126W        W81194  15.214  34.402   2.249
14127W        W81195  32.007  10.868   4.150
14128W        W81196   7.279  44.503  11.613
14129W        W81197  28.136   2.820  10.499
14130W        W81198  26.621   6.835  10.947
14131W        W81199   0.395  40.968   1.211
14132W        W81200  21.726   3.882  10.555
14133W        W81201   2.835  31.632   1.423
14134W        W81202  43.434  26.535  14.865
14135W        W81203  37.420   8.847   0.792
14136W        W81204  10.361   7.906  14.764
14137W        W81205   4.240   5.308  10.616
14138W        W81206  35.925  41.293  14.929
14139W        W81207  28.138  30.143  14.510
14140W        W81208  23.619  29.157  10.508
14141W        W81209  41.474   1.241  11.975
14142W        W81210  35.089  24.219   1.910
14143W        W81211   5.830   9.648   4.693
14144W        W81212  14.603  14.284  13.380
14145W        W81213   6.743  31.417  13.340
14146W        W81214   5.828  24.045  14.353
14147W        W81215   5.218  28.999  13.920
14148W        W81216  36.013   8.313   1.788
14149W        W81217   0.441   8.674  14.466
14150W        W81218   9.701  36.025   1.830
14151W        W81219  15.282  10.267  14.306
14152W        W81220  42.285   4.818   4.613
14153W        W81221   3.368  37.392  10.430
14154W        W81222  19.176  20.685   0.903
14155W        W81223  43.317  36.899  11.396
14156W        W81224  17.587  18.227  13.964
14157W        W81225  36.425  10.283  13.858
14158W        W81226  34.383  11.346  14.785
14159W        W81227  40.904  16.773  11.578
14160W        W81228  29.523  36.854  10.641
14161W        W81229  22.522  35.441   3.233
14162W        W81230   7.885  21.625   4.604
14163W        W81231  30.563  12.228   2.825
14164W        W81232  10.762  32.116  13.333
14165W        W81233  35.567  24.594   2.179
14166W        W81234  36.474   3.952  13.418
14167W        W81235  25.064   7.376  12.876
14168W        W81236   6.273  36.420  12.853
14169W        W81237  31.406  20.667   2.888
14170W        W81238  28.488  13.731   1.258
14171W        W81239   8.768   7.268   2.230
14172W        W81240  39.446  27.445   3.811
14173W        W81241  26.479  12.762  14.972
14174W        W81242  17.648   8.750  10.956
14175W        W81243  29.502  16.090  13.003
14176W        W81244  27.464  22.736   4.828
14177W        W81245  36.416  40.404  12.071
14178W        W81246  38.364   9.887  14.400
14179W        W81247  34.494  22.609   4.310
14180W        W81248  15.262   1.760   4.734
14181W        W81249  15.638  18.293   1.797
14182W        W81250  31.494   6.338  13.403
14183W        W81251  41.538  39.980   3.676
14184W        W81252  31.424  15.296  11.473
14185W        W81253  16.682  26.523  13.421
14186W        W81254  18.553  13.758  10.526
14187W        W81255  33.112  35.558  13.871
14188W        W81256   1.924  32.023   3.288
14189W        W81257  17.138  34.024  13.823
14190W        W81258   3.760  35.448   2.404
14191W        W81259  44.391  42.977  11.415
14192W        W81260  16.726  38.874  13.800
14193W        W81261   7.697  29.522   3.340
14194W        W81262  20.143   3.734  11.388
14195W        W81263  36.420   3.352  10.505
14196W        W81264  33.613  25.981  13.380
14197W        W81265  14.176  31.065  14.345
14198W        W81266  38.822  40.015   3.359
14199W        W81267  13.644   5.214  14.449
14200W        W81268   8.670  30.554   4.286
14201W        W81269  21.155   0.429   3.665
14202W        W81270   0.344   9.389  11.544
14203W        W81271  35.411  14.709   0.875
14204W        W81272   6.344   9.339  14.435
14205W        W81273  14.677   6.694   0.842
14206W        W81274  20.107   1.275   0.938
14207W        W81275  38.340  12.709  13.894
14208W        W81276   2.816   8.161   1.327
14209W        W81277  38.825  32.104  13.840
14210W        W81278   5.868  36.099  10.623
14211W        W81279   8.356   6.388  13.819
14212W        W81280  20.168   0.861   3.868
14213W        W81281   6.246   9.691  12.853
14214W        W81282  14.136  27.568   2.318
14215W        W81283  42.030  40.835   2.390
14216W        W81284  33.620  13.291   2.259
14217W        W81285  15.585  35.553   0.808
14218W        W81286  32.541  26.472   0.857
14219W        W81287  37.940  30.487  13.376
14220W        W81288  34.884  10.775  12.999
14221W        W81289  38.495  15.171  11.528
14222W        W81290  39.908  11.777  11.602
14223W        W81291  36.448  29.044  11.564
14224W        W81292  37.925  31.589  13.859
14225W        W81293  32.422  40.949  10.614
14226W        W81294  22.199  42.400  10.001
14227W        W81295  37.970  11.858   2.256
14228W        W81296  27.596  13.328  14.905
14229W        W81297  43.869   9.745   1.801
14230W        W81298  20.565   2.294  12.513
14231W        W81299  13.288  33.621  13.499
14232W        W81300   3.797  15.228  14.858
14233W        W81301  18.270   2.398  12.455
14234W        W81302  36.502  38.503  12.977
14235W        W81303  24.981  34.613   3.192
14236W        W81304  41.361  26.101  11.415
14237W        W81305  27.165  41.316  13.956
14238W        W81306  21.247   6.755  14.860
14239W        W81307  22.225  25.025  12.508
14240W        W81308  18.583  11.326  11.908
14241W        W81309  35.434   1.450  13.387
14242W        W81310  18.652  33.955   1.234
14243W        W81311   3.422  19.077   2.268
14244W        W81312   6.707  20.729   1.419
14245W        W81313  23.115  35.068  14.776
14246W        W81314  28.153  38.825   3.793
14247W        W81315  27.680  14.610  10.556
14248W        W81316  20.265  28.571  12.838
14249W        W81317  36.861  10.690  12.558
14250W        W81318   6.383   7.319   0.890
14251W        W81319  22.251  13.788   1.260
14252W        W81320  25.575   3.451  13.369
14253W        W81321  17.141  37.489  10.435
14254W        W81322  38.989  20.651  12.023
14255W        W81323  40.850  39.324  11.563
14256W        W81324  36.072  35.046  14.768
14257W        W81325  15.731  17.233  13.458
14258W        W81326  40.476   5.313  12.533
14259W        W81327  20.760  11.808   1.836
14260W        W81328  12.821  21.085  11.865
14261W        W81329   4.905  25.203   0.966
14262W        W81330  31.030   4.887  12.035
14263W        W81331  41.941  21.160  14.901
14264W        W81332  16.666  20.741  11.975
14265W        W81333  26.503   8.213  10.927
14266W        W81334  19.739  13.138   2.724
14267W        W81335  29.093  42.882  10.985
14268W        W81336   9.863  14.138   3.377
14269W        W81337  43.935   9.773   1.246
14270W        W81338  15.180   6.874   3.733
14271W        W81339  42.798  26.195   3.754
14272W        W81340  13.679  28.445   4.327
14273W        W81341  41.448  33.424   4.744
14274W        W81342  40.418  36.539   1.388
14275W        W81343   9.806  25.996   2.715
14276W        W81344  19.132  13.130   3.694
14277W        W81345  16.241  43.888   0.383
14278W        W81346  18.101   8.769   1.738
14279W        W81347  44.383  31.950  14.031
14280W        W81348  39.857  17.746  11.928
14281W        W81349  39.434  39.998  11.507
14282W        W81350  23.516  27.034  14.456
14283W        W81351   5.341  10.351   1.345
14284W        W81352  25.139  15.309   3.166
14285W        W81353  33.477  40.931   3.789
14286W        W81354  39.950  42.286  11.415
14287W        W81355  31.001   8.655  10.064
14288W        W81356  23.570  17.757  12.844
14289W        W81357  35.452  25.016  14.505
14290W        W81358  39.454  29.666   3.300
14291W        W81359  27.977  41.305   5.155
14292W        W81360   7.852  26.673  10.932
14293W        W81361  26.146  35.549  10.979
14294W        W81362   6.333   5.424   1.338
14295W        W81363  41.310  27.106   4.685
14296W        W81364  44.783  34.484  12.518
14297W        W81365   0.423  22.202   1.725
14298W        W81366  10.852  38.459   4.279
14299W        W81367   9.877  35.517   1.278
14300W        W81368  30.911  13.721   0.842
14301W        W81369  32.629  11.669   0.932
14302W        W81370  18.737  27.546  14.401
14303W        W81371  21.650  11.753   3.149
14304W        W81372  14.624   8.716   0.464
14305W        W81373  19.138   0.337  13.864
14306W        W81374  16.188  29.947  14.999
14307W        W81375  44.413  43.504  11.379
14308W        W81376  17.269  39.428  13.912
14309W        W81377  38.518   9.725   3.189
14310W        W81378  16.634  38.569  10.625
14311W        W81379   4.827  22.095  10.947
14312W        W81380  10.274   0.900  13.517
14313W        W81381   8.743  29.473  12.094
14314W        W81382   7.226  32.059  12.985
14315W        W81383  10.690  39.319   4.287
14316W        W81384  30.656   6.888   4.268
14317W        W81385  28.652  40.984   4.717
14318W        W81386   3.420  24.647   2.317
14319W        W81387   0.908  39.885   4.322
14320W        W81388  36.508  35.970   2.208
14321W        W81389  23.998   8.662  13.406
14322W        W81390  33.065   1.355   3.638
14323W        W81391  28.483  38.432   2.414
14324W        W81392  35.082  18.280  12.896
14325W        W81393  14.257  37.887  13.959
14326W        W81394  37.380  30.506  10.118
14327W        W81395  36.992  14.284  12.059
14328W        W81396  15.643   9.707   3.867
14329W        W81397  11.848   6.714  10.895
14330W        W81398  20.587  33.059   3.199
14331W        W81399  37.948   0.983  12.833
14332W        W81400  38.000  24.035  11.985
14333W        W81401  28.054   8.880   0.840
14334W        W81402  14.179  21.154   1.339
14335W        W81403  26.530  35.104   1.845
14336W        W81404   6.324  15.146  13.975
14337W        W81405  25.707  33.103   4.673
14338W        W81406  23.095   6.303  11.045
14339W        W81407   3.745  38.408   2.806
14340W        W81408  44.819  24.617  12.372
14341W        W81409  11.352   1.927  13.471
14342W        W81410   0.432   0.780   4.147
14343W        W81411  32.062  27.632   3.192
14344W        W81412  18.648   2.394   4.124
14345W        W81413   6.333  24.702  14.013
14346W        W81414  15.177  39.532   2.892
14347W        W81415  36.880  29.099  12.341
14348W        W81416   0.965   5.267   0.874
14349W        W81417  37.582   1.970  14.869
14350W        W81418  37.949  38.869  10.582
14351W        W81419  38.896  44.853  12.919
14352W        W81420  27.982  12.624   4.750
14353W        W81421  33.533  40.973   2.724
14354W        W81422  16.628  20.251  14.802
14355W        W81423  39.920  28.175   1.730
14356W        W81424  13.209  30.512  10.954
14357W        W81425  14.812   7.851  12.052
14358W        W81426  12.314  16.091   3.643
14359W        W81427  33.455  11.144   2.296
14360W        W81428  21.721  21.618   0.826
14361W        W81429  11.862   6.284   5.122
14362W        W81430  25.556  13.663   4.256
14363W        W81431  22.182  16.781  14.471
14364W        W81432  29.591  26.955  11.098
14365W        W81433   3.951  28.075   2.831
14366W        W81434  35.038  38.996   3.800
14367W        W81435  23.007  17.289  13.808
14368W        W81436  39.895  11.356   0.365
14369W        W81437  18.051  40.454  10.997
14370W        W81438  29.583  20.199  11.098
14371W        W81439  25.547  39.481   2.313
14372W        W81440  13.160  36.086  12.565
14373W        W81441  41.864  18.186   3.178
14374W        W81442  19.698  21.100  10.442
14375W        W81443  44.350  38.884  14.929
14376W        W81444  26.593  44.328   0.315
14377W        W81445  32.603   7.230  12.541
14378W        W81446   7.666  39.052  14.456
14379W        W81447  28.104   8.823   1.293
14380W        W81448  22.741  24.991   4.344
14381W        W81449  15.235  29.533  13.798
14382W        W81450  34.917  41.471   3.632
14383W        W81451  30.017  24.615  14.888
14384W        W81452  28.659  33.417   1.826
14385W        W81453   7.233  17.124   3.762
14386W        W81454  13.154  35.001  10.572
14387W        W81455   8.381  16.076  10.940
14388W        W81456  18.607  15.327  12.515
14389W        W81457   3.858   3.874   4.688
14390W        W81458   7.745  14.703  13.870
14391W        W81459  27.978  15.584  10.465
14392W        W81460  38.344  25.006  14.328
14393W        W81461  35.930  21.145   4.681
14394W        W81462  34.979   1.926   3.697
14395W        W81463  18.284   9.864  13.341
14396W        W81464  30.145  17.141   0.325
14397W        W81465  26.148  39.385  14.434
14398W        W81466  41.827   1.745  14.397
14399W        W81467  37.575  35.057  11.085
14400W        W81468   9.194  16.672  14.356
14401W        W81469  17.263  40.306   0.813
14402W        W81470  12.767   4.723  11.388
14403W        W81471  11.664  10.314  14.515
14404W        W81472  21.517  18.620  11.586
14405W        W81473  26.475  17.272   0.392
14406W        W81474  21.566  22.037   1.428
14407W        W81475  36.044   6.204   3.697
14408W        W81476  35.915  32.622   3.785
14409W        W81477   5.707  33.598   2.773
14410W        W81478  33.095  14.258   2.212
14411W        W81479  36.405  19.212   3.675
14412W        W81480   0.804  39.406  13.406
14413W        W81481   1.241   2.811  12.844
14414W        W81482   0.375  38.515  12.405
14415W        W81483  40.310  36.876   0.420
14416W        W81484  26.047  35.497  12.003
14417W        W81485   2.890  35.531  12.398
14418W        W81486  17.784  13.337  12.416
14419W        W81487  40.353   3.335  11.455
14420W        W81488   7.705  11.334   3.384
14421W        W81489  12.668  37.078  12.435
14422W        W81490  39.362   5.717   0.774
14423W        W81491  21.740  26.154   1.711
14424W        W81492  28.074   9.679   3.826
14425W        W81493  26.069   0.989  14.330
14426W        W81494  29.610  39.398   2.792
14427W        W81495  44.303  38.401   4.159
14428W        W81496  28.633  39.062   1.794
14429W        W81497  44.342   3.348   0.854
14430W        W81498  37.072  20.073   2.704
14431W        W81499   4.364  25.083   2.268
14432W        W81500  17.623   9.278  13.039
14433W        W81501  12.829  27.046   1.861
14434W        W81502  25.157  22.172   1.785
14435W        W81503   8.704  38.828  10.562
14436W        W81504  10.181   5.929  10.589
14437W        W81505   8.383  27.182  14.349
14438W        W81506  42.428  16.260  12.084
14439W        W81507  16.259  10.244  12.486
14440W        W81508  17.719  10.849  11.105
14441W        W81509  21.736   3.798  13.354
14442W        W81510   6.343  23.038  14.365
14443W        W81511  40.819  30.045  14.868
14444W        W81512  14.801  22.716  12.371
14445W        W81513  40.004  10.815   3.831
14446W        W81514   0.334   2.772  12.016
14447W        W81515   4.328  30.137  14.764
14448W        W81516  17.741  10.747   4.240
14449W        W81517  43.856  17.705   2.883
14450W        W81518  22.631  16.114   4.634
14451W        W81519  41.916  23.035  11.959
14452W        W81520  19.595  29.586   0.372
14453W        W81521  31.574  25.084   3.742
14454W        W81522  29.586  36.062  13.046
14455W        W81523  37.939  34.094   2.703
14456W        W81524  13.347  18.634   1.394
14457W        W81525   6.279  44.453   0.252
14458W        W81526  20.162   4.746  11.906
14459W        W81527  27.506  20.558   2.853
14460W        W81528  43.838  10.147   4.128
14461W        W81529  41.438  34.381  14.013
14462W        W81530  42.512  38.531  11.458
14463W        W81531   8.739  33.052  13.389
14464W        W81532  28.488  18.630  13.414
14465W        W81533   0.805  38.358   0.894
14466W        W81534   7.715   6.751  11.031
14467W        W81535  12.639  11.794  14.764
14468W        W81536  12.705  28.474   2.285
14469W        W81537  10.294   5.417   1.730
14470W        W81538  37.568  29.083  10.416
14471W        W81539  40.996  10.243  10.628
14472W        W81540  33.996  12.338  14.360
14473W        W81541  13.197  15.780  11.572
14474W        W81542  20.063   6.689  12.574
14475W        W81543  31.480  31.426  12.087
14476W        W81544  36.096   4.237  11.919
14477W        W81545  36.052  41.835  12.400
14478W        W81546  30.633  29.988   2.899
14479W        W81547  17.150   2.385  12.060
14480W        W81548  42.778  26.062   1.929
14481W        W81549  30.970   0.988  11.961
14482W        W81550   1.954   3.409   1.856
14483W        W81551  28.091  33.454   1.811
14484W        W81552  43.845  36.413  11.897
14485W        W81553  23.073   5.226   3.248
14486W        W81554   9.252  42.778   5.257
14487W        W81555  14.598  37.872   3.645
14488W        W81556  32.527  42.373  12.537
14489W        W81557  14.202  17.628   3.631
14490W        W81558  35.564  44.861  14.413
14491W        W81559  36.908  23.690  11.927
14492W        W81560  39.351  33.444  10.981
14493W        W81561  17.225   3.432   4.329
14494W        W81562  38.547   2.327   1.389
14495W        W81563  11.306  25.156  10.584
14496W        W81564  30.590  28.639  14.913
14497W        W81565  37.420  38.927  13.893
14498W        W81566  10.190  32.939  10.026
14499W        W81567  13.152  33.399  13.845
14500W        W81568  27.944  20.679   0.390
14501W        W81569  18.753  41.861   2.409
14502W        W81570  43.930   0.907   1.280
14503W        W81571  29.070   2.321  12.487
14504W        W81572  15.097  31.096   3.714
14505W        W81573  42.882   2.803   3.360
14506W        W81574   4.803  18.635   0.871
14507W        W81575  12.635  44.438  12.014
14508W        W81576  25.641  12.780   5.189
14509W        W81577   7.824  14.131  10.618
14510W        W81578  15.246  10.727   0.753
14511W        W81579  24.523  24.633  14.365
14512W        W81580  24.666  27.501  11.929
14513W        W81581  24.007  24.513  14.873
14514W        W81582  24.139  18.614   9.931
14515W        W81583   4.821  19.610  14.910
14516W        W81584   2.739   2.313  13.343
14517W        W81585   5.373  22.602  14.514
14518W        W81586   7.262  40.975  14.477
14519W        W81587  36.951  42.498   1.428
14520W        W81588   5.829  12.732  11.493
14521W        W81589  33.533  44.483  13.307
14522W        W81590  35.520   9.735  14.867
14523W        W81591   4.765  10.278   2.848
14524W        W81592  42.434  28.582   0.778
14525W        W81593   7.755  36.093  11.086
14526W        W81594  37.545  19.045  11.908
14527W        W81595  32.966   6.682   1.813
14528W        W81596  34.370  33.559   1.225
14529W        W81597   3.905  32.451  13.923
14530W        W81598  37.891   0.340   4.807
14531W        W81599  30.128  25.113   1.212
14532W        W81600  10.735  23.561   3.818
14533W        W81601   1.931   7.351  14.381
14534W        W81602   5.927  16.569  13.832
14535W        W81603  44.768  41.939   1.241
14536W        W81604   7.796  44.939   3.716
14537W        W81605  10.710  22.626   2.887
14538W        W81606  42.986  30.519  10.491
14539W        W81607   8.372   3.742   2.181
14540W        W81608   2.787  22.160  10.907
14541W        W81609  17.680  22.637  13.875
14542W        W81610  41.999  16.157   4.162
14543W        W81611  43.379  27.024   1.934
14544W        W81612  28.997  33.093   3.697
14545W        W81613  12.744   7.248   4.778
14546W        W81614  43.278  21.254  13.343
14547W        W81615  19.756   0.785   3.667
14548W        W81616   7.745  31.590  12.085
14549W        W81617  40.945  12.809  14.861
14550W        W81618  16.646  38.881  10.444
14551W        W81619  30.514  31.997  12.007
14552W        W81620  33.874  10.694  14.381
14553W        W81621  21.579  20.038  14.325
14554W        W81622  33.076  14.333   0.939
14555W        W81623  43.932  19.565   4.123
14556W        W81624  24.058   3.844  12.546
14557W        W81625  32.926   4.394  14.781
14558W        W81626  37.395   6.731  12.948
14559W        W81627  23.681  36.500  13.477
14560W        W81628   5.260  30.440  13.527
14561W        W81629  24.653  38.937  12.996
14562W        W81630  37.077  42.926  13.814
14563W        W81631   9.163  25.118   3.186
14564W        W81632  44.365  32.982  11.492
14565W        W81633  25.553   0.344   2.227
14566W        W81634  35.501  40.949  12.497
14567W        W81635  16.258   7.822   2.733
14568W        W81636  36.484  29.020   4.176
14569W        W81637  34.454  15.131   2.815
14570W        W81638  18.732   2.885   2.815
14571W        W81639  42.344  37.076  14.787
14572W        W81640  40.886  14.607   3.862
14573W        W81641   5.764   6.746   4.703
14574W        W81642   9.806   6.843   4.684
14575W        W81643   3.330  26.698   4.702
14576W        W81644  11.624  38.979   4.651
14577W        W81645  40.486   5.239  10.920
14578W        W81646  41.960  19.173  12.355
14579W        W81647  33.527   5.346  13.965
14580W        W81648  38.496  35.892   2.738
14581W        W81649  19.587   0.872  14.337
14582W        W81650  12.628  29.123   3.331
14583W        W81651  17.196  35.083  10.617
14584W        W81652  29.174   3.414  13.891
14585W        W81653  19.535  26.628   1.438
14586W        W81654  15.818  38.499  13.497
14587W        W81655  21.088  25.962   0.413
14588W        W81656  10.307  29.575   5.132
14589W        W81657   3.446  33.614  10.421
14590W        W81658  19.705  36.432  11.599
14591W        W81659  35.861  28.508   1.821
14592W        W81660  19.729  34.867   2.788
14593W        W81661   5.361  40.898   1.449
14594W        W81662  38.537  21.118   4.639
14595W        W81663  42.433  19.728   2.818
14596W        W81664  37.567  31.939  13.381
14597W        W81665  32.439  23.158   0.753
14598W        W81666   6.332  38.033   0.764
14599W        W81667   0.300  28.453   2.856
14600W        W81668  39.005  30.124  12.078
14601W        W81669  13.781  11.727   2.221
14602W        W81670  35.975  14.207  10.989
14603W        W81671  31.127   1.792  10.083
14604W        W81672   6.837  18.778  13.018
14605W        W81673  11.753   8.260   0.948
14606W        W81674  22.079  33.489   4.116
14607W        W81675  33.598   3.370  11.032
14608W        W81676  42.877  34.583  11.120
14609W        W81677  22.072  43.885   0.765
14610W        W81678  34.046  31.127   4.198
14611W        W81679   0.850  43.009   2.684
14612W        W81680  34.385  30.424  13.909
14613W        W81681  20.768   4.795   1.317
14614W        W81682   6.729  14.805   3.263
14615W        W81683  36.508  20.031  13.925
14616W        W81684  29.980  21.642   2.394
14617W        W81685  34.873   7.859  11.106
14618W        W81686  43.900  21.035   3.294
14619W        W81687  43.344  17.657   1.919
14620W        W81688  29.450  30.067   1.279
14621W        W81689   4.743  16.599   4.804
14622W        W81690   2.775   6.850  14.816
14623W        W81691  19.135  22.126   3.298
14624W        W81692  17.285  18.688  13.381
14625W        W81693  20.257  36.591  14.824
14626W        W81694  31.945  17.147   0.265
14627W        W81695  16.800  25.602  14.296
14628W        W81696  26.488   7.418  10.035
14629W        W81697  42.369  11.745  10.481
14630W        W81698  37.875  36.964   0.749
14631W        W81699  22.035   6.183  10.526
14632W        W81700  43.413  20.040  11.025
14633W        W81701  25.530   0.904   3.291
14634W        W81702  32.040  11.646  10.889
14635W        W81703  36.867  13.811   0.877
14636W        W81704   4.350   8.206   4.336
14637W        W81705  22.528  42.887   4.825
14638W        W81706  12.824   7.836  13.841
14639W        W81707  19.113  36.065  13.916
14640W        W81708  22.229   6.223  12.007
14641W        W81709  31.034  20.578  12.001
14642W        W81710  29.050  18.254  14.894
14643W        W81711  13.631  25.577  11.601
14644W        W81712  19.086  24.018  14.425
14645W        W81713  21.568  18.224   1.891
14646W        W81714  42.466  43.816  10.597
14647W        W81715  36.072  43.342   1.864
14648W        W81716  27.147  41.297  12.012
14649W        W81717  21.260  41.976   2.295
14650W        W81718   6.412  24.712   2.214
14651W        W81719  23.633  14.298   0.396
14652W        W81720   1.463  24.509   2.772
14653W        W81721   9.287  33.598   5.217
14654W        W81722  28.510  10.257   2.662
14655W        W81723  24.049   5.779   1.324
14656W        W81724  23.098  17.640   3.768
14657W        W81725  27.608   3.927  10.932
14658W        W81726  37.876  28.110  12.851
14659W        W81727  41.377  30.964  12.341
14660W        W81728   2.301   6.859  13.990
14661W        W81729   6.272   8.829   3.252
14662W        W81730  27.997  37.400  11.379
14663W        W81731   3.309  32.495  13.961
14664W        W81732  26.606  11.795  13.942
14665W        W81733  14.744  26.536  10.479
14666W        W81734  10.639  36.434  13.481
14667W        W81735   0.881   3.720   3.733
14668W        W81736   3.877  36.351   2.800
14669W        W81737   5.822  41.021   0.347
14670W        W81738  22.136   5.197   0.456
14671W        W81739  15.105   6.874   1.754
14672W        W81740   6.819  38.981  13.023
14673W        W81741  28.011  33.042   3.383
14674W        W81742  26.957   9.658  12.354
14675W        W81743  32.542  11.227  12.862
14676W        W81744  42.289  34.549  13.907
14677W        W81745  20.673   4.862  12.828
14678W        W81746  20.723  42.363   1.223
14679W        W81747   9.274  43.490   0.291
14680W        W81748  21.231  28.093  13.472
14681W        W81749  12.669  39.984  13.985
14682W        W81750  30.479  43.317   2.255
14683W        W81751  13.148  35.403  11.440
14684W        W81752  35.359  35.569   0.727
14685W        W81753  39.819  20.692  11.859
14686W        W81754   9.364   1.792   2.363
14687W        W81755  38.466  10.311  12.094
14688W        W81756  16.589  26.654  14.827
14689W        W81757  19.699   3.231   3.234
14690W        W81758   4.436   1.923  11.504
14691W        W81759  26.069  28.003  11.500
14692W        W81760  30.482   9.176   1.835
14693W        W81761   5.375  43.836  10.922
14694W        W81762   4.234  15.291   1.439
14695W        W81763  27.181   9.200   0.405
14696W        W81764  41.329  39.519   0.406
14697W        W81765  31.087   8.754   1.812
14698W        W81766   0.929  25.614   2.402
14699W        W81767  22.115  28.632   1.375
14700W        W81768  18.098  19.572  14.886
14701W        W81769   8.377  18.696   0.383
14702W        W81770  42.908  39.456  10.496
14703W        W81771  28.949   7.844   3.268
14704W        W81772  17.599  30.965   1.698
14705W        W81773  35.435  29.431  12.393
14706W        W81774   5.214  24.104  13.512
14707W        W81775  11.756   1.800   3.312
14708W        W81776  11.197  10.634  14.901
14709W        W81777   3.867  17.570   0.447
14710W        W81778  18.158  21.117   0.420
14711W        W81779   6.803  43.386   1.801
14712W        W81780  26.120   7.829  13.314
14713W        W81781  15.232   6.208   1.836
14714W        W81782  33.982  41.376   2.273
14715W        W81783  42.961  15.234   3.342
14716W        W81784  16.735  18.671  10.439
14717W        W81785  23.552  41.447  12.057
14718W        W81786  24.066  10.793   3.295
14719W        W81787   6.892  14.607  14.367
14720W        W81788  32.100  34.982  12.468
14721W        W81789  21.034  38.480  10.543
14722W        W81790  23.650  14.187   1.741
14723W        W81791   0.286  36.357  13.411
14724W        W81792   9.805  21.730   0.913
14725W        W81793  39.004  23.033   1.924
14726W        W81794  41.037   6.734  12.017
14727W        W81795  25.022  12.627  12.408
14728W        W81796  32.961  43.431   4.252
14729W        W81797  17.597  30.068   0.296
14730W        W81798  15.283  14.727  10.554
14731W        W81799  28.590  10.643   1.837
14732W        W81800   8.735   0.370   4.718
14733W        W81801  27.991  22.189   1.857
14734W        W81802   3.264  36.969   1.235
14735W        W81803  40.535  40.326   0.843
14736W        W81804  30.079  34.933  12.347
14737W        W81805  17.630  39.522   0.444
14738W        W81806  29.099  11.272   4.791
14739W        W81807   0.332  31.419  10.113
14740W        W81808  41.423  27.104   3.225
14741W        W81809   3.350  34.546  11.094
14742W        W81810  30.620  17.719   2.216
14743W        W81811   9.160  39.402   1.745
14744W        W81812  28.137   3.790   1.930
14745W        W81813   6.389  23.697  13.976
14746W        W81814  37.853  30.039  11.554
14747W        W81815  37.467  43.377   4.604
14748W        W81816  12.193  12.730  14.321
14749W        W81817  34.946  24.080  13.357
14750W        W81818  15.782  10.235  14.777
14751W        W81819  26.538   9.247   3.224
14752W        W81820  26.683   7.377   2.401
14753W        W81821  14.336  28.176  11.909
14754W        W81822  18.629  12.844  10.047
14755W        W81823  28.984  15.802  14.475
14756W        W81824  36.456  13.827   1.230
14757W        W81825  32.611  30.078  14.857
14758W        W81826   3.444   8.294   3.329
14759W        W81827   2.377  16.245   3.854
14760W        W81828   5.427  25.089  13.529
14761W        W81829  36.903  27.146   3.696
14762W        W81830  23.663  33.023  14.822
14763W        W81831  39.385  33.073  14.885
14764W        W81832  32.094  29.454   0.887
14765W        W81833  31.481  38.896   2.323
14766W        W81834  17.799  35.938   0.882
14767W        W81835  26.056  33.554  10.425
14768W        W81836  36.434  29.513  11.880
14769W        W81837   5.234   0.421  12.447
14770W        W81838  14.654   6.858  14.874
14771W        W81839  25.692  21.603   1.832
14772W        W81840  27.615  39.906  12.831
14773W        W81841  32.590  32.495   1.695
14774W        W81842  44.794  32.886   3.822
14775W        W81843  17.192   0.964   3.706
14776W        W81844  33.532  29.626   2.232
14777W        W81845  32.933  29.572   4.837
14778W        W81846  33.492  16.584  12.966
14779W        W81847   7.302  14.336  11.438
14780W        W81848  20.125  41.382  11.965
14781W        W81849  27.691  37.478  12.447
14782W        W81850  24.163  38.049  11.077
14783W        W81851  28.944  30.123   2.868
14784W        W81852  26.469   4.862  14.505
14785W        W81853  40.948   0.429   2.351
14786W        W81854  38.436   4.835  11.093
14787W        W81855  29.050  13.782  13.940
14788W        W81856  32.911   1.446  13.979
14789W        W81857  21.718  43.937   1.837
14790W        W81858   6.219   4.421  12.827
14791W        W81859  23.145  11.347   4.308
14792W        W81860  13.699  24.999  13.505
14793W        W81861  31.936  22.038   1.798
14794W        W81862  30.544  26.149  14.393
14795W        W81863  13.231  43.920   0.739
14796W        W81864  18.627  25.135  13.501
14797W        W81865  10.654  25.145  14.993
14798W        W81866   2.812   5.246   0.303
14799W        W81867   7.887  33.090   4.247
14800W        W81868  27.663  41.949  14.441
14801W        W81869   5.776  33.428   0.836
14802W        W81870  20.541  38.571  12.864
14803W        W81871  25.142  33.527   4.639
14804W        W81872  23.717  39.831   1.825
14805W        W81873  17.241  23.171  13.990
14806W        W81874   6.794  10.873  12.841
14807W        W81875  32.009  34.578   2.231
14808W        W81876  35.038  20.650   2.321
14809W        W81877  18.707  31.584  13.513
14810W        W81878  35.458   5.923   2.215
14811W        W81879   3.774  29.990   0.378
14812W        W81880  41.994  31.950   3.252
14813W        W81881  21.731   5.399  13.798
14814W        W81882  26.626   6.772  13.543
14815W        W81883  43.392  17.737  10.616
14816W        W81884  31.977  18.225   3.671
14817W        W81885  29.458  14.169  12.488
14818W        W81886  41.944   6.407  14.916
14819W        W81887  43.022  33.004   4.721
14820W        W81888  44.485   5.859  10.063
14821W        W81889  38.463  19.582   2.710
14822W        W81890  18.720  29.445   3.185
14823W        W81891  32.936   0.442   2.234
14824W        W81892  36.845  27.148   1.731
14825W        W81893  13.681   0.796  12.051
14826W        W81894  32.986  37.957  13.476
14827W        W81895  33.623  10.354  11.941
14828W        W81896  22.537  33.888  11.529
14829W        W81897   5.334   6.388   4.731
14830W        W81898  16.669  21.158   0.406
14831W        W81899  13.713  29.009  12.536
14832W        W81900   1.256  35.446   1.349
14833W        W81901   0.433  41.367   2.220
14834W        W81902  38.533  20.533  13.924
14835W        W81903  24.574   7.364   4.612
14836W        W81904  44.755  17.684   1.811
14837W        W81905  18.683  40.493   2.779
14838W        W81906  32.467   1.745   2.771
14839W        W81907  14.747  11.160  12.879
14840W        W81908  35.954   9.671   3.253
14841W        W81909  43.415  32.891  12.924
14842W        W81910   0.247  16.309   3.712
14843W        W81911  17.183  43.921  10.536
14844W        W81912  17.729  28.955  12.554
14845W        W81913  14.283  16.723   1.380
14846W        W81914  21.129  33.890  12.428
14847W        W81915   5.195  24.138  11.499
14848W        W81916  14.333   0.294   2.773
14849W        W81917   2.849  30.037   4.700
14850W        W81918  18.069   2.448   4.820
14851W        W81919  11.212   2.961   3.837
14852W        W81920   9.802  21.062   2.183
14853W        W81921  18.080  39.322   3.870
14854W        W81922  20.661  31.035   2.389
14855W        W81923  10.762  20.744   0.745
14856W        W81924  17.686  40.981  10.951
14857W        W81925   9.234   1.330   0.875
14858W        W81926  33.593  33.408   5.305
14859W        W81927   9.355  31.553  14.339
14860W        W81928  34.956  15.219  11.110
14861W        W81929  44.946  38.508   1.851
14862W        W81930  21.666   8.718   3.821
14863W        W81931  31.950   4.935   2.389
14864W        W81932  36.887  18.663  11.371
14865W        W81933  12.825  20.574  10.558
14866W        W81934  26.096  24.513  13.018
14867W        W81935   4.744   4.298   0.755
14868W        W81936   5.865  25.578  12.053
14869W        W81937  20.570  18.186  13.536
14870W        W81938  36.906  16.271   4.339
14871W        W81939   6.685  16.620   3.338
14872W        W81940  18.219  12.738   4.304
14873W        W81941  26.585   9.150   2.796
14874W        W81942  32.603  43.369   1.316
14875W        W81943  18.218  12.710   0.267
14876W        W81944   5.299  41.359  12.997
14877W        W81945  15.596  12.187  11.468
14878W        W81946  11.789  11.850  13.388
14879W        W81947  22.514   3.283   0.252
14880W        W81948  35.515   4.349   4.707
14881W        W81949   9.153  35.908   2.731
14882W        W81950  43.359  16.623   3.737
14883W        W81951  31.986   6.360   0.258
14884W        W81952   1.966   9.683  13.863
14885W        W81953   1.282   1.267  10.609
14886W        W81954   1.271  22.997   3.366
14887W        W81955  35.574  42.495   4.204
14888W        W81956  18.753  31.904  13.354
14889W        W81957   6.743   7.235  13.948
14890W        W81958  24.007  37.880  12.946
14891W        W81959  19.071  26.519  14.355
14892W        W81960  31.578  16.657   1.413
14893W        W81961  39.400  36.471   0.937
14894W        W81962   9.263  44.467  11.917
14895W        W81963  40.449   6.341   5.257
14896W        W81964  13.326  40.815  11.449
14897W        W81965  26.100  14.234  12.083
14898W        W81966  40.308  20.538  11.503
14899W        W81967  38.344  43.978   4.319
14900W        W81968   5.694  20.146  10.909
14901W        W81969  40.033  31.015  14.323
14902W        W81970   9.224   6.699  13.476
14903W        W81971  14.633  40.009  10.532
14904W        W81972   3.792  44.330  12.954
14905W        W81973  39.817   3.762   0.836
14906W        W81974  29.035   4.751   4.336
14907W        W81975  23.607  17.775   4.242
14908W        W81976  23.065  21.740   0.256
14909W        W81977  42.419  40.487  14.939
14910W        W81978  34.987  41.413  12.024
14911W        W81979  26.074  38.921  13.888
14912W        W81980  14.292   6.293  10.915
14913W        W81981  18.599  31.617   0.403
14914W        W81982  39.827   1.811  12.465
14915W        W81983   3.750  40.474  14.908
14916W        W81984   0.775   9.828   3.303
14917W        W81985  18.685  34.560  10.012
14918W        W81986   9.167   5.231   3.291
14919W        W81987  35.599  12.661   0.871
14920W        W81988   6.691   3.278  10.458
14921W        W81989  28.570  23.202   1.872
14922W        W81990  37.901  27.527  10.633
14923W        W81991  41.431  23.008  12.885
14924W        W81992  44.363  14.207   0.273
14925W        W81993  44.492  32.523  10.932
14926W        W81994  27.033   8.871  12.566
14927W        W81995  25.041  24.137  11.889
14928W        W81996  38.469  21.233   3.177
14929W        W81997  28.999  39.515  12.518
14930W        W81998  35.358   9.376  12.975
14931W        W81999  20.202  32.610   0.303
14932W        W82000  17.795  43.279   2.895
14933W        W82001  15.653  35.879   3.829
14934W        W82002  34.115  22.609  13.792
14935W        W82003  42.389  21.736   4.255
14936W        W82004  39.549   9.760   0.439
14937W        W82005  37.362  29.086   4.176
14938W        W82006  12.173   3.373   1.753
14939W        W82007  38.998   4.762  11.921
14940W        W82008  22.208  19.690  10.606
14941W        W82009  35.883  15.121  14.489
14942W        W82010  26.597  22.703   4.690
14943W        W82011  17.690  13.724   2.359
14944W        W82012   8.192  30.974  12.905
14945W        W82013  36.473  33.552   1.910
14946W        W82014   1.857   3.806  14.335
14947W        W82015   9.208  32.591  13.519
14948W        W82016   4.759   9.209  13.804
14949W        W82017  16.214  44.335  10.471
14950W        W82018   3.294  30.031   2.233
14951W        W82019  17.793  19.693  13.456
14952W        W82020  17.220  36.934   1.857
14953W        W82021  42.015  41.843  13.010
14954W        W82022  20.614   2.811   0.820
14955W        W82023  20.115  39.441   2.352
14956W        W82024  19.073  43.349   4.663
14957W        W82025   9.291  11.294   2.751
14958W        W82026  41.456  21.526  11.407
14959W        W82027  39.443  13.240  13.949
14960W        W82028  19.039  11.153   1.329
14961W        W82029   3.831   0.861   0.270
14962W        W82030  27.941  40.469  14.491
14963W        W82031   5.317  21.101  14.955
14964W        W82032  31.421   8.677  14.766
14965W        W82033  15.304  39.484  14.877
14966W        W82034  23.126  10.716   3.206
14967W        W82035  17.197  25.595   2.682
14968W        W82036  44.825  12.156  11.482
14969W        W82037  35.975  17.728  11.066
14970W        W82038  25.088  34.611  14.344
14971W        W82039   8.849  23.032  12.543
14972W        W82040  15.699   7.391   3.838
14973W        W82041  41.036  37.950  11.946
14974W        W82042   7.359  21.145   4.169
14975W        W82043   4.748  43.395   0.802
14976W        W82044  16.666  23.214  11.603
14977W        W82045  28.159  39.439  14.493
14978W        W82046  38.432  14.336   4.701
14979W        W82047   2.948   8.804   1.881
14980W        W82048  36.905   5.346  12.984
14981W        W82049  34.924  29.648   3.234
14982W        W82050  32.424   9.299   0.335
14983W        W82051  34.370  41.016  11.603
14984W        W82052  18.604  25.991   3.368
14985W        W82053   6.819  39.919  13.438
14986W        W82054  42.324   2.900  11.510
14987W        W82055  10.313  13.835  14.315
14988W        W82056  38.508  43.878   3.645
14989W        W82057  36.441  38.973  12.923
14990W        W82058   6.322  33.033   0.825
14991W        W82059  13.717   2.278  12.403
14992W        W82060  37.367  19.250   4.212
14993W        W82061   3.922  32.093  11.975
14994W        W82062  28.593   3.806   3.810
14995W        W82063  11.161   9.336   2.264
14996W        W82064  31.490  29.641   3.165
14997W        W82065  42.998  17.068   2.221
14998W        W82066  28.491  34.023  14.365
14999W        W82067  36.841  22.066  11.021
15000W        W82068  16.296  37.413   2.731
15001W        W82069  31.004  17.641   2.706
15002W        W82070  43.982  20.603  13.064
15003W        W82071  37.536   2.232  13.543
15004W        W82072  39.459  41.886   1.767
15005W        W82073  12.276  40.798  11.035
15006W        W82074  43.809  16.670  13.388
15007W        W82075  34.441  33.044   2.233
15008W        W82076   0.989  17.696   2.304
15009W        W82077  37.445  13.149  11.985
15010W        W82078  17.216  27.952  12.947
15011W        W82079  42.886  25.567   2.775
15012W        W82080  14.165  35.544  12.890
15013W        W82081  37.006   0.864  10.643
15014W        W82082  27.541  28.571   3.235
15015W        W82083  30.484  30.451  14.987
15016W        W82084  35.872   1.969   2.767
15017W        W82085  32.922  42.960  14.335
15018W        W82086   5.423  43.316   4.827
15019W        W82087  21.577  19.753   3.282
15020W        W82088   4.308  30.501   0.940
15021W        W82089  16.728   2.343   2.702
15022W        W82090  30.608  14.161  14.925
15023W        W82091  11.192  10.728  12.405
15024W        W82092  19.620  41.807  13.971
15025W        W82093  24.653  20.536  12.550
15026W        W82094  29.930  34.984  10.957
15027W        W82095  35.565  13.179  12.958
15028W        W82096  36.494  24.606   4.802
15029W        W82097  18.094   4.823  12.980
15030W        W82098  19.098   1.308  10.943
15031W        W82099  40.992  38.437   3.385
15032W        W82100  17.678  15.746   0.902
15033W        W82101  36.359  15.587   0.467
15034W        W82102  19.251   0.966   1.920
15035W        W82103   8.765  13.811  12.421
15036W        W82104   0.464  21.164  12.032
15037W        W82105  36.585  20.067   1.739
15038W        W82106  40.024  44.461  12.901
15039W        W82107   9.833  13.670  12.418
15040W        W82108   4.918  14.117   0.310
15041W        W82109  27.099   5.342  10.995
15042W        W82110  22.674  12.314   1.763
15043W        W82111  16.724  15.686   2.194
15044W        W82112  26.667  28.464   1.832
15045W        W82113  44.838   5.797  13.858
15046W        W82114   7.316  43.311  11.898
15047W        W82115  20.154   7.273   4.675
15048W        W82116  28.072  17.137  11.405
15049W        W82117  13.138  42.898  14.317
15050W        W82118  21.649   1.911  14.370
15051W        W82119  32.428  37.053  14.432
15052W        W82120  23.072  15.746  12.967
15053W        W82121  25.573  36.046   1.759
15054W        W82122  18.738  39.499  14.827
15055W        W82123   2.427  26.952  10.968
15056W        W82124  21.687  25.078   4.124
15057W        W82125  12.347   3.733   1.386
15058W        W82126  20.591  36.491  14.014
15059W        W82127   3.326  35.540   4.243
15060W        W82128   6.326  12.856  12.073
15061W        W82129  33.563   0.793   3.757
15062W        W82130   5.264  15.705   0.367
15063W        W82131   3.923   9.716  14.431
15064W        W82132  13.758  39.430  14.011
15065W        W82133  27.132  17.737   2.254
15066W        W82134  39.504  37.409   4.261
15067W        W82135  41.984  27.070   0.825
15068W        W82136  43.897  43.825   3.720
15069W        W82137  27.555  36.905   2.364
15070W        W82138   6.342  41.959  11.964
15071W        W82139  22.724  25.079  11.955
15072W        W82140   5.926  35.578  11.439
15073W        W82141   5.827  24.509   3.234
15074W        W82142  23.506  11.864  13.470
15075W        W82143  19.743  27.093   1.872
15076W        W82144  35.474  28.556   4.756
15077W        W82145  28.576  35.028   3.341
15078W        W82146  39.903   3.779  12.906
15079W        W82147  22.586  25.088  14.400
15080W        W82148  22.234   4.926  14.876
15081W        W82149  36.963   4.335  14.759
15082W        W82150  20.630  18.779  13.884
15083W        W82151  37.572   7.387  12.867
15084W        W82152   1.918  18.771   4.294
15085W        W82153  17.677  35.001   4.156
15086W        W82154  42.960  15.604  14.502
15087W        W82155  14.226  22.148  13.376
15088W        W82156  25.684  37.884   4.639
15089W        W82157   1.245  17.220   0.794
15090W        W82158   2.900  26.023   2.249
15091W        W82159  15.587  31.626  14.897
15092W        W82160   5.695  37.909  13.854
15093W        W82161  43.482  18.192   3.326
15094W        W82162  30.961  43.017  11.892
15095W        W82163  35.396   7.676   2.380
15096W        W82164  39.341  43.968  10.625
15097W        W82165  18.690  30.523   5.268
15098W        W82166  12.781  24.048   4.187
15099W        W82167  27.605  44.459   2.194
15100W        W82168  20.553  20.133  10.888
15101W        W82169  30.092  12.761  10.037
15102W        W82170  23.225  35.994   4.220
15103W        W82171  17.613  40.524  12.475
15104W        W82172  32.054  15.806   1.825
15105W        W82173  26.515  19.602  14.400
15106W        W82174  16.579  29.113   1.274
15107W        W82175  36.386  30.649  14.404
15108W        W82176  23.228  39.019  13.364
15109W        W82177  25.470   1.331   0.474
15110W        W82178  12.754  22.093   0.403
15111W        W82179  27.998  25.194  13.361
15112W        W82180   9.847   8.758   0.783
15113W        W82181   6.241  35.976   9.978
15114W        W82182   3.954   3.792  14.891
15115W        W82183   3.764  31.127  14.890
15116W        W82184  13.745  21.754  11.605
15117W        W82185  33.034  37.539   0.812
15118W        W82186  33.446  38.354   1.713
15119W        W82187  39.974  29.444   2.317
15120W        W82188   6.680  17.662  13.372
15121W        W82189  17.723  24.620   2.893
15122W        W82190   8.754  30.935  14.902
15123W        W82191   9.811   3.369  11.905
15124W        W82192  18.269  21.713   0.867
15125W        W82193  27.609  43.465   2.189
15126W        W82194  30.541   9.236   4.658
15127W        W82195  21.077   7.212   4.264
15128W        W82196  25.197  28.587  12.849
15129W        W82197  29.013   6.907   0.452
15130W        W82198  43.274   8.855  14.967
15131W        W82199  30.519   6.278  10.538
15132W        W82200  21.717  27.113  13.430
15133W        W82201  25.649  37.933   0.895
15134W        W82202  16.581   4.880  13.542
15135W        W82203   2.393  29.471   4.270
15136W        W82204   9.827  19.696   1.927
15137W        W82205  24.148  25.590   1.322
15138W        W82206  32.399  21.701  11.477
15139W        W82207  38.448  19.088  13.942
15140W        W82208  24.701  41.940  12.070
15141W        W82209  18.710  20.177   2.335
15142W        W82210  31.116  30.539   3.145
15143W        W82211  39.011  32.114  11.964
15144W        W82212  27.469   2.841  11.961
15145W        W82213   5.837  12.213   0.872
15146W        W82214  31.496   4.240  11.923
15147W        W82215   4.796  36.436   1.790
15148W        W82216  10.166   0.383  12.000
15149W        W82217  13.314   7.803  10.895
15150W        W82218  25.704   5.728   2.785
15151W        W82219   9.344  39.446   2.379
15152W        W82220   5.761  10.779  12.956
15153W        W82221  18.750  21.692   4.755
15154W        W82222  26.186  31.916   2.763
15155W        W82223  18.279  28.138   5.268
15156W        W82224   3.739  12.852   2.785
15157W        W82225  14.659  44.001  14.979
15158W        W82226  21.071  21.060  11.947
15159W        W82227  28.626  14.644   0.921
15160W        W82228   9.844  39.009  13.870
15161W        W82229  23.633   6.302   2.271
15162W        W82230   2.936   0.824   4.797
15163W        W82231  10.255   8.659  13.393
15164W        W82232  29.577  32.946   0.918
15165W        W82233  30.604  32.014  13.000
15166W        W82234  20.041  18.264  10.482
15167W        W82235  15.621  23.547  10.098
15168W        W82236  26.169  32.531  11.049
15169W        W82237  32.067  11.217   1.417
15170W        W82238  33.128  15.628   4.621
15171W        W82239  19.148  37.491   2.222
15172W        W82240  44.401   5.254  11.022
15173W        W82241  23.232  39.329  12.040
15174W        W82242  18.246  29.124   4.262
15175W        W82243  15.781  13.777  10.514
15176W        W82244   4.806  22.722   1.282
15177W        W82245   4.440  39.524   0.868
15178W        W82246  23.607  28.669   4.754
15179W        W82247   4.754  25.126   4.796
15180W        W82248  43.881  42.029  12.343
15181W        W82249  36.884  31.403  14.770
15182W        W82250   7.669  19.641   2.735
15183W        W82251  26.535  17.682  14.487
15184W        W82252  17.735   5.927   2.802
15185W        W82253  14.176  19.281   1.388
15186W        W82254  12.125  41.890  12.416
15187W        W82255  19.204  21.148   3.704
15188W        W82256  24.580   4.261  14.356
15189W        W82257   6.364  28.481   9.930
15190W        W82258  30.565  40.305   1.807
15191W        W82259  10.139  43.772  11.452
15192W        W82260  39.414  23.084   4.762
15193W        W82261  18.718  32.935   1.720
15194W        W82262  44.271  30.445   1.815
15195W        W82263   3.407  25.696   5.308
15196W        W82264  32.079  30.516   0.443
15197W        W82265  19.695  23.732  14.026
15198W        W82266  43.397  20.259   1.784
15199W        W82267  26.612  19.093  10.518
15200W        W82268  23.208  28.009  10.503
15201W        W82269  38.446  28.548  13.940
15202W        W82270  13.762   0.972   1.254
15203W        W82271  26.462  36.965   0.257
15204W        W82272  26.603   6.409   5.193
15205W        W82273  20.106  25.669  11.502
15206W        W82274  28.023  34.936  12.900
15207W        W82275   1.862  26.518  10.479
15208W        W82276  36.555  32.927   1.772
15209W        W82277  18.066   2.916  11.388
15210W        W82278  27.998  11.328   1.229
15211W        W82279  44.861  40.528  11.405
15212W        W82280  29.427  41.792   3.182
15213W        W82281   5.430  22.719  10.967
15214W        W82282  44.472  18.727   4.301
15215W        W82283  17.583  33.980  11.972
15216W        W82284  13.609  33.935  12.461
15217W        W82285  23.033   2.375  13.533
15218W        W82286  12.296  39.387  12.959
15219W        W82287  19.092  42.432  10.969
15220W        W82288  23.165  30.484  11.887
15221W        W82289  12.141   8.229  13.436
15222W        W82290  21.685  26.012   0.846
15223W        W82291  33.419  40.426  11.563
15224W        W82292  41.434  26.131   4.291
15225W        W82293  16.266   6.686  14.878
15226W        W82294  32.952   3.888   3.310
15227W        W82295  41.329  43.947  12.488
15228W        W82296  30.120  37.521  11.016
15229W        W82297  18.211  32.997  13.344
15230W        W82298  10.679   7.764  11.859
15231W        W82299  19.690  37.547   4.645
15232W        W82300   9.843  19.591  11.945
15233W        W82301  12.326  34.022  12.341
15234W        W82302  19.708  18.128  13.392
15235W        W82303   9.365  37.027  14.447
15236W        W82304  11.321  16.081   1.305
15237W        W82305  23.130  41.835   5.587
15238W        W82306   5.313  10.372  14.293
15239W        W82307  18.747  41.882  14.935
15240W        W82308  38.843  29.510  13.060
15241W        W82309  19.198   8.237   2.265
15242W        W82310  16.693  35.084  13.843
15243W        W82311   4.802   8.795   3.218
15244W        W82312   0.803  21.734   2.844
15245W        W82313   4.295  36.446  14.850
15246W        W82314  40.809  30.498  10.920
15247W        W82315  26.113  40.379   0.737
15248W        W82316  44.948   0.897   3.331
15249W        W82317  20.676  12.175  14.951
15250W        W82318  43.944   6.357   4.146
15251W        W82319   0.853  22.095   0.726
15252W        W82320   0.847  43.477  13.842
15253W        W82321   9.241  27.605  11.982
15254W        W82322  13.814  24.191  11.864
15255W        W82323  40.434  31.587   4.706
15256W        W82324  15.218  29.929   0.298
15257W        W82325  31.477  32.482  13.483
15258W        W82326  14.244  26.667   4.139
15259W        W82327  44.390  18.119  10.030
15260W        W82328   2.455  40.426  10.960
15261W        W82329  21.744  17.062  12.564
15262W        W82330  15.149   5.204  13.814
15263W        W82331  32.134  41.447  10.631
15264W        W82332  28.503   5.337   2.255
15265W        W82333  26.670  20.197   3.336
15266W        W82334  12.733  30.545  10.577
15267W        W82335  17.114  21.160   1.721
15268W        W82336  41.902   7.809  13.347
15269W        W82337  13.625  10.320  14.932
15270W        W82338  33.385  38.387  10.039
15271W        W82339  15.588  32.538   1.743
15272W        W82340  14.142   3.417   1.354
15273W        W82341  39.438  18.188  13.892
15274W        W82342  40.994  40.308  11.942
15275W        W82343  42.506  39.355   1.894
15276W        W82344  33.092  18.050  12.903
15277W        W82345   3.320   5.273  12.026
15278W        W82346  41.319  30.953  14.959
15279W        W82347   9.648   5.390  11.009
15280W        W82348  28.587  15.739   2.326
15281W        W82349  14.602  38.325   3.197
15282W        W82350  38.891  12.145  13.921
15283W        W82351  17.783  39.533   1.253
15284W        W82352  30.051  29.548   2.699
15285W        W82353  13.282   1.324  14.875
15286W        W82354  11.776  36.083  12.069
15287W        W82355  36.004  41.520   0.397
15288W        W82356  21.564  34.042   4.336
15289W        W82357  42.499   8.368  13.359
15290W        W82358   4.707  13.284   0.284
15291W        W82359  17.070  37.882   2.265
15292W        W82360   8.803  29.502   3.229
15293W        W82361  19.215  21.193  14.341
15294W        W82362  14.246  44.448  12.500
15295W        W82363  31.146  34.011  11.063
15296W        W82364  42.338  33.379  11.405
15297W        W82365  18.067  31.496  14.351
15298W        W82366  21.558  31.467  12.067
15299W        W82367  23.527   0.945  10.992
15300W        W82368  32.998   0.383   4.631
15301W        W82369  27.582  19.192  13.953
15302W        W82370  44.372  32.593   5.144
15303W        W82371   6.386  16.078  10.538
15304W        W82372  26.687  31.013   2.306
15305W        W82373  38.543   3.776  14.299
15306W        W82374  34.489  31.457   0.292
15307W        W82375  10.673  32.579   0.935
15308W        W82376  11.829  22.589  13.327
15309W        W82377   7.813  25.684  14.880
15310W        W82378  15.723  36.967   5.283
15311W        W82379  19.284  34.602  14.369
15312W        W82380  31.996   2.927   0.772
15313W        W82381  29.013  10.229   2.773
15314W        W82382  23.018  13.670   4.678
15315W        W82383  18.640  23.166  11.470
15316W        W82384  27.637  24.227   0.411
15317W        W82385  25.003   4.735   2.237
15318W        W82386  32.906  16.285   4.284
15319W        W82387  43.348   4.703  10.590
15320W        W82388  12.280  44.974  11.055
15321W        W82389   1.926  28.600   4.597
15322W        W82390  20.596  43.395   2.856
15323W        W82391  42.284   6.207   1.427
15324W        W82392  22.615  24.497   0.772
15325W        W82393  32.122  33.097   2.853
15326W        W82394  19.137  42.921  10.117
15327W        W82395  15.162  16.251   3.255
15328W        W82396  34.895  17.084   3.769
15329W        W82397  34.093  33.966   1.839
15330W        W82398  32.466  16.084   1.920
15331W        W82399  38.484   5.771   3.684
15332W        W82400  40.487  26.658  10.161
15333W        W82401  43.777  29.953  13.963
15334W        W82402  15.638  37.930   4.651
15335W        W82403  17.613  36.504   4.263
15336W        W82404  11.174  32.586   0.439
15337W        W82405  28.035  37.847   1.728
15338W        W82406  25.007  30.008   2.720
15339W        W82407  26.687  29.964   2.363
15340W        W82408  21.049  39.418   2.895
15341W        W82409   7.349  29.440  10.970
15342W        W82410   3.238  16.731   4.677
15343W        W82411  19.677  21.070  10.152
15344W        W82412  24.004  36.047   2.744
15345W        W82413  37.365   0.290  14.408
15346W        W82414   8.744  10.805  11.049
15347W        W82415  29.052  29.670  11.383
15348W        W82416  22.637  10.188   1.920
15349W        W82417  41.500   8.717   4.139
15350W        W82418  20.262  25.709  14.994
15351W        W82419  29.608  43.765   3.853
15352W        W82420  26.968  19.277  14.299
15353W        W82421  29.595  27.644  12.000
15354W        W82422  20.581  22.008  10.941
15355W        W82423  36.976  38.446  13.967
15356W        W82424   1.776  13.339  12.865
15357W        W82425  20.058  25.219   3.707
15358W        W82426  12.146  44.902   3.793
15359W        W82427  42.827  26.527   0.815
15360W        W82428  11.659  36.471  10.994
15361W        W82429  42.949  41.365  10.458
15362W        W82430  44.281  29.498   4.606
15363W        W82431   6.322  41.335   3.346
15364W        W82432  39.847  12.647  13.499
15365W        W82433  10.339   2.317   0.424
15366W        W82434  19.129  34.600  11.544
15367W        W82435  26.528  37.553  14.897
15368W        W82436  28.491   2.775  13.506
15369W        W82437   4.219  36.395   3.857
15370W        W82438  11.851   9.344   4.322
15371W        W82439  36.956  37.408  13.808
15372W        W82440  15.307  10.235  11.960
15373W        W82441  39.919   3.378   1.342
15374W        W82442  13.185   5.350   4.611
15375W        W82443  20.028   4.280   3.837
15376W        W82444   0.881  21.197  11.410
15377W        W82445  17.066   8.204   0.877
15378W        W82446  35.940  39.445  11.580
15379W        W82447  28.011   4.832  10.150
15380W        W82448  19.752  19.087   4.340
15381W        W82449  19.757  10.873   4.790
15382W        W82450  17.218  32.085   0.298
15383W        W82451  20.115   2.736   4.768
15384W        W82452  37.072  11.289   2.899
15385W        W82453   1.306  15.181   1.709
15386W        W82454  13.114   7.811  11.471
15387W        W82455   5.206  28.674   4.240
15388W        W82456  40.888   5.865   4.197
15389W        W82457   3.946  20.572   0.258
15390W        W82458  31.989  13.650   3.795
15391W        W82459  11.146  10.281  13.821
15392W        W82460  17.219  36.368   2.180
15393W        W82461  11.691  11.146   4.159
15394W        W82462  24.619  14.827   4.647
15395W        W82463  24.082  17.747   0.822
15396W        W82464  36.381   1.806  14.931
15397W        W82465   7.729   3.332  10.135
15398W        W82466  37.964  27.553   1.833
15399W        W82467  39.849  19.559   4.221
15400W        W82468  40.838  34.911   0.467
15401W        W82469  34.050  15.622   1.302
15402W        W82470   1.768  22.728  11.013
15403W        W82471  41.843   4.773   2.332
15404W        W82472  37.511   2.249   5.307
15405W        W82473  36.520  11.813  13.890
15406W        W82474  37.937  29.495   2.706
15407W        W82475  40.869  34.960   2.304
15408W        W82476   6.856  28.523  13.979
15409W        W82477   4.432  36.906  14.315
15410W        W82478   3.391  23.039   1.904
15411W        W82479  40.986   3.461   1.311
15412W        W82480  16.266  24.715   3.722
15413W        W82481  29.506  21.586   0.394
15414W        W82482  26.646  31.639   5.115
15415W        W82483  33.057  42.413   1.435
15416W        W82484  22.081  33.574  11.446
15417W        W82485   6.230  34.600   0.878
15418W        W82486   1.395  31.591  12.518
15419W        W82487  23.536   0.777   0.298
15420W        W82488   9.170  28.079   0.422
15421W        W82489  16.119   5.862   4.195
15422W        W82490  23.543  26.000  14.283
15423W        W82491   1.408  17.671   2.245
15424W        W82492  17.225  27.061  12.973
15425W        W82493  37.558   8.360  13.356
15426W        W82494  33.075  11.685  10.994
15427W        W82495  40.436  41.496   0.323
15428W        W82496  18.735  16.637  14.775
15429W        W82497  11.222  29.067   4.812
15430W        W82498  24.600  35.928   2.265
15431W        W82499   1.443  32.580  10.910
15432W        W82500  25.673  40.535  14.465
15433W        W82501  10.805  33.408  10.534
15434W        W82502  11.639   5.795   4.803
15435W        W82503  36.915  28.547  10.950
15436W        W82504  42.423  30.067  10.464
15437W        W82505  11.860  38.403  14.311
15438W        W82506  12.162  31.524  13.371
15439W        W82507   5.726  29.105  11.089
15440W        W82508   3.313  18.557   1.407
15441W        W82509   2.438   7.749  10.984
15442W        W82510  22.231   8.757  12.482
15443W        W82511  21.171  29.918  11.383
15444W        W82512  25.597  28.647  10.524
15445W        W82513  19.680  20.058  10.563
15446W        W82514  40.958  24.690  11.546
15447W        W82515   4.768  35.923   3.275
15448W        W82516   1.428  13.120  13.357
15449W        W82517  21.668  27.186  12.400
15450W        W82518  11.804  38.919  13.939
15451W        W82519  16.293  41.294   4.310
15452W        W82520   5.337   6.210   1.870
15453W        W82521  14.679  11.351  10.903
15454W        W82522  13.725  12.678   1.424
15455W        W82523  41.007  23.618   1.379
15456W        W82524  11.282  35.472   0.764
15457W        W82525  22.243  34.565   4.800
15458W        W82526  15.648  10.709  11.988
15459W        W82527  16.145  17.606  12.418
15460W        W82528  23.229  20.191   3.315
15461W        W82529  30.032  42.852  10.552
15462W        W82530  13.228  25.182   4.259
15463W        W82531   1.467  42.345   0.411
15464W        W82532   8.194  10.305  14.396
15465W        W82533  10.202  26.172  11.603
15466W        W82534  26.983  15.292   2.287
15467W        W82535  26.959  26.006   4.140
15468W        W82536  26.192  10.835  11.064
15469W        W82537  19.229  41.865   4.201
15470W        W82538  18.258  33.929   2.779
15471W        W82539   2.848   5.323  12.356
15472W        W82540  29.091  44.431  10.496
15473W        W82541  38.486  37.968  10.517
15474W        W82542   6.199  28.085  10.980
15475W        W82543  23.506  28.014   3.325
15476W        W82544  36.381  19.115   4.682
15477W        W82545  27.478  35.964   3.369
15478W        W82546  17.764  15.811   4.272
15479W        W82547  21.228   1.281  14.782
15480W        W82548  37.407  27.564  14.914
15481W        W82549  29.473  36.460  12.403
15482W        W82550   5.241  10.743   1.851
15483W        W82551  10.633  16.624   3.682
15484W        W82552  10.382   3.948  14.787
15485W        W82553  34.479  41.523   3.861
15486W        W82554  14.805  39.960  12.960
15487W        W82555  35.501  15.203  12.073
15488W        W82556  33.564  27.487   2.369
15489W        W82557  41.509  25.520  13.915
15490W        W82558   3.760   5.411   0.950
15491W        W82559  39.839  41.431  11.387
15492W        W82560   3.809  28.934   4.160
15493W        W82561  40.966   7.851   4.193
15494W        W82562   0.428  44.311  14.772
15495W        W82563   5.272  37.009  12.922
15496W        W82564  14.677  13.802  11.402
15497W        W82565  10.263  37.555  13.354
15498W        W82566   3.915   1.923  11.917
15499W        W82567  31.522  12.745   1.703
15500W        W82568  43.001   5.859   3.223
15501W        W82569   7.755  12.661   0.393
15502W        W82570   8.299  23.050  13.382
15503W        W82571   7.742  10.171   1.416
15504W        W82572  15.265   4.819   0.781
15505W        W82573  29.966  31.988  13.432
15506W        W82574  28.972  37.372   0.265
15507W        W82575  29.011   1.274   2.401
15508W        W82576  36.392   2.354   4.309
15509W        W82577  36.881  28.970  14.982
15510W        W82578   5.234   4.849  13.418
15511W        W82579  41.401  36.386  14.957
15512W        W82580   9.257  24.539   3.365
15513W        W82581  36.979  41.989  14.961
15514W        W82582   9.677  11.187   2.396
15515W        W82583   3.711  13.153  13.529
15516W        W82584  18.183  38.843   0.918
15517W        W82585   1.314  36.496   2.720
15518W        W82586  19.111   1.410   4.817
15519W        W82587  43.003  14.595   1.865
15520W        W82588  21.572  33.054  14.991
15521W        W82589  25.524   9.817  14.854
15522W        W82590  33.594   8.782   2.873
15523W        W82591  14.664   2.789   3.299
15524W        W82592  10.154   9.776  12.415
15525W        W82593  10.146  42.909  12.341
15526W        W82594  22.068   6.358   3.851
15527W        W82595  41.789  16.757  14.014
15528W        W82596  38.043  13.228   3.227
15529W        W82597  10.184  36.518  12.418
15530W        W82598  42.476  25.555  14.956
15531W        W82599  38.375  32.457  14.382
15532W        W82600  31.087   0.801  13.062
15533W        W82601  10.720  32.104   1.255
15534W        W82602  20.060  31.615  13.848
15535W        W82603  39.945  32.583  12.051
15536W        W82604  20.089   7.720  13.462
15537W        W82605  37.895   0.391   2.417
15538W        W82606  14.811  25.574   0.449
15539W        W82607  16.272  23.577   1.261
15540W        W82608  14.213  41.986   2.751
15541W        W82609  19.730  30.004  11.547
15542W        W82610   0.881  25.204   2.415
15543W        W82611  37.988  13.208   4.681
15544W        W82612  12.850  28.966  11.094
15545W        W82613  32.632  16.767   3.338
15546W        W82614   2.404  28.085   1.295
15547W        W82615  12.674  26.662   2.181
15548W        W82616  39.886  18.078  12.941
15549W        W82617  31.115  28.157   1.818
15550W        W82618  19.149   4.770  10.524
15551W        W82619   1.962  19.678   0.245
15552W        W82620   5.769  42.851  10.940
15553W        W82621  34.459  16.671   3.371
15554W        W82622  14.118   1.463   3.304
15555W        W82623  44.465  13.182   0.427
15556W        W82624  20.536  22.607   3.191
15557W        W82625  29.639  27.613  12.531
15558W        W82626  24.188  11.179  14.368
15559W        W82627  16.104  30.099  13.910
15560W        W82628  36.574  26.541  10.419
15561W        W82629   9.790   1.338   5.222
15562W        W82630  33.519   1.875  10.076
15563W        W82631  21.543  27.955   3.315
15564W        W82632  12.730   6.291  13.864
15565W        W82633   0.973  37.869   2.225
15566W        W82634   1.267  25.045  14.854
15567W        W82635  34.978  11.857  11.882
15568W        W82636  27.034   7.907   4.598
15569W        W82637   0.922   3.801   4.748
15570W        W82638   1.454  13.112   3.784
15571W        W82639  13.806  13.673   3.757
15572W        W82640   4.432   7.217   1.828
15573W        W82641  17.742   5.806   1.292
15574W        W82642   5.699  11.339   0.888
15575W        W82643  12.153  35.886   3.281
15576W        W82644  33.443   9.651  10.147
15577W        W82645  43.002  20.148   3.835
15578W        W82646  40.487  36.902   4.753
15579W        W82647  35.540  19.672   0.298
15580W        W82648  24.619   0.370   2.745
15581W        W82649  20.632  32.887   0.826
15582W        W82650  29.004  11.355   0.909
15583W        W82651   8.760  13.315   3.700
15584W        W82652  37.036  38.480   1.404
15585W        W82653  26.615  16.192  14.844
15586W        W82654  41.514  24.533   2.849
15587W        W82655  20.272  16.624  11.060
15588W        W82656  30.017  38.343   2.213
15589W        W82657  25.668  14.324  13.979
15590W        W82658  25.092   2.840  11.488
15591W        W82659  10.782  29.961   1.239
15592W        W82660   6.760   8.381   1.816
15593W        W82661  29.650   5.748  10.564
15594W        W82662  10.283  36.522  10.460
15595W        W82663  34.120  21.674  10.904
15596W        W82664  42.987  14.304  12.342
15597W        W82665  21.047  39.508  10.127
15598W        W82666  17.102  12.614  14.818
15599W        W82667  31.495  32.921   1.893
15600W        W82668  15.211  26.667   0.448
15601W        W82669  28.973  25.644  12.041
15602W        W82670  40.361  27.941   2.349
15603W        W82671  30.473  16.632   4.197
15604W        W82672   3.455   4.898  10.890
15605W        W82673   5.932  39.454   1.779
15606W        W82674  11.642  30.476   1.293
15607W        W82675  31.068   5.883  14.888
15608W        W82676  16.749  42.030  12.844
15609W        W82677  14.188   8.328   5.155
15610W        W82678  38.875  31.043   2.808
15611W        W82679  34.375  20.168   3.310
15612W        W82680  18.229  12.774   4.714
15613W        W82681  37.395  24.654   3.863
15614W        W82682  34.888  14.303  13.492
15615W        W82683  18.270  33.419   4.743
15616W        W82684  30.067  10.729   4.223
15617W        W82685  14.610   7.669  12.439
15618W        W82686  28.506  27.682  12.971
15619W        W82687  24.140   4.758  14.771
15620W        W82688   9.218  29.055   0.415
15621W        W82689  25.712  41.379  12.008
15622W        W82690  44.818  23.094  11.414
15623W        W82691   5.279   9.285  12.392
15624W        W82692  20.157  38.461   2.245
15625W        W82693  27.633  16.660   4.156
15626W        W82694  39.900  27.065   1.888
15627W        W82695  30.601  12.630  11.576
15628W        W82696  23.209  33.387   2.687
15629W        W82697  34.960  26.514   5.285
15630W        W82698  32.068   8.827  12.418
15631W        W82699   7.363  15.241  12.870
15632W        W82700  44.298   5.824   1.442
15633W        W82701  16.730   9.835  14.820
15634W        W82702  24.694   4.928  12.827
15635W        W82703   6.705  39.018  11.945
15636W        W82704  18.683  18.695  10.561
15637W        W82705   2.390  36.555  14.399
15638W        W82706  25.649  14.704   1.279
15639W        W82707  29.952  13.315  12.488
15640W        W82708  32.457  43.985  13.332
15641W        W82709   8.830  22.168  10.540
15642W        W82710  13.348  40.314  12.838
15643W        W82711  20.047  22.724   4.646
15644W        W82712  37.946  12.294   3.731
15645W        W82713  19.756  10.802  12.951
15646W        W82714  16.084  28.055   4.605
15647W        W82715   1.869   1.917   1.435
15648W        W82716  12.630  42.840   4.302
15649W        W82717  27.525  42.511  13.506
15650W        W82718  41.800   7.699   2.336
15651W        W82719  40.938  22.738  12.912
15652W        W82720  23.164  38.069  13.501
15653W        W82721  28.098  25.594  14.908
15654W        W82722  27.523  35.979  14.809
15655W        W82723  43.851  20.162   3.212
15656W        W82724  14.633  17.216   1.246
15657W        W82725  25.065  18.765   2.840
15658W        W82726  39.404   2.935   2.846
15659W        W82727  22.625   9.802  12.057
15660W        W82728  11.309  12.280  12.844
15661W        W82729  13.145   9.800   0.784
15662W        W82730   8.168  36.473  11.400
15663W        W82731  27.465  12.850  10.569
15664W        W82732  44.866  41.385   0.459
15665W        W82733  10.286  23.196   2.827
15666W        W82734  14.752  28.185   4.708
15667W        W82735  23.236   2.276  12.972
15668W        W82736   6.397  18.671  14.816
15669W        W82737  44.323  25.511   2.900
15670W        W82738   7.310   6.861   3.324
15671W        W82739  44.784  17.632   2.731
15672W        W82740  34.487  27.969  13.831
15673W        W82741  20.115  20.653   2.902
15674W        W82742  15.242  24.037  12.880
15675W        W82743  11.659  39.879   0.299
15676W        W82744  44.931   4.264   1.371
15677W        W82745  38.421  20.194  14.501
15678W        W82746  16.186  42.934   4.672
15679W        W82747  25.060  17.642  13.050
15680W        W82748  31.035   8.802   0.380
15681W        W82749  35.487   8.823  12.949
15682W        W82750  10.203   9.166   2.725
15683W        W82751   2.251  44.459  10.047
15684W        W82752   8.776   2.390  10.133
15685W        W82753  15.644   8.673  14.382
15686W        W82754   6.796  23.087   1.254
15687W        W82755  28.061  43.305  11.429
15688W        W82756   4.343  40.821  14.458
15689W        W82757  15.124   7.877   2.297
15690W        W82758  43.946   1.300   2.184
15691W        W82759  14.250  35.854  11.598
15692W        W82760  19.610  23.064  13.354
15693W        W82761  23.527   7.414  12.930
15694W        W82762  33.124  39.501  13.023
15695W        W82763  21.577  24.680  13.038
15696W        W82764  36.497  44.348  11.020
15697W        W82765  44.373  40.483   2.178
15698W        W82766   9.230  27.670   2.794
15699W        W82767  26.160   7.297  13.443
15700W        W82768  28.503  32.905   0.877
15701W        W82769  27.662  35.102   0.771
15702W        W82770  30.917   6.826  11.530
15703W        W82771  20.659  24.012  11.597
15704W        W82772   8.850  12.254   1.411
15705W        W82773   0.775  34.991   3.311
15706W        W82774  19.742   1.301  13.542
15707W        W82775  11.768  34.955   3.294
15708W        W82776  13.616   6.696  13.981
15709W        W82777  23.236  21.199  11.455
15710W        W82778  14.256  41.963  12.906
15711W        W82779  13.268  27.689   1.231
15712W        W82780  17.119   4.894   4.740
15713W        W82781   3.416   2.347   0.916
15714W        W82782  15.652   3.337   4.223
15715W        W82783  12.697  28.511  14.982
15716W        W82784  26.010  19.556   4.313
15717W        W82785   0.807   6.684   0.280
15718W        W82786  43.481  12.722  14.432
15719W        W82787  36.969  16.276   1.837
15720W        W82788  23.677  10.365   4.171
15721W        W82789  10.275  15.308   1.309
15722W        W82790  28.124   9.683   3.169
15723W        W82791  24.137  21.616   2.836
15724W        W82792  12.647   3.338   4.806
15725W        W82793  12.189   5.333  11.927
15726W        W82794   3.439  21.580   1.704
15727W        W82795  32.111   1.890  11.382
15728W        W82796  12.682  15.270  11.951
15729W        W82797   6.302  11.799   0.883
15730W        W82798   1.338   0.451  10.562
15731W        W82799   9.855  12.247  13.344
15732W        W82800  13.780  16.662   3.637
15733W        W82801  38.515  34.000   0.881
15734W        W82802  31.523  36.849  13.987
15735W        W82803  13.126  41.456  14.870
15736W        W82804   9.882   2.336   4.296
15737W        W82805  24.184  34.083   2.322
15738W        W82806  11.272  33.498  14.385
15739W        W82807  26.067  10.828  11.963
15740W        W82808  42.341  38.412   4.810
15741W        W82809  41.005   4.206   2.257
15742W        W82810  28.481  42.491  11.567
15743W        W82811  26.554  34.381  13.312
15744W        W82812  14.616  11.767   4.257
15745W        W82813   8.716  38.052  13.911
15746W        W82814  33.462  43.790  12.567
15747W        W82815  32.925  36.999  14.416
15748W        W82816  13.843  19.606  12.940
15749W        W82817  11.642   5.385  11.951
15750W        W82818  30.968  22.694   9.997
15751W        W82819  27.986  18.220   1.423
15752W        W82820  37.989  16.617   2.868
15753W        W82821  18.790  32.565   1.721
15754W        W82822  28.149  34.492   1.243
15755W        W82823  19.693  26.187   0.315
15756W        W82824  12.128  42.380   0.939
15757W        W82825   5.784  38.996   4.827
15758W        W82826   1.878  11.343  12.472
15759W        W82827   6.420  44.953   0.953
15760W        W82828  26.082   1.904  14.802
15761W        W82829  28.572  20.204  14.417
15762W        W82830  30.491  33.933  14.312
15763W        W82831  21.109  19.725  13.336
15764W        W82832   1.461  20.658   2.378
15765W        W82833  17.644   3.288   2.274
15766W        W82834  43.312  16.626   3.203
15767W        W82835  15.776  28.648  12.501
15768W        W82836  25.995  12.704  11.892
15769W        W82837  23.083   6.219   1.239
15770W        W82838  14.291  37.895   4.244
15771W        W82839  16.738   2.262   3.310
15772W        W82840   7.872  13.264  14.380
15773W        W82841  37.012  28.148  12.478
15774W        W82842  37.958  25.515   4.662
15775W        W82843  42.932  25.010  13.815
15776W        W82844   9.750   6.334   2.782
15777W        W82845  39.545  16.590  13.929
15778W        W82846  26.573   0.954   1.301
15779W        W82847   7.352  39.547  10.970
15780W        W82848   4.885  37.527   4.177
15781W        W82849  29.537  38.513  14.762
15782W        W82850  23.542  29.532   0.759
15783W        W82851  42.881   0.918  13.033
15784W        W82852  22.066  39.018  14.991
15785W        W82853  38.897   8.169   0.382
15786W        W82854  33.486   4.823  10.985
15787W        W82855   8.670  35.057  12.375
15788W        W82856  20.714   8.255  12.970
15789W        W82857  37.940  18.188   0.399
15790W        W82858   0.853  25.117   0.831
15791W        W82859  39.398  11.185  10.604
15792W        W82860  13.744  12.243  11.926
15793W        W82861   9.297  14.623  12.091
15794W        W82862  12.707   9.251   1.711
15795W        W82863  42.376  16.201  13.537
15796W        W82864   8.867  18.160  11.469
15797W        W82865  38.924   8.259  14.434
15798W        W82866   9.733   7.862  11.954
15799W        W82867  43.776  26.525   0.465
15800W        W82868  34.480  38.016   0.418
15801W        W82869  36.056  38.955   3.829
15802W        W82870  29.107  32.113   0.390
15803W        W82871   7.389   8.251  10.567
15804W        W82872   7.681   4.338   3.835
15805W        W82873  36.356  14.668   1.778
15806W        W82874   2.745  41.311  14.945
15807W        W82875  38.030  39.828  13.469
15808W        W82876  16.785  21.066  13.878
15809W        W82877  28.490   0.764   1.280
15810W        W82878  36.384  10.804   3.846
15811W        W82879  33.508   7.284  12.049
15812W        W82880  16.645  12.162   3.171
15813W        W82881   1.900  21.676   2.897
15814W        W82882  31.935  26.480   0.443
15815W        W82883  13.219  42.952   2.711
15816W        W82884  32.993   9.725   4.643
15817W        W82885  34.600  13.648   1.350
15818W        W82886  43.504  44.836  14.389
15819W        W82887  31.604  39.446  12.094
15820W        W82888  21.619  14.260  10.441
15821W        W82889  43.458  36.959  12.074
15822W        W82890  27.577   1.283   1.218
15823W        W82891  39.489  26.619   9.942
15824W        W82892  16.234  34.000   2.270
15825W        W82893  29.631  32.077  10.469
15826W        W82894  15.644  25.498  11.567
15827W        W82895  10.384  15.273  12.536
15828W        W82896   9.190  34.574   0.299
15829W        W82897  23.704   1.241  14.435
15830W        W82898  28.453  38.066  10.587
15831W        W82899  38.518   1.475   0.877
15832W        W82900  19.691  34.401   2.389
15833W        W82901  40.930  21.625  10.632
15834W        W82902   8.203  11.702  11.071
15835W        W82903  19.696  10.173  11.386
15836W        W82904  14.262  39.932  11.020
15837W        W82905  32.609  23.511  14.837
15838W        W82906  35.599  12.617   1.266
15839W        W82907  39.522  14.112  13.320
15840W        W82908  30.508  16.675   1.729
15841W        W82909   0.266  40.536  11.119
15842W        W82910  23.686   2.240   0.324
15843W        W82911   7.195  37.988  14.858
15844W        W82912   8.283  25.212  13.929
15845W        W82913   5.407  43.293  11.421
15846W        W82914  21.043  28.540   4.119
15847W        W82915  35.416  39.456  11.087
15848W        W82916  42.308  17.166  11.118
15849W        W82917  14.806  16.743   2.837
15850W        W82918  13.839  12.339   4.302
15851W        W82919  29.552   5.715  12.439
15852W        W82920   8.753  10.329   3.306
15853W        W82921  31.625   3.369  12.016
15854W        W82922   9.296  15.156  11.079
15855W        W82923  44.323  11.654  12.562
15856W        W82924  16.726   7.313  13.485
15857W        W82925  35.469   4.927  10.622
15858W        W82926  13.796  16.567   1.272
15859W        W82927  14.154  22.181   4.286
15860W        W82928  10.294  40.041   1.341
15861W        W82929   6.310  11.656  14.930
15862W        W82930  39.925  14.219   2.703
15863W        W82931   4.828  34.424   0.741
15864W        W82932  10.836  20.130   4.703
15865W        W82933  13.302  31.968   1.827
15866W        W82934  23.238  14.241  13.839
15867W        W82935  31.946  24.488   3.687
15868W        W82936  43.869  15.701   3.359
15869W        W82937  19.143   2.346   2.763
15870W        W82938  39.941   3.914   2.182
15871W        W82939  15.243  19.633   2.366
15872W        W82940  14.778   8.845  13.406
15873W        W82941  26.657   2.926  10.533
15874W        W82942   8.400  11.364   1.697
15875W        W82943  22.741   8.678  10.127
15876W        W82944  25.215  32.039  13.352
15877W        W82945  28.579  25.138   5.234
15878W        W82946  42.850  19.231   1.778
15879W        W82947   1.846  12.138  13.903
15880W        W82948  43.839  13.673   1.781
15881W        W82949  11.372  35.043   4.179
15882W        W82950  12.159  32.534  10.937
15883W        W82951  41.023   9.378  14.358
15884W        W82952  30.019   8.765  11.438
15885W        W82953  42.407  11.368  11.437
15886W        W82954  23.544  39.360   4.115
15887W        W82955  12.274  24.651   0.764
15888W        W82956  13.831   7.287  11.603
15889W        W82957  44.858  39.378   2.356
15890W        W82958  37.490  42.822  11.424
15891W        W82959  11.707  19.145  13.334
15892W        W82960  31.035  37.924  12.541
15893W        W82961  16.255   6.256  10.509
15894W        W82962   6.426  21.087   3.162
15895W        W82963  25.648  26.653   4.303
15896W        W82964  25.141  17.190  13.822
15897W        W82965  31.917   3.425   2.812
15898W        W82966   8.813   4.349   3.333
15899W        W82967  35.536  16.173   3.233
15900W        W82968  36.586  26.613   2.340
15901W        W82969  31.633  35.954  10.566
15902W        W82970  29.529  34.968   4.305
15903W        W82971   9.235   8.308  13.431
15904W        W82972  25.529   6.263   2.221
15905W        W82973  12.711  18.561  12.886
15906W        W82974  38.033   6.366   1.355
15907W        W82975  18.136  14.595   0.480
15908W        W82976  35.361   9.773  12.507
15909W        W82977   7.249  36.494  14.433
15910W        W82978  31.532  25.491  14.813
15911W        W82979   6.762  39.817   3.218
15912W        W82980  30.148  29.009   1.418
15913W        W82981  38.870  30.590  14.875
15914W        W82982   6.337  38.476   1.856
15915W        W82983  35.362  30.574  14.412
15916W        W82984  24.672  22.708   2.414
15917W        W82985   5.433  28.463   1.282
15918W        W82986  12.713   5.424  12.019
15919W        W82987  41.834  21.068  12.095
15920W        W82988  26.181  43.287  14.886
15921W        W82989  33.466  36.947  11.596
15922W        W82990  38.027   3.458  11.949
15923W        W82991   0.476   5.407   4.664
15924W        W82992  28.441  42.923  10.447
15925W        W82993   5.393  29.995  13.978
15926W        W82994   3.934  41.885  14.892
15927W        W82995   5.422  21.516   4.750
15928W        W82996  42.382   7.381  12.430
15929W        W82997  17.243   4.787   2.900
15930W        W82998  41.364  39.910   0.937
15931W        W82999  31.564  30.418   0.283
15932W        W83000  39.900  29.131   1.899
15933W        W83001   0.787   7.795  12.872
15934W        W83002  37.883  11.666  13.438
15935W        W83003  37.494  27.650  12.472
15936W        W83004  44.996  27.684   0.290
15937W        W83005  26.561  22.528   3.722
15938W        W83006  36.456  28.086   4.756
15939W        W83007  32.101  34.379   4.637
15940W        W83008  35.546  10.299  13.012
15941W        W83009  43.477  44.456  13.017
15942W        W83010  42.524  37.471  14.471
15943W        W83011  12.626  39.827  10.420
15944W        W83012  37.347  41.472  10.027
15945W        W83013   5.230   5.841   2.415
15946W        W83014   1.814  29.540  12.038
15947W        W83015  16.204  42.784  13.825
15948W        W83016  32.476   0.473  14.478
15949W        W83017  38.909  18.135  13.451
15950W        W83018  42.335  15.201  14.764
15951W        W83019  28.996  26.626  13.051
15952W        W83020   4.943   3.874  10.509
15953W        W83021   5.272   8.712   0.767
15954W        W83022  34.959   8.183  14.783
15955W        W83023  32.033  43.814   2.856
15956W        W83024  10.877   5.269  10.613
15957W        W83025  17.633  26.548   0.276
15958W        W83026  35.422  42.303  13.037
15959W        W83027  10.784  39.430   3.788
15960W        W83028  13.248  11.320   4.833
15961W        W83029  32.420  42.496   4.202
15962W        W83030  33.926  29.970  13.857
15963W        W83031  17.780   2.273  14.349
15964W        W83032  17.590  34.585  11.597
15965W        W83033   2.366   6.382   5.306
15966W        W83034  17.674   9.292  11.056
15967W        W83035  41.982   0.467   1.857
15968W        W83036  13.165  22.195   1.439
15969W        W83037  43.357  33.970  13.917
15970W        W83038  15.263  36.038  14.029
15971W        W83039   8.195   4.351  14.013
15972W        W83040  16.757  14.315  11.046
15973W        W83041  22.028  27.996   3.634
15974W        W83042  25.571  27.445  14.346
15975W        W83043  24.016  37.557   1.338
15976W        W83044  42.885  40.446  10.955
15977W        W83045  36.009  17.144   2.752
15978W        W83046  40.033  24.976  14.278
15979W        W83047  39.378   8.275   1.427
15980W        W83048  44.934  36.995  10.621
15981W        W83049  25.621  27.190  12.843
15982W        W83050  25.149  20.209   2.369
15983W        W83051  40.536  15.798   5.193
15984W        W83052   7.874  19.161   5.153
15985W        W83053   9.189   3.269   1.729
15986W        W83054   8.314  24.048  14.339
15987W        W83055   8.299   6.749   0.332
15988W        W83056   7.750  15.682   4.166
15989W        W83057  21.120  33.566   2.236
15990W        W83058  39.021  15.177   2.251
15991W        W83059  38.375  19.044   1.720
15992W        W83060  41.799  20.050  12.532
15993W        W83061  17.721   9.691   4.227
15994W        W83062   1.324  12.680  13.388
15995W        W83063  18.201  35.066   4.325
15996W        W83064  41.858  24.691  10.471
15997W        W83065   5.391   0.401  11.909
15998W        W83066   6.233  27.662  13.365
15999W        W83067   5.886  35.036  13.510
16000W        W83068  17.254  39.879   3.668
16001W        W83069  11.701  40.859   4.290
16002W        W83070  15.590  12.269   2.360
16003W        W83071  17.246  15.243  10.614
16004W        W83072  16.610  26.115  12.508
16005W        W83073  25.011  37.509   3.226
16006W        W83074  26.106  28.485   3.789
16007W        W83075  20.609  16.319  12.422
16008W        W83076  39.896  35.381   1.903
16009W        W83077  34.930  37.518  13.942
16010W        W83078  28.136  13.791  11.552
16011W        W83079  40.941  44.885  10.470
16012W        W83080  11.664  32.511   1.348
16013W        W83081  37.937  14.766   1.349
16014W        W83082  38.049   0.486  11.595
16015W        W83083   1.242  19.571  10.992
16016W        W83084   0.807  13.188  14.434
16017W        W83085  23.100  39.041   3.319
16018W        W83086  39.473  27.098   2.229
16019W        W83087  34.051   2.898   0.455
16020W        W83088  22.693  31.437  12.048
16021W        W83089  31.433  30.560  11.532
16022W        W83090  23.561   4.811  14.293
16023W        W83091  32.575   4.410   0.865
16024W        W83092  14.715   9.852  11.491
16025W        W83093  20.748  19.669  13.854
16026W        W83094  13.170  14.180  12.859
16027W        W83095  36.862  25.671  12.522
16028W        W83096  38.042  41.388   2.243
16029W        W83097  24.689  20.173  13.936
16030W        W83098  12.196  10.721   0.763
16031W        W83099  34.611  33.455  10.413
16032W        W83100   6.396  20.261  10.892
16033W        W83101   3.339  29.445   5.103
16034W        W83102  28.484   7.747  14.423
16035W        W83103   4.252  36.555   3.360
16036W        W83104   2.299   6.374   4.761
16037W        W83105  21.678  24.986   2.360
16038W        W83106  30.079  21.191  12.389
16039W        W83107  30.027  17.627   3.851
16040W        W83108  20.272  20.111  14.480
16041W        W83109  42.303   8.278  14.434
16042W        W83110  38.025  12.796   1.311
16043W        W83111  13.192  33.982  12.884
16044W        W83112  10.313  16.793   2.241
16045W        W83113  38.023  17.290  12.418
16046W        W83114   2.247  40.432   4.777
16047W        W83115  22.524   3.804   4.688
16048W        W83116  37.407  44.412  14.291
16049W        W83117  26.643   0.284   3.690
16050W        W83118  28.056  31.497  10.081
16051W        W83119  17.258  30.599   3.810
16052W        W83120  11.649  38.455   2.760
16053W        W83121  25.529  14.263   4.640
16054W        W83122   5.285  27.508   2.858
16055W        W83123  20.662  15.612  10.463
16056W        W83124  25.658  29.110   1.713
16057W        W83125   1.958  41.398   2.683
16058W        W83126  17.183  18.181  14.284
16059W        W83127  12.631  36.547  14.000
16060W        W83128  37.519   4.399   0.730
16061W        W83129   6.849  33.442   1.420
16062W        W83130  38.343  29.523   0.363
16063W        W83131   1.958  42.879  13.857
16064W        W83132  22.647  33.059  10.635
16065W        W83133  37.427   8.307  14.838
16066W        W83134  17.278  32.480   2.247
16067W        W83135  20.531   8.316  10.902
16068W        W83136  10.334   9.760  12.906
16069W        W83137  37.354  14.695   1.401
16070W        W83138  15.618  40.822  14.841
16071W        W83139  23.704  38.028   4.201
16072W        W83140  39.851  38.348  12.499
16073W        W83141  12.725  14.194   4.667
16074W        W83142  15.306   6.370  12.955
16075W        W83143  22.735  40.446   9.485
16076W        W83144   6.899  41.908  13.359
16077W        W83145  28.945  19.537  10.993
16078W        W83146   7.343  13.724   0.932
16079W        W83147  40.349  34.091  11.868
16080W        W83148  43.867   1.258  14.964
16081W        W83149  14.647  28.503  12.400
16082W        W83150  18.583  25.569   4.803
16083W        W83151  32.439   8.171   2.753
16084W        W83152  34.602  36.859  12.486
16085W        W83153  40.802  27.570   1.839
16086W        W83154  40.525   3.409   1.289
16087W        W83155  19.248  37.893  13.918
16088W        W83156  44.005  22.103   1.268
16089W        W83157  25.102  26.108   2.307
16090W        W83158  37.373  38.463   2.402
16091W        W83159  29.565  44.979  10.441
16092W        W83160  39.015  18.195   5.260
16093W        W83161   2.292   0.388   3.822
16094W        W83162  10.673   7.265  11.012
16095W        W83163   3.221  41.932   2.220
16096W        W83164  44.918  14.241  11.972
16097W        W83165  15.765   5.284   5.243
16098W        W83166  19.045  25.161  12.069
16099W        W83167   5.407  42.823  13.509
16100W        W83168  41.877  31.126   3.237
16101W        W83169  16.607  40.469   0.326
16102W        W83170  24.977  31.919  13.034
16103W        W83171   6.196  12.275   1.719
16104W        W83172  41.419  28.559   2.418
16105W        W83173   6.860  38.849  14.291
16106W        W83174  43.957   9.241   4.219
16107W        W83175  33.875  24.691   5.224
16108W        W83176  20.666  36.541   3.726
16109W        W83177  21.559   2.322   0.427
16110W        W83178  21.039  11.867  10.952
16111W        W83179  12.809  10.833   2.264
16112W        W83180   6.427  15.224  13.023
16113W        W83181  25.624  36.941  14.478
16114W        W83182  37.523  39.934  10.645
16115W        W83183  12.709  29.021  13.467
16116W        W83184  23.498  25.186   3.288
16117W        W83185  17.192  33.538   3.166
16118W        W83186   7.344  23.237  13.415
16119W        W83187  27.170  43.825   1.416
16120W        W83188  31.499  22.196   0.297
16121W        W83189  26.168   5.811   0.423
16122W        W83190  32.105  11.771  12.068
16123W        W83191   5.701  35.903   1.403
16124W        W83192  35.894  32.446   2.715
16125W        W83193  35.033  19.554   0.396
16126W        W83194  27.490  16.248   1.734
16127W        W83195  22.230   7.862   0.456
16128W        W83196  34.516  12.736   2.247
16129W        W83197   5.420  32.947  13.025
16130W        W83198  11.269  43.345  12.900
16131W        W83199  31.082  38.379   4.211
16132W        W83200  10.832  16.169  11.435
16133W        W83201  12.635  42.343  11.940
16134W        W83202   0.888  30.426  11.474
16135W        W83203  23.087   9.155  14.291
16136W        W83204  31.487  13.788   2.206
16137W        W83205  16.595  13.789  14.406
16138W        W83206  19.681  37.963  12.453
16139W        W83207   7.202  27.526  13.936
16140W        W83208   2.913   1.468  12.011
16141W        W83209  23.556  29.075  11.893
16142W        W83210  42.343   7.416   2.292
16143W        W83211   3.852  23.673   5.174
16144W        W83212  29.031  32.919   4.685
16145W        W83213  28.121  19.045  13.485
16146W        W83214  39.351  19.186  12.087
16147W        W83215   8.746   7.866   2.702
16148W        W83216   4.204   0.409   1.420
16149W        W83217   2.801   9.235   1.394
16150W        W83218  19.757  17.154  14.319
16151W        W83219   5.209  28.007  14.483
16152W        W83220  27.176   4.227  14.404
16153W        W83221  37.019  33.061  10.467
16154W        W83222  25.981   2.890   2.853
16155W        W83223  23.732  19.057   4.341
16156W        W83224   7.802   6.730   2.823
16157W        W83225  42.995  42.844   4.656
16158W        W83226  44.491  23.193   4.333
16159W        W83227  12.259  22.206  14.987
16160W        W83228  38.447  23.196   2.797
16161W        W83229  33.457   2.813  14.512
16162W        W83230  28.124   2.874  11.592
16163W        W83231   2.790  26.457   4.151
16164W        W83232   6.348   4.409  14.946
16165W        W83233  35.550  16.577  10.448
16166W        W83234   4.724  13.117   3.719
16167W        W83235  13.318  19.556   5.124
16168W        W83236   3.840   2.798   4.783
16169W        W83237  10.141  25.039  13.382
16170W        W83238  13.288  37.414  14.350
16171W        W83239  32.613   8.183   1.761
16172W        W83240  21.643  34.534  11.900
16173W        W83241  12.832  14.654  14.479
16174W        W83242  32.900  37.934   2.266
16175W        W83243  17.071  23.001   5.098
16176W        W83244   8.405  36.095   2.366
16177W        W83245  28.039  27.082   4.241
16178W        W83246  36.530  19.211   2.768
16179W        W83247   4.342  27.054   0.868
16180W        W83248  26.475  31.910   0.264
16181W        W83249  40.976  28.467  12.509
16182W        W83250   8.713  34.582   0.349
16183W        W83251  30.621  22.016   1.825
16184W        W83252  16.261  23.156  10.478
16185W        W83253   9.262  28.582  10.542
16186W        W83254  27.105  37.348  10.995
16187W        W83255  32.636  31.534   0.395
16188W        W83256  42.489  21.636  12.039
16189W        W83257  15.636  20.120   2.249
16190W        W83258   4.352  30.951  12.485
16191W        W83259  13.115  41.917  10.453
16192W        W83260  21.195  28.563  14.930
16193W        W83261   7.328  20.193  10.491
16194W        W83262  24.200   1.850  14.454
16195W        W83263  27.084  24.593  12.571
16196W        W83264  23.166  41.314  11.029
16197W        W83265   0.406  44.774  14.885
16198W        W83266  22.119  25.554  11.056
16199W        W83267   3.813  18.733   2.736
16200W        W83268  28.162  36.416  12.438
16201W        W83269  22.139  19.759   0.869
16202W        W83270  21.056  19.097   2.832
16203W        W83271  33.430  44.827   1.211
16204W        W83272  15.186  37.946   1.723
16205W        W83273   9.660   6.221  12.035
16206W        W83274  19.724   2.298   3.669
16207W        W83275  32.535  39.960  11.983
16208W        W83276   6.242  33.523  11.986
16209W        W83277  25.121  33.987   2.354
16210W        W83278  16.627   3.907  12.053
16211W        W83279  33.450  32.416  10.409
16212W        W83280   3.221   6.330   2.312
16213W        W83281   2.899  40.977   0.880
16214W        W83282  30.145  20.192  12.498
16215W        W83283  18.688  36.481  13.393
16216W        W83284  16.162  21.096   1.327
16217W        W83285   7.895  42.420  11.996
16218W        W83286  24.220  29.509  14.848
16219W        W83287  43.295   7.337  10.999
16220W        W83288   4.314  13.608   1.811
16221W        W83289  42.358  30.926  14.367
16222W        W83290  35.064  12.209  14.003
16223W        W83291  27.539   0.327   0.334
16224W        W83292  14.288  14.202  14.843
16225W        W83293  19.590  19.742  11.930
16226W        W83294  20.642  25.676   0.425
16227W        W83295   8.198  34.565   1.830
16228W        W83296  22.607  22.091  11.525
16229W        W83297  16.790  15.606   3.231
16230W        W83298  33.433   5.887  13.447
16231W        W83299   2.259   8.164   4.178
16232W        W83300  41.977  28.485   2.349
16233W        W83301  26.527   5.866   1.765
16234W        W83302  40.801  39.525  14.488
16235W        W83303  33.400  13.837   0.942
16236W        W83304   0.770  36.572   0.833
16237W        W83305  14.200  12.726  12.404
16238W        W83306  12.806   2.432  11.385
16239W        W83307  20.064  36.524   0.793
16240W        W83308   1.793  17.762   1.916
16241W        W83309  32.950  41.319  10.610
16242W        W83310  27.029  20.188   4.736
16243W        W83311  43.388   5.413  11.559
16244W        W83312   4.262  11.856  11.921
16245W        W83313  28.581  31.541  14.779
16246W        W83314  41.961  32.474  14.512
16247W        W83315   0.984  40.467  13.486
16248W        W83316  17.759  37.872  11.018
16249W        W83317   5.809  32.556   3.854
16250W        W83318  36.059  20.085   2.828
16251W        W83319  16.812  22.999   0.751
16252W        W83320   1.886  34.419  12.898
16253W        W83321  26.671  28.057  11.939
16254W        W83322  34.007  10.698   1.774
16255W        W83323   5.833   2.459   1.814
16256W        W83324   6.277  21.524   1.382
16257W        W83325  14.798  26.163   1.731
16258W        W83326  14.797  20.090  13.849
16259W        W83327  17.623  21.595  13.990
16260W        W83328  39.374  22.542   1.276
16261W        W83329  29.493  37.079  11.898
16262W        W83330  29.499   0.949   5.263
16263W        W83331   3.259  10.865   0.933
16264W        W83332  13.815  30.487   3.755
16265W        W83333  33.887   2.374   2.898
16266W        W83334  24.075  20.564  14.497
16267W        W83335  43.942   8.176  12.394
16268W        W83336  26.965  11.229   4.837
16269W        W83337  13.702  22.008  12.506
16270W        W83338  34.940   7.300   0.827
16271W        W83339  21.232  39.990   0.349
16272W        W83340   3.258  27.070   4.231
16273W        W83341  11.729  37.440  10.061
16274W        W83342  33.421  29.017   0.389
16275W        W83343   6.359  34.430  11.443
16276W        W83344  40.528  37.548  12.865
16277W        W83345  33.010  29.436  12.865
16278W        W83346  22.571  24.637  14.505
16279W        W83347  41.980  24.110  13.512
16280W        W83348  34.062   0.462   1.215
16281W        W83349  38.849  28.050   0.787
16282W        W83350  35.086  26.180   5.183
16283W        W83351  16.196  20.240  14.357
16284W        W83352   3.358  30.059  12.410
16285W        W83353  20.573  25.112  13.885
16286W        W83354  13.169  21.228   4.210
16287W        W83355  38.924  37.545   3.377
16288W        W83356   8.703   5.690  11.551
16289W        W83357   8.335  43.274  13.373
16290W        W83358  34.010  40.457   3.852
16291W        W83359  23.615  19.101   0.272
16292W        W83360  28.126  26.136   2.418
16293W        W83361  32.622  44.825  13.817
16294W        W83362  32.620  29.510   1.304
16295W        W83363  12.132  33.565  13.836
16296W        W83364  20.548  40.409   3.146
16297W        W83365  17.710  10.281   3.862
16298W        W83366  10.304  36.946  14.451
16299W        W83367  20.206  20.067   0.393
16300W        W83368  21.561  10.817  10.512
16301W        W83369   6.323  30.430  10.117
16302W        W83370  27.567   1.469  10.538
16303W        W83371  32.428  23.501  10.507
16304W        W83372   8.377  11.663   1.227
16305W        W83373  35.558  37.073  10.538
16306W        W83374   4.238  22.564  14.946
16307W        W83375  20.638  30.063  11.520
16308W        W83376  39.535  36.076  10.534
16309W        W83377  30.087  34.016  12.894
16310W        W83378   5.246   4.921  11.947
16311W        W83379  32.473  10.367   0.415
16312W        W83380  43.488  36.476  12.960
16313W        W83381  33.441  40.920  11.450
16314W        W83382  16.650  27.964  11.878
16315W        W83383  28.041  21.224  13.876
16316W        W83384  27.634  28.111   3.730
16317W        W83385  36.950  41.317  12.077
16318W        W83386  35.509  11.140  11.511
16319W        W83387  26.115  32.523  10.609
16320W        W83388  26.168  10.250   2.863
16321W        W83389  22.651  12.856   2.180
16322W        W83390  25.186  19.280   4.643
16323W        W83391  22.734   5.835   2.868
16324W        W83392  28.054  19.134  10.004
16325W        W83393  26.167  32.913   2.213
16326W        W83394  15.805   2.894   4.221
16327W        W83395  13.290  27.503  11.413
16328W        W83396  20.664  44.775   3.826
16329W        W83397  35.097   0.294   4.244
16330W        W83398  24.069   5.396   1.905
16331W        W83399  23.529  15.316   2.353
16332W        W83400   1.740  24.144  11.127
16333W        W83401  30.636  34.421  14.835
16334W        W83402  13.742  15.696  11.471
16335W        W83403  36.516  37.032  14.351
16336W        W83404  44.406   2.939   1.866
16337W        W83405  30.417  29.571  14.874
16338W        W83406  24.147   7.398  10.085
16339W        W83407  32.965  34.482  11.065
16340W        W83408  22.591  24.564  11.058
16341W        W83409  33.019  24.586  13.936
16342W        W83410  39.332  35.424  11.589
16343W        W83411  37.484  28.062   2.264
16344W        W83412  31.137  16.188  12.040
16345W        W83413   1.746   6.317  10.572
16346W        W83414  30.102  24.056   0.862
16347W        W83415  10.231  18.610   4.601
16348W        W83416  10.138  30.103   4.793
16349W        W83417   4.377  13.764  13.546
16350W        W83418  10.190  32.030   3.654
16351W        W83419  21.192  24.589   0.942
16352W        W83420  36.909  37.963  12.020
16353W        W83421  39.442   5.232   4.822
16354W        W83422  33.560   5.313   2.310
16355W        W83423  26.650   6.362   1.772
16356W        W83424  29.174  17.248  11.465
16357W        W83425   5.904  29.516  14.836
16358W        W83426  33.128  14.590  10.997
16359W        W83427  40.320  11.266  14.029
16360W        W83428  18.100  44.502  12.058
16361W        W83429   5.690   8.868  13.446
16362W        W83430  28.604  39.495  11.929
16363W        W83431  28.547  29.574   3.826
16364W        W83432  18.105   2.764   0.412
16365W        W83433  43.487  44.886   0.282
16366W        W83434  40.456  11.166  12.948
16367W        W83435  27.459  19.219  12.462
16368W        W83436  18.207  35.963   1.755
16369W        W83437  11.315  26.100  12.476
16370W        W83438  35.576  43.479   2.191
16371W        W83439   4.297  42.518   0.760
16372W        W83440   1.385  18.564  10.474
16373W        W83441  38.984  17.585  10.953
16374W        W83442  40.486  41.031   4.188
16375W        W83443   4.876  38.485  11.378
16376W        W83444  33.421  22.998   4.744
16377W        W83445  32.614  41.332  14.958
16378W        W83446   6.701  42.024   1.258
16379W        W83447  35.570  20.670  11.372
16380W        W83448   4.787   8.163  10.619
16381W        W83449  11.866  23.156   1.311
16382W        W83450  43.909  39.015  12.073
16383W        W83451  39.000  37.027  14.367
16384W        W83452  24.061   3.940   4.138
16385W        W83453   8.265  20.710   2.698
16386W        W83454  27.597   1.900  12.434
16387W        W83455  36.091  26.476  12.500
16388W        W83456  39.893  27.542   3.225
16389W        W83457  32.885  29.072   3.175
16390W        W83458  35.020  12.126   2.838
16391W        W83459   1.877   0.436  12.073
16392W        W83460  12.628  15.317  11.087
16393W        W83461  21.561   4.332  13.815
16394W        W83462  44.899   1.404   4.334
16395W        W83463  27.949   4.852   0.385
16396W        W83464   2.752   9.752   1.917
16397W        W83465  35.886  15.221  12.827
16398W        W83466  32.494  36.096  12.828
16399W        W83467   2.914  26.689   2.888
16400W        W83468  40.422  25.565  12.831
16401W        W83469  41.342  35.375   0.295
16402W        W83470  20.252  21.583   1.374
16403W        W83471  21.160  34.102   4.317
16404W        W83472   7.680  32.477   0.258
16405W        W83473  35.358  34.993  12.913
16406W        W83474  41.349  44.789  14.847
16407W        W83475  32.124  24.061   1.844
16408W        W83476   1.344  29.937   3.359
16409W        W83477  37.973  28.989   4.239
16410W        W83478  29.594  26.022  13.530
16411W        W83479  11.249  15.136  12.894
16412W        W83480   1.354  34.470   2.349
16413W        W83481  20.131  20.102  12.009
16414W        W83482  33.125   1.459  11.977
16415W        W83483  20.041  18.775  11.887
16416W        W83484  28.947  36.539   1.290
16417W        W83485  37.944  42.894  14.487
16418W        W83486  37.383   6.921   1.736
16419W        W83487  13.273  16.151  10.970
16420W        W83488   8.855   1.443  12.546
16421W        W83489   5.384  28.102   4.607
16422W        W83490  28.469  35.372  10.967
16423W        W83491  44.288  11.262   3.342
16424W        W83492  15.637  28.597   3.660
16425W        W83493  28.102   3.388  12.417
16426W        W83494  18.215  28.486  14.354
16427W        W83495   5.363  21.197   3.263
16428W        W83496   2.853   5.842  10.566
16429W        W83497  23.097  18.123   1.283
16430W        W83498  27.002  33.124   5.248
16431W        W83499  37.494  35.426  14.988
16432W        W83500  32.413   6.201   0.923
16433W        W83501  34.413   1.973   2.326
16434W        W83502  14.277  28.662   2.842
16435W        W83503   6.320  29.077  11.011
16436W        W83504  29.658  43.909  14.017
16437W        W83505  35.889  38.555  14.795
16438W        W83506   0.744   3.736   2.718
16439W        W83507  30.013  32.113   0.728
16440W        W83508  23.127  21.050   4.622
16441W        W83509  40.479   9.811  12.448
16442W        W83510  31.929  23.054   9.946
16443W        W83511  22.709  33.043   4.196
16444W        W83512  27.170   5.926   1.353
16445W        W83513  30.935  25.520  14.304
16446W        W83514  19.192  26.082  11.452
16447W        W83515  23.647  20.646  11.084
16448W        W83516  44.328  21.233   1.885
16449W        W83517  14.178   2.726   2.247
16450W        W83518  15.115  20.669   3.745
16451W        W83519  39.920  17.682   2.712
16452W        W83520  34.375  40.973  14.356
16453W        W83521  28.091  31.110  14.486
16454W        W83522  42.863  40.808  11.599
16455W        W83523  26.011   6.781  14.885
16456W        W83524  33.966  44.827  13.370
16457W        W83525  14.775  23.203   4.146
16458W        W83526  12.130  22.173  13.478
16459W        W83527   4.802  21.020   0.866
16460W        W83528   2.814  44.000  12.080
16461W        W83529  33.496   5.386   3.196
16462W        W83530   3.388  41.532  13.482
16463W        W83531  14.268  38.938  10.429
16464W        W83532  39.992  15.590   4.267
16465W        W83533  11.768   5.833   1.222
16466W        W83534  25.138  44.838   4.156
16467W        W83535  35.015   8.164   4.129
16468W        W83536  27.110   1.772  14.278
16469W        W83537  27.482   8.816   3.815
16470W        W83538  15.710  39.023   3.291
16471W        W83539  32.531  41.899  10.619
16472W        W83540  39.541  20.173   2.736
16473W        W83541  28.087  10.695   0.865
16474W        W83542  20.144  20.081   2.367
16475W        W83543   2.381  37.064  14.794
16476W        W83544  42.489  37.853   2.269
16477W        W83545  37.070  28.114   0.866
16478W        W83546  28.999   3.438   4.742
16479W        W83547   2.866  10.731   3.382
16480W        W83548   8.689  14.098   4.735
16481W        W83549  20.732  36.006   1.372
16482W        W83550  37.482  40.336   3.643
16483W        W83551  40.401  15.287  13.873
16484W        W83552   4.885  21.544   3.285
16485W        W83553  32.061   4.449  13.791
16486W        W83554   8.402  43.289  11.381
16487W        W83555  15.578   2.421   0.870
16488W        W83556  28.939  39.029   2.757
16489W        W83557  17.137   1.257   1.915
16490W        W83558  22.690  16.673   4.218
16491W        W83559  20.692  18.692   2.699
16492W        W83560  22.684  19.678   4.786
16493W        W83561   5.711   0.317  14.478
16494W        W83562  16.188   7.321   3.385
16495W        W83563   1.778  44.334   4.347
16496W        W83564  41.325   4.251   4.784
16497W        W83565   0.447  31.933  11.026
16498W        W83566  31.419  17.632   3.798
16499W        W83567  18.143  20.260   5.751
16500W        W83568  15.154  18.668  11.895
16501W        W83569  44.328  17.579  14.885
16502W        W83570  27.117  23.735  10.921
16503W        W83571  20.632  44.961  12.352
16504W        W83572  41.464  42.414   1.337
16505W        W83573  14.698  24.567  14.962
16506W        W83574  44.979  38.077   4.281
16507W        W83575  17.167  28.545   0.302
16508W        W83576   0.843  13.260  11.128
16509W        W83577  18.091  29.005  12.088
16510W        W83578   8.785  21.105   0.797
16511W        W83579  24.170  12.802  13.392
16512W        W83580  40.512  24.618   3.332
16513W        W83581  31.918   8.771   3.312
16514W        W83582  36.027  26.122  14.830
16515W        W83583  35.987  35.026   4.242
16516W        W83584  36.967  24.107   3.695
16517W        W83585  26.530   9.154   1.382
16518W        W83586  35.397   2.280   2.726
16519W        W83587  16.149  43.950  12.974
16520W        W83588  24.210  14.658   0.299
16521W        W83589  18.151  18.079  10.507
16522W        W83590  33.513  34.421  12.477
16523W        W83591  17.158  14.732  10.556
16524W        W83592  18.615   7.212   1.261
16525W        W83593  20.589  27.976   1.384
16526W        W83594  24.522  43.996  14.928
16527W        W83595  43.858  43.870   0.785
16528W        W83596   0.485   1.431   3.763
16529W        W83597   1.813  14.689   2.871
16530W        W83598  29.442   1.257  11.527
16531W        W83599  16.657  33.033  10.985
16532W        W83600  27.543   8.717  11.072
16533W        W83601   3.398  11.352   3.799
16534W        W83602   9.336   9.785   0.851
16535W        W83603   1.239  36.512  11.070
16536W        W83604  44.994  30.603   3.839
16537W        W83605  20.701  42.021   3.182
16538W        W83606  11.353  44.489   1.764
16539W        W83607  32.891  23.678  14.474
16540W        W83608  23.093   9.297   1.786
16541W        W83609   2.751  34.472   2.755
16542W        W83610  35.364  40.410   3.809
16543W        W83611  13.150  39.814   4.123
16544W        W83612  20.183  12.719   2.265
16545W        W83613  30.110  35.097  13.537
16546W        W83614   9.268  27.033   4.664
16547W        W83615  31.574  41.875   3.790
16548W        W83616  24.151  24.029   2.702
16549W        W83617  33.984  24.641  13.379
16550W        W83618  25.034   1.750  12.498
16551W        W83619  12.230  43.860  14.950
16552W        W83620  22.047  19.199  10.981
16553W        W83621  11.750  30.113   2.712
16554W        W83622  18.598  24.706  13.930
16555W        W83623  25.064  32.450   1.344
16556W        W83624  36.577  18.097  11.429
16557W        W83625   9.167  33.597  11.940
16558W        W83626  37.506  30.434   1.444
16559W        W83627  32.016   0.797   2.394
16560W        W83628  17.150   8.374   2.274
16561W        W83629   2.300  30.547  10.452
16562W        W83630  21.171  20.733  13.489
16563W        W83631  38.001   0.959   0.912
16564W        W83632   2.242  34.512   0.449
16565W        W83633  31.020  33.044  13.351
16566W        W83634  11.191  21.127  14.344
16567W        W83635   9.817  10.190   3.642
16568W        W83636  31.082  37.510   4.808
16569W        W83637   3.297   6.801   4.779
16570W        W83638  36.479  16.271   2.784
16571W        W83639  43.487  37.527   1.359
16572W        W83640   1.440  30.077   3.817
16573W        W83641  34.472  12.138   1.247
16574W        W83642   8.724  40.866  11.435
16575W        W83643  41.529   4.243  13.524
16576W        W83644  41.827  19.575  13.360
16577W        W83645  24.087  19.587   5.309
16578W        W83646   0.416  36.553   2.900
16579W        W83647  37.925  17.739   0.327
16580W        W83648   7.905  32.994  13.996
16581W        W83649   1.316  23.660  12.855
16582W        W83650   0.837  37.856  13.953
16583W        W83651   2.780  25.026   3.158
16584W        W83652  23.029  41.398  13.515
16585W        W83653  37.013   6.885  11.550
16586W        W83654  18.681   5.902  11.022
16587W        W83655  43.508   8.777  10.623
16588W        W83656  38.371  40.951  12.476
16589W        W83657   1.743  38.865   4.812
16590W        W83658   8.216  29.092  14.916
16591W        W83659  21.230  29.011   3.333
16592W        W83660  38.863  16.220  11.870
16593W        W83661  25.121  27.956   3.864
16594W        W83662  11.353  34.099   3.629
16595W        W83663  25.623  16.673  13.351
16596W        W83664  27.143  35.575  11.995
16597W        W83665  20.270  18.128   3.755
16598W        W83666   3.784   0.436  11.022
16599W        W83667  30.999  35.468   1.767
16600W        W83668  24.641  34.522  11.610
16601W        W83669  25.974  26.684  11.022
16602W        W83670  35.926   0.315   2.418
16603W        W83671   0.267  31.526  12.848
16604W        W83672   0.918  22.631   4.208
16605W        W83673   5.865  33.059  10.971
16606W        W83674  13.133  43.851   0.371
16607W        W83675  34.512   5.365   0.966
16608W        W83676  14.133  11.807   3.255
16609W        W83677  34.469  11.826  14.497
16610W        W83678  29.157  23.094  13.842
16611W        W83679  41.466   8.731  10.525
16612W        W83680  19.585  25.689   4.750
16613W        W83681  16.625  19.170   4.686
16614W        W83682  34.423  44.804   1.712
16615W        W83683   0.960  25.525   0.867
16616W        W83684  14.628  20.766   2.719
16617W        W83685   1.774  36.955  10.573
16618W        W83686   5.359  13.758   2.735
16619W        W83687  37.899  19.748  13.407
16620W        W83688   0.892   0.265   1.763
16621W        W83689   8.224  35.414  10.494
16622W        W83690   5.318   6.364  13.931
16623W        W83691  35.950  36.856  14.335
16624W        W83692  23.113  10.278  10.919
16625W        W83693   2.331  44.756   4.218
16626W        W83694  40.462   5.253  14.861
16627W        W83695  25.611  22.168  11.477
16628W        W83696  15.285   3.268  13.858
16629W        W83697  43.007   8.717   4.710
16630W        W83698  24.671   3.921  13.030
16631W        W83699  26.585  41.295   4.633
16632W        W83700  31.972  28.086  10.120
16633W        W83701  43.461  38.491   3.231
16634W        W83702  37.850   1.944  10.957
16635W        W83703  22.164  16.265   4.828
16636W        W83704  39.314  30.594   0.472
16637W        W83705  22.130   4.402   2.718
16638W        W83706  13.752  38.503   1.852
16639W        W83707   0.742  18.744   2.365
16640W        W83708   7.361  15.769   2.340
16641W        W83709   1.470  22.701   1.386
16642W        W83710  36.593   8.196  11.054
16643W        W83711  22.697  44.868   4.737
16644W        W83712  30.160  31.538   2.754
16645W        W83713  14.815   0.402  12.532
16646W        W83714   9.204   0.893  11.405
16647W        W83715  38.847  23.507  12.826
16648W        W83716  16.274  39.443   4.201
16649W        W83717  37.484  19.091   3.809
16650W        W83718  23.668  43.322  13.016
16651W        W83719   6.221   1.391   4.351
16652W        W83720   6.309  22.622   4.835
16653W        W83721  30.981  37.421  13.472
16654W        W83722  20.108   8.405   1.874
16655W        W83723   7.172   2.260   0.940
16656W        W83724  44.973   7.802   0.353
16657W        W83725  27.154   4.798   0.906
16658W        W83726   5.296  11.688  11.408
16659W        W83727  31.523  27.664  12.850
16660W        W83728  12.752  20.129   2.802
16661W        W83729  22.514   8.277  12.939
16662W        W83730  16.785  32.563   3.695
16663W        W83731  25.695  27.127   4.202
16664W        W83732  32.449  30.586  10.643
16665W        W83733  29.960  40.857   3.210
16666W        W83734   1.858  30.638  14.317
16667W        W83735   9.262   0.932   2.805
16668W        W83736  13.715  39.471   4.828
16669W        W83737   7.399   3.914  12.912
16670W        W83738   6.888  23.162   2.806
16671W        W83739  30.476  39.465  12.978
16672W        W83740  30.082  32.520  13.481
16673W        W83741  22.665  44.404   0.353
16674W        W83742   6.299  31.434  13.359
16675W        W83743  25.555  16.787   0.949
16676W        W83744   7.688   0.865   4.676
16677W        W83745  14.700  38.492  10.460
16678W        W83746  39.014  42.016   0.391
16679W        W83747  12.833  30.122  12.445
16680W        W83748   5.345  32.450   1.427
16681W        W83749  12.732   4.373   4.139
16682W        W83750  38.854  14.651  12.925
16683W        W83751  39.474   6.408  11.041
16684W        W83752  13.655  32.979  13.856
16685W        W83753  35.418  16.661   3.714
16686W        W83754  43.903  44.299   1.844
16687W        W83755   3.362  22.252   2.871
16688W        W83756   1.352  25.979   0.739
16689W        W83757  31.038  36.061   1.855
16690W        W83758  41.327  40.965  11.103
16691W        W83759  43.389  12.676  11.499
16692W        W83760  39.829  12.260  12.434
16693W        W83761   2.389  33.010   0.878
16694W        W83762  43.376  20.221   2.779
16695W        W83763  43.288  19.625   0.840
16696W        W83764  18.256  11.740  12.558
16697W        W83765   4.943  42.904   2.327
16698W        W83766  40.040  18.194  10.601
16699W        W83767  33.000  19.697  11.465
16700W        W83768   6.293  29.060  11.495
16701W        W83769   0.391  18.114   3.188
16702W        W83770  19.705  37.513  14.466
16703W        W83771  22.677  16.272  14.972
16704W        W83772  20.583  28.088  11.033
16705W        W83773   5.744  29.074  14.764
16706W        W83774  36.841  29.131   3.382
16707W        W83775  19.640  33.978  10.900
16708W        W83776  26.087  14.677  10.478
16709W        W83777  26.633  23.590  10.504
16710W        W83778   3.891  22.694  14.787
16711W        W83779   4.772   3.448   1.327
16712W        W83780  22.690   9.837   2.203
16713W        W83781  11.736  16.798   4.643
16714W        W83782  38.543   2.952  12.825
16715W        W83783  22.139  12.161  12.501
16716W        W83784  25.077  32.537  12.054
16717W        W83785   0.838  13.264   1.716
16718W        W83786   9.675   7.792  10.439
16719W        W83787   7.901  31.555   1.918
16720W        W83788  42.907  43.438  11.950
16721W        W83789  22.671  33.560   4.673
16722W        W83790  32.924  17.617   3.274
16723W        W83791  42.301   6.407  11.928
16724W        W83792  43.502  32.454   2.687
16725W        W83793  39.445  26.530   2.852
16726W        W83794  24.705  30.161   2.791
16727W        W83795  13.643  16.161  10.512
16728W        W83796   1.834  36.436   3.214
16729W        W83797   6.228  34.090  14.878
16730W        W83798   0.835  19.247  13.419
16731W        W83799   6.281  20.185  11.492
16732W        W83800  28.178   2.329   4.149
16733W        W83801  32.914   5.332  14.426
16734W        W83802  18.703  40.945   1.441
16735W        W83803  30.443  33.037   4.780
16736W        W83804  25.683  24.694  12.847
16737W        W83805  15.091   8.805  14.394
16738W        W83806  25.976   3.720   0.790
16739W        W83807   2.928   1.748   3.858
16740W        W83808   2.747  34.498  13.946
16741W        W83809  32.521   4.944  11.411
16742W        W83810  21.724  29.075  14.460
16743W        W83811  14.630   6.852   3.298
16744W        W83812   3.937  37.471   1.216
16745W        W83813  44.815  12.827   1.303
16746W        W83814  15.220  37.385   1.281
16747W        W83815  40.536   5.284   2.354
16748W        W83816  35.451  13.130  10.638
16749W        W83817  42.467  42.935  11.974
16750W        W83818   7.292  17.261  13.935
16751W        W83819  13.615  31.550   4.121
16752W        W83820  32.480  39.558   1.222
16753W        W83821   8.397  28.677   1.842
16754W        W83822  11.785  22.600   3.708
16755W        W83823  40.484   3.307   2.289
16756W        W83824  44.475  42.928   1.310
16757W        W83825  30.607   4.241  11.981
16758W        W83826  17.235   8.692   2.182
16759W        W83827   2.844   6.336   0.442
16760W        W83828  24.072  13.215  14.436
16761W        W83829  18.755  32.631   4.305
16762W        W83830  37.448  15.233   4.640
16763W        W83831  10.850  13.746  12.443
16764W        W83832  18.576  42.487   3.788
16765W        W83833  44.874   8.836  10.892
16766W        W83834  30.007  30.531  10.414
16767W        W83835  34.058   9.334   4.736
16768W        W83836  16.177  32.075   1.301
16769W        W83837  15.319   1.302  14.807
16770W        W83838  23.586  37.994  14.768
16771W        W83839   7.333  21.663   3.369
16772W        W83840   7.745  39.541  13.992
16773W        W83841  33.520   2.435  12.411
16774W        W83842  27.584   6.721  13.044
16775W        W83843  39.014  22.090  13.408
16776W        W83844  43.911  30.020  12.373
16777W        W83845   9.690  44.301   4.309
16778W        W83846  44.978  41.439  14.370
16779W        W83847  24.634  12.672   3.692
16780W        W83848  15.753   2.803  14.807
16781W        W83849  11.812  31.459  13.443
16782W        W83850  30.419  22.537  10.415
16783W        W83851  17.074   3.856  12.989
16784W        W83852  35.917  40.473   0.292
16785W        W83853  44.941   4.712   4.340
16786W        W83854  27.539  11.305  13.050
16787W        W83855  43.782  33.569   4.309
16788W        W83856  14.771   5.886   4.282
16789W        W83857  14.279  17.749  12.404
16790W        W83858  13.741  29.069   2.667
16791W        W83859  20.557   0.886   2.180
16792W        W83860  36.564   3.854   3.751
16793W        W83861   1.946  24.147  10.519
16794W        W83862  44.459   2.394  14.472
16795W        W83863   6.914  20.708  11.967
16796W        W83864   3.254   7.774   5.226
16797W        W83865  33.897  32.452  13.894
16798W        W83866  37.054   3.771   2.217
16799W        W83867  21.722  24.651   2.769
16800W        W83868   1.329  39.856   4.720
16801W        W83869  31.094   7.892   2.889
16802W        W83870  23.020  29.474  13.516
16803W        W83871  41.428  13.830   3.780
16804W        W83872  24.041   5.724   2.409
16805W        W83873  27.066  20.215  13.382
16806W        W83874  39.313  41.983   0.453
16807W        W83875  39.006  24.144   3.668
16808W        W83876  17.138  24.615  10.407
16809W        W83877   3.717  42.973  13.352
16810W        W83878  22.732  21.173  12.096
16811W        W83879   5.288  39.050  14.365
16812W        W83880  21.548  41.437   1.445
16813W        W83881  40.408  25.965   4.243
16814W        W83882  19.213   7.762  13.332
16815W        W83883  38.992  13.159   2.251
16816W        W83884  29.455  12.769   2.228
16817W        W83885  44.890  37.559   4.834
16818W        W83886  19.204  13.109  13.961
16819W        W83887  36.040  35.924   3.350
16820W        W83888  28.054  42.434   4.600
16821W        W83889  31.547  16.278   0.339
16822W        W83890  27.960  29.098  11.944
16823W        W83891  18.680  44.427  11.079
16824W        W83892  25.613  26.968  14.763
16825W        W83893  11.300  42.286   3.739
16826W        W83894   8.809  34.926  13.387
16827W        W83895  16.713  14.117  12.969
16828W        W83896  38.871  27.471  14.346
16829W        W83897   0.273  39.335  12.870
16830W        W83898  23.568  19.261   4.657
16831W        W83899  38.905  42.793  14.008
16832W        W83900  21.719  20.154  10.991
16833W        W83901  24.149   0.778   4.134
16834W        W83902   4.220  20.238  13.032
16835W        W83903  11.737  16.610  11.859
16836W        W83904  27.600  10.861  12.429
16837W        W83905  21.053   3.804   0.244
16838W        W83906  37.038   2.448  10.626
16839W        W83907  31.407  13.289  10.410
16840W        W83908   5.728  30.120  12.964
16841W        W83909  18.598  32.100   3.382
16842W        W83910  24.519  17.615   4.263
16843W        W83911   8.275  18.769   4.830
16844W        W83912  18.638  38.945  12.471
16845W        W83913  17.756   5.774  11.008
16846W        W83914  39.943   8.762  11.606
16847W        W83915  29.129  29.455   4.638
16848W        W83916   8.859  44.768  14.930
16849W        W83917   3.882  28.022   1.755
16850W        W83918   8.815  16.800  13.794
16851W        W83919   7.909  33.468  11.988
16852W        W83920   6.287   6.717  14.318
16853W        W83921  13.234  28.142   0.827
16854W        W83922  39.318  19.095   2.669
16855W        W83923  38.856  23.989   4.656
16856W        W83924  17.190  35.416   0.316
16857W        W83925  33.395  36.406  13.533
16858W        W83926   6.903  14.161   1.252
16859W        W83927  22.008  13.350  13.535
16860W        W83928  35.578  40.463  14.430
16861W        W83929  12.313   9.160  13.531
16862W        W83930  27.999  16.095  14.860
16863W        W83931  29.624  20.213  13.472
16864W        W83932  10.148  19.682  11.106
16865W        W83933  20.057  41.475  11.441
16866W        W83934  36.943  11.203  11.511
16867W        W83935   8.791  42.880  12.939
16868W        W83936  24.177  25.487  14.452
16869W        W83937  35.985   7.796  14.910
16870W        W83938   9.715  17.118   0.746
16871W        W83939   0.315  39.544  14.010
16872W        W83940  33.571  37.862  12.504
16873W        W83941   0.856  36.869  12.461
16874W        W83942  44.365  18.730  12.385
16875W        W83943  44.804  25.675   2.357
16876W        W83944  12.762  12.274   3.732
16877W        W83945  36.962  30.498  10.421
16878W        W83946  42.007  25.644  11.485
16879W        W83947  18.153   0.781  10.946
16880W        W83948  23.642  44.931   2.754
16881W        W83949  13.118  42.821  11.484
16882W        W83950  15.783  14.189   3.179
16883W        W83951   9.868   5.873  13.825
16884W        W83952  24.152  36.926   0.795
16885W        W83953  43.934  12.350  13.535
16886W        W83954   8.753  32.923  11.952
16887W        W83955  13.281  19.717  11.963
16888W        W83956   0.944  36.976   0.375
16889W        W83957  30.487  35.909   3.227
16890W        W83958  13.606  17.167   1.715
16891W        W83959  10.729  24.571  13.834
16892W        W83960  14.826  38.023   0.810
16893W        W83961  42.440  23.051   0.933
16894W        W83962  24.489  23.052   3.642
16895W        W83963  28.082  26.999   2.855
16896W        W83964  24.005  19.677   3.780
16897W        W83965  14.268   9.223   0.293
16898W        W83966  44.933   4.830   2.224
16899W        W83967  18.059  12.624  14.954
16900W        W83968  25.579  23.501   1.784
16901W        W83969   9.366  40.957   3.355
16902W        W83970  40.421  35.487  11.482
16903W        W83971   7.730  17.594  10.093
16904W        W83972  18.777  33.968   0.826
16905W        W83973  27.037  30.442   5.220
16906W        W83974  16.308  25.115   1.390
16907W        W83975  12.168   0.941   9.655
16908W        W83976  30.114   0.469   4.281
16909W        W83977  44.276  27.158   4.757
16910W        W83978   9.774   5.764  12.923
16911W        W83979  11.194   7.318  10.991
16912W        W83980  37.562  13.651   4.130
16913W        W83981  16.577  11.857   1.719
16914W        W83982  25.483  36.396  12.517
16915W        W83983  13.675  36.036  10.555
16916W        W83984   3.764  20.196   2.389
16917W        W83985   7.308  15.288  10.437
16918W        W83986  18.611  38.379  14.858
16919W        W83987  12.353  27.065   2.201
16920W        W83988  31.920  16.661   4.598
16921W        W83989  37.020  19.249   4.759
16922W        W83990  37.088  22.026   4.624
16923W        W83991   2.946  32.542  11.466
16924W        W83992  27.101   0.346   5.202
16925W        W83993   0.807  28.158  11.927
16926W        W83994  14.330  21.608  12.893
16927W        W83995  17.073  29.569   0.271
16928W        W83996  18.204  28.161   1.704
16929W        W83997  32.631  13.760  14.945
16930W        W83998  38.541  26.978  10.568
16931W        W83999  37.974  37.509  12.435
16932W        W84000  43.792   4.746   4.693
16933W        W84001  24.020  23.987   0.893
16934W        W84002   8.313  16.807   1.311
16935W        W84003   0.324   5.904   2.261
16936W        W84004   5.921   7.864  13.853
16937W        W84005  28.642  40.471  14.973
16938W        W84006   8.338   1.300   5.208
16939W        W84007  38.916  44.317  11.401
16940W        W84008   1.419   4.273  13.888
16941W        W84009   7.901  28.055   4.760
16942W        W84010   7.813   0.288   3.680
16943W        W84011   1.858  17.067  10.518
16944W        W84012  40.445  34.489   1.703
16945W        W84013  18.270  12.708  14.492
16946W        W84014  25.970  22.078  14.838
16947W        W84015   6.872  15.183   0.805
16948W        W84016  37.081  25.041   3.790
16949W        W84017  41.825  27.653  13.414
16950W        W84018   5.255   3.217   2.394
16951W        W84019  17.131  41.841   2.897
16952W        W84020  14.315  21.653   1.297
16953W        W84021  28.072  19.602  10.153
16954W        W84022  18.151  35.862  12.566
16955W        W84023  12.182  16.146  13.799
16956W        W84024  19.236   5.351   1.887
16957W        W84025  42.988  30.049   1.427
16958W        W84026  40.488  37.065  14.439
16959W        W84027   5.857  40.357  12.861
16960W        W84028  32.976  13.727   1.372
16961W        W84029   5.920  11.310  11.001
16962W        W84030  38.458   4.887  13.030
16963W        W84031  17.088  12.634  10.529
16964W        W84032   3.392   0.410   0.964
16965W        W84033  38.545  20.249  13.498
16966W        W84034  39.353   5.889  13.965
16967W        W84035  18.647  43.865   0.752
16968W        W84036  23.099  31.123   2.357
16969W        W84037  24.545  44.324  11.563
16970W        W84038  20.135  14.180  10.537
16971W        W84039  18.704  33.109   0.412
16972W        W84040  18.186  21.583  10.036
16973W        W84041   7.383  42.938  14.005
16974W        W84042  25.533  28.932  11.515
16975W        W84043  11.814  38.505  13.815
16976W        W84044  26.684  17.087  14.792
16977W        W84045  16.133  28.036   1.290
16978W        W84046   1.882   4.887   2.238
16979W        W84047   2.393  30.120   4.742
16980W        W84048  11.725  19.588   0.271
16981W        W84049  16.223  10.306  13.344
16982W        W84050  30.076  32.418   2.860
16983W        W84051  43.873  15.624   9.964
16984W        W84052  28.653   3.323  12.498
16985W        W84053  22.643   9.807   1.432
16986W        W84054  11.643  36.504   2.681
16987W        W84055  23.037  12.310   3.288
16988W        W84056  34.597  14.135  14.888
16989W        W84057   7.370  40.330  10.639
16990W        W84058  42.799  18.198  10.150
16991W        W84059   4.756  37.067  10.157
16992W        W84060   5.343   0.756  14.761
16993W        W84061  27.455  20.522  13.353
16994W        W84062  12.239   1.361   2.354
16995W        W84063   5.844   4.297   0.848
16996W        W84064   1.814  15.730  11.395
16997W        W84065  38.429  17.698  10.628
16998W        W84066   5.247  17.655  14.290
16999W        W84067  35.486  24.562  11.541
17000W        W84068  16.575   5.343  11.898
17001W        W84069  18.137   5.771  13.506
17002W        W84070  16.743  32.530   3.170
17003W        W84071  11.867  32.101   2.309
17004W        W84072  30.522  37.426  10.996
17005W        W84073  11.167   4.945  14.938
17006W        W84074  26.169  23.704  12.859
17007W        W84075  18.121   3.720   1.733
17008W        W84076   7.383  24.656  13.931
17009W        W84077  41.501  35.998   0.758
17010W        W84078   6.780  42.341   2.752
17011W        W84079  18.242  22.534  13.911
17012W        W84080  38.870   1.842   0.872
17013W        W84081  39.500  26.001  14.458
17014W        W84082  10.147  30.942   3.706
17015W        W84083  18.058  31.429  11.595
17016W        W84084   6.874  32.904  11.596
17017W        W84085  29.106  24.036   3.683
17018W        W84086  43.455  14.810  11.952
17019W        W84087  11.661  41.809   0.829
17020W        W84088   4.859   5.256  11.391
17021W        W84089   0.426   7.190  14.832
17022W        W84090  11.851   7.753  10.420
17023W        W84091  38.953  32.610   4.264
17024W        W84092  13.196  40.989   2.866
17025W        W84093  13.791  25.009   1.353
17026W        W84094  24.683  31.464   4.167
17027W        W84095   4.273  26.510   4.704
17028W        W84096  44.385  32.005   1.718
17029W        W84097   2.868  10.174  14.350
17030W        W84098  16.269  15.236  10.415
17031W        W84099  32.915  11.253  10.575
17032W        W84100  11.181  33.991  13.013
17033W        W84101   3.431  35.955  10.603
17034W        W84102  31.928  15.697   3.766
17035W        W84103  25.699  32.583   4.261
17036W        W84104   2.870   0.842  12.000
17037W        W84105  18.294  22.540  12.077
17038W        W84106  27.580  25.593  14.444
17039W        W84107  24.697  40.421   2.857
17040W        W84108  27.092  15.260   3.256
17041W        W84109   4.917  26.191   0.324
17042W        W84110  41.836  12.815  11.536
17043W        W84111  19.568  13.644  11.436
17044W        W84112   5.692  21.203   2.246
17045W        W84113  44.779  40.049   3.651
17046W        W84114  26.075  42.310  14.375
17047W        W84115  15.192  37.925   2.812
17048W        W84116  44.457  11.281   0.438
17049W        W84117  10.170   5.353  13.509
17050W        W84118  34.930  19.062   3.829
17051W        W84119  14.233  28.571   2.274
17052W        W84120   5.195  12.270  12.070
17053W        W84121  40.932   0.813  13.532
17054W        W84122  29.138  26.592  10.541
17055W        W84123  19.695  41.970   0.424
17056W        W84124  43.440  44.505  14.884
17057W        W84125   1.469  25.077  13.839
17058W        W84126  26.092  24.606  11.944
17059W        W84127  30.519  40.960  10.556
17060W        W84128  25.617  27.619   4.817
17061W        W84129  36.533   0.819  10.630
17062W        W84130  27.021  25.183  11.546
17063W        W84131  11.240  20.627  10.427
17064W        W84132  20.747  28.524  13.378
17065W        W84133  36.889   3.344   3.643
17066W        W84134   9.290   9.281   0.808
17067W        W84135  33.911  14.787   2.286
17068W        W84136  10.289  11.862   3.696
17069W        W84137  23.198  29.521   3.819
17070W        W84138  41.537  14.256   0.481
17071W        W84139  26.096   7.225   3.350
17072W        W84140  20.753  13.837   0.389
17073W        W84141  35.038   3.867   4.724
17074W        W84142  16.163  14.313   1.438
17075W        W84143  43.417  39.028  11.476
17076W        W84144  38.967  44.821   4.647
17077W        W84145   4.796   2.272   2.767
17078W        W84146  27.983   8.867  11.542
17079W        W84147   1.782  44.289  11.879
17080W        W84148   4.737  16.182  14.353
17081W        W84149  38.374  33.563  12.516
17082W        W84150  13.280  18.620   2.205
17083W        W84151  17.109  18.293  13.828
17084W        W84152  10.686  42.829   1.727
17085W        W84153   3.301   2.303  11.500
17086W        W84154   1.376   4.219  12.539
17087W        W84155  23.545   8.300   0.268
17088W        W84156  42.450   0.289   1.731
17089W        W84157   0.456  13.788  13.368
17090W        W84158   0.883  22.511  13.963
17091W        W84159  32.448  37.571   2.314
17092W        W84160  31.906  12.361   3.181
17093W        W84161  36.986   7.279  13.908
17094W        W84162  19.042  20.694  14.957
17095W        W84163  34.090  16.162  14.925
17096W        W84164  39.971  44.898  10.473
17097W        W84165  35.558  29.663   1.799
17098W        W84166  14.255  33.560  13.423
17099W        W84167  21.151  24.090   2.254
17100W        W84168  44.271  28.594   4.315
17101W        W84169  25.502  14.630   2.285
17102W        W84170   5.776  16.809   5.254
17103W        W84171  15.284  11.846   5.186
17104W        W84172   7.196   9.251   2.346
17105W        W84173  15.246  19.560  14.970
17106W        W84174  24.664  33.970   4.193
17107W        W84175   4.803  13.729   2.197
17108W        W84176  10.696  42.905   2.186
17109W        W84177  14.329  14.615   0.886
17110W        W84178   9.762  41.893   4.159
17111W        W84179  12.136  42.994  11.058
17112W        W84180  40.406  20.127  10.500
17113W        W84181  13.307  42.430   1.888
17114W        W84182   3.812   5.413  12.951
17115W        W84183   2.850  34.007   1.920
17116W        W84184   9.211  15.737  13.485
17117W        W84185  40.911  44.412  12.351
17118W        W84186  39.007   0.413   0.795
17119W        W84187  10.668  34.501  13.835
17120W        W84188  27.673   8.190   1.827
17121W        W84189  16.616  44.882  10.445
17122W        W84190  20.536   5.816   1.790
17123W        W84191  22.047  17.725   4.687
17124W        W84192  10.815   0.958   2.195
17125W        W84193   0.915  34.460   0.264
17126W        W84194   1.285   4.893   1.742
17127W        W84195  19.643  29.036  11.934
17128W        W84196   0.379   8.876  14.961
17129W        W84197  17.068  22.223   5.159
17130W        W84198  11.267   3.217  12.565
17131W        W84199  33.540  22.737   3.211
17132W        W84200   1.815  13.259   3.222
17133W        W84201  29.459   8.286   2.719
17134W        W84202  24.018   4.840   3.264
17135W        W84203   5.840  16.806  14.828
17136W        W84204  12.811  16.102  11.530
17137W        W84205  11.710  25.628  11.113
17138W        W84206  21.708  10.635   3.273
17139W        W84207   3.316  25.471   3.334
17140W        W84208  23.607  40.969   1.235
17141W        W84209  40.484  44.895   1.875
17142W        W84210  15.719  26.161   3.757
17143W        W84211   7.388  39.552   2.765
17144W        W84212  32.616  21.133   1.774
17145W        W84213  22.208  37.342   4.815
17146W        W84214  13.824  22.545  12.562
17147W        W84215  23.171  34.388  10.483
17148W        W84216  12.263  19.624   1.848
17149W        W84217  26.660  26.529   3.835
17150W        W84218  39.556  14.238  14.386
17151W        W84219  10.824  34.908   3.722
17152W        W84220  32.566  16.690  10.549
17153W        W84221   9.336  31.622  13.524
17154W        W84222   9.695   4.871   2.415
17155W        W84223   4.384  16.209   3.282
17156W        W84224   9.223  22.054  14.920
17157W        W84225  35.393   2.342  12.436
17158W        W84226  34.016   0.349  10.481
17159W        W84227  34.541  18.594   4.699
17160W        W84228  31.945  13.640   2.781
17161W        W84229  16.678   3.233  10.596
17162W        W84230  28.159  44.308  14.342
17163W        W84231  29.154  19.733  11.425
17164W        W84232  30.449  35.070  10.529
17165W        W84233  15.654  34.401  13.527
17166W        W84234  34.538  35.988  11.124
17167W        W84235   5.399  32.519  12.516
17168W        W84236  34.436   9.740   3.386
17169W        W84237  26.970  43.388  10.957
17170W        W84238  44.006  10.844   4.122
17171W        W84239   2.425  19.122   3.690
17172W        W84240  30.528  24.511   1.710
17173W        W84241  40.987  17.199  11.592
17174W        W84242   9.692  27.994   2.678
17175W        W84243  42.023  22.650   1.781
17176W        W84244  21.538  29.533   0.451
17177W        W84245  43.013  32.045  11.499
17178W        W84246  39.013  10.305  13.943
17179W        W84247  32.599  35.962   1.290
17180W        W84248  21.123  17.682   3.703
17181W        W84249  13.274  33.554   0.824
17182W        W84250  41.489  32.113  12.498
17183W        W84251  18.070   0.880   4.351
17184W        W84252  38.391  31.981  10.594
17185W        W84253   0.798  34.416   4.161
17186W        W84254  32.991  16.751   4.145
17187W        W84255  14.289  25.522  11.009
17188W        W84256   7.353   4.233   3.260
17189W        W84257  31.035  32.921   4.785
17190W        W84258   0.944   6.809  12.919
17191W        W84259  10.265  14.791  13.895
17192W        W84260  38.965   2.885  12.019
17193W        W84261   6.697   1.479  13.534
17194W        W84262  23.646  30.132   4.740
17195W        W84263  12.770   3.441  10.961
17196W        W84264  13.772  23.500  12.472
17197W        W84265  18.234  18.574  14.915
17198W        W84266  12.645  42.948  13.021
17199W        W84267  19.564  16.095   1.806
17200W        W84268  22.023  34.585  13.049
17201W        W84269  12.749  29.517  14.948
17202W        W84270  32.921  32.050  12.365
17203W        W84271   6.866  24.156   1.359
17204W        W84272  13.609  37.408   4.147
17205W        W84273  36.868  35.075   4.321
17206W        W84274  15.200  20.739  13.053
17207W        W84275  12.156  35.599   3.791
17208W        W84276  20.046  15.672   9.947
17209W        W84277   4.827   0.772  11.047
17210W        W84278  31.912   1.850  14.973
17211W        W84279  33.938   1.391   0.945
17212W        W84280   5.738  35.924   4.299
17213W        W84281  14.278  15.197  11.540
17214W        W84282  26.521  26.465  10.619
17215W        W84283  38.075   1.883   3.154
17216W        W84284  33.525  16.126   3.819
17217W        W84285  31.018  20.132  14.816
17218W        W84286  10.659   2.272  13.462
17219W        W84287  30.031  30.471   1.376
17220W        W84288  41.400  41.481   3.741
17221W        W84289  29.989  19.649  10.997
17222W        W84290   8.778  24.081   3.304
17223W        W84291  38.421  39.941  11.590
17224W        W84292  35.081  31.118   4.743
17225W        W84293  36.475  20.176  10.994
17226W        W84294  35.889  35.446  10.924
17227W        W84295  33.083  14.154   0.381
17228W        W84296  23.559  14.340   2.334
17229W        W84297   5.336  44.271   2.791
17230W        W84298  42.405  41.529   0.744
17231W        W84299  22.715  38.535  12.537
17232W        W84300  18.653  12.300   3.683
17233W        W84301  16.210  22.143  14.513
17234W        W84302  14.228  37.562   0.738
17235W        W84303  44.282  17.706  10.406
17236W        W84304  37.405  40.458   0.441
17237W        W84305   5.775  29.029  10.515
17238W        W84306  11.369  39.879  13.031
17239W        W84307  32.932  31.417  12.399
17240W        W84308  32.595  42.928  12.389
17241W        W84309  31.914  16.617  13.400
17242W        W84310  33.885  10.254   2.179
17243W        W84311   6.385  25.030   1.920
17244W        W84312  18.087  32.072  10.566
17245W        W84313  28.059  11.776   2.701
17246W        W84314   8.346  44.310  14.790
17247W        W84315  40.846  35.913  13.342
17248W        W84316  18.283  14.275  10.431
17249W        W84317  38.357  14.257  11.027
17250W        W84318   3.955  12.855   0.902
17251W        W84319  20.177  30.967   3.805
17252W        W84320  25.149  39.811  11.578
17253W        W84321  37.924  17.739  11.947
17254W        W84322   8.317  24.613   2.409
17255W        W84323   2.781  37.582   2.810
17256W        W84324  20.261   0.824  14.984
17257W        W84325  30.161  31.060  14.337
17258W        W84326   2.844  17.663  12.902
17259W        W84327  31.639  30.007   4.821
17260W        W84328  24.125  18.113  12.399
17261W        W84329  44.319  20.621  13.007
17262W        W84330  44.006  27.952   2.883
17263W        W84331  22.220  11.235   1.898
17264W        W84332  22.679   1.389  13.852
17265W        W84333  29.496  12.838  13.409
17266W        W84334  18.773   9.774   1.759
17267W        W84335   3.728  10.289   1.893
17268W        W84336  29.028  12.783   4.335
17269W        W84337  26.676  15.266   3.745
17270W        W84338  28.128   4.760   4.121
17271W        W84339  40.977  20.543  14.958
17272W        W84340  19.729   5.386  14.356
17273W        W84341  20.258  42.847  11.065
17274W        W84342  44.467  30.960   3.265
17275W        W84343   1.757  13.694   0.800
17276W        W84344  43.977  29.988  10.458
17277W        W84345  31.613  39.982  11.431
17278W        W84346  41.318  17.251   4.182
17279W        W84347  43.451  24.655   2.680
17280W        W84348  27.079  35.102  13.980
17281W        W84349   2.831  23.635   4.777
17282W        W84350  28.610  15.252   3.812
17283W        W84351  26.153   7.332  14.490
17284W        W84352  19.706   7.317   1.911
17285W        W84353  35.982  42.423   1.288
17286W        W84354  18.183  15.246   1.710
17287W        W84355  36.916  26.485   4.271
17288W        W84356   3.755  16.809  11.606
17289W        W84357   2.358   5.346  12.450
17290W        W84358  20.202  36.465   4.350
17291W        W84359  41.474  36.398  13.546
17292W        W84360  12.294  10.319   3.805
17293W        W84361   4.822  44.359   4.725
17294W        W84362  37.372  40.307   5.112
17295W        W84363   9.346   9.319  13.523
17296W        W84364  27.167  16.725  14.514
17297W        W84365  30.524  18.589  14.996
17298W        W84366  21.745  11.627  12.351
17299W        W84367  20.714  31.549   3.808
17300W        W84368  26.647  12.620  13.841
17301W        W84369  42.439  14.818  10.918
17302W        W84370  22.519  23.176  11.860
17303W        W84371  32.455   6.272  10.961
17304W        W84372  34.083  38.561  14.357
17305W        W84373  34.015  18.727  14.395
17306W        W84374  27.640   7.837   3.336
17307W        W84375   6.918  26.498  14.472
17308W        W84376  42.883  25.470   4.648
17309W        W84377  18.769  13.670   1.244
17310W        W84378   2.394  32.517   0.844
17311W        W84379   6.785  26.619  13.888
17312W        W84380  17.113  30.097  13.803
17313W        W84381  10.789  12.699   0.749
17314W        W84382  28.941  30.016  14.499
17315W        W84383  21.751  16.159  14.502
17316W        W84384  14.768  16.120  13.415
17317W        W84385  38.412  29.643   2.339
17318W        W84386  27.151   6.696   3.242
17319W        W84387   0.896  30.502  11.929
17320W        W84388  25.054  38.033   2.359
17321W        W84389  31.565   4.830  10.603
17322W        W84390  44.823   0.491   2.198
17323W        W84391  13.778  11.146   0.922
17324W        W84392  22.187  15.621  13.362
17325W        W84393  22.229  31.622   1.278
17326W        W84394   7.398   3.453  11.892
17327W        W84395   1.410  44.952  12.577
17328W        W84396  22.511  41.786  12.490
17329W        W84397  24.725  21.028  13.968
17330W        W84398  15.766  30.114  11.545
17331W        W84399  20.030   8.394  14.892
17332W        W84400  32.970  16.749   2.193
17333W        W84401  44.437  40.508  12.540
17334W        W84402  20.226  27.605   3.272
17335W        W84403  10.221  19.271   2.187
17336W        W84404  43.000  23.509   0.768
17337W        W84405  41.916  27.949   4.809
17338W        W84406  10.291  42.483  10.586
17339W        W84407  24.605   9.814  11.981
17340W        W84408   2.263  39.995   2.376
17341W        W84409  33.613  43.008  13.051
17342W        W84410  30.035   4.364  11.529
17343W        W84411  31.489  41.855   1.277
17344W        W84412  44.439   4.210   2.254
17345W        W84413  37.453  13.748   3.174
17346W        W84414  24.574  17.779   2.362
17347W        W84415  28.940  19.719   1.763
17348W        W84416  26.991  18.742   2.374
17349W        W84417  26.123  43.441   3.733
17350W        W84418  29.091   3.716   2.245
17351W        W84419   1.808  34.111  14.393
17352W        W84420  36.379  12.698  11.892
17353W        W84421  15.730  22.598   3.709
17354W        W84422   9.810  34.496  12.836
17355W        W84423   2.389  31.940  14.453
17356W        W84424  39.556  27.180  11.517
17357W        W84425  33.409  23.108   2.850
17358W        W84426  15.724  13.347   2.857
17359W        W84427  10.181  27.624   4.624
17360W        W84428  27.568  11.648  11.932
17361W        W84429  11.815  25.050  13.324
17362W        W84430   4.850  11.829   0.755
17363W        W84431   5.255  13.691  12.911
17364W        W84432   0.931  22.059   1.725
17365W        W84433  25.032   8.395  12.975
17366W        W84434  42.520  41.991  12.989
17367W        W84435  44.410  24.079   4.237
17368W        W84436   0.494   8.184  11.380
17369W        W84437  16.240  20.749  11.013
17370W        W84438  39.524  34.412  12.889
17371W        W84439  33.036   6.189   1.225
17372W        W84440  37.398  42.794  10.899
17373W        W84441  39.480  36.861  12.398
17374W        W84442  40.846   6.709  11.099
17375W        W84443  37.362  18.179  11.929
17376W        W84444  16.216   1.975  10.420
17377W        W84445   0.899  22.690   4.735
17378W        W84446  24.136  21.104   3.658
17379W        W84447  29.498   0.325   3.331
17380W        W84448   7.354  12.612  11.099
17381W        W84449   1.402  24.119  12.866
17382W        W84450  15.590  27.010   3.288
17383W        W84451  26.555   2.433  10.584
17384W        W84452   5.918  27.517   1.383
17385W        W84453   1.337  17.758   0.727
17386W        W84454  31.424   9.668  12.495
17387W        W84455  20.211  39.316   0.476
17388W        W84456   5.722  24.498  14.434
17389W        W84457  34.561  10.713   3.231
17390W        W84458  38.919  30.414  10.115
17391W        W84459  44.822  37.843   1.852
17392W        W84460   5.905  11.701   0.834
17393W        W84461   9.235  37.076  10.630
17394W        W84462  15.651   0.975  10.932
17395W        W84463   6.857  38.536   4.134
17396W        W84464  11.825  13.781   0.278
17397W        W84465  27.110  24.512   1.303
17398W        W84466  19.727  27.067   0.831
17399W        W84467   9.746  29.056   2.748
17400W        W84468  15.142  39.338   0.760
17401W        W84469  35.552  38.829  11.378
17402W        W84470  12.663  14.675   4.625
17403W        W84471  42.321  19.687  14.934
17404W        W84472   2.284   6.826   1.346
17405W        W84473   1.735  25.019   0.425
17406W        W84474   0.788  26.201   3.166
17407W        W84475  22.546  23.665   2.772
17408W        W84476  10.747  35.946   0.257
17409W        W84477  12.855  35.976  13.411
17410W        W84478  31.990   4.882   1.878
17411W        W84479   1.421  38.820  12.370
17412W        W84480  20.265  34.567  10.524
17413W        W84481  33.015  31.589  13.338
17414W        W84482  13.768  15.183  10.446
17415W        W84483  38.503  33.077   1.709
17416W        W84484  25.595  36.437   4.334
17417W        W84485  35.471  13.716  14.998
17418W        W84486  43.391   8.314   3.801
17419W        W84487  16.142  27.079  12.559
17420W        W84488   5.221   1.914  12.983
17421W        W84489  30.553  39.520   2.755
17422W        W84490  15.774   0.397   3.853
17423W        W84491   9.183  34.568  13.320
17424W        W84492  21.081  37.350  10.510
17425W        W84493  36.442   6.821  12.342
17426W        W84494  10.811   2.279   2.899
17427W        W84495  42.782  22.029   1.821
17428W        W84496  13.302  14.215   2.696
17429W        W84497  26.561  18.684  13.470
17430W        W84498  29.004   6.337  12.883
17431W        W84499  25.500  35.068  12.516
17432W        W84500  30.652  21.565  12.401
17433W        W84501  33.620  12.738  11.396
17434W        W84502  13.755  18.601  14.420
17435W        W84503  13.617  42.865   3.334
17436W        W84504  29.461  41.345  12.055
17437W        W84505  38.860   2.260  10.610
17438W        W84506  44.320  43.989  11.505
17439W        W84507  44.307  28.560  10.439
17440W        W84508   9.342  10.798  13.909
17441W        W84509   5.391   5.407  11.114
17442W        W84510  26.654   3.332  12.055
17443W        W84511  32.545  36.028  12.356
17444W        W84512  30.553  41.828   2.285
17445W        W84513   8.781  21.582  13.470
17446W        W84514  34.578  26.671  13.890
17447W        W84515  34.954   2.338  12.889
17448W        W84516   3.776  18.066   4.631
17449W        W84517  39.383  44.959   1.229
17450W        W84518  10.329  26.080  12.442
17451W        W84519  44.885  27.074  14.281
17452W        W84520  23.110  13.292  12.375
17453W        W84521  40.356  35.015   2.705
17454W        W84522  40.987   4.909  10.602
17455W        W84523  31.646  17.706   1.851
17456W        W84524  43.907   1.807   2.247
17457W        W84525  28.521   9.241  11.520
17458W        W84526  23.120  35.483   0.356
17459W        W84527  18.249  33.394   0.943
17460W        W84528  15.800  41.451  11.979
17461W        W84529   2.790  26.158  12.010
17462W        W84530  18.603   9.155  10.976
17463W        W84531  19.703   2.760  11.025
17464W        W84532   6.365  31.483   3.370
17465W        W84533  10.805  28.546   0.242
17466W        W84534  30.424  31.971   0.443
17467W        W84535  19.043   1.899  12.981
17468W        W84536  22.088  16.756  11.084
17469W        W84537   3.749  26.067  11.953
17470W        W84538   1.870  19.261   0.434
17471W        W84539  31.962  13.790  12.372
17472W        W84540   4.897  30.478  10.508
17473W        W84541  10.311  13.302  14.514
17474W        W84542  30.624   9.752   1.308
17475W        W84543  44.353  37.037  12.001
17476W        W84544  19.282  21.183   3.202
17477W        W84545   6.303  28.061  13.044
17478W        W84546  44.970  39.951  10.513
17479W        W84547   3.921  33.130   1.325
17480W        W84548  27.577  14.192   0.870
17481W        W84549  14.323  41.028  14.495
17482W        W84550  43.890   1.803  13.916
17483W        W84551  38.882  18.748  14.769
17484W        W84552  18.602   4.862   0.283
17485W        W84553  28.013  42.414   2.694
17486W        W84554  42.305  27.052   3.684
17487W        W84555  40.969  41.352   1.279
17488W        W84556  33.115  42.439   4.691
17489W        W84557  40.320  19.756  14.354
17490W        W84558   5.308  36.390   4.783
17491W        W84559   4.222   7.807   1.357
17492W        W84560  24.152  19.207  11.386
17493W        W84561  39.904  32.485  11.428
17494W        W84562  18.618   1.265  10.606
17495W        W84563  38.561  41.875   0.251
17496W        W84564  28.599  36.016  12.450
17497W        W84565  31.475  15.588  12.953
17498W        W84566   9.384  17.110   1.724
17499W        W84567  42.986   3.779   3.295
17500W        W84568  27.670  40.845  10.587
17501W        W84569  12.841  19.253  10.973
17502W        W84570  33.999   9.204   1.307
17503W        W84571  16.571  30.566  10.423
17504W        W84572  23.500  21.097   0.746
17505W        W84573  44.356  37.490  10.097
17506W        W84574  35.884  33.025   0.735
17507W        W84575  31.904  44.851   1.854
17508W        W84576  31.959  31.144  14.353
17509W        W84577  26.200  32.105  14.973
17510W        W84578  30.487  41.368   1.228
17511W        W84579  19.735   2.812  12.882
17512W        W84580  29.591  12.293   2.831
17513W        W84581  34.483  36.397  14.358
17514W        W84582  16.212   6.922   4.315
17515W        W84583  37.448   0.470   1.427
17516W        W84584   6.361  41.451  13.054
17517W        W84585  10.795   9.262   0.256
17518W        W84586   2.908   2.797  14.981
17519W        W84587   0.355   4.875  11.915
17520W        W84588   2.386  30.464  12.006
17521W        W84589  26.603   0.302  14.852
17522W        W84590  27.570  12.833   3.867
17523W        W84591  10.818  15.135  14.333
17524W        W84592  40.437  38.367   0.910
17525W        W84593  39.002  25.038   3.363
17526W        W84594  14.703  36.962  13.331
17527W        W84595  30.985   2.385   4.216
17528W        W84596   5.706  30.525  14.862
17529W        W84597  15.246   2.402  12.547
17530W        W84598   7.806  43.384   2.771
17531W        W84599  24.075   5.383  13.060
17532W        W84600  15.280  24.491   0.822
17533W        W84601  21.586  24.479  10.636
17534W        W84602  32.122  25.023  12.504
17535W        W84603  39.321  29.581  10.457
17536W        W84604  18.643  20.699   2.408
17537W        W84605  26.177  19.113  14.819
17538W        W84606  37.493   0.466   1.803
17539W        W84607  17.098  25.970  10.621
17540W        W84608  37.438  17.601   4.131
17541W        W84609  43.781  35.430   1.867
17542W        W84610   0.257  18.601   1.771
17543W        W84611  42.334  15.798  11.039
17544W        W84612  41.513  13.679  12.910
17545W        W84613  27.623  26.161  11.904
17546W        W84614  12.837   3.312  13.915
17547W        W84615  26.090   0.437   3.799
17548W        W84616  36.419  40.501  13.907
17549W        W84617  36.858  26.166   0.408
17550W        W84618   6.708  30.531  14.839
17551W        W84619  23.617  25.143   2.791
17552W        W84620   9.261  39.954   2.846
17553W        W84621  28.951   2.948  14.851
17554W        W84622  40.356  37.380  13.547
17555W        W84623   3.253   9.873   2.350
17556W        W84624   5.348   4.787   1.799
17557W        W84625  42.025  27.688  14.943
17558W        W84626   6.740  37.942  14.321
17559W        W84627  19.616  12.652   1.713
17560W        W84628  22.188  31.925  11.071
17561W        W84629  39.453  23.075   1.291
17562W        W84630  31.007  21.041   3.713
17563W        W84631  30.018   8.210  13.513
17564W        W84632  13.737  33.545   3.648
17565W        W84633  33.078  28.956  11.890
17566W        W84634   1.263  36.884  13.350
17567W        W84635   8.710  14.639  14.276
17568W        W84636  28.674  17.196   4.154
17569W        W84637  24.586  27.168  11.566
17570W        W84638  19.240  19.753   1.364
17571W        W84639  17.218  19.135   0.932
17572W        W84640   9.644  25.675   2.762
17573W        W84641   3.776  11.711   0.247
17574W        W84642  35.441  43.486   2.819
17575W        W84643  32.931  33.561   0.296
17576W        W84644   5.757  10.158   3.314
17577W        W84645  17.771  41.533  11.956
17578W        W84646   5.781  44.807  13.949
17579W        W84647  22.647  29.475  11.556
17580W        W84648  10.185   6.198   5.214
17581W        W84649  22.575  37.999  11.893
17582W        W84650  40.543   2.760  11.907
17583W        W84651   6.282  44.444  11.912
17584W        W84652  17.584  23.998  14.399
17585W        W84653  20.223  40.885   2.409
17586W        W84654  15.112  19.214   4.119
17587W        W84655   8.752   7.331   4.656
17588W        W84656  28.551  14.237  12.065
17589W        W84657  22.610  36.933   1.808
17590W        W84658   6.278  43.511   2.196
17591W        W84659  44.769  18.712  12.010
17592W        W84660  21.628  14.769   2.191
17593W        W84661  27.136  29.997   2.396
17594W        W84662   6.361  36.924   0.820
17595W        W84663  32.530  20.762  13.020
17596W        W84664  36.349  27.972  10.600
17597W        W84665   6.797   7.887  13.502
17598W        W84666  29.109  41.343   1.876
17599W        W84667   9.827  33.061   4.166
17600W        W84668  34.064  44.315   2.268
17601W        W84669   2.883   4.798  12.087
17602W        W84670  31.061  41.337   3.375
17603W        W84671  19.709  42.357   0.960
17604W        W84672  16.654   4.428   2.404
17605W        W84673   1.816  19.081   4.765
17606W        W84674   4.752   2.335  13.919
17607W        W84675  19.214  31.637  13.896
17608W        W84676   7.292  43.982  13.994
17609W        W84677   0.468  14.768  10.625
17610W        W84678  10.695  13.600   4.599
17611W        W84679  29.658  23.609   1.903
17612W        W84680   2.446  30.983   4.226
17613W        W84681   5.222  44.460  14.326
17614W        W84682  11.671   4.745   4.324
17615W        W84683  38.540  28.126  11.594
17616W        W84684  12.164  36.543   3.230
17617W        W84685   5.873   2.939   4.347
17618W        W84686  14.743  43.818   4.817
17619W        W84687  16.701  34.876  10.475
17620W        W84688  42.864  28.451  14.287
17621W        W84689  12.165  14.239  11.995
17622W        W84690  15.654  31.962  13.015
17623W        W84691   6.700  14.133   2.307
17624W        W84692   8.225  35.006  12.837
17625W        W84693   1.734  21.086  12.351
17626W        W84694  26.141  20.178  11.863
17627W        W84695  38.526  17.605  12.576
17628W        W84696  18.083  40.903  14.910
17629W        W84697   2.393   9.679   2.368
17630W        W84698  19.603  44.963   0.312
17631W        W84699  33.626  33.913  13.351
17632W        W84700  38.543   0.441   4.338
17633W        W84701  21.149   2.433  11.944
17634W        W84702  39.818  36.566  14.338
17635W        W84703   7.300  26.485   1.861
17636W        W84704   3.332  22.030  13.532
17637W        W84705   9.386  40.468   4.696
17638W        W84706   5.223  31.610  12.079
17639W        W84707   7.904  11.677   4.620
17640W        W84708   5.439  23.199   3.669
17641W        W84709  16.659  35.489  10.606
17642W        W84710  22.149  23.577  11.027
17643W        W84711  37.417   4.785  14.933
17644W        W84712  22.112  21.674  11.464
17645W        W84713   7.786   5.339   0.909
17646W        W84714   2.262  41.429  12.891
17647W        W84715  14.121  10.252   2.225
17648W        W84716  17.145  13.222   0.289
17649W        W84717   0.299   9.797  12.014
17650W        W84718   0.833   0.420   4.772
17651W        W84719   1.884  19.208   1.296
17652W        W84720  20.554  42.971  12.526
17653W        W84721  15.250  36.494  11.604
17654W        W84722  15.772  44.279  12.957
17655W        W84723  40.331  41.800   0.468
17656W        W84724  40.353  17.133   5.135
17657W        W84725  18.656  34.490  11.042
17658W        W84726  22.169  11.170   2.773
17659W        W84727  32.989  42.844  11.052
17660W        W84728  41.352  12.682  14.004
17661W        W84729  14.782   3.844  10.605
17662W        W84730  36.040  27.489   4.124
17663W        W84731  44.432   9.315   2.753
17664W        W84732   5.767  15.585   0.857
17665W        W84733  35.498  23.654   1.806
17666W        W84734  26.462  42.005  12.029
17667W        W84735  24.705  25.097   3.336
17668W        W84736  40.005   8.381  11.912
17669W        W84737  27.143  26.064   2.765
17670W        W84738  12.833  11.842   3.840
17671W        W84739  27.567  44.860   1.835
17672W        W84740  20.558  16.571  11.918
17673W        W84741  17.614   6.799   0.342
17674W        W84742  28.931  29.937   2.185
17675W        W84743  30.918  16.150  12.573
17676W        W84744  15.149  24.481   3.825
17677W        W84745   3.352   0.804  10.917
17678W        W84746   3.426   8.834  14.445
17679W        W84747  44.962  23.129   2.193
17680W        W84748  31.477  42.334  10.926
17681W        W84749  16.804   7.225  12.851
17682W        W84750  31.952  24.006  12.992
17683W        W84751  27.470  38.969   1.703
17684W        W84752   2.839  20.573   0.872
17685W        W84753  31.082  32.969   1.398
17686W        W84754  15.186   0.790  12.380
17687W        W84755   6.396  11.856  10.568
17688W        W84756   0.903  34.878  10.620
17689W        W84757  14.799  33.107  10.517
17690W        W84758  14.655  12.679  11.380
17691W        W84759   5.305  16.613   1.338
17692W        W84760  38.917  10.774  14.959
17693W        W84761   1.445  29.506  11.052
17694W        W84762  43.845  34.601   0.466
17695W        W84763  26.961  30.011  11.448
17696W        W84764  30.936  25.078  11.899
17697W        W84765  12.146  16.580   1.873
17698W        W84766   1.888  16.572   0.930
17699W        W84767  37.897   8.182   2.391
17700W        W84768  26.198  43.899   2.250
17701W        W84769   5.777   1.913   3.689
17702W        W84770  16.258  36.025  11.437
17703W        W84771  35.940  19.779  13.541
17704W        W84772  43.992  39.390  10.557
17705W        W84773  12.802  32.071  10.552
17706W        W84774  27.452   3.315  13.392
17707W        W84775   3.764   1.963  13.349
17708W        W84776  18.722  30.934   4.705
17709W        W84777  38.887  23.580   3.357
17710W        W84778  23.603  11.197   1.297
17711W        W84779   6.793  32.038  11.058
17712W        W84780  43.371   5.271   3.696
17713W        W84781  34.993  30.150  14.338
17714W        W84782   3.426  25.123   2.706
17715W        W84783  44.265   3.418  13.500
17716W        W84784  17.252  35.860  12.927
17717W        W84785  42.794   8.329   3.750
17718W        W84786  40.985  36.502  14.461
17719W        W84787  25.631   1.913  13.058
17720W        W84788  12.691  30.659  14.402
17721W        W84789  42.881   8.352  11.888
17722W        W84790  42.494  35.996   4.120
17723W        W84791  17.572  40.837  14.865
17724W        W84792  36.058  42.987  11.986
17725W        W84793   5.224  44.492   4.134
17726W        W84794  41.905  11.273  13.430
17727W        W84795  30.936  28.145  10.895
17728W        W84796  23.020  24.999  12.067
17729W        W84797  25.675  22.225  10.995
17730W        W84798   9.801  27.136  10.534
17731W        W84799   0.430  27.612   2.193
17732W        W84800  39.890   9.880   2.277
17733W        W84801  32.498  31.579   2.781
17734W        W84802   6.893   8.248   4.337
17735W        W84803  39.979   2.965  10.557
17736W        W84804  42.852  41.324   2.738
17737W        W84805  25.676   3.832  11.371
17738W        W84806   8.660   7.392  12.473
17739W        W84807  26.126   7.286   3.868
17740W        W84808  29.544  12.265   1.704
17741W        W84809   9.709  40.886  14.944
17742W        W84810  18.158  17.604  11.905
17743W        W84811   4.773  37.830   2.816
17744W        W84812  41.462  20.598   2.295
17745W        W84813  31.935   3.776  11.557
17746W        W84814  11.639  30.052  10.972
17747W        W84815   6.279  40.951   3.223
17748W        W84816   6.385  32.545  10.452
17749W        W84817  15.737  24.190   2.787
17750W        W84818  44.269  24.587  11.875
17751W        W84819  13.261   4.890   1.404
17752W        W84820  33.075  17.121  10.471
17753W        W84821   0.977  22.120   3.152
17754W        W84822   2.934  43.349   0.923
17755W        W84823   7.870  14.327   3.686
17756W        W84824  22.101  12.280  13.819
17757W        W84825  28.616  19.177  11.022
17758W        W84826  43.454   0.291   0.283
17759W        W84827  22.567  16.688  14.784
17760W        W84828  20.637  19.660   0.260
17761W        W84829   0.261  32.434   4.601
17762W        W84830  26.163  38.830  10.514
17763W        W84831  21.690  44.894   2.393
17764W        W84832  29.631   6.722   4.211
17765W        W84833  44.807  36.845   3.643
17766W        W84834  28.157  24.997   2.673
17767W        W84835  19.137   8.750   4.343
17768W        W84836  25.515  18.762  12.009
17769W        W84837  19.556  17.567   1.353
17770W        W84838  39.464  43.492  10.556
17771W        W84839   3.923   1.913   4.824
17772W        W84840  18.160  42.957   2.331
17773W        W84841   1.966  30.964   0.317
17774W        W84842  42.776   0.767  12.513
17775W        W84843  27.497  36.951  10.578
17776W        W84844   8.185  26.987  12.553
17777W        W84845   2.267  32.564  13.029
17778W        W84846   9.880  33.880   4.173
17779W        W84847  13.253  42.914  13.356
17780W        W84848  34.550   9.209   4.607
17781W        W84849  17.564  37.860  11.519
17782W        W84850  10.751   3.257  14.803
17783W        W84851  44.953  38.054   2.386
17784W        W84852  18.278  17.154   4.160
17785W        W84853  19.627  32.455   4.186
17786W        W84854   9.349  32.505   4.782
17787W        W84855  17.299  20.225  13.992
17788W        W84856  35.943   5.215  12.540
17789W        W84857  30.945   0.954   0.742
17790W        W84858   8.795  12.299  14.393
17791W        W84859  19.168  37.064  12.065
17792W        W84860  34.471  11.861   0.353
17793W        W84861  16.123  36.430  13.516
17794W        W84862  10.741  38.879   0.917
17795W        W84863  32.586  20.607   1.896
17796W        W84864  33.941  39.467   0.256
17797W        W84865  28.058  41.974  12.526
17798W        W84866  42.872   6.190  13.450
17799W        W84867  44.890  21.065  12.084
17800W        W84868   1.402  41.924   3.226
17801W        W84869  40.355  41.478   4.604
17802W        W84870  24.581  27.013   3.264
17803W        W84871  22.104  13.614   0.353
17804W        W84872   7.401  33.981  12.370
17805W        W84873  33.907  14.169  12.083
17806W        W84874   9.769  20.653   1.337
17807W        W84875   0.407  39.979  11.579
17808W        W84876  20.559  38.339   9.660
17809W        W84877   0.969   6.823  13.923
17810W        W84878  27.067   8.887   0.936
17811W        W84879  31.058   5.240   2.733
17812W        W84880   6.844   3.866  10.499
17813W        W84881  39.352  32.004   1.268
17814W        W84882   3.890  13.842   2.209
17815W        W84883  14.240  35.501  11.926
17816W        W84884  32.631   7.347  14.902
17817W        W84885  32.898  44.802  10.523
17818W        W84886   7.693  41.975   3.206
17819W        W84887  36.849  41.351   0.322
17820W        W84888  23.193  39.355  13.050
17821W        W84889   0.352  35.512  13.538
17822W        W84890  34.369  36.462   2.873
17823W        W84891  25.114  40.963  14.311
17824W        W84892  21.521  42.477   3.681
17825W        W84893  10.297  14.218  10.548
17826W        W84894  17.207  43.270  13.346
17827W        W84895  29.116  36.894  12.486
17828W        W84896  20.544  41.417  13.505
17829W        W84897  25.033  19.229  14.824
17830W        W84898   1.370  44.495   4.701
17831W        W84899  14.097  10.717   1.922
17832W        W84900  41.373  10.239   0.425
17833W        W84901  36.512  38.911   3.669
17834W        W84902   4.938  19.179  14.021
17835W        W84903  11.856  26.075  11.111
17836W        W84904  34.985  21.734  10.491
17837W        W84905   3.258   5.258  12.545
17838W        W84906   3.932  29.004  11.402
17839W        W84907  34.932  12.147   3.737
17840W        W84908  34.101  28.147  13.796
17841W        W84909  44.962  37.069   2.329
17842W        W84910  33.962   6.710  10.915
17843W        W84911  18.162  31.078  11.564
17844W        W84912  23.149  19.040  12.840
17845W        W84913   9.720  41.506  11.037
17846W        W84914   3.299   6.780   3.317
17847W        W84915  18.663  37.531  12.567
17848W        W84916  33.601   4.413  12.040
17849W        W84917  33.582  30.145   1.341
17850W        W84918  41.464  30.936   3.826
17851W        W84919  36.895  12.695  11.497
17852W        W84920  28.136  37.367   2.742
17853W        W84921  40.991  41.796  12.937
17854W        W84922  24.593  36.467   0.266
17855W        W84923  32.577  23.524  11.870
17856W        W84924  36.028   4.228   0.929
17857W        W84925  14.152  28.175   0.906
17858W        W84926  15.210  16.579  10.543
17859W        W84927  19.749   4.782  11.510
17860W        W84928  15.223  27.607  12.506
17861W        W84929  19.133  29.486  13.378
17862W        W84930  21.511  14.335   3.323
17863W        W84931   5.801  11.678   1.357
17864W        W84932   3.861  41.954   4.226
17865W        W84933  33.558   6.751   1.364
17866W        W84934  13.257  39.470  14.998
17867W        W84935   8.173   2.948  10.429
17868W        W84936  11.700  40.460   4.123
17869W        W84937  30.609  30.163   1.439
17870W        W84938  39.021  42.450  12.052
17871W        W84939  20.096   8.900  13.889
17872W        W84940  40.816  42.924   0.259
17873W        W84941   4.915  22.240   2.865
17874W        W84942  27.195  26.549  14.812
17875W        W84943  15.749  33.547  11.586
17876W        W84944   7.715   0.908  10.542
17877W        W84945   3.302  24.018   2.809
17878W        W84946  26.967  30.478  10.416
17879W        W84947   0.941   9.826  12.370
17880W        W84948   5.429   6.866  11.530
17881W        W84949   9.348  22.687   4.247
17882W        W84950  38.957  40.504   3.670
17883W        W84951  33.933  39.988  12.940
17884W        W84952  44.463   8.349   1.393
17885W        W84953  14.144  41.495  14.495
17886W        W84954  43.865   8.858  13.366
17887W        W84955  35.862  22.119  13.943
17888W        W84956  21.202  17.076   0.881
17889W        W84957   5.851  33.506   3.359
17890W        W84958  32.043  30.656  11.959
17891W        W84959  14.122  20.089  13.429
17892W        W84960   0.743  25.186  12.997
17893W        W84961   4.435  28.123  14.970
17894W        W84962  18.247  37.359  12.860
17895W        W84963  22.696  32.092   0.283
17896W        W84964   6.793  43.502  11.939
17897W        W84965  40.382   3.787  14.863
17898W        W84966  23.223  44.755   4.342
17899W        W84967  11.260   2.465   1.866
17900W        W84968   6.882   6.392   0.321
17901W        W84969   4.714  41.792  14.278
17902W        W84970  30.021  34.521   2.209
17903W        W84971  33.104  11.802   0.437
17904W        W84972   1.462  44.480   0.731
17905W        W84973  33.602   7.811   3.324
17906W        W84974  15.309  31.049  14.823
17907W        W84975  22.238  17.588   0.441
17908W        W84976  38.409   5.409   1.883
17909W        W84977  13.138   7.791   1.279
17910W        W84978  10.340  17.147  13.446
17911W        W84979  11.650  27.163   0.730
17912W        W84980  29.009  16.247  12.577
17913W        W84981  36.048  10.156  12.347
17914W        W84982  43.494   7.776  12.451
17915W        W84983   8.290   0.938   9.938
17916W        W84984  22.023  13.302  14.444
17917W        W84985  10.702  41.818  13.804
17918W        W84986  19.622  12.263  10.576
17919W        W84987   6.376   9.308   0.775
17920W        W84988   0.762  33.481  10.628
17921W        W84989   2.805  20.626   4.685
17922W        W84990  11.730  42.345   3.359
17923W        W84991  30.633  16.269   1.835
17924W        W84992  11.668  31.118   3.158
17925W        W84993  26.997  44.278   0.306
17926W        W84994  12.738   7.762  14.461
17927W        W84995  10.850  19.770   0.292
17928W        W84996  15.317  31.484  11.423
17929W        W84997  35.423  20.172  12.035
17930W        W84998  39.822  29.610  13.038
17931W        W84999  10.237  19.238   1.743
17932W        W85000  13.297  31.426  11.467
17933W        W85001  31.072  34.517  12.355
17934W        W85002  27.088   9.383   0.828
17935W        W85003   8.202   9.200   1.427
17936W        W85004   5.269  34.975  10.454
17937W        W85005  26.964   1.873  14.966
17938W        W85006  27.124  15.326   0.336
17939W        W85007  22.170  11.648   0.253
17940W        W85008  21.550  11.793   2.333
17941W        W85009  30.134  15.159  11.964
17942W        W85010  28.040  20.196   4.711
17943W        W85011  25.515  14.234  14.957
17944W        W85012  23.034   0.778  13.010
17945W        W85013  37.531  42.503  14.829
17946W        W85014   8.665  11.259  14.483
17947W        W85015  37.977  37.547  11.554
17948W        W85016   1.328  23.058   3.742
17949W        W85017  25.500   7.189   9.923
17950W        W85018  11.655  29.107  11.005
17951W        W85019  28.975  31.917  12.490
17952W        W85020  32.588   5.887  10.929
17953W        W85021  36.468  21.248   1.444
17954W        W85022   9.889   9.855   3.715
17955W        W85023   9.734  10.161   1.864
17956W        W85024  39.873  33.918  13.918
17957W        W85025  14.733  26.050  14.875
17958W        W85026  17.575  28.587   2.779
17959W        W85027  34.864   2.325   4.693
17960W        W85028   7.227  24.704  12.566
17961W        W85029  12.826  31.142   3.712
17962W        W85030  42.420  41.915   1.871
17963W        W85031  29.088  35.004   3.652
17964W        W85032  11.170   6.214  11.397
17965W        W85033  40.915   7.391   4.716
17966W        W85034   0.294   3.434   4.245
17967W        W85035   6.899  35.000  12.577
17968W        W85036   7.782  27.967   0.959
17969W        W85037  29.110  26.090  12.518
17970W        W85038  39.526  12.730   2.771
17971W        W85039  30.046  19.115  12.024
17972W        W85040  21.535  26.086  12.932
17973W        W85041  32.534  19.774   1.723
17974W        W85042   8.879  14.787  12.933
17975W        W85043  15.726   6.351  10.606
17976W        W85044  18.063   8.747   4.818
17977W        W85045   3.403   4.379  10.559
17978W        W85046   4.326  38.830   3.690
17979W        W85047  21.198  17.580  10.570
17980W        W85048  21.685  12.806   0.899
17981W        W85049  41.035  19.721  11.898
17982W        W85050  11.328  28.662  13.865
17983W        W85051  23.636   9.695  12.559
17984W        W85052  10.160  14.788  10.600
17985W        W85053   5.727  29.146  11.942
17986W        W85054  14.651  20.075  11.040
17987W        W85055  31.923   8.181  11.093
17988W        W85056  42.446  24.700   1.826
17989W        W85057   6.703  20.675  10.642
17990W        W85058  27.010  21.743   0.468
17991W        W85059   1.360  42.968  11.939
17992W        W85060   6.725   2.320  14.387
17993W        W85061  30.588  40.018   4.808
17994W        W85062  14.254  32.944   3.848
17995W        W85063   3.925  37.070  13.880
17996W        W85064   6.699   4.804   1.880
17997W        W85065  13.733   9.395   3.224
17998W        W85066  25.676   8.752  10.642
17999W        W85067   5.355  25.562  13.883
18000W        W85068   2.442  30.511  13.366
18001W        W85069   6.828  36.041  11.108
18002W        W85070  43.376   2.370   3.346
18003W        W85071  14.238  32.069   4.675
18004W        W85072  27.551   8.287   0.866
18005W        W85073  28.556  34.087  14.942
18006W        W85074  36.552  23.720   2.250
18007W        W85075   4.863  30.946  12.478
18008W        W85076  21.538   0.920  12.039
18009W        W85077  25.480  22.112   1.894
18010W        W85078  34.870   9.159  12.011
18011W        W85079  33.583   8.247   3.305
18012W        W85080  14.118   4.372   4.219
18013W        W85081  29.478  25.077   0.344
18014W        W85082  40.970  38.894   2.828
18015W        W85083  10.825  43.017  12.356
18016W        W85084   0.374   7.872  12.529
18017W        W85085  25.539  36.586   3.864
18018W        W85086  17.140   6.800  13.993
18019W        W85087  38.848   0.401   5.289
18020W        W85088  23.499  40.037  14.431
18021W        W85089  27.612  29.052   2.902
18022W        W85090   7.185   6.416  12.905
18023W        W85091  21.513  11.727  10.455
18024W        W85092  43.975   3.304  10.989
18025W        W85093  12.300  10.366   1.731
18026W        W85094  25.988   2.723  12.534
18027W        W85095  39.410  26.993  11.908
18028W        W85096   1.908  10.183  10.923
18029W        W85097  29.486   8.161   4.220
18030W        W85098  29.623  23.686  12.418
18031W        W85099  40.972  20.259  13.907
18032W        W85100  29.142  33.619   1.830
18033W        W85101   8.801  31.977   0.385
18034W        W85102  13.124  20.196   3.197
18035W        W85103  17.280  38.886  11.872
18036W        W85104  20.155  19.268   3.281
18037W        W85105  19.117  14.339  11.975
18038W        W85106  20.541  41.418   4.634
18039W        W85107  42.028  10.139   9.995
18040W        W85108  33.006   5.721   2.813
18041W        W85109  39.958   5.285   3.766
18042W        W85110   2.449   1.934  11.390
18043W        W85111  11.645  21.521   2.903
18044W        W85112  14.751  43.424  10.577
18045W        W85113  19.615  10.639   2.405
18046W        W85114  34.007  42.890   3.295
18047W        W85115  14.123  41.390  13.541
18048W        W85116  21.251  44.344   3.630
18049W        W85117  28.136  11.229  12.349
18050W        W85118   7.308  34.036   4.820
18051W        W85119  36.514   2.348   2.298
18052W        W85120  20.180  44.405  10.035
18053W        W85121  39.065   7.305  12.477
18054W        W85122  26.623   8.357   4.758
18055W        W85123  26.001  37.913   3.748
18056W        W85124  23.652   3.727  14.466
18057W        W85125  40.958  42.956  11.857
18058W        W85126  11.301  20.531  11.545
18059W        W85127  43.931  10.171   2.699
18060W        W85128  27.599  44.909  11.077
18061W        W85129  28.038  10.150   4.810
18062W        W85130   2.910   5.903  12.560
18063W        W85131  28.566   0.916  14.006
18064W        W85132   4.821  29.465  14.282
18065W        W85133   1.951   1.759   0.800
18066W        W85134  44.832  38.919  10.054
18067W        W85135   6.857  22.685  12.401
18068W        W85136   1.798   9.165   2.878
18069W        W85137  21.604  19.648   4.221
18070W        W85138  29.080  22.159   0.746
18071W        W85139  42.428  24.604  10.617
18072W        W85140   9.866  37.350   1.250
18073W        W85141  22.525   1.906   3.179
18074W        W85142  31.555   1.955   1.367
18075W        W85143  21.127  42.522  11.007
18076W        W85144  28.523  13.167   1.303
18077W        W85145  40.544  32.088  10.146
18078W        W85146   3.389   8.336   0.266
18079W        W85147   4.895  32.420   4.291
18080W        W85148   8.687  39.020  12.515
18081W        W85149   7.683  24.654  12.383
18082W        W85150  21.076  27.072  12.377
18083W        W85151  26.510  29.099   3.859
18084W        W85152   2.238  12.640  11.014
18085W        W85153  20.079  22.144   4.716
18086W        W85154   2.906  37.917   2.894
18087W        W85155  34.968  28.952   0.851
18088W        W85156  41.520   3.830  11.550
18089W        W85157  34.412  17.148  13.958
18090W        W85158  31.966  41.516   1.895
18091W        W85159  20.119   2.855  14.322
18092W        W85160   6.717  38.507   2.264
18093W        W85161  44.339  32.407  10.454
18094W        W85162   3.446  14.274  13.824
18095W        W85163   0.376   4.842  10.052
18096W        W85164   9.226  18.763  14.806
18097W        W85165  18.133   8.895   3.297
18098W        W85166  38.063   1.253  12.029
18099W        W85167   7.771   2.397   4.685
18100W        W85168  38.849  35.915  12.954
18101W        W85169  12.719   6.822   2.304
18102W        W85170   6.265  32.458  12.087
18103W        W85171   4.389   9.156  14.015
18104W        W85172   4.227  31.605  13.338
18105W        W85173  10.315  10.160   4.643
18106W        W85174  37.371  41.297  14.492
18107W        W85175  33.451  19.147  13.935
18108W        W85176  22.087  43.811   2.703
18109W        W85177  27.494  12.140   0.332
18110W        W85178  14.244  29.113  10.515
18111W        W85179  25.042  20.752  14.797
18112W        W85180  41.453  19.693  13.405
18113W        W85181  43.818  41.952  14.396
18114W        W85182  35.927  31.496   1.849
18115W        W85183  14.319  41.526  12.368
18116W        W85184   7.693  28.025   2.666
18117W        W85185   4.767  43.018  12.372
18118W        W85186  32.137   8.731   4.782
18119W        W85187  22.997  34.512   1.229
18120W        W85188  26.632  34.570   1.806
18121W        W85189   4.931  17.704   2.819
18122W        W85190  25.712   5.372   1.746
18123W        W85191  42.391  43.999  13.464
18124W        W85192   7.685  28.047   9.964
18125W        W85193  23.112   5.229   4.668
18126W        W85194  37.407   4.781   1.357
18127W        W85195  43.354  35.491   0.881
18128W        W85196   0.761  24.676   4.141
18129W        W85197  30.022   4.730  10.609
18130W        W85198  38.453   5.860   0.794
18131W        W85199  44.309  39.059  11.917
18132W        W85200  11.815  40.442  10.434
18133W        W85201  38.355  11.682   2.374
18134W        W85202  15.742  23.049   4.288
18135W        W85203  29.444  36.983   0.391
18136W        W85204  42.502  20.715   0.375
18137W        W85205  12.288  37.058  11.564
18138W        W85206  11.731  10.209   1.403
18139W        W85207  20.041  26.115  14.961
18140W        W85208   7.265  43.421  12.386
18141W        W85209  43.360  37.473  13.022
18142W        W85210  38.369  43.451   2.186
18143W        W85211  28.020  30.552   1.722
18144W        W85212   0.433   8.374   2.700
18145W        W85213  25.599  28.656   2.259
18146W        W85214  14.225  36.876   2.213
18147W        W85215  18.613  13.214   5.196
18148W        W85216  15.200  33.591  14.776
18149W        W85217  17.136  32.107  11.908
18150W        W85218  31.127  36.360   3.167
18151W        W85219  14.142  22.052   3.663
18152W        W85220  12.306  11.644  10.467
18153W        W85221  37.906  32.496  12.020
18154W        W85222   5.725  25.654  11.606
18155W        W85223  44.310  41.942   0.448
18156W        W85224  13.345  36.444  11.863
18157W        W85225  34.953  35.574  11.610
18158W        W85226  34.514  38.435  10.508
18159W        W85227  30.622  20.174  12.509
18160W        W85228  40.868   2.787  11.473
18161W        W85229  43.386   6.844   3.156
18162W        W85230  36.023   7.379  12.864
18163W        W85231   9.737  24.090  14.424
18164W        W85232   3.750  10.637   1.271
18165W        W85233  42.356  18.266   3.262
18166W        W85234  24.026  42.474  14.349
18167W        W85235   8.863  44.350  11.951
18168W        W85236  33.507   4.895  12.083
18169W        W85237  16.641  10.207   1.894
18170W        W85238   3.866  17.075  13.041
18171W        W85239   6.335  14.237  11.458
18172W        W85240  26.188  41.369   4.779
18173W        W85241   7.823  38.406   1.815
18174W        W85242  38.362  21.042  14.849
18175W        W85243  24.108  42.457  11.484
18176W        W85244  17.079  34.074   1.906
18177W        W85245  22.144  44.320  14.922
18178W        W85246  40.451  39.917   1.743
18179W        W85247  22.515   8.894  12.559
18180W        W85248  35.018  32.556  13.503
18181W        W85249  36.045   7.378  11.905
18182W        W85250  36.425  21.579  12.885
18183W        W85251  40.990  12.667   3.720
18184W        W85252  27.956  39.033   4.120
18185W        W85253  39.839  22.742  14.012
18186W        W85254  37.411   1.367   2.281
18187W        W85255   0.388  31.425   5.260
18188W        W85256  36.373  22.999  13.330
18189W        W85257  38.466   2.472   0.405
18190W        W85258   2.425   1.323   3.214
18191W        W85259  23.582   5.390  13.522
18192W        W85260  24.626   3.819   3.378
18193W        W85261  19.698   9.651  14.345
18194W        W85262  35.070  33.495  13.051
18195W        W85263  28.929   0.266   4.130
18196W        W85264  35.898  21.034   2.895
18197W        W85265  43.828  20.703   4.215
18198W        W85266  34.609  43.889  14.000
18199W        W85267  34.964   9.284   1.435
18200W        W85268  29.655   8.696   0.848
18201W        W85269  16.720   3.868   0.346
18202W        W85270  33.556  36.080  10.444
18203W        W85271   5.238   3.233   3.181
18204W        W85272  20.574   0.278   2.868
18205W        W85273  11.275  43.271   4.648
18206W        W85274   4.309   6.371  13.332
18207W        W85275  31.081  15.174   1.451
18208W        W85276  24.655   9.767   3.754
18209W        W85277   2.771  40.952  11.862
18210W        W85278  41.499  23.193   1.226
18211W        W85279  15.772  18.602   0.421
18212W        W85280  18.637  29.951   1.732
18213W        W85281  38.365   2.925   1.885
18214W        W85282  13.253  23.150  11.949
18215W        W85283  43.824   4.925   2.184
18216W        W85284  15.107  43.969   4.665
18217W        W85285  30.419  28.038  12.006
18218W        W85286   8.381  32.110   3.360
18219W        W85287   8.811  25.130   0.345
18220W        W85288  25.013   4.290   2.256
18221W        W85289  30.447  32.636   3.765
18222W        W85290  21.124  43.478  12.902
18223W        W85291  20.709  20.266  12.515
18224W        W85292   4.228  44.289   1.336
18225W        W85293  17.796   9.759   4.605
18226W        W85294  19.693  22.030  13.998
18227W        W85295   3.414  24.576  12.894
18228W        W85296  43.416   8.835   5.137
18229W        W85297  19.191  14.271   2.773
18230W        W85298  24.598  31.035   4.239
18231W        W85299  17.181  33.566  12.049
18232W        W85300  19.615  22.679   2.224
18233W        W85301  39.358  33.973  11.414
18234W        W85302   9.289   3.794   4.721
18235W        W85303  36.498   6.787  14.313
18236W        W85304  28.122  10.156  13.338
18237W        W85305  26.551  12.239   3.770
18238W        W85306  13.113   1.971  14.927
18239W        W85307   6.793   8.742  13.393
18240W        W85308   7.679  25.614  13.468
18241W        W85309  19.198  35.108   1.870
18242W        W85310  37.031  19.197   1.796
18243W        W85311  28.437  44.468   2.361
18244W        W85312   5.911  11.330   1.360
18245W        W85313  29.042  29.651   0.422
18246W        W85314  22.726  26.641  13.936
18247W        W85315  10.296  31.570  13.513
18248W        W85316  25.129  14.605  14.936
18249W        W85317  30.955  36.514   3.699
18250W        W85318  28.090  17.218   1.217
18251W        W85319  23.662  35.978  14.482
18252W        W85320  11.189  32.616   2.778
18253W        W85321  44.476  32.900   4.797
18254W        W85322  42.002  38.913   1.878
18255W        W85323  22.715  13.183   5.168
18256W        W85324  39.979  21.719  12.569
18257W        W85325  23.157  22.172   4.135
18258W        W85326  43.792   0.958  13.869
18259W        W85327  33.503  20.082   2.389
18260W        W85328  29.944  38.357  11.477
18261W        W85329  33.017  21.191  12.003
18262W        W85330  17.717  27.979   0.889
18263W        W85331  17.229  34.919   1.312
18264W        W85332   1.345  26.963   3.849
18265W        W85333   4.796   5.922  13.307
18266W        W85334  26.969   9.724   0.401
18267W        W85335  28.994  24.994   0.736
18268W        W85336  16.287  41.959   3.344
18269W        W85337  13.670   3.912  13.038
18270W        W85338   3.812   1.321  10.562
18271W        W85339  13.109  23.124   3.740
18272W        W85340   9.202  20.264  12.932
18273W        W85341   3.783  42.304   4.295
18274W        W85342  35.432   6.427  10.550
18275W        W85343  26.588  39.506  13.454
18276W        W85344  25.575  24.657   0.750
18277W        W85345  28.175  19.734  11.016
18278W        W85346  30.538   7.874   4.598
18279W        W85347  37.877  21.633   1.285
18280W        W85348  44.301  20.655   2.331
18281W        W85349  26.990  29.562  12.471
18282W        W85350  23.104  29.069  14.372
18283W        W85351  33.096  15.780  12.564
18284W        W85352  21.660  32.075  14.471
18285W        W85353  18.243  12.684  13.817
18286W        W85354  17.720  19.259  12.044
18287W        W85355   3.728  15.820  11.061
18288W        W85356  29.509  34.383  13.042
18289W        W85357  22.148   3.391   3.165
18290W        W85358  15.578  11.192   1.820
18291W        W85359  10.633   1.804   4.143
18292W        W85360  40.985  40.524  11.465
18293W        W85361  44.418   0.921   4.331
18294W        W85362  16.260  18.099   4.163
18295W        W85363  20.673  41.989   1.384
18296W        W85364  36.092   4.410   3.722
18297W        W85365  38.465  18.208   4.638
18298W        W85366   0.343   3.742  11.892
18299W        W85367  20.115  40.481   3.749
18300W        W85368  12.262  40.391   1.840
18301W        W85369   8.846  43.343   2.312
18302W        W85370  24.066  21.566  10.455
18303W        W85371  19.131  31.013   2.357
18304W        W85372  35.023  15.230  11.937
18305W        W85373  32.922   6.255  11.949
18306W        W85374  12.796  40.820   1.244
18307W        W85375  18.550  24.594  10.610
18308W        W85376  41.933  37.561   3.693
18309W        W85377  17.158  31.031   2.758
18310W        W85378  29.509  41.505   0.417
18311W        W85379  43.908  22.019  11.045
18312W        W85380  26.691  17.266   4.309
18313W        W85381  30.595  21.535  10.505
18314W        W85382  18.129  39.560  11.575
18315W        W85383  19.271  42.911  13.323
18316W        W85384   8.757  31.548   2.261
18317W        W85385  29.630  42.786   2.746
18318W        W85386   9.251  24.132  11.528
18319W        W85387  18.130  28.075   2.238
18320W        W85388  44.791  11.830  14.806
18321W        W85389  12.734  20.624   0.287
18322W        W85390  25.520   8.889   3.385
18323W        W85391  26.685   8.198  12.494
18324W        W85392  10.279  35.369  11.031
18325W        W85393  16.148  25.003   3.714
18326W        W85394  34.069   9.751  12.939
18327W        W85395  17.162  28.017  11.971
18328W        W85396  43.978  25.701   3.654
18329W        W85397  33.595  22.715  10.548
18330W        W85398  37.348  34.882  14.901
18331W        W85399  38.842  38.069   2.665
18332W        W85400  42.968   6.282   4.806
18333W        W85401  44.998  39.525  12.921
18334W        W85402  15.681  36.948   4.317
18335W        W85403  19.249  22.683   2.861
18336W        W85404  44.894  33.888   1.772
18337W        W85405  44.268  26.622   3.310
18338W        W85406  44.837   8.716   2.206
18339W        W85407  39.937   1.834  11.507
18340W        W85408  14.212  29.492  12.068
18341W        W85409  39.358  43.879   4.837
18342W        W85410  13.321  18.292   2.344
18343W        W85411  12.741  36.904  14.274
18344W        W85412   2.427  40.446  13.044
18345W        W85413  43.797  26.106   4.735
18346W        W85414  12.256  36.477  14.386
18347W        W85415  26.154  17.691  12.432
18348W        W85416  28.954  31.137   3.645
18349W        W85417   5.437  26.019  13.448
18350W        W85418  14.215  43.443  13.019
18351W        W85419   4.413  39.821   4.647
18352W        W85420  40.443  24.696  14.825
18353W        W85421   5.920  27.532   0.289
18354W        W85422   0.425  35.009   2.403
18355W        W85423  15.166  31.014   2.199
18356W        W85424   5.302   2.757  14.415
18357W        W85425   7.361  42.478   1.840
18358W        W85426  19.039   7.333  12.366
18359W        W85427  32.961  10.641  11.111
18360W        W85428  39.836   8.683   3.663
18361W        W85429  41.533  32.536  12.933
18362W        W85430  23.630  34.441  12.478
18363W        W85431  16.572  16.567  11.071
18364W        W85432  12.304  28.982   2.346
18365W        W85433  26.175  38.404  10.988
18366W        W85434  14.259  44.418   4.289
18367W        W85435  32.132   2.225   0.271
18368W        W85436   8.326   2.941  12.420
18369W        W85437  21.750   9.682  12.023
18370W        W85438  22.571  43.412  14.384
18371W        W85439   7.322   9.820   0.278
18372W        W85440  35.361   2.463  13.024
18373W        W85441  35.553  36.444  11.555
18374W        W85442   6.426  25.123  11.038
18375W        W85443  16.315  16.799  14.473
18376W        W85444   8.293  39.848  13.369
18377W        W85445  24.173   8.361   0.872
18378W        W85446  16.761  23.520  14.285
18379W        W85447   0.755   8.222   4.117
18380W        W85448  18.238  11.784   4.138
18381W        W85449   7.402  36.408  13.034
18382W        W85450  26.123  10.207  14.338
18383W        W85451   4.899   7.670   2.236
18384W        W85452  15.724   6.831   4.203
18385W        W85453  17.194  34.561   0.753
18386W        W85454   6.197  39.506   2.303
18387W        W85455  20.038  21.615  12.014
18388W        W85456  33.521   1.268  14.415
18389W        W85457   2.405  40.015   1.918
18390W        W85458  31.640  26.077   3.757
18391W        W85459  23.225  13.123   4.674
18392W        W85460  44.431  29.624   2.389
18393W        W85461  40.337  18.634   0.291
18394W        W85462   2.385   2.323  13.369
18395W        W85463  43.336  13.759   4.640
18396W        W85464  43.871  35.589   3.699
18397W        W85465   7.743  39.529   4.685
18398W        W85466  29.428  25.580  13.886
18399W        W85467   9.686  37.894  13.446
18400W        W85468   4.876   8.225   2.813
18401W        W85469  26.953  31.936   1.384
18402W        W85470  24.696  36.501   4.740
18403W        W85471  14.175  34.925   2.413
18404W        W85472  37.560   9.744   4.711
18405W        W85473  14.616  22.027  10.585
18406W        W85474   0.254   5.820   3.379
18407W        W85475  33.611  12.748   0.839
18408W        W85476  15.633  39.915  13.979
18409W        W85477   1.777  13.623  11.034
18410W        W85478  25.974  18.626   4.246
18411W        W85479  43.022   1.329   2.682
18412W        W85480  21.251  25.130   0.455
18413W        W85481   9.320  16.312  12.981
18414W        W85482  22.171   6.426   1.437
18415W        W85483  28.504  11.337  12.437
18416W        W85484  16.231   1.375   1.910
18417W        W85485  22.502  41.866   3.346
18418W        W85486  20.670  22.527  11.947
18419W        W85487  38.532  15.196   1.373
18420W        W85488  29.985   4.710  13.825
18421W        W85489  21.056  36.077  10.478
18422W        W85490  30.100  30.569  11.514
18423W        W85491  41.909  23.020  14.285
18424W        W85492  10.296  23.734   5.134
18425W        W85493  23.181   1.732  14.925
18426W        W85494  26.667  37.539  13.424
18427W        W85495  36.934  22.533   3.644
18428W        W85496  44.368  42.486  12.355
18429W        W85497  35.035  42.836   2.394
18430W        W85498  24.507  10.792   1.257
18431W        W85499  19.668   4.731  13.909
18432W        W85500  20.682  23.087  13.309
18433W        W85501   2.908  20.273   4.269
18434W        W85502  24.166  22.660  12.532
18435W        W85503  26.470  32.514  13.907
18436W        W85504   7.303   0.835   1.365
18437W        W85505  29.488  21.027  10.513
18438W        W85506  34.610   2.738  12.477
18439W        W85507  31.981   4.204   3.380
18440W        W85508  24.127   0.884   4.626
18441W        W85509  24.715   0.932  12.060
18442W        W85510  28.979  26.555   2.399
18443W        W85511   9.774   1.445   3.354
18444W        W85512  27.152   8.743  14.318
18445W        W85513  12.305  42.429   3.306
18446W        W85514  35.926   5.368  11.070
18447W        W85515   3.885  40.333  11.563
18448W        W85516  28.563  45.000  13.433
18449W        W85517  23.092   9.800   4.289
18450W        W85518  19.122  13.736  12.052
18451W        W85519  15.626  28.128   4.287
18452W        W85520  42.429  20.084   0.259
18453W        W85521  12.332  30.009  12.896
18454W        W85522  29.069  33.094   0.822
18455W        W85523  38.836  25.107   3.641
18456W        W85524   9.318  10.226   4.305
18457W        W85525  35.891   6.278   1.286
18458W        W85526  39.559   3.846   3.284
18459W        W85527  15.292  35.075  12.946
18460W        W85528   5.763  22.619   0.759
18461W        W85529  21.524  35.359   1.757
18462W        W85530  10.279  43.949   1.736
18463W        W85531  33.950   5.826   1.390
18464W        W85532  22.658  40.811   4.614
18465W        W85533  24.086   3.349  12.097
18466W        W85534  41.995  21.579  12.951
18467W        W85535  34.945  44.334  10.444
18468W        W85536  27.116  20.163   3.273
18469W        W85537  37.002  16.701   1.738
18470W        W85538  16.253  14.330  12.960
18471W        W85539  42.998  24.108   5.133
18472W        W85540  33.483  19.583  12.388
18473W        W85541  20.060  24.163  12.921
18474W        W85542  28.956  18.167   4.238
18475W        W85543  44.987   0.960  12.401
18476W        W85544  18.723  19.191  11.401
18477W        W85545  21.194  12.824  13.461
18478W        W85546  11.807  35.598   0.388
18479W        W85547  16.644   2.291  13.958
18480W        W85548  39.990  36.560   3.635
18481W        W85549  23.232  31.990   2.245
18482W        W85550  44.789   2.732  11.995
18483W        W85551  19.553  19.193  13.344
18484W        W85552  24.035   1.843   3.847
18485W        W85553   9.372  31.092  14.922
18486W        W85554  36.013   8.404  13.889
18487W        W85555  33.921   5.414  11.924
18488W        W85556  21.203  26.516  14.982
18489W        W85557  29.523  40.908  13.965
18490W        W85558   4.925  25.654  10.572
18491W        W85559   7.244  28.041  12.944
18492W        W85560   4.873  16.686   2.236
18493W        W85561  20.134  27.618  11.068
18494W        W85562  34.459  20.542   0.888
18495W        W85563  16.577  20.154   2.865
18496W        W85564  39.398  33.507   2.376
18497W        W85565   6.286  33.920  13.327
18498W        W85566  42.485  19.547  13.876
18499W        W85567  16.586  39.853  11.104
18500W        W85568  16.731  15.732   4.312
18501W        W85569   5.335  24.658  12.576
18502W        W85570  17.643  19.140  14.462
18503W        W85571   8.380   1.862  12.479
18504W        W85572  21.119  25.081   2.798
18505W        W85573   2.280  21.104  10.555
18506W        W85574  44.839  32.445   3.264
18507W        W85575   6.238  22.501  10.992
18508W        W85576  41.472  22.746   0.295
18509W        W85577   9.879   3.243   3.760
18510W        W85578  36.346  27.023   3.641
18511W        W85579  27.679   2.318   3.655
18512W        W85580  37.366  22.188  10.456
18513W        W85581  26.622   3.349  11.428
18514W        W85582  19.184  34.066  12.498
18515W        W85583  23.570   4.412   0.429
18516W        W85584  15.814  44.413   3.675
18517W        W85585   4.842  18.266  14.319
18518W        W85586  12.166   6.885   1.778
18519W        W85587   5.850  11.312  13.929
18520W        W85588  38.382   9.148   3.634
18521W        W85589   2.299  17.061   3.689
18522W        W85590  31.133   4.320   0.937
18523W        W85591  22.059  39.435  13.868
18524W        W85592  22.199  16.097   0.266
18525W        W85593   2.360  26.600  12.897
18526W        W85594  28.456  18.194  13.934
18527W        W85595  23.240  14.284   2.377
18528W        W85596  10.754  20.608   4.263
18529W        W85597  11.842  11.643   2.369
18530W        W85598  36.883  37.570  14.485
18531W        W85599  30.482  44.386   1.757
18532W        W85600   2.465  27.973  12.872
18533W        W85601  13.127   4.897  11.372
18534W        W85602  33.539  40.508   2.250
18535W        W85603  27.587   9.875  14.452
18536W        W85604  21.069  44.406  14.511
18537W        W85605  34.020  28.166   5.320
18538W        W85606  26.108  33.485   3.641
18539W        W85607  20.755   0.493  11.913
18540W        W85608  33.108  44.899   3.325
18541W        W85609  22.620  33.909   0.481
18542W        W85610  27.997  19.749  14.484
18543W        W85611  42.427  31.518   4.278
18544W        W85612  10.305  44.334  13.328
18545W        W85613  31.972  18.691   5.301
18546W        W85614   5.337  19.686  11.426
18547W        W85615   6.341  22.227  12.003
18548W        W85616  25.557  14.593   4.128
18549W        W85617   5.714  11.225  14.376
18550W        W85618  20.607  16.200   4.177
18551W        W85619   3.428  15.223   2.879
18552W        W85620  38.360  31.438   1.824
18553W        W85621  27.143  27.626  12.566
18554W        W85622   2.927   3.431   1.838
18555W        W85623  24.114  11.717   1.441
18556W        W85624  24.138  42.944   2.343
18557W        W85625  19.564  11.179   1.441
18558W        W85626  16.125  24.202   3.854
18559W        W85627  34.994  28.626   1.861
18560W        W85628  42.347  13.663  14.785
18561W        W85629  21.595   9.718   1.817
18562W        W85630  20.552  24.054  12.379
18563W        W85631  43.463  15.664  11.945
18564W        W85632  34.885   2.427  13.326
18565W        W85633  41.366   7.745  13.854
18566W        W85634  29.966  30.057  12.827
18567W        W85635   8.829  31.933  12.533
18568W        W85636  43.829  37.570   2.696
18569W        W85637  16.608  14.307  11.454
18570W        W85638  40.822  13.830  11.034
18571W        W85639   6.371  26.481   1.297
18572W        W85640   6.761  28.553  14.813
18573W        W85641  22.659   0.256   3.247
18574W        W85642  44.909   5.925   1.844
18575W        W85643  32.474   7.765   4.657
18576W        W85644  36.918   1.882   2.684
18577W        W85645  25.981  29.026   0.429
18578W        W85646  11.201  36.040   1.735
18579W        W85647  17.791  16.581  11.119
18580W        W85648  11.801  36.050  13.978
18581W        W85649   6.422  40.855   1.867
18582W        W85650  12.258  27.037  11.035
18583W        W85651  38.333  20.273   3.340
18584W        W85652  22.546  22.168   3.652
18585W        W85653  37.048  12.263  13.327
18586W        W85654   0.852   7.874   1.443
18587W        W85655  24.593  16.777   0.316
18588W        W85656  19.126  31.636   2.870
18589W        W85657  11.766  41.017   0.323
18590W        W85658  42.932  37.418  14.867
18591W        W85659  43.950  43.290   2.358
18592W        W85660  43.901   2.239   0.466
18593W        W85661  24.196  17.662  11.511
18594W        W85662  14.802  18.119   2.290
18595W        W85663  36.004  31.131  13.960
18596W        W85664  23.636  16.170   0.750
18597W        W85665  34.112   6.839   0.783
18598W        W85666  36.565  39.406  12.541
18599W        W85667  21.618  20.103  10.602
18600W        W85668  20.596   8.658   2.745
18601W        W85669  17.744  10.797   3.664
18602W        W85670  25.016  15.608   3.867
18603W        W85671  13.619  25.082   0.822
18604W        W85672  38.957  10.775  11.015
18605W        W85673  13.341  38.378   2.413
18606W        W85674  26.482  40.838   2.249
18607W        W85675   6.206  18.113   3.678
18608W        W85676  30.551   4.363  13.532
18609W        W85677  16.807  36.440   4.781
18610W        W85678  23.649  39.837  13.528
18611W        W85679  33.094  34.546   3.712
18612W        W85680   1.442   7.884  10.617
18613W        W85681  39.887  19.202  12.446
18614W        W85682  42.897  29.129   0.945
18615W        W85683  19.769  40.911   2.194
18616W        W85684  17.603  20.737   2.888
18617W        W85685   8.352  11.195   1.309
18618W        W85686  35.058  33.558  13.986
18619W        W85687  22.037   8.792   1.711
18620W        W85688  30.125  15.610  10.932
18621W        W85689  18.063   7.732  11.924
18622W        W85690  17.093   1.287   4.653
18623W        W85691   4.409  32.614   4.644
18624W        W85692  22.746   1.441  14.466
18625W        W85693   9.844  42.477  14.816
18626W        W85694  17.113  19.753  10.004
18627W        W85695  38.971  23.239   4.760
18628W        W85696   6.779  20.228  11.892
18629W        W85697  12.197  41.463   3.639
18630W        W85698  39.480   1.466  12.981
18631W        W85699  18.666  44.947   2.799
18632W        W85700  25.677  37.529   1.700
18633W        W85701  15.789  30.540   4.774
18634W        W85702  32.544  31.614   1.747
18635W        W85703  26.582  27.105  13.344
18636W        W85704   7.841  14.111   3.322
18637W        W85705  42.308  37.456  13.828
18638W        W85706   0.803  14.256   5.103
18639W        W85707  38.493  30.104  13.977
18640W        W85708  43.425  36.053   0.744
18641W        W85709  14.665  39.342  13.973
18642W        W85710  40.021   2.952   3.771
18643W        W85711  26.092   3.446   1.730
18644W        W85712  13.751  43.324   3.723
18645W        W85713  30.635  11.835   4.300
18646W        W85714  28.970  30.009   3.153
18647W        W85715  34.534  17.798  10.897
18648W        W85716  39.927   7.718   3.836
18649W        W85717  20.160  27.480  11.964
18650W        W85718  15.281  18.143  10.522
18651W        W85719  11.829  22.566   1.450
18652W        W85720  31.063   1.950  13.054
18653W        W85721  31.905  22.197   2.836
18654W        W85722  23.636  16.582   4.825
18655W        W85723  32.101  11.270   4.152
18656W        W85724  25.618  11.834   1.739
18657W        W85725   9.202  26.182   0.918
18658W        W85726  43.832  12.831   2.752
18659W        W85727  33.417  37.084   2.709
18660W        W85728  11.273  10.837   0.448
18661W        W85729  33.122  28.573   2.796
18662W        W85730  23.227   1.316   3.790
18663W        W85731  17.210  13.809   2.803
18664W        W85732   1.459  13.797   1.707
18665W        W85733  28.087   2.789  14.372
18666W        W85734  15.234  14.188  12.007
18667W        W85735  43.510  43.806  12.893
18668W        W85736   4.245  29.094  11.886
18669W        W85737  11.218  30.586   2.400
18670W        W85738  39.516   1.293   4.731
18671W        W85739   4.426   0.815   3.151
18672W        W85740  25.215  34.447   4.209
18673W        W85741  14.774  35.476   1.299
18674W        W85742  34.491  11.819  11.940
18675W        W85743   9.875  40.304   1.727
18676W        W85744  39.851  33.457  10.005
18677W        W85745  23.496  23.717  12.498
18678W        W85746   4.366  30.013   1.700
18679W        W85747  29.515  35.935   3.317
18680W        W85748  12.123  16.802  14.495
18681W        W85749  31.511  15.199  14.375
18682W        W85750  37.551   5.270   4.213
18683W        W85751  14.671  30.581   1.813
18684W        W85752  12.291  27.994   3.370
18685W        W85753  40.916  11.163   0.961
18686W        W85754  32.597  33.511  10.640
18687W        W85755   1.340  28.587  11.481
18688W        W85756  15.764  27.460   3.302
18689W        W85757  25.008  38.358  12.464
18690W        W85758  35.383  24.012   4.623
18691W        W85759   0.484   7.851  10.541
18692W        W85760  43.382  31.990   5.236
18693W        W85761  21.679  32.594   2.365
18694W        W85762   3.865   1.791   2.698
18695W        W85763   1.733  19.739   4.280
18696W        W85764   3.417  39.026   4.714
18697W        W85765   9.279  10.681   2.184
18698W        W85766  37.469  38.960  12.339
18699W        W85767  10.188  22.614   4.275
18700W        W85768  15.113   0.406  12.562
18701W        W85769  21.243  15.301  10.923
18702W        W85770  26.206   3.711  11.953
18703W        W85771  36.894  37.506  11.913
18704W        W85772  29.649  41.375  13.482
18705W        W85773   7.751  33.416  12.949
18706W        W85774  30.949   8.187   2.400
18707W        W85775  32.406  40.978  11.489
18708W        W85776  40.928  27.132   1.411
18709W        W85777   5.305  22.144   0.276
18710W        W85778  34.425  32.459   1.300
18711W        W85779  17.642  39.025  13.371
18712W        W85780  43.440  16.234   4.218
18713W        W85781  34.863  40.916  12.940
18714W        W85782  18.180  37.349  14.773
18715W        W85783  31.552  43.336  13.372
18716W        W85784   5.907  25.684   0.278
18717W        W85785  26.576  39.959   3.286
18718W        W85786  36.478   2.952  11.911
18719W        W85787  25.596  30.565  10.450
18720W        W85788  42.439   9.367   2.802
18721W        W85789  41.970  13.238  12.459
18722W        W85790  33.394  24.051   2.260
18723W        W85791  23.012  21.742   2.408
18724W        W85792  30.546   0.307   4.353
18725W        W85793  34.399  30.113  13.390
18726W        W85794  11.709  32.484   2.302
18727W        W85795  11.315   7.791   1.367
18728W        W85796  17.159  19.669   3.697
18729W        W85797  38.909  36.350   1.783
18730W        W85798  44.772  10.308  13.843
18731W        W85799  34.486   2.745   0.803
18732W        W85800  14.193  24.134  12.831
18733W        W85801   4.828   0.465  14.961
18734W        W85802  22.199  28.050  11.392
18735W        W85803  36.935  38.983  11.514
18736W        W85804  16.630  10.304   4.350
18737W        W85805  11.834   0.976   0.871
18738W        W85806  14.606  13.225   0.326
18739W        W85807  44.823   4.880   1.409
18740W        W85808  33.018  26.133   1.319
18741W        W85809  21.667   7.769   0.312
18742W        W85810  19.219  42.945   4.161
18743W        W85811  40.850  37.527   3.371
18744W        W85812  10.715   0.828   3.366
18745W        W85813   7.193  12.850   3.227
18746W        W85814  21.730  14.144  11.609
18747W        W85815  15.175  24.025  11.962
18748W        W85816   2.458  34.867  13.412
18749W        W85817  28.547  43.962  10.515
18750W        W85818  24.978   9.764  14.010
18751W        W85819  28.034  16.591   1.704
18752W        W85820   1.764  37.493   4.314
18753W        W85821  33.085  18.227   4.669
18754W        W85822  29.022   7.173  11.057
18755W        W85823  43.839   3.284   4.626
18756W        W85824   3.802   9.796  13.819
18757W        W85825  14.278   1.377   3.773
18758W        W85826  33.481  10.756  11.925
18759W        W85827  38.835   4.737   3.771
18760W        W85828  25.555  16.169   4.113
18761W        W85829  25.515  22.215   4.143
18762W        W85830   6.901  12.832   2.838
18763W        W85831  26.627  21.540  13.815
18764W        W85832  11.220  28.531  11.598
18765W        W85833  42.904  18.715  11.421
18766W        W85834  12.189  16.720   1.345
18767W        W85835   5.307  30.486   3.862
18768W        W85836   2.299  29.591  12.997
18769W        W85837  27.008  32.420  14.486
18770W        W85838   1.835  12.352   1.436
18771W        W85839  44.262  26.635   0.250
18772W        W85840  23.692  11.679   0.953
18773W        W85841  23.663  44.768   1.239
18774W        W85842  34.376  23.666  13.866
18775W        W85843  40.423  42.343   2.865
18776W        W85844  10.170   9.154   4.178
18777W        W85845   9.697  32.083   1.240
18778W        W85846  25.514  19.109  12.382
18779W        W85847  27.962   6.209  14.398
18780W        W85848  15.594  23.089   0.361
18781W        W85849  37.068  20.649   4.205
18782W        W85850   5.396  15.191   0.941
18783W        W85851  35.053   2.755  10.404
18784W        W85852  32.138  23.705  12.833
18785W        W85853  22.607  24.704  14.991
18786W        W85854  40.959  40.548  13.353
18787W        W85855   0.947  27.673  10.575
18788W        W85856  26.197  43.412   2.297
18789W        W85857  17.653  44.957   3.734
18790W        W85858  23.170  36.888   4.727
18791W        W85859   9.234  13.661   4.773
18792W        W85860  27.667   3.441  11.913
18793W        W85861  36.481   2.886   0.819
18794W        W85862   0.784  39.354   4.634
18795W        W85863  39.472  21.217  12.558
18796W        W85864  10.344   8.325  12.532
18797W        W85865  34.975  39.343  10.420
18798W        W85866  11.246  23.998   0.429
18799W        W85867  24.053   9.696  10.569
18800W        W85868  29.989  25.697  14.806
18801W        W85869  16.197  35.555   2.898
18802W        W85870  41.498   3.804   4.293
18803W        W85871   9.208  44.496  10.029
18804W        W85872  14.669  23.697  13.978
18805W        W85873  33.979  28.491   1.723
18806W        W85874  13.217  34.449   1.313
18807W        W85875   9.374  12.195  12.363
18808W        W85876  29.159  27.061  13.952
18809W        W85877  29.609  40.504  14.435
18810W        W85878  29.655  11.857  14.980
18811W        W85879   6.405  17.587  12.015
18812W        W85880  14.113  40.458   2.356
18813W        W85881  16.105  30.621   1.359
18814W        W85882  27.520   5.209   2.271
18815W        W85883  14.125  40.442   3.330
18816W        W85884  24.685  41.323   3.234
18817W        W85885  11.755  42.807  11.532
18818W        W85886  19.114  14.297   0.339
18819W        W85887  28.589   6.830  12.050
18820W        W85888  24.183  30.974  14.513
18821W        W85889   5.200  28.011   4.281
18822W        W85890  40.908   2.346   4.750
18823W        W85891  39.986  31.594  13.453
18824W        W85892   7.193  12.834   1.217
18825W        W85893  39.467  20.087   4.228
18826W        W85894  11.140  38.877   9.978
18827W        W85895  13.699  15.175  14.990
18828W        W85896  32.917  35.359   1.924
18829W        W85897  10.717  23.523   2.729
18830W        W85898  17.220   2.954   1.240
18831W        W85899  32.001  30.034  10.412
18832W        W85900  27.570  43.423   0.362
18833W        W85901  25.004   6.335   3.768
18834W        W85902  39.367   3.246   2.791
18835W        W85903  14.283  38.395   1.829
18836W        W85904  28.109  34.992  13.444
18837W        W85905  40.510   2.307   1.253
18838W        W85906  12.292   0.968   0.461
18839W        W85907  17.684  11.841   0.416
18840W        W85908   0.774  11.726  10.512
18841W        W85909  27.160  36.049  10.981
18842W        W85910  44.960  27.119   3.150
18843W        W85911  12.829  21.054   2.740
18844W        W85912  16.075  34.043  14.000
18845W        W85913  12.160  16.270   2.818
18846W        W85914   3.760  20.269  11.514
18847W        W85915  30.157  38.906  13.332
18848W        W85916   5.856  42.940  13.378
18849W        W85917  42.829  17.087   3.661
18850W        W85918   4.863  31.978   4.312
18851W        W85919  37.425  35.872  11.087
18852W        W85920  39.351  20.572   3.700
18853W        W85921  21.659  28.038   4.648
18854W        W85922  40.040  41.954  14.299
18855W        W85923  11.765  35.860   1.267
18856W        W85924  31.612  24.174  14.800
18857W        W85925   2.332  26.533   0.434
18858W        W85926   9.705  44.384  11.089
18859W        W85927  38.326  25.486   3.367
18860W        W85928  10.816  36.944   1.698
18861W        W85929  22.040   8.672   4.835
18862W        W85930  44.413  33.068   5.307
18863W        W85931  35.049  19.114  13.461
18864W        W85932  19.712  12.682  11.436
18865W        W85933  29.937  33.593   0.455
18866W        W85934  40.879  31.434  14.420
18867W        W85935  13.623   4.296   1.882
18868W        W85936   9.160  31.008   4.636
18869W        W85937  19.135  15.167  11.427
18870W        W85938  19.129  38.929  13.355
18871W        W85939  16.741   4.772   2.835
18872W        W85940  17.764  10.698   5.314
18873W        W85941  10.375   2.860  14.780
18874W        W85942  23.069   6.871   0.479
18875W        W85943  39.382  11.139   0.384
18876W        W85944  14.764  33.060  13.973
18877W        W85945  19.570   5.925   2.187
18878W        W85946   2.909  24.156   4.611
18879W        W85947   8.235  30.568   4.159
18880W        W85948   2.922  10.164   0.803
18881W        W85949  23.706   1.784   4.160
18882W        W85950  23.521   9.382  13.980
18883W        W85951  44.839  29.589  10.488
18884W        W85952  35.868   8.876  14.926
18885W        W85953  15.750  14.316  13.024
18886W        W85954  13.719  39.898  13.401
18887W        W85955  27.024  11.685   0.956
18888W        W85956  26.543  24.150  12.901
18889W        W85957  15.650   0.746   1.751
18890W        W85958  40.433  44.851  14.368
18891W        W85959   8.819  23.624   2.901
18892W        W85960  39.424  39.927   0.254
18893W        W85961  18.164  18.137   2.875
18894W        W85962  12.680  18.174   3.680
18895W        W85963  27.602   6.331  12.935
18896W        W85964  30.915  36.576   4.669
18897W        W85965   6.752  33.383  13.502
18898W        W85966  21.145  30.587   3.739
18899W        W85967  25.992   9.269   1.271
18900W        W85968  34.485  13.818   4.317
18901W        W85969  33.064   6.814   4.788
18902W        W85970   7.840  23.216  13.518
18903W        W85971   1.389  32.065  12.083
18904W        W85972   7.174  41.401   1.872
18905W        W85973  20.738  11.215  14.416
18906W        W85974  41.379  24.073   3.635
18907W        W85975  39.964  31.950  14.982
18908W        W85976  28.137  11.826  11.513
18909W        W85977  16.072  18.624  14.911
18910W        W85978  28.179  19.623   4.115
18911W        W85979   7.696  26.080   4.771
18912W        W85980  25.005  43.436  10.458
18913W        W85981  10.359   1.463  12.552
18914W        W85982  37.855   6.402   4.665
18915W        W85983  19.276  38.869  10.471
18916W        W85984  35.028  43.898   0.438
18917W        W85985  22.011  33.423  13.939
18918W        W85986  43.865  30.428   2.897
18919W        W85987  32.502  22.590  10.961
18920W        W85988  34.524  20.535   1.805
18921W        W85989  18.754  27.595   3.182
18922W        W85990  44.485  23.550  12.975
18923W        W85991  15.793   6.790   0.432
18924W        W85992  24.196  15.669  12.033
18925W        W85993  11.204  38.443   1.354
18926W        W85994  13.699  30.929   3.742
18927W        W85995  13.160  19.057   0.953
18928W        W85996  43.353  27.006   0.429
18929W        W85997  25.099  41.464   3.370
18930W        W85998  25.024  35.477  14.897
18931W        W85999  25.976  25.484  10.485
18932W        W86000  32.508   0.971   1.371
18933W        W86001  40.453  30.445  12.023
18934W        W86002  15.209  23.180  11.556
18935W        W86003  15.704   7.769   2.392
18936W        W86004  15.115   2.758  12.871
18937W        W86005   1.366  36.563   3.804
18938W        W86006  10.769  27.535   3.281
18939W        W86007  14.142  12.206   0.443
18940W        W86008  23.056  22.649   1.255
18941W        W86009  38.550   0.407   3.830
18942W        W86010  37.455  22.246   4.277
18943W        W86011  30.073  28.155  10.991
18944W        W86012  35.862  43.789   2.870
18945W        W86013   4.842  27.997   5.207
18946W        W86014  39.410   4.767  12.493
18947W        W86015   9.845   0.301   0.905
18948W        W86016  32.549  37.042   1.791
18949W        W86017  16.304  13.833   1.719
18950W        W86018  38.981  16.250  14.814
18951W        W86019  27.070  10.754  11.480
18952W        W86020  26.458  24.013  11.606
18953W        W86021   3.400   2.300  10.566
18954W        W86022   6.700  20.627   2.769
18955W        W86023   4.428  17.157  10.930
18956W        W86024  18.613  39.972  13.401
18957W        W86025  27.648   7.901   1.375
18958W        W86026  40.814   4.341  12.984
18959W        W86027  25.545  25.532  14.344
18960W        W86028   9.310  20.625  12.086
18961W        W86029   0.979  26.474   2.728
18962W        W86030  22.108  25.587  14.448
18963W        W86031  43.337  17.111  14.778
18964W        W86032  32.422  31.044  11.375
18965W        W86033  14.612  33.007   0.301
18966W        W86034  38.822  16.782   1.778
18967W        W86035  17.286  18.585  11.114
18968W        W86036  19.285  23.179   4.783
18969W        W86037  23.154  43.776  14.473
18970W        W86038  40.026  19.105  13.425
18971W        W86039  29.653  38.394   2.865
18972W        W86040  10.739  26.497   4.667
18973W        W86041  30.524  11.669  11.026
18974W        W86042  23.665  34.893   1.439
18975W        W86043   3.749  33.406   0.324
18976W        W86044  10.363   0.346  14.839
18977W        W86045  22.651  15.758   5.202
18978W        W86046   0.790   8.165  10.945
18979W        W86047  43.448  41.491   4.192
18980W        W86048  41.533  31.522   2.784
18981W        W86049  39.381   0.866   3.762
18982W        W86050  20.570   9.379  14.845
18983W        W86051   1.284  24.190  10.404
18984W        W86052  20.751  44.810  13.318
18985W        W86053  33.413  39.063  12.949
18986W        W86054  31.527   8.861   4.134
18987W        W86055   9.292   0.861  13.308
18988W        W86056   0.773   8.364  10.477
18989W        W86057  13.219  25.090  12.084
18990W        W86058   6.865  40.353   4.344
18991W        W86059  34.053  34.947   2.333
18992W        W86060   7.723  11.701   1.808
18993W        W86061  26.596   1.801   0.825
18994W        W86062  42.977   0.842   4.728
18995W        W86063   2.858   0.828  11.405
18996W        W86064  14.282   6.695  12.870
18997W        W86065  10.752  11.816   1.698
18998W        W86066  34.911   4.204   1.413
18999W        W86067   7.795   5.263  10.483
19000W        W86068  25.207  18.176   1.720
19001W        W86069  20.132  38.888   3.245
19002W        W86070  19.605  19.203  12.018
19003W        W86071  16.190   6.295  13.872
19004W        W86072  38.991  10.854  11.885
19005W        W86073  24.117   2.234  13.966
19006W        W86074  26.490   5.881   3.314
19007W        W86075  37.487  39.458  11.481
19008W        W86076  28.058  23.672  10.103
19009W        W86077  18.257  33.512  11.056
19010W        W86078   5.217  10.260  11.008
19011W        W86079  18.577   1.806  12.453
19012W        W86080   5.878   0.390  12.048
19013W        W86081   9.823  18.629   3.247
19014W        W86082  26.084  41.326  13.801
19015W        W86083  14.105  32.132   2.213
19016W        W86084  31.912  31.436  13.473
19017W        W86085  29.169  44.345   1.708
19018W        W86086  15.645  35.927   3.276
19019W        W86087  23.581  28.149  13.509
19020W        W86088  31.592  30.950   3.222
19021W        W86089  14.237  12.707   2.790
19022W        W86090   9.282  27.142   2.222
19023W        W86091  16.610  40.511  12.450
19024W        W86092  26.056  35.413   3.270
19025W        W86093   4.883  40.946  12.047
19026W        W86094  33.571  13.178  11.943
19027W        W86095  25.033  11.174  11.526
19028W        W86096  20.595  21.103   9.940
19029W        W86097  10.817  31.089  14.022
19030W        W86098  39.834  25.584   1.716
19031W        W86099   9.687  22.577   1.225
19032W        W86100   7.258  11.746  10.476
19033W        W86101  15.601  19.562   4.319
19034W        W86102  37.417  24.056   2.762
19035W        W86103   1.809  40.385   2.365
19036W        W86104  27.180  31.049  11.984
19037W        W86105  39.356  38.342   0.831
19038W        W86106   8.690  11.354  10.058
19039W        W86107  18.280  44.997  10.532
19040W        W86108  27.493  20.078  13.543
19041W        W86109  14.790   7.364  14.977
19042W        W86110  30.657  31.418  10.530
19043W        W86111   2.334  17.615   3.639
19044W        W86112  11.208   8.678  11.418
19045W        W86113   1.849  38.045  13.350
19046W        W86114   3.441  10.161   2.407
19047W        W86115  44.931  20.609   4.167
19048W        W86116  41.468  29.043  13.926
19049W        W86117   1.448   6.391  12.400
19050W        W86118  19.677   6.248   2.751
19051W        W86119  32.006  34.460  13.969
19052W        W86120  43.318  23.161  13.392
19053W        W86121  36.933  17.304   2.349
19054W        W86122  24.973  37.882  10.461
19055W        W86123   3.755   3.424  13.395
19056W        W86124  14.601  34.959   4.768
19057W        W86125  25.972  27.985   2.193
19058W        W86126  32.548  24.519  10.970
19059W        W86127  27.164  28.466  12.525
19060W        W86128  41.985  14.705  11.072
19061W        W86129  20.614   1.778   2.271
19062W        W86130  24.571  25.594  11.414
19063W        W86131  26.034  40.865  12.400
19064W        W86132  40.022  41.879  11.582
19065W        W86133  44.954  17.299   4.121
19066W        W86134  26.089  29.941   0.739
19067W        W86135   0.767  11.312  14.886
19068W        W86136  37.544   9.867   2.733
19069W        W86137  31.477  10.794  10.962
19070W        W86138  25.074   0.826   2.822
19071W        W86139  15.118  42.969   2.778
19072W        W86140  22.098  11.786  13.317
19073W        W86141  25.557  36.566   2.758
19074W        W86142  13.308  33.583  12.498
19075W        W86143  29.461  39.320   3.243
19076W        W86144   5.876  20.657   4.224
19077W        W86145  20.720  38.490   3.644
19078W        W86146  22.591  33.512  10.934
19079W        W86147  16.278  31.013  12.854
19080W        W86148   9.842  33.047   4.666
19081W        W86149  40.500  38.465  12.013
19082W        W86150  41.418  22.619   3.265
19083W        W86151  13.676  15.616  14.928
19084W        W86152  22.093  26.172   3.296
19085W        W86153  18.660  14.599   1.447
19086W        W86154  33.520  31.641   3.817
19087W        W86155  36.011  34.944   2.686
19088W        W86156  20.659  28.598   0.908
19089W        W86157  35.977  42.874   2.222
19090W        W86158  12.854  40.799  14.791
19091W        W86159  28.052  37.874   2.380
19092W        W86160   5.330  38.933  11.984
19093W        W86161  33.991   3.797  12.385
19094W        W86162  16.265   6.877  11.576
19095W        W86163   1.800  30.460  12.420
19096W        W86164  20.240  30.616  11.476
19097W        W86165  37.487   6.901   2.865
19098W        W86166  20.591   4.437   0.301
19099W        W86167  27.103  25.165   5.225
19100W        W86168  10.698   0.925  12.064
19101W        W86169  39.478  30.037   0.284
19102W        W86170  42.411  36.891   0.956
19103W        W86171  29.965   9.827  10.530
19104W        W86172  43.401  18.653  10.454
19105W        W86173  23.729   7.812  11.051
19106W        W86174  21.580  17.689  13.506
19107W        W86175  42.980  11.750   3.193
19108W        W86176  36.066  25.672   4.818
19109W        W86177  42.362  25.193   1.326
19110W        W86178  29.657  21.210   3.253
19111W        W86179  22.070  18.676   2.855
19112W        W86180  12.124  44.478   2.332
19113W        W86181  29.501  17.575   4.730
19114W        W86182   0.357  13.763   2.250
19115W        W86183   7.288   9.755  13.865
19116W        W86184  43.331  26.492   0.859
19117W        W86185   8.380  42.856  14.806
19118W        W86186  40.912  26.642   4.250
19119W        W86187  22.632  31.906   3.834
19120W        W86188  35.366   8.251  12.541
19121W        W86189  37.544  27.496  14.009
19122W        W86190  43.389  19.278  12.825
19123W        W86191   7.671   9.711   2.679
19124W        W86192  38.501   3.317   3.629
19125W        W86193   3.388  29.466   3.645
19126W        W86194   6.398  21.621   0.483
19127W        W86195   6.797  28.128   2.788
19128W        W86196   9.848  32.609   4.620
19129W        W86197  44.976  31.578  12.401
19130W        W86198   5.310  11.625   2.724
19131W        W86199  20.168  41.856   1.725
19132W        W86200  27.538  15.824   4.229
19133W        W86201  41.436  28.016   3.856
19134W        W86202  23.995   7.835  14.829
19135W        W86203  29.100   0.932  13.962
19136W        W86204  35.511  33.623   1.845
19137W        W86205   7.877   1.396  12.467
19138W        W86206  26.479  25.672  13.326
19139W        W86207   2.427  43.813  13.513
19140W        W86208   8.305  11.683   0.918
19141W        W86209  11.201  13.785  11.127
19142W        W86210   7.219  43.939   2.328
19143W        W86211  35.512   3.803   2.680
19144W        W86212   7.687  19.711  10.546
19145W        W86213  26.023  34.084  11.575
19146W        W86214  26.148   4.736  10.643
19147W        W86215   7.679   0.293  14.819
19148W        W86216   8.655  23.123   1.298
19149W        W86217  16.221  21.582  13.319
19150W        W86218  25.967  33.399  11.566
19151W        W86219  23.513  39.514  14.844
19152W        W86220  28.111  12.359   3.709
19153W        W86221  30.954  42.375  14.908
19154W        W86222  40.834  39.848  14.831
19155W        W86223  31.590  38.434   0.383
19156W        W86224  44.945  25.208   3.821
19157W        W86225  31.904  32.892  13.343
19158W        W86226  25.204  44.273  10.420
19159W        W86227  34.896  31.017   0.402
19160W        W86228   6.768  23.595   2.357
19161W        W86229  13.329   5.370  13.871
19162W        W86230  13.260  31.482   1.247
19163W        W86231  17.565  21.073  10.948
19164W        W86232  34.502  35.963  14.970
19165W        W86233  27.045   8.771  12.867
19166W        W86234  30.969  33.426   0.811
19167W        W86235  43.320  25.111   0.785
19168W        W86236  13.180   5.892  14.991
19169W        W86237  24.561  44.497   1.932
19170W        W86238   3.814  19.238   4.793
19171W        W86239  24.564  18.120   0.333
19172W        W86240  29.500  29.921  11.932
19173W        W86241  19.193  28.448   1.319
19174W        W86242  27.607  24.220   1.775
19175W        W86243  35.405   8.397   1.235
19176W        W86244  29.159  33.430  12.495
19177W        W86245   4.426  18.675  12.389
19178W        W86246  10.638  44.865   4.713
19179W        W86247  22.060  37.958   2.221
19180W        W86248  12.309  27.645  14.464
19181W        W86249  32.519  21.145  14.462
19182W        W86250  40.448  13.678   3.225
19183W        W86251  30.479   5.873   3.377
19184W        W86252   4.782  26.195  12.082
19185W        W86253   1.287   8.728  11.965
19186W        W86254   3.775  29.955   3.172
19187W        W86255   7.268  44.388  10.616
19188W        W86256  17.626  17.068   0.424
19189W        W86257  44.496  27.629   1.839
19190W        W86258  11.185  41.876   4.648
19191W        W86259  33.952  23.092   2.759
19192W        W86260   7.739  12.229   0.355
19193W        W86261  36.566  12.727  12.555
19194W        W86262   3.409  12.639  13.800
19195W        W86263  13.779  16.674   4.777
19196W        W86264   2.302  27.617   1.226
19197W        W86265  37.949  36.353  12.046
19198W        W86266  19.623  27.943   4.167
19199W        W86267  42.813  13.149   4.207
19200W        W86268  40.840   8.195  11.040
19201W        W86269  41.964  19.127  10.479
19202W        W86270  38.835  41.789   0.729
19203W        W86271  14.644   6.262  10.409
19204W        W86272   1.343  39.551  11.892
19205W        W86273  17.192  37.001   1.283
19206W        W86274  25.095  13.722   3.203
19207W        W86275  13.747  10.738   1.740
19208W        W86276   0.890  29.137  13.980
19209W        W86277  21.255  25.177   3.243
19210W        W86278  14.651  28.145   2.708
19211W        W86279  23.104  10.772   1.310
19212W        W86280  33.004  28.470  10.500
19213W        W86281   4.335  21.628  12.936
19214W        W86282  40.477  27.490   1.812
19215W        W86283  36.006   1.799   2.220
19216W        W86284   6.739  35.433   1.801
19217W        W86285  10.651  18.576   2.753
19218W        W86286  41.838  41.849   2.389
19219W        W86287  20.529  22.029   4.713
19220W        W86288  35.430   7.319  14.408
19221W        W86289   6.773   5.224  13.965
19222W        W86290  32.949   5.741   4.267
19223W        W86291  31.642  18.270  11.524
19224W        W86292  38.342  43.858  11.991
19225W        W86293  37.476   9.255  11.406
19226W        W86294   2.419  31.518   4.138
19227W        W86295  42.790  14.161   3.707
19228W        W86296  24.500  27.666  11.481
19229W        W86297   4.846   5.358   5.255
19230W        W86298  13.167  19.574  14.340
19231W        W86299  30.037   8.868  14.409
19232W        W86300  19.162  44.978  13.931
19233W        W86301  27.091  25.473   3.354
19234W        W86302   0.903  12.706  11.481
19235W        W86303  44.934  31.457  12.973
19236W        W86304  27.138  30.109  12.840
19237W        W86305  32.594  39.810  11.005
19238W        W86306  36.584  12.830  14.295
19239W        W86307  15.144  36.394  13.962
19240W        W86308  35.901  15.609  13.882
19241W        W86309   4.438  40.487   3.806
19242W        W86310  11.844  29.978  12.072
19243W        W86311  29.458  10.873   3.630
19244W        W86312  10.646   4.714  11.461
19245W        W86313  40.353  40.919   2.257
19246W        W86314   2.932   4.240  13.030
19247W        W86315   5.764   9.318  10.447
19248W        W86316  21.038  40.984   4.797
19249W        W86317  23.123   7.720   1.875
19250W        W86318  29.471  26.507  12.824
19251W        W86319  13.745  42.339   0.405
19252W        W86320  29.085  27.974  11.128
19253W        W86321  32.595  11.268  13.374
19254W        W86322  27.572  31.984   1.831
19255W        W86323  10.376  42.808   0.903
19256W        W86324   8.710   1.954   9.980
19257W        W86325  12.843  16.310  14.402
19258W        W86326  12.730  39.923   0.432
19259W        W86327  27.064   7.297   4.318
19260W        W86328  39.958   2.283  12.356
19261W        W86329  15.305  12.233   3.764
19262W        W86330  25.143  39.559  10.926
19263W        W86331  19.241  34.913  11.482
19264W        W86332  21.638  24.676   3.751
19265W        W86333   4.373  13.733  10.598
19266W        W86334  37.003  37.458  10.133
19267W        W86335  12.253  32.115  13.348
19268W        W86336  15.291  22.601  11.413
19269W        W86337  27.558  17.645  10.634
19270W        W86338   6.361  12.258   3.664
19271W        W86339  12.358   0.782   0.764
19272W        W86340  27.180  27.183  13.881
19273W        W86341  43.000  20.734   4.671
19274W        W86342   1.850  37.355  14.018
19275W        W86343  29.559   2.936  12.473
19276W        W86344  35.390   2.754  13.362
19277W        W86345   4.710   1.285  14.464
19278W        W86346  20.597  27.076  12.968
19279W        W86347   6.912  27.052  14.379
19280W        W86348  37.438  36.539  11.860
19281W        W86349  20.698  42.924  10.918
19282W        W86350  34.504  27.978  11.007
19283W        W86351  30.531  30.075   4.634
19284W        W86352  20.266   8.394  12.926
19285W        W86353  10.291  13.145  10.914
19286W        W86354  41.913  20.128   1.260
19287W        W86355  39.954   5.794  14.342
19288W        W86356   4.405  23.697   4.602
19289W        W86357  14.719  21.084  12.370
19290W        W86358  13.665  24.510   2.791
19291W        W86359  26.954  28.594  13.880
19292W        W86360  42.302  24.050  12.515
19293W        W86361  32.558  34.098  11.519
19294W        W86362   1.376   2.442   2.870
19295W        W86363  28.468   1.735   1.394
19296W        W86364  38.941   0.883   0.364
19297W        W86365  11.188  16.099   2.871
19298W        W86366   0.264  19.096   3.679
19299W        W86367  40.857  18.694  12.447
19300W        W86368  31.929  24.533   5.259
19301W        W86369  10.231  14.613  11.057
19302W        W86370   5.317  10.181  13.545
19303W        W86371  34.104   7.791  10.913
19304W        W86372  21.671  32.105   4.211
19305W        W86373  24.711  30.553  13.475
19306W        W86374  43.905   0.390   2.713
19307W        W86375  26.668  20.028  13.804
19308W        W86376  28.476  20.081   1.881
19309W        W86377  13.209  13.196   2.211
19310W        W86378  13.683  33.982  10.533
19311W        W86379  19.702  22.036   1.303
19312W        W86380  15.600  41.909   4.630
19313W        W86381  15.308   1.367  12.009
19314W        W86382  10.364   3.367  13.928
19315W        W86383  20.098   2.840  11.572
19316W        W86384   3.879  27.959  13.329
19317W        W86385  22.612   0.870   4.650
19318W        W86386   7.905  22.132   2.698
19319W        W86387  12.762  43.466   3.163
19320W        W86388  18.687   1.347  11.053
19321W        W86389  29.133   6.407  12.552
19322W        W86390  27.959  32.442  11.430
19323W        W86391  35.076  38.448   2.214
19324W        W86392  29.059  27.167   2.329
19325W        W86393   6.393  44.977   1.446
19326W        W86394  10.172  29.119   2.687
19327W        W86395  14.135  30.113   3.306
19328W        W86396  16.085   2.831   0.457
19329W        W86397  13.835   2.957  14.773
19330W        W86398  31.993   0.426  11.428
19331W        W86399  15.197  14.591   3.340
19332W        W86400   7.244  34.424   4.753
19333W        W86401  26.974   8.709  11.084
19334W        W86402  39.337  24.575  14.982
19335W        W86403  44.407  16.699  10.980
19336W        W86404  28.669  29.639   2.228
19337W        W86405  19.136  30.970  10.596
19338W        W86406  34.536  37.846   2.661
19339W        W86407  32.568  41.987   0.406
19340W        W86408  22.539   7.326  12.947
19341W        W86409   0.486  17.616   3.851
19342W        W86410   3.276  33.556   0.256
19343W        W86411  29.932  44.962  13.011
19344W        W86412  27.957  30.983   1.857
19345W        W86413  21.554  28.044  12.003
19346W        W86414  37.013  27.612   2.739
19347W        W86415   4.244  30.601  11.091
19348W        W86416  33.988  20.683  13.484
19349W        W86417  11.854  15.609  10.067
19350W        W86418   5.407  36.466  14.821
19351W        W86419   3.830  23.167  11.054
19352W        W86420  31.432  39.011   3.710
19353W        W86421  43.903   7.358   3.235
19354W        W86422  26.481   6.256  11.106
19355W        W86423  44.454  28.939  12.949
19356W        W86424   8.249  39.401   1.433
19357W        W86425   5.347  33.500  13.861
19358W        W86426   6.321  40.941  14.792
19359W        W86427   3.316  34.534  12.089
19360W        W86428  44.354  35.456  11.521
19361W        W86429  41.921  10.226   4.617
19362W        W86430  24.034   3.877   0.329
19363W        W86431   1.839  25.066  10.483
19364W        W86432  15.755  26.062   2.293
19365W        W86433  11.702  10.758  10.891
19366W        W86434  26.127  11.263  10.547
19367W        W86435   0.270  40.546  13.006
19368W        W86436  30.448  28.180   1.315
19369W        W86437   7.877  24.704  10.964
19370W        W86438  23.496  14.334  14.838
19371W        W86439  32.003  11.775  12.453
19372W        W86440  40.459  30.447  10.622
19373W        W86441  29.455  28.139  14.904
19374W        W86442   7.416  40.952  12.912
19375W        W86443  27.525  38.953   4.193
19376W        W86444   4.777  20.566   3.339
19377W        W86445   8.701  27.499   2.269
19378W        W86446  11.373  42.972   3.167
19379W        W86447  25.522   6.184   3.326
19380W        W86448  28.019  12.763   0.472
19381W        W86449  15.686   3.887  10.547
19382W        W86450  18.711  27.666  11.454
19383W        W86451  28.057  35.521   4.664
19384W        W86452   3.322  34.465   0.867
19385W        W86453   1.278   0.435  12.574
19386W        W86454   1.814  10.647  13.880
19387W        W86455   8.657  29.468  10.635
19388W        W86456  35.507  41.972  12.886
19389W        W86457   6.191  43.489   4.243
19390W        W86458  15.661  31.571  12.929
19391W        W86459  18.139  36.517   2.673
19392W        W86460  37.897   0.370  10.588
19393W        W86461  40.011  39.955   2.741
19394W        W86462  16.762   4.425   0.782
19395W        W86463  42.965  28.443   2.802
19396W        W86464  16.214   9.720  12.060
19397W        W86465  21.040  16.616  11.995
19398W        W86466   9.374  24.601  14.997
19399W        W86467  33.522  21.630  10.543
19400W        W86468  41.457  37.988  12.576
19401W        W86469  22.072  44.880   0.451
19402W        W86470  35.943  35.445   4.245
19403W        W86471  29.669  43.394   1.435
19404W        W86472  38.055   6.376   1.710
19405W        W86473  34.069   7.683  12.550
19406W        W86474  36.482  26.027  13.858
19407W        W86475  42.997  25.987  14.400
19408W        W86476   3.730   1.463  11.074
19409W        W86477  42.004   5.729  15.000
19410W        W86478  24.645  17.157  10.967
19411W        W86479  19.681  20.586  12.075
19412W        W86480  18.689  14.750   0.820
19413W        W86481  23.663  11.213  14.322
19414W        W86482  35.482  26.134  10.552
19415W        W86483  37.494  44.303  12.938
19416W        W86484  32.463  29.476  12.903
19417W        W86485  23.068  33.621  12.533
19418W        W86486   2.281   0.817   3.669
19419W        W86487  44.489  17.224   2.833
19420W        W86488   5.831  41.470  12.023
19421W        W86489  16.174   9.797   0.772
19422W        W86490  34.423  19.057  10.527
19423W        W86491  35.021  14.321  14.317
19424W        W86492  25.597   8.827   2.262
19425W        W86493  26.203  25.694   4.807
19426W        W86494  30.433  30.518  11.441
19427W        W86495  25.710   0.445  10.407
19428W        W86496   1.759  37.039   3.237
19429W        W86497  42.002  15.578  12.049
19430W        W86498   0.848   6.913   0.788
19431W        W86499  35.385   7.227  11.595
19432W        W86500  31.415  28.482   2.792
19433W        W86501   9.845  35.034   0.728
19434W        W86502  37.932  37.035   3.214
19435W        W86503  17.248  15.764   2.248
19436W        W86504  44.925  15.790  13.891
19437W        W86505   6.196  19.562   2.882
19438W        W86506  42.847  22.075  12.894
19439W        W86507  15.171  18.059   1.440
19440W        W86508   1.382   3.815  14.401
19441W        W86509  18.159   0.866   2.289
19442W        W86510  12.617  35.497   2.271
19443W        W86511  31.576   2.913   3.261
19444W        W86512   7.184  30.573   1.830
19445W        W86513   1.465  28.537  14.791
19446W        W86514  11.634  25.092   0.937
19447W        W86515  25.070   2.343  14.387
19448W        W86516  44.940  23.003  10.545
19449W        W86517   9.366  31.997   3.295
19450W        W86518  33.018  12.747   4.732
19451W        W86519  37.564  14.810  10.511
19452W        W86520   4.913  14.637   1.862
19453W        W86521  25.640  32.891  14.935
19454W        W86522  44.912   5.372  13.504
19455W        W86523  36.852  11.821   1.713
19456W        W86524  28.482  20.531  11.516
19457W        W86525  39.936  31.627  12.913
19458W        W86526  31.904  10.757   2.868
19459W        W86527  38.393  34.461   0.469
19460W        W86528  13.724  22.549   0.882
19461W        W86529  33.069  29.668  13.342
19462W        W86530  34.080  15.808  11.055
19463W        W86531  38.569  29.068   3.730
19464W        W86532  12.708  23.223   4.599
19465W        W86533   5.340  29.014   1.341
19466W        W86534  42.341  38.415   4.128
19467W        W86535  44.892   2.226  14.484
19468W        W86536  41.443  17.732  10.430
19469W        W86537  30.575   3.344   0.917
19470W        W86538  27.990   2.804  10.954
19471W        W86539  23.151  41.934   4.172
19472W        W86540  15.685  29.951  10.084
19473W        W86541  44.859  10.224   4.330
19474W        W86542   6.856   1.447   4.757
19475W        W86543   2.732  21.720  14.334
19476W        W86544  17.718  12.142   0.298
19477W        W86545  33.478  39.491   4.800
19478W        W86546  13.157  36.388  11.086
19479W        W86547   3.716  21.656  11.872
19480W        W86548  12.624  43.405   4.707
19481W        W86549  33.625  28.017   3.709
19482W        W86550  42.477  28.547  14.805
19483W        W86551  43.909   7.326   4.287
19484W        W86552  13.803  20.234   2.247
19485W        W86553  18.082  10.300  13.984
19486W        W86554  29.014  30.553   0.739
19487W        W86555  38.864  21.679  11.956
19488W        W86556  32.096  19.194  10.541
19489W        W86557   1.839  31.452   0.320
19490W        W86558  36.899   2.315  14.846
19491W        W86559   0.264   2.408  14.293
19492W        W86560   3.332  33.007  11.481
19493W        W86561  39.414   8.734   3.297
19494W        W86562  38.012   4.326   2.826
19495W        W86563  43.277  42.957  13.063
19496W        W86564  13.210   8.748  11.599
19497W        W86565   4.910  13.254   3.362
19498W        W86566  44.852  15.708  12.959
19499W        W86567  28.076  39.403  12.344
19500W        W86568  31.600  37.033  11.488
19501W        W86569  27.151  10.344  13.916
19502W        W86570  25.149   1.830  11.419
19503W        W86571   6.783  21.256  13.381
19504W        W86572  39.982  36.976  11.553
19505W        W86573  23.037   9.644  10.583
19506W        W86574  38.992  44.984   1.883
19507W        W86575  11.341  35.886  14.426
19508W        W86576  28.626  35.018   0.437
19509W        W86577   1.839   7.776  11.994
19510W        W86578   2.302  17.106  13.447
19511W        W86579   7.760  10.192   3.672
19512W        W86580  27.617  38.035  14.817
19513W        W86581  18.635  15.281  10.617
19514W        W86582  27.186  21.020  13.474
19515W        W86583  35.495   1.247   0.402
19516W        W86584  17.685  29.469  14.421
19517W        W86585  20.701   4.802   4.273
19518W        W86586  27.153  32.935   1.764
19519W        W86587  24.078   8.199   2.706
19520W        W86588  20.266   8.855   9.976
19521W        W86589  26.525   2.328   3.227
19522W        W86590  36.004  26.001  12.412
19523W        W86591  10.246  19.216   2.810
19524W        W86592  11.211  20.553  10.973
19525W        W86593   1.867  42.389   0.956
19526W        W86594  14.174   3.434  12.012
19527W        W86595  35.950  14.755  11.026
19528W        W86596  38.409  15.590   1.696
19529W        W86597  20.733   6.832   3.298
19530W        W86598   0.837   0.954  10.470
19531W        W86599  42.841   2.867  11.487
19532W        W86600  26.513  27.646   4.625
19533W        W86601  31.141  40.020   1.841
19534W        W86602  19.087  40.976  12.884
19535W        W86603  13.128  40.398  14.276
19536W        W86604  10.322  43.354   2.400
19537W        W86605  28.577  23.636  12.080
19538W        W86606  43.433  29.480  14.810
19539W        W86607   9.162  20.570   2.267
19540W        W86608  26.025  32.536  11.522
19541W        W86609  33.465  35.500   5.182
19542W        W86610  30.110  24.135   4.612
19543W        W86611   1.818   2.250   1.382
19544W        W86612  41.338   3.322   4.790
19545W        W86613  11.677   5.214   2.830
19546W        W86614  44.980  19.765  14.994
19547W        W86615   4.220  31.563   2.232
19548W        W86616  31.924  44.309  10.471
19549W        W86617  23.011  31.013   0.748
19550W        W86618  32.017  10.153  14.774
19551W        W86619  38.975  15.217   4.272
19552W        W86620  28.175   2.275  14.969
19553W        W86621  27.058  42.518  11.379
19554W        W86622   2.375  35.022  10.137
19555W        W86623  19.046  13.348   0.262
19556W        W86624  36.977   9.216  11.408
19557W        W86625  27.982  31.528   2.754
19558W        W86626   6.368  21.617   2.290
19559W        W86627  10.193  30.467   4.258
19560W        W86628  16.774  34.412   0.258
19561W        W86629  14.265  25.514   0.287
19562W        W86630   9.263  27.179  10.490
19563W        W86631  12.328  35.038  12.395
19564W        W86632  38.057  35.478  12.452
19565W        W86633  38.920  14.325  11.019
19566W        W86634  17.128  39.911   2.297
19567W        W86635  15.783  14.099  10.146
19568W        W86636  42.442  43.448  13.347
19569W        W86637   0.968  38.850   5.183
19570W        W86638   2.859  35.000   5.195
19571W        W86639   0.878  33.412   3.733
19572W        W86640  39.517   4.257  12.902
19573W        W86641   5.726  17.119  10.134
19574W        W86642   1.764  34.908  12.057
19575W        W86643  12.225  18.608  14.766
19576W        W86644  15.709  35.918  11.959
19577W        W86645  18.083  42.810  13.537
19578W        W86646  11.639  36.966   2.824
19579W        W86647  40.545  39.063   5.128
19580W        W86648  18.178  41.497   2.269
19581W        W86649  34.022  37.363  13.831
19582W        W86650  42.948  31.939   4.242
19583W        W86651   6.420  14.119   0.337
19584W        W86652  30.536  17.289  11.875
19585W        W86653   7.807   3.365   4.656
19586W        W86654  36.058  22.586  11.026
19587W        W86655  22.584  29.428  10.979
19588W        W86656  36.360  35.853  10.437
19589W        W86657  20.658  27.964  10.544
19590W        W86658  31.630   2.309   2.299
19591W        W86659   8.704  18.691   2.315
19592W        W86660  22.168  40.833   0.863
19593W        W86661   4.812  21.637   3.741
19594W        W86662  36.901  44.404   2.224
19595W        W86663  19.547   7.392   4.322
19596W        W86664  22.135  30.475  11.909
19597W        W86665  34.559  26.046  10.038
19598W        W86666  25.545  34.880   2.213
19599W        W86667  41.420   6.692   3.208
19600W        W86668  22.230  18.277  14.480
19601W        W86669  10.309  44.492  12.417
19602W        W86670   2.391  42.793  10.917
19603W        W86671  26.684  42.941  11.928
19604W        W86672  43.795   8.824  10.905
19605W        W86673  36.910  21.165  10.635
19606W        W86674   5.876  22.099   3.738
19607W        W86675  22.614  20.243  12.990
19608W        W86676  35.854   7.870   4.354
19609W        W86677  21.566  23.203   3.237
19610W        W86678   9.205  21.097   9.956
19611W        W86679   6.369  34.923  11.894
19612W        W86680  16.610  21.735   4.702
19613W        W86681  22.713  40.544  12.492
19614W        W86682  15.714  43.377   2.238
19615W        W86683  30.085  34.457  12.007
19616W        W86684  37.339  24.707  12.568
19617W        W86685  20.705  20.651  11.520
19618W        W86686  21.159  12.274   3.840
19619W        W86687  27.172  36.842  14.454
19620W        W86688   9.375   0.943  14.904
19621W        W86689   2.468   0.810   1.767
19622W        W86690  27.635  20.654   3.384
19623W        W86691   4.918   9.390   3.300
19624W        W86692  44.375   9.777   4.662
19625W        W86693  41.850  36.568  12.053
19626W        W86694  31.484   0.929   0.756
19627W        W86695  19.587   0.337  11.520
19628W        W86696  20.155  30.538   1.357
19629W        W86697   8.773   0.336  13.463
19630W        W86698   5.849  31.077   3.832
19631W        W86699   5.423  32.977   1.220
19632W        W86700  11.836  32.965   3.659
19633W        W86701   4.727  30.617  14.280
19634W        W86702  11.151   7.835  13.849
19635W        W86703  19.574   5.295  14.919
19636W        W86704  42.391  18.687  12.561
19637W        W86705  23.508  25.172   4.821
19638W        W86706  40.443  29.029   2.775
19639W        W86707  31.413  42.993  11.554
19640W        W86708  19.084  34.002   3.250
19641W        W86709  18.196  19.600   0.293
19642W        W86710  33.402  23.158  12.919
19643W        W86711  13.646  31.459  10.536
19644W        W86712   6.869   5.338   4.628
19645W        W86713  13.194   8.405   3.386
19646W        W86714  25.070  42.298   4.599
19647W        W86715  22.079  21.231   1.231
19648W        W86716  19.070  19.168   4.751
19649W        W86717   7.821  39.835  12.906
19650W        W86718   5.709  13.144   2.706
19651W        W86719  28.056  31.085   3.233
19652W        W86720  33.499  35.955   1.444
19653W        W86721   1.910  29.629   2.748
19654W        W86722  37.405  17.134   3.662
19655W        W86723   6.245  41.312  14.323
19656W        W86724   2.291  24.582  12.926
19657W        W86725   9.191  19.651  12.353
19658W        W86726   6.343  38.326   0.324
19659W        W86727  15.683   3.248   0.768
19660W        W86728  38.908  43.398  11.856
19661W        W86729  17.754   9.325   3.818
19662W        W86730  24.689  37.418   4.829
19663W        W86731   5.826  22.658   1.891
19664W        W86732  19.553  12.223  13.383
19665W        W86733  23.134  38.912  13.992
19666W        W86734  14.711   6.888   3.817
19667W        W86735  14.678  36.351   2.716
19668W        W86736   3.774  23.599  13.968
19669W        W86737  32.012   8.382   1.772
19670W        W86738  12.804  26.162   1.437
19671W        W86739  20.764  35.979   3.665
19672W        W86740  35.390  44.962  13.959
19673W        W86741  35.098   7.348  12.006
19674W        W86742   5.689  20.685   1.323
19675W        W86743  32.889   0.984  14.384
19676W        W86744  27.153  30.641  13.312
19677W        W86745  32.494  14.707  12.478
19678W        W86746   6.304  15.612   3.782
19679W        W86747  28.053  42.367  11.891
19680W        W86748  41.426   1.902   3.269
19681W        W86749  40.900  35.085  10.539
19682W        W86750  14.292  29.120   0.958
19683W        W86751  32.526  38.488  12.360
19684W        W86752  19.282  27.504  12.419
19685W        W86753  27.542  23.639  11.444
19686W        W86754   7.257  19.282   2.370
19687W        W86755  24.065  24.091  14.485
19688W        W86756  12.814  26.205  10.492
19689W        W86757  38.875   6.183   1.317
19690W        W86758  22.735  10.315   2.687
19691W        W86759  28.139   0.447   2.795
19692W        W86760   3.305  44.289   0.264
19693W        W86761  32.591  27.564  10.406
19694W        W86762   6.853   2.283   4.620
19695W        W86763   5.862  36.931  10.966
19696W        W86764   6.835  14.710   2.830
19697W        W86765  29.472  38.545   3.155
19698W        W86766  30.509   6.687   3.694
19699W        W86767  33.884  27.491  10.545
19700W        W86768  34.991  24.583  10.498
19701W        W86769  18.100  13.216  13.493
19702W        W86770  37.963  40.347  11.585
19703W        W86771  17.584  31.086  13.887
19704W        W86772  20.671  20.538   4.121
19705W        W86773   1.469  38.043  12.442
19706W        W86774  14.125   1.970  12.052
19707W        W86775   2.264  36.466   4.224
19708W        W86776   8.288  10.644  14.343
19709W        W86777  29.616  20.685  10.490
19710W        W86778   7.666  10.372   4.159
19711W        W86779  34.106  17.587  14.772
19712W        W86780  15.693  18.701   2.394
19713W        W86781   4.288   4.232  12.344
19714W        W86782  22.636   6.838   2.415
19715W        W86783  26.665  14.642  12.953
19716W        W86784   7.886  11.631  10.598
19717W        W86785  37.979  23.001   1.323
19718W        W86786  10.189  33.466   1.430
19719W        W86787  44.380  38.433   3.688
19720W        W86788  42.310  22.222   3.384
19721W        W86789  18.652  11.741  13.327
19722W        W86790  19.627  26.970   2.672
19723W        W86791   0.837  15.578   1.876
19724W        W86792   7.312  24.046   2.358
19725W        W86793   1.732  10.720  10.941
19726W        W86794  16.683  25.480   0.259
19727W        W86795   8.898   2.780   2.885
19728W        W86796  41.308  25.178  11.398
19729W        W86797  36.002  30.988   4.167
19730W        W86798   8.895  27.156  10.447
19731W        W86799  43.408  40.889   1.290
19732W        W86800   8.360  41.958  10.488
19733W        W86801   5.752  42.376   4.613
19734W        W86802  25.676   2.763   2.820
19735W        W86803  31.429  36.886   3.716
19736W        W86804  34.062  39.941   4.747
19737W        W86805   6.256  10.232   2.350
19738W        W86806  25.661  28.986   2.210
19739W        W86807  30.135  18.115  11.592
19740W        W86808  16.786   6.217   0.428
19741W        W86809  25.068  37.967   4.650
19742W        W86810  17.557  26.037  11.010
19743W        W86811  33.069   7.176  12.080
19744W        W86812  27.063  43.513  14.339
19745W        W86813   4.790  11.258  10.465
19746W        W86814   0.480   0.743   3.839
19747W        W86815  13.218   2.953  12.369
19748W        W86816  19.216  33.102  10.509
19749W        W86817  16.168  28.497  12.000
19750W        W86818   7.682   5.843  10.632
19751W        W86819  41.480  40.986   2.321
19752W        W86820   2.315  24.121   1.284
19753W        W86821  42.353  32.980   3.274
19754W        W86822   7.190  31.642  12.887
19755W        W86823   2.881  36.557   4.635
19756W        W86824  39.853  38.011  11.564
19757W        W86825  22.214  20.138  14.877
19758W        W86826   9.646  44.415   2.419
19759W        W86827  31.460  19.566   4.729
19760W        W86828  29.523  12.355   4.158
19761W        W86829  18.137  26.531  12.996
19762W        W86830  43.019   6.695   2.798
19763W        W86831  44.941  17.149   2.865
19764W        W86832  26.593   4.708  12.522
19765W        W86833  16.308  21.525  12.968
19766W        W86834   6.805  31.045   3.293
19767W        W86835  15.686   4.802  14.823
19768W        W86836  35.499  27.964   0.334
19769W        W86837  30.997  10.173  13.008
19770W        W86838  15.317  26.136  11.860
19771W        W86839  30.064   3.378  13.809
19772W        W86840  39.323   8.239  10.532
19773W        W86841  23.620   0.331  10.416
19774W        W86842   6.311  17.179  14.999
19775W        W86843  24.008   2.239   4.734
19776W        W86844  36.516  12.349   1.750
19777W        W86845   3.893  11.770   3.787
19778W        W86846   7.192  42.932   4.318
19779W        W86847  24.093   2.959  11.003
19780W        W86848  33.507   3.857   3.253
19781W        W86849   9.737  31.150  13.380
19782W        W86850  28.167  40.388  12.562
19783W        W86851  32.040  29.936  12.826
19784W        W86852  10.751   4.759  10.998
19785W        W86853   2.332  16.315   1.395
19786W        W86854  10.703  15.613  13.840
19787W        W86855  20.031  32.462   3.805
19788W        W86856   6.360  40.983  10.974
19789W        W86857  25.661  29.157  13.367
19790W        W86858  14.827  37.357  12.946
19791W        W86859  35.047   6.838  14.356
19792W        W86860  38.567  33.464  13.494
19793W        W86861  10.329  43.447   2.857
19794W        W86862  36.904  25.156   2.335
19795W        W86863  13.271  34.022   4.249
19796W        W86864  17.216   7.768   4.819
19797W        W86865  40.547  44.411   3.181
19798W        W86866  19.646  20.123  10.953
19799W        W86867  18.765  37.059   2.348
19800W        W86868  43.372  44.821  11.558
19801W        W86869  17.244   0.928   3.207
19802W        W86870  25.490   4.367   0.396
19803W        W86871  18.644  38.547  12.415
19804W        W86872  26.584  22.010   1.427
19805W        W86873   8.772  35.895   1.363
19806W        W86874  28.524  35.432  11.956
19807W        W86875  36.869  41.417   2.385
19808W        W86876  24.627  43.779   3.373
19809W        W86877   9.725  32.016  10.558
19810W        W86878   5.887  35.875   2.708
19811W        W86879  32.396  25.171   0.908
19812W        W86880   3.338  15.111   3.727
19813W        W86881  16.640   1.291   3.170
19814W        W86882  23.711   5.768   4.284
19815W        W86883  33.529  15.676   4.241
19816W        W86884   3.778   6.270  14.885
19817W        W86885   6.257  30.083   4.123
19818W        W86886  43.359  35.559   4.142
19819W        W86887  19.653   3.234  14.864
19820W        W86888  35.027  41.960   3.356
19821W        W86889  43.864  40.813  14.504
19822W        W86890  25.212   5.802   1.813
19823W        W86891  28.093  44.871   2.301
19824W        W86892  17.106  15.275   3.227
19825W        W86893  33.953   6.822   0.375
19826W        W86894  11.317  35.949   2.251
19827W        W86895  43.901  22.091  12.837
19828W        W86896   8.814  18.279  12.363
19829W        W86897  21.661  24.574  14.027
19830W        W86898  19.727  20.698  13.020
19831W        W86899  32.085  31.966   2.783
19832W        W86900  34.110  17.691   3.806
19833W        W86901  11.128  28.943  14.933
19834W        W86902  15.715  30.659   0.434
19835W        W86903  22.232  19.720  11.857
19836W        W86904  25.142   7.892   5.090
19837W        W86905  36.960  41.952  14.374
19838W        W86906  35.984  31.497  12.568
19839W        W86907  16.796   7.232  12.449
19840W        W86908   1.310   5.326   2.198
19841W        W86909  18.648  19.046   2.386
19842W        W86910  38.379  31.610  13.972
19843W        W86911  12.700   4.764  12.433
19844W        W86912  38.351  44.951   2.802
19845W        W86913  33.616  25.545  14.010
19846W        W86914  25.043  28.586  14.409
19847W        W86915  28.680  38.338  11.004
19848W        W86916  13.823  44.900  14.759
19849W        W86917  32.097  24.649  12.990
19850W        W86918  18.568   4.720   5.300
19851W        W86919  13.711  44.334  12.873
19852W        W86920   4.332  10.764   3.359
19853W        W86921   6.290  29.470   3.849
19854W        W86922  15.696  19.124   2.250
19855W        W86923   8.655  22.578  12.970
19856W        W86924  36.398  35.989  14.442
19857W        W86925  30.546  18.784  14.318
19858W        W86926   2.297   0.340  13.918
19859W        W86927  44.884  29.109   1.400
19860W        W86928  29.152  36.917   0.369
19861W        W86929  21.614  24.014   3.301
19862W        W86930  31.966  29.667  11.981
19863W        W86931  14.611  17.672   4.631
19864W        W86932  31.965  32.968  12.890
19865W        W86933   3.812  30.472  11.887
19866W        W86934  39.064  26.203   2.715
19867W        W86935  31.038  31.576   2.326
19868W        W86936  28.652  26.089   4.619
19869W        W86937  18.680  32.950  13.846
19870W        W86938  14.334  27.621   4.237
19871W        W86939   1.480  21.064   4.733
19872W        W86940   6.763   5.412   2.375
19873W        W86941  18.270  40.389  12.046
19874W        W86942  26.606  25.044  10.464
19875W        W86943  18.176  39.943   1.872
19876W        W86944  40.797  17.213   2.869
19877W        W86945  31.024   0.779  14.370
19878W        W86946  20.146  13.198   1.877
19879W        W86947  35.077  42.455   0.480
19880W        W86948  28.583   6.216  14.484
19881W        W86949  32.989  21.533   3.854
19882W        W86950   7.310  33.516   0.954
19883W        W86951  24.715   1.926  13.932
19884W        W86952  20.580   9.696  11.520
19885W        W86953  13.266  39.947   2.859
19886W        W86954  39.889  21.520   3.248
19887W        W86955  44.939  13.795   0.908
19888W        W86956  21.688   2.385  12.544
19889W        W86957  25.150   8.810   3.809
19890W        W86958  12.801  13.284  14.821
19891W        W86959  36.558   0.983  12.420
19892W        W86960  44.331  12.161   1.223
19893W        W86961  44.438  22.685   4.706
19894W        W86962  24.996  36.992   3.800
19895W        W86963  27.589   7.309  14.879
19896W        W86964  24.702  33.011  12.555
19897W        W86965  43.457  30.650   4.190
19898W        W86966   4.246  23.051   0.432
19899W        W86967   3.416   6.327  12.418
19900W        W86968  30.029  14.179   0.259
19901W        W86969  27.999  20.631   0.894
19902W        W86970  17.248  41.369  11.015
19903W        W86971   4.349   9.782   0.244
19904W        W86972  21.645  22.171   4.281
19905W        W86973  12.193   9.802  11.066
19906W        W86974  17.248  25.559  13.946
19907W        W86975   5.746   7.718   0.445
19908W        W86976  20.196  26.973  14.777
19909W        W86977   1.961  42.823  13.427
19910W        W86978  35.071  39.858   2.239
19911W        W86979   0.261  38.541   1.285
19912W        W86980  18.163  26.578  13.433
19913W        W86981   2.790   4.216  11.864
19914W        W86982  32.105  18.574  10.586
19915W        W86983  14.800  43.812   3.350
19916W        W86984  39.472  12.216  11.862
19917W        W86985  44.868  27.657   3.738
19918W        W86986  32.085  24.196   4.787
19919W        W86987  22.103  19.581  13.369
19920W        W86988  37.916  33.081  10.475
19921W        W86989   3.294  39.373   0.396
19922W        W86990   0.980  38.949   0.463
19923W        W86991  30.940  11.785  12.446
19924W        W86992  26.134   1.418  13.493
19925W        W86993  38.509  33.008   4.119
19926W        W86994  17.756  13.649   4.125
19927W        W86995  36.398  16.158   1.439
19928W        W86996  26.022  20.273  10.519
19929W        W86997   3.719  17.263   4.340
19930W        W86998   0.383  19.690   0.403
19931W        W86999  13.161  25.564   4.820
19932W        W87000  21.690  18.651   4.134
19933W        W87001  33.607   6.404  11.386
19934W        W87002   3.817  18.579   3.195
19935W        W87003  40.361  21.684  11.867
19936W        W87004  29.143  16.729   2.361
19937W        W87005  12.339  26.120   0.755
19938W        W87006  12.182  18.202  11.595
19939W        W87007  32.955   9.317   4.297
19940W        W87008  26.645   6.273   3.820
19941W        W87009  31.427  18.274   2.692
19942W        W87010   7.183  20.227  14.498
19943W        W87011  37.000   3.243   2.717
19944W        W87012  18.581  30.026  14.414
19945W        W87013  16.146  24.650  11.481
19946W        W87014  17.693  31.549   4.298
19947W        W87015   0.257  22.593   1.702
19948W        W87016  32.561   7.823   4.338
19949W        W87017  38.825  15.670   4.672
19950W        W87018  29.656  42.871  10.038
19951W        W87019  40.487   9.730   1.441
19952W        W87020  39.535   6.239  10.443
19953W        W87021  23.683   4.828   3.240
19954W        W87022  40.859  27.492  14.329
19955W        W87023  33.082  34.393  10.416
19956W        W87024  25.158  20.059  12.087
19957W        W87025   4.737  24.719  12.373
19958W        W87026  31.546  31.945   3.237
19959W        W87027  27.996   4.764   3.338
19960W        W87028  35.958  35.998  13.914
19961W        W87029  39.053   5.216  13.473
19962W        W87030   7.402  26.192  13.431
19963W        W87031  27.677  13.720   4.209
19964W        W87032  42.287  32.580   0.941
19965W        W87033  39.851  10.683  11.519
19966W        W87034  23.113  31.109   4.116
19967W        W87035  11.329  38.345  12.430
19968W        W87036  11.315  34.059   2.348
19969W        W87037   6.336  25.581   4.601
19970W        W87038  23.017  34.511   3.804
19971W        W87039  16.577   3.414   3.195
19972W        W87040  39.845  12.698   3.730
19973W        W87041  16.304  37.555  12.878
19974W        W87042   1.275  13.830   0.937
19975W        W87043  44.437  20.104   2.387
19976W        W87044  21.215  18.287   3.311
19977W        W87045  31.912  34.467  11.407
19978W        W87046   2.858   0.414  10.449
19979W        W87047  11.259   9.294   1.713
19980W        W87048  42.394  39.548   0.962
19981W        W87049  44.477  33.923   2.384
19982W        W87050   6.679  43.288  14.962
19983W        W87051  27.106   2.875   1.365
19984W        W87052  37.948   5.855   0.820
19985W        W87053  24.129  25.664  14.967
19986W        W87054  22.718  35.589  14.955
19987W        W87055  22.251  26.483  12.856
19988W        W87056  26.189  15.302  12.461
19989W        W87057  18.657  36.462   3.729
19990W        W87058   8.898  10.224   1.330
19991W        W87059   2.832  11.836  14.396
19992W        W87060  32.621  36.908   2.391
19993W        W87061  23.733  42.860  10.962
19994W        W87062  18.562   3.826  11.526
19995W        W87063   6.767  22.008  14.516
19996W        W87064   4.921   5.346   3.188
19997W        W87065  24.213  19.666  11.569
19998W        W87066  41.044  43.019  13.864
19999W        W87067  10.677  40.376   1.218
20000W        W87068   2.926  18.164  13.925
20001W        W87069  24.619  16.727   0.793
20002W        W87070  36.444  19.600   2.703
20003W        W87071  21.544  31.900  12.521
20004W        W87072   0.913  19.604   3.630
20005W        W87073   3.828  13.143   3.664
20006W        W87074   1.827  32.507   4.279
20007W        W87075   1.947   2.423   2.360
20008W        W87076  42.777  44.875   4.261
20009W        W87077  35.959  33.950  11.454
20010W        W87078   2.297   6.342  14.296
20011W        W87079  29.045  33.049  11.451
20012W        W87080  14.210   5.779   1.913
20013W        W87081  16.732  15.699   2.836
20014W        W87082  42.979  21.217   3.153
20015W        W87083  19.175  30.030   3.198
20016W        W87084  34.438  33.589  14.021
20017W        W87085   9.167  13.310  13.892
20018W        W87086  21.172  34.511   4.809
20019W        W87087  12.145  33.049  13.366
20020W        W87088  33.603  44.397  10.556
20021W        W87089  29.462  43.011   3.674
20022W        W87090  26.156   1.457  14.928
20023W        W87091   2.958  40.341  14.336
20024W        W87092  30.566  19.541   2.198
20025W        W87093  33.908   9.665  10.974
20026W        W87094  15.785  30.655   2.223
20027W        W87095  12.162  34.390  13.313
20028W        W87096  15.180  36.459   3.218
20029W        W87097  19.252   6.237  10.451
20030W        W87098  15.747  17.200   0.817
20031W        W87099  30.512  16.583  12.420
20032W        W87100  10.694   3.256   4.733
20033W        W87101   0.876  29.623   1.439
20034W        W87102   9.216  38.063   0.344
20035W        W87103  34.564  16.629  12.404
20036W        W87104  44.848  21.110  11.492
20037W        W87105   3.374  30.068   0.302
20038W        W87106  29.465  43.344  11.989
20039W        W87107  14.752   0.767  10.531
20040W        W87108  38.531  40.474  12.868
20041W        W87109  36.042  21.112  11.952
20042W        W87110  11.336  26.094   0.796
20043W        W87111  23.668   9.215  14.464
20044W        W87112  27.192  27.032  10.941
20045W        W87113   3.324  27.552  12.510
20046W        W87114  23.727  15.760   2.902
20047W        W87115  44.778  32.635  12.008
20048W        W87116  20.680  21.532  13.848
20049W        W87117  35.001   4.904   4.211
20050W        W87118  35.376  11.180  13.921
20051W        W87119   5.363   2.323  12.466
20052W        W87120  25.196  18.258   4.715
20053W        W87121  36.350  42.013   1.804
20054W        W87122  22.549   4.884  12.346
20055W        W87123  44.445  12.227  12.529
20056W        W87124  39.053  37.427   0.963
20057W        W87125   7.355  25.165   3.195
20058W        W87126   4.832  28.484   4.790
20059W        W87127  24.096  33.569  12.437
20060W        W87128   1.402  22.178   0.402
20061W        W87129  16.628  42.997   3.152
20062W        W87130  15.661   6.414  13.462
20063W        W87131  20.571  38.990  13.411
20064W        W87132  27.553  17.194  10.635
20065W        W87133  36.534  35.522  13.952
20066W        W87134  14.153  26.971  10.961
20067W        W87135  39.041   4.430   0.262
20068W        W87136  25.964   5.855  11.968
20069W        W87137  22.127  15.206   4.159
20070W        W87138  14.654  29.136   1.907
20071W        W87139  31.076  34.917  14.829
20072W        W87140   3.810   9.293   4.605
20073W        W87141  31.986  13.296  14.388
20074W        W87142  43.861   8.696  11.602
20075W        W87143  21.212  19.556  10.131
20076W        W87144   7.308  43.487   0.435
20077W        W87145   3.876  40.026   2.710
20078W        W87146  22.611   4.352  12.521
20079W        W87147   7.861   3.230  11.578
20080W        W87148  30.594   0.765  12.386
20081W        W87149  29.549  17.736   0.401
20082W        W87150   6.404  22.116  13.867
20083W        W87151  37.410  32.143   0.290
20084W        W87152  36.929  10.349   2.876
20085W        W87153  29.960  41.385  11.083
20086W        W87154   0.473   6.234   0.922
20087W        W87155   0.880   7.217   3.327
20088W        W87156  17.568  31.466   1.883
20089W        W87157  39.932  15.242  10.983
20090W        W87158  22.010  14.653   3.331
20091W        W87159   3.317  43.782  14.976
20092W        W87160   2.325  11.362  12.344
20093W        W87161  38.427   0.832   3.177
20094W        W87162   2.304  29.513   0.869
20095W        W87163  37.375   1.294  12.545
20096W        W87164  23.161  27.086  14.464
20097W        W87165  33.564  12.344   0.303
20098W        W87166   4.896  40.378   2.348
20099W        W87167  21.564  13.262  13.989
20100W        W87168  19.098  44.863   4.687
20101W        W87169  10.846  11.311  12.555
20102W        W87170  10.169  43.817   4.325
20103W        W87171   4.384   5.905  13.870
20104W        W87172   1.907  20.143  13.822
20105W        W87173  18.281  17.240  11.491
20106W        W87174   2.821   2.448  10.457
20107W        W87175   8.356  27.558  12.523
20108W        W87176  16.757  22.149   5.656
20109W        W87177  11.197  44.842   3.836
20110W        W87178  11.338   2.300  13.831
20111W        W87179  43.368  34.940  12.882
20112W        W87180  18.646   7.904   1.738
20113W        W87181   0.952  23.577  12.082
20114W        W87182  33.100   4.763  12.068
20115W        W87183   1.453  25.142   0.276
20116W        W87184  35.958  26.129   1.848
20117W        W87185  42.402   4.884  12.021
20118W        W87186  30.528   9.309  13.064
20119W        W87187  32.016   9.832  12.469
20120W        W87188  26.468  25.164   3.672
20121W        W87189  19.766  44.828   4.182
20122W        W87190  25.024   8.346   0.920
20123W        W87191  41.478  30.128   4.305
20124W        W87192  30.917   8.898  11.856
20125W        W87193   9.262  44.424  14.026
20126W        W87194   9.877   5.377   1.904
20127W        W87195   7.251  31.420  13.526
20128W        W87196  42.778  12.638  12.077
20129W        W87197  19.768  19.611  14.949
20130W        W87198  16.280  16.200  14.963
20131W        W87199  39.335  14.650  14.851
20132W        W87200  26.636  24.596  13.830
20133W        W87201  37.860  41.473   2.771
20134W        W87202  29.031  40.501  10.952
20135W        W87203   6.381   9.739   3.715
20136W        W87204  17.758  17.679  14.361
20137W        W87205  42.792  39.970   3.324
20138W        W87206  19.238  40.431   0.373
20139W        W87207  14.597  32.888   4.295
20140W        W87208  29.595  13.183   4.139
20141W        W87209  30.575  25.157   1.836
20142W        W87210  39.841  29.953   0.932
20143W        W87211  17.797   5.696  11.466
20144W        W87212  29.450   0.859   4.767
20145W        W87213  16.229  42.895  12.033
20146W        W87214  36.372  12.733  14.866
20147W        W87215  22.206   2.906   4.197
20148W        W87216  35.037  30.516   0.356
20149W        W87217  24.105   9.284   3.836
20150W        W87218  29.042  42.467   1.750
20151W        W87219   6.697   1.409   0.334
20152W        W87220   2.403  35.413   0.424
20153W        W87221   8.303   7.200  14.901
20154W        W87222  19.097   3.903   2.267
20155W        W87223  43.010  40.930   3.216
20156W        W87224  36.010  20.057   2.417
20157W        W87225  38.434  39.407   4.156
20158W        W87226   1.434  37.418   3.839
20159W        W87227  30.926  39.005   2.240
20160W        W87228  20.568   5.254   2.281
20161W        W87229  43.922   1.242  11.086
20162W        W87230   3.438  10.224   0.947
20163W        W87231  23.647   8.795  12.049
20164W        W87232  43.898  29.975  14.829
20165W        W87233  16.139  30.035  14.479
20166W        W87234  43.850   0.969   3.731
20167W        W87235  30.658  18.563   3.220
20168W        W87236   8.661  28.577  14.508
20169W        W87237  25.043  14.189   3.333
20170W        W87238  33.406  26.539   2.751
20171W        W87239   9.825   8.274  14.007
20172W        W87240  35.580  18.295  12.373
20173W        W87241  24.142  39.334   3.717
20174W        W87242  16.188  25.502   2.696
20175W        W87243   5.384  13.600   0.430
20176W        W87244  36.913  26.960  13.900
20177W        W87245   1.416  38.929   1.816
20178W        W87246  13.334  37.022   1.360
20179W        W87247   3.760  34.601  11.939
20180W        W87248  44.862  43.910  13.912
20181W        W87249  41.423  24.488   4.317
20182W        W87250  16.685  38.064   2.792
20183W        W87251  27.610   7.817   0.739
20184W        W87252  10.636  35.856   3.754
20185W        W87253  14.745   8.722   2.726
20186W        W87254   4.709  23.156   3.764
20187W        W87255   0.977  29.563   5.308
20188W        W87256   4.901  38.050  10.494
20189W        W87257  36.475  25.067  12.834
20190W        W87258  14.732  10.141   3.846
20191W        W87259   0.923  40.524   2.195
20192W        W87260  17.132  25.217  10.629
20193W        W87261  21.107  11.790   5.128
20194W        W87262  35.462  15.202   0.429
20195W        W87263  18.118  31.413  10.056
20196W        W87264   0.442  18.560  11.381
20197W        W87265  27.130   0.791   4.118
20198W        W87266  16.308  14.100   4.149
20199W        W87267  17.592   9.371   4.770
20200W        W87268  24.146  43.965   3.692
20201W        W87269  21.118   1.444  12.501
20202W        W87270  43.005  42.975  11.964
20203W        W87271   1.339  24.599   0.340
20204W        W87272  18.256   8.281  14.937
20205W        W87273  16.152   4.843  11.507
20206W        W87274  29.460   4.799   2.232
20207W        W87275   0.420  28.058  11.978
20208W        W87276  33.592  15.628   1.311
20209W        W87277  18.726  33.965   4.775
20210W        W87278  36.917  15.815  11.935
20211W        W87279  29.996  22.232   0.822
20212W        W87280   1.964  25.506  13.015
20213W        W87281  30.072  13.692  14.921
20214W        W87282   5.714  16.078   0.338
20215W        W87283  36.390  44.921   2.212
20216W        W87284  31.439  39.536   2.317
20217W        W87285  41.435   4.332  11.880
20218W        W87286  27.059   5.236  13.321
20219W        W87287  14.727  27.127  14.996
20220W        W87288  16.251  44.967  14.785
20221W        W87289  39.554  11.679  14.917
20222W        W87290  38.959  11.719   1.437
20223W        W87291   7.809  34.541   4.314
20224W        W87292   9.701  39.955   2.202
20225W        W87293  23.083  35.914  14.025
20226W        W87294  41.909  17.307  13.993
20227W        W87295  32.990   0.459  10.920
20228W        W87296  23.169  29.098  10.986
20229W        W87297  14.186  38.569  10.601
20230W        W87298  16.079  43.848  11.913
20231W        W87299  24.710  26.472  12.495
20232W        W87300   6.228   0.409   3.269
20233W        W87301  27.176  36.854  13.979
20234W        W87302   5.265  25.058  14.912
20235W        W87303  14.287  28.077  12.944
20236W        W87304  41.830   4.423  14.358
20237W        W87305  13.619   1.363   4.248
20238W        W87306  40.417   7.763   0.350
20239W        W87307  29.444   1.861   1.241
20240W        W87308  39.963  12.689  12.555
20241W        W87309  42.871  41.809  14.002
20242W        W87310  40.875   4.217  14.948
20243W        W87311  30.607  25.518   0.754
20244W        W87312  10.159  27.987  10.913
20245W        W87313   1.882  38.400   0.758
20246W        W87314  35.921  18.068  13.359
20247W        W87315   6.837  15.168   0.368
20248W        W87316  18.770  39.423   4.309
20249W        W87317  44.803  26.191   1.902
20250W        W87318  39.943  28.483  11.121
20251W        W87319   8.852  17.228  14.309
20252W        W87320   0.758  12.333   3.812
20253W        W87321  14.786  35.403   3.731
20254W        W87322   1.267  40.545  13.371
20255W        W87323   4.792  19.064  11.117
20256W        W87324   8.403   6.194  12.017
20257W        W87325   7.339   7.414   4.319
20258W        W87326  14.771   1.245  13.433
20259W        W87327   5.361   5.205   3.231
20260W        W87328  21.202  28.980  10.894
20261W        W87329  34.552  31.459   3.249
20262W        W87330  36.538  15.580   3.847
20263W        W87331   2.784  44.418   0.881
20264W        W87332  13.311  10.723   1.292
20265W        W87333  13.735  35.006   4.707
20266W        W87334   0.910  40.927  14.025
20267W        W87335  26.197  38.037   2.382
20268W        W87336  27.947  34.604   3.792
20269W        W87337  25.060  33.917  11.049
20270W        W87338  11.685  39.995  10.906
20271W        W87339  21.723  14.647   4.137
20272W        W87340  21.067  41.412  10.078
20273W        W87341  29.630   7.669   2.182
20274W        W87342  39.431   1.402   4.348
20275W        W87343  18.274   3.358   2.741
20276W        W87344  10.277  24.494  12.972
20277W        W87345   9.791  35.003  11.447
20278W        W87346  17.201  19.720   4.702
20279W        W87347  40.528  17.572  12.443
20280W        W87348  44.310  15.135   1.821
20281W        W87349   9.806  17.716  14.001
20282W        W87350  39.331  17.586  10.504
20283W        W87351  11.149  38.472  12.853
20284W        W87352  40.549  23.660   3.171
20285W        W87353  18.641  37.049   1.370
20286W        W87354  21.536  19.667   1.364
20287W        W87355  13.258  40.499   4.255
20288W        W87356  13.111  44.378  13.046
20289W        W87357  18.687  31.503   3.178
20290W        W87358   1.365  40.871   2.184
20291W        W87359   4.778  11.297  14.991
20292W        W87360  23.496  42.969   0.433
20293W        W87361  24.527  40.036  11.909
20294W        W87362  22.527  10.278  10.420
20295W        W87363  41.444  44.379   4.601
20296W        W87364  15.790  18.575  14.389
20297W        W87365  36.076  29.146  14.283
20298W        W87366  33.533  28.005   2.220
20299W        W87367  19.241  26.527   3.268
20300W        W87368  33.603   0.884   0.963
20301W        W87369  28.044   7.904  14.406
20302W        W87370   3.435  11.291  11.412
20303W        W87371  12.648   5.762   0.386
20304W        W87372  44.324  24.058   1.228
20305W        W87373   2.941  26.702   3.380
20306W        W87374  31.474  13.275  14.427
20307W        W87375  37.087  35.017  12.085
20308W        W87376  34.925   3.326  14.419
20309W        W87377  39.925   7.276   1.293
20310W        W87378  31.600  14.679   0.804
20311W        W87379  33.557   1.978   4.748
20312W        W87380  18.254  42.930  11.007
20313W        W87381   1.866   7.867   3.344
20314W        W87382  19.191   1.820   0.388
20315W        W87383  11.356   0.286   4.312
20316W        W87384  31.930  29.454  13.852
20317W        W87385  18.556  39.961   2.716
20318W        W87386  23.591  41.399   2.676
20319W        W87387  34.438  23.513  10.606
20320W        W87388  13.776  19.708  11.504
20321W        W87389  17.207  13.823  12.463
20322W        W87390   0.490   8.355   1.223
20323W        W87391  31.977  43.409  14.775
20324W        W87392   8.347   9.836  12.982
20325W        W87393  21.698   3.415   5.223
20326W        W87394  36.577   3.889  14.969
20327W        W87395   9.780  24.545  12.499
20328W        W87396  42.941  33.081   2.731
20329W        W87397  42.905   6.326   3.153
20330W        W87398  42.390   2.931   3.680
20331W        W87399   5.275  17.665   0.334
20332W        W87400   6.802  40.362  13.987
20333W        W87401   8.666  14.835  12.574
20334W        W87402  33.123  23.624  14.014
20335W        W87403  25.492  43.843  13.843
20336W        W87404   8.783  29.136   0.847
20337W        W87405  26.104  44.759  14.373
20338W        W87406   3.281   2.344  12.860
20339W        W87407   8.752  40.829  10.424
20340W        W87408  44.334  13.689  13.034
20341W        W87409  39.858   3.421   3.857
20342W        W87410  41.321  16.697   4.770
20343W        W87411   7.302  11.372  12.027
20344W        W87412  33.119  43.365  12.929
20345W        W87413  25.713   4.858   3.339
20346W        W87414   3.456   7.182  13.992
20347W        W87415  34.441   3.373   3.824
20348W        W87416  34.566  28.632   4.799
20349W        W87417  12.646   0.948  13.059
20350W        W87418  26.119  34.575   3.247
20351W        W87419  12.350  36.579  14.024
20352W        W87420  25.542  15.265   2.700
20353W        W87421   5.902  22.123   4.332
20354W        W87422   1.394  14.320   1.806
20355W        W87423   9.350  37.535   3.152
20356W        W87424   2.900   6.369   4.658
20357W        W87425  44.934   2.946  14.497
20358W        W87426  24.008   8.810  14.384
20359W        W87427  37.375  44.309   3.192
20360W        W87428   4.279  12.271   2.204
20361W        W87429  43.866  37.470   3.787
20362W        W87430  11.373  39.552   0.873
20363W        W87431  22.044   4.887   3.631
20364W        W87432  35.924  18.297   3.748
20365W        W87433  19.550   9.852   0.727
20366W        W87434   9.260   3.756  13.036
20367W        W87435  29.434  29.568   2.872
20368W        W87436   9.251  10.198  10.011
20369W        W87437  21.536  20.738   3.663
20370W        W87438  18.648  10.188   0.341
20371W        W87439  14.156   8.308   3.815
20372W        W87440  18.143  26.061   3.153
20373W        W87441  15.604  31.537  10.424
20374W        W87442  38.433   3.246  10.594
20375W        W87443  35.431   1.827   0.311
20376W        W87444   1.237  23.227  14.030
20377W        W87445  16.604  34.578   3.841
20378W        W87446  28.981  39.956  14.287
20379W        W87447   7.698  15.776  12.882
20380W        W87448   3.400   3.924  14.364
20381W        W87449   2.948  24.582  11.387
20382W        W87450  38.853  18.132   0.352
20383W        W87451  34.589   9.802   2.184
20384W        W87452  26.702   3.932   3.210
20385W        W87453  23.219  26.200   4.768
20386W        W87454  27.078  37.838  10.941
20387W        W87455  24.557  14.159  14.426
20388W        W87456   8.198  44.835  13.398
20389W        W87457  10.286  33.386  14.499
20390W        W87458  22.055   6.795   2.702
20391W        W87459  15.325  10.676  14.289
20392W        W87460  28.440  30.609  13.878
20393W        W87461  21.626   6.678   0.771
20394W        W87462  31.553  10.207  11.950
20395W        W87463  44.372  35.096  13.878
20396W        W87464  30.499  14.327   1.819
20397W        W87465  33.512   1.797   0.904
20398W        W87466  43.957  27.181  10.642
20399W        W87467  23.704   8.172   4.744
20400W        W87468  41.455  11.126   3.829
20401W        W87469  32.936  20.626  11.372
20402W        W87470  17.118  14.798   3.306
20403W        W87471  28.496   4.388  12.954
20404W        W87472   5.223  26.992  11.877
20405W        W87473  34.464  35.068   1.251
20406W        W87474  21.569  44.896  13.949
20407W        W87475  28.465  40.035  13.318
20408W        W87476  14.164  31.501   4.291
20409W        W87477   9.201  41.463   9.929
20410W        W87478  37.472  18.075  13.420
20411W        W87479  30.152  26.202  14.830
20412W        W87480  18.563  13.701  11.438
20413W        W87481  14.332   2.416  12.435
20414W        W87482  38.461  34.518   4.685
20415W        W87483  15.141  39.906  14.991
20416W        W87484  36.070   1.871  13.413
20417W        W87485  27.654  36.869  13.890
20418W        W87486  36.379  16.790   0.923
20419W        W87487  36.027  24.217   3.321
20420W        W87488  11.315  30.632   3.218
20421W        W87489  41.954  44.281   2.777
20422W        W87490  42.921  22.136   0.864
20423W        W87491  37.052   0.345  14.510
20424W        W87492  35.047   0.342   2.409
20425W        W87493  16.174  44.884   1.747
20426W        W87494  41.038  25.123   1.920
20427W        W87495  13.271  28.602   3.278
20428W        W87496  31.629   9.769   2.752
20429W        W87497  34.875  22.500  14.972
20430W        W87498  31.454   5.412   2.369
20431W        W87499  43.393   5.228  14.479
20432W        W87500  11.149  22.600  12.954
20433W        W87501   7.889  41.413   4.134
20434W        W87502  42.829   5.330  10.896
20435W        W87503   0.823  10.169   1.809
20436W        W87504  17.258  36.538   3.636
20437W        W87505  41.926  39.029   3.362
20438W        W87506  34.010   2.331   4.309
20439W        W87507  42.484   2.827  14.357
20440W        W87508  19.593   5.809  14.024
20441W        W87509  19.600  10.308   0.935
20442W        W87510   8.766  16.736  14.946
20443W        W87511  10.174  19.101   4.272
20444W        W87512  17.244  41.506   4.246
20445W        W87513  19.054   9.796   1.378
20446W        W87514  43.958  43.857   2.209
20447W        W87515   6.785  34.440  10.639
20448W        W87516  26.505  23.033   3.260
20449W        W87517  23.650  32.073   4.671
20450W        W87518  34.533  17.708  11.856
20451W        W87519  22.685   9.172  14.815
20452W        W87520  21.145  27.158  14.024
20453W        W87521  10.822   4.247  13.532
20454W        W87522  14.183  32.999   0.375
20455W        W87523  38.041  40.894   0.740
20456W        W87524  31.103  32.885  13.962
20457W        W87525   3.285  26.204   4.201
20458W        W87526  30.417  23.067  12.488
20459W        W87527  23.543  16.567   3.795
20460W        W87528   5.786  22.088  13.358
20461W        W87529  12.727  43.368  13.312
20462W        W87530  41.028  28.678   4.263
20463W        W87531   4.352   9.263  14.931
20464W        W87532  33.521   0.435   1.829
20465W        W87533   4.251  35.022  14.843
20466W        W87534  33.486   3.375  12.513
20467W        W87535  39.407  26.136  12.474
20468W        W87536  38.384  31.103  12.570
20469W        W87537  38.848   0.339  14.808
20470W        W87538   1.775  20.629   2.232
20471W        W87539  35.602   2.749  14.836
20472W        W87540  28.034  27.029  11.463
20473W        W87541  38.560  35.897   4.285
20474W        W87542  16.292   6.686   5.149
20475W        W87543  20.727  44.336  13.857
20476W        W87544   1.846  14.266  10.420
20477W        W87545  25.674  23.119   1.412
20478W        W87546  37.015   7.755  11.606
20479W        W87547  40.839   4.710   0.854
20480W        W87548  38.397  33.455  10.593
20481W        W87549  39.888   9.342   0.398
20482W        W87550  32.066  33.543   0.947
20483W        W87551   2.740   8.264  11.089
20484W        W87552  40.524   6.223  11.111
20485W        W87553  29.163  41.024   4.616
20486W        W87554  24.581  37.581  14.425
20487W        W87555  41.449  39.981   2.275
20488W        W87556  40.511  33.586  11.379
20489W        W87557  36.456  11.273   2.338
20490W        W87558   5.436  21.071   4.306
20491W        W87559  18.189  14.217  13.309
20492W        W87560   3.272  29.532  14.391
20493W        W87561   2.797   5.218  13.540
20494W        W87562  28.555  40.923   1.231
20495W        W87563  28.142  37.071  10.904
20496W        W87564  12.841  14.762  13.850
20497W        W87565   6.858  22.019   3.182
20498W        W87566  14.288  33.079  12.927
20499W        W87567  26.116  24.680   4.310
20500W        W87568  14.315  37.405   9.970
20501W        W87569  37.346   6.232  10.535
20502W        W87570   9.256  43.331   3.353
20503W        W87571  13.719  30.612  14.300
20504W        W87572  20.688  41.300   3.656
20505W        W87573  23.222  37.952  14.852
20506W        W87574   4.366   8.764   1.696
20507W        W87575  16.178  34.955   1.322
20508W        W87576  33.495  14.248  13.900
20509W        W87577  40.917  44.261  13.327
20510W        W87578  19.044  18.200   0.818
20511W        W87579   2.412  37.487   3.722
20512W        W87580  44.370  14.194  13.432
20513W        W87581  20.146  36.486   3.811
20514W        W87582  36.038   0.841  12.489
20515W        W87583  20.588  25.693   4.696
20516W        W87584  44.942  32.484   3.745
20517W        W87585  33.410  21.082   1.905
20518W        W87586   0.400  33.113   3.852
20519W        W87587   1.941  41.969   0.819
20520W        W87588   0.490  43.508   2.789
20521W        W87589   3.779  20.250   1.303
20522W        W87590  38.005  16.724   1.225
20523W        W87591  21.028  36.490   1.796
20524W        W87592  16.756  12.755   4.347
20525W        W87593  44.444   9.674   1.919
20526W        W87594  14.771  16.213  12.495
20527W        W87595  23.591  17.225   3.193
20528W        W87596  16.733  41.892   3.741
20529W        W87597   1.442  34.951  11.080
20530W        W87598  11.854  44.762   3.827
20531W        W87599  10.252  22.165  13.903
20532W        W87600  29.953  42.296   1.411
20533W        W87601  30.075  13.231  14.962
20534W        W87602   5.430   1.788  14.345
20535W        W87603  21.181   5.214  12.574
20536W        W87604  37.906  30.517  10.505
20537W        W87605  29.144  10.187  10.972
20538W        W87606  24.685  27.084   2.359
20539W        W87607  41.875  16.308   3.369
20540W        W87608  33.033  28.151  11.459
20541W        W87609  14.664  26.470   0.424
20542W        W87610  19.683   2.934   1.399
20543W        W87611  13.635  37.080  14.433
20544W        W87612  31.473  13.681  10.901
20545W        W87613   1.791  15.135  10.920
20546W        W87614   6.398   4.367   4.181
20547W        W87615  27.038  41.484  14.277
20548W        W87616  33.046  41.816   0.908
20549W        W87617  35.083  25.011  14.806
20550W        W87618  32.904  28.123  14.894
20551W        W87619  29.629  43.770   4.285
20552W        W87620   5.910  23.538   3.246
20553W        W87621  37.478  35.440   4.787
20554W        W87622  23.548  34.027   1.796
20555W        W87623  39.422   4.809   1.824
20556W        W87624   7.765  29.015  11.884
20557W        W87625  39.973  44.861   1.425
20558W        W87626   0.419  19.650   1.279
20559W        W87627   1.913   8.748   5.287
20560W        W87628   7.171   5.242   2.900
20561W        W87629  30.011   9.192   3.219
20562W        W87630  37.363  20.700  12.449
20563W        W87631  10.794  28.072  12.869
20564W        W87632   0.808  24.097  13.969
20565W        W87633  16.076  15.802  12.827
20566W        W87634   5.225  10.774   1.288
20567W        W87635   1.874  34.507  12.542
20568W        W87636  10.726  17.794   4.626
20569W        W87637  27.524  31.527  10.986
20570W        W87638  27.445  14.208  13.021
20571W        W87639  15.329  21.582  12.458
20572W        W87640   9.841  25.976  12.539
20573W        W87641  38.467  27.178  14.789
20574W        W87642  29.430  33.986  14.485
20575W        W87643   7.273  15.285  13.934
20576W        W87644  40.309  44.760   3.671
20577W        W87645   1.953  33.958  12.373
20578W        W87646  40.048  18.626  13.366
20579W        W87647  24.533  44.498   0.351
20580W        W87648  37.020  13.641   4.598
20581W        W87649  23.135  29.628  10.456
20582W        W87650  39.048  26.673   3.238
20583W        W87651   4.247  42.285  11.382
20584W        W87652  11.312  22.030  13.809
20585W        W87653  44.348  38.507  14.415
20586W        W87654  22.728  20.046   3.692
20587W        W87655  13.264  42.914   5.239
20588W        W87656   9.653   3.301   0.760
20589W        W87657  12.244   0.838   3.742
20590W        W87658  31.052  28.984  12.831
20591W        W87659  16.241  10.799   5.130
20592W        W87660  40.441  10.781   2.227
20593W        W87661  28.995   5.710   4.132
20594W        W87662  10.672  10.166   1.933
20595W        W87663  29.645  21.515   4.212
20596W        W87664  15.223  20.249   3.747
20597W        W87665  31.406  37.996  13.476
20598W        W87666  32.617  32.994  11.927
20599W        W87667  15.787  36.406   4.627
20600W        W87668  30.447  35.397   4.223
20601W        W87669  18.566   1.965  14.769
20602W        W87670  33.508   2.440  11.904
20603W        W87671  10.179  44.843  14.929
20604W        W87672  11.844   1.757   1.241
20605W        W87673  34.990  11.712   4.790
20606W        W87674  40.514  17.605  14.310
20607W        W87675  15.139  36.949  11.416
20608W        W87676   2.319  14.197   5.287
20609W        W87677  25.707  20.685   2.745
20610W        W87678  34.528   2.364  13.843
20611W        W87679  16.648  23.512  11.573
20612W        W87680  13.807   4.295  12.949
20613W        W87681   9.194  27.482   1.716
20614W        W87682  40.408  42.024   3.178
20615W        W87683  32.619  35.443   4.768
20616W        W87684   4.705  26.521   1.850
20617W        W87685  13.779   8.364   0.757
20618W        W87686  31.013   9.756   2.902
20619W        W87687   2.939  26.545   5.082
20620W        W87688  11.857   6.778   4.323
20621W        W87689  38.398  38.400  10.977
20622W        W87690  16.182  38.875   0.859
20623W        W87691  13.306  13.132  11.570
20624W        W87692  38.959  44.805  11.881
20625W        W87693   3.727  17.793  12.382
20626W        W87694  28.147  15.677  13.970
20627W        W87695  28.006   2.316  10.940
20628W        W87696  41.937  41.043   4.753
20629W        W87697   8.353  19.722   5.230
20630W        W87698   4.769  32.500   3.334
20631W        W87699  19.602  20.200   1.258
20632W        W87700  14.214  17.650  13.815
20633W        W87701  25.211  15.119  10.629
20634W        W87702  34.487  16.717   0.898
20635W        W87703  37.925  29.013  13.992
20636W        W87704   5.203   6.184  12.031
20637W        W87705  11.141  14.155  12.853
20638W        W87706  41.411  21.515   4.645
20639W        W87707  39.349  23.708   4.697
20640W        W87708   6.224  23.587  11.418
20641W        W87709  20.575  13.828  13.877
20642W        W87710  30.907   6.804   2.212
20643W        W87711  17.249  41.517   2.785
20644W        W87712  35.961  24.523  13.815
20645W        W87713  30.122  12.633   2.358
20646W        W87714  18.649  23.603   4.121
20647W        W87715  36.986  30.584  12.379
20648W        W87716  13.601  23.537   0.859
20649W        W87717  33.580  26.970   3.166
20650W        W87718   6.846  20.605   3.218
20651W        W87719  25.697   9.331   4.267
20652W        W87720  12.801  20.719   4.301
20653W        W87721   7.773  38.406   3.364
20654W        W87722  19.214  16.208  10.564
20655W        W87723  35.358   7.412   1.444
20656W        W87724  18.704  42.433  14.894
20657W        W87725   5.847   2.300   0.333
20658W        W87726  38.931  33.101   0.247
20659W        W87727  14.110  29.523  14.326
20660W        W87728  16.602   7.230   2.816
20661W        W87729  44.970  25.623  10.624
20662W        W87730  38.472   6.222   4.319
20663W        W87731  25.481   3.920  13.855
20664W        W87732   5.804  27.004   2.834
20665W        W87733  20.031   4.422  13.343
20666W        W87734  16.574  41.415  12.995
20667W        W87735  32.456  25.519  13.945
20668W        W87736  18.119  22.727   0.874
20669W        W87737   9.173  16.214  10.595
20670W        W87738  15.622  14.107  14.355
20671W        W87739   5.231  11.858  11.992
20672W        W87740  20.030   3.871  11.953
20673W        W87741  40.483  23.093   0.761
20674W        W87742  16.136  29.040   1.310
20675W        W87743  27.142  10.751  11.994
20676W        W87744  32.971  39.064   0.477
20677W        W87745  27.107  32.125   3.780
20678W        W87746  16.673  30.946  12.017
20679W        W87747   1.254  12.738   0.412
20680W        W87748  20.070  39.845   0.462
20681W        W87749  42.424   3.264   3.735
20682W        W87750  41.930   3.741  11.020
20683W        W87751  31.094  43.464   2.738
20684W        W87752  44.945  20.576  11.883
20685W        W87753  35.986   6.371  12.993
20686W        W87754   5.781  26.590  14.878
20687W        W87755   0.366  34.562   2.791
20688W        W87756  12.720  34.493  10.910
20689W        W87757  23.218  26.148  10.448
20690W        W87758  10.849  16.195  14.423
20691W        W87759  15.095  36.004  14.848
20692W        W87760  33.397   4.408   4.769
20693W        W87761  28.948  37.513  14.315
20694W        W87762  28.552  14.097   0.390
20695W        W87763  35.110  40.475   4.741
20696W        W87764   4.775  30.000  11.499
20697W        W87765   7.256  17.711  11.860
20698W        W87766  14.665  11.705   1.235
20699W        W87767  24.062  29.041   4.294
20700W        W87768   2.824  16.625   2.696
20701W        W87769   3.935  20.119  14.457
20702W        W87770  35.901  34.974   1.211
20703W        W87771  41.000  42.817   2.667
20704W        W87772  43.850  17.209   2.725
20705W        W87773  20.147  14.251   5.185
20706W        W87774  38.908  34.435  14.885
20707W        W87775  38.427  20.072  12.564
20708W        W87776  43.302  40.469  13.373
20709W        W87777  42.909   7.772   0.369
20710W        W87778  26.996  13.739  11.432
20711W        W87779  25.141  24.985   2.700
20712W        W87780  27.958  21.242   4.780
20713W        W87781  18.729   9.669  11.397
20714W        W87782  27.687  11.275  14.861
20715W        W87783  30.447  18.632  13.454
20716W        W87784   1.444   7.176   1.756
20717W        W87785  10.147  18.287  11.916
20718W        W87786  42.922  44.909  10.544
20719W        W87787   4.278  17.100   1.800
20720W        W87788   6.365  25.206   0.413
20721W        W87789   4.911  22.631   4.796
20722W        W87790  18.694  27.989   9.656
20723W        W87791   2.424  35.444  13.476
20724W        W87792  41.300  17.650  13.510
20725W        W87793  27.493  39.429  13.955
20726W        W87794  25.142  22.027  10.964
20727W        W87795   3.779  27.547   4.317
20728W        W87796  21.562   7.397  12.578
20729W        W87797   1.770   3.346   0.310
20730W        W87798  11.766   6.707   2.796
20731W        W87799  39.012  40.020   0.318
20732W        W87800  28.599   6.697   2.193
20733W        W87801   2.959  10.193  12.437
20734W        W87802  40.407  23.138   1.829
20735W        W87803  23.017  30.586   0.418
20736W        W87804  19.120  39.486   3.657
20737W        W87805  40.019  18.569  10.631
20738W        W87806  42.825  24.529   2.267
20739W        W87807   2.361  43.974  10.940
20740W        W87808  19.562  35.390   3.856
20741W        W87809  23.704  17.670   1.792
20742W        W87810  44.279  22.101  10.966
20743W        W87811  10.699   5.741  12.414
20744W        W87812  17.178   3.811  10.971
20745W        W87813  27.063  35.956   0.451
20746W        W87814  12.182  36.564   2.381
20747W        W87815   6.826  38.400  12.956
20748W        W87816  43.330  34.378   2.282
20749W        W87817   3.873  44.007  14.871
20750W        W87818  29.605  31.522   0.841
20751W        W87819   4.305  19.706  14.817
20752W        W87820   4.209  31.962  12.418
20753W        W87821   7.335  21.522  10.897
20754W        W87822  36.066  42.493  13.856
20755W        W87823  24.203   2.904   2.892
20756W        W87824  34.458  27.638   2.729
20757W        W87825  11.243  11.651  12.366
20758W        W87826  19.127   9.653   1.729
20759W        W87827  34.958  32.578   4.143
20760W        W87828  26.639   0.488   0.371
20761W        W87829  28.649  10.823  12.011
20762W        W87830   4.255  34.539  14.895
20763W        W87831  24.725  29.498  11.374
20764W        W87832  24.692  15.752  10.927
20765W        W87833  39.472  28.989   1.385
20766W        W87834  19.643   9.711  12.006
20767W        W87835  38.328   2.376   0.834
20768W        W87836  22.074  32.928   1.783
20769W        W87837   1.293  31.967  10.443
20770W        W87838  34.378  35.896  13.827
20771W        W87839  19.583  34.541  10.951
20772W        W87840  20.261   5.817  13.512
20773W        W87841  23.631   5.240  13.899
20774W        W87842  21.699   0.381   1.723
20775W        W87843  18.066  27.644   0.482
20776W        W87844  12.274  37.354   2.840
20777W        W87845  10.281  40.356  13.946
20778W        W87846  39.482  10.282   2.255
20779W        W87847  44.496  29.115   2.412
20780W        W87848  24.648  25.007   1.395
20781W        W87849  25.589  23.589   4.267
20782W        W87850  39.825  20.547  14.009
20783W        W87851  20.750  13.687  12.446
20784W        W87852  28.612  41.459   0.289
20785W        W87853  22.656  14.774  12.460
20786W        W87854  37.527  41.450  10.912
20787W        W87855  29.995  31.526   4.131
20788W        W87856  38.030  15.219  13.851
20789W        W87857  43.358  16.179  12.499
20790W        W87858   7.375  20.667   0.872
20791W        W87859  27.490  39.050  14.450
20792W        W87860  33.543   0.865  11.551
20793W        W87861   8.380  10.780   0.927
20794W        W87862  28.523  16.672   3.690
20795W        W87863  17.664  29.461  13.946
20796W        W87864  25.990  22.187   0.954
20797W        W87865   1.451   1.244   3.279
20798W        W87866  38.450   9.832  12.974
20799W        W87867  19.772   4.764  10.069
20800W        W87868  19.219   3.750   1.432
20801W        W87869  19.229  41.855  11.446
20802W        W87870  36.999  27.486   4.642
20803W        W87871  38.870  10.242   4.745
20804W        W87872  14.645  11.623  13.931
20805W        W87873  33.583  34.937   1.394
20806W        W87874   5.900  11.640   2.313
20807W        W87875  13.218  11.638   1.353
20808W        W87876  42.445  14.773   2.237
20809W        W87877  29.501   9.277   2.390
20810W        W87878   7.716   2.934  14.305
20811W        W87879  32.505  32.607   0.365
20812W        W87880  21.130  31.142   0.939
20813W        W87881  13.734  22.022  14.509
20814W        W87882  10.816   4.277   0.386
20815W        W87883  26.973  30.138  12.079
20816W        W87884   2.886  29.472   2.729
20817W        W87885  29.963   2.346   4.135
20818W        W87886  15.692   6.354  11.913
20819W        W87887  35.417  20.236  14.287
20820W        W87888   6.386  18.721   0.391
20821W        W87889  32.958   6.903   3.264
20822W        W87890  16.164  31.914  12.562
20823W        W87891   5.222  44.428   4.628
20824W        W87892  20.095   6.403   1.898
20825W        W87893   1.819  26.984   0.795
20826W        W87894  14.826  25.583   4.624
20827W        W87895   6.913  41.456  13.851
20828W        W87896  43.322   2.284   4.290
20829W        W87897  38.898   4.722  13.536
20830W        W87898  32.508  43.937   2.246
20831W        W87899   8.336   3.433  11.099
20832W        W87900  41.939  42.934  12.004
20833W        W87901  41.949  12.772  14.429
20834W        W87902  11.238   9.659   4.198
20835W        W87903  32.517  36.485  12.488
20836W        W87904  18.549  41.424   3.186
20837W        W87905   1.461  14.259  10.910
20838W        W87906  33.095  38.563  12.981
20839W        W87907   7.220   8.228   4.252
20840W        W87908  18.550  12.684   4.123
20841W        W87909  14.802  32.507   4.261
20842W        W87910   1.255  42.995  14.449
20843W        W87911  44.308  37.896  14.815
20844W        W87912  39.458  35.489  14.986
20845W        W87913   1.756  27.494  13.505
20846W        W87914  40.435  13.265   1.917
20847W        W87915  41.491  36.367  10.605
20848W        W87916  11.304  25.683   3.308
20849W        W87917  33.381  19.764  10.023
20850W        W87918  22.736  16.661   0.952
20851W        W87919  23.182  31.043  14.922
20852W        W87920  33.104  28.570  13.856
20853W        W87921   8.284  43.774   4.129
20854W        W87922  23.664  32.033  11.889
20855W        W87923  22.639  42.396  12.482
20856W        W87924  15.259  31.976   2.860
20857W        W87925  41.878   0.769  10.587
20858W        W87926   9.230  23.205  14.944
20859W        W87927  36.410  36.048   2.873
20860W        W87928  29.086  38.894   0.850
20861W        W87929  27.156  21.154  14.398
20862W        W87930  15.218  42.783   1.370
20863W        W87931  38.918  18.157  10.602
20864W        W87932  39.852   8.256   3.374
20865W        W87933  25.488  28.552  13.963
20866W        W87934  23.548  41.973  13.808
20867W        W87935  21.248  15.681  12.845
20868W        W87936  11.745   5.312   0.434
20869W        W87937   6.382  27.557  11.588
20870W        W87938  42.889  44.969   2.410
20871W        W87939  18.101  37.080  14.975
20872W        W87940  36.845   6.223   4.720
20873W        W87941  10.351  28.532   4.685
20874W        W87942   3.729  43.481   4.662
20875W        W87943  41.797  27.614  11.008
20876W        W87944  11.652  35.440   2.737
20877W        W87945  10.295  23.652   0.414
20878W        W87946  32.970   3.406  13.350
20879W        W87947   8.731  19.078  10.590
20880W        W87948  38.443  16.587   1.224
20881W        W87949   5.397  38.916  13.389
20882W        W87950  41.874  31.498  13.815
20883W        W87951  36.038  14.179   1.854
20884W        W87952  12.845  44.974   0.798
20885W        W87953   4.279  35.484  11.607
20886W        W87954  36.585  36.463   4.346
20887W        W87955  11.363   5.726  11.882
20888W        W87956   1.437   2.432  13.391
20889W        W87957  19.563  21.230  13.318
20890W        W87958  43.435  42.826   0.764
20891W        W87959   1.303  15.170  14.998
20892W        W87960   6.865   4.389  10.550
20893W        W87961  39.905  19.134  13.829
20894W        W87962  30.023   9.830   2.249
20895W        W87963   7.748  43.958   0.849
20896W        W87964  14.146  29.664   1.758
20897W        W87965   3.765  13.610   1.773
20898W        W87966  43.975  30.122   2.816
20899W        W87967  42.799   0.292  13.875
20900W        W87968   8.349  15.628   2.217
20901W        W87969  19.672  29.036   4.235
20902W        W87970  20.600   9.230  10.555
20903W        W87971  17.244  31.909  14.997
20904W        W87972  44.005   2.412  13.888
20905W        W87973  23.060   5.728  14.793
20906W        W87974  30.521  40.997  11.992
20907W        W87975   4.267  32.890   0.867
20908W        W87976   7.247   8.381  13.346
20909W        W87977  36.951  16.756   2.714
20910W        W87978  37.532  31.064   5.282
20911W        W87979  36.401  41.400   0.354
20912W        W87980  28.945  14.120  11.431
20913W        W87981  23.572  42.341  12.925
20914W        W87982  34.916  28.153   2.679
20915W        W87983  16.767  34.972  13.501
20916W        W87984   6.203  20.210  13.964
20917W        W87985   3.383   0.360  10.474
20918W        W87986  32.127  15.100   1.827
20919W        W87987  37.941  11.210  11.523
20920W        W87988  33.922  31.608   2.792
20921W        W87989  36.425  36.357  10.440
20922W        W87990  16.151  25.636  10.598
20923W        W87991  22.549  13.317   4.664
20924W        W87992  25.553  34.375  10.435
20925W        W87993  27.044  15.821  10.157
20926W        W87994   9.754   3.323   2.876
20927W        W87995  15.725   5.892   1.933
20928W        W87996  23.018  23.224   3.739
20929W        W87997   1.349  30.604  13.460
20930W        W87998  39.382  16.218   1.304
20931W        W87999  18.172  40.965   1.355
20932W        W88000   5.836  40.008   3.316
20933W        W88001  36.349  16.663   1.873
20934W        W88002   1.461  29.527   2.188
20935W        W88003  29.530  31.626   3.863
20936W        W88004   2.292   5.350  11.507
20937W        W88005  22.076   6.904  13.027
20938W        W88006  24.118  40.033  13.891
20939W        W88007  29.094  21.108  13.980
20940W        W88008  30.582   5.850  13.512
20941W        W88009  18.575  42.436   0.271
20942W        W88010  39.397  28.540  13.814
20943W        W88011   5.398  16.571  11.393
20944W        W88012  34.590  41.519   4.344
20945W        W88013  17.144  29.085   0.437
20946W        W88014  16.637  12.821  10.448
20947W        W88015  32.416  11.244   1.406
20948W        W88016   9.844  28.031  12.043
20949W        W88017  39.052  22.661   4.614
20950W        W88018  37.365  28.482   3.207
20951W        W88019   1.915   5.796   4.645
20952W        W88020   1.336  39.879  14.401
20953W        W88021   1.269  24.565  11.519
20954W        W88022  30.914  35.943   3.286
20955W        W88023  11.706  30.970   0.405
20956W        W88024  12.259   6.243   1.799
20957W        W88025   5.304  42.836  11.935
20958W        W88026  36.888  36.518  12.044
20959W        W88027  10.815  30.558   4.242
20960W        W88028  18.188   9.648   2.180
20961W        W88029  22.152  26.195   0.781
20962W        W88030   4.265  37.418  14.298
20963W        W88031  38.386  42.434  12.479
20964W        W88032  17.094  28.007   4.293
20965W        W88033  15.305  25.088  11.040
20966W        W88034  10.792   0.835  10.955
20967W        W88035   8.710  36.869   2.210
20968W        W88036   8.313  26.168  12.458
20969W        W88037  24.051   7.376   3.650
20970W        W88038  26.538  42.330  14.334
20971W        W88039  17.789  32.037  13.037
20972W        W88040  31.987  17.681   2.817
20973W        W88041  37.472   4.832  11.969
20974W        W88042  23.570   5.880   2.714
20975W        W88043  42.505   4.719  10.507
20976W        W88044  26.523  21.167  13.007
20977W        W88045  31.455  10.691   1.748
20978W        W88046  38.009  22.507  13.938
20979W        W88047  29.665  41.794   0.296
20980W        W88048  27.173  17.600  12.558
20981W        W88049  27.053  11.262   1.344
20982W        W88050  21.720  11.748   2.665
20983W        W88051   8.372  28.060  13.399
20984W        W88052   4.734  41.476  14.501
20985W        W88053  43.843  35.921  11.955
20986W        W88054  30.565  28.611  13.350
20987W        W88055  22.203   3.844   1.823
20988W        W88056  39.389   6.814  10.984
20989W        W88057  10.366  29.149  14.909
20990W        W88058   4.307   5.736  11.392
20991W        W88059  35.481   1.774  13.927
20992W        W88060  43.355   6.377  12.036
20993W        W88061  24.703   7.734  14.421
20994W        W88062  38.911   8.206  13.501
20995W        W88063  35.967  38.917  13.826
20996W        W88064   6.252  15.252   1.314
20997W        W88065  31.986  35.986   3.692
20998W        W88066  18.090  33.428  11.542
20999W        W88067  21.562  20.703  10.921
21000W        W88068  12.316  36.088   2.677
21001W        W88069   4.811  34.104   1.446
21002W        W88070  42.398   2.243   2.215
21003W        W88071   4.813  17.618  10.050
21004W        W88072  41.525  40.826  14.978
21005W        W88073  27.520  22.736   1.264
21006W        W88074  12.721  33.482   2.192
21007W        W88075  17.297   7.415   4.128
21008W        W88076  20.112  25.060  14.858
21009W        W88077  42.467  34.590  10.954
21010W        W88078  26.021  13.261  13.793
21011W        W88079  31.483   0.254   4.690
21012W        W88080   8.854   1.736  11.470
21013W        W88081  12.116   8.768  13.798
21014W        W88082   2.915   3.761  11.580
21015W        W88083   5.770  41.300   2.244
21016W        W88084  36.978   7.359  12.874
21017W        W88085  27.132  13.625   1.418
21018W        W88086  41.902  41.294   4.781
21019W        W88087  43.848  37.511   1.797
21020W        W88088   8.811  42.424  13.496
21021W        W88089  30.015  42.492  12.925
21022W        W88090   6.275  25.036  11.470
21023W        W88091  30.568  16.736  14.490
21024W        W88092  37.431  40.487  14.801
21025W        W88093  35.952  21.749  14.331
21026W        W88094  23.070  22.999   2.746
21027W        W88095   4.210  11.639  14.333
21028W        W88096  40.013  10.728   3.173
21029W        W88097  35.554   5.898  14.806
21030W        W88098  39.994  17.605  14.869
21031W        W88099  40.925  44.757  12.019
21032W        W88100  22.530  15.311   2.316
21033W        W88101  32.950  19.180   4.178
21034W        W88102  27.040  19.633  12.965
21035W        W88103  31.515  24.012   2.897
21036W        W88104  15.146  31.626  14.509
21037W        W88105   0.273   5.839   0.354
21038W        W88106  38.976  33.431   3.220
21039W        W88107  35.912  26.015  13.310
21040W        W88108  14.296  27.163  12.859
21041W        W88109   6.291  21.068  13.909
21042W        W88110  21.108   7.219  13.004
21043W        W88111  27.576  18.217   1.732
21044W        W88112   7.249  34.895   2.257
21045W        W88113   9.721  13.728   3.285
21046W        W88114  29.169  15.206  11.858
21047W        W88115  15.589  25.207   1.377
21048W        W88116   6.911  43.890   0.400
21049W        W88117  23.115  23.018   2.367
21050W        W88118  22.741  19.751   4.347
21051W        W88119  20.596  37.887  12.886
21052W        W88120  42.387  39.451   3.847
21053W        W88121  37.041   8.366   1.840
21054W        W88122  34.423  27.601   4.245
21055W        W88123  44.829  28.055   2.793
21056W        W88124  31.910  18.728  11.035
21057W        W88125  19.139  40.846   4.742
21058W        W88126  12.773  35.519  12.523
21059W        W88127  29.663  23.224   4.612
21060W        W88128  15.809   4.351  10.049
21061W        W88129  34.449  22.615   1.768
21062W        W88130   3.903  33.549   0.956
21063W        W88131  30.453  22.179   0.301
21064W        W88132  13.808  43.981   2.292
21065W        W88133  37.507  30.998   1.394
21066W        W88134  10.758  13.831  10.427
21067W        W88135  10.809   9.259   4.610
21068W        W88136  10.364  19.573   9.983
21069W        W88137  39.863  38.004  14.980
21070W        W88138  11.682  21.680   4.766
21071W        W88139   8.251   0.370  11.113
21072W        W88140  19.675  37.551   2.778
21073W        W88141  22.569  10.842   4.151
21074W        W88142  16.611  10.324   0.828
21075W        W88143  32.019  13.639   4.699
21076W        W88144  42.283  40.973   4.235
21077W        W88145  31.564  20.636   2.310
21078W        W88146  40.473   3.268  12.361
21079W        W88147   8.223  14.202  11.404
21080W        W88148  42.446  13.152  11.379
21081W        W88149  22.514  18.602  11.374
21082W        W88150  24.092  31.548   0.468
21083W        W88151  40.439  32.627   1.309
21084W        W88152  10.829  20.272  12.539
21085W        W88153   6.803  19.129  13.315
21086W        W88154  34.091   8.801  14.377
21087W        W88155  42.959  19.681  13.856
21088W        W88156  25.127  30.140  14.781
21089W        W88157  44.824  12.805  13.363
21090W        W88158  44.980  18.080   4.629
21091W        W88159  33.516  11.273  12.571
21092W        W88160   6.900  28.473   3.673
21093W        W88161  37.445   0.750  13.364
21094W        W88162  18.110  15.229  11.437
21095W        W88163  15.324   4.775  12.922
21096W        W88164  37.874  11.782  12.878
21097W        W88165  32.920  31.560   3.167
21098W        W88166  16.209  12.687  12.484
21099W        W88167  28.099  21.660   4.336
21100W        W88168   5.248  14.139  13.062
21101W        W88169  10.824  20.714  13.997
21102W        W88170   4.885  23.008   3.264
21103W        W88171  36.579   0.837   0.854
21104W        W88172  36.853  24.602   0.857
21105W        W88173   5.794  13.761   1.401
21106W        W88174  39.041  28.072   4.132
21107W        W88175   4.437  38.569   4.274
21108W        W88176  37.025   4.349   0.275
21109W        W88177  25.510  21.155   5.260
21110W        W88178  15.810  12.316  11.074
21111W        W88179  10.335  20.248  10.948
21112W        W88180  10.635  38.418  14.438
21113W        W88181   2.344  21.687   1.280
21114W        W88182  20.207  30.049  13.838
21115W        W88183  42.445  19.189  13.938
21116W        W88184  39.838  39.057  12.495
21117W        W88185  43.289  17.185  12.451
21118W        W88186  11.317  28.058  10.968
21119W        W88187  35.558  41.946  12.563
21120W        W88188  36.017  43.280   2.234
21121W        W88189  14.337  11.834  13.537
21122W        W88190  13.834  28.497  10.911
21123W        W88191   5.423   5.846   1.310
21124W        W88192  12.166   5.755  14.919
21125W        W88193  17.633   8.739   2.788
21126W        W88194   6.314  17.707   1.213
21127W        W88195   1.310   2.752  13.487
21128W        W88196  23.070  30.549   4.688
21129W        W88197  39.904   0.256  14.315
21130W        W88198   4.261   5.724   0.951
21131W        W88199  19.734  39.473   1.888
21132W        W88200  31.037  20.103   1.768
21133W        W88201  21.635  10.374   1.752
21134W        W88202  43.375   3.942  12.354
21135W        W88203  36.998  40.007  12.547
21136W        W88204   7.310  29.020  13.005
21137W        W88205   0.353  24.616  10.499
21138W        W88206  29.174  37.903  12.870
21139W        W88207  18.747  28.609   2.326
21140W        W88208  35.856  34.513  11.565
21141W        W88209  25.581  29.659  13.461
21142W        W88210  31.022  19.695   2.664
21143W        W88211  20.641  26.120  13.405
21144W        W88212  39.500  11.197   1.359
21145W        W88213  26.580   5.343  11.422
21146W        W88214  15.209  14.643   2.263
21147W        W88215  28.007  39.452   2.831
21148W        W88216  35.971  26.693  10.954
21149W        W88217  12.195   1.875   0.869
21150W        W88218   5.387  15.123   0.318
21151W        W88219  17.737  18.615   4.270
21152W        W88220  31.969  20.524   1.694
21153W        W88221   7.742  15.141  12.828
21154W        W88222  31.427  11.630  14.312
21155W        W88223  39.479   0.987  10.593
21156W        W88224  19.179  35.957  11.041
21157W        W88225  33.592   0.754  10.555
21158W        W88226  17.233  29.032  14.906
21159W        W88227  28.063   6.848  14.992
21160W        W88228  23.991  25.030  12.071
21161W        W88229  15.765  37.051  13.515
21162W        W88230  12.279  18.580   2.861
21163W        W88231   3.430   8.387  12.507
21164W        W88232  12.282   5.209  10.452
21165W        W88233  25.483  23.041  12.042
21166W        W88234  44.780  10.851   1.309
21167W        W88235  44.781  30.041   1.747
21168W        W88236  32.427  19.707   4.731
21169W        W88237  31.403  40.474   4.685
21170W        W88238  39.041  14.779  10.639
21171W        W88239  23.560   3.224   4.275
21172W        W88240  29.920  37.522  13.496
21173W        W88241  29.496  29.622  12.510
21174W        W88242  24.023  29.070  14.873
21175W        W88243  11.234  38.517  14.946
21176W        W88244  12.172  28.533   3.708
21177W        W88245  34.542  18.744  13.939
21178W        W88246  23.988   2.947   1.427
21179W        W88247   3.763  44.418   1.714
21180W        W88248  21.120  35.399  10.429
21181W        W88249  38.408  44.362   0.250
21182W        W88250   9.306  19.111  12.545
21183W        W88251  32.547   7.684  13.876
21184W        W88252  35.543  33.563  13.847
21185W        W88253  20.585   3.333   4.798
21186W        W88254   4.432  27.650  11.879
21187W        W88255  30.913  26.555   4.264
21188W        W88256  31.436  26.640  10.067
21189W        W88257  20.682  41.383   1.797
21190W        W88258  19.243  42.981   0.285
21191W        W88259  19.604  44.782  11.427
21192W        W88260  11.849   3.854  10.545
21193W        W88261   9.691  39.423  11.044
21194W        W88262   7.177   7.254   0.299
21195W        W88263   4.923   5.929  12.969
21196W        W88264  39.463  17.071  12.021
21197W        W88265  15.088   4.795  13.824
21198W        W88266  16.144  15.711  11.546
21199W        W88267  32.493  24.093   4.689
21200W        W88268  11.232  42.434   3.262
21201W        W88269  14.782  22.008   3.796
21202W        W88270  37.985  12.179  13.931
21203W        W88271  15.689   0.481  10.111
21204W        W88272  19.548   7.752   5.316
21205W        W88273  33.422  25.683  12.028
21206W        W88274  27.658  38.057  11.375
21207W        W88275  23.582  17.682   3.163
21208W        W88276  14.814  25.076   0.750
21209W        W88277  38.947  24.684  10.429
21210W        W88278   9.756  44.778   2.733
21211W        W88279  27.504  17.270  12.401
21212W        W88280  14.604  11.214   2.790
21213W        W88281   4.933  11.196   4.815
21214W        W88282  34.023  23.616  13.873
21215W        W88283   5.776  41.515  14.883
21216W        W88284  14.683  27.184  14.293
21217W        W88285   4.923  16.118   1.717
21218W        W88286  14.169  13.346  12.961
21219W        W88287   9.332  33.590   0.406
21220W        W88288  41.961  35.407   1.811
21221W        W88289   9.745  34.078  11.971
21222W        W88290  43.507  23.626  14.379
21223W        W88291   7.734  21.617   1.360
21224W        W88292  27.955  42.524   1.770
21225W        W88293  25.665   1.895  14.380
21226W        W88294  34.118  18.272   1.733
21227W        W88295  38.525  42.462   1.379
21228W        W88296  15.276  10.222   4.342
21229W        W88297  17.606  13.272  14.367
21230W        W88298  24.974   1.264   1.917
21231W        W88299   4.903  42.887  11.105
21232W        W88300  17.710  28.657   2.331
21233W        W88301  16.088   3.387   2.734
21234W        W88302  35.435  31.503  13.966
21235W        W88303  16.570  27.600   0.744
21236W        W88304  22.576  35.998   2.244
21237W        W88305  31.966   5.757   4.160
21238W        W88306   0.894   6.795  14.353
21239W        W88307   7.415   0.346   2.293
21240W        W88308  33.606   6.292  10.913
21241W        W88309  16.699  15.163   2.883
21242W        W88310   0.260   6.224   3.307
21243W        W88311  36.871  36.950  14.392
21244W        W88312  14.797  19.244  13.346
21245W        W88313   6.268  16.601   3.675
21246W        W88314  35.405  14.181  11.434
21247W        W88315  34.037  24.586   3.377
21248W        W88316  12.281  13.349   3.833
21249W        W88317  44.882  42.982  14.810
21250W        W88318   0.901  24.571   1.890
21251W        W88319  44.814  16.605  11.097
21252W        W88320  38.037  13.274  14.005
21253W        W88321  40.536  43.487  12.472
21254W        W88322  40.888  31.513  13.874
21255W        W88323  28.001  36.402   1.422
21256W        W88324   6.257  10.350   3.264
21257W        W88325   5.799  29.070  13.845
21258W        W88326  32.127  13.715   5.292
21259W        W88327   0.250  41.386  14.821
21260W        W88328  44.391  38.493   2.849
21261W        W88329  21.111   6.834   3.794
21262W        W88330   1.850  30.023   1.367
21263W        W88331  39.964  36.003   3.692
21264W        W88332  42.384   9.150   4.290
21265W        W88333  25.669  31.901  13.871
21266W        W88334  17.103  31.475   1.758
21267W        W88335  36.562  33.414   4.304
21268W        W88336  39.556  20.544   1.256
21269W        W88337  10.827  20.220   0.283
21270W        W88338  13.219  11.623   4.262
21271W        W88339  39.540  44.921  14.782
21272W        W88340  23.680  37.007  13.015
21273W        W88341  41.478  20.099   3.837
21274W        W88342  15.320   2.731  12.361
21275W        W88343  10.311  28.608  14.375
21276W        W88344  28.548  16.089   4.164
21277W        W88345  40.390  30.456  11.518
21278W        W88346  37.580  22.522   4.611
21279W        W88347  10.138  15.584  11.497
21280W        W88348  23.001  35.439  11.999
21281W        W88349   9.797  30.965   0.870
21282W        W88350  28.061   1.328  12.051
21283W        W88351  14.335   3.377  12.450
21284W        W88352  33.454  18.242  12.368
21285W        W88353   7.369  41.026  13.879
21286W        W88354  15.202  11.300   0.866
21287W        W88355  40.369  42.293  10.408
21288W        W88356   6.417  11.854  13.899
21289W        W88357  13.224  14.684   0.336
21290W        W88358  19.236  13.636  10.451
21291W        W88359  21.608   7.241   0.398
21292W        W88360   8.351   5.761   0.743
21293W        W88361  15.578  27.068   0.438
21294W        W88362  44.843  38.907  14.408
21295W        W88363  35.407  40.449  10.514
21296W        W88364   3.228  14.645  11.898
21297W        W88365   8.251   1.464  14.330
21298W        W88366   9.773  37.860   2.839
21299W        W88367   1.445  44.384   9.948
21300W        W88368  20.715   2.411  11.011
21301W        W88369  31.145  35.414  12.893
21302W        W88370  17.675  38.044  13.475
21303W        W88371  14.646   7.799  10.419
21304W        W88372  10.770  35.050  10.625
21305W        W88373  22.621  37.409  14.768
21306W        W88374  16.792  25.566   4.826
21307W        W88375  30.535  25.156   3.866
21308W        W88376   1.432  19.143   1.299
21309W        W88377  22.200   2.830   0.358
21310W        W88378  20.737  38.015   2.819
21311W        W88379  13.168  41.814   1.354
21312W        W88380  37.353  36.879  13.920
21313W        W88381  39.930  37.557   2.297
21314W        W88382  39.362  25.602   0.897
21315W        W88383  15.771   5.389   3.743
21316W        W88384  16.158  17.296   0.935
21317W        W88385  22.182  41.011   0.302
21318W        W88386  17.621  41.810   3.352
21319W        W88387  13.709   0.906   2.207
21320W        W88388  30.488  30.972  12.378
21321W        W88389  21.148  24.198  13.523
21322W        W88390  33.518  35.571   3.157
21323W        W88391  13.785  40.535   3.328
21324W        W88392  29.014  37.020  11.537
21325W        W88393  36.959  19.575   1.234
21326W        W88394  14.300  44.869   3.226
21327W        W88395  37.015  17.126   4.261
21328W        W88396  24.075   5.290   0.948
21329W        W88397  39.417  32.623  13.808
21330W        W88398  44.382  18.249  12.006
21331W        W88399   4.360   2.777  14.383
21332W        W88400  44.407  21.616  10.449
21333W        W88401  36.357   8.776  12.933
21334W        W88402  34.868   1.915  12.520
21335W        W88403   4.280  32.558   4.173
21336W        W88404  44.765  32.544   2.240
21337W        W88405   2.740  12.686  10.602
21338W        W88406  21.051  17.659  14.479
21339W        W88407  13.650   6.855  12.522
21340W        W88408  19.683  40.005  13.853
21341W        W88409  18.287  24.095   0.794
21342W        W88410  31.026  10.854  11.931
21343W        W88411  36.992  23.026   3.216
21344W        W88412  20.565   2.373   0.883
21345W        W88413   2.855   9.867   2.790
21346W        W88414  35.564   4.233   1.741
21347W        W88415   0.777  43.377   2.360
21348W        W88416  15.658   8.736  12.542
21349W        W88417  10.180  27.626   3.221
21350W        W88418  34.975  24.062   0.842
21351W        W88419  12.644   8.754   4.603
21352W        W88420  42.915  13.277   0.289
21353W        W88421  23.020  22.078  12.551
21354W        W88422   9.333  38.054   2.403
21355W        W88423  37.878   3.361   0.903
21356W        W88424  11.625  13.230  13.330
21357W        W88425  14.242  22.598   3.174
21358W        W88426   9.732  36.959  13.539
21359W        W88427   1.814  13.156  11.930
21360W        W88428  13.174  14.228   4.816
21361W        W88429  41.020  37.019   4.201
21362W        W88430  23.587  26.603  14.899
21363W        W88431  27.471   2.374  12.013
21364W        W88432  14.655  36.400  12.537
21365W        W88433  10.691  43.967   1.249
21366W        W88434  39.865   2.771  14.805
21367W        W88435  30.068  28.513   3.793
21368W        W88436   5.875   5.871   3.731
21369W        W88437   4.875  24.521   0.795
21370W        W88438  25.211  14.121   0.341
21371W        W88439  10.641  39.463  13.466
21372W        W88440   3.935   9.746  10.511
21373W        W88441  19.078  15.770   0.833
21374W        W88442   5.713  24.156   1.731
21375W        W88443   6.804  43.833   4.277
21376W        W88444  38.332  17.689   4.213
21377W        W88445  40.895   9.217   4.316
21378W        W88446  16.752   9.812   2.881
21379W        W88447  41.931  28.547  11.430
21380W        W88448  41.501  19.066  11.857
21381W        W88449  35.935   6.711   4.204
21382W        W88450  35.544   0.491   0.359
21383W        W88451  23.195   6.873   4.761
21384W        W88452  37.009  10.643   1.843
21385W        W88453   5.193  22.506  13.358
21386W        W88454  25.495  13.830   2.248
21387W        W88455   3.445  34.005  14.308
21388W        W88456  43.975  12.242  13.046
21389W        W88457   3.405  29.530   2.298
21390W        W88458  40.863   9.336  12.473
21391W        W88459  40.867  32.956  12.921
21392W        W88460  44.851  39.990  12.955
21393W        W88461  23.731   4.333  14.456
21394W        W88462   7.370  36.368  14.019
21395W        W88463   5.785  22.228   1.700
21396W        W88464  27.648  21.707  11.888
21397W        W88465  12.801  25.201   4.725
21398W        W88466   3.816  37.862   1.754
21399W        W88467  41.518  24.659   2.414
21400W        W88468  13.654  38.398  13.478
21401W        W88469   8.311  39.972   2.399
21402W        W88470  32.966  12.156  13.888
21403W        W88471  12.713   2.278   2.714
21404W        W88472   5.797   4.891   3.298
21405W        W88473  43.493  23.112   3.668
21406W        W88474   4.398  44.437   1.785
21407W        W88475  44.289  40.517  11.905
21408W        W88476  26.608  15.287  12.468
21409W        W88477   0.759  13.823  14.883
21410W        W88478  30.019  39.383   0.274
21411W        W88479  36.949  10.648   2.223
21412W        W88480  43.470   5.774   1.239
21413W        W88481  31.927  32.602   2.875
21414W        W88482   3.286  37.866   4.728
21415W        W88483   1.253  11.186  11.855
21416W        W88484  43.802  38.560   2.276
21417W        W88485   4.773  29.476  11.536
21418W        W88486  25.094  37.946  12.928
21419W        W88487   9.324  37.581  14.407
21420W        W88488  28.175  27.949   1.794
21421W        W88489  16.752  40.934  13.818
21422W        W88490   1.277  22.158   1.928
21423W        W88491  21.666  19.598  12.066
21424W        W88492   5.384  23.544   3.805
21425W        W88493  39.436  29.451  12.430
21426W        W88494  31.601  23.118   2.295
21427W        W88495  13.301   3.908  11.066
21428W        W88496  30.567  13.809   3.703
21429W        W88497  30.097  23.009  10.524
21430W        W88498  18.560  19.228  10.941
21431W        W88499  18.281   5.218  13.931
21432W        W88500  44.395   2.730   3.309
21433W        W88501  24.016   2.389  10.551
21434W        W88502   7.318  25.639  10.408
21435W        W88503  40.915  39.897   0.441
21436W        W88504  40.433   8.402   2.190
21437W        W88505  17.196  36.497  13.541
21438W        W88506  24.713   0.856   2.262
21439W        W88507  15.226  10.683  13.960
21440W        W88508  22.238  36.848  11.406
21441W        W88509  28.437  36.874   3.296
21442W        W88510  30.555  17.697  11.505
21443W        W88511  44.331  19.141   0.274
21444W        W88512  23.045  28.978  12.825
21445W        W88513  27.572  23.677   2.809
21446W        W88514  10.795  36.488  14.944
21447W        W88515  25.112  41.959   5.217
21448W        W88516  17.790  12.782  12.076
21449W        W88517  37.365  36.879   0.920
21450W        W88518   6.278  26.623  13.927
21451W        W88519   3.320  34.437   2.196
21452W        W88520   7.206  18.248  14.476
21453W        W88521  13.741  27.494   0.408
21454W        W88522  16.266   4.448  12.389
21455W        W88523  13.254  37.838  10.552
21456W        W88524  38.971  11.711  12.879
21457W        W88525  26.692  22.709   1.430
21458W        W88526  39.933  27.605   4.164
21459W        W88527  37.993   4.919  12.913
21460W        W88528   8.829  31.017  13.974
21461W        W88529  26.683  42.297  12.833
21462W        W88530  39.403  31.409   0.414
21463W        W88531  37.476  35.099  11.960
21464W        W88532  29.493  15.756  12.458
21465W        W88533  12.151  31.617  14.980
21466W        W88534  44.858  25.082   2.819
21467W        W88535  32.585  30.018   4.647
21468W        W88536  38.934  25.648   5.090
21469W        W88537  28.131  37.997  10.585
21470W        W88538  44.454  24.481  11.053
21471W        W88539   5.227  22.589   1.407
21472W        W88540   5.432  30.095  13.532
21473W        W88541  40.373  25.041  12.017
21474W        W88542  35.536  42.866  13.440
21475W        W88543  26.090  22.082  11.566
21476W        W88544  40.386  24.577  11.392
21477W        W88545  19.198   2.835   2.299
21478W        W88546  26.527   6.339   4.742
21479W        W88547  28.171  37.555   0.956
21480W        W88548   7.804  41.987  11.971
21481W        W88549  14.776   0.910   3.374
21482W        W88550  32.625  20.229  14.870
21483W        W88551   3.884  23.584  12.350
21484W        W88552  44.942  40.873   0.427
21485W        W88553  27.023  36.877  14.819
21486W        W88554  28.055  23.621  10.411
21487W        W88555   7.337  44.918  13.014
21488W        W88556  36.875  36.547   4.645
21489W        W88557  29.606  14.339  12.979
21490W        W88558  10.190  43.998  13.004
21491W        W88559  42.876  14.667  11.872
21492W        W88560  21.081  34.491   9.986
21493W        W88561   0.848  20.667   3.632
21494W        W88562  35.994  27.568  10.615
21495W        W88563  39.869  19.731  12.538
21496W        W88564   8.256  31.977   2.363
21497W        W88565  14.320  19.048   2.318
21498W        W88566  44.979  40.388  12.368
21499W        W88567   4.793  38.544   3.192
21500W        W88568  34.433  11.803   4.717
21501W        W88569   0.779  39.431  14.832
21502W        W88570  21.201  18.636   1.754
21503W        W88571   3.908  31.107   2.219
21504W        W88572  31.615  33.884  10.567
21505W        W88573  15.756   0.989  14.811
21506W        W88574   9.747  34.974   3.289
21507W        W88575  17.676  41.820   3.807
21508W        W88576   2.349  37.031  11.936
21509W        W88577  40.393   6.688   2.779
21510W        W88578  14.198  12.841   1.835
21511W        W88579  21.698  41.834   3.845
21512W        W88580   6.260  13.239  13.055
21513W        W88581  32.500   0.486   1.804
21514W        W88582   2.932  21.593  10.958
21515W        W88583  26.044  43.766   1.422
21516W        W88584   7.799  37.460  10.985
21517W        W88585  20.552  44.496  12.375
21518W        W88586  15.729  42.814   1.287
21519W        W88587  24.720  31.511   0.921
21520W        W88588   0.938  44.891   4.761
21521W        W88589  40.037   5.735  14.873
21522W        W88590  28.973   5.300   2.299
21523W        W88591   0.354  29.487   3.243
21524W        W88592   9.837   2.903  10.909
21525W        W88593  30.418  35.856   4.813
21526W        W88594  27.081   8.752  13.383
21527W        W88595  28.093   4.390   1.267
21528W        W88596  12.274  43.508  11.439
21529W        W88597  35.554  22.076  10.938
21530W        W88598   1.411  34.102  12.079
21531W        W88599  28.066  38.365  10.155
21532W        W88600  31.529  19.273   2.286
21533W        W88601  10.686  21.041  13.013
21534W        W88602   2.415  39.846   2.820
21535W        W88603  25.140  32.913   3.799
21536W        W88604  17.095  26.995  11.056
21537W        W88605  33.066  17.701   2.764
21538W        W88606  14.311  44.379   2.383
21539W        W88607  18.616  12.257  12.066
21540W        W88608   6.248  44.286   5.135
21541W        W88609  35.496  39.414   4.834
21542W        W88610  12.742  43.967  11.420
21543W        W88611   1.754   4.226  14.948
21544W        W88612  28.055  15.664  12.001
21545W        W88613  22.738  12.166   0.394
21546W        W88614  38.501  32.093  12.368
21547W        W88615  12.661  43.449  10.922
21548W        W88616  14.832  34.519  10.634
21549W        W88617   7.318  41.011   4.795
21550W        W88618  26.529  31.121  11.013
21551W        W88619   5.351   7.187  10.521
21552W        W88620  20.751  26.005   0.857
21553W        W88621  18.291   9.770   1.295
21554W        W88622  39.473  32.897   4.224
21555W        W88623  26.655  16.616   1.711
21556W        W88624   8.670  12.746   0.337
21557W        W88625  27.555  20.744  10.535
21558W        W88626  23.123  19.580  13.440
21559W        W88627  38.404   4.215  13.845
21560W        W88628   7.877  41.898  13.816
21561W        W88629  32.061  30.053  13.378
21562W        W88630  44.846  26.978   1.853
21563W        W88631  27.515  32.085   3.664
21564W        W88632  41.310  41.017   1.840
21565W        W88633  21.062  18.789  14.298
21566W        W88634  39.006   2.952  10.499
21567W        W88635  31.067  37.386   3.381
21568W        W88636   8.770  35.494  10.406
21569W        W88637   6.767  35.503  10.495
21570W        W88638  14.308  21.187  14.834
21571W        W88639   2.747  38.543   0.250
21572W        W88640  19.680  37.514   0.442
21573W        W88641  11.288  31.494  11.466
21574W        W88642   3.779  39.899   2.374
21575W        W88643  22.062   5.412   3.201
21576W        W88644   6.307  14.185   3.346
21577W        W88645  10.666   5.723  10.503
21578W        W88646  22.222   1.731   2.263
21579W        W88647  36.930  32.456   1.771
21580W        W88648  24.129   4.729   4.117
21581W        W88649  44.402  31.465   4.329
21582W        W88650  42.999  25.499   3.838
21583W        W88651  32.067  24.643  10.435
21584W        W88652  44.284  15.774   4.273
21585W        W88653  23.170   0.838  14.789
21586W        W88654  13.232  17.655  11.425
21587W        W88655  40.952  18.788   3.163
21588W        W88656  35.009   4.220  14.862
21589W        W88657   9.261   6.271   2.348
21590W        W88658  36.096   5.213   1.863
21591W        W88659  12.289  25.639   3.783
21592W        W88660   2.936  19.201   0.247
21593W        W88661  29.961  18.749   3.200
21594W        W88662  18.710  23.650  11.593
21595W        W88663  41.844  43.404  14.281
21596W        W88664  18.686  26.585   3.227
21597W        W88665  16.589  10.638  14.957
21598W        W88666  40.048  16.772  14.397
21599W        W88667  41.421  22.613   2.669
21600W        W88668  19.774  21.114   1.749
21601W        W88669  19.135  12.140  11.592
21602W        W88670  26.020  27.115   1.935
21603W        W88671  33.029  28.562  11.611
21604W        W88672  43.479   7.859  12.020
21605W        W88673  25.968  30.965  10.434
21606W        W88674  33.523  40.823  13.489
21607W        W88675  37.939  32.451   2.373
21608W        W88676  15.719  10.231  13.367
21609W        W88677  25.664  28.023  13.902
21610W        W88678   2.948  20.743   2.234
21611W        W88679   2.369  24.075  11.398
21612W        W88680  41.495  17.246   1.925
21613W        W88681   3.713  24.190   0.886
21614W        W88682  25.521   6.315   0.406
21615W        W88683  37.864  19.151  13.055
21616W        W88684   2.843  10.347  11.015
21617W        W88685  42.369  38.859   3.217
21618W        W88686  24.986  10.214   3.687
21619W        W88687  40.420  27.619   3.203
21620W        W88688  16.637  27.945   5.315
21621W        W88689  30.991  28.537  12.088
21622W        W88690  37.943  42.838   2.723
21623W        W88691  42.898  22.018   4.334
21624W        W88692  30.945  36.540  14.377
21625W        W88693  25.626  41.894  12.450
21626W        W88694   3.296   4.838  14.837
21627W        W88695  26.142  17.286  14.939
21628W        W88696  21.631  28.999  11.424
21629W        W88697  34.089  34.979   3.688
21630W        W88698   6.781   6.819  10.638
21631W        W88699  14.176  22.545   2.874
21632W        W88700  32.951  38.551   4.161
21633W        W88701  28.517  20.188   0.466
21634W        W88702  11.246  40.911   2.313
21635W        W88703  41.328   5.313   2.783
21636W        W88704  23.076  39.437   1.294
21637W        W88705  12.847  37.994   2.684
21638W        W88706  29.113  36.561   2.228
21639W        W88707  20.178   5.707   1.390
21640W        W88708   9.316  29.166   1.711
21641W        W88709  28.145  33.617  11.039
21642W        W88710  24.204   0.865  11.104
21643W        W88711  41.314  15.296  13.318
21644W        W88712  27.580  27.563   4.713
21645W        W88713  21.156  33.125  13.316
21646W        W88714   1.803  30.954   2.284
21647W        W88715  37.870  15.720   3.336
21648W        W88716   7.383  19.049   0.441
21649W        W88717  16.746  16.613  14.868
21650W        W88718   1.332  15.186  10.914
21651W        W88719  30.441  19.754  10.928
21652W        W88720   4.402  25.076  14.456
21653W        W88721  24.085  31.059   2.282
21654W        W88722  38.994   7.279  12.839
21655W        W88723   9.157  12.656   2.366
21656W        W88724  36.961   9.748  14.006
21657W        W88725   1.802  33.033  12.014
21658W        W88726  18.257  16.123  11.604
21659W        W88727  12.729  17.762  10.610
21660W        W88728   9.784   3.722   4.639
21661W        W88729  36.982  38.825   2.670
21662W        W88730  42.367  39.509  13.448
21663W        W88731  41.933  21.062   3.689
21664W        W88732  43.900  43.830  13.986
21665W        W88733  12.163  41.960   3.729
21666W        W88734  15.101  38.416   0.838
21667W        W88735   3.921  30.926   3.710
21668W        W88736  35.023  31.494   1.743
21669W        W88737   7.681  17.669  14.845
21670W        W88738  16.289  44.364   3.674
21671W        W88739  44.271  23.620  10.129
21672W        W88740  34.988  30.610   3.368
21673W        W88741  15.153  22.648   0.480
21674W        W88742  21.700  35.378  13.888
21675W        W88743  27.463  13.235  10.477
21676W        W88744  40.465  30.519   2.707
21677W        W88745  22.185  15.638  12.093
21678W        W88746   2.818  16.761   2.324
21679W        W88747  21.533  31.524  13.953
21680W        W88748  36.459  35.494  12.395
21681W        W88749  29.651  10.268  14.905
21682W        W88750   3.716  43.797  13.957
21683W        W88751   9.292  27.534  10.614
21684W        W88752  33.015  17.711   3.797
21685W        W88753  36.072  14.741  11.609
21686W        W88754   9.776  32.410  10.581
21687W        W88755  13.821   4.785   0.285
21688W        W88756  27.944  22.163  11.587
21689W        W88757  12.351  25.582   0.340
21690W        W88758  18.189  26.006  11.446
21691W        W88759  33.468  14.275  10.521
21692W        W88760  36.894  17.207   3.771
21693W        W88761  18.723  12.331  14.409
21694W        W88762  12.219  38.435   4.239
21695W        W88763   8.677  42.972  12.418
21696W        W88764  11.290  36.591   0.859
21697W        W88765   1.420  13.716  12.420
21698W        W88766   4.404  30.628  12.470
21699W        W88767  41.305  11.161   2.791
21700W        W88768  42.024   3.397   3.724
21701W        W88769  27.582  42.947   5.106
21702W        W88770  40.937  15.257   4.239
21703W        W88771  38.492  41.380   3.837
21704W        W88772  11.853  16.125   0.431
21705W        W88773   6.691   6.188   2.366
21706W        W88774  40.901   5.744   3.633
21707W        W88775  22.601  29.922   4.687
21708W        W88776   3.874  19.541  13.842
21709W        W88777   8.354  32.527  13.951
21710W        W88778  10.663   9.716  12.040
21711W        W88779  27.474  17.301   3.783
21712W        W88780  25.156  40.374  10.519
21713W        W88781  37.890  39.411  13.808
21714W        W88782   4.809  16.250  11.026
21715W        W88783  13.718  39.909   1.275
21716W        W88784   4.903  21.233  12.342
21717W        W88785  39.456  37.905   3.338
21718W        W88786  29.063  34.558   5.739
21719W        W88787  31.912  31.631  12.570
21720W        W88788  13.761   8.724   2.230
21721W        W88789  40.813  27.485   4.777
21722W        W88790   5.397  25.643   4.674
21723W        W88791  19.621   6.353   1.338
21724W        W88792  18.558  10.715   1.731
21725W        W88793  18.261  36.385  11.041
21726W        W88794  39.009  18.790  10.569
21727W        W88795  12.162  20.729   3.757
21728W        W88796  13.152  30.114   2.224
21729W        W88797  42.001  15.207   2.823
21730W        W88798  35.514  44.876  10.984
21731W        W88799  15.103  42.500   0.879
21732W        W88800  20.273  30.543   5.169
21733W        W88801   8.797  33.973  14.983
21734W        W88802  22.720   3.296  12.036
21735W        W88803  25.693  25.625   2.676
21736W        W88804  26.202  40.020  14.326
21737W        W88805  36.365  30.422   0.301
21738W        W88806  17.575  27.651  10.025
21739W        W88807  13.207   9.254  11.954
21740W        W88808  29.554  22.159  14.311
21741W        W88809   0.940  25.988  10.942
21742W        W88810   2.326   3.269  11.089
21743W        W88811  13.706  34.442   1.271
21744W        W88812  19.250  10.633   4.164
21745W        W88813  12.857  43.764   4.145
21746W        W88814  44.863  25.181   0.456
21747W        W88815  23.630  36.009   1.757
21748W        W88816  36.945  43.950  12.965
21749W        W88817   2.733  34.965  10.104
21750W        W88818  37.453  19.600   3.268
21751W        W88819  29.606  38.834   3.370
21752W        W88820  42.841   6.184  10.411
21753W        W88821  18.157   4.846   2.871
21754W        W88822  39.941  26.169   4.223
21755W        W88823  44.308  15.583  14.318
21756W        W88824  36.091  17.739  13.473
21757W        W88825  35.565   0.440   1.295
21758W        W88826  42.889   2.896   1.217
21759W        W88827  17.076  25.971   0.840
21760W        W88828  21.742  43.292   4.317
21761W        W88829  15.727  12.767   0.943
21762W        W88830  19.534  41.814   0.747
21763W        W88831  16.078  30.446   2.268
21764W        W88832  17.223  20.660   3.724
21765W        W88833   4.384   4.800  10.559
21766W        W88834   3.267  42.817  13.992
21767W        W88835  44.902   9.885   4.166
21768W        W88836  26.105   8.311   2.302
21769W        W88837   2.961  18.654  14.805
21770W        W88838  39.445  27.166  11.052
21771W        W88839   8.718  43.894  10.108
21772W        W88840   0.293  41.825   3.256
21773W        W88841  15.293  15.587  12.358
21774W        W88842  38.940  37.426   2.838
21775W        W88843   8.797  18.087  13.941
21776W        W88844  14.594   8.218   0.743
21777W        W88845  34.430  28.497  14.373
21778W        W88846  32.603   5.862   0.416
21779W        W88847   8.685   8.759  13.847
21780W        W88848  39.026  33.030   1.778
21781W        W88849  32.393  26.163  14.506
21782W        W88850  35.911  21.733   3.162
21783W        W88851  27.996  14.735  14.974
21784W        W88852  16.093   9.270   1.783
21785W        W88853  15.315   1.460  14.298
21786W        W88854  37.516  21.257   1.317
21787W        W88855  38.932  26.070  11.880
21788W        W88856  30.478  40.352   4.610
21789W        W88857  21.041  17.572  14.816
21790W        W88858  28.622  22.657  14.887
21791W        W88859  23.013  24.523   0.830
21792W        W88860  23.101   1.247   0.947
21793W        W88861  36.898  30.463   1.236
21794W        W88862  14.719  28.537   0.356
21795W        W88863  25.511   0.320   4.761
21796W        W88864  11.639  17.180   1.276
21797W        W88865  40.892  42.469   3.277
21798W        W88866  31.401   6.885  10.569
21799W        W88867  35.584  31.448  14.450
21800W        W88868  38.846  34.866   0.762
21801W        W88869  30.104  33.599  11.974
21802W        W88870   0.477  19.661  13.341
21803W        W88871  26.530  35.052   2.666
21804W        W88872  44.454  20.691   2.663
21805W        W88873  30.658   6.767   3.328
21806W        W88874  16.161  20.181   3.756
21807W        W88875  15.151  23.005   2.785
21808W        W88876  32.976  44.285   1.706
21809W        W88877   1.318  17.796  10.408
21810W        W88878  29.565  41.922   0.730
21811W        W88879  28.955  31.149   4.600
21812W        W88880   9.706   5.310   4.284
21813W        W88881   1.746  22.694  10.623
21814W        W88882  38.863  12.319   2.845
21815W        W88883  29.154   0.257  14.281
21816W        W88884  28.533   8.725   0.413
21817W        W88885  33.547  36.954   0.327
21818W        W88886  11.298  32.974  14.785
21819W        W88887  14.265  23.061   1.368
21820W        W88888  15.742  23.569   1.350
21821W        W88889  24.161  35.417  14.331
21822W        W88890   6.285  35.915   4.313
21823W        W88891  27.607  11.347   0.869
21824W        W88892  19.581  11.641  11.947
21825W        W88893   6.923  34.940   3.330
21826W        W88894  27.071  16.691  11.001
21827W        W88895  35.958   8.663   1.439
21828W        W88896  24.039  17.585   3.785
21829W        W88897  39.350  31.598   4.326
21830W        W88898  25.139  10.816   0.834
21831W        W88899   6.814   0.978   2.317
21832W        W88900  34.612  34.864  11.404
21833W        W88901  42.805  13.336   3.237
21834W        W88902  29.635   5.322  13.817
21835W        W88903  34.996  36.579   1.342
21836W        W88904  44.388   3.429  12.873
21837W        W88905   7.719   5.896   0.814
21838W        W88906  18.738  22.148   0.404
21839W        W88907  15.311   1.756  14.837
21840W        W88908  15.134  39.869   2.790
21841W        W88909  33.075   4.920  11.484
21842W        W88910  14.285  14.718   1.353
21843W        W88911  29.570   7.203   9.941
21844W        W88912   6.817  38.893   2.711
21845W        W88913  31.956  41.475   4.785
21846W        W88914  27.951  16.754  12.976
21847W        W88915   4.437  38.491   2.870
21848W        W88916  36.453   3.784  10.505
21849W        W88917  19.687  25.219   9.957
21850W        W88918  10.144  16.793  12.453
21851W        W88919  41.991   3.274  11.028
21852W        W88920  40.471  26.993  11.021
21853W        W88921  38.035   4.394  12.406
21854W        W88922  39.985  12.703   4.798
21855W        W88923   0.490  24.679  14.016
21856W        W88924   6.747  39.442   0.262
21857W        W88925  12.129  38.999   2.718
21858W        W88926  23.212  22.016  11.428
21859W        W88927  29.603  42.370  10.891
21860W        W88928  16.621  27.635  11.013
21861W        W88929  29.164  44.447  11.554
21862W        W88930  32.995  24.533   4.833
21863W        W88931   4.831   7.851   1.927
21864W        W88932  38.837  20.215   1.357
21865W        W88933  33.626  37.085  13.343
21866W        W88934  29.050  34.413   2.817
21867W        W88935  41.017  20.597   1.389
21868W        W88936  14.654  21.694  10.542
21869W        W88937  34.885  34.089   2.771
21870W        W88938  16.627  39.337  10.598
21871W        W88939  25.995   6.380  14.909
21872W        W88940  24.524   3.221   2.181
21873W        W88941  20.094  30.999   4.189
21874W        W88942  40.493  23.116   3.372
21875W        W88943  41.007  43.321   4.717
21876W        W88944  42.018  12.231   3.716
21877W        W88945   3.934  20.540   3.681
21878W        W88946  22.196  28.072   1.716
21879W        W88947  11.161  32.025   4.805
21880W        W88948  12.301   1.416   0.757
21881W        W88949  16.263  43.309   0.394
21882W        W88950  39.865  22.171  14.477
21883W        W88951  11.340  35.369  11.398
21884W        W88952  35.480  39.980   2.289
21885W        W88953  36.017  23.196  11.422
21886W        W88954  27.143  28.490   4.610
21887W        W88955   2.302  18.221   3.757
21888W        W88956  36.927  17.202  11.390
21889W        W88957  16.206  35.551   1.442
21890W        W88958  15.685  26.489   4.298
21891W        W88959  23.495  12.225  13.957
21892W        W88960  15.697  21.673  14.966
21893W        W88961   7.760  11.352   2.779
21894W        W88962  31.415  26.533  10.983
21895W        W88963  28.604   5.729  12.515
21896W        W88964   3.774  31.595  13.536
21897W        W88965  27.163   2.324  13.864
21898W        W88966  44.894  21.655   4.834
21899W        W88967  12.713   0.896  11.436
21900W        W88968  29.019  28.155   1.834
21901W        W88969  42.476  44.464   3.769
21902W        W88970  17.191   0.478   1.268
21903W        W88971  31.584  32.096  11.458
21904W        W88972  33.423   9.825   3.851
21905W        W88973   8.360  17.086   0.476
21906W        W88974  28.955  13.798   0.335
21907W        W88975  13.769  27.463   3.723
21908W        W88976   9.785   5.322   2.852
21909W        W88977  27.008  17.230   0.799
21910W        W88978  22.629  33.506   3.210
21911W        W88979  30.520  19.620  10.624
21912W        W88980  36.487  31.403  10.930
21913W        W88981  33.406  20.681   0.287
21914W        W88982  24.681   7.838   1.930
21915W        W88983  37.953  32.121  14.316
21916W        W88984  34.052  12.265  10.405
21917W        W88985  21.689  35.968   0.737
21918W        W88986   3.723  37.033  12.540
21919W        W88987  13.661  14.800   0.868
21920W        W88988  32.966  18.759  12.928
21921W        W88989  33.525  16.220  12.940
21922W        W88990  20.632  36.513  14.772
21923W        W88991  27.946   3.251  11.959
21924W        W88992  16.766  42.990  11.955
21925W        W88993  24.018  13.112  13.791
21926W        W88994  20.724  29.077  13.064
21927W        W88995  30.916  42.992   3.155
21928W        W88996  19.633  37.022  14.511
21929W        W88997  40.877  27.504  13.909
21930W        W88998  43.834  44.760  12.491
21931W        W88999  37.909  24.174  10.504
21932W        W89000  23.588  13.189   1.440
21933W        W89001   3.767   9.694  12.430
21934W        W89002   2.745  19.243  12.486
21935W        W89003  17.745   5.246   4.275
21936W        W89004  40.833  31.148  14.484
21937W        W89005  13.289  37.408  12.907
21938W        W89006  25.977  36.877  12.021
21939W        W89007  34.026  35.915   3.285
21940W        W89008   3.413  43.483   0.871
21941W        W89009  41.893  15.657   1.818
21942W        W89010  40.840  22.698   4.238
21943W        W89011  10.812  25.670  12.574
21944W        W89012  33.562  36.016   4.739
21945W        W89013  43.820  24.588  11.550
21946W        W89014  25.058  34.469   0.276
21947W        W89015  14.161  14.183  12.447
21948W        W89016  22.739  39.965   3.161
21949W        W89017  22.209   0.961  12.467
21950W        W89018  34.897  13.217  11.118
21951W        W89019   8.227   7.301   4.322
21952W        W89020   6.775   7.838  14.827
21953W        W89021  16.287  36.049  14.898
21954W        W89022  34.406  32.919  10.636
21955W        W89023   0.451  19.150   2.203
21956W        W89024  23.104  26.081  12.035
21957W        W89025  25.965  42.336   3.171
21958W        W89026  11.334  38.964  13.461
21959W        W89027  29.568   0.830  14.472
21960W        W89028  38.504  30.579  14.489
21961W        W89029  37.075  27.652  13.361
21962W        W89030  27.089   4.779  14.821
21963W        W89031   8.769  25.500  14.312
21964W        W89032  24.094   6.913  13.798
21965W        W89033  13.236   1.735   3.345
21966W        W89034   7.171  29.016   0.919
21967W        W89035  43.845  21.149   1.771
21968W        W89036  12.214  43.330  13.032
21969W        W89037  18.064  12.359  13.813
21970W        W89038   9.824  33.457   3.787
21971W        W89039  31.535  13.292  11.383
21972W        W89040  34.037   2.770  12.385
21973W        W89041   0.303  15.696  14.789
21974W        W89042  30.472  28.178   2.414
21975W        W89043  25.188  17.732  11.042
21976W        W89044  19.277  41.949   4.644
21977W        W89045  42.823   4.908   1.285
21978W        W89046  35.393  29.529  14.368
21979W        W89047  43.012  30.498   1.866
21980W        W89048   3.726  14.784   0.279
21981W        W89049  27.061  18.070  11.454
21982W        W89050  35.476  24.549   0.308
21983W        W89051  42.382  13.724  13.003
21984W        W89052  40.951  29.012   0.943
21985W        W89053  42.000  32.060  14.890
21986W        W89054  38.506  40.422  13.816
21987W        W89055  33.390   3.318  13.990
21988W        W89056  40.926  30.087   3.214
21989W        W89057  18.754  39.473  11.577
21990W        W89058   1.240  36.051  12.958
21991W        W89059  36.866  11.154   0.327
21992W        W89060   1.972  38.992  13.892
21993W        W89061   1.381  27.152   1.451
21994W        W89062  16.606  28.999  13.935
21995W        W89063  40.811  33.423  14.302
21996W        W89064   3.786  42.932  10.911
21997W        W89065  33.960  34.458  12.490
21998W        W89066  12.692  34.597   0.754
21999W        W89067   9.660  15.778   3.308
22000W        W89068  11.812   4.356  10.485
22001W        W89069   2.420  13.628   3.191
22002W        W89070  29.022  26.612  13.888
22003W        W89071   8.359  24.074   0.741
22004W        W89072   5.835   2.720   1.228
22005W        W89073  33.531   1.951  12.006
22006W        W89074  29.035   8.252   1.879
22007W        W89075  28.617  10.840   2.852
22008W        W89076   4.747  43.328  11.985
22009W        W89077  31.098   0.856  11.491
22010W        W89078  12.830  31.568   0.337
22011W        W89079  29.448  43.300   0.441
22012W        W89080   2.858  42.823  10.520
22013W        W89081   4.428  16.279   2.197
22014W        W89082  35.359  44.910  11.532
22015W        W89083   7.845  44.788   3.297
22016W        W89084  33.922  18.574  11.903
22017W        W89085  43.461  38.054  13.412
22018W        W89086  28.520  37.831  13.346
22019W        W89087  35.071   3.820  12.915
22020W        W89088  36.352  26.528  12.089
22021W        W89089   2.876   6.309   1.800
22022W        W89090  11.669  34.444  10.548
22023W        W89091  33.383  34.471  14.811
22024W        W89092  20.256  32.586   4.315
22025W        W89093   1.912  31.590  14.858
22026W        W89094   0.474  25.584  14.961
22027W        W89095  43.764  18.653  14.384
22028W        W89096  37.451  35.940  12.074
22029W        W89097  39.022  27.549   3.355
22030W        W89098  16.758  10.175   0.432
22031W        W89099  44.498  22.598  13.486
22032W        W89100   4.752  15.746   1.827
22033W        W89101  41.487  32.119   2.338
22034W        W89102   5.731  40.368  14.917
22035W        W89103  38.990  15.153  14.760
22036W        W89104  41.959   8.402   0.252
22037W        W89105   0.828   2.234   2.716
22038W        W89106  41.425   2.416   2.842
22039W        W89107  42.818  36.437  12.558
22040W        W89108  27.040   3.822   1.446
22041W        W89109  41.903  15.804   1.407
22042W        W89110  19.208  26.993  14.515
22043W        W89111   4.287   8.769  10.520
22044W        W89112  41.997   4.906  12.895
22045W        W89113  18.153  24.611   1.302
22046W        W89114  36.068  31.575   3.672
22047W        W89115   6.787  27.636  10.557
22048W        W89116  32.437  24.661  14.925
22049W        W89117  10.299  12.124  12.000
22050W        W89118  28.971   9.164  10.993
22051W        W89119  14.131   7.886  12.407
22052W        W89120  34.453  37.036  12.849
22053W        W89121  39.816   0.867  14.926
22054W        W89122  29.520  33.099  11.862
22055W        W89123  17.130  44.361  10.523
22056W        W89124  29.049  13.110  10.432
22057W        W89125  42.901  27.688   1.428
22058W        W89126  28.997   5.897  10.503
22059W        W89127  26.702   2.245  13.044
22060W        W89128  44.264   0.976  11.950
22061W        W89129  26.592  20.538  10.407
22062W        W89130   8.280  21.547  11.895
22063W        W89131  30.962   5.340   3.839
22064W        W89132  34.532  41.025   0.918
22065W        W89133  26.974  41.364  12.993
22066W        W89134  15.813  40.548   0.755
22067W        W89135  16.135   1.444   4.797
22068W        W89136  30.987  26.617   1.243
22069W        W89137  37.962   4.884   0.863
22070W        W89138   7.818  42.348  13.927
22071W        W89139  34.111  35.503   4.625
22072W        W89140  38.962   8.725   0.756
22073W        W89141  39.470   5.819   1.342
22074W        W89142  34.614   2.241  12.918
22075W        W89143  18.756  19.733  11.871
22076W        W89144  22.583  21.020  13.468
22077W        W89145   3.357  39.865  12.441
22078W        W89146  31.505  27.048  14.801
22079W        W89147  30.943  30.529  13.346
22080W        W89148  27.692  31.470   3.635
22081W        W89149  10.258  44.951  14.389
22082W        W89150  22.125  20.075  12.551
22083W        W89151  18.685  30.447   9.566
22084W        W89152  38.844  35.093   5.125
22085W        W89153  32.994  15.119  13.412
22086W        W89154  40.007  28.655   3.723
22087W        W89155   7.701  31.115  13.846
22088W        W89156   3.861   9.764  13.320
22089W        W89157  25.645  25.670   0.393
22090W        W89158  23.633  43.355   1.871
22091W        W89159   4.374  35.922  11.043
22092W        W89160   2.359  24.060   3.858
22093W        W89161  35.966  41.384   3.676
22094W        W89162  44.826  26.653  10.963
22095W        W89163  40.989   6.906  12.902
22096W        W89164  20.592  26.007  14.891
22097W        W89165  13.117   5.913  12.877
22098W        W89166   7.247  35.479  12.894
22099W        W89167  18.227   9.731   0.778
22100W        W89168  40.033  12.854   0.362
22101W        W89169  19.605  17.624  11.011
22102W        W89170   6.921  28.961   2.723
22103W        W89171  37.877  21.197   1.879
22104W        W89172   4.372  10.818  14.989
22105W        W89173  26.108   4.776   4.276
22106W        W89174  15.174  33.060  14.766
22107W        W89175  35.531   0.376  14.432
22108W        W89176  44.870  30.635  14.314
22109W        W89177  32.487  21.603   3.284
22110W        W89178   7.786  35.979   2.179
22111W        W89179   3.823  23.579   0.907
22112W        W89180  13.842   9.649  12.999
22113W        W89181  11.341   0.494   1.848
22114W        W89182  40.417  21.224   3.734
22115W        W89183   1.363  34.984   0.406
22116W        W89184   4.209  11.307  11.955
22117W        W89185  17.199   4.859  10.101
22118W        W89186   4.444  44.496  14.021
22119W        W89187  26.170  43.991  12.475
22120W        W89188  33.981  35.507  14.413
22121W        W89189   8.790  26.636   3.183
22122W        W89190   0.929  30.647  13.354
22123W        W89191  11.306  43.448   3.226
22124W        W89192  12.274  13.737  14.487
22125W        W89193  29.018  15.091   4.268
22126W        W89194  35.420  31.083   4.204
22127W        W89195  42.342  38.888  13.525
22128W        W89196  39.036  17.744  14.290
22129W        W89197  28.038  32.934  12.045
22130W        W89198  28.563  12.831  11.907
22131W        W89199  40.005  26.520  13.489
22132W        W89200   0.902  19.121  13.847
22133W        W89201   1.762   4.786   3.334
22134W        W89202  10.206  16.651  10.488
22135W        W89203  12.764  40.360  14.004
22136W        W89204  17.658   4.229  10.891
22137W        W89205  30.029  22.120  12.938
22138W        W89206  23.210  10.159  14.815
22139W        W89207  34.101  24.573  11.971
22140W        W89208  18.618   2.898  11.911
22141W        W89209  44.358  13.790   0.783
22142W        W89210  10.320  12.749   0.384
22143W        W89211  38.499   7.392  12.025
22144W        W89212  43.377  32.580  10.971
22145W        W89213  15.670  15.777   1.721
22146W        W89214  43.389  19.089   1.306
22147W        W89215   8.856  33.883   2.193
22148W        W89216  12.126  35.535  13.000
22149W        W89217  44.780  42.436   3.691
22150W        W89218  15.256  33.009  13.954
22151W        W89219  27.473  18.664   1.846
22152W        W89220   5.756   7.818   3.194
22153W        W89221   4.376   1.454   1.707
22154W        W89222  43.270  42.818   0.363
22155W        W89223   5.215  12.195  14.868
22156W        W89224  26.986  17.101  11.879
22157W        W89225  12.740  19.672  14.872
22158W        W89226  41.435  17.721   1.424
22159W        W89227  35.968  39.353  11.947
22160W        W89228  21.151  15.200   1.842
22161W        W89229  25.026  13.727   3.780
22162W        W89230  21.061  17.644   1.804
22163W        W89231  15.594  42.338   3.739
22164W        W89232  11.332  42.394   1.872
22165W        W89233  24.196  11.135   4.264
22166W        W89234  40.828  11.768  14.325
22167W        W89235  27.619  29.518   0.896
22168W        W89236  40.799  38.837  12.078
22169W        W89237  35.431  32.896  13.872
22170W        W89238  28.074  33.083   1.292
22171W        W89239  40.952  33.002  10.890
22172W        W89240  43.938   5.344  10.962
22173W        W89241  10.203  27.987   5.125
22174W        W89242   0.770  15.175   3.852
22175W        W89243   1.916   6.284   2.765
22176W        W89244   8.836   8.889   2.888
22177W        W89245  39.810  36.396  11.000
22178W        W89246  39.966  39.414  15.000
22179W        W89247  26.059  24.207  14.882
22180W        W89248   0.799  37.475  12.416
22181W        W89249  43.456  17.131  13.334
22182W        W89250  27.058  29.613  14.968
22183W        W89251  22.016  40.385  11.475
22184W        W89252  38.489  38.965   0.858
22185W        W89253  29.029   3.909   1.805
22186W        W89254  34.541   1.897   1.884
22187W        W89255   5.738  20.606  13.063
22188W        W89256  29.439  24.663   0.288
22189W        W89257  35.381  19.744  13.899
22190W        W89258  16.667  32.894   4.712
22191W        W89259  30.104   9.331  14.397
22192W        W89260  22.030  28.609  13.798
22193W        W89261  27.161  35.925  14.987
22194W        W89262  27.048   0.761  13.531
22195W        W89263  27.666  26.049  14.816
22196W        W89264  30.521  12.245  11.027
22197W        W89265  18.736  35.523  12.968
22198W        W89266  35.960  38.403   4.254
22199W        W89267  44.783  24.629  14.811
22200W        W89268  12.269  13.179  10.521
22201W        W89269  29.600  17.566  14.364
22202W        W89270   1.858   4.278  12.954
22203W        W89271  16.093  19.135   1.847
22204W        W89272  12.280  21.743   3.679
22205W        W89273  42.329   0.810   4.239
22206W        W89274  26.550  43.766   4.648
22207W        W89275  13.723  41.510  10.481
22208W        W89276  25.181  14.105  12.081
22209W        W89277  42.806   8.262  13.851
22210W        W89278  28.673  39.849   4.803
22211W        W89279  35.563  42.408   3.865
22212W        W89280  22.149  18.756  13.357
22213W        W89281  19.542  30.651  13.441
22214W        W89282  23.036  43.783  10.972
22215W        W89283   9.890  43.295   0.837
22216W        W89284  18.756  31.154  10.621
22217W        W89285  32.138  29.163  11.503
22218W        W89286  29.995  13.777   4.316
22219W        W89287  14.667  11.272   1.873
22220W        W89288  37.847  22.233   0.312
22221W        W89289   4.400  17.180   4.651
22222W        W89290  34.910  28.642   3.756
22223W        W89291  12.736  32.987   3.817
22224W        W89292  39.392  19.679   2.760
22225W        W89293  15.650  40.830   1.434
22226W        W89294  10.674   3.949  13.940
22227W        W89295   3.223  28.118   0.924
22228W        W89296  37.361   4.351   2.178
22229W        W89297  38.959  33.972   2.681
22230W        W89298  31.966   0.406   0.480
22231W        W89299  41.345  23.171   0.392
22232W        W89300  27.562  14.324  11.399
22233W        W89301  19.650  37.565   4.191
22234W        W89302  13.834  25.497  11.038
22235W        W89303  37.568  39.432   2.665
22236W        W89304  35.030  24.555   2.229
22237W        W89305  11.207  22.638   2.263
22238W        W89306  31.549   8.214  14.936
22239W        W89307  25.528  39.838   3.685
22240W        W89308  27.683  43.966  11.874
22241W        W89309  14.249  32.466   4.254
22242W        W89310  38.955  21.699  12.454
22243W        W89311  17.210  20.686  14.993
22244W        W89312  24.647  12.778  12.966
22245W        W89313  32.042   3.286   1.902
22246W        W89314  29.465  21.640   4.608
22247W        W89315  15.230  41.874   3.360
22248W        W89316  36.485   4.243   1.447
22249W        W89317  23.736  28.571   0.910
22250W        W89318  26.633  25.118  10.954
22251W        W89319  14.813  21.033  10.913
22252W        W89320  41.448  24.692  11.971
22253W        W89321  20.647  28.655  13.897
22254W        W89322  26.140   5.264   3.178
22255W        W89323  29.994  32.573  10.024
22256W        W89324  30.140  35.940   3.321
22257W        W89325  37.342  34.441   0.426
22258W        W89326   1.442  12.171  11.970
22259W        W89327  30.476  34.375  12.055
22260W        W89328   3.719   1.819  13.866
22261W        W89329  43.876  28.985  13.816
22262W        W89330  26.130  41.862   1.849
22263W        W89331  28.559  26.511  13.892
22264W        W89332  16.747  37.843  13.317
22265W        W89333  44.284   7.175  12.433
22266W        W89334  19.720  23.507  14.916
22267W        W89335  32.446  36.062   4.747
22268W        W89336  34.392  35.581  14.386
22269W        W89337  38.889  16.677  12.454
22270W        W89338  30.042  29.599  14.900
22271W        W89339  36.905  18.131  14.833
22272W        W89340  35.430  25.674  10.969
22273W        W89341  14.626  26.972  13.388
22274W        W89342  43.326  41.468  10.548
22275W        W89343  21.645  38.825  12.352
22276W        W89344  41.018   8.162   3.173
22277W        W89345  35.573  27.569  10.405
22278W        W89346   7.267  36.369  11.961
22279W        W89347  39.962  33.431   1.793
22280W        W89348  30.070  33.029  14.342
22281W        W89349  17.734  11.157  14.497
22282W        W89350   7.200  31.142   1.798
22283W        W89351  13.616  44.412  14.771
22284W        W89352  13.293  11.187   4.117
22285W        W89353  11.819  24.096  13.847
22286W        W89354  38.452   6.811   0.800
22287W        W89355  38.060  26.120  12.836
22288W        W89356  24.032  43.772   0.912
22289W        W89357  32.515   5.325   3.681
22290W        W89358  42.836  36.859   3.834
22291W        W89359  40.355  12.793  12.027
22292W        W89360  32.035  25.126   2.668
22293W        W89361   0.809  12.115  12.377
22294W        W89362  27.631  10.338   9.995
22295W        W89363  29.009  40.839  13.914
22296W        W89364  17.197   0.908  13.832
22297W        W89365  35.857   0.758   4.207
22298W        W89366  27.612  18.717  12.922
22299W        W89367   9.861   5.354   0.425
22300W        W89368  27.472  44.375  14.331
22301W        W89369  25.020  22.114  12.514
22302W        W89370   0.906  39.423   2.829
22303W        W89371  42.427   8.225   1.375
22304W        W89372   6.187  44.456   4.768
22305W        W89373  20.724  36.090  14.278
22306W        W89374  43.346  18.652  10.000
22307W        W89375  26.062  25.187  13.993
22308W        W89376  21.518  32.419   0.832
22309W        W89377  25.544  35.068   5.088
22310W        W89378   3.763  10.760  14.813
22311W        W89379  44.954  35.383  13.914
22312W        W89380  10.665  17.718  12.090
22313W        W89381   2.355  19.701  11.460
22314W        W89382  30.462  21.175   3.630
22315W        W89383  10.877  32.899  11.419
22316W        W89384  41.537  33.521  12.961
22317W        W89385  44.830  24.007   4.743
22318W        W89386  22.225   0.811   4.233
22319W        W89387  44.907  35.443   1.882
22320W        W89388  40.928  42.404  13.384
22321W        W89389  11.650  18.629  14.920
22322W        W89390  37.009   1.778  14.347
22323W        W89391  33.446  31.063  10.913
22324W        W89392   3.813  27.128  10.424
22325W        W89393  33.050  17.128  13.838
22326W        W89394  38.454   9.245  10.950
22327W        W89395  28.102  31.092   3.761
22328W        W89396  34.078  36.579   4.743
22329W        W89397  12.165   2.958   3.768
22330W        W89398   8.291  16.590   3.657
22331W        W89399  21.121  29.428  12.848
22332W        W89400  15.275  23.212   1.246
22333W        W89401  18.663  37.872  10.555
22334W        W89402  42.469  38.357   2.180
22335W        W89403   2.414  28.530  13.376
22336W        W89404  18.150  33.415   0.483
22337W        W89405   8.270  14.655   0.475
22338W        W89406   6.250  23.558  14.936
22339W        W89407  33.437  17.079   0.473
22340W        W89408  25.207  27.467  12.446
22341W        W89409  42.439  30.437  13.927
22342W        W89410  40.019   1.740   4.699
22343W        W89411  29.610  31.092  10.595
22344W        W89412  11.857   4.814   1.445
22345W        W89413  19.122  28.496   3.148
22346W        W89414  38.346   3.836   1.401
22347W        W89415  41.394  24.231   1.319
22348W        W89416  22.680  34.878  11.470
22349W        W89417  16.760  18.658   5.240
22350W        W89418  11.196  27.174  12.826
22351W        W89419   6.820  21.656  10.409
22352W        W89420  26.007  21.208   2.903
22353W        W89421   8.273  37.983   2.738
22354W        W89422  10.813  12.667   3.329
22355W        W89423  41.404  20.527  13.372
22356W        W89424  14.779   0.409  14.407
22357W        W89425  42.814  23.646  12.953
22358W        W89426  24.135  20.101  12.439
22359W        W89427  10.379  26.592  10.037
22360W        W89428   9.256  44.333  12.921
22361W        W89429  20.121  12.620  14.391
22362W        W89430  38.468   3.887  13.981
22363W        W89431  37.013  27.075   4.668
22364W        W89432  12.128  39.499   2.720
22365W        W89433  22.704  11.262  13.476
22366W        W89434  15.783   4.884  11.102
22367W        W89435  23.589   0.491  14.030
22368W        W89436  29.523  26.611  12.373
22369W        W89437  32.413  44.889   2.882
22370W        W89438   3.877  21.233   2.814
22371W        W89439  11.319  25.712  14.396
22372W        W89440  31.462  23.700   0.260
22373W        W89441  42.982   3.820  14.805
22374W        W89442  43.317  13.177  10.909
22375W        W89443  15.247  26.171   2.186
22376W        W89444  11.637  19.688   4.710
22377W        W89445  10.795   6.818   3.311
22378W        W89446  20.548   1.830   0.770
22379W        W89447  17.102   6.413   3.670
22380W        W89448  37.967  18.212   3.826
22381W        W89449  39.814  24.528  12.999
22382W        W89450  18.597   2.366   1.252
22383W        W89451  29.964  26.703   4.333
22384W        W89452  24.203  16.123   3.647
22385W        W89453   8.831  19.086   9.582
22386W        W89454  27.034  28.143  13.825
22387W        W89455  41.438   6.250   0.361
22388W        W89456   0.332  44.337  11.001
22389W        W89457  12.245   5.366   4.716
22390W        W89458  22.098  37.987   3.703
22391W        W89459  32.042  14.817  10.929
22392W        W89460  31.985  40.433  12.346
22393W        W89461   2.463   0.312  10.440
22394W        W89462  26.472   9.212  13.471
22395W        W89463  33.613   9.807  13.333
22396W        W89464  37.073   1.332   1.933
22397W        W89465   6.779  16.154  13.880
22398W        W89466   2.808  33.039   1.431
22399W        W89467  30.483  12.795  12.844
22400W        W89468  33.051  26.551  12.021
22401W        W89469  27.052  15.792   2.877
22402W        W89470   2.240   0.756   4.136
22403W        W89471  42.366  29.097  12.896
22404W        W89472  35.995  25.566   0.916
22405W        W89473   9.819  22.065  11.060
22406W        W89474   6.404   6.838   2.889
22407W        W89475  20.242   5.793  12.863
22408W        W89476  15.634  36.422  12.567
22409W        W89477  34.548  37.524   3.332
22410W        W89478  26.111   3.402   4.761
22411W        W89479  18.623  35.961   3.705
22412W        W89480  44.989  20.617  13.501
22413W        W89481  26.523  16.223   4.191
22414W        W89482   5.344   5.196   4.649
22415W        W89483  38.334  34.595  14.455
22416W        W89484  15.661  27.591  10.965
22417W        W89485  41.447  16.091  13.366
22418W        W89486  23.008   6.229   0.887
22419W        W89487  11.209  17.168   1.776
22420W        W89488  42.326  38.337  13.904
22421W        W89489  39.883  30.064  10.934
22422W        W89490  29.541   1.311   3.220
22423W        W89491  14.280  24.515  14.759
22424W        W89492  26.634  40.470  11.880
22425W        W89493  24.692  22.600   2.805
22426W        W89494  30.011  30.442  13.996
22427W        W89495  26.677  27.107   1.749
22428W        W89496  29.552  28.003   0.837
22429W        W89497   3.413  32.398  14.830
22430W        W89498  17.062   5.734   0.937
22431W        W89499  26.179  24.206  13.497
22432W        W89500   5.377  34.470   0.404
22433W        W89501  21.663   3.329  11.876
22434W        W89502  32.103  41.815  12.841
22435W        W89503  37.953  16.254   1.748
22436W        W89504  20.247  11.231   3.340
22437W        W89505  16.145  25.509  13.382
22438W        W89506   1.324   2.325  14.314
22439W        W89507  10.852   0.809   5.719
22440W        W89508  39.344  31.563   2.847
22441W        W89509  11.708  12.359   3.774
22442W        W89510  30.915  20.668  14.399
22443W        W89511  34.031  21.607  11.993
22444W        W89512  22.606  12.273  12.940
22445W        W89513  30.520  11.632   3.312
22446W        W89514  40.460  34.955  11.445
22447W        W89515  18.074  11.690   1.324
22448W        W89516  41.880   3.775  14.987
22449W        W89517  23.125  20.703  11.483
22450W        W89518  28.454  43.865   2.301
22451W        W89519  35.091  31.472  13.485
22452W        W89520   3.221  26.677   2.415
22453W        W89521  44.922   8.698   4.279
22454W        W89522  32.916   5.928  12.483
22455W        W89523  19.173   4.254   2.763
22456W        W89524  27.957  22.587  10.158
22457W        W89525  31.507  41.467   3.865
22458W        W89526  20.272  22.181   3.162
22459W        W89527  20.721  14.721  11.037
22460W        W89528  27.589   2.965  12.580
22461W        W89529  40.367  19.727   3.229
22462W        W89530  26.165  42.493  13.386
22463W        W89531  27.038  26.061   0.286
22464W        W89532  24.723  30.629  12.045
22465W        W89533  29.488  10.178   3.757
22466W        W89534  21.164  15.642  14.841
22467W        W89535  27.107   6.908   0.398
22468W        W89536   5.929  31.580   4.701
22469W        W89537  32.531  18.669  14.776
22470W        W89538  25.627  19.777   2.835
22471W        W89539  17.636  28.995  14.429
22472W        W89540  31.544  26.658   2.713
22473W        W89541   9.679  39.437   0.793
22474W        W89542  14.595  36.538   3.787
22475W        W89543  12.309  21.017   4.200
22476W        W89544  21.022  42.515   3.227
22477W        W89545  14.633   4.798  14.287
22478W        W89546   9.374  40.967   1.421
22479W        W89547  17.702  22.142   1.376
22480W        W89548  28.935  32.413  13.971
22481W        W89549   0.826  28.630   4.658
22482W        W89550  33.912  37.833  11.610
22483W        W89551  42.857  37.842   3.866
22484W        W89552  22.079  32.522   3.195
22485W        W89553  44.434   6.212   4.278
22486W        W89554  21.030  15.190   0.388
22487W        W89555  36.862  22.746   2.868
22488W        W89556  34.985  31.572  14.426
22489W        W89557  15.727  16.590   1.881
22490W        W89558  29.053  25.993   3.776
22491W        W89559  36.470  36.006   5.147
22492W        W89560  11.701   1.762  10.513
22493W        W89561   3.331  40.952   0.283
22494W        W89562  21.641  28.511   4.345
22495W        W89563  40.833  26.081  14.867
22496W        W89564  29.509  13.261  13.321
22497W        W89565  31.992  28.529  11.454
22498W        W89566  32.434  29.661   3.217
22499W        W89567   4.798  10.857   2.787
22500W        W89568  23.691  44.494   4.178
22501W        W89569  15.789  15.322   9.959
22502W        W89570  33.004  43.311   3.856
22503W        W89571   6.868  10.166   3.837
22504W        W89572  41.348  17.110  13.511
22505W        W89573  25.641  30.095   0.321
22506W        W89574   5.854  28.013   4.188
22507W        W89575   1.970  14.239   0.474
22508W        W89576  18.628  27.594   9.653
22509W        W89577  20.122  40.017  12.933
22510W        W89578  12.124  25.128  12.096
22511W        W89579  22.182  39.452   2.258
22512W        W89580  15.326  41.348  13.926
22513W        W89581  27.553  21.654   3.641
22514W        W89582  20.562   2.424  11.417
22515W        W89583  28.999  23.511   3.629
22516W        W89584  30.473  28.590   3.175
22517W        W89585  42.285  37.833  13.364
22518W        W89586   8.724  36.948  11.036
22519W        W89587  19.571  25.586   3.380
22520W        W89588  30.621  27.994   9.940
22521W        W89589  24.657  23.163  13.395
22522W        W89590  29.949  18.690  14.978
22523W        W89591  38.943  40.350  10.537
22524W        W89592   6.377  36.932  12.039
22525W        W89593  39.846  35.930  12.486
22526W        W89594  36.995  41.998  10.982
22527W        W89595   1.811  36.435   0.280
22528W        W89596   9.878   4.925   3.731
22529W        W89597  36.016  17.220   1.340
22530W        W89598  41.315   2.784   0.917
22531W        W89599  37.565   8.879  12.047
22532W        W89600  43.420  37.917  10.406
22533W        W89601  34.419  35.578  14.979
22534W        W89602  41.008  22.516  13.390
22535W        W89603  25.654  26.686  11.432
22536W        W89604   9.189  26.507   4.720
22537W        W89605  33.116  25.210   0.761
22538W        W89606   6.287  22.133  13.471
22539W        W89607   7.878  33.052   0.277
22540W        W89608  26.041   1.934  12.566
22541W        W89609  37.930  11.676  11.512
22542W        W89610  33.436   8.763  14.881
22543W        W89611  44.497  21.057   3.667
22544W        W89612   0.985  22.558  14.347
22545W        W89613  42.933  34.030   4.738
22546W        W89614  40.928  19.250   1.365
22547W        W89615   3.419   3.923   1.245
22548W        W89616  12.752  24.573   1.755
22549W        W89617  33.438  21.066  11.995
22550W        W89618  23.119  41.835   4.622
22551W        W89619  35.537  17.148   0.821
22552W        W89620  40.492  33.510   5.320
22553W        W89621  18.733  31.456  11.406
22554W        W89622  37.905  11.295  10.951
22555W        W89623  38.569  29.590   4.791
22556W        W89624  22.528  13.221   9.995
22557W        W89625  34.931  36.010  12.489
22558W        W89626  31.446  12.201  11.937
22559W        W89627  26.685  18.249   0.283
22560W        W89628   6.686   7.292   1.911
22561W        W89629  38.916  34.966   0.297
22562W        W89630  34.879  23.042   2.864
22563W        W89631  42.321   4.852  13.984
22564W        W89632   4.301  40.488   2.412
22565W        W89633   9.309  40.452  12.466
22566W        W89634  44.359  42.980  13.028
22567W        W89635  30.140  23.527   1.311
22568W        W89636  28.963  43.298  11.954
22569W        W89637  21.043  31.141   3.279
22570W        W89638  12.130  10.798  14.477
22571W        W89639  11.152  21.237   2.889
22572W        W89640  18.713  20.108  10.575
22573W        W89641   7.340   2.929   1.437
22574W        W89642  15.183  36.069   4.296
22575W        W89643  33.039  42.945   2.253
22576W        W89644  22.998   5.756  12.390
22577W        W89645  40.897  23.611  12.373
22578W        W89646  18.605  34.933  12.458
22579W        W89647  15.781  22.225  12.055
22580W        W89648   0.354  33.407  13.007
22581W        W89649  25.210  21.232   1.368
22582W        W89650  10.821  33.909  11.595
22583W        W89651  35.007  44.798   4.805
22584W        W89652   5.241   8.758  14.312
22585W        W89653  12.202   2.808   0.294
22586W        W89654  16.709  33.475  10.899
22587W        W89655  26.680  39.871  11.054
22588W        W89656   0.791   5.248   3.654
22589W        W89657  32.503  38.347   3.740
22590W        W89658  39.514  28.111  12.005
22591W        W89659  42.821   9.183   0.385
22592W        W89660  34.110   8.741  13.843
22593W        W89661  19.731  37.024  10.997
22594W        W89662  13.684  11.859   0.924
22595W        W89663  28.481   1.877  10.453
22596W        W89664  11.207  34.550   4.171
22597W        W89665  32.499  17.750  14.871
22598W        W89666  38.026  38.846   1.833
22599W        W89667  27.016  21.151  11.952
22600W        W89668  41.972  13.329  14.918
22601W        W89669  43.919  14.288  11.405
22602W        W89670  32.026  15.144  11.447
22603W        W89671   5.857  40.528  14.362
22604W        W89672  41.387  38.854   0.311
22605W        W89673  23.730  35.973   2.347
22606W        W89674  37.337  25.011  11.024
22607W        W89675  43.408  21.682  14.886
22608W        W89676  13.189   8.768   1.406
22609W        W89677  27.621  25.193  13.532
22610W        W89678  31.143   0.907   5.251
22611W        W89679  42.780  36.465  13.400
22612W        W89680   1.968  11.850   4.679
22613W        W89681  26.600  19.620   4.216
22614W        W89682  10.204  23.494   4.169
22615W        W89683   6.824  35.937   4.119
22616W        W89684  26.588   4.450  10.898
22617W        W89685  42.876  36.540   3.205
22618W        W89686  37.431  10.339  14.855
22619W        W89687  11.825  43.963  10.642
22620W        W89688  43.019  15.720   2.399
22621W        W89689   5.861   1.239   2.412
22622W        W89690  31.972  43.013  13.447
22623W        W89691  15.676  37.059  12.963
22624W        W89692  13.326  36.524  13.015
22625W        W89693  15.273   1.401   4.763
22626W        W89694   7.230  38.385   0.337
22627W        W89695  33.064  35.857  12.928
22628W        W89696   3.237  26.542   0.944
22629W        W89697   7.394   1.931   3.268
22630W        W89698   9.730   4.731   1.336
22631W        W89699   7.174  34.518  10.557
22632W        W89700  29.933  11.751   3.162
22633W        W89701   4.434  25.073  12.056
22634W        W89702  32.443  31.567   2.327
22635W        W89703  39.458  44.320   4.696
22636W        W89704   9.888  31.494  12.022
22637W        W89705   5.245  43.401   2.312
22638W        W89706   4.792  19.041   2.191
22639W        W89707  28.484  31.631   2.833
22640W        W89708  22.686  22.210   1.708
22641W        W89709  41.305  26.199   2.717
22642W        W89710  31.131  37.034   0.821
22643W        W89711  11.708   3.752  14.822
22644W        W89712  26.958  14.171   1.906
22645W        W89713  25.188   6.870   1.435
22646W        W89714  36.430  30.647  10.595
22647W        W89715  24.980   9.156  11.549
22648W        W89716  33.979  12.616   1.262
22649W        W89717   9.783   9.654   1.736
22650W        W89718  16.160  35.884   2.346
22651W        W89719   1.822  41.001   1.224
22652W        W89720   2.959  44.886   2.379
22653W        W89721  31.498  32.444   3.149
22654W        W89722  17.165   3.369   4.623
22655W        W89723  27.677  34.938  12.910
22656W        W89724  34.590  25.998  11.079
22657W        W89725  11.867  26.158   0.949
22658W        W89726  31.458  11.361   4.779
22659W        W89727  11.720  20.074  10.505
22660W        W89728   5.783   0.832   0.742
22661W        W89729  14.623  25.169  13.454
22662W        W89730  36.440  21.185   4.742
22663W        W89731  17.203  36.078  10.973
22664W        W89732  34.970  29.542  11.542
22665W        W89733  34.083  20.081   3.360
22666W        W89734  37.466  38.915   0.806
22667W        W89735  31.146  24.146  14.963
22668W        W89736  26.043  15.135  14.344
22669W        W89737  26.624   0.277  12.969
22670W        W89738  20.190  16.678  14.791
22671W        W89739  38.388  11.295   4.119
22672W        W89740  18.608  43.022   5.187
22673W        W89741  17.571   7.827   1.284
22674W        W89742  18.185   8.307   2.880
22675W        W89743  12.853  14.784  14.765
22676W        W89744  36.019  37.550   4.195
22677W        W89745  20.102   7.896   1.342
22678W        W89746  24.605  16.792   4.209
22679W        W89747  43.441  26.541   1.744
22680W        W89748  13.318  27.684   0.908
22681W        W89749  36.892  29.109   0.824
22682W        W89750  11.721  34.414   1.875
22683W        W89751   1.377   6.775  13.411
22684W        W89752  14.231   3.766   1.323
22685W        W89753  27.568  44.371  12.458
22686W        W89754   5.710  29.092   0.889
22687W        W89755  17.684  37.055  11.422
22688W        W89756  11.804   2.830   2.829
22689W        W89757  16.646  22.506  13.793
22690W        W89758  16.235  40.865   4.329
22691W        W89759  21.747  40.868   2.269
22692W        W89760   8.233   5.349  14.408
22693W        W89761  38.058  19.241   4.635
22694W        W89762  10.238   7.340   3.636
22695W        W89763  37.962  10.751  13.454
22696W        W89764  15.142  22.207   9.959
22697W        W89765  40.050  26.159   1.445
22698W        W89766  28.170  38.431  11.993
22699W        W89767  22.069  35.451   0.926
22700W        W89768  13.259   7.845   3.151
22701W        W89769  36.026  20.757   0.934
22702W        W89770   0.770  10.281  14.341
22703W        W89771   8.887  31.151  12.894
22704W        W89772  22.699  40.861   3.756
22705W        W89773   5.930  31.937  11.494
22706W        W89774   1.358   0.934  10.564
22707W        W89775  39.429  20.206  10.575
22708W        W89776  27.476  14.135  10.569
22709W        W89777  14.149  10.166  12.340
22710W        W89778  25.148  11.210   0.919
22711W        W89779  29.160  43.968  14.876
22712W        W89780   0.424   8.235  14.934
22713W        W89781   2.802  10.272   3.710
22714W        W89782  36.562   6.904   0.352
22715W        W89783   0.255   7.211  13.347
22716W        W89784  18.694  18.061   3.257
22717W        W89785  25.592  42.013   2.179
22718W        W89786  29.099   7.175   2.226
22719W        W89787   3.931   8.761   2.238
22720W        W89788  27.981  30.553   1.355
22721W        W89789  22.683  39.034  14.821
22722W        W89790  41.905  20.112  13.913
22723W        W89791   5.799  33.027   3.150
22724W        W89792   8.171  37.339  11.559
22725W        W89793  18.179  12.309  12.956
22726W        W89794  22.103   3.334  13.429
22727W        W89795  14.800  30.966  12.022
22728W        W89796   5.255  16.725  12.351
22729W        W89797   3.924  43.505   2.264
22730W        W89798  14.275  19.043  10.632
22731W        W89799  39.990   8.295  12.383
22732W        W89800   9.312  31.532   1.211
22733W        W89801  38.492  21.083  13.042
22734W        W89802   5.894  17.757  11.562
22735W        W89803  44.450  24.124  13.343
22736W        W89804  11.212   5.228  14.786
22737W        W89805  28.053  30.516   2.250
22738W        W89806  29.627   7.755   3.181
22739W        W89807  28.955  37.456   4.151
22740W        W89808   9.874   6.848   2.344
22741W        W89809  27.109  12.303   0.776
22742W        W89810  21.025  12.340   0.474
22743W        W89811  35.470   6.320   1.221
22744W        W89812  11.771   3.831  10.995
22745W        W89813   8.829  35.102   1.231
22746W        W89814  17.294   8.704  13.031
22747W        W89815  20.202   0.344   3.169
22748W        W89816  14.276  31.001  14.855
22749W        W89817  25.515  26.690  14.963
22750W        W89818  23.985  41.896  12.348
22751W        W89819  41.816  34.376   3.155
22752W        W89820  40.809  38.023   2.353
22753W        W89821   6.369  18.184   0.728
22754W        W89822  44.787  44.281  11.433
22755W        W89823   4.366  35.478   0.744
22756W        W89824  10.245  24.696   0.319
22757W        W89825   0.852  12.657   1.365
22758W        W89826  16.314   1.922   4.656
22759W        W89827  39.942  36.524   4.289
22760W        W89828  42.869  12.339  14.361
22761W        W89829  36.887  14.681   4.703
22762W        W89830  10.350  13.707  11.982
22763W        W89831  23.044  27.553   2.734
22764W        W89832  28.994   2.956  11.868
22765W        W89833  16.277  33.566  13.848
22766W        W89834   4.317  12.846  11.541
22767W        W89835  40.500  36.543   3.387
22768W        W89836   6.195  40.392   2.869
22769W        W89837   7.384  30.603   0.754
22770W        W89838   3.428  13.121  13.542
22771W        W89839  17.582  11.748   2.412
22772W        W89840  19.775   0.967   1.266
22773W        W89841  13.714  18.183   0.478
22774W        W89842   0.830   5.774   0.282
22775W        W89843  22.041  44.789  10.429
22776W        W89844  10.771   4.424  11.065
22777W        W89845  30.616  16.132   5.239
22778W        W89846   5.362   4.903   1.402
22779W        W89847  29.931  32.966  13.369
22780W        W89848  18.635  25.468  14.942
22781W        W89849  16.084  33.608  14.794
22782W        W89850   9.260  13.671   0.247
22783W        W89851   2.240  14.723  10.986
22784W        W89852  29.446  41.854  10.624
22785W        W89853  24.061   9.802  11.606
22786W        W89854  19.649  36.078  11.924
22787W        W89855  18.265  26.100   0.359
22788W        W89856  38.897   4.314   2.710
22789W        W89857   3.879  23.699  12.961
22790W        W89858   9.194   7.334   1.754
22791W        W89859  13.238   5.289  11.075
22792W        W89860  27.082   4.356   4.834
22793W        W89861  17.669   7.215  12.851
22794W        W89862  26.090  11.671  14.876
22795W        W89863   7.303  35.925   2.856
22796W        W89864  17.305  11.242  11.471
22797W        W89865  24.678   6.850   4.202
22798W        W89866  25.081  33.006   2.767
22799W        W89867  40.833  43.325  14.371
22800W        W89868   7.220  42.396  14.949
22801W        W89869  25.105  40.858   3.155
22802W        W89870  20.587  32.930  13.308
22803W        W89871   0.339  26.530  11.447
22804W        W89872  42.851  21.685   1.758
22805W        W89873  43.988  22.107   0.364
22806W        W89874  36.353  11.637  10.058
22807W        W89875  38.405  16.578  14.365
22808W        W89876   5.796   7.907   3.784
22809W        W89877   8.842  20.585  13.528
22810W        W89878  12.847  41.920   3.160
22811W        W89879  24.522  18.088  12.024
22812W        W89880  14.191   0.409  13.828
22813W        W89881  14.829  42.316   2.255
22814W        W89882  33.033  31.944  14.955
22815W        W89883  29.603  33.410  12.030
22816W        W89884  26.493  42.341  13.313
22817W        W89885   4.421  21.117   4.679
22818W        W89886  33.008  18.791  13.428
22819W        W89887  25.082  16.145   3.343
22820W        W89888  39.467  43.902   1.249
22821W        W89889  15.264  40.038   0.878
22822W        W89890  20.132   2.858   1.707
22823W        W89891  33.070  41.033  10.445
22824W        W89892  13.804   8.195  10.518
22825W        W89893  38.000   5.844   4.635
22826W        W89894  24.171  41.974  14.814
22827W        W89895  36.875   9.188  12.861
22828W        W89896   7.889  26.512   4.660
22829W        W89897  21.179  39.400   1.739
22830W        W89898  29.978   0.742   2.879
22831W        W89899  32.456  42.905  14.413
22832W        W89900  13.117  17.296  10.068
22833W        W89901   0.255  38.400   3.209
22834W        W89902   0.815  36.916   0.756
22835W        W89903  12.669  41.426  10.555
22836W        W89904  18.284  18.154  12.870
22837W        W89905  38.917  44.756   3.311
22838W        W89906  39.963  13.341  11.048
22839W        W89907  33.520  31.964  14.902
22840W        W89908  28.950  40.890   3.822
22841W        W89909  35.381  29.125  13.040
22842W        W89910  23.647  18.131  14.454
22843W        W89911   1.306  38.878  11.868
22844W        W89912  14.271  38.401   2.835
22845W        W89913  38.016  33.379   1.368
22846W        W89914   2.773  11.626  11.600
22847W        W89915  19.646  41.412  14.401
22848W        W89916  36.463  22.554   1.890
22849W        W89917  17.258  44.486  11.408
22850W        W89918  43.410  10.277   4.207
22851W        W89919  11.667  33.591  12.943
22852W        W89920  13.776  16.317  13.356
22853W        W89921  44.790   4.924  14.835
22854W        W89922  17.225  18.580   4.636
22855W        W89923  35.501  23.628  11.417
22856W        W89924  33.970  15.740  12.843
22857W        W89925  36.577   6.921  12.834
22858W        W89926  14.806  19.753  13.818
22859W        W89927   6.807  39.955  10.893
22860W        W89928  21.104  28.648   2.713
22861W        W89929   2.903   2.241   0.964
22862W        W89930  43.303  12.755  10.601
22863W        W89931  17.166  29.000  12.556
22864W        W89932  44.892  29.992   0.881
22865W        W89933  23.102  21.140  14.819
22866W        W89934  19.070  32.986   1.331
22867W        W89935   5.910  34.591  10.583
22868W        W89936  28.015  18.120   0.763
22869W        W89937  23.677   7.390  14.971
22870W        W89938  35.903  35.540   4.626
22871W        W89939  16.185   4.916  10.569
22872W        W89940  22.999  11.136  13.457
22873W        W89941   7.309   0.957  13.930
22874W        W89942  33.120  16.297   0.754
22875W        W89943  37.463  21.042   3.825
22876W        W89944  38.935  23.626  12.026
22877W        W89945  23.050  22.109   1.400
22878W        W89946  43.849  25.965  13.861
22879W        W89947  25.201  13.636  11.589
22880W        W89948  24.506  14.144  14.986
22881W        W89949   9.293  26.168   3.252
22882W        W89950   0.442   0.490   2.390
22883W        W89951  25.007  36.051   2.816
22884W        W89952  25.552  31.073  11.519
22885W        W89953  24.519  28.989   4.151
22886W        W89954  17.233  24.631   4.151
22887W        W89955  32.401  20.194   0.733
22888W        W89956  35.361  10.826   3.705
22889W        W89957   1.820  44.472  14.846
22890W        W89958  21.561  30.511   1.742
22891W        W89959   4.271  27.147   1.392
22892W        W89960  41.979   6.917   0.734
22893W        W89961  27.966   7.387  10.066
22894W        W89962  29.003   3.913   1.419
22895W        W89963  34.915  17.110  12.929
22896W        W89964  38.850  26.470  11.480
22897W        W89965   0.353  10.862   3.807
22898W        W89966  24.006  26.204   0.842
22899W        W89967   2.390  38.434   2.226
22900W        W89968  44.822  19.618  11.016
22901W        W89969  13.350   8.738   2.238
22902W        W89970   3.414  17.650  12.038
22903W        W89971  26.044  13.218  14.389
22904W        W89972  37.430  37.561   3.657
22905W        W89973  17.086   4.362   0.913
22906W        W89974   2.225  26.518   1.917
22907W        W89975   0.287  31.055   0.451
22908W        W89976  17.070  30.020  13.432
22909W        W89977  32.078  28.943  14.920
22910W        W89978  31.639  13.329   3.756
22911W        W89979  16.254   4.883  12.476
22912W        W89980   9.261   7.401  11.419
22913W        W89981  36.408   9.272   3.682
22914W        W89982  20.709   0.295   3.822
22915W        W89983   9.881  21.210  13.803
22916W        W89984  39.022  31.135   1.258
22917W        W89985  42.320  35.962  13.003
22918W        W89986  23.539  27.004   1.728
22919W        W89987  36.046  27.616   3.854
22920W        W89988  35.887  25.132  13.827
22921W        W89989  28.146  40.314  11.419
22922W        W89990  41.882  10.806  11.509
22923W        W89991  41.430  44.309   2.679
22924W        W89992  18.165  34.988  12.425
22925W        W89993  38.021  43.796  12.472
22926W        W89994  43.308  23.537  12.095
22927W        W89995  21.571  38.550   3.799
22928W        W89996  12.306  14.108  13.329
22929W        W89997   6.265  38.858  14.774
22930W        W89998  31.546  40.030   2.379
22931W        W89999  17.693   0.288   1.879
22932W        W90000  30.027  22.138  10.484
22933W        W90001  25.522  29.539  13.825
22934W        W90002  24.008  17.774   3.385
22935W        W90003   5.818  35.091   3.308
22936W        W90004  39.050  32.042   3.844
22937W        W90005  18.050  35.108   2.843
22938W        W90006  42.427  41.995  14.865
22939W        W90007  20.642  34.945  13.835
22940W        W90008  23.675  44.330  11.404
22941W        W90009  32.539  42.340  11.000
22942W        W90010  25.483  41.900  14.892
22943W        W90011  28.949  35.047   2.747
22944W        W90012  10.260  31.123  12.918
22945W        W90013  36.054  30.160  14.469
22946W        W90014   6.725  39.904  14.858
22947W        W90015  28.014  32.087  12.934
22948W        W90016  17.164  18.068   1.826
22949W        W90017  17.762  35.426   1.297
22950W        W90018  17.201  36.973  11.396
22951W        W90019   3.422  12.677   4.828
22952W        W90020   5.714  10.191   1.842
22953W        W90021  17.587   6.727  11.926
22954W        W90022  33.389  35.596  14.391
22955W        W90023  43.835  15.812   1.301
22956W        W90024  10.288  44.785  11.373
22957W        W90025  40.421   7.265  13.323
22958W        W90026  21.532  29.602   3.338
22959W        W90027   1.819  40.822  13.868
22960W        W90028  12.756  18.718  10.449
22961W        W90029  23.666  37.835  11.576
22962W        W90030  39.490  20.662  11.446
22963W        W90031  36.940   5.203   2.773
22964W        W90032  32.524  24.230  10.539
22965W        W90033  37.546  11.854  14.390
22966W        W90034   8.371  40.485   2.869
22967W        W90035  27.181  29.169   4.152
22968W        W90036  17.284  27.573   4.179
22969W        W90037   6.830  16.312  14.807
22970W        W90038  17.257  29.429  10.919
22971W        W90039  12.678   2.336   3.284
22972W        W90040   6.330  42.838   0.350
22973W        W90041  30.416   7.863   1.750
22974W        W90042  27.645  41.414  13.948
22975W        W90043  31.139  15.782   4.604
22976W        W90044  43.863   3.414   0.900
22977W        W90045  11.319  14.180   1.731
22978W        W90046   0.443  41.966   2.368
22979W        W90047  28.598   8.278   1.345
22980W        W90048  36.899  33.384   0.465
22981W        W90049  13.661  13.832   3.362
22982W        W90050  34.877  39.334   3.668
22983W        W90051  19.672  33.927   2.230
22984W        W90052  42.922   7.798   4.336
22985W        W90053  37.895  12.159   0.254
22986W        W90054   1.876  42.932   4.624
22987W        W90055  12.760  13.144  11.033
22988W        W90056   2.472  24.090   0.259
22989W        W90057  30.583  22.565  14.322
22990W        W90058  43.341   5.789   2.258
22991W        W90059  41.899  37.073  14.501
22992W        W90060  15.606   2.437   4.654
22993W        W90061   1.798  38.428   4.819
22994W        W90062  12.321   4.292   1.249
22995W        W90063  16.745  27.041  11.517
22996W        W90064   8.861  10.695  14.478
22997W        W90065  10.676  22.667   0.824
22998W        W90066   7.800  25.578  10.985
22999W        W90067  39.513  26.087   3.725
23000W        W90068  40.910  12.855   1.847
23001W        W90069  30.074   2.913  10.554
23002W        W90070  32.094  12.633  12.433
23003W        W90071  13.148  38.485  14.308
23004W        W90072  25.608  29.656   2.883
23005W        W90073  32.103  12.835   2.842
23006W        W90074  19.130   5.924  13.945
23007W        W90075  37.520  28.538   4.133
23008W        W90076  35.413  11.791  12.088
23009W        W90077  36.068   3.735   2.822
23010W        W90078  14.679  32.000  13.883
23011W        W90079  18.275  42.287   1.294
23012W        W90080   9.158  19.655  14.845
23013W        W90081  42.800  40.456   2.244
23014W        W90082  35.594  11.258  10.941
23015W        W90083   5.788  23.163  12.846
23016W        W90084  14.592  41.974  12.552
23017W        W90085  36.578  14.728  12.047
23018W        W90086  17.269  28.033  13.910
23019W        W90087  10.363  17.691  11.004
23020W        W90088   9.715  15.170  12.547
23021W        W90089  34.615  30.067  10.993
23022W        W90090  41.477  42.289  12.008
23023W        W90091   1.804  38.005   4.762
23024W        W90092  34.883  20.241  11.065
23025W        W90093  36.096  12.271   2.860
23026W        W90094   1.914  31.152  12.555
23027W        W90095  10.860   2.810  13.955
23028W        W90096  15.590  32.110   3.674
23029W        W90097  28.567  29.510  10.978
23030W        W90098   1.405  30.474  14.971
23031W        W90099  25.524  32.121  12.511
23032W        W90100  18.180  21.246   0.795
23033W        W90101  19.733  22.154  12.415
23034W        W90102  32.600  27.621   5.798
23035W        W90103  26.488  11.208  14.499
23036W        W90104  24.614  12.815  11.514
23037W        W90105  26.194  17.282  11.568
23038W        W90106  28.628  26.685   5.242
23039W        W90107  35.039  16.650   0.365
23040W        W90108   3.255  23.174  13.960
23041W        W90109  12.305  43.976  11.451
23042W        W90110  22.131  19.717   2.340
23043W        W90111  44.497  32.942   3.632
23044W        W90112  31.966   0.829  11.883
23045W        W90113  32.609  17.631  13.309
23046W        W90114  43.007  27.683   4.734
23047W        W90115  34.448   6.404   1.351
23048W        W90116  21.133  23.985   0.848
23049W        W90117   1.467   2.427   2.384
23050W        W90118  19.776  40.930   4.292
23051W        W90119  21.139  38.409   4.169
23052W        W90120   3.380  31.554  11.508
23053W        W90121  40.325  12.178   1.788
23054W        W90122   9.242  14.262  12.960
23055W        W90123  10.316  12.629  11.099
23056W        W90124  10.662   1.877  14.305
23057W        W90125  31.146  34.957   2.183
23058W        W90126  36.430  38.921  12.488
23059W        W90127  23.519  25.075  14.335
23060W        W90128  14.292  13.109   2.327
23061W        W90129  23.994  17.199   0.827
23062W        W90130  43.515  21.087   4.262
23063W        W90131   0.466  17.216  14.329
23064W        W90132  40.482  25.547   3.239
23065W        W90133  36.064   9.164  11.051
23066W        W90134   6.244   9.823  12.522
23067W        W90135   8.375  27.528   1.293
23068W        W90136  24.588   7.367  11.928
23069W        W90137  37.553  39.045   4.124
23070W        W90138   2.332  26.630  14.795
23071W        W90139  37.978  11.166   2.250
23072W        W90140   1.417  21.596   2.747
23073W        W90141  10.680  24.490  12.547
23074W        W90142  39.852  43.370  13.853
23075W        W90143  12.308   4.396  13.900
23076W        W90144  41.795  14.183  14.765
23077W        W90145  13.137  11.751   2.183
23078W        W90146  41.326   1.274   3.177
23079W        W90147   4.875  12.145  12.915
23080W        W90148  33.608  26.098  14.982
23081W        W90149  25.202  12.190  11.059
23082W        W90150  16.623  18.641   0.778
23083W        W90151  38.429   0.756  12.869
23084W        W90152  36.490  17.213   3.681
23085W        W90153  20.544  29.666   4.642
23086W        W90154  30.966  28.011  11.550
23087W        W90155  15.237   2.356  13.064
23088W        W90156  28.960  20.184  14.505
23089W        W90157  32.440   1.398  14.372
23090W        W90158  33.596  22.596   0.790
23091W        W90159  35.046  42.814  11.917
23092W        W90160  44.426  10.178   1.863
23093W        W90161  22.221   8.782   2.357
23094W        W90162  37.063  14.317   5.119
23095W        W90163  20.261  18.133   0.776
23096W        W90164   1.257   7.683   1.884
23097W        W90165  35.023  15.734   0.951
23098W        W90166  16.201  33.598   2.849
23099W        W90167   8.709   3.375  14.508
23100W        W90168  21.589  30.522   5.191
23101W        W90169  44.950  24.604   4.189
23102W        W90170   3.369   2.777   4.744
23103W        W90171  33.429  36.348  11.537
23104W        W90172   1.360  20.112   3.701
23105W        W90173  24.086  33.910  13.871
23106W        W90174  42.861  25.674  10.557
23107W        W90175   7.777  41.385  11.585
23108W        W90176  10.160  17.742   4.835
23109W        W90177   3.872   1.254  14.284
23110W        W90178  10.297   6.262   2.264
23111W        W90179   7.690  41.904  11.127
23112W        W90180  18.213  27.655  14.878
23113W        W90181  32.483  43.964  14.796
23114W        W90182   6.423  26.035   3.657
23115W        W90183   8.185  18.659  14.808
23116W        W90184  34.891   3.853   2.324
23117W        W90185  37.907  21.665   2.772
23118W        W90186   3.304  42.022  11.014
23119W        W90187   6.806  39.950   1.382
23120W        W90188   0.762   9.297  12.522
23121W        W90189  43.385  22.221  13.959
23122W        W90190  28.464  15.590  14.892
23123W        W90191   7.346   8.835   5.176
23124W        W90192  19.615  24.698   1.399
23125W        W90193  24.164  36.966  10.924
23126W        W90194  24.139  36.477  11.034
23127W        W90195   7.237  10.792   3.770
23128W        W90196  16.756  10.222  14.354
23129W        W90197  13.162   8.357  11.102
23130W        W90198  36.524  22.563  12.454
23131W        W90199  14.677   2.866   4.764
23132W        W90200  32.937  44.276   0.274
23133W        W90201  18.776  34.517  12.016
23134W        W90202   7.723  10.309  12.458
23135W        W90203  43.015  30.623  11.432
23136W        W90204  28.176  19.728   4.762
23137W        W90205   8.812  26.526   0.460
23138W        W90206  44.275  15.189  11.432
23139W        W90207  23.591  20.147   0.369
23140W        W90208  19.253  39.481  14.850
23141W        W90209   5.325   4.242   4.746
23142W        W90210  25.992  33.492  13.538
23143W        W90211   0.438  26.117   3.774
23144W        W90212   5.273  41.955   4.672
23145W        W90213  32.008  20.144   4.652
23146W        W90214  16.588  18.561   2.744
23147W        W90215   9.751  33.006  11.587
23148W        W90216  18.109  24.614   0.433
23149W        W90217  28.040  32.562   9.929
23150W        W90218  30.467  43.837   2.759
23151W        W90219  35.047  34.417   4.225
23152W        W90220   2.271  15.787  12.397
23153W        W90221  36.372  25.591   3.869
23154W        W90222  16.729  27.480   5.273
23155W        W90223  17.073  12.700   2.740
23156W        W90224   1.790  22.724  11.915
23157W        W90225   5.787  31.444  12.831
23158W        W90226  18.711  41.835  11.926
23159W        W90227   9.704  35.561  11.039
23160W        W90228  25.469   8.713   0.308
23161W        W90229  40.501  17.209   1.416
23162W        W90230  32.097  33.036  13.856
23163W        W90231  44.273  32.913   0.766
23164W        W90232  22.536  33.940  14.404
23165W        W90233  15.587  19.230   4.164
23166W        W90234  32.423   9.226   3.642
23167W        W90235   4.705  41.488  12.054
23168W        W90236  22.716  36.393   2.223
23169W        W90237  12.788   7.192  14.793
23170W        W90238  17.778   4.869  14.505
23171W        W90239  21.727   1.341  13.886
23172W        W90240  11.712  22.702   5.144
23173W        W90241   3.745  17.240  10.452
23174W        W90242  16.689  22.068  14.837
23175W        W90243   4.206   8.663  14.464
23176W        W90244  31.904  19.552  10.901
23177W        W90245  10.829  12.183  13.547
23178W        W90246   4.908  29.960   1.705
23179W        W90247  31.063  30.458   5.105
23180W        W90248  39.900  28.181   1.336
23181W        W90249  37.859  27.117   1.228
23182W        W90250  23.634   7.807   4.165
23183W        W90251   0.772  19.730  11.377
23184W        W90252  22.641  11.846  14.412
23185W        W90253   3.432  32.512   0.339
23186W        W90254  27.531  19.054   3.635
23187W        W90255  20.181  32.940   2.796
23188W        W90256  22.567   9.168  13.336
23189W        W90257  13.762  21.527  11.916
23190W        W90258  37.843  27.197  14.953
23191W        W90259  23.230  25.563  11.541
23192W        W90260   3.909  44.972  14.003
23193W        W90261  43.309   8.740   3.812
23194W        W90262  39.926   4.891  13.982
23195W        W90263   7.279  29.617   0.880
23196W        W90264  29.645   4.255   4.159
23197W        W90265  44.353   3.807  13.953
23198W        W90266  39.322   3.924   3.690
23199W        W90267  37.466  11.834   3.158
23200W        W90268  17.074  10.793  11.061
23201W        W90269  12.269  38.902   4.244
23202W        W90270  34.959  17.639  13.524
23203W        W90271  31.120  18.230   0.769
23204W        W90272  13.785   7.266   4.791
23205W        W90273  24.155   6.406   2.206
23206W        W90274  29.072  31.905  11.454
23207W        W90275  10.168  30.455   3.269
23208W        W90276  22.040  25.137  14.775
23209W        W90277   9.672  42.466  13.478
23210W        W90278   7.343   3.225   3.265
23211W        W90279   6.193   7.797  11.407
23212W        W90280  10.716   1.978  10.460
23213W        W90281  16.687  16.781  11.562
23214W        W90282  21.110   4.842  13.903
23215W        W90283  30.980  10.634  11.478
23216W        W90284  17.604  26.997   4.312
23217W        W90285  12.336  31.494   0.807
23218W        W90286  30.636  34.967  14.004
23219W        W90287  18.197  13.241   2.413
23220W        W90288  35.527   6.901  12.346
23221W        W90289  31.438  41.425  13.416
23222W        W90290  23.045  32.113  12.480
23223W        W90291  16.628   1.397  11.430
23224W        W90292  20.255  19.754  14.780
23225W        W90293  32.951  40.309   0.385
23226W        W90294  33.003  19.735   3.317
23227W        W90295   9.250   6.726   2.878
23228W        W90296  24.066  28.495   3.707
23229W        W90297   6.186   3.948  14.345
23230W        W90298   1.794   7.246  11.602
23231W        W90299  28.068  31.535   1.272
23232W        W90300  30.640  35.602   1.260
23233W        W90301  21.061   3.299  10.124
23234W        W90302  15.813  26.078   3.265
23235W        W90303   0.801  14.708  13.516
23236W        W90304  14.308   0.747   0.357
23237W        W90305  21.623  38.525  10.567
23238W        W90306  28.550  38.875  11.932
23239W        W90307  43.986  23.724  12.990
23240W        W90308  12.136  20.037   3.257
23241W        W90309  19.602  41.532  11.012
23242W        W90310   7.706  37.580  13.844
23243W        W90311  39.006  11.357  14.896
23244W        W90312  39.450   3.431  14.327
23245W        W90313  38.030  21.701  12.515
23246W        W90314  31.528  12.315  13.447
23247W        W90315  10.172  24.669   2.773
23248W        W90316  25.964  37.879  12.398
23249W        W90317  25.979  31.048   4.724
23250W        W90318  13.304  44.807  11.591
23251W        W90319  14.616   0.418   4.184
23252W        W90320   6.291  35.015   0.838
23253W        W90321  16.793  38.966  11.582
23254W        W90322  34.437  31.587  11.450
23255W        W90323  20.195  18.254  11.433
23256W        W90324  33.455  12.149   2.213
23257W        W90325  40.478  27.086   4.764
23258W        W90326  29.444   6.779  14.994
23259W        W90327  41.325  30.067   3.258
23260W        W90328   9.880  42.485   3.683
23261W        W90329  30.622  23.551   1.236
23262W        W90330  43.964  21.179   4.756
23263W        W90331  35.903  26.475  12.011
23264W        W90332  26.465  30.420   2.231
23265W        W90333   5.832  21.254   2.896
23266W        W90334  42.318   9.238   0.332
23267W        W90335  23.529  14.783  12.960
23268W        W90336  37.378  24.708   4.288
23269W        W90337  21.518  26.590  10.971
23270W        W90338  16.813  18.057  14.286
23271W        W90339  23.018   9.803  12.342
23272W        W90340   4.897  34.876   3.384
23273W        W90341  33.924  25.565   2.716
23274W        W90342  33.986  44.755   1.372
23275W        W90343  29.495  35.373  14.846
23276W        W90344  36.035  38.001   0.885
23277W        W90345  10.163  40.374   0.872
23278W        W90346  36.079   2.883  14.475
23279W        W90347  44.491   5.206   5.212
23280W        W90348  27.644   4.713  14.325
23281W        W90349  44.495   5.258   4.758
23282W        W90350  10.340  34.111  12.891
23283W        W90351  13.182  39.823   3.232
23284W        W90352   8.760  21.558   0.758
23285W        W90353  25.001  10.719  11.578
23286W        W90354  18.255  16.228  13.426
23287W        W90355   1.891  25.691   1.428
23288W        W90356  27.149  10.803  14.472
23289W        W90357   7.699  13.760   0.730
23290W        W90358  11.760  31.587   1.764
23291W        W90359  29.486  34.088  12.577
23292W        W90360  10.835  17.172   4.195
23293W        W90361   4.702  23.603   3.760
23294W        W90362  21.549  18.115   4.741
23295W        W90363   1.279  35.094   5.629
23296W        W90364   9.694  39.427  12.445
23297W        W90365  27.111   1.430   4.794
23298W        W90366  35.461  14.130   2.359
23299W        W90367  25.029  30.626  14.977
23300W        W90368   5.746  25.526   1.297
23301W        W90369  17.678  29.064   0.316
23302W        W90370  31.541   4.348  12.450
23303W        W90371  39.821  42.495  10.555
23304W        W90372  22.675  41.534   2.815
23305W        W90373  33.419  29.999   0.310
23306W        W90374   7.362  22.015  11.896
23307W        W90375   3.742  16.802   3.696
23308W        W90376  39.318  15.122   0.259
23309W        W90377  23.194  23.550  12.551
23310W        W90378  27.154  25.144   2.864
23311W        W90379   3.441  14.229  12.077
23312W        W90380   2.271  37.498   4.812
23313W        W90381  24.627  41.331   2.391
23314W        W90382  36.361  18.154  12.448
23315W        W90383  35.457  26.553  13.888
23316W        W90384  23.707  38.925  10.609
23317W        W90385   2.894  41.334   1.838
23318W        W90386  27.009  28.183   3.669
23319W        W90387   5.320   3.277   0.253
23320W        W90388  10.717   5.742  11.055
23321W        W90389   2.399  20.564   0.893
23322W        W90390  21.747   7.748  13.033
23323W        W90391  43.018  15.723   5.306
23324W        W90392   8.791  17.714   4.759
23325W        W90393  23.614  12.143   4.192
23326W        W90394  39.860  43.981   2.737
23327W        W90395  37.991   6.758   0.855
23328W        W90396  17.747  13.656  10.942
23329W        W90397  30.597  10.340  10.639
23330W        W90398  32.071  15.616   4.783
23331W        W90399  32.408  40.394   0.786
23332W        W90400  14.734  24.680  11.968
23333W        W90401  30.972  38.382  11.985
23334W        W90402  43.470  27.123   4.713
23335W        W90403  43.379   0.883  10.460
23336W        W90404  11.230  42.921   1.728
23337W        W90405  38.898  28.531  14.470
23338W        W90406  12.724  27.665  12.492
23339W        W90407  12.732  33.029  11.892
23340W        W90408  12.323  18.602   0.842
23341W        W90409  40.855   7.275  10.483
23342W        W90410   1.356  33.042   4.195
23343W        W90411   5.879  18.697   3.716
23344W        W90412  13.801   2.307   2.239
23345W        W90413  34.071  26.518  13.822
23346W        W90414  21.073  19.736  11.974
23347W        W90415  15.662   9.715   4.292
23348W        W90416  41.434   6.829  13.529
23349W        W90417   1.919  36.906  11.441
23350W        W90418   7.858  35.063   5.130
23351W        W90419  13.149  32.618  13.378
23352W        W90420  31.522   0.281   3.657
23353W        W90421  20.646   2.727  10.600
23354W        W90422  22.236  37.518  13.973
23355W        W90423   0.370   8.805   2.363
23356W        W90424   9.396  16.234   0.355
23357W        W90425  27.060  24.709  11.937
23358W        W90426  35.106  26.621  13.064
23359W        W90427  37.833  33.927   3.324
23360W        W90428  40.926  38.373  13.888
23361W        W90429   9.152   5.721  11.434
23362W        W90430  42.490  44.344   0.348
23363W        W90431  40.980  36.351   4.656
23364W        W90432  21.554  34.982  12.940
23365W        W90433  14.134  23.656  11.485
23366W        W90434  15.688  28.636  14.351
23367W        W90435   9.215  16.776  11.484
23368W        W90436  37.985  41.851   0.798
23369W        W90437  19.157   0.380   3.664
23370W        W90438  25.703   0.930  11.949
23371W        W90439  28.988  16.077  12.921
23372W        W90440  15.728   0.800   0.280
23373W        W90441  37.551   2.939  12.890
23374W        W90442   6.290  30.537  14.510
23375W        W90443  12.355  17.145   0.821
23376W        W90444  42.332   8.880   0.771
23377W        W90445  28.122  13.624   1.358
23378W        W90446  35.510   7.909  13.040
23379W        W90447  44.375  34.575  13.516
23380W        W90448   8.264  22.053   4.266
23381W        W90449  37.510   3.905  10.969
23382W        W90450  18.572  23.230   3.310
23383W        W90451  39.451  23.690  10.966
23384W        W90452   8.686  26.189  13.898
23385W        W90453  30.546   8.269   0.856
23386W        W90454   0.786  22.156  14.288
23387W        W90455   4.264  35.000  13.977
23388W        W90456  27.138  19.596  14.815
23389W        W90457   8.708   0.839  13.345
23390W        W90458  43.878  19.104  10.942
23391W        W90459  13.682  44.320  11.924
23392W        W90460  37.009  42.893   4.201
23393W        W90461  15.156  32.501   0.286
23394W        W90462  44.792  17.613  10.434
23395W        W90463   1.479  17.182  11.127
23396W        W90464   2.765  42.791   3.157
23397W        W90465  24.063  37.376  13.440
23398W        W90466   3.365  37.345   2.682
23399W        W90467  13.732   8.885   0.867
23400W        W90468  29.621  13.109   5.789
23401W        W90469  41.400   6.335   1.329
23402W        W90470  15.699  39.367   3.298
23403W        W90471  31.575  23.566  13.513
23404W        W90472   8.740  36.567   4.345
23405W        W90473  10.210  17.146   2.742
23406W        W90474  13.600   2.248  13.807
23407W        W90475   0.340  31.117   4.800
23408W        W90476   0.914  33.486   1.279
23409W        W90477  36.863   3.398  12.087
23410W        W90478  17.799  36.989  12.568
23411W        W90479  25.625   1.467   2.299
23412W        W90480  22.566  41.313   0.385
23413W        W90481  15.793  41.043   4.742
23414W        W90482  37.437  40.918   3.301
23415W        W90483   9.852  11.784   4.661
23416W        W90484   8.852  25.493  14.821
23417W        W90485  18.140  17.701  12.559
23418W        W90486  40.342  34.517   2.871
23419W        W90487  14.235  34.913   0.462
23420W        W90488  40.995  11.208  14.850
23421W        W90489  12.638  42.984  13.414
23422W        W90490  44.408  28.002   4.788
23423W        W90491  39.825  27.094  13.970
23424W        W90492  10.791   2.754  10.463
23425W        W90493  16.112  17.789  13.045
23426W        W90494  25.153  33.461   2.666
23427W        W90495  35.041  37.358  14.925
23428W        W90496  41.020  13.672  14.929
23429W        W90497  26.701  17.183   2.354
23430W        W90498  25.106  26.664  14.425
23431W        W90499  11.343   8.754   4.769
23432W        W90500  28.032   3.793  13.316
23433W        W90501   8.742   9.811  11.944
23434W        W90502  21.707   5.734  12.437
23435W        W90503  24.507  34.515  11.873
23436W        W90504  25.027  30.984  14.836
23437W        W90505  41.043  19.263  12.994
23438W        W90506  29.105  36.541   3.314
23439W        W90507  18.093  38.556  14.474
23440W        W90508   0.758  10.802  12.407
23441W        W90509   1.273  14.096  13.420
23442W        W90510  41.338   5.413  11.953
23443W        W90511  37.908  23.526   4.248
23444W        W90512  20.761  11.834   3.325
23445W        W90513  42.811  32.090   0.910
23446W        W90514  13.171   4.227  12.508
23447W        W90515  13.601  25.987  11.092
23448W        W90516  28.500   6.710   3.303
23449W        W90517   3.437  42.524   4.708
23450W        W90518  37.066  34.007  11.567
23451W        W90519  31.990   2.825   4.165
23452W        W90520  12.327  36.000  13.982
23453W        W90521  25.531  34.521   4.695
23454W        W90522  20.207  27.448  14.349
23455W        W90523   1.912  36.397   3.843
23456W        W90524   2.804   2.241  14.019
23457W        W90525   0.452   4.246   2.684
23458W        W90526   5.438  13.122  12.059
23459W        W90527  10.815  42.301  11.886
23460W        W90528  30.951  28.547  12.986
23461W        W90529  25.662  12.845   0.410
23462W        W90530   9.271  13.817   3.859
23463W        W90531  13.813  22.645   3.853
23464W        W90532  23.134   8.656  11.952
23465W        W90533   4.401  12.675  12.563
23466W        W90534  41.528  19.273  10.422
23467W        W90535  35.028   5.218  13.986
23468W        W90536  39.976  42.352   1.746
23469W        W90537  14.770  12.234   3.261
23470W        W90538  28.538   3.443  12.911
23471W        W90539  19.120  10.722  12.407
23472W        W90540   8.855  28.162  12.486
23473W        W90541  25.161  24.008  11.569
23474W        W90542  28.967  16.163   1.254
23475W        W90543  15.668   1.925   2.765
23476W        W90544  28.132  28.931   0.797
23477W        W90545  16.318  39.958   0.951
23478W        W90546   4.412  30.066   0.322
23479W        W90547   2.336  28.136  12.381
23480W        W90548  25.563  41.037  10.969
23481W        W90549  20.218   5.703   0.344
23482W        W90550  37.507  39.996  12.029
23483W        W90551  36.522  36.363   4.649
23484W        W90552  17.612   3.925   2.852
23485W        W90553  30.592   3.887   4.174
23486W        W90554  17.204  38.335  11.090
23487W        W90555   8.810   2.454  14.791
23488W        W90556   5.742  42.869  14.893
23489W        W90557  12.749  39.373   4.670
23490W        W90558  16.702   2.376  14.503
23491W        W90559   7.350   9.728  11.517
23492W        W90560  30.049  11.839   4.689
23493W        W90561  31.435  26.486   3.377
23494W        W90562  17.690  35.089   3.638
23495W        W90563  35.854  24.993   2.315
23496W        W90564  15.617  28.107   3.667
23497W        W90565  25.075  15.732  10.432
23498W        W90566  44.374  11.672  11.519
23499W        W90567  38.820  23.692   2.674
23500W        W90568  19.628  39.947   1.277
23501W        W90569  15.817  43.449   0.905
23502W        W90570   4.784  22.110   0.475
23503W        W90571  20.758  33.886   2.226
23504W        W90572  18.235  39.450   0.403
23505W        W90573   9.388  22.171  12.950
23506W        W90574  40.864  26.507  13.548
23507W        W90575   9.790  22.662   2.191
23508W        W90576  28.955   1.286  11.602
23509W        W90577  20.139  34.071  11.938
23510W        W90578  41.966  18.787  13.887
23511W        W90579  33.575  35.922  10.143
23512W        W90580  41.465  34.901  11.562
23513W        W90581  44.436  15.301  13.955
23514W        W90582  13.189  15.128  11.993
23515W        W90583  19.212  22.062  11.531
23516W        W90584  30.531  21.064  12.887
23517W        W90585  22.173  10.854   4.170
23518W        W90586  24.078  23.647   1.912
23519W        W90587   4.204  39.437  12.848
23520W        W90588  16.172   6.246   0.900
23521W        W90589  11.365   2.860  11.905
23522W        W90590  10.225  44.903   4.338
23523W        W90591   0.320  40.913   2.276
23524W        W90592  13.833   7.234   0.727
23525W        W90593   8.732   4.237   0.750
23526W        W90594   2.917  23.553  13.057
23527W        W90595   7.891   3.881  13.045
23528W        W90596  28.444  14.727  13.812
23529W        W90597  19.211  22.699  12.454
23530W        W90598  16.695  29.024   0.350
23531W        W90599  44.369   6.225   0.778
23532W        W90600   8.204  10.706   0.309
23533W        W90601  22.553  10.747  11.908
23534W        W90602  42.887   6.427  11.968
23535W        W90603  41.453  12.837   3.845
23536W        W90604  19.266   7.696   3.636
23537W        W90605  25.112   7.880   3.157
23538W        W90606  28.938  22.198  10.451
23539W        W90607  31.526  34.386   1.236
23540W        W90608  11.352  18.108  12.893
23541W        W90609  30.653  17.165  14.412
23542W        W90610  10.700   3.260  11.539
23543W        W90611   1.284   0.454  13.447
23544W        W90612  41.826  33.041   1.920
23545W        W90613  26.695  20.257   1.264
23546W        W90614  28.528  24.099   1.709
23547W        W90615  43.837  41.015   2.184
23548W        W90616  14.689  11.313  14.318
23549W        W90617  12.615  34.948   2.742
23550W        W90618  14.121  43.420   3.759
23551W        W90619  23.639  25.170  11.603
23552W        W90620   9.273  42.296  11.952
23553W        W90621  13.698  38.062  12.053
23554W        W90622  12.226  41.932   0.928
23555W        W90623  17.299  19.281   0.442
23556W        W90624  32.616  20.057  11.601
23557W        W90625  16.768  19.056  14.494
23558W        W90626  20.197  44.795  13.521
23559W        W90627  44.380  39.888   3.653
23560W        W90628   1.860  20.760  10.922
23561W        W90629  42.829  35.030   4.674
23562W        W90630  43.463  31.056  13.025
23563W        W90631   1.880  20.225   4.726
23564W        W90632  39.952  38.041  10.468
23565W        W90633  32.995  23.208   3.807
23566W        W90634  32.104  16.659  12.929
23567W        W90635  22.150  20.215   2.790
23568W        W90636  29.941  44.448  13.820
23569W        W90637  15.622  24.004   2.294
23570W        W90638  17.705  13.806   3.799
23571W        W90639   7.752  14.202  10.064
23572W        W90640  40.894  11.701  12.450
23573W        W90641   8.785  17.736  10.644
23574W        W90642  28.049  35.370   4.285
23575W        W90643   2.773  38.932  13.368
23576W        W90644   0.427  43.972  14.009
23577W        W90645  41.440   3.241   3.324
23578W        W90646  15.211  42.357  14.894
23579W        W90647  39.868  10.827  12.007
23580W        W90648  36.960  31.961  10.064
23581W        W90649  40.395  35.535   3.228
23582W        W90650  21.541  11.300  11.102
23583W        W90651   6.897  34.593   3.694
23584W        W90652  39.975   4.704   4.115
23585W        W90653  30.482  29.114   2.727
23586W        W90654  10.148  34.538  12.466
23587W        W90655  40.862  31.576  13.357
23588W        W90656  37.925  14.832   1.701
23589W        W90657  41.854  43.331  13.507
23590W        W90658   6.683   7.875   2.707
23591W        W90659   9.870   9.345  13.334
23592W        W90660  12.652  10.865  10.569
23593W        W90661   8.864  25.582  13.887
23594W        W90662  33.042   1.421  11.075
23595W        W90663  18.567  16.653   4.231
23596W        W90664  13.623  20.629   5.181
23597W        W90665  21.738  15.305  14.014
23598W        W90666  43.773  37.443  11.900
23599W        W90667  24.976  33.418  14.764
23600W        W90668  15.602  14.772   0.861
23601W        W90669   8.792  18.694  10.465
23602W        W90670  33.435   9.234   0.875
23603W        W90671  32.479  28.143   1.317
23604W        W90672  30.959  26.521  11.420
23605W        W90673  19.149   5.700   3.346
23606W        W90674  35.862  35.873   1.707
23607W        W90675  18.777  43.924   2.265
23608W        W90676  24.481  23.194  14.863
23609W        W90677  22.673  36.079   3.371
23610W        W90678  21.574   2.236  14.327
23611W        W90679  11.641  40.987   3.786
23612W        W90680  30.515  36.033   4.167
23613W        W90681  17.132   4.321  10.500
23614W        W90682  39.529  14.738  10.471
23615W        W90683  14.230   0.812   2.398
23616W        W90684   0.471   2.384  10.980
23617W        W90685  37.951  34.596  14.317
23618W        W90686  16.197  30.951  11.373
23619W        W90687  30.994   1.967   0.824
23620W        W90688  36.981  21.662  14.780
23621W        W90689  28.047  23.590  13.920
23622W        W90690  19.155  10.259   3.644
23623W        W90691  14.105  42.338  14.887
23624W        W90692  34.891   3.765  12.023
23625W        W90693  27.666  10.277  10.928
23626W        W90694  30.493  20.616  12.540
23627W        W90695  21.233   8.660  13.396
23628W        W90696  34.490  25.195  12.439
23629W        W90697  16.610   4.909   0.755
23630W        W90698  37.535   3.424   1.772
23631W        W90699  44.946  36.397   9.580
23632W        W90700  17.580   1.954  13.866
23633W        W90701  37.343   7.730   0.794
23634W        W90702  31.516  39.523  13.513
23635W        W90703  25.629  44.790   1.451
23636W        W90704  22.247  35.563  14.959
23637W        W90705  30.444  34.093   4.196
23638W        W90706   3.427   9.809  11.859
23639W        W90707  34.468   6.699  11.865
23640W        W90708  25.210  32.112  12.054
23641W        W90709  19.653   2.765  12.036
23642W        W90710  20.590  15.155   3.837
23643W        W90711  23.132  13.714  14.471
23644W        W90712  43.839  36.447  10.908
23645W        W90713  20.583  13.130   0.361
23646W        W90714  18.194   1.746  11.114
23647W        W90715  34.377   7.322   2.879
23648W        W90716  44.498   6.879   4.252
23649W        W90717   2.471  33.407   4.237
23650W        W90718  10.234  29.004  13.313
23651W        W90719  35.483  13.835  14.484
23652W        W90720  14.590  41.442   5.303
23653W        W90721   3.916  29.972  14.761
23654W        W90722  35.892  11.627  10.925
23655W        W90723   0.270  25.992  14.013
23656W        W90724  29.588  10.196  13.994
23657W        W90725  30.553  11.739   0.271
23658W        W90726  36.947  24.128   0.460
23659W        W90727  21.112  24.601   3.641
23660W        W90728   4.260   2.370   0.385
23661W        W90729   4.912  34.928  10.469
23662W        W90730  18.585  40.041   2.394
23663W        W90731  31.073  27.943  10.034
23664W        W90732  29.556  30.998   4.322
23665W        W90733  43.799  29.955  11.886
23666W        W90734  14.213  35.440  10.570
23667W        W90735  32.915  38.029  14.924
23668W        W90736  22.029  33.608  10.445
23669W        W90737   0.290  19.073   1.818
23670W        W90738  24.528  10.663   0.348
23671W        W90739  23.690   2.331   4.789
23672W        W90740   8.698   4.805  12.540
23673W        W90741  34.613  27.170  10.629
23674W        W90742  22.070  26.582   1.843
23675W        W90743  38.934   2.955   1.340
23676W        W90744  38.004  23.004   3.731
23677W        W90745  40.914  43.393   4.234
23678W        W90746  31.046  23.644  10.522
23679W        W90747  31.580  36.084   3.689
23680W        W90748  32.503  26.553   4.135
23681W        W90749  14.281  13.247   4.726
23682W        W90750  44.308  44.504   0.766
23683W        W90751  22.601   0.319   0.430
23684W        W90752   6.849  42.014  11.860
23685W        W90753  26.032  31.931   1.789
23686W        W90754   4.449  12.187   1.915
23687W        W90755  44.782  31.923   2.213
23688W        W90756  34.998  12.169   4.186
23689W        W90757  43.492  29.527   3.799
23690W        W90758  26.051  23.106   1.793
23691W        W90759   3.826   2.871   0.295
23692W        W90760  41.998   2.347   4.152
23693W        W90761   6.321   9.163  11.472
23694W        W90762  30.564  43.931   1.243
23695W        W90763  24.165  29.989   4.760
23696W        W90764  36.093  18.771  12.909
23697W        W90765  12.622   6.763   3.259
23698W        W90766  41.292   1.259   4.836
23699W        W90767  36.544  10.308   2.255
23700W        W90768  14.322  38.444   4.194
23701W        W90769  24.664  33.401   4.825
23702W        W90770   0.334  31.514  14.852
23703W        W90771  44.457  39.847  10.053
23704W        W90772  44.940   0.390  14.783
23705W        W90773  24.186  27.636  10.890
23706W        W90774  12.759  15.713  14.433
23707W        W90775   8.791  15.667  13.898
23708W        W90776  26.144   4.921   1.750
23709W        W90777  18.559   7.836  14.401
23710W        W90778   8.809   0.788   4.617
23711W        W90779  11.775  12.834  14.004
23712W        W90780  41.982   6.917  13.369
23713W        W90781  19.060  35.102  13.470
23714W        W90782   0.455  24.128   0.885
23715W        W90783   2.314  12.305  12.946
23716W        W90784   3.735  28.639   2.803
23717W        W90785  16.126  11.251   2.761
23718W        W90786  15.243  32.069  13.461
23719W        W90787  32.605   9.881  11.440
23720W        W90788  42.888  17.218   5.278
23721W        W90789   9.156   4.386   2.237
23722W        W90790  36.556  33.384  10.982
23723W        W90791  15.113  19.767   3.179
23724W        W90792  26.685   4.361   1.218
23725W        W90793  24.092  42.478  10.410
23726W        W90794   3.262   5.374  14.926
23727W        W90795  36.849   5.226  12.423
23728W        W90796  38.548  28.091   1.392
23729W        W90797  17.559  26.035  14.470
23730W        W90798  43.960   0.258  10.574
23731W        W90799  31.602   3.306   0.384
23732W        W90800  19.273  34.050   1.706
23733W        W90801  22.743  15.134   4.265
23734W        W90802  10.652  34.438  14.855
23735W        W90803   4.232   0.943   3.869
23736W        W90804  40.475  40.859  12.935
23737W        W90805  39.063   5.861   0.385
23738W        W90806  19.121  39.973   2.272
23739W        W90807  25.191  13.286   1.829
23740W        W90808   2.810  32.994  11.065
23741W        W90809   1.782  23.596  13.027
23742W        W90810  43.882  38.064   4.353
23743W        W90811   0.273  39.963   0.351
23744W        W90812   3.724   5.287  11.048
23745W        W90813  34.917  13.829   2.308
23746W        W90814  28.043  37.086  12.845
23747W        W90815   5.699  18.128   0.243
23748W        W90816   3.764  25.207   3.741
23749W        W90817  35.471  29.095  13.889
23750W        W90818   7.387   6.307  14.315
23751W        W90819  30.649  11.658   2.322
23752W        W90820  17.169  32.100   1.354
23753W        W90821  38.858  15.607   2.846
23754W        W90822  39.903  38.562  13.921
23755W        W90823  34.906  33.931  11.600
23756W        W90824  26.087  37.564  13.371
23757W        W90825  18.148  32.939  14.398
23758W        W90826  42.516  36.963   1.799
23759W        W90827  20.079  13.624   1.697
23760W        W90828  37.954  11.859   3.771
23761W        W90829   1.409  20.110  13.352
23762W        W90830  24.087   0.928   3.289
23763W        W90831  16.608   7.332   0.303
23764W        W90832  44.822  16.178  14.789
23765W        W90833  27.554  36.084  10.425
23766W        W90834  12.332  30.658   3.853
23767W        W90835  33.053  31.034   0.250
23768W        W90836  35.512  14.738  14.280
23769W        W90837  33.941   3.282  14.003
23770W        W90838   2.386  31.471   4.806
23771W        W90839  15.789  19.613  12.975
23772W        W90840  11.814  33.435   4.763
23773W        W90841  31.647   3.840   3.630
23774W        W90842   8.767   8.329  13.948
23775W        W90843   0.931  32.930  11.081
23776W        W90844  18.767  10.296  12.451
23777W        W90845  28.625  37.560  14.962
23778W        W90846   0.263  24.515   3.870
23779W        W90847  17.711  44.761  12.432
23780W        W90848  12.673  44.916  13.337
23781W        W90849   4.888  18.645  14.359
23782W        W90850  25.486  13.755   1.754
23783W        W90851  29.598  17.681  14.805
23784W        W90852  43.013  19.156   2.809
23785W        W90853  29.005  41.021   2.714
23786W        W90854   2.765   0.468   1.219
23787W        W90855  16.682  23.062   3.705
23788W        W90856  15.712  33.593  13.961
23789W        W90857  27.150  20.629   1.298
23790W        W90858  25.549  26.622  13.395
23791W        W90859  24.186  26.174   2.735
23792W        W90860  35.854   5.721   2.222
23793W        W90861  34.055  37.396  13.429
23794W        W90862   9.886   1.934  12.356
23795W        W90863   6.326  21.238   4.299
23796W        W90864  44.921  42.801   4.301
23797W        W90865  41.297  17.090  12.456
23798W        W90866  40.839   1.895   0.427
23799W        W90867   1.403  35.946  11.445
23800W        W90868  26.150  35.089  13.953
23801W        W90869  40.334  35.400  10.463
23802W        W90870  30.917  41.429  11.989
23803W        W90871  20.104  41.351   3.174
23804W        W90872  29.503  32.107   2.370
23805W        W90873  23.615  44.291  14.925
23806W        W90874  10.811  28.447   1.773
23807W        W90875  24.986  41.459   0.748
23808W        W90876  26.970   4.271   1.914
23809W        W90877  26.600   5.427   1.245
23810W        W90878  24.509   1.284  11.019
23811W        W90879  12.705  10.207   0.363
23812W        W90880  41.967  30.914  11.026
23813W        W90881   9.660  37.956   4.807
23814W        W90882  23.240  28.171  12.975
23815W        W90883   4.260  21.126   1.311
23816W        W90884  28.539  40.942   2.733
23817W        W90885  28.976  37.033   4.117
23818W        W90886   7.737  22.610  12.976
23819W        W90887  33.998   3.252  13.426
23820W        W90888   1.356   3.897  11.611
23821W        W90889  20.618   1.946   1.323
23822W        W90890  22.206   6.736  11.444
23823W        W90891  30.158  26.503   1.812
23824W        W90892   6.363  19.223   3.254
23825W        W90893  21.256   8.701   0.423
23826W        W90894  10.866  17.611  14.364
23827W        W90895  23.530   9.149   3.852
23828W        W90896  34.962  40.334  13.345
23829W        W90897  31.565  25.711  11.379
23830W        W90898   6.774  24.609   2.805
23831W        W90899  42.288  32.015  12.963
23832W        W90900  33.874  27.996   3.631
23833W        W90901  36.380  34.413  11.951
23834W        W90902   9.328   4.404   2.750
23835W        W90903   6.776  17.788  12.033
23836W        W90904  11.201  29.547   2.869
23837W        W90905  37.951   7.828   2.229
23838W        W90906  17.751  15.329  14.501
23839W        W90907  31.014   6.738  13.059
23840W        W90908  41.960  20.241  11.034
23841W        W90909  24.973   8.845   3.161
23842W        W90910  27.113   0.886  12.570
23843W        W90911   5.764  42.875  12.991
23844W        W90912   8.841  15.131   1.932
23845W        W90913  15.759  35.979   0.915
23846W        W90914   7.224  36.424  12.520
23847W        W90915   3.335  41.307   4.146
23848W        W90916  44.842  12.704   4.619
23849W        W90917  39.900  16.161   2.398
23850W        W90918   0.256  16.709  12.384
23851W        W90919  26.112   8.310  11.088
23852W        W90920  29.596  44.325  12.410
23853W        W90921   3.233  14.242   1.365
23854W        W90922   2.330  10.727  14.843
23855W        W90923  37.558  30.643   3.320
23856W        W90924  18.757  36.935   2.802
23857W        W90925  38.825  22.118   0.889
23858W        W90926  37.933  12.322  10.616
23859W        W90927  20.184  29.031  11.959
23860W        W90928  17.652  37.936  13.058
23861W        W90929  28.479  18.613   0.797
23862W        W90930  22.737  19.609   1.327
23863W        W90931  42.480  35.369  14.792
23864W        W90932  35.516   1.817   3.778
23865W        W90933   4.397  31.452  10.420
23866W        W90934   4.268  33.401  14.411
23867W        W90935  17.130  38.912  10.435
23868W        W90936  29.038  27.012   4.292
23869W        W90937  29.923  21.163   2.303
23870W        W90938   0.318   9.764   0.416
23871W        W90939  35.391  13.804   0.761
23872W        W90940  42.873  18.707  10.602
23873W        W90941  25.122  28.161  14.365
23874W        W90942   3.453   6.833  12.383
23875W        W90943  22.047  12.623  10.566
23876W        W90944  40.387  17.788  13.028
23877W        W90945   1.788  14.807  10.473
23878W        W90946  41.817  39.338  10.455
23879W        W90947  22.144  13.753  11.487
23880W        W90948  36.905  36.536  11.429
23881W        W90949  34.902  40.426  14.475
23882W        W90950   1.478  27.174   1.866
23883W        W90951  15.084  31.049  12.069
23884W        W90952   2.258  38.548   4.799
23885W        W90953   9.370  23.200   4.131
23886W        W90954  42.417  10.300   2.298
23887W        W90955  17.602  19.741  12.826
23888W        W90956  33.399   4.723  14.435
23889W        W90957   1.398   5.195  11.046
23890W        W90958  31.440  43.334  14.974
23891W        W90959  38.420  36.446   2.252
23892W        W90960  35.511  36.554   2.740
23893W        W90961  20.113   2.918  11.961
23894W        W90962  10.718  28.146   3.804
23895W        W90963   7.221  43.887  11.911
23896W        W90964  44.339  19.274  13.979
23897W        W90965  16.206  17.755   4.220
23898W        W90966  24.152   7.724  12.894
23899W        W90967  19.148   4.410   2.340
23900W        W90968  27.562  16.779   4.624
23901W        W90969  40.543  25.694   2.689
23902W        W90970  33.415  17.632   4.159
23903W        W90971   8.657  24.017   4.274
23904W        W90972  17.712  13.223   3.669
23905W        W90973  20.530   9.208  13.815
23906W        W90974  38.060  23.623  10.545
23907W        W90975  14.790  16.215  13.832
23908W        W90976  20.622  38.024  13.395
23909W        W90977  18.662   4.932  12.393
23910W        W90978   3.306   0.326   4.221
23911W        W90979  31.616  16.116  11.513
23912W        W90980  42.930  22.568   3.166
23913W        W90981  22.665  10.375  14.914
23914W        W90982  12.248   4.929  10.998
23915W        W90983  25.539  15.627   1.422
23916W        W90984  17.248   5.439  11.857
23917W        W90985  11.746   7.875  11.862
23918W        W90986  41.036  44.831  14.427
23919W        W90987  42.857  20.063  12.972
23920W        W90988   6.814  42.874  13.362
23921W        W90989   0.865  28.677  11.904
23922W        W90990  34.489  35.016   0.893
23923W        W90991  26.204  38.964  14.834
23924W        W90992  42.513  32.112   3.715
23925W        W90993  18.058   2.336   0.852
23926W        W90994  25.506  26.459   1.294
23927W        W90995  41.913  33.530  11.865
23928W        W90996  19.552  12.313   3.221
23929W        W90997  39.548  39.359  13.954
23930W        W90998  11.837  30.528  14.392
23931W        W90999  31.942  27.593  14.299
23932W        W91000  23.165  22.500   4.272
23933W        W91001  20.054  11.180  13.042
23934W        W91002  36.482  11.256  11.585
23935W        W91003   3.805   7.173   2.198
23936W        W91004  25.483  21.253   4.341
23937W        W91005  29.582  24.622  10.544
23938W        W91006   6.193  16.138  14.393
23939W        W91007  18.066  12.642   1.388
23940W        W91008  28.175   0.450  14.971
23941W        W91009  24.110  10.182  11.496
23942W        W91010  42.958   5.319  14.444
23943W        W91011  44.972  27.085  14.983
23944W        W91012   9.866   4.382   3.730
23945W        W91013   7.228  34.586  13.364
23946W        W91014  10.740   4.400   0.941
23947W        W91015  20.257  18.145  14.462
23948W        W91016  12.672   0.288  10.892
23949W        W91017  28.155  32.110   4.259
23950W        W91018   1.416  30.580   1.361
23951W        W91019  37.337   2.363  14.313
23952W        W91020  21.738  10.169   0.419
23953W        W91021  13.237  17.706   4.633
23954W        W91022   4.925  32.635  12.496
23955W        W91023  32.063  25.631   2.228
23956W        W91024   5.195  22.058  12.474
23957W        W91025   8.169  25.472  14.468
23958W        W91026  27.968   8.786   4.675
23959W        W91027  35.418  16.151   0.348
23960W        W91028  15.789  21.540   0.373
23961W        W91029  25.519   5.377   0.895
23962W        W91030   9.647   5.737   1.769
23963W        W91031  27.009  26.575  11.544
23964W        W91032   2.385  41.433   4.253
23965W        W91033  33.017  12.212   0.345
23966W        W91034   5.728  36.069   1.853
23967W        W91035   2.841  26.612  12.570
23968W        W91036  36.908  43.487  12.851
23969W        W91037  24.721  30.438   4.222
23970W        W91038  36.571  10.282   1.825
23971W        W91039  23.143   3.402   1.838
23972W        W91040   4.708   9.737  12.563
23973W        W91041  33.010  43.283  13.509
23974W        W91042  35.603   9.194   0.739
23975W        W91043   4.412  10.218   5.275
23976W        W91044  15.588  18.569   4.619
23977W        W91045  42.883  10.322   1.264
23978W        W91046   7.361  44.345   0.251
23979W        W91047  43.360  12.241   1.926
23980W        W91048   5.763  10.169   3.745
23981W        W91049  40.449  29.139  11.486
23982W        W91050  34.922  23.718  11.887
23983W        W91051  35.049  10.275  14.354
23984W        W91052  37.853  24.155   1.265
23985W        W91053  21.525  17.605  12.543
23986W        W91054   1.482  23.131  12.490
23987W        W91055  35.066  33.113  10.545
23988W        W91056  37.425  37.998   3.263
23989W        W91057  32.923  16.184   0.446
23990W        W91058  39.548   2.957   4.697
23991W        W91059  26.549  10.786  11.930
23992W        W91060  21.136   6.837   4.352
23993W        W91061   9.889  37.978  12.857
23994W        W91062  25.201  38.398   1.395
23995W        W91063  31.559  15.735  13.387
23996W        W91064  14.136  27.999   4.713
23997W        W91065  15.609   8.250   4.302
23998W        W91066   4.878  25.092  12.396
23999W        W91067  39.837  21.657   2.701
24000W        W91068  30.056  29.493   1.224
24001W        W91069  25.526   3.806   1.905
24002W        W91070  40.489  21.183   3.355
24003W        W91071  14.824   6.698  13.033
24004W        W91072  27.545  18.683   4.165
24005W        W91073  26.530  38.479  10.960
24006W        W91074   0.903  35.065  14.438
24007W        W91075  15.727   9.728  12.020
24008W        W91076   2.297  28.531  12.001
24009W        W91077   1.780  25.687  11.417
24010W        W91078  22.615  42.812  13.463
24011W        W91079  25.014   7.761   0.438
24012W        W91080  24.699  38.988  13.371
24013W        W91081   1.915  44.265  13.342
24014W        W91082  37.855  28.680  12.387
24015W        W91083   1.823  43.921  13.527
24016W        W91084  27.579  15.801  11.921
24017W        W91085   8.306  31.493   3.227
24018W        W91086  41.799  17.146   0.384
24019W        W91087  12.656   0.958  11.094
24020W        W91088   5.243  18.159  12.561
24021W        W91089   5.291  12.813   3.338
24022W        W91090   0.841  29.504   0.336
24023W        W91091  31.062  16.731  14.304
24024W        W91092   1.879  36.412  13.026
24025W        W91093  13.643  36.881   3.161
24026W        W91094   4.923  40.513   1.370
24027W        W91095  29.546  30.578   0.954
24028W        W91096   4.872  28.051   2.709
24029W        W91097   2.888   4.725  14.982
24030W        W91098  27.480   7.409   4.686
24031W        W91099   7.372  34.476  13.891
24032W        W91100  43.337  38.548   1.390
24033W        W91101  31.411   9.886  10.452
24034W        W91102  41.984  34.009   2.754
24035W        W91103  36.987   1.263   3.246
24036W        W91104  40.801  22.503   3.708
24037W        W91105  11.811  19.693   3.759
24038W        W91106   9.395  35.478   3.226
24039W        W91107  24.540  39.913   4.764
24040W        W91108  24.693  33.529   3.867
24041W        W91109  26.008   3.360  11.048
24042W        W91110  33.088   1.245   1.291
24043W        W91111  23.615   4.379   4.157
24044W        W91112  35.476  32.142   3.716
24045W        W91113  18.170  36.415  14.315
24046W        W91114  42.023  17.760  13.943
24047W        W91115   6.383  42.950  14.486
24048W        W91116  25.036  38.003   2.716
24049W        W91117   7.852  19.577   4.142
24050W        W91118  40.326  28.659   0.353
24051W        W91119  44.814   0.394   0.411
24052W        W91120  15.281  32.015   5.081
24053W        W91121   1.911   8.680  13.455
24054W        W91122  24.986  42.879  11.079
24055W        W91123  16.282   4.800   0.838
24056W        W91124  43.369   0.876   1.288
24057W        W91125  13.839  35.994   0.775
24058W        W91126  22.116  44.897   0.794
24059W        W91127  25.107  14.305   1.399
24060W        W91128  44.829  27.591  12.037
24061W        W91129  42.309  32.474   4.264
24062W        W91130  15.297  38.958   2.805
24063W        W91131  41.396   8.712  14.003
24064W        W91132   2.393   7.858   1.385
24065W        W91133  27.490  42.292  12.495
24066W        W91134  24.650  34.956  11.864
24067W        W91135  35.953  40.798   0.267
24068W        W91136  16.677  37.471  13.058
24069W        W91137  34.601  43.326   3.286
24070W        W91138  12.161  22.145  12.911
24071W        W91139  12.816  12.717   1.340
24072W        W91140  41.391  37.009   3.771
24073W        W91141  22.158  41.986   1.406
24074W        W91142  43.848  25.033  13.933
24075W        W91143  34.035  21.163   2.314
24076W        W91144   2.814  27.018  13.837
24077W        W91145  37.389   2.747   0.394
24078W        W91146  20.224  43.945  11.028
24079W        W91147  36.962  36.888   4.263
24080W        W91148  29.971  29.514   3.644
24081W        W91149  10.710  42.410   2.367
24082W        W91150  10.263  15.133   0.266
24083W        W91151  43.427   3.327  12.918
24084W        W91152  15.165  44.408   2.385
24085W        W91153   9.359   5.334  14.468
24086W        W91154   7.214  34.000  13.924
24087W        W91155  26.105  36.012   1.901
24088W        W91156  15.285  41.363  14.373
24089W        W91157  16.715  31.546  11.106
24090W        W91158  15.127  12.323   1.850
24091W        W91159   2.806   8.856   1.232
24092W        W91160  38.937  44.806   0.950
24093W        W91161  44.864  24.140  11.895
24094W        W91162  22.574  24.975  11.512
24095W        W91163  33.956  25.485   1.729
24096W        W91164  38.845  37.835   3.803
24097W        W91165  12.118  36.471   0.299
24098W        W91166  44.382  44.398   2.257
24099W        W91167  21.659  14.609  11.442
24100W        W91168  10.845  14.194  12.864
24101W        W91169   1.761  42.997  12.892
24102W        W91170  30.475   9.173  13.494
24103W        W91171  29.451  44.855  12.518
24104W        W91172   6.918  29.558   3.155
24105W        W91173  35.587  11.180   0.351
24106W        W91174   1.822   9.757  14.289
24107W        W91175  31.973  21.599   1.754
24108W        W91176   7.669   3.710   0.378
24109W        W91177  23.115  11.333  10.981
24110W        W91178   5.354  23.687   1.399
24111W        W91179  33.568  14.710  10.031
24112W        W91180  41.907  29.436  10.600
24113W        W91181  11.141  28.956  11.876
24114W        W91182  37.026   8.201   2.401
24115W        W91183  32.935  12.739  14.363
24116W        W91184  43.967  31.631   0.393
24117W        W91185  20.150   0.986  11.949
24118W        W91186  21.168  16.621   2.697
24119W        W91187   6.251   0.482  10.450
24120W        W91188  19.534  34.027  12.358
24121W        W91189  21.685   9.355   3.335
24122W        W91190   2.802   4.738   0.333
24123W        W91191   8.207  39.847  11.093
24124W        W91192  41.344  24.505  11.117
24125W        W91193   1.323  40.416   4.291
24126W        W91194   6.346  24.215  11.058
24127W        W91195  12.177  20.766  14.498
24128W        W91196  38.858  16.692  10.427
24129W        W91197  26.183  32.109  13.384
24130W        W91198  25.497  27.499  12.520
24131W        W91199   3.410  22.613   1.247
24132W        W91200   7.176   5.382   2.370
24133W        W91201  39.512  30.506  12.556
24134W        W91202  41.362  15.759   2.218
24135W        W91203  25.493  29.977   3.686
24136W        W91204  30.908  24.643  11.454
24137W        W91205  33.431   9.860  12.032
24138W        W91206  40.460  40.879   3.650
24139W        W91207  20.190  26.470   0.726
24140W        W91208  10.299  22.601  11.432
24141W        W91209   3.406   2.832   0.343
24142W        W91210  14.195  44.858  14.280
24143W        W91211  23.994  29.592   0.774
24144W        W91212  22.569  38.397  12.014
24145W        W91213  33.968  14.753   2.773
24146W        W91214   6.791  42.895  11.982
24147W        W91215  28.580  26.200   0.423
24148W        W91216  18.561   0.411   4.666
24149W        W91217  36.997  17.677  13.954
24150W        W91218  44.319  15.280   3.819
24151W        W91219  28.117  39.879   0.435
24152W        W91220  26.148  28.586  14.023
24153W        W91221  26.159  11.330   4.282
24154W        W91222  15.626  41.373   3.314
24155W        W91223  44.436  13.170  12.366
24156W        W91224   3.322  12.252   3.866
24157W        W91225  39.856  33.392  12.557
24158W        W91226  15.647  23.082  13.970
24159W        W91227  29.494  32.106  12.023
24160W        W91228  42.288  44.284  13.977
24161W        W91229  16.651   8.172  10.021
24162W        W91230  24.507  28.180  14.022
24163W        W91231  44.865  26.075  11.956
24164W        W91232   7.283  16.628  10.951
24165W        W91233  10.230  20.172  13.984
24166W        W91234  24.090   8.266   3.216
24167W        W91235  21.101  43.369  11.919
24168W        W91236  23.033   5.765  10.577
24169W        W91237  32.483  12.784  11.062
24170W        W91238  30.161  12.196   1.773
24171W        W91239  40.442  10.208   3.154
24172W        W91240  23.729  43.319   0.777
24173W        W91241  34.571  19.271   0.906
24174W        W91242  16.191  12.637  11.447
24175W        W91243  11.848  16.274  10.628
24176W        W91244  35.957  32.013   4.748
24177W        W91245  24.697  21.127  12.953
24178W        W91246   3.735  10.832  14.463
24179W        W91247   7.875  20.713  11.587
24180W        W91248  12.339  15.148  14.876
24181W        W91249   4.726  39.023  10.488
24182W        W91250  19.594  15.120  14.764
24183W        W91251  38.840  15.230   0.261
24184W        W91252  39.416  34.118   2.826
24185W        W91253  28.051   6.833  10.151
24186W        W91254  40.030   7.367  10.891
24187W        W91255  41.008  20.662   3.381
24188W        W91256  23.553  43.897  11.541
24189W        W91257  30.458  37.455  13.469
24190W        W91258   2.258  21.205   2.230
24191W        W91259  44.438  25.131  10.645
24192W        W91260  40.364  12.127   2.805
24193W        W91261  14.796  26.653   3.385
24194W        W91262  27.568   4.356  10.639
24195W        W91263  10.721  38.975   3.314
24196W        W91264  31.533   8.397   0.459
24197W        W91265  28.491  19.259   3.643
24198W        W91266  22.689   8.301   3.859
24199W        W91267  26.614  17.065  12.024
24200W        W91268  15.328  29.670  11.979
24201W        W91269   8.320  41.453  11.108
24202W        W91270  38.981  43.850  14.798
24203W        W91271  39.012  44.844   2.668
24204W        W91272  24.689  27.585  12.823
24205W        W91273  39.373  16.654  14.795
24206W        W91274  27.174  36.975   3.272
24207W        W91275  24.667  33.519   3.257
24208W        W91276  35.444   7.889   4.691
24209W        W91277  14.831  13.287   3.868
24210W        W91278  27.962   4.897  13.971
24211W        W91279  25.532  34.534   2.816
24212W        W91280  34.924  29.434  14.317
24213W        W91281  40.350  37.389   5.181
24214W        W91282  15.261   0.288   2.385
24215W        W91283   8.228  24.603   1.316
24216W        W91284  17.226  41.350  13.013
24217W        W91285   3.929  31.091  12.059
24218W        W91286   9.222  18.711  10.130
24219W        W91287   5.409  37.999  13.822
24220W        W91288   8.762  28.163   3.157
24221W        W91289  27.060  11.799  13.473
24222W        W91290  19.125  35.022  11.010
24223W        W91291  40.937  12.232   1.380
24224W        W91292   2.410  14.622  13.501
24225W        W91293  37.883   3.305   1.232
24226W        W91294  17.132  18.604   1.804
24227W        W91295  34.938   7.357  13.317
24228W        W91296  25.643   9.181   1.860
24229W        W91297  43.398  16.272   2.400
24230W        W91298   7.883  14.271   5.182
24231W        W91299  12.117  35.958   1.221
24232W        W91300  24.130  40.988   3.863
24233W        W91301  14.244  20.661  14.824
24234W        W91302  32.137   6.203   2.199
24235W        W91303  35.039   3.837  13.800
24236W        W91304   9.832  25.566   0.855
24237W        W91305   5.871   3.919  10.433
24238W        W91306  11.202   4.387  12.074
24239W        W91307  39.955  13.608  14.864
24240W        W91308  20.056  33.437   0.406
24241W        W91309  43.907  38.874   1.757
24242W        W91310  27.563  12.634   0.887
24243W        W91311  27.157  24.977  12.556
24244W        W91312  43.005  33.509   3.866
24245W        W91313  41.328  38.948  10.962
24246W        W91314  20.533   6.201   4.820
24247W        W91315  11.323  28.634  12.482
24248W        W91316  22.054  10.342  10.935
24249W        W91317  23.182   7.704   1.375
24250W        W91318   9.366  29.948   3.223
24251W        W91319  22.163  33.452  14.499
24252W        W91320  14.690  23.184  13.890
24253W        W91321   3.299  15.226   1.759
24254W        W91322   4.702   1.242   4.340
24255W        W91323  27.014  32.094   0.327
24256W        W91324  34.540  14.112  11.049
24257W        W91325  36.059  42.371   0.326
24258W        W91326   4.320  29.068  10.522
24259W        W91327  38.533  25.074  10.907
24260W        W91328  41.012  30.658  14.812
24261W        W91329  28.587  41.035  11.572
24262W        W91330  24.585  27.519   4.783
24263W        W91331  12.145  44.422  11.392
24264W        W91332  23.687  33.987  11.892
24265W        W91333  19.613  24.981  13.824
24266W        W91334  40.847  18.106   3.274
24267W        W91335  19.050  28.930   3.363
24268W        W91336  23.713  18.130  12.531
24269W        W91337  21.579  33.075  10.984
24270W        W91338  16.276  22.087   4.186
24271W        W91339   4.214   6.186  12.068
24272W        W91340   2.450  42.382  10.552
24273W        W91341   5.812  28.150   3.809
24274W        W91342   3.954  25.977  10.597
24275W        W91343  12.833  30.425   1.770
24276W        W91344  38.334  34.424  12.970
24277W        W91345  33.505  37.874   0.873
24278W        W91346  38.033   7.401  10.497
24279W        W91347  44.265  12.803   1.254
24280W        W91348  32.968  18.693   3.651
24281W        W91349  44.298  26.104   2.772
24282W        W91350  38.074  13.270  11.873
24283W        W91351  23.508  35.508  10.936
24284W        W91352   4.385  14.814   4.744
24285W        W91353  39.359  21.261  14.276
24286W        W91354  40.332  40.355  11.544
24287W        W91355  33.892   3.434   0.792
24288W        W91356  15.243  32.101  14.018
24289W        W91357   8.735  38.994   3.848
24290W        W91358   0.440   2.404  13.519
24291W        W91359  34.000  36.370   2.788
24292W        W91360  28.617  14.193   4.173
24293W        W91361   9.282  27.632   4.284
24294W        W91362   8.699  23.055  13.040
24295W        W91363  32.599   1.947   4.236
24296W        W91364  11.312  28.529   0.728
24297W        W91365  33.540  25.515  11.106
24298W        W91366  28.571  37.529   0.475
24299W        W91367   0.362   2.375   3.363
24300W        W91368   5.702  28.991   3.718
24301W        W91369  30.120  39.827  11.953
24302W        W91370   5.703   3.260   4.802
24303W        W91371  16.180  18.742  12.351
24304W        W91372  39.478  11.673  12.546
24305W        W91373  25.676  19.272   3.793
24306W        W91374  15.716   8.336  10.475
24307W        W91375  23.568  20.636   1.897
24308W        W91376  43.822  10.714   4.762
24309W        W91377  39.458  41.008  12.394
24310W        W91378  41.395  41.879   4.209
24311W        W91379  13.630   1.296  11.482
24312W        W91380  22.141  44.288  12.075
24313W        W91381  31.025  27.618  11.398
24314W        W91382  37.878  32.096  11.959
24315W        W91383   8.374  14.331  13.420
24316W        W91384   3.328  41.799   1.922
24317W        W91385  23.109   7.813  12.343
24318W        W91386   5.204  36.497  10.415
24319W        W91387  13.730  25.031   3.864
24320W        W91388  30.432  27.466   0.376
24321W        W91389   7.396   7.683   0.445
24322W        W91390  18.694  22.027   2.887
24323W        W91391   6.686  32.990   4.155
24324W        W91392  28.938  26.208  13.982
24325W        W91393  31.152  17.270  11.112
24326W        W91394   9.790  37.835  11.974
24327W        W91395  34.461  38.877   3.674
24328W        W91396  38.964  20.051   4.697
24329W        W91397   2.738   9.350   1.861
24330W        W91398  24.626   8.213  12.893
24331W        W91399   2.324   2.854  12.567
24332W        W91400   8.698  44.892   2.698
24333W        W91401   9.266  17.766   4.677
24334W        W91402   6.852  16.637   2.880
24335W        W91403   6.921  32.583   3.796
24336W        W91404  23.077  33.095   0.950
24337W        W91405  13.285  28.568  14.809
24338W        W91406  40.022   2.469  13.529
24339W        W91407   5.212  28.054  10.546
24340W        W91408   0.923  19.273  10.145
24341W        W91409  12.839  17.195  13.482
24342W        W91410  41.877   1.247   1.725
24343W        W91411  21.026  13.151   5.112
24344W        W91412   9.282  41.410  11.582
24345W        W91413  30.074  27.553   4.651
24346W        W91414   6.914  21.593  14.931
24347W        W91415  16.114   6.823   2.894
24348W        W91416  14.629   1.956   0.946
24349W        W91417  10.642  19.247  14.019
24350W        W91418  26.589  29.561   0.244
24351W        W91419  42.836  20.162  13.964
24352W        W91420  34.049  28.501   4.793
24353W        W91421  10.768  15.644  13.013
24354W        W91422  30.987  31.086   4.814
24355W        W91423  36.081  44.455  12.937
24356W        W91424  44.930   8.189  13.527
24357W        W91425  16.673  19.588   3.777
24358W        W91426   4.268  32.628   2.741
24359W        W91427  38.443  35.035   4.267
24360W        W91428   6.852  42.867  10.598
24361W        W91429  40.946  19.651   4.241
24362W        W91430  20.055  28.112  13.796
24363W        W91431  43.995   4.907  11.020
24364W        W91432  34.568  15.204   3.179
24365W        W91433  12.694  40.848   4.185
24366W        W91434  24.492  34.460  14.277
24367W        W91435  32.599  31.576  12.537
24368W        W91436  27.121  34.966  11.452
24369W        W91437  10.318  12.178   2.879
24370W        W91438  41.346  23.087   1.915
24371W        W91439  22.087  24.093  14.990
24372W        W91440  31.633  29.010  10.974
24373W        W91441  16.754  36.534   0.380
24374W        W91442  15.227  27.160   0.321
24375W        W91443  13.706   3.292   3.285
24376W        W91444  10.643  28.502   0.828
24377W        W91445  44.987  15.304  13.961
24378W        W91446  11.638  15.183  14.425
24379W        W91447  37.418  39.317   1.872
24380W        W91448  28.055  20.158   0.897
24381W        W91449   1.785  30.627  10.633
24382W        W91450  39.943   7.668   1.772
24383W        W91451  25.698   1.391  10.902
24384W        W91452  34.433  23.520   2.247
24385W        W91453  28.643   7.385  14.462
24386W        W91454  31.089  14.273  12.446
24387W        W91455  11.763  30.075   0.897
24388W        W91456   1.264  14.185   4.765
24389W        W91457  22.087   2.228  11.496
24390W        W91458  42.486  37.041  13.458
24391W        W91459  10.150  41.399   4.138
24392W        W91460  39.513  38.344   1.246
24393W        W91461  25.681  32.515  13.927
24394W        W91462  10.784   2.273   3.677
24395W        W91463  14.253  15.198  10.494
24396W        W91464  37.082  10.710   0.940
24397W        W91465  41.930  36.430   2.225
24398W        W91466  39.958  32.394  13.463
24399W        W91467  11.310  37.905  11.449
24400W        W91468   1.771   1.267  11.400
24401W        W91469  35.910  20.117   1.832
24402W        W91470   9.734  11.868  14.338
24403W        W91471  42.856  43.872  10.630
24404W        W91472  43.812  18.580   2.707
24405W        W91473   1.433  15.711  12.030
24406W        W91474   9.669  33.046   1.361
24407W        W91475  35.075  44.389  13.394
24408W        W91476  13.251  44.367  12.051
24409W        W91477  13.623  20.624  10.596
24410W        W91478  37.357   1.779  10.520
24411W        W91479  27.022  10.647   1.338
24412W        W91480   1.768  43.349  13.834
24413W        W91481  30.100  39.000  11.431
24414W        W91482  13.793  25.209   4.778
24415W        W91483  31.088  15.590  13.958
24416W        W91484  26.209   5.814  11.509
24417W        W91485  38.976  17.128  11.008
24418W        W91486  24.573   6.805   3.324
24419W        W91487  37.449  13.789   0.774
24420W        W91488  21.017  24.108   2.703
24421W        W91489  36.553  34.615   1.864
24422W        W91490  33.486  32.005   3.869
24423W        W91491  30.544  35.885  13.876
24424W        W91492   6.407   4.229  13.320
24425W        W91493  23.526  18.141   0.872
24426W        W91494  24.561  18.066   3.273
24427W        W91495  40.958   3.806   2.819
24428W        W91496  29.626  22.560  11.439
24429W        W91497  43.882  12.171   1.844
24430W        W91498  23.167  15.185  11.033
24431W        W91499  14.723  27.617  11.528
24432W        W91500  19.675   5.359  13.948
24433W        W91501  39.446   6.210   0.453
24434W        W91502   5.807  37.407   1.824
24435W        W91503  26.152  39.458  11.534
24436W        W91504  13.698  16.267   0.415
24437W        W91505  19.108  27.135   2.419
24438W        W91506  18.212  29.130  11.444
24439W        W91507  41.520  22.610  13.395
24440W        W91508   0.402  11.138   4.748
24441W        W91509  33.901  18.235  14.934
24442W        W91510  41.308  21.151  10.946
24443W        W91511  19.640   1.364   0.312
24444W        W91512   9.341  30.532  10.417
24445W        W91513  13.107  18.658  14.312
24446W        W91514  14.630  20.162   4.834
24447W        W91515  23.000  34.019   4.665
24448W        W91516  38.501  21.169   1.733
24449W        W91517  32.419  15.689   3.336
24450W        W91518  19.604  14.331   0.410
24451W        W91519  11.239   6.346   0.449
24452W        W91520  14.152  28.601  12.340
24453W        W91521  40.885  10.188  13.857
24454W        W91522   4.710  33.065   3.212
24455W        W91523  24.087   2.378   0.793
24456W        W91524   6.738   9.275   0.314
24457W        W91525  44.772  40.420  11.965
24458W        W91526   3.871  35.904   3.307
24459W        W91527  27.504  18.700   4.712
24460W        W91528  40.498   5.227   4.659
24461W        W91529  44.422  25.994  10.488
24462W        W91530   3.727   5.929  10.623
24463W        W91531  25.605  16.570  12.903
24464W        W91532  17.190  24.628   2.767
24465W        W91533   9.202   9.741  12.459
24466W        W91534   3.418  12.781   3.800
24467W        W91535   0.418  33.543   0.298
24468W        W91536  18.732   8.401   1.211
24469W        W91537  17.251  14.766   2.185
24470W        W91538  31.526  13.218   3.384
24471W        W91539  41.989  34.993  14.760
24472W        W91540   0.823  36.367   2.724
24473W        W91541  18.142  38.913  14.343
24474W        W91542  20.101  24.578   1.365
24475W        W91543  37.078  14.631  12.909
24476W        W91544   2.422  12.817   2.204
24477W        W91545   0.776   8.878  11.007
24478W        W91546  10.224  12.127  12.427
24479W        W91547  34.113  43.365  14.327
24480W        W91548  15.285  19.626   4.791
24481W        W91549  27.091  33.573   1.901
24482W        W91550  41.961  19.159   2.836
24483W        W91551  18.728  30.043   1.279
24484W        W91552  23.085  35.579   4.123
24485W        W91553  10.689   8.324   1.812
24486W        W91554   1.439  31.927   3.684
24487W        W91555   8.699  34.026  14.506
24488W        W91556   9.868  31.043   1.916
24489W        W91557  24.576  39.949  10.600
24490W        W91558  44.800  24.091  14.452
24491W        W91559  41.514  29.547   1.313
24492W        W91560  32.886   4.256  12.942
24493W        W91561  25.575  43.317   4.738
24494W        W91562  39.900  29.931   1.236
24495W        W91563  17.269  36.864  12.374
24496W        W91564  44.840  11.254  10.936
24497W        W91565   3.251  21.754   3.222
24498W        W91566  26.511   8.725  14.361
24499W        W91567  40.835  32.470   0.319
24500W        W91568  10.343  44.277  11.403
24501W        W91569   5.783   8.741   0.427
24502W        W91570  23.213   7.884   4.209
24503W        W91571  18.569   4.290   0.273
24504W        W91572  34.939  27.498  13.323
24505W        W91573  17.204  23.104   1.390
24506W        W91574  33.124  18.611  11.594
24507W        W91575   2.274  24.132  13.437
24508W        W91576   1.344  39.387  10.560
24509W        W91577  12.340   0.395  12.352
24510W        W91578   0.426  32.623   3.252
24511W        W91579  40.510   5.407   1.709
24512W        W91580   9.355   2.825  11.884
24513W        W91581  18.579  28.614   3.345
24514W        W91582   8.801  42.855   1.267
24515W        W91583  23.988  19.569   2.765
24516W        W91584  34.870   8.697  12.063
24517W        W91585  20.652   4.276   4.823
24518W        W91586  41.022  23.993   4.277
24519W        W91587  26.505  39.424   0.255
24520W        W91588  41.833  41.824  10.581
24521W        W91589  11.630  40.879  12.910
24522W        W91590   6.379  41.844   2.871
24523W        W91591  24.625  26.152   0.945
24524W        W91592  23.998  30.927   0.851
24525W        W91593  41.380  33.986  11.943
24526W        W91594  12.810  40.819   2.896
24527W        W91595  27.557  43.933   0.856
24528W        W91596  26.179  36.897  11.456
24529W        W91597  18.068  39.508  10.584
24530W        W91598  25.094  12.227   2.724
24531W        W91599  35.076  32.951  14.368
24532W        W91600   7.817  39.410   1.363
24533W        W91601  40.512  16.304  11.481
24534W        W91602  13.697   3.953   2.240
24535W        W91603  35.547  26.203   2.333
24536W        W91604   6.411  41.313   2.322
24537W        W91605  20.622  24.674   4.800
24538W        W91606  33.434  17.737  11.097
24539W        W91607   0.273  34.118   0.736
24540W        W91608  41.327  20.645  10.536
24541W        W91609  19.070   9.187  11.014
24542W        W91610   9.778   8.309   0.800
24543W        W91611  24.216  27.016   4.137
24544W        W91612  35.075  43.907   3.191
24545W        W91613   5.407   0.426   3.274
24546W        W91614   7.740   0.380  13.315
24547W        W91615  34.040   3.429   1.758
24548W        W91616  15.086   1.383   0.299
24549W        W91617  13.164  40.843  10.998
24550W        W91618  25.992  13.820   0.467
24551W        W91619  11.733  41.480   4.613
24552W        W91620  40.873  40.903   1.795
24553W        W91621   9.708  33.520   1.715
24554W        W91622  38.527  38.430   3.724
24555W        W91623  37.991  23.703  13.319
24556W        W91624  37.385  21.750  13.420
24557W        W91625  44.927  17.284   1.301
24558W        W91626   3.250  23.041   2.713
24559W        W91627   6.866   2.234   0.335
24560W        W91628  33.065  19.162   4.712
24561W        W91629   3.894   2.422  14.318
24562W        W91630   9.838  34.025  14.299
24563W        W91631  37.526  44.862  14.307
24564W        W91632  14.240  27.503  13.046
24565W        W91633  28.477   8.744  11.069
24566W        W91634   6.916  23.623   1.835
24567W        W91635   3.906  36.913   0.729
24568W        W91636  22.194  33.615   0.454
24569W        W91637  39.910  24.647   4.729
24570W        W91638  32.138   7.294  13.517
24571W        W91639   1.350  17.131   4.299
24572W        W91640   2.376  29.468   2.187
24573W        W91641   1.276  25.552   2.829
24574W        W91642  17.683  34.884   0.752
24575W        W91643  32.915  10.647  12.537
24576W        W91644   9.372  28.001  10.088
24577W        W91645   6.717   2.780  11.053
24578W        W91646  40.937   6.270  13.955
24579W        W91647  13.700   8.397   2.723
24580W        W91648   0.884  13.195   0.947
24581W        W91649  18.700  17.159   2.323
24582W        W91650  17.675  33.466  13.516
24583W        W91651  36.573  30.002   2.419
24584W        W91652  22.124  33.982   2.735
24585W        W91653  16.718  35.553  14.487
24586W        W91654  40.019  34.382  11.567
24587W        W91655   3.796  41.362   1.882
24588W        W91656   8.844  26.684  10.569
24589W        W91657  37.884  23.517   3.319
24590W        W91658  30.045  30.106   4.291
24591W        W91659  32.956  24.040   1.391
24592W        W91660  38.560   6.783  14.930
24593W        W91661  12.759  27.470  10.991
24594W        W91662  42.449  10.340  12.013
24595W        W91663  17.185  23.162   9.961
24596W        W91664  28.014  28.606  14.916
24597W        W91665  31.921  24.522  11.013
24598W        W91666   5.365  14.706  13.344
24599W        W91667  10.662  21.518  10.953
24600W        W91668   8.214  28.965  13.476
24601W        W91669  23.574  29.046   4.316
24602W        W91670   1.395  35.067  14.339
24603W        W91671  13.191  29.010   2.211
24604W        W91672  25.651  42.474   0.830
24605W        W91673  21.085  27.133   1.387
24606W        W91674  26.156   0.825  11.441
24607W        W91675  12.617  40.375   1.788
24608W        W91676   8.260  15.266   0.922
24609W        W91677  13.645  34.435  13.831
24610W        W91678   2.300  31.068   4.619
24611W        W91679  29.139   0.261   0.766
24612W        W91680   8.312  14.335   3.849
24613W        W91681  17.300  44.813   2.234
24614W        W91682  11.684  27.541   2.186
24615W        W91683  33.589  30.056  10.559
24616W        W91684  19.571  20.677  13.821
24617W        W91685  12.851  44.345   2.326
24618W        W91686   1.420  10.764  14.029
24619W        W91687  21.096  19.113  12.013
24620W        W91688  27.050  30.452   0.403
24621W        W91689  38.371  34.376   0.884
24622W        W91690   9.348  33.386   3.211
24623W        W91691  22.015   4.403   4.218
24624W        W91692  14.208  41.888   0.900
24625W        W91693  34.073   4.906   1.930
24626W        W91694  13.667  14.188  14.368
24627W        W91695  27.197  10.233   1.331
24628W        W91696   0.977   7.703  13.825
24629W        W91697  42.487   3.449  14.872
24630W        W91698   5.430  28.968   3.842
24631W        W91699  18.124  20.560  14.947
24632W        W91700   6.764  41.305   1.915
24633W        W91701  21.184  37.842  14.930
24634W        W91702   2.446  44.284   3.317
24635W        W91703  13.246  32.532  12.556
24636W        W91704  29.986  24.535   2.682
24637W        W91705   1.337  25.692   3.836
24638W        W91706  41.959  29.950   3.717
24639W        W91707   7.675  31.648  12.535
24640W        W91708  13.163  34.507   2.839
24641W        W91709  32.459  32.949   4.218
24642W        W91710  30.583  27.195   4.307
24643W        W91711  39.524  24.076  13.901
24644W        W91712   6.773   8.871   2.250
24645W        W91713   4.372   3.741  12.509
24646W        W91714  32.445   1.377  14.867
24647W        W91715  41.863  21.564  11.883
24648W        W91716   8.183   3.344  11.503
24649W        W91717  24.126  36.088  11.603
24650W        W91718  20.166  15.590   0.376
24651W        W91719  31.953  43.501   3.639
24652W        W91720   7.757   2.789   0.269
24653W        W91721  25.024  16.150  13.395
24654W        W91722   5.890  11.754  10.976
24655W        W91723  21.109  39.006   0.293
24656W        W91724  25.111   0.883  14.827
24657W        W91725  36.986   7.273   2.307
24658W        W91726  25.217   2.291  12.959
24659W        W91727  20.546  28.566   4.169
24660W        W91728  10.698   0.982  13.799
24661W        W91729  17.722  34.552   1.405
24662W        W91730  26.984   2.744   4.761
24663W        W91731   7.277  12.286  10.970
24664W        W91732  40.454  36.993   3.651
24665W        W91733  37.995   8.235   4.684
24666W        W91734  30.128  17.628  12.513
24667W        W91735  36.558   3.456   0.959
24668W        W91736  12.247  43.317  10.458
24669W        W91737  22.252  11.866   3.769
24670W        W91738  41.833  37.505   4.344
24671W        W91739  19.077  36.949   4.337
24672W        W91740  23.121  40.033  10.955
24673W        W91741  17.623  26.992   1.348
24674W        W91742   5.712  14.608  11.874
24675W        W91743  42.456   4.265   2.732
24676W        W91744  23.508   3.892  13.011
24677W        W91745   7.882   9.716   3.350
24678W        W91746  41.492   5.717  12.090
24679W        W91747  42.800  40.397  13.343
24680W        W91748   7.343  20.692   4.637
24681W        W91749  43.451  30.498   5.322
24682W        W91750  13.701  36.852   4.129
24683W        W91751  42.398  15.598   2.669
24684W        W91752  41.432   0.274   0.457
24685W        W91753  38.507  36.406  14.373
24686W        W91754  34.470  16.079  10.507
24687W        W91755  22.156  31.067  13.951
24688W        W91756  41.043  39.032   2.225
24689W        W91757  13.204  39.322  13.498
24690W        W91758  28.076  18.597   1.258
24691W        W91759  16.166  12.686   4.280
24692W        W91760  35.982  15.752  14.906
24693W        W91761  17.083  43.319  11.006
24694W        W91762  28.676  22.615  14.392
24695W        W91763  20.702  10.851  13.401
24696W        W91764  42.316  38.052   2.716
24697W        W91765  27.660  20.086  11.898
24698W        W91766  17.167   6.191   1.877
24699W        W91767   5.253  41.915  10.927
24700W        W91768   3.722  11.838  12.532
24701W        W91769  37.513  30.014   1.934
24702W        W91770  32.074  22.664   4.818
24703W        W91771  21.736  37.977  11.939
24704W        W91772   9.157   4.413  14.996
24705W        W91773  41.429  14.657  12.369
24706W        W91774   6.344  34.416  10.638
24707W        W91775  33.535  23.701  13.849
24708W        W91776  12.648   2.334   4.606
24709W        W91777   8.246   4.789  10.433
24710W        W91778  12.351  30.046   1.932
24711W        W91779   0.749   9.272   1.324
24712W        W91780  44.409  21.213  11.082
24713W        W91781  21.022  18.293   3.749
24714W        W91782   1.769   6.892   1.394
24715W        W91783  16.218  41.386   2.344
24716W        W91784  24.132  22.584  13.913
24717W        W91785  21.681  34.007  12.959
24718W        W91786  40.454  19.779   0.803
24719W        W91787  34.546   0.804  10.534
24720W        W91788  35.542  14.714   3.355
24721W        W91789   1.775  44.768  12.049
24722W        W91790   0.916  40.931   1.800
24723W        W91791  16.762  32.604  14.445
24724W        W91792   5.832  28.986   0.481
24725W        W91793  13.190  31.979   0.886
24726W        W91794  44.986  32.567   0.966
24727W        W91795   4.869  33.457   1.866
24728W        W91796   3.811  37.843  10.469
24729W        W91797  22.503  30.164   1.725
24730W        W91798  29.535  22.203   4.247
24731W        W91799  27.553  22.235   0.328
24732W        W91800  36.093  31.498   0.474
24733W        W91801  42.003  34.982  13.313
24734W        W91802  27.988   0.770   1.256
24735W        W91803  41.364  35.887  11.390
24736W        W91804   3.788  36.942   2.235
24737W        W91805  18.774   2.751   4.770
24738W        W91806  40.426  19.142   3.805
24739W        W91807  41.936   6.750  14.885
24740W        W91808  31.475  26.530   5.260
24741W        W91809   3.788   8.343   4.320
24742W        W91810  23.510  39.505  12.979
24743W        W91811  42.787  31.035   0.939
24744W        W91812   9.809   0.299   3.654
24745W        W91813  39.995   9.243  10.531
24746W        W91814   1.310   8.660  14.919
24747W        W91815  12.698  15.313  14.003
24748W        W91816   6.922   3.808  14.925
24749W        W91817   6.310  21.598  13.888
24750W        W91818  24.039  36.388  12.072
24751W        W91819  36.492  32.425  14.852
24752W        W91820  29.077  20.079   3.173
24753W        W91821  44.326   5.243   1.256
24754W        W91822  20.535   6.756  10.909
24755W        W91823  13.709  34.115  12.914
24756W        W91824  19.165  11.836   1.223
24757W        W91825   2.858   3.278  11.550
24758W        W91826  21.514  21.160  12.532
24759W        W91827  40.500  13.255  14.307
24760W        W91828  17.185  10.787  14.494
24761W        W91829  37.017  41.846   0.370
24762W        W91830  19.075  41.933  12.960
24763W        W91831  31.934  26.605   0.829
24764W        W91832  14.831  41.958  10.565
24765W        W91833  35.446   2.419   0.323
24766W        W91834  10.288   2.446  14.800
24767W        W91835  35.477  22.251  13.509
24768W        W91836  44.786  38.431   4.222
24769W        W91837   5.881  16.646   4.116
24770W        W91838   1.312  30.641   3.218
24771W        W91839  28.639   6.705   2.671
24772W        W91840  37.349  21.555  11.014
24773W        W91841   8.891  30.131  14.312
24774W        W91842   2.744   1.863   2.689
24775W        W91843  10.836  33.996   1.218
24776W        W91844   1.433  41.363  13.500
24777W        W91845  30.955  40.984  10.539
24778W        W91846  11.846  13.844   0.959
24779W        W91847  27.496  25.710   0.944
24780W        W91848  31.058  30.915   0.858
24781W        W91849   4.321  25.060   3.754
24782W        W91850  19.221   9.697   2.833
24783W        W91851  24.594  28.657  12.346
24784W        W91852  16.096  15.767   3.664
24785W        W91853   3.787  38.988   4.650
24786W        W91854  14.597  19.716   4.296
24787W        W91855  26.598  31.099   5.256
24788W        W91856  44.848  11.866  12.053
24789W        W91857   2.957   1.881  14.341
24790W        W91858  26.960  33.615   3.195
24791W        W91859  13.822  13.190   0.869
24792W        W91860   3.353  11.679  14.329
24793W        W91861   7.832  43.932  11.462
24794W        W91862  32.033  29.935  13.991
24795W        W91863  35.562  21.224  10.962
24796W        W91864  33.540  33.492   0.959
24797W        W91865  38.544   5.866  12.952
24798W        W91866  31.469  39.332   1.390
24799W        W91867  37.049   8.711  14.791
24800W        W91868  12.336  19.103  11.517
24801W        W91869   2.781  17.216  12.875
24802W        W91870  43.400  12.228  11.395
24803W        W91871  22.170  22.062  13.466
24804W        W91872  20.142  25.151  11.442
24805W        W91873  12.764  34.927  11.612
24806W        W91874  27.489  33.008   5.721
24807W        W91875  37.921  21.210  12.412
24808W        W91876   4.408  42.476  13.821
24809W        W91877  24.640  10.759   3.718
24810W        W91878  32.453  34.545   2.797
24811W        W91879  33.954  44.929   3.782
24812W        W91880  28.496  23.560   3.301
24813W        W91881   3.262  42.952  14.888
24814W        W91882  19.626   2.925   3.806
24815W        W91883  17.226  22.541   0.731
24816W        W91884  44.767  35.360  10.429
24817W        W91885   5.241   6.423   4.275
24818W        W91886  11.207  14.126  14.339
24819W        W91887   2.246  34.510   1.749
24820W        W91888  21.186  36.431  11.879
24821W        W91889   0.830  27.078   2.359
24822W        W91890  40.328   5.846   1.712
24823W        W91891   6.888   4.435   4.345
24824W        W91892  20.605  31.113  14.811
24825W        W91893   3.287  25.624   1.898
24826W        W91894   1.336  16.131   4.285
24827W        W91895   9.159  31.010   4.141
24828W        W91896   6.797  28.098  13.367
24829W        W91897  11.264  28.976  14.321
24830W        W91898  36.445  21.755   2.272
24831W        W91899  14.784  39.062  10.011
24832W        W91900  39.009  10.208  11.968
24833W        W91901   9.264   2.251   3.156
24834W        W91902  39.466   7.242  11.413
24835W        W91903  26.678  44.856  12.578
24836W        W91904  26.983   6.271   2.726
24837W        W91905   3.736   5.424  10.495
24838W        W91906  14.207  11.249   1.915
24839W        W91907   2.472  19.056   3.145
24840W        W91908  11.692  29.112   0.431
24841W        W91909  42.407  44.929   1.842
24842W        W91910  28.597  26.011   2.736
24843W        W91911   9.712  42.352   3.330
24844W        W91912  40.948  43.303  11.561
24845W        W91913   0.279  39.003   3.707
24846W        W91914  39.544  17.587   4.263
24847W        W91915  32.555  23.665   3.347
24848W        W91916  40.436  32.575   2.841
24849W        W91917  22.048  39.427   0.732
24850W        W91918  16.159  14.741  13.802
24851W        W91919   2.291  30.123   0.276
24852W        W91920  16.746  44.977   3.736
24853W        W91921  30.539  26.463  10.984
24854W        W91922   7.185  25.626   4.129
24855W        W91923  35.108  40.465  10.525
24856W        W91924   1.759  43.272   2.296
24857W        W91925   2.412  27.046  13.546
24858W        W91926  41.355  24.039  14.456
24859W        W91927  28.141  21.517  14.769
24860W        W91928  20.148  23.098  11.873
24861W        W91929  44.361  14.628  14.883
24862W        W91930  23.721  32.886  12.844
24863W        W91931  18.215  15.587   1.814
24864W        W91932  18.175   6.420   3.799
24865W        W91933   6.811  17.755  13.987
24866W        W91934  30.103  26.204   4.769
24867W        W91935   1.735   9.713  11.424
24868W        W91936  39.966   1.833   1.426
24869W        W91937  39.877  23.636   2.834
24870W        W91938   4.721  31.114   3.803
24871W        W91939  33.946  38.460   1.409
24872W        W91940  33.524  42.452   4.219
24873W        W91941  44.326   0.438   4.254
24874W        W91942  25.681  28.453  12.473
24875W        W91943  42.443  42.861   2.895
24876W        W91944  39.506   9.669  12.058
24877W        W91945   2.412  30.146  13.349
24878W        W91946  14.815  42.390  12.931
24879W        W91947  24.666  26.478   5.091
24880W        W91948  17.095  27.015  11.923
24881W        W91949  28.025  41.821  10.405
24882W        W91950   6.247  30.634   0.432
24883W        W91951   6.261  35.454   3.778
24884W        W91952   3.347   0.296   4.722
24885W        W91953  11.675  43.940   3.840
24886W        W91954  43.493   1.451  11.920
24887W        W91955  35.589   4.883  14.515
24888W        W91956  18.744  25.036  12.929
24889W        W91957  26.120  37.933  12.856
24890W        W91958  24.553  44.383   3.791
24891W        W91959  23.130   7.191   2.238
24892W        W91960   0.479  22.105   1.394
24893W        W91961  38.546  34.048  10.596
24894W        W91962  12.807  40.506  10.441
24895W        W91963  33.890  15.195  11.431
24896W        W91964  28.030  41.895  13.946
24897W        W91965  10.270  32.950  11.609
24898W        W91966  27.039   1.869   0.840
24899W        W91967  13.774   0.474   2.899
24900W        W91968  31.954  41.962  13.427
24901W        W91969  28.609   8.825  13.881
24902W        W91970   7.759  25.483   3.325
24903W        W91971  34.529  22.547   0.358
24904W        W91972  16.230  34.988   1.842
24905W        W91973   5.287  41.295   5.270
24906W        W91974  38.872  23.603   4.343
24907W        W91975  44.771  13.260   2.859
24908W        W91976   7.687  38.025   4.122
24909W        W91977   9.205   8.287  12.935
24910W        W91978  32.607   2.882  12.538
24911W        W91979  25.973  43.978   4.132
24912W        W91980   3.777  29.606  13.332
24913W        W91981  26.470  18.183  11.460
24914W        W91982  41.430  42.001  11.890
24915W        W91983  34.090   4.907  13.969
24916W        W91984   9.220   0.975  13.940
24917W        W91985  31.631  37.445   0.883
24918W        W91986  28.998  12.323  12.040
24919W        W91987  26.186  15.222  14.011
24920W        W91988  36.357   6.422   0.478
24921W        W91989  13.146  30.978  12.073
24922W        W91990  35.958   5.776  13.984
24923W        W91991  27.645  36.003  13.791
24924W        W91992  39.881  28.107   4.617
24925W        W91993  44.301  12.220  10.524
24926W        W91994  18.721  44.866  10.495
24927W        W91995  39.431  31.144   4.799
24928W        W91996  34.419  27.088   4.677
24929W        W91997   8.808  25.633  11.895
24930W        W91998  34.526  11.147   0.808
24931W        W91999  22.126  29.936   2.359
24932W        W92000   3.442  11.187   4.777
24933W        W92001  15.799  24.112  14.791
24934W        W92002  27.630   2.870  12.930
24935W        W92003   4.745   2.299  13.459
24936W        W92004  12.328  34.473  11.937
24937W        W92005  25.596  18.562   4.117
24938W        W92006  12.644   4.424  14.433
24939W        W92007  13.646  32.081  11.526
24940W        W92008  39.332  25.520  14.508
24941W        W92009  19.190  33.921  11.919
24942W        W92010  16.105  15.782  14.783
24943W        W92011   8.351   9.155   4.708
24944W        W92012   7.771   4.296   4.131
24945W        W92013  39.050   8.213   4.681
24946W        W92014   0.748   9.380   4.775
24947W        W92015  20.248  23.089   1.245
24948W        W92016  40.005  31.499  10.891
24949W        W92017  34.111  23.074   3.788
24950W        W92018  43.959  30.618  13.803
24951W        W92019  24.643  32.087   1.303
24952W        W92020  12.702  13.747  12.391
24953W        W92021  41.822  27.521  13.998
24954W        W92022  20.752   6.677   0.450
24955W        W92023  19.769  28.681  12.040
24956W        W92024  36.442  24.098  14.369
24957W        W92025  26.081  34.071   1.857
24958W        W92026  10.171  33.955  14.324
24959W        W92027  20.596  35.959   0.247
24960W        W92028  32.568  21.227  10.575
24961W        W92029  18.211  15.695   2.746
24962W        W92030  22.742  44.824   0.964
24963W        W92031  19.769  43.283  14.837
24964W        W92032  41.346  31.469   3.661
24965W        W92033  19.228  37.386  13.994
24966W        W92034  44.471  24.649   2.263
24967W        W92035  18.667  10.796  12.563
24968W        W92036  26.482  39.838   0.312
24969W        W92037  32.636   6.856   4.269
24970W        W92038  25.567  16.686  11.082
24971W        W92039   5.817  23.224   3.174
24972W        W92040  38.898  39.537  10.515
24973W        W92041   2.235  19.716  13.522
24974W        W92042  12.356  15.611   1.782
24975W        W92043   4.704  27.116  12.878
24976W        W92044   8.661  35.583  11.571
24977W        W92045  28.149  30.995  13.040
24978W        W92046  38.443   9.648   4.661
24979W        W92047   7.785  34.468   4.829
24980W        W92048   8.177  40.530   4.319
24981W        W92049  36.895  30.658  12.831
24982W        W92050   6.747  16.163   0.920
24983W        W92051  44.275   0.970   4.622
24984W        W92052  43.883  36.994   4.280
24985W        W92053  23.068  36.497  11.967
24986W        W92054   1.301  44.970  14.963
24987W        W92055  32.470  23.586   1.243
24988W        W92056  21.708  22.188  10.542
24989W        W92057  36.472  12.777   1.341
24990W        W92058  37.467   7.879   3.870
24991W        W92059  12.149  21.051   2.408
24992W        W92060   5.239   0.959   1.429
24993W        W92061  24.156  14.647   4.694
24994W        W92062  38.831  37.056  10.451
24995W        W92063   2.295  41.844  14.807
24996W        W92064  14.300  16.210   1.336
24997W        W92065  22.679  35.460  12.053
24998W        W92066  11.728  23.070  13.974
24999W        W92067  35.552   8.376  10.512
25000W        W92068  17.131   7.752   0.778
25001W        W92069  31.956  37.343   3.332
25002W        W92070  19.751  18.577   4.629
25003W        W92071  18.683  40.376  11.449
25004W        W92072  30.609  26.031   2.229
25005W        W92073  10.724  23.211  13.054
25006W        W92074   6.704  15.770  12.571
25007W        W92075  37.575  18.634  12.025
25008W        W92076  12.161   7.253   3.350
25009W        W92077  39.381  26.617  14.314
25010W        W92078  44.297   6.728   1.875
25011W        W92079  41.968  42.863   5.182
25012W        W92080  34.030  29.454   1.386
25013W        W92081  43.956  11.628  11.027
25014W        W92082  31.548  37.559   1.228
25015W        W92083   2.918  17.637  10.956
25016W        W92084  10.186   8.826  10.432
25017W        W92085  23.676   3.300  14.907
25018W        W92086   9.715  36.458   0.356
25019W        W92087  29.491  16.718  13.861
25020W        W92088   1.971  24.009   1.695
25021W        W92089  36.443  21.123  13.861
25022W        W92090  26.673   4.900  10.105
25023W        W92091   5.760  32.424   4.795
25024W        W92092  18.665  30.145   4.715
25025W        W92093  34.591   7.269  14.917
25026W        W92094   6.786  37.834  11.026
25027W        W92095   0.894  19.197  14.431
25028W        W92096  40.483  25.578   0.360
25029W        W92097  32.434  13.292   2.834
25030W        W92098   1.367  31.594  11.599
25031W        W92099  43.313   8.399  11.010
25032W        W92100  35.520  31.959  13.365
25033W        W92101  35.604  20.734   4.828
25034W        W92102   8.759  22.695  14.832
25035W        W92103  19.745  31.000  13.352
25036W        W92104  31.076   4.287  14.300
25037W        W92105  20.230  32.991   3.716
25038W        W92106  39.400  32.958  11.442
25039W        W92107  15.672  13.141   0.730
25040W        W92108  10.383  21.038   1.274
25041W        W92109  20.579  37.563   2.842
25042W        W92110  20.739  28.472  12.909
25043W        W92111  11.746  23.511  10.993
25044W        W92112   0.939  18.220   2.736
25045W        W92113  24.196  13.774   3.750
25046W        W92114  13.192   8.228   2.684
25047W        W92115   7.754  12.334  12.533
25048W        W92116  39.921  14.321   0.749
25049W        W92117   6.368   2.271  14.390
25050W        W92118  20.539   0.376  10.896
25051W        W92119  28.959   1.908   4.251
25052W        W92120  11.147  39.039   4.252
25053W        W92121  11.829  25.149   1.776
25054W        W92122  43.815   8.192   2.333
25055W        W92123  42.417  38.374  14.921
25056W        W92124  14.312  17.224   4.319
25057W        W92125  18.245  21.699  10.992
25058W        W92126  24.108  22.627   4.789
25059W        W92127  13.669  22.706  11.470
25060W        W92128  29.104  34.011   5.169
25061W        W92129   7.262   6.874  13.408
25062W        W92130  22.533   2.737  11.863
25063W        W92131   8.211  21.230  11.932
25064W        W92132  27.104   3.900  11.939
25065W        W92133  40.464  25.706  11.124
25066W        W92134  28.947  43.293   3.241
25067W        W92135  34.892   4.323   2.376
25068W        W92136  17.653  24.122   1.349
25069W        W92137  14.179  15.634   3.743
25070W        W92138   3.389  37.570  12.484
25071W        W92139   2.793  36.956  14.017
25072W        W92140   5.711   8.219   3.647
25073W        W92141  31.598  14.824  13.840
25074W        W92142  14.646  23.658  14.485
25075W        W92143  17.252  36.507   1.268
25076W        W92144  35.393  28.963   1.781
25077W        W92145  11.370   2.726   0.962
25078W        W92146  18.621   0.965  11.876
25079W        W92147  20.095  39.969  12.532
25080W        W92148   5.361  32.541  11.521
25081W        W92149  24.026   3.448  12.494
25082W        W92150  16.295  32.579  12.963
25083W        W92151  23.171  17.156   3.196
25084W        W92152  38.392  24.700   4.141
25085W        W92153  29.018  37.990   0.752
25086W        W92154  28.636  32.466   1.311
25087W        W92155   5.236  14.611   3.697
25088W        W92156  11.250  30.133   3.369
25089W        W92157  15.792  25.578  10.490
25090W        W92158  12.652  18.064   3.146
25091W        W92159   6.690  13.165   0.324
25092W        W92160  17.585   9.768  13.538
25093W        W92161  21.105  18.187  10.998
25094W        W92162  19.679   2.319   0.786
25095W        W92163  23.602  40.501   2.285
25096W        W92164  35.445  12.785   0.282
25097W        W92165  15.083  17.716  14.809
25098W        W92166  44.475  20.690   3.328
25099W        W92167  26.518  24.193  13.307
25100W        W92168   7.231  19.625   4.799
25101W        W92169  28.174  24.140   5.090
25102W        W92170  17.225  18.560   2.837
25103W        W92171  12.245   0.901   5.099
25104W        W92172  33.925  41.298  11.459
25105W        W92173  36.516  43.885  10.456
25106W        W92174   5.752  32.089  14.032
25107W        W92175  21.075  26.958   2.800
25108W        W92176  44.828  23.648  10.408
25109W        W92177  42.417  31.538   0.359
25110W        W92178  41.844   8.194   0.861
25111W        W92179  13.830  26.138   2.365
25112W        W92180  44.284   9.299   3.153
25113W        W92181   4.436   6.329   0.457
25114W        W92182  41.870   2.935  10.981
25115W        W92183  21.638   4.825   1.435
25116W        W92184   8.891  10.299  10.957
25117W        W92185   4.291  19.274   9.984
25118W        W92186  31.054  10.232   2.194
25119W        W92187  16.574  31.913   1.810
25120W        W92188  32.629  13.134  14.013
25121W        W92189  39.039  20.681   2.687
25122W        W92190   4.356  39.057  13.880
25123W        W92191  18.106   6.326   4.291
25124W        W92192  26.588   8.397   3.201
25125W        W92193   5.195  42.973  14.468
25126W        W92194  33.600  28.525  14.025
25127W        W92195  43.923  41.888  10.412
25128W        W92196  25.984  38.935   0.887
25129W        W92197  39.835  20.760   2.261
25130W        W92198  14.120  44.788  12.861
25131W        W92199  12.676  20.036  12.850
25132W        W92200  37.845  28.062  11.520
25133W        W92201  11.278  14.739  12.899
25134W        W92202  36.069   1.309  12.890
25135W        W92203   2.264  21.662   2.335
25136W        W92204  24.182   2.385  11.024
25137W        W92205   2.803  24.151   0.461
25138W        W92206  17.246  16.773  10.999
25139W        W92207  21.649  11.179  12.418
25140W        W92208  16.790  41.875  10.480
25141W        W92209   8.178  11.318   3.762
25142W        W92210  21.034  19.657   4.174
25143W        W92211  20.044   0.447  13.869
25144W        W92212  42.377  26.649   2.360
25145W        W92213  24.041   4.717  10.602
25146W        W92214  13.728  30.580  10.489
25147W        W92215  16.223  34.015   4.694
25148W        W92216  24.175   8.714   2.213
25149W        W92217  38.533   4.914   2.401
25150W        W92218  22.568  13.685   1.395
25151W        W92219  33.616  39.530   3.779
25152W        W92220  32.919  13.828   4.317
25153W        W92221  25.656  36.561  13.053
25154W        W92222  16.138  27.452  12.455
25155W        W92223  12.616  16.194   0.442
25156W        W92224  24.676  42.449  13.891
25157W        W92225  14.111  34.416  14.804
25158W        W92226  10.252  42.931   0.317
25159W        W92227  16.115  44.782   1.264
25160W        W92228  20.082  29.136   0.833
25161W        W92229   8.725  31.134   0.790
25162W        W92230  40.007  17.575  10.893
25163W        W92231  43.340   5.928   4.742
25164W        W92232  40.340   6.406  13.971
25165W        W92233   5.864  43.921  12.843
25166W        W92234  15.608  35.385  14.288
25167W        W92235  20.600  33.905   4.333
25168W        W92236  21.168  10.756  14.460
25169W        W92237  30.491  44.762   2.718
25170W        W92238  33.043  20.079  12.070
25171W        W92239  39.841  16.736  10.904
25172W        W92240   4.244  35.107  13.436
25173W        W92241  21.105  44.278   5.236
25174W        W92242  19.051   8.794  12.894
25175W        W92243   4.416  21.550   4.743
25176W        W92244  25.080  21.182  14.806
25177W        W92245  25.217  40.406  12.871
25178W        W92246  39.847   0.391  11.392
25179W        W92247   1.759   1.775  14.473
25180W        W92248  27.590  20.567  13.919
25181W        W92249  17.265  44.901  11.877
25182W        W92250  13.645  28.968   1.858
25183W        W92251  22.241  38.038   2.799
25184W        W92252  39.819  11.678   4.788
25185W        W92253  44.374  24.212  14.383
25186W        W92254  28.933  31.540   4.348
25187W        W92255  27.079  13.203   3.644
25188W        W92256  13.797  28.113   2.811
25189W        W92257  22.687  26.120   4.210
25190W        W92258  40.374  14.329   1.225
25191W        W92259  19.760  17.576  12.444
25192W        W92260  15.777  24.626   0.396
25193W        W92261   6.328  35.587  13.415
25194W        W92262  39.418  39.849  14.469
25195W        W92263  17.188  37.413  12.462
25196W        W92264   4.429  29.586  13.936
25197W        W92265  37.928  15.605   0.464
25198W        W92266  26.180   0.760   1.865
25199W        W92267  33.969  29.927   4.218
25200W        W92268  18.286  41.914   3.654
25201W        W92269   2.788   2.352  14.876
25202W        W92270  11.220  29.463  13.062
25203W        W92271   8.663   3.325  14.994
25204W        W92272  35.049  28.468   0.815
25205W        W92273  29.463  21.171   1.854
25206W        W92274  23.061  41.425  11.506
25207W        W92275  36.000  15.271   1.861
25208W        W92276  38.916  28.503  12.989
25209W        W92277  40.052   3.742  13.343
25210W        W92278  25.185  26.511   0.902
25211W        W92279  21.589  23.150  10.999
25212W        W92280  25.569  38.380   4.826
25213W        W92281  29.976   2.416  13.837
25214W        W92282  44.364  14.129  13.840
25215W        W92283  34.877  44.945   3.373
25216W        W92284  40.439  39.530  12.838
25217W        W92285   1.460  15.723  12.828
25218W        W92286  44.501  24.581  14.405
25219W        W92287   5.292  23.202  14.466
25220W        W92288  19.156  12.811  11.378
25221W        W92289   3.932  21.756   0.806
25222W        W92290  19.177   7.801   1.315
25223W        W92291  39.397  41.381   2.243
25224W        W92292   6.828   3.418   4.254
25225W        W92293  17.670  11.629   1.288
25226W        W92294  41.838  30.980   1.239
25227W        W92295   2.462  40.883   0.810
25228W        W92296  41.796  30.465   0.366
25229W        W92297   8.291  16.575  13.395
25230W        W92298  40.985  38.458  13.370
25231W        W92299  28.563  12.285  12.893
25232W        W92300  42.372  42.482  14.819
25233W        W92301  39.503  38.026   2.781
25234W        W92302   2.748  15.644  13.930
25235W        W92303   8.721   4.860   4.759
25236W        W92304  19.160   2.344  13.032
25237W        W92305  28.934   3.281   4.186
25238W        W92306  30.442  17.195   3.184
25239W        W92307  19.206  44.295  10.948
25240W        W92308   6.403  32.607  13.023
25241W        W92309  10.239  25.086   0.838
25242W        W92310  26.660  38.977   2.378
25243W        W92311  10.294   7.696  11.406
25244W        W92312   2.290   8.684   5.191
25245W        W92313  42.011   1.825  10.019
25246W        W92314  38.349  32.983   1.339
25247W        W92315  23.000  13.804   0.733
25248W        W92316  17.674  24.710  13.519
25249W        W92317  20.680  18.167   2.791
25250W        W92318   7.865  35.548   0.803
25251W        W92319  30.098  21.231   2.766
25252W        W92320   2.950  32.567   4.802
25253W        W92321  34.120  24.564   0.957
25254W        W92322  18.097   9.701  11.448
25255W        W92323  19.146  37.566   5.309
25256W        W92324   4.727  18.185  11.589
25257W        W92325  13.163  38.823  10.042
25258W        W92326   1.795  25.565   0.258
25259W        W92327  12.328  35.884  14.441
25260W        W92328   1.345  44.889  13.418
25261W        W92329   2.899  20.659   1.437
25262W        W92330   1.754  42.828   2.288
25263W        W92331   9.358  13.692  10.563
25264W        W92332  19.757  30.600   0.956
25265W        W92333  43.018  44.898   2.674
25266W        W92334   5.823   7.789  10.547
25267W        W92335  25.179   4.945   2.743
25268W        W92336   7.367  41.796  13.979
25269W        W92337   9.842   2.365   0.335
25270W        W92338  17.622   4.445   1.283
25271W        W92339   5.434  30.591  12.418
25272W        W92340  40.350  32.913  10.994
25273W        W92341  39.963  22.186   4.195
25274W        W92342  36.460  17.678  14.298
25275W        W92343   8.232  20.183  12.415
25276W        W92344  22.214  14.764   0.952
25277W        W92345  13.319  22.057  10.495
25278W        W92346  11.817  24.499   1.822
25279W        W92347  29.985  31.071  14.873
25280W        W92348  11.348  39.946   2.310
25281W        W92349  21.134  22.230  10.069
25282W        W92350   1.319   2.470  12.858
25283W        W92351  34.979  17.698   0.923
25284W        W92352  15.155  38.851  10.458
25285W        W92353   1.307  19.134  14.935
25286W        W92354  15.747   4.243  12.983
25287W        W92355   3.268   3.741  13.388
25288W        W92356   4.833  24.641  13.394
25289W        W92357  15.780  43.358   1.299
25290W        W92358  23.179  40.348   3.210
25291W        W92359  31.029   4.812   2.289
25292W        W92360  44.452  40.511   1.800
25293W        W92361  34.539  40.532   4.206
25294W        W92362  14.120  31.980   1.857
25295W        W92363  36.850  44.764   4.736
25296W        W92364  10.257  23.097   1.212
25297W        W92365  19.187  27.031  11.497
25298W        W92366  38.504  35.472  11.983
25299W        W92367  12.244   1.373   2.824
25300W        W92368  17.733  11.828   4.180
25301W        W92369  15.653  44.276   2.865
25302W        W92370  13.125  39.537  14.511
25303W        W92371  26.951  25.040  12.859
25304W        W92372   4.842  28.545   3.171
25305W        W92373  21.103  19.646  12.959
25306W        W92374   4.345  17.128   4.318
25307W        W92375  15.581  32.560   4.307
25308W        W92376  29.966   6.383  14.505
25309W        W92377  14.155  40.522   5.256
25310W        W92378  35.503   8.747  14.356
25311W        W92379  34.477  12.358  10.910
25312W        W92380  30.044  44.756   1.299
25313W        W92381  20.044  20.088   3.831
25314W        W92382  32.469   1.341   0.805
25315W        W92383  12.638  12.712   4.804
25316W        W92384  14.826  40.965   2.883
25317W        W92385  40.491  30.567   4.170
25318W        W92386  31.406  32.073  14.339
25319W        W92387  15.722   9.652  10.930
25320W        W92388  31.049  22.662   3.271
25321W        W92389  16.587  31.522  14.877
25322W        W92390  37.082   4.790  13.543
25323W        W92391  40.343  15.266   0.902
25324W        W92392  26.701  39.556  10.957
25325W        W92393  40.952  14.712  11.868
25326W        W92394  26.138  12.762   0.952
25327W        W92395  16.143   9.241  11.588
25328W        W92396  15.133  33.002  12.533
25329W        W92397  19.692  23.579   3.685
25330W        W92398  29.000  16.203  11.460
25331W        W92399  25.188   5.796   4.329
25332W        W92400  24.087  15.696   1.801
25333W        W92401  25.146   1.464   2.809
25334W        W92402  41.323  26.128   3.258
25335W        W92403   9.317  34.091   2.787
25336W        W92404  43.878  31.504  13.004
25337W        W92405   9.191  15.307   3.675
25338W        W92406  24.573   2.275   2.814
25339W        W92407   3.452   0.806   5.104
25340W        W92408  21.125   5.219   2.816
25341W        W92409  10.737  32.048   2.214
25342W        W92410  16.291  35.537  11.994
25343W        W92411  26.584  19.534   0.963
25344W        W92412   0.952  11.350   4.805
25345W        W92413  31.041  23.239  13.465
25346W        W92414  34.565  37.388   1.799
25347W        W92415  24.996  35.023   4.682
25348W        W92416  11.294  12.762  10.893
25349W        W92417  40.512   1.815  10.101
25350W        W92418  29.156  13.829  12.851
25351W        W92419  22.156  15.166  11.016
25352W        W92420  41.400  16.655  13.400
25353W        W92421  39.981  41.327   3.283
25354W        W92422   8.395   3.784  12.466
25355W        W92423  39.008  35.529   4.204
25356W        W92424  24.986  26.019   0.295
25357W        W92425  38.401  35.525   2.383
25358W        W92426  23.213  15.275   2.814
25359W        W92427   4.370  11.210   2.765
25360W        W92428  31.504  35.064   0.287
25361W        W92429   5.227  43.353   0.364
25362W        W92430  22.528  22.631   0.274
25363W        W92431   9.228  36.844   1.885
25364W        W92432  27.022  14.818  14.429
25365W        W92433  27.606   0.286  12.491
25366W        W92434  17.656  34.501   4.119
25367W        W92435  37.008  13.822  11.113
25368W        W92436  15.722   0.422  14.451
25369W        W92437  10.206   1.956  13.898
25370W        W92438  19.631  42.503   1.851
25371W        W92439   5.300  16.750   2.817
25372W        W92440  32.933  38.851   1.903
25373W        W92441  42.925  31.054  14.307
25374W        W92442   9.384  28.517   3.201
25375W        W92443  13.646  22.039   3.267
25376W        W92444  15.305  23.713  14.963
25377W        W92445  27.024  28.648  13.319
25378W        W92446   3.412  14.727  14.347
25379W        W92447  29.030  17.277   4.272
25380W        W92448   0.877   4.807   4.337
25381W        W92449  28.078  20.155   1.423
25382W        W92450  40.911  23.539   2.321
25383W        W92451  40.382  13.273   1.383
25384W        W92452  14.727  28.610  13.849
25385W        W92453  13.157  25.512   1.722
25386W        W92454  35.026  32.029  13.009
25387W        W92455  39.344   8.686   4.683
25388W        W92456  22.680  41.464  12.081
25389W        W92457  14.105  30.588  10.460
25390W        W92458   8.364  27.115   2.341
25391W        W92459   0.258   3.452  12.529
25392W        W92460  24.998   1.360   0.288
25393W        W92461  24.216  44.347  12.459
25394W        W92462  14.181  13.660   3.262
25395W        W92463  17.172   4.709  10.614
25396W        W92464  36.009  37.905  14.869
25397W        W92465   7.721   1.462  10.926
25398W        W92466  37.506  20.105  13.914
25399W        W92467  19.640   3.272   2.278
25400W        W92468  15.187  28.987  12.068
25401W        W92469  43.799  32.554  10.516
25402W        W92470  13.233  43.442  12.076
25403W        W92471   1.930  31.086  12.872
25404W        W92472   3.420   3.422   3.828
25405W        W92473   3.749  43.379  14.017
25406W        W92474   8.167  32.996  14.433
25407W        W92475   1.786  19.080  13.847
25408W        W92476  19.681  10.848  11.500
25409W        W92477  40.867   4.357  13.500
25410W        W92478  39.943  16.716  14.913
25411W        W92479  39.024  29.543   0.328
25412W        W92480   7.211  35.965   3.733
25413W        W92481  32.554   0.899  13.322
25414W        W92482  43.430  22.204   2.701
25415W        W92483  28.051  20.091   3.370
25416W        W92484  18.591  21.152   1.904
25417W        W92485  22.032  18.241   2.770
25418W        W92486   4.728  36.879   4.837
25419W        W92487  13.609  20.157  11.946
25420W        W92488   1.811  23.150  11.392
25421W        W92489  39.535  10.868   2.246
25422W        W92490   1.873  14.264  11.911
25423W        W92491  15.767  15.301   3.329
25424W        W92492  10.322  38.017   2.803
25425W        W92493   5.214  14.191  13.418
25426W        W92494  22.592   4.833   0.920
25427W        W92495   5.745  29.509  11.932
25428W        W92496  23.726  35.459   4.831
25429W        W92497  33.879   6.789   2.788
25430W        W92498  20.209  20.758  10.991
25431W        W92499  13.170   7.372  10.148
25432W        W92500  12.264  42.775   1.342
25433W        W92501   9.760  37.341   3.822
25434W        W92502  42.461  22.739   1.447
25435W        W92503  43.974  24.644  13.426
25436W        W92504  20.259  19.089   0.753
25437W        W92505  41.803  17.084  10.956
25438W        W92506  35.458  42.003   3.286
25439W        W92507  30.569   7.879  14.344
25440W        W92508  19.096  40.330   4.172
25441W        W92509   6.291   9.219   1.821
25442W        W92510  30.153  29.076  13.326
25443W        W92511   1.317   8.231   3.639
25444W        W92512  22.545  21.545  12.509
25445W        W92513  12.630  27.073   2.765
25446W        W92514  10.784   5.272   2.340
25447W        W92515  19.089  20.183   0.868
25448W        W92516   6.742   0.830  14.430
25449W        W92517   5.264   5.284  10.587
25450W        W92518  28.641  21.082   4.610
25451W        W92519  35.578  35.457  12.846
25452W        W92520   6.898  16.299   4.717
25453W        W92521  22.090  15.677  10.473
25454W        W92522  31.006  28.463  13.363
25455W        W92523  26.545   6.769   4.159
25456W        W92524  40.827  26.101  13.877
25457W        W92525   8.248  34.385   3.804
25458W        W92526   0.936  14.710  10.998
25459W        W92527   2.810  30.914   2.776
25460W        W92528  16.292   5.914  13.830
25461W        W92529   8.251  19.721  12.361
25462W        W92530  40.504  16.601  13.011
25463W        W92531   6.414  43.365  10.916
25464W        W92532  38.868  41.917   3.798
25465W        W92533  43.368  15.662   0.911
25466W        W92534  28.599  35.032   0.788
25467W        W92535  21.054   9.248  13.979
25468W        W92536   2.357  31.140   0.275
25469W        W92537  34.906  38.905  13.499
25470W        W92538  21.603   2.405   4.733
25471W        W92539  41.445  15.656   4.667
25472W        W92540  28.602  27.472   4.264
25473W        W92541  41.965  38.523  12.521
25474W        W92542  44.501  38.841   5.194
25475W        W92543   3.933  16.807   2.399
25476W        W92544   5.270  30.115   3.634
25477W        W92545  18.061  37.877  11.559
25478W        W92546  21.192  44.420  10.894
25479W        W92547   3.743  23.538   1.789
25480W        W92548  15.687  33.477   1.282
25481W        W92549  33.454  35.915   3.871
25482W        W92550  22.516   1.475   3.766
25483W        W92551   4.727   0.880  14.277
25484W        W92552  42.471  16.223  14.828
25485W        W92553  13.181  28.004  10.114
25486W        W92554  38.454  42.446   2.409
25487W        W92555  12.232  34.022   0.243
25488W        W92556   0.413  32.426   1.813
25489W        W92557  23.162   5.220  14.481
25490W        W92558  10.683  29.590   1.933
25491W        W92559   5.422  21.542  14.945
25492W        W92560  42.782  22.631  11.499
25493W        W92561   8.225   1.273   0.258
25494W        W92562  28.022  23.021  14.501
25495W        W92563  42.393  38.934  12.500
25496W        W92564  43.999  24.517   0.804
25497W        W92565   5.437  40.547   4.784
25498W        W92566   1.465   0.873  12.989
25499W        W92567  31.060  40.015  10.618
25500W        W92568  32.110  12.346  12.522
25501W        W92569   6.241  30.648   2.411
25502W        W92570  28.113  30.163   1.332
25503W        W92571  17.756   3.881   4.689
25504W        W92572  44.902  20.723  14.283
25505W        W92573  31.074  42.291   1.862
25506W        W92574  23.604   4.724  10.569
25507W        W92575  20.080  30.594  13.376
25508W        W92576  12.170  37.400   1.712
25509W        W92577  13.747   0.463   5.716
25510W        W92578  12.220  39.998   3.354
25511W        W92579  18.575  27.620  13.448
25512W        W92580  33.035  22.182   3.689
25513W        W92581  39.383   0.449   2.854
25514W        W92582  36.512  25.533  12.401
25515W        W92583  43.945   0.786   4.291
25516W        W92584  34.110  44.486  14.992
25517W        W92585  26.597  14.112   4.771
25518W        W92586   0.805   7.351   1.778
25519W        W92587  32.043  12.781  12.875
25520W        W92588  41.826  13.769  11.449
25521W        W92589   0.845   5.717  13.846
25522W        W92590   5.400  41.328  14.019
25523W        W92591  28.524  13.306  11.417
25524W        W92592  15.092  11.156   1.811
25525W        W92593  41.320  26.604   4.293
25526W        W92594  11.805  38.386   3.708
25527W        W92595   9.820  42.903   2.870
25528W        W92596  16.136  14.620   2.833
25529W        W92597  18.647  11.744   4.821
25530W        W92598  38.935   0.479  13.466
25531W        W92599   6.691  27.483   0.255
25532W        W92600  30.158  37.039  13.346
25533W        W92601  22.071  25.539   1.300
25534W        W92602  36.465  14.590   4.644
25535W        W92603  21.572  28.526   4.609
25536W        W92604   3.955  22.597   4.605
25537W        W92605  10.669  17.180   1.210
25538W        W92606  44.482  27.558   0.349
25539W        W92607  10.845  26.980   2.263
25540W        W92608   8.762  37.026  12.073
25541W        W92609  28.464  12.269  11.399
25542W        W92610  39.454   6.349   3.279
25543W        W92611   6.240  29.084   2.334
25544W        W92612  11.161  21.162   4.812
25545W        W92613  38.412   5.850   0.352
25546W        W92614  42.832  30.485  10.154
25547W        W92615  19.082   8.252  12.839
25548W        W92616  41.323   6.389  11.052
25549W        W92617  28.658  32.566   5.645
25550W        W92618  17.137   4.885   0.849
25551W        W92619  21.675   3.840   4.335
25552W        W92620  41.426  33.874   3.381
25553W        W92621  27.560  44.265   4.320
25554W        W92622  21.706  38.070  10.411
25555W        W92623  11.183   1.781   1.439
25556W        W92624  39.426  44.353  12.085
25557W        W92625  24.057  42.933  11.083
25558W        W92626  28.491  18.688  11.540
25559W        W92627  43.817  23.660  12.429
25560W        W92628  11.265  13.271  10.537
25561W        W92629  31.087   2.907   3.803
25562W        W92630   4.416  26.661   1.397
25563W        W92631  28.980  12.766  10.578
25564W        W92632  29.075  41.305  14.452
25565W        W92633  38.819   4.703   5.277
25566W        W92634   4.409  14.248  12.831
25567W        W92635  20.148  37.526   3.234
25568W        W92636  13.332  25.003   0.919
25569W        W92637  28.183  35.580   3.376
25570W        W92638  12.119  19.692   0.788
25571W        W92639  13.655  10.832   1.303
25572W        W92640  44.959   5.395   2.779
25573W        W92641  24.980   3.416  10.979
25574W        W92642  31.643  39.465  11.385
25575W        W92643  34.946   6.695  10.625
25576W        W92644  16.789   2.726  11.975
25577W        W92645  35.505  18.085   2.726
25578W        W92646  15.636  23.645   2.417
25579W        W92647  26.691  40.870  12.931
25580W        W92648  12.734   0.359  13.403
25581W        W92649  39.933  27.645  13.334
25582W        W92650  19.110  20.552   1.844
25583W        W92651   6.773   4.753  10.531
25584W        W92652   2.369  34.021  13.810
25585W        W92653  29.427  44.363  11.990
25586W        W92654  14.818  15.686   3.681
25587W        W92655  23.656  21.668  12.836
25588W        W92656  22.677  40.390  13.394
25589W        W92657  34.406   7.259  10.482
25590W        W92658  11.757  10.359   4.314
25591W        W92659  43.408  44.494   4.259
25592W        W92660   3.914  35.448   1.387
25593W        W92661   0.352   5.923   1.923
25594W        W92662  33.503  42.482   4.746
25595W        W92663  36.881  18.062   0.366
25596W        W92664  35.370  27.111  12.571
25597W        W92665  28.047  37.356  14.015
25598W        W92666  22.648  15.605   1.746
25599W        W92667  14.714   4.908  13.007
25600W        W92668  24.154  14.181  13.802
25601W        W92669  19.074  28.929   0.255
25602W        W92670  28.517  12.615   4.202
25603W        W92671   7.899  11.749  12.058
25604W        W92672  33.625  11.344  12.843
25605W        W92673  33.044  41.449   4.197
25606W        W92674  14.662  24.124  13.937
25607W        W92675   3.833   5.799   2.395
25608W        W92676  19.179  13.776  13.313
25609W        W92677  33.555  21.732  13.397
25610W        W92678  10.736  18.278   4.817
25611W        W92679  11.297   2.301   3.750
25612W        W92680  15.757   7.700  11.077
25613W        W92681  10.831  10.807   0.873
25614W        W92682  14.315  35.059  11.525
25615W        W92683  26.160  37.581   0.415
25616W        W92684  33.008  19.120   3.869
25617W        W92685  17.085  12.119  13.472
25618W        W92686  19.605  44.812  11.912
25619W        W92687  36.389  16.657  11.449
25620W        W92688   4.738  23.017   0.385
25621W        W92689  21.559  12.827   0.276
25622W        W92690  29.472  43.894   0.383
25623W        W92691   9.777   1.788  10.452
25624W        W92692  35.964  20.225  14.826
25625W        W92693  13.195   5.801   1.886
25626W        W92694   6.193   1.841   0.957
25627W        W92695  29.571   3.291  14.816
25628W        W92696  28.021  20.121  10.426
25629W        W92697  41.424   9.753  13.361
25630W        W92698   5.435   0.977   4.291
25631W        W92699  16.072   6.311   1.229
25632W        W92700  35.875  19.045   4.183
25633W        W92701  41.977  20.255   3.302
25634W        W92702  19.080  22.180   1.913
25635W        W92703  28.076   3.755   4.252
25636W        W92704  27.153  16.303  12.533
25637W        W92705  37.026  39.379  13.059
25638W        W92706   6.725  26.014   4.343
25639W        W92707  30.414  41.034  12.997
25640W        W92708  10.643  37.578  13.815
25641W        W92709   2.812  36.410   3.162
25642W        W92710  37.548   9.658  12.523
25643W        W92711  35.402   1.881   1.341
25644W        W92712   2.832  15.271   2.822
25645W        W92713  16.228  13.184   1.222
25646W        W92714  26.593  33.953  14.350
25647W        W92715   6.746  43.849  14.024
25648W        W92716  32.973   9.190  13.907
25649W        W92717  10.141  43.850  12.003
25650W        W92718  26.594  17.778  13.020
25651W        W92719   2.899  16.082   4.737
25652W        W92720  32.589   5.762   1.850
25653W        W92721  40.980  24.174   1.915
25654W        W92722  21.591   6.714  12.956
25655W        W92723   6.922  29.550   0.933
25656W        W92724  33.430  10.721  13.522
25657W        W92725  36.098  33.915  12.411
25658W        W92726  14.749  28.581   2.836
25659W        W92727  32.934  11.361   3.262
25660W        W92728   8.195  15.718  12.560
25661W        W92729  28.130  24.195   3.148
25662W        W92730  29.929  39.862   0.844
25663W        W92731  33.122   7.238   2.400
25664W        W92732  32.036  28.950  11.115
25665W        W92733  25.673  24.977  12.368
25666W        W92734  23.545   6.408   1.250
25667W        W92735   5.237  30.922   0.814
25668W        W92736  37.582  10.208   4.192
25669W        W92737  31.988   8.713  11.596
25670W        W92738   6.773   4.363  13.447
25671W        W92739   0.867  10.157  12.974
25672W        W92740  40.870   2.347   2.800
25673W        W92741  14.797  34.987   0.377
25674W        W92742  28.140  26.147  11.005
25675W        W92743   3.323  24.479   0.399
25676W        W92744   9.757  18.693  11.953
25677W        W92745   6.761  25.581   3.362
25678W        W92746  20.612  13.797   2.307
25679W        W92747  44.430  42.001  12.065
25680W        W92748  10.849  25.129  10.911
25681W        W92749  24.014   1.421   1.374
25682W        W92750   6.779  17.748   3.707
25683W        W92751   2.374   4.227  12.389
25684W        W92752   9.857   7.259  12.969
25685W        W92753   7.712   0.757  12.385
25686W        W92754   8.835  27.194   2.768
25687W        W92755  35.047  17.632  13.020
25688W        W92756  34.978   9.849  13.919
25689W        W92757  17.213  42.469   0.865
25690W        W92758  25.578  35.879   2.229
25691W        W92759  20.531  17.251  12.055
25692W        W92760  36.015   4.879   2.729
25693W        W92761   3.950  19.117   0.422
25694W        W92762   6.297  16.075  13.355
25695W        W92763   7.890  33.608  12.503
25696W        W92764  14.648  16.192  14.293
25697W        W92765  43.765  11.229   0.457
25698W        W92766  39.031  19.560   2.726
25699W        W92767  43.509   8.301  12.998
25700W        W92768   9.772  11.272  14.855
25701W        W92769  34.389   5.213  13.392
25702W        W92770  36.073  32.063  13.060
25703W        W92771  25.490  16.150   2.178
25704W        W92772   1.851  35.027   2.878
25705W        W92773  33.986  39.952  12.401
25706W        W92774  21.126  14.778   3.676
25707W        W92775  10.215  43.321   3.685
25708W        W92776   6.204   4.243  11.119
25709W        W92777   0.367  14.279  11.856
25710W        W92778   7.741   0.785  10.063
25711W        W92779   8.272  25.551   3.871
25712W        W92780  24.490  42.792  14.893
25713W        W92781  24.993  14.134   1.780
25714W        W92782   9.228  13.679  10.994
25715W        W92783  41.990  34.510   3.746
25716W        W92784   6.291  38.862   4.688
25717W        W92785  24.540  34.042  10.475
25718W        W92786   8.834  31.603  12.915
25719W        W92787  15.809  10.318  10.960
25720W        W92788  26.578   9.239  11.473
25721W        W92789  40.797  34.038  11.555
25722W        W92790   1.822  10.149  13.871
25723W        W92791  35.926  29.510  12.881
25724W        W92792  41.868  44.349  11.875
25725W        W92793  37.945  27.470  14.948
25726W        W92794   9.646  42.364  14.486
25727W        W92795  40.371   1.905  11.057
25728W        W92796  19.737  29.624  14.783
25729W        W92797  36.082  23.718   1.874
25730W        W92798   0.391  11.774   0.365
25731W        W92799   5.863  19.634  13.880
25732W        W92800  39.872  28.957  10.513
25733W        W92801  29.094  31.456   3.648
25734W        W92802  28.544  20.757  12.967
25735W        W92803  38.448  24.207  12.409
25736W        W92804  21.595  20.559  14.009
25737W        W92805  28.612  24.536  11.440
25738W        W92806  14.317  28.986   1.398
25739W        W92807   6.688  10.223   1.431
25740W        W92808  37.375  23.551   0.795
25741W        W92809  21.719  31.986   0.929
25742W        W92810  19.579  26.031  10.531
25743W        W92811  36.967   8.881   2.868
25744W        W92812   4.731   0.932  12.381
25745W        W92813  20.632  16.643  11.006
25746W        W92814  41.855  19.755   2.779
25747W        W92815  28.152   6.215  12.987
25748W        W92816  39.850  26.189  14.338
25749W        W92817  32.590  41.415   4.307
25750W        W92818  22.617   9.284  10.632
25751W        W92819  11.767  17.125   0.377
25752W        W92820  10.294  21.054  14.863
25753W        W92821   4.772  16.627   3.276
25754W        W92822  40.991   2.774   4.722
25755W        W92823  22.501  39.815   2.315
25756W        W92824  16.097  12.202  14.479
25757W        W92825   9.274  39.039   0.928
25758W        W92826  33.896  43.808  14.961
25759W        W92827  12.784  18.592   3.171
25760W        W92828  35.997  18.717  12.395
25761W        W92829   9.232  28.110   0.755
25762W        W92830   1.294  35.906  10.989
25763W        W92831  41.995  35.422  13.924
25764W        W92832   7.844  33.450  13.464
25765W        W92833  29.630  17.199  12.907
25766W        W92834  21.721  42.333   5.161
25767W        W92835  16.603  20.039   0.371
25768W        W92836  29.002   7.902   1.876
25769W        W92837   6.293  28.125   4.227
25770W        W92838  19.751  30.922  14.847
25771W        W92839  11.829  13.215  14.013
25772W        W92840   0.439  16.170  10.995
25773W        W92841   5.726  43.421   2.849
25774W        W92842  16.101  27.577  13.059
25775W        W92843  39.475  29.078  13.546
25776W        W92844  37.465  36.433  14.454
25777W        W92845  28.629   4.861   1.368
25778W        W92846  19.773  36.388  11.938
25779W        W92847  42.877  43.973   0.726
25780W        W92848  19.160  27.454  14.451
25781W        W92849  43.852  36.878  11.868
25782W        W92850  39.932   1.327  14.914
25783W        W92851  41.921   4.749  11.489
25784W        W92852  29.538  42.926  14.988
25785W        W92853  28.932  43.787   4.790
25786W        W92854  42.800  29.945  11.456
25787W        W92855  14.786  18.777   4.325
25788W        W92856  34.435  42.795   2.693
25789W        W92857  27.010  26.596  11.070
25790W        W92858  16.575  21.611  11.391
25791W        W92859   8.770  15.792  12.832
25792W        W92860   8.733   5.907   3.705
25793W        W92861  20.600  20.736   0.848
25794W        W92862   6.902  14.812  11.550
25795W        W92863  25.599  32.587   0.478
25796W        W92864  44.812   9.317   3.726
25797W        W92865  31.961  26.466   2.742
25798W        W92866  31.577  24.605  14.362
25799W        W92867  16.623  42.363   3.330
25800W        W92868  17.633  38.922   3.291
25801W        W92869  40.411   6.267  13.331
25802W        W92870  10.642  29.481   4.772
25803W        W92871  24.019  10.176   4.622
25804W        W92872   5.331  40.881   1.906
25805W        W92873  15.204  31.475  13.468
25806W        W92874  21.593  14.111   9.972
25807W        W92875  30.056  23.589   4.600
25808W        W92876  32.991  22.514  10.609
25809W        W92877  39.489  29.022   3.871
25810W        W92878  11.771  13.256   1.912
25811W        W92879  20.189  33.427   1.413
25812W        W92880   2.955  22.193  11.861
25813W        W92881  34.497  11.150  13.493
25814W        W92882  42.794  22.211  13.423
25815W        W92883  27.523  30.470   1.904
25816W        W92884  39.397  24.675   0.470
25817W        W92885  34.870  33.596   5.216
25818W        W92886  33.459  24.209  13.513
25819W        W92887  15.693  37.895  12.506
25820W        W92888  22.621   9.801  14.373
25821W        W92889  27.190  43.768  11.529
25822W        W92890  42.992  13.106  14.931
25823W        W92891  14.824   2.900   4.194
25824W        W92892   1.469  40.491  10.927
25825W        W92893  28.475   1.938   1.704
25826W        W92894  24.684  17.741  11.018
25827W        W92895  22.170  31.604  11.888
25828W        W92896  41.792  28.133  14.891
25829W        W92897   5.324  39.415  13.405
25830W        W92898  10.378  14.704   4.700
25831W        W92899   3.442  12.771   3.177
25832W        W92900  14.268  44.010   0.322
25833W        W92901   1.352  34.062  14.940
25834W        W92902  41.874  20.591  11.555
25835W        W92903  15.800  24.166  11.982
25836W        W92904  33.612  42.868  12.515
25837W        W92905  42.885  13.170   1.741
25838W        W92906  28.096  34.432   3.343
25839W        W92907   6.886  26.638  11.432
25840W        W92908  16.713   4.361  14.874
25841W        W92909  41.467  18.255  14.806
25842W        W92910  11.180  26.018  11.603
25843W        W92911  13.262  38.538   0.376
25844W        W92912   6.250  37.029  13.452
25845W        W92913  18.210  18.616   2.830
25846W        W92914  44.431  43.766  10.155
25847W        W92915  19.535   3.241  11.554
25848W        W92916  27.689  13.113  13.006
25849W        W92917  33.904  22.715  14.399
25850W        W92918  21.512  28.145   4.187
25851W        W92919  27.560  22.694  12.415
25852W        W92920  37.002  32.009   2.836
25853W        W92921   7.699  14.332  13.518
25854W        W92922  29.604  38.335   0.447
25855W        W92923  39.317  37.848   0.885
25856W        W92924  36.452  25.209  12.497
25857W        W92925   5.808  20.111  11.923
25858W        W92926  26.103  41.926   1.282
25859W        W92927   8.279  44.397   0.764
25860W        W92928  38.990  38.512  12.861
25861W        W92929  17.638  28.050  11.487
25862W        W92930  30.053  29.576  14.515
25863W        W92931  27.181   0.908  13.018
25864W        W92932  27.956  30.422  14.351
25865W        W92933   1.891   1.274  13.485
25866W        W92934  25.468   7.344   4.247
25867W        W92935  14.279  12.323  12.009
25868W        W92936  35.414  31.416   0.796
25869W        W92937  20.127  40.528   9.451
25870W        W92938  34.110  14.606  14.773
25871W        W92939  22.559  30.513   0.365
25872W        W92940  15.116   2.787  10.623
25873W        W92941  24.577   6.386   1.419
25874W        W92942  42.352  14.184   2.898
25875W        W92943  38.991  24.484   1.305
25876W        W92944  40.841  21.576   0.966
25877W        W92945   1.810  40.440  14.377
25878W        W92946  34.384  39.980  12.381
25879W        W92947  18.700  21.254   5.221
25880W        W92948  24.143  19.594   9.923
25881W        W92949  13.744   1.779   4.825
25882W        W92950  42.384  42.385  11.566
25883W        W92951  33.908  31.116   3.795
25884W        W92952  27.989  40.322   4.137
25885W        W92953  37.451   1.930  11.447
25886W        W92954   5.206   9.789  14.294
25887W        W92955  12.219  23.551   3.335
25888W        W92956  19.131   3.282   0.824
25889W        W92957  10.253  11.826   2.383
25890W        W92958   3.790  38.457   3.867
25891W        W92959  39.823  19.679  11.413
25892W        W92960   4.740   4.844  11.002
25893W        W92961  40.310  27.072   4.155
25894W        W92962  43.281  13.316  13.861
25895W        W92963  25.495  18.155  12.546
25896W        W92964  42.358  23.522   2.378
25897W        W92965  16.670  13.322   1.849
25898W        W92966   4.876   0.312  13.870
25899W        W92967  12.852   0.295  11.541
25900W        W92968  43.011   9.884   1.257
25901W        W92969  37.472   1.741  13.487
25902W        W92970  27.146  41.945   1.701
25903W        W92971   2.321   8.828  13.911
25904W        W92972  26.700  23.585   0.379
25905W        W92973  15.174  41.437  14.839
25906W        W92974  13.308  22.676  14.422
25907W        W92975  44.897   3.772   0.929
25908W        W92976  43.904  33.923  14.797
25909W        W92977  12.145  24.220   2.223
25910W        W92978   7.713  31.141   0.880
25911W        W92979   0.290  29.080  12.027
25912W        W92980  38.524  37.842  11.597
25913W        W92981  19.665   1.859  14.909
25914W        W92982  42.401  26.200  11.431
25915W        W92983   6.870  40.450  12.856
25916W        W92984   5.239  28.671   2.324
25917W        W92985  31.142  17.219  11.932
25918W        W92986   8.809  15.642   1.346
25919W        W92987  15.098  15.809   4.227
25920W        W92988   2.939   9.758  10.567
25921W        W92989  21.080  32.138  10.019
25922W        W92990   7.364  29.644  14.465
25923W        W92991  22.226  31.580   2.206
25924W        W92992  43.968   6.839   3.222
25925W        W92993  28.042  40.824  10.641
25926W        W92994  13.662  40.954   1.302
25927W        W92995  32.487  15.685  11.071
25928W        W92996  34.109  30.014   0.286
25929W        W92997  35.100  24.549  14.836
25930W        W92998   3.790  20.236  10.568
25931W        W92999  20.579  20.531  13.887
25932W        W93000  27.010  17.184  12.341
25933W        W93001  20.181   1.784  13.332
25934W        W93002  42.012  13.222   2.234
25935W        W93003  25.971  41.534  14.876
25936W        W93004  39.019   7.828  14.799
25937W        W93005  44.315  18.253   4.726
25938W        W93006  33.424  38.352  13.982
25939W        W93007   8.826  38.491  12.882
25940W        W93008  30.548  18.171   0.264
25941W        W93009   4.443  33.416  11.002
25942W        W93010  36.572  28.536  12.434
25943W        W93011  20.727  37.421   1.909
25944W        W93012  41.850  14.740  13.008
25945W        W93013  38.379   3.767   1.930
25946W        W93014   9.814  28.069   4.745
25947W        W93015  17.770   1.425  13.842
25948W        W93016  32.915  26.117   2.737
25949W        W93017  24.022  15.645  10.895
25950W        W93018   7.244   9.346  12.490
25951W        W93019  11.140  14.761   3.172
25952W        W93020   2.782   8.296   4.706
25953W        W93021  23.017   5.372  12.008
25954W        W93022  12.781  28.082   1.307
25955W        W93023  35.550   0.464  12.874
25956W        W93024   8.205  21.221  10.990
25957W        W93025  27.082  41.524   3.266
25958W        W93026  12.217  27.966  12.388
25959W        W93027  39.379  20.637  14.503
25960W        W93028   6.299  22.698   2.245
25961W        W93029  23.711   3.934  13.322
25962W        W93030  40.860  39.349   0.776
25963W        W93031   5.320  36.034   0.816
25964W        W93032   3.778  27.487  14.017
25965W        W93033  20.097  42.393   0.777
25966W        W93034  33.918  16.781   4.282
25967W        W93035   3.943   3.824  11.482
25968W        W93036  20.682  11.174   1.813
25969W        W93037  42.404  44.819   3.688
25970W        W93038   1.315   8.670  13.422
25971W        W93039  10.773  40.542  10.507
25972W        W93040  14.703  34.042   4.218
25973W        W93041  38.396  18.182  14.417
25974W        W93042   3.373  12.827  10.963
25975W        W93043  43.779  27.153  13.320
25976W        W93044   3.876  26.088  12.471
25977W        W93045   4.913  32.470  14.397
25978W        W93046  40.040   5.880   4.165
25979W        W93047  18.545  21.189   2.779
25980W        W93048  27.000   0.270  14.454
25981W        W93049  40.905  40.427   4.323
25982W        W93050  23.701  42.352   1.394
25983W        W93051  10.170  40.476  12.003
25984W        W93052  44.885  19.703  11.968
25985W        W93053  12.214  42.973   5.318
25986W        W93054  39.844   5.304  11.907
25987W        W93055   2.429  31.917  11.576
25988W        W93056  30.114   1.363   4.166
25989W        W93057  19.141  36.375  13.021
25990W        W93058  34.592  43.907   0.847
25991W        W93059  28.140  12.610  13.474
25992W        W93060  38.036  43.455  10.620
25993W        W93061  39.495   7.223   2.309
25994W        W93062  10.280  17.716   1.926
25995W        W93063  23.033  17.595  11.068
25996W        W93064  37.542  35.569  10.627
25997W        W93065  10.253  24.606  13.464
25998W        W93066  33.537  24.006   3.286
25999W        W93067  42.307  27.048  12.458
26000W        W93068  40.023  10.756   0.352
26001W        W93069  20.670  24.694   3.698
26002W        W93070  31.428   6.758   3.731
26003W        W93071   1.293   8.797  10.899
26004W        W93072  21.059  33.556   0.405
26005W        W93073  19.263  12.688  11.967
26006W        W93074  14.188  29.559   0.835
26007W        W93075  23.185  40.810   0.955
26008W        W93076  30.426   0.312   4.658
26009W        W93077  32.577  34.595  13.937
26010W        W93078  10.669  20.645  10.988
26011W        W93079  33.574  42.456   2.803
26012W        W93080  33.596  28.508  12.530
26013W        W93081  34.426  22.231  13.369
26014W        W93082  44.365  26.477   3.758
26015W        W93083  38.951   9.304  13.436
26016W        W93084   3.786  37.845  12.492
26017W        W93085  25.123  28.441   4.189
26018W        W93086  40.345  12.697   1.331
26019W        W93087  32.610  14.252  11.975
26020W        W93088  33.075  13.202  12.548
26021W        W93089  35.547  29.079   4.352
26022W        W93090  33.030  21.635   3.270
26023W        W93091  13.608  27.984   4.246
26024W        W93092  23.628  25.560  11.924
26025W        W93093  10.853  20.747   0.272
26026W        W93094  17.567  28.650   3.742
26027W        W93095  17.650  40.491  14.344
26028W        W93096   3.228   4.733  13.813
26029W        W93097  33.925  38.978  10.987
26030W        W93098   9.859  18.724   3.709
26031W        W93099  37.053  38.346  12.064
26032W        W93100   2.304  13.188   4.710
26033W        W93101  24.103   8.183  14.321
26034W        W93102  19.170  37.401  14.976
26035W        W93103  37.966   7.284   2.688
26036W        W93104   3.759  17.293  13.384
26037W        W93105   7.178  37.434  14.316
26038W        W93106  16.619  13.137   0.441
26039W        W93107   1.969  19.117  11.033
26040W        W93108   6.211  17.225  11.905
26041W        W93109   4.440  22.180   0.370
26042W        W93110  41.422   8.171  10.628
26043W        W93111  26.951  18.630   3.207
26044W        W93112  11.262  31.521   3.682
26045W        W93113  42.423  11.739  11.916
26046W        W93114  19.171   1.943  10.519
26047W        W93115  10.222  18.125   3.268
26048W        W93116   0.830  44.426  10.021
26049W        W93117  28.981  24.653   2.386
26050W        W93118  23.665  23.213  13.795
26051W        W93119  38.953  44.347  12.909
26052W        W93120  10.383   2.376   3.777
26053W        W93121  24.626  25.516  14.833
26054W        W93122  32.075  42.016  14.937
26055W        W93123  31.078   1.383   3.794
26056W        W93124  42.878   7.774   2.667
26057W        W93125  44.496  38.009   2.184
26058W        W93126  38.871  19.043  12.912
26059W        W93127  18.279   5.343   3.297
26060W        W93128  14.250   8.405   1.362
26061W        W93129  11.280  44.465   4.166
26062W        W93130  21.079  42.485  13.928
26063W        W93131  35.063  16.680   3.318
26064W        W93132   5.402  31.488  14.344
26065W        W93133   5.416  41.405  10.618
26066W        W93134   5.783  44.814   2.256
26067W        W93135  29.642  40.377  13.052
26068W        W93136  32.466  35.997   1.809
26069W        W93137   4.816  24.026   1.866
26070W        W93138   8.890  24.722   1.238
26071W        W93139   3.925  27.609   3.217
26072W        W93140  26.112  29.070   4.636
26073W        W93141   7.391   1.464  12.981
26074W        W93142   4.318  23.193  11.527
26075W        W93143  44.764  33.612  13.809
26076W        W93144   5.866  25.013  14.334
26077W        W93145  19.745  37.083  12.052
26078W        W93146  40.321  39.856   0.310
26079W        W93147   0.403  40.369  11.436
26080W        W93148   8.250  17.156   1.314
26081W        W93149  17.737  26.661   1.764
26082W        W93150   2.231  11.780   1.705
26083W        W93151  39.401  40.884  10.958
26084W        W93152  13.679   9.663   2.190
26085W        W93153  37.519   3.924   0.346
26086W        W93154  20.134  14.110  13.495
26087W        W93155  12.727  12.637  14.478
26088W        W93156  28.666  27.516  11.561
26089W        W93157  25.102  30.047  11.457
26090W        W93158  20.221  36.878   2.796
26091W        W93159  20.273  43.503  10.987
26092W        W93160   0.754  44.433  13.459
26093W        W93161  38.402  33.875   4.137
26094W        W93162  21.641  19.649  12.519
26095W        W93163   7.361   7.677  14.336
26096W        W93164  15.721  11.193  14.461
26097W        W93165  40.530  23.176   2.239
26098W        W93166  14.639  44.280  11.582
26099W        W93167  32.422   7.850   2.784
26100W        W93168  21.633  29.047   3.274
26101W        W93169  10.765  32.896  13.344
26102W        W93170  17.134  37.953   3.758
26103W        W93171  26.980  39.808   2.818
26104W        W93172  35.991  26.062  10.566
26105W        W93173  22.566  22.595   1.812
26106W        W93174  29.501  27.592   1.788
26107W        W93175   8.290  10.767   2.359
26108W        W93176  32.412  30.979  11.067
26109W        W93177  25.504  28.673   3.320
26110W        W93178   1.955  18.296   4.296
26111W        W93179   2.770  17.179   2.758
26112W        W93180  30.005  14.817  11.916
26113W        W93181  44.910   4.401  11.881
26114W        W93182   8.888  24.492   3.761
26115W        W93183  26.017  42.951   1.718
26116W        W93184  10.755  10.293   2.824
26117W        W93185  28.555  19.667  11.953
26118W        W93186  26.116  32.635  12.851
26119W        W93187  43.886  28.557   2.203
26120W        W93188  20.652   5.699  14.358
26121W        W93189   8.848   4.374  14.392
26122W        W93190  15.109   3.376   4.837
26123W        W93191  24.227  39.532   4.151
26124W        W93192  16.656  27.103   3.209
26125W        W93193  33.983  43.847  13.978
26126W        W93194  21.714  41.491   3.790
26127W        W93195   1.341  35.501   5.639
26128W        W93196  42.303   0.471  14.320
26129W        W93197  26.581  16.101   1.331
26130W        W93198  28.515  26.195  13.388
26131W        W93199  16.694  38.984  11.032
26132W        W93200   2.254   1.441   4.755
26133W        W93201  42.033  14.667   3.769
26134W        W93202  21.656   1.297   2.255
26135W        W93203  20.710  28.680  14.303
26136W        W93204  22.541  20.125   3.203
26137W        W93205   5.197  26.079   0.759
26138W        W93206  36.988  27.556  12.487
26139W        W93207  31.947  12.141   4.351
26140W        W93208  19.103  40.548  11.995
26141W        W93209  35.513  21.555   4.329
26142W        W93210  12.839  16.808   1.428
26143W        W93211  36.062  36.850   1.427
26144W        W93212  31.568   2.780  10.979
26145W        W93213  19.090  28.670  12.465
26146W        W93214  28.011  36.929   1.779
26147W        W93215  19.648  44.790  13.001
26148W        W93216   6.714  29.977   0.471
26149W        W93217  43.888  27.989   4.719
26150W        W93218  23.058  26.687  13.956
26151W        W93219   5.203  41.491   1.442
26152W        W93220  25.496   2.349  12.359
26153W        W93221   6.894   3.306   0.450
26154W        W93222   8.751  17.114  10.452
26155W        W93223   9.178  16.210   0.728
26156W        W93224  15.117   6.214  13.544
26157W        W93225  21.174  13.781  13.402
26158W        W93226   4.390   7.826  12.498
26159W        W93227   8.836  30.017  12.092
26160W        W93228   7.215  44.968   3.283
26161W        W93229  40.330  29.611  11.452
26162W        W93230  26.659  31.130  11.375
26163W        W93231  13.820  33.537  12.051
26164W        W93232  32.486  33.401   1.834
26165W        W93233  20.185  20.184   0.823
26166W        W93234  41.405  27.595  13.803
26167W        W93235  10.252  35.430   1.357
26168W        W93236  37.948  22.085  14.959
26169W        W93237  22.629  24.012   0.330
26170W        W93238  20.267  36.048   4.734
26171W        W93239  40.446  36.497   4.627
26172W        W93240  27.119   4.813   0.265
26173W        W93241   6.782  15.113  11.501
26174W        W93242  44.968  31.584   2.740
26175W        W93243  39.054  37.000  14.791
26176W        W93244  14.265  29.111  13.935
26177W        W93245   8.853  20.572  11.587
26178W        W93246   7.783  38.854   3.840
26179W        W93247  43.493  42.778  14.941
26180W        W93248  25.160  13.327   4.797
26181W        W93249   3.316  37.035   0.473
26182W        W93250  19.182   2.813  13.530
26183W        W93251  40.529  31.099  13.825
26184W        W93252  17.069  23.170  14.384
26185W        W93253   7.176  32.124  10.443
26186W        W93254  42.804  33.053  13.873
26187W        W93255  42.908   8.199  14.832
26188W        W93256  15.824  29.151   4.255
26189W        W93257   0.332  24.483  11.480
26190W        W93258  24.160  44.000  11.549
26191W        W93259  30.978   6.190  12.479
26192W        W93260  32.609  11.861   1.908
26193W        W93261  27.182   3.228   1.825
26194W        W93262  21.087  26.107  12.991
26195W        W93263  30.123  37.035  12.579
26196W        W93264   2.910  43.505   4.348
26197W        W93265  31.450  35.956   0.813
26198W        W93266  31.088  29.562   0.394
26199W        W93267  15.155  11.310  10.446
26200W        W93268  41.401   0.880  10.526
26201W        W93269   7.295  14.732  14.312
26202W        W93270  37.403   4.803  14.310
26203W        W93271  36.572   5.302   0.857
26204W        W93272  21.637  37.395  13.369
26205W        W93273  30.580  38.893  13.014
26206W        W93274  21.017  13.709  12.392
26207W        W93275  32.553  23.601  11.600
26208W        W93276   0.832  34.101  11.577
26209W        W93277  43.353   7.910  14.797
26210W        W93278  42.867  10.637  11.409
26211W        W93279   1.363  27.990   4.649
26212W        W93280   3.900  22.229  13.433
26213W        W93281  34.564  15.215  14.287
26214W        W93282   6.345  38.500   2.347
26215W        W93283  20.122  31.008  10.984
26216W        W93284  36.442  37.500  13.409
26217W        W93285  20.262  30.452  12.482
26218W        W93286   9.815  15.244  12.893
26219W        W93287  24.088  39.063   0.762
26220W        W93288  17.209  19.573   1.254
26221W        W93289   2.946  13.283   3.202
26222W        W93290  33.983   0.771  11.875
26223W        W93291  29.647  28.938  14.433
26224W        W93292   7.859  37.007   3.871
26225W        W93293  18.609  38.844   3.147
26226W        W93294  29.500   3.874   3.377
26227W        W93295   1.936  33.401   0.331
26228W        W93296  11.293  23.239  12.970
26229W        W93297   2.748  21.219   3.216
26230W        W93298  29.924  18.161   4.295
26231W        W93299  11.714  15.710  12.023
26232W        W93300  13.791   4.860   3.730
26233W        W93301  16.214  32.477  13.874
26234W        W93302  25.695   7.368  13.436
26235W        W93303  15.807  34.490   3.274
26236W        W93304  11.186  30.483  13.426
26237W        W93305  29.921   8.706   2.355
26238W        W93306  20.067  22.659  13.867
26239W        W93307  32.004  29.062   1.247
26240W        W93308  26.666  30.611   0.321
26241W        W93309  23.589  25.175  10.890
26242W        W93310  22.679  22.641  11.575
26243W        W93311  44.874  38.982   1.386
26244W        W93312  13.157  12.845  10.447
26245W        W93313   5.725   2.324  12.049
26246W        W93314   4.771  30.149   2.902
26247W        W93315  43.767   0.853   2.833
26248W        W93316  36.887   1.807  14.988
26249W        W93317  44.413  40.996  11.929
26250W        W93318  10.262  33.879  14.790
26251W        W93319  17.206  15.156  11.405
26252W        W93320  11.146  16.146  14.470
26253W        W93321  35.880  34.999  12.349
26254W        W93322  21.714  44.916  10.422
26255W        W93323  38.075  39.881   2.381
26256W        W93324  36.971  26.951   2.721
26257W        W93325  18.081  19.278   0.908
26258W        W93326  23.674  21.246   4.302
26259W        W93327  44.475  11.281  12.408
26260W        W93328  29.088  32.509  12.571
26261W        W93329  13.729  26.587  12.567
26262W        W93330  42.954  41.009   0.351
26263W        W93331  27.665  17.151   1.377
26264W        W93332  17.695  11.683   1.828
26265W        W93333   5.263  33.534  12.931
26266W        W93334  36.958  33.970  12.052
26267W        W93335  42.511  27.683   3.296
26268W        W93336  12.722   2.286   1.908
26269W        W93337  28.937  40.854  14.848
26270W        W93338  24.585  19.750   3.222
26271W        W93339   5.240  25.113  14.348
26272W        W93340  10.368  26.029  13.945
26273W        W93341  29.163  30.094   4.216
26274W        W93342  16.304  22.203  13.512
26275W        W93343  39.495  18.678  13.047
26276W        W93344   4.932  17.161   0.879
26277W        W93345  11.215  16.632  14.502
26278W        W93346  44.410  24.043  13.991
26279W        W93347  14.671  27.672   0.450
26280W        W93348  33.515  28.590   4.817
26281W        W93349  23.570  18.740   4.331
26282W        W93350  41.972  18.194   3.685
26283W        W93351  43.984  43.378   3.711
26284W        W93352   1.306  13.757  13.791
26285W        W93353  13.271  30.070  14.482
26286W        W93354  38.000  39.516  13.509
26287W        W93355  42.474  15.145  10.909
26288W        W93356  32.041  19.576   2.309
26289W        W93357  11.622  34.600  10.134
26290W        W93358  22.163  33.532   4.806
26291W        W93359  26.039  40.454  13.006
26292W        W93360  15.784  12.695  10.105
26293W        W93361  21.124  32.965   4.282
26294W        W93362  21.599  29.079  14.797
26295W        W93363  24.016  12.715   4.215
26296W        W93364   3.814  35.024   0.789
26297W        W93365   2.469  28.453   4.735
26298W        W93366  16.649  42.838  14.927
26299W        W93367  10.142  10.190   2.803
26300W        W93368  33.563  24.709   0.871
26301W        W93369  28.437  13.154  14.938
26302W        W93370  33.560  11.845  10.641
26303W        W93371  24.149  29.603  10.901
26304W        W93372  13.816  44.439  12.530
26305W        W93373  31.984  12.806  11.453
26306W        W93374   4.405  44.427  10.057
26307W        W93375  12.357   4.792  12.415
26308W        W93376  11.248  16.694   4.816
26309W        W93377  36.847  32.489  13.873
26310W        W93378  28.968  30.052   1.225
26311W        W93379  23.583  26.182   2.303
26312W        W93380  43.892  17.773   0.732
26313W        W93381  30.927  24.051   4.795
26314W        W93382  18.690  43.990  11.523
26315W        W93383   1.740  37.886   0.383
26316W        W93384   6.867  10.232  11.989
26317W        W93385   9.333  17.099   2.698
26318W        W93386  32.923  33.071  12.926
26319W        W93387  42.939  25.662  13.506
26320W        W93388  21.037   1.909   3.243
26321W        W93389  39.359  27.961  10.961
26322W        W93390  43.509  37.870   0.428
26323W        W93391  27.535  37.421   4.620
26324W        W93392  19.599  44.798   3.153
26325W        W93393  13.632  30.438   1.876
26326W        W93394   5.724  40.989  13.325
26327W        W93395  31.938   3.737   0.886
26328W        W93396  25.124  28.970  13.402
26329W        W93397  30.089  31.486  11.098
26330W        W93398  11.200   9.733   3.719
26331W        W93399  41.841   1.882  12.429
26332W        W93400  35.444  36.024   3.209
26333W        W93401  17.216  17.580   0.411
26334W        W93402  24.566   9.786   0.354
26335W        W93403  35.024  25.654  12.495
26336W        W93404  36.935   0.867   3.833
26337W        W93405   4.303  20.268  14.858
26338W        W93406  19.600  24.063   2.756
26339W        W93407  43.952  12.319  14.434
26340W        W93408  17.168  10.191  14.446
26341W        W93409  13.716  12.655  10.527
26342W        W93410  41.515   3.838   1.780
26343W        W93411  40.951  14.173   0.943
26344W        W93412  29.136  10.826  10.445
26345W        W93413  44.950  26.493  10.619
26346W        W93414  11.727  11.688   3.170
26347W        W93415  10.179  39.494  10.900
26348W        W93416  29.135   7.710   4.282
26349W        W93417   8.193   3.748   1.260
26350W        W93418  16.722   6.749   1.836
26351W        W93419  11.649  28.489  13.499
26352W        W93420   4.781  34.485   2.189
26353W        W93421  13.334  10.850   1.854
26354W        W93422  16.293  36.355  12.990
26355W        W93423  18.620  23.706   0.903
26356W        W93424  36.851  32.550   2.667
26357W        W93425  26.072  14.699  12.453
26358W        W93426  28.442   1.868   4.645
26359W        W93427  23.057  34.372   5.107
26360W        W93428  23.177  44.300   2.850
26361W        W93429   6.279  18.726  14.312
26362W        W93430  39.906   2.333   2.244
26363W        W93431  32.448  25.175   3.250
26364W        W93432  21.587  18.790  13.416
26365W        W93433  19.107  36.059   0.784
26366W        W93434  22.695  35.584   4.744
26367W        W93435   7.856  42.514   2.898
26368W        W93436   4.256  27.942   2.194
26369W        W93437  28.522  43.951   1.412
26370W        W93438  15.606  25.581   2.795
26371W        W93439  22.128  12.736   3.365
26372W        W93440   9.767   1.431   2.271
26373W        W93441  38.961  14.669   3.353
26374W        W93442  32.940  42.989   1.249
26375W        W93443  39.063  29.986  13.003
26376W        W93444   7.768  14.267   4.824
26377W        W93445  24.101  27.990  12.498
26378W        W93446  41.360  39.529  11.511
26379W        W93447  18.686  21.734   0.397
26380W        W93448  34.092  21.222   0.317
26381W        W93449  30.914  29.529  11.521
26382W        W93450  43.895  17.568   2.225
26383W        W93451  16.647  23.655   9.929
26384W        W93452   0.762  21.710   3.337
26385W        W93453  41.467  24.123   4.138
26386W        W93454   5.321   7.848  12.354
26387W        W93455  35.459   5.766   3.786
26388W        W93456  32.449  33.438   2.315
26389W        W93457  22.088  32.985   3.656
26390W        W93458  13.704   0.807  12.487
26391W        W93459   5.410  10.665   2.735
26392W        W93460   3.764  27.020   0.368
26393W        W93461  27.546  37.854   3.774
26394W        W93462   4.905   3.793  13.448
26395W        W93463   5.701  22.582  12.439
26396W        W93464  20.681   4.702   0.776
26397W        W93465  23.209  27.464  14.874
26398W        W93466   7.209  13.294   4.806
26399W        W93467  18.213  11.751   1.805
26400W        W93468  14.590  26.129   2.804
26401W        W93469  44.967   7.872  12.462
26402W        W93470  10.736  16.132   0.261
26403W        W93471  28.480  36.463  10.430
26404W        W93472   6.754  27.136   2.735
26405W        W93473  29.137  23.026   0.440
26406W        W93474   6.791   8.743   5.101
26407W        W93475   7.275  26.610  10.979
26408W        W93476  27.481  27.025  10.618
26409W        W93477  16.611  31.994  13.993
26410W        W93478   1.764   1.319  12.420
26411W        W93479  25.529  32.083   3.181
26412W        W93480  30.930  13.201   0.471
26413W        W93481   5.414  10.312   4.688
26414W        W93482  12.220   7.304  12.824
26415W        W93483  17.247  23.021   1.901
26416W        W93484  43.355   8.304  12.090
26417W        W93485  40.322  32.422   1.911
26418W        W93486  21.189   7.782   3.746
26419W        W93487   3.897  27.134   1.875
26420W        W93488   9.250  23.702   2.225
26421W        W93489  44.462  29.970   0.861
26422W        W93490   0.477  18.233  10.553
26423W        W93491  43.948  33.555  11.394
26424W        W93492  16.126  15.223  14.363
26425W        W93493  10.331  40.983  12.065
26426W        W93494  28.052  18.073  10.617
26427W        W93495   2.811  21.562  11.507
26428W        W93496  43.977  20.261  13.453
26429W        W93497   9.270  15.784  12.887
26430W        W93498  15.808   9.806  10.433
26431W        W93499  33.447  28.934   2.323
26432W        W93500  31.935  20.127   2.330
26433W        W93501  10.241  44.796  13.461
26434W        W93502  10.305  24.155   4.688
26435W        W93503  12.192  41.912   3.250
26436W        W93504  34.083  32.529   2.766
26437W        W93505   5.889  30.590   1.393
26438W        W93506  29.133  23.059   2.865
26439W        W93507  13.701  33.414  14.480
26440W        W93508  14.645  14.675  11.441
26441W        W93509   3.337  40.342   4.190
26442W        W93510  16.610  22.596   1.749
26443W        W93511  37.933  13.108   2.699
26444W        W93512  18.569  20.268   3.195
26445W        W93513  17.646   0.762   2.367
26446W        W93514  32.579  19.602  14.993
26447W        W93515   7.196   0.804  12.845
26448W        W93516   1.284  12.361   2.750
26449W        W93517  41.356   3.888  14.993
26450W        W93518  31.014  44.007  11.919
26451W        W93519  40.340  40.358  11.021
26452W        W93520  33.599  35.909   1.845
26453W        W93521  11.711  16.576   2.696
26454W        W93522  37.492  22.594  14.281
26455W        W93523  43.932   2.410  14.774
26456W        W93524   7.713  20.652   3.858
26457W        W93525  42.364  32.628  11.060
26458W        W93526   8.394  16.644   3.299
26459W        W93527   9.197  38.417  12.897
26460W        W93528  13.349   3.812   2.776
26461W        W93529  38.422  36.499   4.266
26462W        W93530  11.828  43.434   1.869
26463W        W93531  21.188  41.475  10.976
26464W        W93532  32.509  26.600  12.922
26465W        W93533  41.485   1.972   0.917
26466W        W93534  31.122  44.347  10.018
26467W        W93535  20.090  29.537   5.702
26468W        W93536  42.313  15.609   0.447
26469W        W93537  39.499   8.278   1.808
26470W        W93538   2.799  16.682  10.405
26471W        W93539  25.476  37.346  13.432
26472W        W93540  33.381  31.016   2.313
26473W        W93541  28.510  44.769   1.297
26474W        W93542  19.556  15.299   1.308
26475W        W93543   7.249  38.864   2.198
26476W        W93544  29.957   8.756  11.029
26477W        W93545  14.785  34.488   4.699
26478W        W93546  44.404  29.534  13.911
26479W        W93547  15.733   1.829  11.476
26480W        W93548  39.382  17.782   4.694
26481W        W93549  26.522  26.486   4.275
26482W        W93550  25.499   7.727  12.887
26483W        W93551  31.952   0.761  10.907
26484W        W93552  18.748  37.964  12.547
26485W        W93553  10.171  35.964  13.901
26486W        W93554  25.972  21.195   0.735
26487W        W93555  36.081  20.701   2.412
26488W        W93556  42.441  15.807   3.279
26489W        W93557  31.577  16.124   1.371
26490W        W93558  13.642  24.015   0.726
26491W        W93559  32.505  27.162  11.402
26492W        W93560   3.437  28.480  12.028
26493W        W93561   1.283   1.407  14.801
26494W        W93562  43.335  16.294   0.847
26495W        W93563   1.312  44.861   1.874
26496W        W93564  22.550  23.074   3.780
26497W        W93565   3.923  34.888  10.441
26498W        W93566   9.691  38.983  14.930
26499W        W93567   9.655  18.079   0.430
26500W        W93568  40.434   5.366  13.352
26501W        W93569  31.445  29.066   4.204
26502W        W93570  41.900  37.972  13.878
26503W        W93571   1.473  37.422  13.000
26504W        W93572  40.871  23.511  13.049
26505W        W93573   1.956  23.731  13.387
26506W        W93574  27.191  32.437   0.447
26507W        W93575  19.672  17.721   4.813
26508W        W93576  24.496  17.240   0.957
26509W        W93577  43.875  12.286  10.625
26510W        W93578  22.093  33.948   3.687
26511W        W93579  25.173  14.621   2.719
26512W        W93580  38.361  44.287  12.368
26513W        W93581  26.643  34.443   2.262
26514W        W93582   2.818  44.760  11.983
26515W        W93583  30.611  23.544  14.438
26516W        W93584  41.388   6.767   2.237
26517W        W93585  33.911  17.801  11.986
26518W        W93586  35.076   2.808  14.402
26519W        W93587  37.840   5.754   0.394
26520W        W93588   8.683  21.264   4.279
26521W        W93589   3.424  44.982  13.028
26522W        W93590  12.315   8.789   1.891
26523W        W93591  16.113  13.833   2.720
26524W        W93592  34.563  36.013  14.486
26525W        W93593  32.505  24.151  11.003
26526W        W93594   5.865  26.553   4.781
26527W        W93595  36.910  41.912  13.478
26528W        W93596  14.245  19.558  12.531
26529W        W93597  11.154  29.424  11.383
26530W        W93598  32.058  36.589   1.752
26531W        W93599  32.395  16.263  10.517
26532W        W93600   7.713   3.343  11.866
26533W        W93601  41.312  18.698  11.986
26534W        W93602  20.214  37.952   3.710
26535W        W93603  16.124  24.138   5.144
26536W        W93604  38.844  12.711  10.487
26537W        W93605   1.295   6.811  13.898
26538W        W93606  26.536  40.985  11.490
26539W        W93607  13.641  24.640  12.516
26540W        W93608   4.924   8.695  12.422
26541W        W93609  35.384  24.487   0.778
26542W        W93610  11.847  29.023  14.493
26543W        W93611  26.994  40.500   2.727
26544W        W93612  25.006   9.262  10.581
26545W        W93613   0.472  28.132  12.538
26546W        W93614  22.542  13.788  11.406
26547W        W93615  30.417  12.143   1.859
26548W        W93616  20.655  36.869  10.557
26549W        W93617   3.248  43.777  11.415
26550W        W93618   1.418  21.107   1.408
26551W        W93619  34.398  29.446  10.562
26552W        W93620  28.997  33.950   4.680
26553W        W93621  35.027  23.497   2.333
26554W        W93622  23.004  33.447  11.479
26555W        W93623  38.488  43.300   3.179
26556W        W93624  42.488   6.837  12.862
26557W        W93625  42.797  12.233   2.298
26558W        W93626  15.623  24.030   0.773
26559W        W93627  38.532   5.253   2.182
26560W        W93628  22.604  30.638   0.848
26561W        W93629   7.279   0.761   2.389
26562W        W93630  21.258  21.045   5.310
26563W        W93631  23.673  34.107  13.398
26564W        W93632  23.239  39.932   1.731
26565W        W93633   4.286  21.755   3.214
26566W        W93634  15.739   3.325   0.447
26567W        W93635  31.404  20.061  13.347
26568W        W93636   1.901  15.278  11.489
26569W        W93637   0.388   6.395   4.165
26570W        W93638  26.556  25.511  10.409
26571W        W93639  33.407   9.283   4.314
26572W        W93640  41.840  16.656  10.115
26573W        W93641  25.495  15.811   0.272
26574W        W93642  33.015  33.432   3.250
26575W        W93643  17.255   7.347  13.793
26576W        W93644  32.398  16.576  10.892
26577W        W93645   7.791   7.352  10.994
26578W        W93646  31.553   4.440  13.860
26579W        W93647  30.548  43.945  13.507
26580W        W93648   4.239  24.084   0.784
26581W        W93649  25.050  17.131   2.356
26582W        W93650  44.973  42.828   1.780
26583W        W93651   5.886  11.790   0.271
26584W        W93652  19.687  14.266   2.754
26585W        W93653  15.678  23.520   1.868
26586W        W93654  29.548  19.723  10.139
26587W        W93655  40.401  15.628  11.605
26588W        W93656  22.203  36.381   0.384
26589W        W93657  39.413  14.108   1.306
26590W        W93658  17.784  19.140   1.292
26591W        W93659   0.253   2.461  13.014
26592W        W93660  14.714   6.229   1.856
26593W        W93661  44.817  37.369   2.890
26594W        W93662  24.094  10.156   3.285
26595W        W93663  34.961  18.083   4.279
26596W        W93664  31.614  20.606   3.182
26597W        W93665   2.832   2.842  12.044
26598W        W93666   8.365  38.327  14.975
26599W        W93667  30.434  20.148   1.407
26600W        W93668  31.409   2.404  13.470
26601W        W93669  29.097   0.248  12.901
26602W        W93670  16.612  10.357   2.768
26603W        W93671  16.734  40.016   1.816
26604W        W93672  31.623   4.262  11.445
26605W        W93673  41.025  35.875  14.451
26606W        W93674  29.667  22.505  12.938
26607W        W93675  24.605  12.811   4.725
26608W        W93676  23.566  38.535   1.703
26609W        W93677  44.814  28.005  12.427
26610W        W93678  43.499  29.072   3.798
26611W        W93679  43.784  22.707  14.384
26612W        W93680  25.551  22.055   2.676
26613W        W93681  10.256  40.513   0.374
26614W        W93682  34.931  27.146  14.321
26615W        W93683  26.551  14.250   3.383
26616W        W93684  27.957  16.273  13.925
26617W        W93685  40.396  13.812  13.836
26618W        W93686   8.393  27.617  14.402
26619W        W93687  20.678  30.946  14.291
26620W        W93688   4.907  39.464  14.812
26621W        W93689  18.777  36.993  10.643
26622W        W93690  42.377  40.031   3.250
26623W        W93691   0.469  10.277  12.405
26624W        W93692  21.712  43.867  13.427
26625W        W93693  12.732  36.869  14.841
26626W        W93694  18.173  38.559   2.673
26627W        W93695  32.453  42.850   0.836
26628W        W93696   7.696  42.897   0.927
26629W        W93697  40.873  38.539  11.885
26630W        W93698  10.339   2.372   4.287
26631W        W93699  32.549  16.162   4.243
26632W        W93700  40.435  31.436   4.183
26633W        W93701  18.761  35.435   4.141
26634W        W93702   6.337  17.287  13.917
26635W        W93703  27.005   3.930   1.868
26636W        W93704  19.239  33.483  11.902
26637W        W93705  25.649  38.422   3.638
26638W        W93706  35.993  43.006   3.203
26639W        W93707  35.003  36.551   3.232
26640W        W93708  29.644  19.605   0.400
26641W        W93709  18.100  22.098   4.261
26642W        W93710  22.141  26.660   3.195
26643W        W93711  33.929   5.273   2.728
26644W        W93712  30.504   0.301  14.422
26645W        W93713  28.571  20.680   3.291
26646W        W93714  34.980   9.655  11.112
26647W        W93715  16.268  39.365   3.786
26648W        W93716  29.998  28.059  14.759
26649W        W93717  15.779  13.194   1.435
26650W        W93718  14.729  24.185   4.264
26651W        W93719  39.939  32.995  12.885
26652W        W93720  39.527  41.820   4.204
26653W        W93721  19.576  40.862  11.976
26654W        W93722  33.532   0.798  12.899
26655W        W93723  16.305  20.653  13.490
26656W        W93724  34.543  41.392  12.552
26657W        W93725  10.201  27.979  12.443
26658W        W93726   2.374  30.074   3.288
26659W        W93727   7.259  35.083   3.262
26660W        W93728  18.567   9.155  13.408
26661W        W93729  34.371  34.096  11.454
26662W        W93730   5.847  39.946  14.392
26663W        W93731  14.283  24.008  13.851
26664W        W93732  12.293  15.230   3.311
26665W        W93733  30.602  36.496   5.116
26666W        W93734  34.611  40.947   0.400
26667W        W93735  17.265  43.808  11.004
26668W        W93736  24.603  30.926   0.259
26669W        W93737  43.400  40.017  11.054
26670W        W93738   2.727  13.793  11.541
26671W        W93739  44.437  12.272   1.787
26672W        W93740   4.795   9.194  13.373
26673W        W93741  15.784   8.355  13.401
26674W        W93742   1.803   8.869   0.847
26675W        W93743   6.707  41.344   2.766
26676W        W93744  23.524  38.367  13.500
26677W        W93745   5.391  35.104  12.923
26678W        W93746  13.145  35.035  12.846
26679W        W93747  25.498  30.955  14.379
26680W        W93748  36.366  44.308   1.376
26681W        W93749  19.086  27.062   3.349
26682W        W93750  26.695   4.383  12.939
26683W        W93751   8.212  40.549   3.343
26684W        W93752  27.006   4.245   4.126
26685W        W93753  26.003  15.815   2.365
26686W        W93754  14.621   4.349   2.226
26687W        W93755  25.695  11.365   1.413
26688W        W93756  36.865  24.488  11.098
26689W        W93757  43.769  44.856  12.829
26690W        W93758  24.136  16.111  11.089
26691W        W93759  31.595   7.860  13.962
26692W        W93760  12.178  15.670  14.794
26693W        W93761   1.264  12.298  11.373
26694W        W93762  33.915   2.295  13.957
26695W        W93763  33.103  15.781  11.565
26696W        W93764  35.417   1.324   2.196
26697W        W93765  34.505  19.715   0.734
26698W        W93766  31.153  23.538  14.991
26699W        W93767  24.529  36.088   1.789
26700W        W93768   4.246  14.735  12.353
26701W        W93769   0.350  10.305  12.891
26702W        W93770  32.045   5.898   0.295
26703W        W93771  12.200  16.311  14.909
26704W        W93772  41.511  24.580  10.425
26705W        W93773  41.000   8.398   1.811
26706W        W93774  13.624   7.722  13.403
26707W        W93775  26.492   6.680  14.988
26708W        W93776   1.971  18.633   1.830
26709W        W93777   5.825  31.067   2.791
26710W        W93778  40.371  27.551  11.462
26711W        W93779  22.662  13.616  14.762
26712W        W93780  39.005  18.743  13.976
26713W        W93781   4.709   6.391   4.801
26714W        W93782  24.063  30.501  13.871
26715W        W93783  11.141  14.323   3.377
26716W        W93784  14.675  13.762  13.307
26717W        W93785  41.916  29.041  11.380
26718W        W93786  21.513   3.329   3.649
26719W        W93787   7.873  18.223  11.473
26720W        W93788  17.073  32.401  13.992
26721W        W93789  34.951   4.801   4.704
26722W        W93790  31.935  31.996  11.503
26723W        W93791   2.859  16.779  12.073
26724W        W93792  26.577  25.975  10.457
26725W        W93793   1.434  14.158   1.214
26726W        W93794   5.221  18.106   0.466
26727W        W93795  10.158  26.131  10.913
26728W        W93796  44.761  44.392  14.903
26729W        W93797   1.446  14.329   3.145
26730W        W93798  28.544  28.130  10.561
26731W        W93799  43.833  21.666   4.745
26732W        W93800  25.507  32.484  12.882
26733W        W93801  31.423  12.614  12.939
26734W        W93802  25.090  10.689  10.604
26735W        W93803  27.522  24.148  11.091
26736W        W93804  42.283  39.528   4.267
26737W        W93805  13.687  33.615  14.010
26738W        W93806  32.955   0.471  10.551
26739W        W93807  42.485   8.192  14.834
26740W        W93808   2.255  24.159   4.328
26741W        W93809  41.028  35.459  13.477
26742W        W93810  20.166   1.365   3.647
26743W        W93811  27.119  36.869   0.408
26744W        W93812   9.861   6.767  10.590
26745W        W93813  10.321  29.049   3.223
26746W        W93814   4.827  13.223   5.271
26747W        W93815   9.740   6.789  12.439
26748W        W93816  37.957  41.360  14.966
26749W        W93817  24.129  39.372   5.115
26750W        W93818  36.932  31.470  13.448
26751W        W93819  30.487  39.391  12.577
26752W        W93820   1.248  20.639   2.801
26753W        W93821  22.126   5.856   2.345
26754W        W93822  39.323  18.213  12.951
26755W        W93823  39.058  30.133   2.367
26756W        W93824  39.823  39.558   2.214
26757W        W93825  39.376  24.530  11.529
26758W        W93826  20.114   8.353  14.390
26759W        W93827  20.213  35.081  12.062
26760W        W93828   3.317  35.879  14.863
26761W        W93829   8.839  23.736  11.930
26762W        W93830   9.866  40.925   0.286
26763W        W93831  16.185  37.420   4.638
26764W        W93832  29.523  17.772   3.253
26765W        W93833   0.347  20.222  13.060
26766W        W93834  38.843  29.466  11.041
26767W        W93835  40.448  26.655  14.480
26768W        W93836  29.078  42.838   2.361
26769W        W93837  29.961  37.837   1.828
26770W        W93838  28.569  27.148  14.846
26771W        W93839   6.871  31.555   2.413
26772W        W93840  43.424  29.634  11.031
26773W        W93841  11.758  41.906  10.555
26774W        W93842  21.721  38.487   1.404
26775W        W93843  44.370  12.224  14.437
26776W        W93844  44.779  41.526   3.372
26777W        W93845  43.483  32.909  12.366
26778W        W93846  21.607   5.930   0.288
26779W        W93847   9.683   1.776   2.792
26780W        W93848  21.750  41.987   1.391
26781W        W93849  30.987  13.673   1.361
26782W        W93850  39.489  26.655  11.900
26783W        W93851  31.084  28.556  13.824
26784W        W93852  26.182   6.369   1.419
26785W        W93853  41.011  20.053  14.333
26786W        W93854   8.359  13.243   4.668
26787W        W93855  39.383  30.475  11.906
26788W        W93856  21.609  19.051  14.366
26789W        W93857  30.488   9.226   4.170
26790W        W93858   4.327  37.013   4.322
26791W        W93859  37.035  11.773  13.420
26792W        W93860   2.850  13.828   1.210
26793W        W93861  41.393  42.850  10.963
26794W        W93862   9.717  44.356  13.461
26795W        W93863  26.091  20.622  14.836
26796W        W93864   9.371  22.637  10.150
26797W        W93865  38.466   5.790   2.409
26798W        W93866  29.611   9.776   2.811
26799W        W93867  18.193  19.748   4.192
26800W        W93868  35.444   7.339   3.849
26801W        W93869  30.504  44.347   2.691
26802W        W93870   1.913  40.370  12.523
26803W        W93871  15.225  16.622  14.510
26804W        W93872  36.393  15.278  12.549
26805W        W93873  10.195   7.279  14.779
26806W        W93874  39.314  38.007   0.364
26807W        W93875   3.784  12.641   4.118
26808W        W93876  24.595  28.644  13.356
26809W        W93877  38.428  37.842  13.955
26810W        W93878  28.967  23.687  10.570
26811W        W93879  15.241  12.693   1.726
26812W        W93880  43.325  14.613  14.424
26813W        W93881  44.799   9.283   1.854
26814W        W93882  13.813  21.620  11.115
26815W        W93883  31.582   0.748   4.159
26816W        W93884  32.103  18.208   4.714
26817W        W93885  39.978   1.292  12.371
26818W        W93886  14.798  30.609   0.869
26819W        W93887  35.584   9.348  10.558
26820W        W93888  34.921   3.226   4.625
26821W        W93889  35.486   2.802   2.195
26822W        W93890  38.535  20.624   1.319
26823W        W93891  34.455  40.474  14.014
26824W        W93892  43.960  39.918  10.614
26825W        W93893  38.045  27.013  13.946
26826W        W93894  28.153  16.720  12.560
26827W        W93895  13.600  38.826  13.886
26828W        W93896  35.481   2.834   1.383
26829W        W93897  20.620  28.048   0.361
26830W        W93898  14.661  44.319  10.911
26831W        W93899  28.587  25.063   0.873
26832W        W93900  17.640   0.470  10.607
26833W        W93901  13.141  34.020  14.887
26834W        W93902  33.556   4.207   0.433
26835W        W93903  28.933  43.980   2.319
26836W        W93904  36.472   4.217  11.468
26837W        W93905  23.675  29.530  14.428
26838W        W93906  21.592   9.670  13.386
26839W        W93907  21.622  18.094   4.240
26840W        W93908  42.486  24.628  11.983
26841W        W93909  13.820   3.879  14.828
26842W        W93910  42.810   2.317   3.148
26843W        W93911  16.739  31.073  10.641
26844W        W93912  37.436  31.964  12.884
26845W        W93913  36.991  18.136   3.338
26846W        W93914  12.356  12.183  12.038
26847W        W93915  16.718  11.816  11.458
26848W        W93916  14.762  28.604   1.295
26849W        W93917  26.150  34.512  13.482
26850W        W93918  25.971  33.417   4.733
26851W        W93919  10.288  29.593  14.951
26852W        W93920   0.337  20.047   4.141
26853W        W93921  28.182  14.691   1.899
26854W        W93922  33.472  29.492   1.375
26855W        W93923  10.314  23.627   4.620
26856W        W93924  38.015  38.031   2.350
26857W        W93925  29.071  11.846  12.862
26858W        W93926  32.987  31.124  11.994
26859W        W93927  19.267  26.659  13.833
26860W        W93928  42.321   6.829   3.176
26861W        W93929  20.060  40.016  13.902
26862W        W93930  35.952   3.315   1.398
26863W        W93931  13.808  32.558   2.294
26864W        W93932  11.321   1.852   2.683
26865W        W93933  33.952  11.257  14.491
26866W        W93934  35.052   0.916   0.775
26867W        W93935   7.790  19.047   3.279
26868W        W93936  39.960   4.437  14.408
26869W        W93937  17.200  43.001   2.398
26870W        W93938  27.078  32.473   4.657
26871W        W93939  21.756  14.107   4.747
26872W        W93940  10.157  14.672   4.338
26873W        W93941  28.637  35.469   2.414
26874W        W93942   0.391  29.105  10.415
26875W        W93943  15.726  24.127  11.408
26876W        W93944   6.408   5.409  10.942
26877W        W93945  23.716  11.270  12.412
26878W        W93946  24.983   7.336   3.201
26879W        W93947  44.277  43.430   1.410
26880W        W93948  14.235  10.163  12.846
26881W        W93949  26.678  37.495   5.296
26882W        W93950  28.012  28.517  14.015
26883W        W93951  38.480  41.365   2.379
26884W        W93952  12.243  21.167  14.509
26885W        W93953  25.032  43.322   3.745
26886W        W93954  43.477   7.182  12.546
26887W        W93955  32.134  15.635   3.179
26888W        W93956  12.174  44.934  13.059
26889W        W93957   7.858  26.565  14.511
26890W        W93958   1.311  27.479  13.323
26891W        W93959  14.215  21.697  10.009
26892W        W93960  38.453  18.585   2.355
26893W        W93961   6.258   3.888  10.443
26894W        W93962  37.928  10.726  10.548
26895W        W93963  26.489  43.283  12.495
26896W        W93964  23.668  20.769   2.873
26897W        W93965  33.516  12.634   2.874
26898W        W93966  12.346  36.006   4.199
26899W        W93967  30.099  31.418  11.876
26900W        W93968  27.949  33.957   1.366
26901W        W93969  44.280  37.831  13.336
26902W        W93970   0.871  39.345   0.855
26903W        W93971  19.653  31.001   1.411
26904W        W93972   2.462  16.660  13.009
26905W        W93973   0.905  23.643  13.405
26906W        W93974  24.992  30.935  12.861
26907W        W93975  33.017  30.535   0.827
26908W        W93976  41.526  13.811   4.148
26909W        W93977  14.827  23.987  10.888
26910W        W93978  30.440  28.614  12.419
26911W        W93979   3.749  33.549  10.139
26912W        W93980  18.171   9.298  14.314
26913W        W93981   4.282  17.103   5.295
26914W        W93982  30.005   0.319  11.029
26915W        W93983  12.135  14.822  11.587
26916W        W93984  32.560  21.214  11.098
26917W        W93985  11.754   1.794   3.748
26918W        W93986   0.490  11.736   0.882
26919W        W93987  44.982  39.369  14.416
26920W        W93988   0.781  28.021   1.865
26921W        W93989  37.431  34.933  13.957
26922W        W93990  33.619  34.088   1.295
26923W        W93991   1.939   4.335   1.301
26924W        W93992  42.962   5.772   0.244
26925W        W93993  39.899  33.618  13.364
26926W        W93994   5.803   0.305   3.326
26927W        W93995  35.859   0.344  11.584
26928W        W93996   5.225  15.644  11.128
26929W        W93997  26.700  31.623  14.952
26930W        W93998  37.429  38.377   2.804
26931W        W93999  42.884  32.473  14.453
26932W        W94000   4.240  38.347   4.603
26933W        W94001  21.691  11.207  11.427
26934W        W94002  27.196  39.929   4.663
26935W        W94003  26.580  23.011  13.894
26936W        W94004  41.402  27.135   3.673
26937W        W94005  37.080  16.619  11.518
26938W        W94006  25.098  21.147  11.422
26939W        W94007  28.028   7.389   2.245
26940W        W94008   7.742  31.465   0.443
26941W        W94009  36.558  37.963  13.790
26942W        W94010  33.932  20.238  10.930
26943W        W94011  16.167   9.246  13.842
26944W        W94012  23.065  13.312   0.484
26945W        W94013  26.518   9.776  12.022
26946W        W94014  25.485  14.642  14.326
26947W        W94015  12.224  12.173  13.891
26948W        W94016  31.077   6.863  14.857
26949W        W94017  27.974  19.229  11.376
26950W        W94018  26.486  39.392   0.808
26951W        W94019  29.548  35.041  11.607
26952W        W94020  42.864  34.487  10.449
26953W        W94021   8.792  10.669   3.184
26954W        W94022  26.638  34.467  13.942
26955W        W94023   0.363   9.195  14.447
26956W        W94024  44.345  41.854   2.188
26957W        W94025  20.715  39.009   4.204
26958W        W94026  43.482  36.908  12.414
26959W        W94027  39.837  39.967  13.837
26960W        W94028  32.945  34.051  13.341
26961W        W94029  27.051  29.527   3.778
26962W        W94030   5.440  20.129   1.819
26963W        W94031  27.024  16.602  13.037
26964W        W94032  19.168  37.385   1.244
26965W        W94033  26.160   2.339   1.741
26966W        W94034   1.937   7.289  12.359
26967W        W94035  38.423  42.408  12.931
26968W        W94036  22.106   8.837   3.366
26969W        W94037  39.926  44.921  13.913
26970W        W94038  39.437   5.266  13.852
26971W        W94039  38.410  18.216  13.498
26972W        W94040  25.652  10.338  14.013
26973W        W94041   0.430   2.801  13.396
26974W        W94042  17.127  25.076  13.882
26975W        W94043   4.750  34.926   1.896
26976W        W94044  12.224  16.727   3.250
26977W        W94045  32.084  41.440   2.389
26978W        W94046  43.416  20.029  14.986
26979W        W94047   9.822  41.516  12.343
26980W        W94048  15.271  29.570   3.763
26981W        W94049  28.551  44.478   0.839
26982W        W94050   9.260  19.695   9.933
26983W        W94051  27.948  35.042  14.985
26984W        W94052  21.635   0.260  13.356
26985W        W94053  21.612  33.419  12.356
26986W        W94054  44.924   9.709   2.313
26987W        W94055  28.589  21.530   0.479
26988W        W94056  27.063  35.915   3.328
26989W        W94057  39.873  32.922   3.181
26990W        W94058  29.622   3.764  11.410
26991W        W94059  14.279  33.544   3.284
26992W        W94060  11.718   8.831   3.782
26993W        W94061  22.113   5.820   3.198
26994W        W94062  15.214   3.767  13.004
26995W        W94063  21.130   3.747   2.271
26996W        W94064  39.932  23.673  10.480
26997W        W94065  36.557  37.373   4.771
26998W        W94066  34.866  18.738  14.930
26999W        W94067  25.091  24.048  13.886
27000W        W94068  39.056  32.021  14.977
27001W        W94069  41.440  10.876  12.343
27002W        W94070  10.728  31.430  11.374
27003W        W94071  38.412  31.052   1.247
27004W        W94072  27.546  14.601  13.862
27005W        W94073   0.447   9.152  11.872
27006W        W94074   9.379  23.997  10.029
27007W        W94075   6.731  24.568  14.864
27008W        W94076  10.806  12.134  10.967
27009W        W94077  43.788  30.539   0.403
27010W        W94078  19.735  36.855  11.503
27011W        W94079  35.452  33.899  13.903
27012W        W94080  40.454  39.027   3.182
27013W        W94081  11.315   8.719  14.996
27014W        W94082  23.202  16.716  13.989
27015W        W94083  37.519  39.557   0.327
27016W        W94084   8.225  14.203   3.177
27017W        W94085  30.105   6.192  11.542
27018W        W94086   2.230   9.160  10.957
27019W        W94087  35.086   0.932   3.260
27020W        W94088  35.921   2.838  10.404
27021W        W94089  30.640  33.967   0.248
27022W        W94090  10.752  22.652  10.950
27023W        W94091  31.482  19.191   0.370
27024W        W94092  17.725  27.580   1.748
27025W        W94093  26.548  31.944  11.376
27026W        W94094  40.854   0.856  11.055
27027W        W94095  22.732   0.829  13.831
27028W        W94096   1.347  16.763  12.959
27029W        W94097  31.900  21.062  14.465
27030W        W94098  35.026  10.145  10.542
27031W        W94099   2.946  37.482   5.086
27032W        W94100  21.063  17.789  13.547
27033W        W94101  39.968  29.640  14.297
27034W        W94102  35.956   5.408  13.453
27035W        W94103  18.148  37.018   2.362
27036W        W94104   0.751  17.652   4.632
27037W        W94105  23.694  29.507   3.695
27038W        W94106  33.948   5.267   1.854
27039W        W94107  13.770  19.098   1.304
27040W        W94108  19.238  35.867   0.281
27041W        W94109  41.971  44.843   1.917
27042W        W94110   9.223   8.301   0.941
27043W        W94111  30.582  32.114   0.788
27044W        W94112  14.776  23.127  12.568
27045W        W94113  29.532  23.233  12.380
27046W        W94114  22.678  29.600  14.902
27047W        W94115  26.612  11.271   2.244
27048W        W94116   5.398  18.088  14.982
27049W        W94117  23.643  35.070  10.983
27050W        W94118  27.027  20.621  13.974
27051W        W94119  32.582  29.015   3.813
27052W        W94120  12.667  19.247   3.374
27053W        W94121  21.263  24.664  11.403
27054W        W94122  16.200  12.119   5.204
27055W        W94123   1.300  32.441   0.345
27056W        W94124  12.238  42.938  12.032
27057W        W94125  18.079  39.000   2.305
27058W        W94126  33.970  13.795   3.646
27059W        W94127   9.320   8.246   2.257
27060W        W94128  24.677  13.762   1.285
27061W        W94129   2.237  31.920   4.302
27062W        W94130  14.817  18.099  11.969
27063W        W94131   3.375  43.333  11.459
27064W        W94132  14.204  17.626  10.486
27065W        W94133  38.027  33.030   2.889
27066W        W94134  38.562   4.848   4.630
27067W        W94135   3.319  43.852   4.261
27068W        W94136  11.257  26.501   2.873
27069W        W94137  35.571  12.822  10.929
27070W        W94138  17.179  35.901   3.682
27071W        W94139   5.811  39.958  14.938
27072W        W94140  10.171  44.420   4.145
27073W        W94141  14.809   4.241   0.418
27074W        W94142   6.241  12.242  14.888
27075W        W94143   9.814  26.191   3.735
27076W        W94144   0.939  44.906  11.525
27077W        W94145  34.057  12.816  11.925
27078W        W94146  26.178  30.531  12.914
27079W        W94147  13.161  25.514  10.982
27080W        W94148   9.161  23.041   1.243
27081W        W94149  14.095  25.636   2.815
27082W        W94150  43.865   8.788   4.307
27083W        W94151  44.956   5.257   0.435
27084W        W94152  44.443  34.496   9.640
27085W        W94153  14.324  42.846  12.954
27086W        W94154  32.010   9.380   4.750
27087W        W94155   1.423   7.411  13.797
27088W        W94156  27.541  37.882   2.678
27089W        W94157  35.461  35.891  11.875
27090W        W94158  32.442  31.047   0.301
27091W        W94159  10.373   9.190  14.473
27092W        W94160  23.002  33.907   1.245
27093W        W94161  14.611  42.376   0.911
27094W        W94162  13.256   1.945   4.145
27095W        W94163  43.393  27.471  13.046
27096W        W94164  38.499  10.665  14.484
27097W        W94165  44.302  35.432  11.008
27098W        W94166  26.494   2.942  11.104
27099W        W94167  11.344  22.100  13.546
27100W        W94168  20.214  30.919  12.350
27101W        W94169   6.421  28.627  14.364
27102W        W94170  19.543  24.562  12.552
27103W        W94171  32.957  38.913  12.044
27104W        W94172  27.167  39.986   0.805
27105W        W94173   0.339  35.973  12.343
27106W        W94174   8.193  34.033  13.795
27107W        W94175  38.556  35.430   1.925
27108W        W94176   6.751  39.880   4.645
27109W        W94177  42.941   2.934   0.278
27110W        W94178  18.144  30.524   2.665
27111W        W94179  34.374  19.682   0.245
27112W        W94180  34.944  26.151   3.803
27113W        W94181  15.282  34.909   1.694
27114W        W94182  36.091   9.760   1.305
27115W        W94183  18.614  17.196   3.630
27116W        W94184  10.353  24.708  10.449
27117W        W94185  35.923  26.488   2.785
27118W        W94186  33.533  41.885   1.886
27119W        W94187  34.974  34.449   0.766
27120W        W94188  30.519  30.936  13.031
27121W        W94189  13.315   9.200  11.487
27122W        W94190  34.873  27.633   2.251
27123W        W94191  16.748  42.992  13.480
27124W        W94192   6.881  35.443  11.055
27125W        W94193  17.223   0.782  10.526
27126W        W94194  16.179  13.249   0.920
27127W        W94195  23.180  12.252  11.957
27128W        W94196  32.582   3.744  13.341
27129W        W94197   2.453  24.623  12.532
27130W        W94198  16.731  38.369   1.448
27131W        W94199  30.927  12.176   3.243
27132W        W94200   3.779  29.112   3.292
27133W        W94201  15.601  26.674  10.517
27134W        W94202   9.852  25.092   0.443
27135W        W94203  35.932   0.395   4.804
27136W        W94204  43.846  24.183  13.488
27137W        W94205  14.597  24.721  12.371
27138W        W94206  13.633  44.414  13.328
27139W        W94207  40.509  34.542   0.876
27140W        W94208  14.319  37.974  14.906
27141W        W94209  13.643  29.535  10.486
27142W        W94210   4.400  26.589  11.385
27143W        W94211  14.624   8.672  12.454
27144W        W94212  24.486   6.779  13.415
27145W        W94213  14.250   0.419  11.989
27146W        W94214   7.401   8.267   0.248
27147W        W94215  18.251   8.771   5.245
27148W        W94216   2.286  30.047  12.026
27149W        W94217  18.203  33.499   2.794
27150W        W94218  35.461  29.010   4.786
27151W        W94219  16.741  38.491   2.698
27152W        W94220  37.874  30.096  12.928
27153W        W94221  11.275   7.854   4.302
27154W        W94222  24.055  43.860   3.278
27155W        W94223  42.913  19.159   3.360
27156W        W94224  34.067  27.940  11.447
27157W        W94225   6.708  32.476   2.414
27158W        W94226  12.748  24.158  13.816
27159W        W94227  10.632  44.348   1.799
27160W        W94228  43.439   4.855  10.102
27161W        W94229  33.512  28.490  14.287
27162W        W94230  21.247   9.801  11.863
27163W        W94231  28.457  26.967   0.781
27164W        W94232  18.741  30.617   2.707
27165W        W94233  21.155  16.200  10.940
27166W        W94234   7.668  39.365   3.302
27167W        W94235  17.141  16.807  13.328
27168W        W94236  16.750  40.516   4.214
27169W        W94237  31.518  18.560   0.869
27170W        W94238  11.770   8.797  12.462
27171W        W94239  11.816   5.818  11.390
27172W        W94240  13.349  29.643   5.167
27173W        W94241  17.247   0.800   2.219
27174W        W94242   4.363   4.357  12.919
27175W        W94243  13.642   0.362   3.267
27176W        W94244  42.934  12.714  10.598
27177W        W94245   5.344  35.482  14.307
27178W        W94246   5.212  27.952   0.427
27179W        W94247  12.660  39.529  12.543
27180W        W94248  33.446  37.543  10.093
27181W        W94249  26.499  24.109  14.296
27182W        W94250   7.262  27.998   0.446
27183W        W94251  37.882   7.876   1.354
27184W        W94252  32.545  12.794  10.144
27185W        W94253  17.650   6.192   3.197
27186W        W94254  19.748   5.388  12.356
27187W        W94255   2.263  31.934  10.494
27188W        W94256  34.384  21.035   3.789
27189W        W94257  29.075  18.779  13.926
27190W        W94258  12.240  36.875  11.064
27191W        W94259  14.301  23.124   3.291
27192W        W94260  12.804   3.390   5.249
27193W        W94261  21.587   0.264  12.980
27194W        W94262  42.879  35.464  13.338
27195W        W94263  24.120  38.533   3.209
27196W        W94264  33.481  33.913   1.765
27197W        W94265  42.512  17.183   1.431
27198W        W94266  34.523  31.614   1.213
27199W        W94267  22.560  37.002  14.978
27200W        W94268  23.665  31.903   2.750
27201W        W94269  35.374   4.417  13.863
27202W        W94270  19.209  16.198   3.858
27203W        W94271   0.418  20.613  11.863
27204W        W94272  34.576  39.522   4.246
27205W        W94273  24.139  34.596  14.307
27206W        W94274   5.378  12.287   3.305
27207W        W94275  42.827  37.077  11.524
27208W        W94276  26.700  25.217  13.954
27209W        W94277  43.391   2.414  14.905
27210W        W94278   6.846  37.562   0.268
27211W        W94279   5.331   8.229   3.793
27212W        W94280  38.555  34.561  14.780
27213W        W94281  14.613  19.741   3.714
27214W        W94282  35.575  28.518  12.563
27215W        W94283   1.792  14.797  14.979
27216W        W94284  16.144  23.095  11.083
27217W        W94285   2.327  22.123   4.642
27218W        W94286   4.226  19.172   4.332
27219W        W94287   4.709  44.262  14.980
27220W        W94288  30.076  17.244  12.934
27221W        W94289  32.015  17.225   0.838
27222W        W94290  16.594  43.829  10.572
27223W        W94291  38.349  21.055  14.307
27224W        W94292   0.270  31.406   2.264
27225W        W94293  18.588  36.378   0.267
27226W        W94294   5.904  18.260  13.875
27227W        W94295  44.857   9.240  13.415
27228W        W94296  21.189  34.558  10.937
27229W        W94297  39.552   9.259  12.872
27230W        W94298  12.303  26.679  14.807
27231W        W94299  11.640  24.497  12.962
27232W        W94300  20.724   0.911  10.900
27233W        W94301  10.668   0.753   9.623
27234W        W94302  33.555  42.324  11.382
27235W        W94303  37.044  38.528  14.308
27236W        W94304   7.397  23.041   3.728
27237W        W94305   4.703  30.647   0.780
27238W        W94306  35.009  20.651  12.057
27239W        W94307   4.768   9.662   4.269
27240W        W94308  21.620  11.824   0.411
27241W        W94309   8.321  42.507  14.307
27242W        W94310  11.151  17.723   0.827
27243W        W94311  32.515   9.737  12.829
27244W        W94312  10.663  27.014  11.388
27245W        W94313  22.710  29.635  11.895
27246W        W94314  35.492   8.190   0.303
27247W        W94315  18.693   2.822  13.336
27248W        W94316   2.894  35.412  10.538
27249W        W94317   8.875  34.102   0.729
27250W        W94318  16.772  12.228   4.228
27251W        W94319  24.548  41.433  13.503
27252W        W94320  29.987   2.266  11.590
27253W        W94321  14.835   3.341   1.775
27254W        W94322   2.782   8.890  11.589
27255W        W94323  20.208  29.445  11.873
27256W        W94324   7.779  12.697   1.377
27257W        W94325  31.512  10.228  11.505
27258W        W94326   5.229  33.608  14.852
27259W        W94327  32.584  41.035   2.253
27260W        W94328  21.126  36.425  13.044
27261W        W94329  25.211  14.195  13.311
27262W        W94330  30.019   6.238  13.031
27263W        W94331  31.465   2.315  14.323
27264W        W94332  24.056  26.703   0.756
27265W        W94333  26.063  43.019   0.909
27266W        W94334  37.912  14.779  12.929
27267W        W94335  39.064  12.676   1.862
27268W        W94336  34.865  25.669   0.873
27269W        W94337  16.677   3.856   0.878
27270W        W94338   2.921  32.513   2.704
27271W        W94339  11.817  30.909  12.993
27272W        W94340  36.528  40.415  13.400
27273W        W94341  20.599  36.918  11.091
27274W        W94342  12.780  13.704   0.815
27275W        W94343  33.449  19.574  10.513
27276W        W94344   8.278  39.531   0.825
27277W        W94345  30.147  25.019   3.715
27278W        W94346  21.194  31.580   1.331
27279W        W94347  44.430  21.515   3.814
27280W        W94348   0.803  31.138   1.282
27281W        W94349   9.379  25.117  14.401
27282W        W94350  34.551  35.013  12.387
27283W        W94351  20.034  17.079  11.508
27284W        W94352  37.890   4.698  10.551
27285W        W94353  31.402  32.506   0.887
27286W        W94354  39.529   4.391   4.702
27287W        W94355  15.187  38.001   3.174
27288W        W94356  35.035  36.587   1.808
27289W        W94357   7.190  15.669   3.229
27290W        W94358  33.074  25.091   4.172
27291W        W94359   8.814  27.510  14.314
27292W        W94360   9.268  19.249  11.581
27293W        W94361   6.835  40.998   1.290
27294W        W94362  16.605  35.387   3.644
27295W        W94363   7.194   6.295  14.824
27296W        W94364  15.734  17.599  12.000
27297W        W94365   7.910  37.384  11.527
27298W        W94366  28.660  35.103  13.913
27299W        W94367  16.148   8.314   3.672
27300W        W94368  27.179   6.400   4.122
27301W        W94369  14.133  14.633  12.578
27302W        W94370  39.474  31.098   0.469
27303W        W94371  27.015  14.722  14.818
27304W        W94372   8.176  11.749   2.739
27305W        W94373   3.752  17.230  12.398
27306W        W94374  39.048  29.988  13.833
27307W        W94375  11.194  31.123  12.480
27308W        W94376  32.626  22.511   2.350
27309W        W94377   3.392   1.320   4.256
27310W        W94378  20.177  14.701  14.348
27311W        W94379  40.833   0.409   2.850
27312W        W94380  32.973   8.402   1.306
27313W        W94381  24.478  40.051   1.281
27314W        W94382  26.653  27.955   3.815
27315W        W94383  42.354  27.692  13.466
27316W        W94384   3.289  32.556   4.180
27317W        W94385  15.808  23.151   0.932
27318W        W94386  24.694  14.326  11.100
27319W        W94387  14.242   5.835  12.906
27320W        W94388   9.337   0.442   3.157
27321W        W94389  37.479  17.142   2.898
27322W        W94390  36.519  10.350  11.549
27323W        W94391   1.435  11.694   3.372
27324W        W94392  41.874   2.288   2.236
27325W        W94393   8.342   7.691  10.966
27326W        W94394   0.824  38.948  11.038
27327W        W94395   0.290  33.973  11.957
27328W        W94396  25.986  37.560   2.195
27329W        W94397  41.933  37.540  13.385
27330W        W94398  33.527  26.085  11.035
27331W        W94399  16.158  27.525  13.418
27332W        W94400   5.912  42.778  12.056
27333W        W94401  21.240  22.714  11.459
27334W        W94402  39.032  19.766   1.744
27335W        W94403  19.635  22.136  13.463
27336W        W94404   5.842  35.366   0.729
27337W        W94405  10.150  33.605   3.222
27338W        W94406  25.573  44.281  10.509
27339W        W94407  32.468  22.161   3.305
27340W        W94408  25.029  44.792   1.720
27341W        W94409  21.161  21.567   4.311
27342W        W94410  28.149  39.514  13.484
27343W        W94411  25.013  34.563   0.805
27344W        W94412  12.120   7.381  14.029
27345W        W94413  14.341   4.334  12.577
27346W        W94414  20.636  17.068  13.413
27347W        W94415  32.489   6.706   2.875
27348W        W94416  22.630  13.768  12.511
27349W        W94417  25.509  24.087  14.918
27350W        W94418   6.260  17.177   0.951
27351W        W94419  42.921  18.658   5.273
27352W        W94420   6.363  43.781   2.319
27353W        W94421  21.689  28.952  10.919
27354W        W94422  20.769  14.784  12.915
27355W        W94423  18.255  24.192  13.001
27356W        W94424  23.210  39.944  12.036
27357W        W94425  39.397   2.343  10.411
27358W        W94426  13.734  21.190  10.888
27359W        W94427  41.821  30.990   4.225
27360W        W94428  15.704   5.231  10.443
27361W        W94429   8.387  11.236   4.809
27362W        W94430  34.932  33.596  13.376
27363W        W94431  36.855  13.228  12.940
27364W        W94432  20.039   0.843  14.462
27365W        W94433  14.106  20.109  14.330
27366W        W94434  19.561  32.448  13.382
27367W        W94435  43.474  41.934   3.842
27368W        W94436  36.985  16.171   3.198
27369W        W94437  30.959   3.754  11.104
27370W        W94438  43.816  17.613  12.576
27371W        W94439  21.077  38.484   1.240
27372W        W94440   8.900  41.875   1.698
27373W        W94441   2.347  38.952  14.380
27374W        W94442  21.080  12.691  13.014
27375W        W94443   3.724  41.881  10.971
27376W        W94444   5.882  44.399   1.801
27377W        W94445  13.235  24.125   5.279
27378W        W94446  34.491   4.259  12.444
27379W        W94447  43.514  34.453   1.279
27380W        W94448   1.432   2.953  13.866
27381W        W94449  44.430  35.861  13.376
27382W        W94450  40.367  15.765   2.235
27383W        W94451  25.168  22.546  11.398
27384W        W94452  13.795  15.194  14.424
27385W        W94453  39.386  12.130  12.372
27386W        W94454  25.986   1.477   2.769
27387W        W94455  41.517   3.449   1.904
27388W        W94456  34.551  16.685   1.748
27389W        W94457  31.148  38.408  11.038
27390W        W94458   7.685  17.590  12.007
27391W        W94459  11.132  28.022   2.843
27392W        W94460  20.723  44.380  14.952
27393W        W94461  27.100  37.940  11.415
27394W        W94462  29.566  17.074  11.954
27395W        W94463  38.499  28.581  12.917
27396W        W94464  23.502  15.630   1.378
27397W        W94465  36.008  36.953  13.346
27398W        W94466  42.403   0.330  13.334
27399W        W94467  42.347  40.801  10.910
27400W        W94468  39.963  14.103  13.970
27401W        W94469  42.480  34.034  13.431
27402W        W94470  19.715   6.367  11.072
27403W        W94471   5.758   2.365   2.832
27404W        W94472   7.723  29.539  12.935
27405W        W94473  13.170  36.943   2.232
27406W        W94474  15.755  35.904  13.859
27407W        W94475  36.370  39.019   1.865
27408W        W94476  24.602   0.932   1.892
27409W        W94477  19.726  38.945   3.747
27410W        W94478  23.008  16.129  12.004
27411W        W94479  34.030  23.179  10.575
27412W        W94480  29.114  18.152  10.980
27413W        W94481  38.992   8.754   2.747
27414W        W94482  27.111  23.568  14.928
27415W        W94483   7.244  25.975  12.407
27416W        W94484  20.035   4.422  11.893
27417W        W94485  44.870  22.116  12.383
27418W        W94486  38.333  31.942  12.889
27419W        W94487  17.243  20.626   0.399
27420W        W94488  29.131  17.671   4.185
27421W        W94489   9.349  11.128   4.667
27422W        W94490  38.409  44.361   2.394
27423W        W94491  38.553   8.848   1.716
27424W        W94492  43.363   0.944  10.008
27425W        W94493  19.153  42.395   2.245
27426W        W94494  15.273  13.173   4.820
27427W        W94495  17.152  10.727  12.463
27428W        W94496   2.470  27.538   4.342
27429W        W94497  30.961  43.509  12.472
27430W        W94498  41.391  30.912   2.701
27431W        W94499  23.590  37.456  12.902
27432W        W94500  26.144  30.536   1.391
27433W        W94501   8.364  38.909  10.914
27434W        W94502  42.004  41.898  12.355
27435W        W94503   9.790   5.280   1.286
27436W        W94504  30.433  10.636  12.979
27437W        W94505  18.093   1.337   4.128
27438W        W94506  35.866  37.074   2.407
27439W        W94507  31.975  40.816  14.824
27440W        W94508  26.125  29.545   2.795
27441W        W94509  17.615   8.404  11.867
27442W        W94510  14.320   4.765  14.303
27443W        W94511  26.550  32.080  12.066
27444W        W94512  12.775  38.941   0.471
27445W        W94513  12.816  11.239   0.839
27446W        W94514  44.833  28.490  13.930
27447W        W94515  10.875  44.259   1.221
27448W        W94516  29.164  22.699   4.171
27449W        W94517  21.147  40.346  10.039
27450W        W94518  21.211  30.541   2.185
27451W        W94519   8.248  34.484  11.872
27452W        W94520  15.764  15.818  13.415
27453W        W94521  44.844  23.030   3.794
27454W        W94522  33.475  32.899   0.875
27455W        W94523  36.548  21.099  14.927
27456W        W94524  29.451   1.297   0.269
27457W        W94525  19.590  41.969   1.843
27458W        W94526  16.603  23.998  11.056
27459W        W94527  19.570  28.611  11.033
27460W        W94528   0.282   6.402   2.662
27461W        W94529  32.429  34.006   0.784
27462W        W94530  44.492  21.240   5.314
27463W        W94531   8.201  23.492  11.479
27464W        W94532  26.458  29.072  13.796
27465W        W94533  17.682  10.666  11.414
27466W        W94534  21.655  34.545  10.499
27467W        W94535  33.589   0.764  11.958
27468W        W94536   2.359  32.012  13.434
27469W        W94537  17.103  36.433  11.040
27470W        W94538  40.497  16.640   2.692
27471W        W94539   9.850   5.775  14.459
27472W        W94540  29.582  41.360  11.487
27473W        W94541  43.998   2.781   2.226
27474W        W94542   4.709  31.919   3.226
27475W        W94543   0.866  37.052   3.379
27476W        W94544  40.534  39.453  14.429
27477W        W94545  20.175  38.883  13.844
27478W        W94546   1.746  41.342  14.347
27479W        W94547  24.596  22.561   4.187
27480W        W94548  38.838  41.795  10.917
27481W        W94549   1.793  39.322   2.183
27482W        W94550   0.989  20.605   0.812
27483W        W94551   1.918   7.870  14.311
27484W        W94552  13.110   2.442  10.044
27485W        W94553  10.828  35.954  14.811
27486W        W94554  39.940   7.179   2.902
27487W        W94555  40.882   8.779  11.886
27488W        W94556  10.213  40.043  14.900
27489W        W94557   6.350  20.237  10.134
27490W        W94558  24.195  19.066   1.227
27491W        W94559   4.893   3.270   0.479
27492W        W94560  13.748  30.529  12.924
27493W        W94561  17.778  26.515  10.911
27494W        W94562  41.893   2.418   4.608
27495W        W94563  19.084  27.674  13.828
27496W        W94564  38.820   7.813  12.564
27497W        W94565   7.903  20.696   3.201
27498W        W94566  40.546  21.559  13.043
27499W        W94567   6.329  33.583  12.447
27500W        W94568  26.477  11.782   1.255
27501W        W94569  27.986  13.721   4.205
27502W        W94570  14.237  21.640   4.804
27503W        W94571  36.492   8.659   2.667
27504W        W94572   0.422   8.681  13.363
27505W        W94573  42.838  33.580   4.281
27506W        W94574  31.901  14.180  11.611
27507W        W94575   4.734  20.562   2.829
27508W        W94576  18.547  33.956  12.564
27509W        W94577  40.890  39.404   2.743
27510W        W94578  23.117  38.821  10.142
27511W        W94579  28.585  16.179   3.646
27512W        W94580  26.199  12.231   0.912
27513W        W94581  31.024  18.180   2.355
27514W        W94582  34.943  36.536  11.022
27515W        W94583  19.536  34.578  13.983
27516W        W94584  27.999  35.402  10.470
27517W        W94585  44.465  15.261   0.376
27518W        W94586  18.661  15.715   1.711
27519W        W94587  17.243   5.384  10.477
27520W        W94588  12.137  15.204  11.419
27521W        W94589   3.344  25.605  11.923
27522W        W94590  20.615   2.246  13.469
27523W        W94591  21.597  34.981  11.895
27524W        W94592  37.405  18.718  13.359
27525W        W94593  18.167  43.934   3.237
27526W        W94594  42.301  11.671  13.393
27527W        W94595  16.176  19.565  14.816
27528W        W94596   8.194  39.050  12.942
27529W        W94597   9.698  15.240  11.423
27530W        W94598  10.234  14.619   5.094
27531W        W94599  41.005  15.182   0.872
27532W        W94600  33.553  42.490  12.842
27533W        W94601  18.073  42.406  10.934
27534W        W94602  21.112  18.057  14.925
27535W        W94603  32.958  39.065   2.346
27536W        W94604  24.976  30.149  12.917
27537W        W94605   3.734  16.758   1.254
27538W        W94606  41.367  35.854   0.284
27539W        W94607  43.318   6.185   3.337
27540W        W94608  21.617  13.674  12.026
27541W        W94609  17.116  17.177   4.745
27542W        W94610  37.402   0.933   4.743
27543W        W94611  18.112  24.073   2.758
27544W        W94612  36.495  32.526   3.350
27545W        W94613   1.360  38.854   4.210
27546W        W94614  43.849   1.851  12.376
27547W        W94615  37.083  26.624  11.900
27548W        W94616   4.754  12.844   1.240
27549W        W94617  11.672  26.507  12.999
27550W        W94618  40.405  11.209  14.392
27551W        W94619   9.697   9.784  11.035
27552W        W94620   4.871  28.459  12.877
27553W        W94621   2.934   0.463   2.222
27554W        W94622   1.425  19.774   0.406
27555W        W94623  29.651   1.850  14.994
27556W        W94624  18.781   2.930  12.826
27557W        W94625  42.325   3.893  12.086
27558W        W94626  39.814  33.059   2.666
27559W        W94627  43.499  25.005  12.828
27560W        W94628   0.287   5.291   0.908
27561W        W94629  38.907  39.877  13.407
27562W        W94630  19.128   5.215   3.693
27563W        W94631  24.486   7.217  14.446
27564W        W94632  44.377   1.797  13.484
27565W        W94633   7.371  35.929  14.789
27566W        W94634  12.619   8.274  11.558
27567W        W94635   6.326   7.779  12.953
27568W        W94636  15.699   6.282   1.225
27569W        W94637  11.322  31.406  12.578
27570W        W94638   6.740  34.409   1.397
27571W        W94639   6.719  31.930  12.046
27572W        W94640  17.181  36.935  13.835
27573W        W94641  25.995  26.982   1.407
27574W        W94642  39.491   6.776   0.893
27575W        W94643  21.238  33.058   0.885
27576W        W94644   4.848   7.194   1.259
27577W        W94645  20.140  17.568  12.991
27578W        W94646  27.530  32.460   1.814
27579W        W94647  25.622  14.593   4.701
27580W        W94648  19.754  38.514   3.208
27581W        W94649  38.513  11.647   0.434
27582W        W94650   0.480  16.746  14.786
27583W        W94651  22.151  12.198   4.264
27584W        W94652  18.161   7.388  14.966
27585W        W94653  29.162  25.642  14.913
27586W        W94654  25.194   1.768  13.361
27587W        W94655  17.610   1.272   3.687
27588W        W94656  12.254  25.068  13.523
27589W        W94657   9.221  15.578   1.827
27590W        W94658  41.027   8.179  12.026
27591W        W94659  15.109  30.128  12.825
27592W        W94660  44.795   5.197   3.245
27593W        W94661   9.191  34.072  11.061
27594W        W94662  35.082  17.229   4.600
27595W        W94663  34.591   4.411   0.317
27596W        W94664  12.349   2.365  10.524
27597W        W94665  33.407  28.063   3.244
27598W        W94666  12.752  23.501   0.443
27599W        W94667  27.066  35.996  10.420
27600W        W94668  10.153  31.120  10.957
27601W        W94669  39.014  32.511   3.703
27602W        W94670  32.000   3.803   3.162
27603W        W94671  23.038  26.176  13.941
27604W        W94672   9.828  33.441  11.964
27605W        W94673   0.936  31.018   2.414
27606W        W94674   5.348   0.446  11.584
27607W        W94675   3.831   6.241   1.250
27608W        W94676  14.137  18.762   2.719
27609W        W94677  39.450  26.970   4.611
27610W        W94678  32.623   9.853   0.292
27611W        W94679  22.040  36.901  14.897
27612W        W94680  36.005  29.620  11.514
27613W        W94681  13.614  26.034   0.441
27614W        W94682  34.864  44.781  11.408
27615W        W94683  32.967   5.215  10.587
27616W        W94684  42.910  31.967   2.215
27617W        W94685   0.251   6.754  11.502
27618W        W94686  14.265  13.766   2.817
27619W        W94687  26.472  18.270   4.194
27620W        W94688   0.911  38.070  12.422
27621W        W94689  10.313   5.931   2.832
27622W        W94690   9.269  28.981  10.456
27623W        W94691  29.938  20.741   0.917
27624W        W94692  24.162  22.137  14.874
27625W        W94693   4.718  32.429  10.599
27626W        W94694   7.877   7.252   0.473
27627W        W94695   7.266   4.877  14.421
27628W        W94696  21.576  20.055  11.572
27629W        W94697  12.768  41.937   0.955
27630W        W94698  36.964  35.862  13.327
27631W        W94699  19.561  16.158  13.034
27632W        W94700  12.240   8.703   3.706
27633W        W94701  37.075  42.940  14.841
27634W        W94702   4.208  19.564   2.199
27635W        W94703  38.895  32.932   4.648
27636W        W94704  23.706   7.199   3.746
27637W        W94705  26.697  15.311  11.588
27638W        W94706   5.857  37.485  12.900
27639W        W94707   5.758  11.354   0.436
27640W        W94708  26.529   5.265  10.454
27641W        W94709  42.446  42.989   0.410
27642W        W94710   4.740  25.177   0.483
27643W        W94711  20.140  22.214  10.412
27644W        W94712  14.153  32.115   3.315
27645W        W94713  26.144  23.701   2.242
27646W        W94714  30.433   2.275   0.301
27647W        W94715  42.414  25.507  11.581
27648W        W94716   4.713  20.765   4.114
27649W        W94717  14.192   7.816  14.893
27650W        W94718  44.323   0.768   1.739
27651W        W94719   7.674  44.360  10.571
27652W        W94720   8.293   8.337   0.854
27653W        W94721  21.628   8.199   1.766
27654W        W94722  25.998  25.505   2.804
27655W        W94723  43.378   1.393  11.484
27656W        W94724  31.952  12.168  12.014
27657W        W94725  10.677  10.777  11.111
27658W        W94726  17.291  22.135  14.411
27659W        W94727   9.664   5.716   0.376
27660W        W94728  20.601  37.886  11.602
27661W        W94729  35.928   8.726  14.324
27662W        W94730  12.252  21.128  14.819
27663W        W94731  29.646   5.830   4.213
27664W        W94732  29.968  13.619   3.205
27665W        W94733   4.294   3.312  11.376
27666W        W94734  14.736  10.742   0.910
27667W        W94735  39.458  39.934  13.323
27668W        W94736  23.651  43.969  14.422
27669W        W94737  27.117  43.813  14.971
27670W        W94738  25.696   7.201  14.021
27671W        W94739   8.377  11.828  14.830
27672W        W94740  43.877   4.863   1.411
27673W        W94741  20.064   6.760  13.998
27674W        W94742  31.462  36.939   1.309
27675W        W94743  17.171  37.579  13.340
27676W        W94744  40.010  23.527   3.370
27677W        W94745  38.858  39.917   1.316
27678W        W94746  40.006  38.059   1.416
27679W        W94747  43.285  21.604  11.950
27680W        W94748   4.890  44.282   5.291
27681W        W94749  18.084  36.557  13.821
27682W        W94750   3.711  12.269   1.284
27683W        W94751  42.449  25.497   1.741
27684W        W94752  29.626  39.315  11.934
27685W        W94753  10.743  14.624   1.732
27686W        W94754   4.436   7.266  13.454
27687W        W94755  17.656   5.917   4.600
27688W        W94756  17.116  15.092  13.412
27689W        W94757  39.395  13.714   0.921
27690W        W94758   3.862  14.229   1.263
27691W        W94759  36.379  29.531  13.381
27692W        W94760  12.158  25.172  14.399
27693W        W94761  44.314  42.819   3.200
27694W        W94762  43.980  32.086  13.886
27695W        W94763  10.256  22.675  13.331
27696W        W94764  10.717  17.177  10.413
27697W        W94765  12.259  10.203  10.621
27698W        W94766  25.477  35.413   0.947
27699W        W94767   8.834  22.999  11.863
27700W        W94768  35.025   7.794  14.280
27701W        W94769  14.111  19.178   3.223
27702W        W94770  41.926  21.047  12.476
27703W        W94771  25.058  16.117   2.899
27704W        W94772  25.669  12.716   4.720
27705W        W94773  15.622   0.356   4.288
27706W        W94774   4.379   8.216   1.432
27707W        W94775  33.895  31.450   2.334
27708W        W94776  21.242  20.541   1.278
27709W        W94777  16.295  15.271  13.899
27710W        W94778  43.270  38.453   3.709
27711W        W94779   1.377   6.920   0.425
27712W        W94780  36.487   3.449  13.043
27713W        W94781   2.831   0.857  10.447
27714W        W94782  36.376  13.840   4.644
27715W        W94783  17.660  41.882   1.417
27716W        W94784  31.135   8.788   4.326
27717W        W94785  20.225  41.030   1.856
27718W        W94786  24.627   1.251  11.953
27719W        W94787  31.511  37.988  14.392
27720W        W94788   0.451  24.633  13.342
27721W        W94789  19.178  19.121   1.749
27722W        W94790   9.785  36.000  13.361
27723W        W94791  32.623   8.221   4.121
27724W        W94792  16.168  25.599  11.031
27725W        W94793  42.853   1.805   2.809
27726W        W94794   0.382  10.164   3.767
27727W        W94795   7.888  29.960   3.714
27728W        W94796   9.775  41.538  14.941
27729W        W94797  29.572  16.635  14.921
27730W        W94798   0.896  10.283  11.401
27731W        W94799  42.851  21.263  11.440
27732W        W94800  17.610  19.612   1.923
27733W        W94801   7.756  18.296   0.245
27734W        W94802  10.164  12.126   4.306
27735W        W94803  27.503  19.079  14.874
27736W        W94804  34.584  44.327  14.914
27737W        W94805   0.942  15.215   0.242
27738W        W94806  33.105  35.544  10.581
27739W        W94807  20.218  32.622  14.491
27740W        W94808  41.827   4.846  13.320
27741W        W94809  22.554  13.774   1.905
27742W        W94810   6.318  34.999  10.622
27743W        W94811   4.372  42.427  14.324
27744W        W94812  30.561   2.437  14.994
27745W        W94813  10.376  33.480  12.547
27746W        W94814  26.033  14.188  13.863
27747W        W94815   5.309  37.364   4.239
27748W        W94816   0.849  30.467  14.835
27749W        W94817  42.976  26.965  11.086
27750W        W94818   5.401  28.982  11.979
27751W        W94819  26.980  30.036  12.453
27752W        W94820  19.630  19.565  12.853
27753W        W94821  36.863  30.001  10.546
27754W        W94822   9.255  34.100  12.403
27755W        W94823   3.242  11.662   1.335
27756W        W94824  44.935   1.298   1.872
27757W        W94825  15.265   1.263  10.452
27758W        W94826  22.623  20.182  11.485
27759W        W94827  14.646  22.153  10.997
27760W        W94828  18.113  38.407  13.892
27761W        W94829  37.043  23.178  11.401
27762W        W94830  22.235  14.738  12.056
27763W        W94831  35.429   8.168   4.290
27764W        W94832  17.689   8.894   3.245
27765W        W94833  11.319  13.339  13.816
27766W        W94834  33.996   0.774  10.945
27767W        W94835  40.334   1.386   1.921
27768W        W94836  39.324  35.891  13.429
27769W        W94837  39.832  23.163   1.859
27770W        W94838   5.286  27.091  14.979
27771W        W94839  11.723  33.878  10.444
27772W        W94840  19.544  16.206   0.742
27773W        W94841  37.365  25.147   3.326
27774W        W94842  25.106  24.096  11.086
27775W        W94843  25.962   1.743  12.019
27776W        W94844  37.452  26.150  12.852
27777W        W94845  25.104   2.886   3.654
27778W        W94846  43.516  24.644  10.517
27779W        W94847  39.514   5.766  11.381
27780W        W94848  40.948   3.457  11.063
27781W        W94849  17.709  43.300   3.653
27782W        W94850   4.341  24.683   3.849
27783W        W94851   4.804  31.408  12.959
27784W        W94852  15.745  30.652  11.933
27785W        W94853  18.592  13.648  12.052
27786W        W94854  11.251  33.390  10.423
27787W        W94855  35.971   3.924  10.957
27788W        W94856  10.159  36.455   3.215
27789W        W94857  32.629  22.518  12.512
27790W        W94858   8.703  26.145  12.854
27791W        W94859  14.246   1.881   0.431
27792W        W94860   4.735  28.505  12.438
27793W        W94861  20.151   1.368  12.437
27794W        W94862  24.098  44.452   3.377
27795W        W94863  34.104  16.798   0.733
27796W        W94864  14.754  33.096  11.447
27797W        W94865  24.622   7.752  12.091
27798W        W94866   6.241   6.722  12.945
27799W        W94867  35.853  42.817   1.787
27800W        W94868   7.902  13.653  14.882
27801W        W94869   5.288  23.708  10.616
27802W        W94870   1.816   9.381  13.323
27803W        W94871  19.765  43.333   1.320
27804W        W94872   7.886  20.078   4.253
27805W        W94873  11.767  38.549  12.824
27806W        W94874  18.665   1.427   1.842
27807W        W94875  34.890  14.315   2.194
27808W        W94876  17.769  25.064  10.439
27809W        W94877  38.560  13.718   3.260
27810W        W94878  19.561  27.650   2.359
27811W        W94879  30.998  17.189   5.177
27812W        W94880  42.000  33.603   4.348
27813W        W94881  19.631  32.079   4.709
27814W        W94882   7.174  29.623   2.224
27815W        W94883  28.670  28.178   0.318
27816W        W94884   6.367   1.883   2.237
27817W        W94885  14.645  37.490   0.803
27818W        W94886  12.174   6.261  13.504
27819W        W94887   7.222   5.264  14.960
27820W        W94888  39.345  36.488  10.417
27821W        W94889  37.084   4.845  12.037
27822W        W94890   7.691  36.090  10.531
27823W        W94891  24.710  32.109  13.330
27824W        W94892  34.566  26.660   0.927
27825W        W94893   3.311  33.015   4.763
27826W        W94894  29.142  35.100  12.371
27827W        W94895  35.464   8.805   5.085
27828W        W94896  12.668  23.032  11.893
27829W        W94897   2.951   4.448   0.410
27830W        W94898  37.976  32.896  11.911
27831W        W94899  40.333   7.887   1.311
27832W        W94900  15.326  27.548  13.870
27833W        W94901  33.987  24.031  10.481
27834W        W94902  19.704   1.283   1.294
27835W        W94903   3.740   4.730  12.353
27836W        W94904  32.967  39.962  11.975
27837W        W94905  28.474   7.309   2.208
27838W        W94906   5.917  20.572   0.277
27839W        W94907   0.469  24.063  13.510
27840W        W94908  10.656  24.203   4.236
27841W        W94909  12.197  36.864   2.343
27842W        W94910  23.692   9.200  10.601
27843W        W94911   5.227  40.930   2.193
27844W        W94912  14.106  37.467   5.143
27845W        W94913   3.832  42.824   0.468
27846W        W94914  36.527  24.499   2.382
27847W        W94915  24.667  43.778   2.800
27848W        W94916  27.086  33.961  14.932
27849W        W94917  44.302  41.296  12.932
27850W        W94918   8.388  38.910   0.364
27851W        W94919  33.067   5.368  11.608
27852W        W94920  12.831  43.439   0.963
27853W        W94921  35.555  10.728   2.201
27854W        W94922  22.055   5.256  13.509
27855W        W94923  38.454  16.664   3.690
27856W        W94924  44.375  33.907  11.970
27857W        W94925   9.268  40.364  11.054
27858W        W94926  10.276  33.500   5.144
27859W        W94927  20.522  14.775   1.781
27860W        W94928   5.349  10.183   0.764
27861W        W94929  44.758   4.720  11.053
27862W        W94930  23.222  40.416   1.245
27863W        W94931   4.904  19.571  10.149
27864W        W94932  41.840  42.999  11.470
27865W        W94933  37.341  30.079  13.064
27866W        W94934  26.016  13.629  13.813
27867W        W94935  30.028  41.899   2.367
27868W        W94936  16.697  24.020  10.609
27869W        W94937   7.308  11.781   0.757
27870W        W94938  31.447  20.648  12.963
27871W        W94939  35.360  43.431   3.284
27872W        W94940  38.909  22.198  14.929
27873W        W94941   7.848  20.077   1.340
27874W        W94942  42.365  26.670  10.636
27875W        W94943  26.159  16.668  13.986
27876W        W94944  18.552  43.441   4.238
27877W        W94945   2.455  12.262  11.473
27878W        W94946   3.770  32.117  10.568
27879W        W94947  12.358  18.679   1.819
27880W        W94948  25.650  17.724   4.774
27881W        W94949  14.786  36.911   1.421
27882W        W94950  27.992  11.278   0.957
27883W        W94951  14.660  20.571   3.715
27884W        W94952  17.572   8.170   2.854
27885W        W94953  15.260  30.521   4.811
27886W        W94954  16.318  24.074   0.435
27887W        W94955   7.759   5.924  11.539
27888W        W94956  42.458  10.688   3.166
27889W        W94957  12.183  20.038   4.822
27890W        W94958  37.564  21.059   4.132
27891W        W94959  25.677  28.623  10.949
27892W        W94960  29.132  41.987   0.390
27893W        W94961   9.362  17.304   1.308
27894W        W94962   5.764  29.546  11.071
27895W        W94963  44.925  16.699  13.904
27896W        W94964   0.833   0.426  11.573
27897W        W94965   0.491   0.297  12.921
27898W        W94966   6.918  34.513   3.234
27899W        W94967  23.005  38.384  10.490
27900W        W94968  17.766  35.384   4.172
27901W        W94969  26.687  13.279  11.441
27902W        W94970  23.163  23.674  12.003
27903W        W94971  12.853  36.373  13.370
27904W        W94972  39.940  24.976   0.369
27905W        W94973  42.493  27.172   2.704
27906W        W94974  32.972  15.632   0.906
27907W        W94975  33.112  15.623   4.277
27908W        W94976   0.891  38.822   2.722
27909W        W94977  29.506  24.124  13.800
27910W        W94978  44.420  13.325   0.907
27911W        W94979  26.465   6.691   2.798
27912W        W94980   7.853   1.928   0.879
27913W        W94981  11.371  39.437  14.851
27914W        W94982  33.950  42.787   4.799
27915W        W94983  37.551  24.153   3.293
27916W        W94984  15.633   1.756   0.279
27917W        W94985  31.011  11.626   1.386
27918W        W94986  39.347  17.236   0.296
27919W        W94987  35.391  17.293   1.419
27920W        W94988   7.717  23.068  12.494
27921W        W94989  21.100  42.404   1.280
27922W        W94990  21.687  39.819  14.876
27923W        W94991  36.904   2.959   0.733
27924W        W94992   6.732  17.598   0.937
27925W        W94993   8.389  13.274  12.437
27926W        W94994  42.954  17.578  11.440
27927W        W94995  28.141  10.155  10.457
27928W        W94996  42.896  14.096  11.407
27929W        W94997  44.815  18.128   2.323
27930W        W94998  43.362  11.349   1.810
27931W        W94999  42.346  17.081  12.443
27932W        W95000  32.525   8.266   2.215
27933W        W95001  38.454   8.244  13.340
27934W        W95002  21.262  15.591  14.428
27935W        W95003   1.811  24.596   2.249
27936W        W95004  28.122  32.926  12.439
27937W        W95005  36.941  23.492   0.474
27938W        W95006  30.993  43.836  10.429
27939W        W95007  15.131  42.019  11.373
27940W        W95008  43.816   9.870  11.538
27941W        W95009  28.040  26.112  14.349
27942W        W95010  17.716   1.462   1.215
27943W        W95011  14.270   8.662  13.388
27944W        W95012   0.915  13.346   5.263
27945W        W95013  30.464   2.917  12.504
27946W        W95014   8.739  36.967  10.570
27947W        W95015  16.641   0.912  12.032
27948W        W95016  23.638  42.952   3.681
27949W        W95017  31.468   2.253  12.830
27950W        W95018  16.210   5.833  10.930
27951W        W95019  28.520   8.289   4.156
27952W        W95020  21.038  37.866  13.522
27953W        W95021  28.466   4.868   2.777
27954W        W95022  19.095  12.726   3.362
27955W        W95023  41.011   1.370   3.162
27956W        W95024  24.522   7.839   0.339
27957W        W95025  18.556   1.408   3.358
27958W        W95026  24.213  34.527  12.432
27959W        W95027   9.253  38.969   2.327
27960W        W95028  44.833   3.833  11.508
27961W        W95029  10.266   9.394  13.050
27962W        W95030  21.688  25.121   2.721
27963W        W95031  44.854  43.278   3.287
27964W        W95032  25.519  38.365   2.348
27965W        W95033   6.413  31.110   3.215
27966W        W95034  11.261  39.315  13.337
27967W        W95035  35.366  28.664  13.953
27968W        W95036  14.598  14.757   3.818
27969W        W95037  13.344  32.908   1.756
27970W        W95038  39.556  43.787  11.089
27971W        W95039  35.527  23.989  11.858
27972W        W95040  14.277  25.648   1.724
27973W        W95041  15.667  29.103   2.232
27974W        W95042  16.594  22.070  11.481
27975W        W95043   2.425  21.570   2.784
27976W        W95044  37.558  24.150  13.478
27977W        W95045  20.180  38.940   3.630
27978W        W95046  14.115  37.060   1.242
27979W        W95047  14.127   0.268  12.499
27980W        W95048  26.092   9.687  10.937
27981W        W95049  11.844  19.230   4.318
27982W        W95050  27.946  25.145   1.769
27983W        W95051  17.067  16.079   0.749
27984W        W95052  16.205   0.983  13.393
27985W        W95053  38.893  18.220   4.819
27986W        W95054  27.594  13.819  12.841
27987W        W95055  15.279  32.545  11.445
27988W        W95056  22.037  31.012  11.894
27989W        W95057  33.972  20.208  13.502
27990W        W95058  28.580  27.006   4.607
27991W        W95059  33.520  43.864   1.706
27992W        W95060  44.888  22.588   1.812
27993W        W95061  10.384  36.495   2.291
27994W        W95062  44.388  18.097  13.537
27995W        W95063   8.370  28.468   4.126
27996W        W95064   7.372  28.034  14.905
27997W        W95065  18.096  31.089  12.453
27998W        W95066  11.799  41.409   1.218
27999W        W95067   7.854  27.647   3.762
28000W        W95068  18.722   3.841   1.236
28001W        W95069  24.617  20.530  12.927
28002W        W95070  41.888  29.514   1.858
28003W        W95071   2.904  23.055   1.219
28004W        W95072  33.584  25.008  10.497
28005W        W95073  10.740   2.937   2.264
28006W        W95074  33.452  35.524   1.765
28007W        W95075  41.407  12.255  13.450
28008W        W95076  15.801   6.261  14.308
28009W        W95077  35.965  10.842  14.280
28010W        W95078  23.583  31.941  12.533
28011W        W95079  29.650  23.050   4.163
28012W        W95080  43.880  32.110   4.640
28013W        W95081  44.983  18.548  14.349
28014W        W95082  33.962  14.792  12.499
28015W        W95083  28.054  39.989  12.545
28016W        W95084  22.185   2.790  11.888
28017W        W95085  12.178  41.384  12.532
28018W        W95086   2.741   9.871  13.847
28019W        W95087  33.042  39.893   0.473
28020W        W95088  26.588  13.658   1.270
28021W        W95089  12.697  33.588  12.991
28022W        W95090   7.207  29.503  13.462
28023W        W95091  21.690  39.011   3.203
28024W        W95092  40.880  44.853  12.522
28025W        W95093  34.016  35.461   3.764
28026W        W95094  40.302   9.794   0.471
28027W        W95095   6.283  16.082  11.955
28028W        W95096  14.310  17.130   1.288
28029W        W95097  35.499  16.695  13.498
28030W        W95098   6.828  43.484   3.172
28031W        W95099  16.103  15.210  11.894
28032W        W95100  38.394   2.764  14.455
28033W        W95101  17.792  18.578  12.539
28034W        W95102  24.151  25.660   3.870
28035W        W95103   5.231  14.187  13.949
28036W        W95104  10.761  34.031   0.311
28037W        W95105  29.428  22.605  11.900
28038W        W95106   6.280   9.276  13.822
28039W        W95107  21.140  22.534   1.806
28040W        W95108  29.510  33.485   4.198
28041W        W95109  34.046  17.219   2.873
28042W        W95110  28.174   9.204  12.400
28043W        W95111  40.880  40.305  14.995
28044W        W95112  43.966  24.981   3.248
28045W        W95113  20.731  38.346  13.353
28046W        W95114  17.253  19.099   3.866
28047W        W95115   2.849  28.492  11.610
28048W        W95116  28.620  24.694   3.792
28049W        W95117  21.102  25.496  10.534
28050W        W95118  37.549   4.337   2.876
28051W        W95119   4.847   0.329   0.777
28052W        W95120  34.108   1.917  11.039
28053W        W95121  38.419  15.744   2.224
28054W        W95122  40.037   9.702  12.065
28055W        W95123  30.471   1.303   2.397
28056W        W95124  15.102   1.779   2.688
28057W        W95125  21.115  23.213   4.344
28058W        W95126  19.275  25.186  14.966
28059W        W95127  25.094  30.487  12.988
28060W        W95128  11.727   8.688   4.320
28061W        W95129  29.585  21.523   2.725
28062W        W95130   8.187  21.028   4.639
28063W        W95131  28.938  13.262  11.494
28064W        W95132  41.788   6.227  10.566
28065W        W95133  12.703  26.637   4.741
28066W        W95134  19.224  16.204  11.547
28067W        W95135   2.449   7.194  14.463
28068W        W95136  11.279  33.554   2.782
28069W        W95137  10.235  16.148   3.379
28070W        W95138  11.130  22.086  10.616
28071W        W95139   0.281  42.822  11.470
28072W        W95140   4.207  22.106  13.976
28073W        W95141  31.030  23.685   0.916
28074W        W95142   2.929  40.882   0.285
28075W        W95143   4.892  37.338  13.391
28076W        W95144  19.048   4.432   3.321
28077W        W95145  18.142  40.451  12.963
28078W        W95146  16.696  23.578  11.879
28079W        W95147   6.272   4.879   2.266
28080W        W95148  21.175  14.808  13.827
28081W        W95149  28.101  38.962   1.334
28082W        W95150  18.632  17.179  10.066
28083W        W95151   4.722  27.688  10.458
28084W        W95152   9.177   7.692   0.422
28085W        W95153  41.000  36.593   2.307
28086W        W95154  32.561  19.139  10.980
28087W        W95155  41.401   4.770   3.351
28088W        W95156   3.237  39.385   2.354
28089W        W95157  11.202  42.303  10.404
28090W        W95158  35.008   8.678   2.412
28091W        W95159   6.305   7.680   4.283
28092W        W95160  14.811  35.049  13.384
28093W        W95161   0.442  15.165   1.892
28094W        W95162  40.969  43.463  13.963
28095W        W95163  31.415   3.741  13.473
28096W        W95164  28.070  12.688  12.979
28097W        W95165  18.694  26.142  13.387
28098W        W95166  10.196  41.887  14.416
28099W        W95167   4.210  14.680  14.505
28100W        W95168  37.402  11.160   1.867
28101W        W95169  26.481  15.592  12.343
28102W        W95170   2.778   2.843   2.889
28103W        W95171   7.853  33.395   5.122
28104W        W95172  14.752  18.724   2.185
28105W        W95173  25.559  19.044  14.932
28106W        W95174   6.831   2.813  12.368
28107W        W95175  39.540  11.314   4.140
28108W        W95176  23.585  11.194  12.906
28109W        W95177  15.182  24.032  13.376
28110W        W95178  33.472  20.182  14.994
28111W        W95179   5.271  41.305   4.301
28112W        W95180  30.972  43.984  13.901
28113W        W95181  41.959  22.208  14.484
28114W        W95182  22.631  10.241   4.744
28115W        W95183  23.079  37.557   1.882
28116W        W95184  44.271  28.520  12.073
28117W        W95185  44.865  22.507   2.212
28118W        W95186   2.885   7.753  14.887
28119W        W95187  17.260   5.813  14.341
28120W        W95188  30.912  19.176   1.716
28121W        W95189  12.180  42.282  11.980
28122W        W95190  38.490  33.536  14.965
28123W        W95191  35.452  37.566  12.444
28124W        W95192  23.147  28.591  10.969
28125W        W95193  34.581  30.643  11.945
28126W        W95194  19.224  40.531  14.329
28127W        W95195   6.848   8.384  13.028
28128W        W95196  23.105  36.886   0.815
28129W        W95197  16.643  14.158   0.783
28130W        W95198  15.577   8.368   2.709
28131W        W95199  13.616  42.910  14.383
28132W        W95200  30.985  44.435   1.771
28133W        W95201   0.798  14.293   1.438
28134W        W95202  36.484  36.059  10.910
28135W        W95203  37.978  41.021  12.377
28136W        W95204  33.091  38.547  10.523
28137W        W95205  37.870  30.945   2.218
28138W        W95206  29.073  38.467   0.442
28139W        W95207   9.262   1.880   3.835
28140W        W95208  33.615  21.060  12.423
28141W        W95209  31.493  31.924  12.947
28142W        W95210  19.714  38.374  11.510
28143W        W95211  20.151   3.421   5.207
28144W        W95212  13.788  18.752  10.434
28145W        W95213  37.454  12.239   1.717
28146W        W95214  10.356  14.105  10.137
28147W        W95215  12.813  35.978  14.816
28148W        W95216  37.998   4.302  14.410
28149W        W95217  32.407  33.615  14.825
28150W        W95218  40.428   2.393   1.884
28151W        W95219   7.729  34.045   0.346
28152W        W95220  29.624  33.551   2.275
28153W        W95221  29.501   0.949  12.440
28154W        W95222  19.579  19.540   0.260
28155W        W95223   6.787  22.162  11.015
28156W        W95224  16.206  40.473  12.389
28157W        W95225  40.801  37.468  12.919
28158W        W95226  44.996  10.653   0.761
28159W        W95227  42.016  15.818   2.663
28160W        W95228  11.346  16.805  12.466
28161W        W95229  26.498  31.091   1.871
28162W        W95230  38.430  16.609  13.506
28163W        W95231  35.886  36.405  12.564
28164W        W95232   0.910  37.364   4.137
28165W        W95233  40.393  34.119   3.750
28166W        W95234  10.151  31.051   2.224
28167W        W95235  33.045  18.069   2.299
28168W        W95236  20.203  11.227   0.761
28169W        W95237  38.389  34.878  10.582
28170W        W95238   9.374  24.136   3.727
28171W        W95239  38.930   1.891   1.735
28172W        W95240  34.390  18.663  12.380
28173W        W95241  32.899  35.364  12.880
28174W        W95242  28.537   4.889   3.347
28175W        W95243  43.883  34.402   2.416
28176W        W95244  35.383  16.224  10.643
28177W        W95245   2.346   0.773   0.914
28178W        W95246  38.414  15.320  14.988
28179W        W95247  37.971   1.929  12.512
28180W        W95248  22.038  38.532   0.843
28181W        W95249  15.277  41.526   1.281
28182W        W95250  14.640  15.136   0.244
28183W        W95251  28.049  37.926  14.472
28184W        W95252  29.946  19.735  11.518
28185W        W95253   9.233  23.015   3.269
28186W        W95254  31.060  22.537   4.639
28187W        W95255  18.638  27.532   5.741
28188W        W95256   4.285  31.954   1.744
28189W        W95257   6.346  10.331  12.035
28190W        W95258  37.056  43.826   3.350
28191W        W95259  21.133  44.290  11.893
28192W        W95260  11.258  34.422   2.814
28193W        W95261   0.317  42.307  13.994
28194W        W95262  18.053  19.157   1.774
28195W        W95263   2.921  16.206  13.484
28196W        W95264  16.642  39.945  13.863
28197W        W95265   6.288   2.276  10.977
28198W        W95266   8.675  42.452  11.973
28199W        W95267   3.906  22.118   4.778
28200W        W95268  29.929  22.196  11.446
28201W        W95269   9.162  33.526   4.769
28202W        W95270   3.738  36.055   1.700
28203W        W95271  18.613  13.125   1.836
28204W        W95272  24.523  37.969  12.381
28205W        W95273  26.503  12.344  10.446
28206W        W95274  29.564  13.238  12.025
28207W        W95275  24.165   3.233   0.422
28208W        W95276  39.318  43.456   0.921
28209W        W95277  29.125  37.382  10.429
28210W        W95278   7.274  38.846  11.896
28211W        W95279   6.844  14.323  14.369
28212W        W95280   2.337  27.993   3.673
28213W        W95281  13.121  21.589   0.924
28214W        W95282  17.244  18.210  12.554
28215W        W95283   9.152  34.475  14.418
28216W        W95284  27.108  10.750   2.870
28217W        W95285  17.084  25.181   4.326
28218W        W95286  19.234  27.170   0.403
28219W        W95287  38.490  35.875  12.937
28220W        W95288  43.346  13.605  11.009
28221W        W95289   0.904  32.001   0.859
28222W        W95290  20.040  31.965   2.776
28223W        W95291   8.229  16.301  13.430
28224W        W95292  35.060  13.634   0.939
28225W        W95293  20.194  31.482  14.306
28226W        W95294  33.450  33.568  12.050
28227W        W95295  34.951   0.904  13.912
28228W        W95296  33.062   8.820  13.432
28229W        W95297   3.783  19.628   4.316
28230W        W95298  30.490  14.122   4.341
28231W        W95299  24.019  41.992   1.726
28232W        W95300  41.399  40.928   2.781
28233W        W95301  28.130  32.637  12.432
28234W        W95302  32.050  19.236   0.895
28235W        W95303  15.735   2.760   0.899
28236W        W95304   9.259  22.189  14.307
28237W        W95305  43.358  15.312  11.867
28238W        W95306  31.480  32.071   1.236
28239W        W95307  41.801  44.876  12.348
28240W        W95308   5.906   6.693  12.044
28241W        W95309  21.151   5.919  12.494
28242W        W95310  21.586  37.913   4.305
28243W        W95311  37.404  20.258  14.815
28244W        W95312  10.182  26.091  10.519
28245W        W95313   8.834  32.009   5.288
28246W        W95314  30.078  16.092   2.830
28247W        W95315   8.177  27.013  14.776
28248W        W95316  28.989  21.210   2.681
28249W        W95317  22.040   5.824   2.860
28250W        W95318   7.255  42.971  11.486
28251W        W95319  33.557  35.892   4.185
28252W        W95320  26.197   6.243   3.828
28253W        W95321   1.810  32.418   3.829
28254W        W95322  21.237   1.786   2.379
28255W        W95323  41.960  17.275  14.381
28256W        W95324  34.094   1.305  11.112
28257W        W95325  26.009  27.572  14.373
28258W        W95326  38.391  25.130   0.877
28259W        W95327  33.388   4.315  14.953
28260W        W95328  28.100   0.785  14.758
28261W        W95329  37.000  37.462   1.354
28262W        W95330  43.314  27.974  11.005
28263W        W95331  43.515  25.189  12.459
28264W        W95332  16.752   7.857   0.294
28265W        W95333  28.581  35.952  13.958
28266W        W95334  22.741   0.896   0.785
28267W        W95335  39.508  12.157  14.833
28268W        W95336  34.477  27.681   3.341
28269W        W95337  14.250  34.387  13.865
28270W        W95338  12.781   4.441   1.406
28271W        W95339  35.502  40.352  13.378
28272W        W95340  26.655   8.875   1.422
28273W        W95341  42.793  39.911   0.729
28274W        W95342  29.528   4.707   5.089
28275W        W95343  36.907  20.108  14.413
28276W        W95344  17.272  33.102  14.881
28277W        W95345  11.727   6.375   2.209
28278W        W95346  18.168  12.645   1.808
28279W        W95347   4.702  33.075  12.390
28280W        W95348  22.253   3.781  11.016
28281W        W95349  40.814  36.019   0.892
28282W        W95350  42.313  13.676  13.970
28283W        W95351   7.741  38.880  12.423
28284W        W95352   7.840   3.434   3.731
28285W        W95353   6.197  44.841  13.416
28286W        W95354  41.459  24.017   0.387
28287W        W95355   9.222  26.563   9.943
28288W        W95356   8.751  26.605  12.995
28289W        W95357   8.747  28.454   1.430
28290W        W95358  27.134  11.808   0.341
28291W        W95359  18.694  44.869   0.858
28292W        W95360  41.482  32.941   3.772
28293W        W95361  32.403   4.392  13.490
28294W        W95362  36.587  20.215  10.477
28295W        W95363  32.632  29.148  13.959
28296W        W95364   8.897  10.786   3.686
28297W        W95365  40.493  33.002  11.895
28298W        W95366  17.111   3.393  10.016
28299W        W95367  42.909  28.033  11.418
28300W        W95368  35.395   1.248   1.366
28301W        W95369  20.252  29.496   0.730
28302W        W95370  22.580  27.602   4.818
28303W        W95371   5.869   4.768   2.178
28304W        W95372  28.048  17.301  13.954
28305W        W95373   0.815  24.979   3.278
28306W        W95374   4.417   6.374  12.983
28307W        W95375  43.962  18.787  14.861
28308W        W95376   6.734  19.243  12.901
28309W        W95377  32.905  18.590   2.223
28310W        W95378  27.679  14.218  12.553
28311W        W95379  35.882  42.474   3.175
28312W        W95380  31.516  21.611   4.713
28313W        W95381  24.062  35.907   1.367
28314W        W95382  27.185  22.017   1.424
28315W        W95383  23.546  35.515  13.474
28316W        W95384  27.022  29.030  13.853
28317W        W95385  13.834  12.744  12.345
28318W        W95386  16.658   9.781   0.762
28319W        W95387  44.827   8.834  10.404
28320W        W95388  43.803  35.972   1.279
28321W        W95389  35.464   5.416   2.796
28322W        W95390   2.735  31.471  11.894
28323W        W95391   2.351   9.858   4.656
28324W        W95392  42.522  17.192   1.765
28325W        W95393  17.577  42.889  14.453
28326W        W95394   1.253  25.543  12.467
28327W        W95395  33.012  16.172  11.371
28328W        W95396  30.512   5.725   1.271
28329W        W95397   8.254  44.818  14.346
28330W        W95398   8.847  21.054  10.576
28331W        W95399  23.502  18.652   3.159
28332W        W95400  36.397   1.861  12.004
28333W        W95401   9.151  20.137  13.962
28334W        W95402  44.813   2.457   0.812
28335W        W95403  43.821  19.582  10.626
28336W        W95404   8.771  28.495  13.955
28337W        W95405  44.780  39.945   0.249
28338W        W95406   4.216  36.941  14.811
28339W        W95407  32.575  22.998   1.431
28340W        W95408  37.996  27.454  11.035
28341W        W95409  31.031  25.215   0.912
28342W        W95410   4.750   5.210   1.352
28343W        W95411   9.204  22.052   0.438
28344W        W95412  36.521  40.470   0.273
28345W        W95413   6.732   2.766   4.284
28346W        W95414   2.394  29.104   2.298
28347W        W95415  39.937  30.987  12.370
28348W        W95416   0.968  36.540  11.032
28349W        W95417   6.910  41.030   2.894
28350W        W95418  38.052  37.393  13.051
28351W        W95419  36.426  15.678  10.073
28352W        W95420  19.728  32.494   1.921
28353W        W95421  30.444  30.940  14.785
28354W        W95422   1.847   7.694   2.796
28355W        W95423   8.748  32.393  12.071
28356W        W95424  17.757  39.422   3.332
28357W        W95425  23.123   1.898   2.828
28358W        W95426  10.225  17.610  14.992
28359W        W95427   2.817  43.314  12.437
28360W        W95428  12.617  43.288   3.676
28361W        W95429  43.903  26.521   1.433
28362W        W95430  39.523  10.239   4.260
28363W        W95431  31.426  34.048  12.460
28364W        W95432  18.627  11.287   3.244
28365W        W95433  32.629  37.049   4.610
28366W        W95434   4.931  33.413  14.920
28367W        W95435  44.342  29.103   3.335
28368W        W95436  10.348  20.738   1.855
28369W        W95437  41.389   9.323   2.714
28370W        W95438   5.829  33.991  13.001
28371W        W95439   5.269  16.702  11.949
28372W        W95440  22.143  30.920   3.246
28373W        W95441  31.571  17.631  13.798
28374W        W95442  31.483  23.677   9.552
28375W        W95443  12.228  10.344  12.414
28376W        W95444  24.568  32.444   3.638
28377W        W95445  19.602   9.339  10.966
28378W        W95446  24.142  37.005  12.950
28379W        W95447  36.916   9.698  11.962
28380W        W95448  13.624  10.711  13.952
28381W        W95449  29.036  34.440   4.763
28382W        W95450  13.609  30.000  14.864
28383W        W95451  39.065   5.829  13.815
28384W        W95452   2.792   1.732  12.897
28385W        W95453   3.240  25.514  13.865
28386W        W95454  16.130   1.348  13.844
28387W        W95455   8.331   9.773   4.175
28388W        W95456  23.732  12.169  14.763
28389W        W95457  11.154  36.466  13.832
28390W        W95458  29.172  30.953   0.479
28391W        W95459  21.038  24.064   5.162
28392W        W95460  25.998  26.570  14.421
28393W        W95461  36.426  37.006   3.662
28394W        W95462   0.389  24.700  14.935
28395W        W95463  24.202  28.054   4.276
28396W        W95464  39.942  25.079  11.434
28397W        W95465  31.506   2.866  12.021
28398W        W95466  20.045  19.763  10.109
28399W        W95467  44.808  21.613   1.723
28400W        W95468  18.649  27.021   1.378
28401W        W95469  35.003   0.899  10.946
28402W        W95470  25.180  32.443   3.195
28403W        W95471  14.762   7.348  13.491
28404W        W95472  32.466  35.407   1.791
28405W        W95473  43.784  22.565   2.699
28406W        W95474  28.957   9.884  12.446
28407W        W95475  41.494   5.896  14.763
28408W        W95476   7.217  26.697  13.893
28409W        W95477  22.187   5.829  13.307
28410W        W95478  23.709  33.063  12.569
28411W        W95479  28.066  32.460   2.287
28412W        W95480  23.085   2.736  14.878
28413W        W95481   8.720   8.878   4.758
28414W        W95482  42.317  40.967  12.924
28415W        W95483  11.293  12.178  10.479
28416W        W95484   4.917   0.891   4.192
28417W        W95485  25.497   2.892   4.287
28418W        W95486   9.730  27.608  10.541
28419W        W95487   4.357  43.498  13.530
28420W        W95488  33.899  25.155  11.987
28421W        W95489  39.989   3.295   0.872
28422W        W95490  26.197   8.318   2.867
28423W        W95491   7.357  39.035  11.444
28424W        W95492  36.479   0.461   2.836
28425W        W95493   9.676  22.164   4.791
28426W        W95494   5.344  43.912   3.839
28427W        W95495  25.190  36.902   4.213
28428W        W95496  14.671  16.667  12.466
28429W        W95497  10.376  11.146  13.031
28430W        W95498  28.035  36.388  14.309
28431W        W95499  33.451  15.158  13.417
28432W        W95500  28.665  39.819  14.381
28433W        W95501   9.808  43.403   4.126
28434W        W95502  27.105  22.140  12.464
28435W        W95503  31.643  27.970  10.407
28436W        W95504  23.073  14.830   4.140
28437W        W95505  14.262   2.903  13.369
28438W        W95506  36.963  15.137  13.466
28439W        W95507   5.710  34.886   1.708
28440W        W95508  24.714  16.155  12.068
28441W        W95509   0.276  40.451  12.084
28442W        W95510  37.480  16.220  12.571
28443W        W95511  27.585  20.191  11.034
28444W        W95512  38.956  30.653  12.051
28445W        W95513  32.017  29.504   5.141
28446W        W95514  41.947  25.594   2.266
28447W        W95515   0.837  29.456   1.748
28448W        W95516   2.318  43.782  12.475
28449W        W95517  18.140  10.785  13.383
28450W        W95518  38.034  14.245  11.893
28451W        W95519  44.935  32.594  12.579
28452W        W95520   8.836  31.920   4.330
28453W        W95521   2.343   7.854  13.795
28454W        W95522  10.191   7.716   4.750
28455W        W95523  24.717   6.365   2.225
28456W        W95524   4.316  21.703   1.245
28457W        W95525  41.983  15.270  11.426
28458W        W95526   2.356   8.728  12.500
28459W        W95527  38.851  40.527   1.728
28460W        W95528  25.668   2.255  13.350
28461W        W95529   9.760   8.205  10.507
28462W        W95530   5.231  28.670   4.723
28463W        W95531  28.151  33.114   2.318
28464W        W95532  23.227   3.846   3.317
28465W        W95533  36.360  32.600   2.345
28466W        W95534  36.916  38.421   0.435
28467W        W95535   5.696  20.656   3.259
28468W        W95536   1.771  31.048   1.828
28469W        W95537  38.387  26.989  12.863
28470W        W95538  36.593  20.179   4.308
28471W        W95539   8.232  36.055  13.339
28472W        W95540   6.220  21.687   3.173
28473W        W95541   8.743  26.967   2.212
28474W        W95542  43.956  20.142  11.487
28475W        W95543  31.427  44.003   1.728
28476W        W95544  39.454  38.858   3.823
28477W        W95545  40.436  16.108  13.939
28478W        W95546  34.460  29.434   1.347
28479W        W95547   9.305  26.665   0.806
28480W        W95548  22.083   2.434   2.731
28481W        W95549  34.068  35.109  11.993
28482W        W95550  32.597  20.677  12.354
28483W        W95551   8.202  22.040   3.854
28484W        W95552  44.356  22.587   2.411
28485W        W95553  20.117   1.790   0.763
28486W        W95554  10.683  43.768  10.969
28487W        W95555  23.707   7.179  12.035
28488W        W95556  42.304   4.228   4.651
28489W        W95557  30.163  16.264   1.923
28490W        W95558  39.544  21.171  10.497
28491W        W95559   4.924  10.711   4.256
28492W        W95560  24.585   7.755  12.948
28493W        W95561   0.787  43.009  10.085
28494W        W95562   2.373  28.521  11.090
28495W        W95563  20.731  39.936   0.776
28496W        W95564  40.819   9.339  12.011
28497W        W95565  26.531  32.009  14.776
28498W        W95566  30.610  14.612   0.959
28499W        W95567  39.935  32.058  12.369
28500W        W95568   8.214  42.456   1.920
28501W        W95569  28.477  13.262  13.323
28502W        W95570  21.533   6.224  13.026
28503W        W95571  15.664  10.158   0.478
28504W        W95572   7.877   0.916   3.662
28505W        W95573  13.227  31.988   3.732
28506W        W95574   2.460   9.150  11.420
28507W        W95575  38.560  25.586   4.148
28508W        W95576  24.990  16.735  11.895
28509W        W95577  33.909  27.141   3.337
28510W        W95578  16.247  24.122  14.427
28511W        W95579  25.042  42.419  11.964
28512W        W95580  17.234  34.023   4.718
28513W        W95581  36.884  28.471  12.362
28514W        W95582  13.307  26.491   5.149
28515W        W95583  44.437  22.253  13.945
28516W        W95584  30.413  40.970  14.439
28517W        W95585  35.596  14.155  14.289
28518W        W95586   2.442  21.718  13.032
28519W        W95587   4.918  41.422   3.711
28520W        W95588  34.580  12.673  11.387
28521W        W95589   2.302   9.386   2.387
28522W        W95590  41.917  36.447   3.758
28523W        W95591   7.900  17.132  11.587
28524W        W95592   4.835  39.888  13.368
28525W        W95593   2.380  20.746  11.058
28526W        W95594  12.852  30.946   2.787
28527W        W95595  17.560  16.693   4.637
28528W        W95596  38.830  11.627   4.252
28529W        W95597  44.858  42.831  11.963
28530W        W95598  44.386  12.231   4.133
28531W        W95599  39.952  13.695  12.078
28532W        W95600  15.295  22.105  12.957
28533W        W95601  15.329   0.412  12.936
28534W        W95602  31.442  22.570  13.389
28535W        W95603  26.544  38.356  14.909
28536W        W95604  38.003  10.158  10.065
28537W        W95605  26.516   3.886  13.847
28538W        W95606   3.404  17.689  14.932
28539W        W95607  29.153  14.157  13.814
28540W        W95608  23.670   8.764   3.706
28541W        W95609   8.838   5.927  13.469
28542W        W95610  23.565  44.482   1.837
28543W        W95611  13.642  44.792   3.662
28544W        W95612  42.296  11.179   2.899
28545W        W95613  20.103  26.026   0.935
28546W        W95614  23.227  25.111  13.403
28547W        W95615  12.358  30.143  14.456
28548W        W95616  12.841  37.054  11.100
28549W        W95617  32.955   0.864   3.651
28550W        W95618  18.658   8.672   0.730
28551W        W95619  34.532  24.142   2.818
28552W        W95620  32.635  34.035   4.299
28553W        W95621  33.910  29.992   4.677
28554W        W95622   1.295  29.131  11.907
28555W        W95623  27.608  22.053  12.967
28556W        W95624   5.246  37.543  11.927
28557W        W95625  37.086  38.514   4.248
28558W        W95626  26.077   5.430  13.358
28559W        W95627   5.371  24.192   4.645
28560W        W95628  11.859  30.134  14.907
28561W        W95629  26.608  17.161   3.852
28562W        W95630   0.390  32.419   2.723
28563W        W95631  43.014  26.022   2.769
28564W        W95632  30.472  38.418  11.515
28565W        W95633  30.654  10.362   4.608
28566W        W95634  11.354   8.787  14.280
28567W        W95635  10.296  15.585  12.851
28568W        W95636  28.498   8.286  11.121
28569W        W95637  25.570  12.831   9.975
28570W        W95638   8.690  41.352  10.574
28571W        W95639   1.768  23.143  14.880
28572W        W95640  14.809  30.918   3.817
28573W        W95641   9.238  29.670  10.567
28574W        W95642  36.537  24.586  13.014
28575W        W95643  20.056  33.467  11.067
28576W        W95644  41.301  32.463  12.009
28577W        W95645  41.520  32.412   0.736
28578W        W95646  23.527  17.272  14.436
28579W        W95647  33.407  29.618  13.830
28580W        W95648  41.450  20.684  12.920
28581W        W95649  13.145  12.181   0.779
28582W        W95650  25.620  24.645  13.329
28583W        W95651  22.533  15.629  11.859
28584W        W95652  15.678  24.190   4.139
28585W        W95653  17.630  16.667  12.345
28586W        W95654  19.055  38.382   1.230
28587W        W95655  15.688  31.018  11.878
28588W        W95656  36.530  27.104   1.857
28589W        W95657  44.474  10.844   9.994
28590W        W95658   1.944  23.492  14.947
28591W        W95659  24.701  13.600   1.898
28592W        W95660   9.835  36.468  10.558
28593W        W95661  15.233  27.972  12.344
28594W        W95662  17.069  15.164   0.435
28595W        W95663  38.827  33.958  10.507
28596W        W95664  15.291  36.926   2.754
28597W        W95665   1.287  38.056   0.793
28598W        W95666  24.592  33.056   3.632
28599W        W95667   4.835  26.574   0.854
28600W        W95668  24.049  12.695  12.064
28601W        W95669  18.562  12.837   2.348
28602W        W95670   4.362  14.650   1.345
28603W        W95671  21.609  44.326  14.474
28604W        W95672  43.474  18.178   1.784
28605W        W95673  21.539  21.239  10.585
28606W        W95674  13.610  21.635   4.344
28607W        W95675  20.035  13.780   3.659
28608W        W95676   5.203   6.810  12.947
28609W        W95677   0.978   4.732   3.821
28610W        W95678  21.067  42.867  10.430
28611W        W95679  37.531  31.000   0.264
28612W        W95680  11.825  26.199  11.480
28613W        W95681  33.082  34.386   1.437
28614W        W95682   8.892  32.973   3.369
28615W        W95683  36.508  36.460   2.387
28616W        W95684  25.699   6.700   1.815
28617W        W95685  13.688  17.610   0.940
28618W        W95686  16.104  25.970  11.937
28619W        W95687  34.397  42.397   0.270
28620W        W95688  18.091  43.399  13.047
28621W        W95689  29.003  23.714   1.921
28622W        W95690   1.888   6.420   1.904
28623W        W95691  14.813  35.425   2.343
28624W        W95692  38.889  27.174  10.629
28625W        W95693   4.780  36.382  14.906
28626W        W95694   8.813  17.196   2.260
28627W        W95695  14.325  25.168  11.978
28628W        W95696  12.337   5.245   1.315
28629W        W95697  11.823  33.417  14.872
28630W        W95698  28.056  17.133  14.282
28631W        W95699   5.730  28.032   2.707
28632W        W95700  14.180   6.717  12.380
28633W        W95701   7.253  23.637   0.741
28634W        W95702  30.610  13.671   1.233
28635W        W95703  26.700  34.495   1.422
28636W        W95704  10.873   6.183  12.097
28637W        W95705  11.189  22.067  11.476
28638W        W95706  35.085   5.378  14.465
28639W        W95707  24.206  32.441  11.958
28640W        W95708   5.775  38.473   2.279
28641W        W95709   7.760  20.188  11.007
28642W        W95710  42.791  21.522  10.636
28643W        W95711  35.059  42.471   1.924
28644W        W95712   9.236  11.688  11.493
28645W        W95713  42.306   8.698  14.354
28646W        W95714  38.039  24.645  13.517
28647W        W95715   7.213  24.649  14.318
28648W        W95716  11.264  26.607  14.022
28649W        W95717  23.556   3.424   3.157
28650W        W95718  17.771  44.011   2.398
28651W        W95719   1.468  11.710   1.795
28652W        W95720  31.461  35.514   3.249
28653W        W95721  43.016  18.560  11.071
28654W        W95722  15.760  22.216  13.392
28655W        W95723   3.788  40.493   9.954
28656W        W95724  36.013  12.285   1.250
28657W        W95725   4.907  26.684  11.584
28658W        W95726  34.413  12.360  12.576
28659W        W95727  11.801  19.635  10.553
28660W        W95728  29.468   5.738  14.453
28661W        W95729  21.259  29.450  13.487
28662W        W95730   2.897  39.362   0.416
28663W        W95731  36.996  13.170  14.331
28664W        W95732  29.554  40.317   1.766
28665W        W95733  14.633   8.209  14.462
28666W        W95734   6.184  19.593  13.448
28667W        W95735  22.609  35.408   2.820
28668W        W95736  40.803   4.310   0.833
28669W        W95737   4.422  16.610   3.769
28670W        W95738  44.764  37.399  13.541
28671W        W95739  38.448  12.189   4.716
28672W        W95740  39.378  40.809   0.432
28673W        W95741   9.237  19.209  10.506
28674W        W95742  24.518   2.226   4.200
28675W        W95743  34.579  11.283  10.495
28676W        W95744  26.129  28.020   2.714
28677W        W95745   5.371  34.387  10.533
28678W        W95746   1.882  27.085  13.866
28679W        W95747  29.025  36.355  11.538
28680W        W95748  23.103  23.600  11.053
28681W        W95749  30.029  26.161   1.809
28682W        W95750  14.707   9.759  11.872
28683W        W95751  40.999  36.496  12.850
28684W        W95752  11.686  15.798   5.084
28685W        W95753  41.954  38.370  14.875
28686W        W95754  44.936  26.463   4.177
28687W        W95755  39.923  15.095   2.688
28688W        W95756  43.885  20.248  14.883
28689W        W95757   9.323  20.232  14.951
28690W        W95758  31.028  32.083   3.839
28691W        W95759  16.118   1.326   4.209
28692W        W95760   6.749  30.548   3.699
28693W        W95761  25.550  35.444  11.117
28694W        W95762  31.467  33.111   3.695
28695W        W95763  13.807  44.838   1.753
28696W        W95764  40.919  17.303   1.380
28697W        W95765  10.738  42.511   0.783
28698W        W95766  31.130   1.932   2.775
28699W        W95767  29.084  21.565   4.195
28700W        W95768  25.538  21.753  10.899
28701W        W95769  41.015  20.272  10.911
28702W        W95770  21.156  16.751   0.923
28703W        W95771   4.856  31.474  10.103
28704W        W95772  16.633  26.166   1.315
28705W        W95773  42.024   3.824   2.690
28706W        W95774  38.856  16.139   2.402
28707W        W95775  23.994  30.525   1.399
28708W        W95776  15.099   6.358   3.769
28709W        W95777  39.493  13.752   3.346
28710W        W95778  35.021  42.524   2.842
28711W        W95779  44.817  23.734   1.919
28712W        W95780   5.816  36.495   2.348
28713W        W95781  43.933  28.041  11.381
28714W        W95782  22.044  34.984   4.823
28715W        W95783  19.178  26.697  14.969
28716W        W95784  10.175  31.939  14.894
28717W        W95785  26.069  40.325   4.230
28718W        W95786  35.987  37.578  11.956
28719W        W95787  44.293  44.497   0.360
28720W        W95788  14.278  42.405   3.227
28721W        W95789  14.653  40.510   2.197
28722W        W95790   2.740  22.597  10.468
28723W        W95791  21.063  11.621  12.475
28724W        W95792  14.314  26.658  12.524
28725W        W95793  41.324  18.562  13.834
28726W        W95794   9.663  11.739   3.252
28727W        W95795  27.999   6.754   3.222
28728W        W95796  42.018  32.117   0.760
28729W        W95797  32.411  27.092   0.462
28730W        W95798  22.024   7.361  11.425
28731W        W95799  39.837   0.374   3.323
28732W        W95800  12.666  14.121  12.502
28733W        W95801  19.079   8.258  12.569
28734W        W95802  22.016  36.448  11.944
28735W        W95803  31.040   8.401   4.747
28736W        W95804  25.129  40.331  14.019
28737W        W95805  22.023   7.223   0.931
28738W        W95806  12.221  19.702  13.483
28739W        W95807  31.028  13.777  13.918
28740W        W95808  15.677   6.848   3.233
28741W        W95809  28.040  37.430  12.572
28742W        W95810  31.098  41.001   3.718
28743W        W95811  22.609  27.951  12.980
28744W        W95812  13.164  44.467  10.940
28745W        W95813  40.968  24.683   2.816
28746W        W95814  30.973  27.597   3.676
28747W        W95815  17.604  32.035  11.565
28748W        W95816  40.315   7.795  11.859
28749W        W95817  40.887  15.775   1.888
28750W        W95818  28.944  41.978  10.447
28751W        W95819   4.807  14.217   5.202
28752W        W95820  40.883   1.352  13.340
28753W        W95821   7.764  25.602  10.448
28754W        W95822  37.887  16.083  13.848
28755W        W95823  38.494  16.577  10.976
28756W        W95824  13.343  34.598   2.248
28757W        W95825  39.904  24.033   0.881
28758W        W95826  20.074  32.007  10.054
28759W        W95827  21.666   3.295   4.704
28760W        W95828   2.356  35.520   4.347
28761W        W95829   7.694  30.620   2.815
28762W        W95830  38.039  10.873   4.224
28763W        W95831  37.433  36.035   1.254
28764W        W95832  13.733  37.373  10.585
28765W        W95833  11.176  22.139   4.810
28766W        W95834   2.761  29.616   4.725
28767W        W95835  17.273  34.495   2.778
28768W        W95836  41.339   1.810  13.482
28769W        W95837   0.916  30.029   0.433
28770W        W95838  19.232  16.213   0.325
28771W        W95839  15.236   6.736   4.334
28772W        W95840  32.594  26.029  11.511
28773W        W95841  38.036  26.480   1.742
28774W        W95842  42.963  23.989   1.701
28775W        W95843  30.625  34.073  11.947
28776W        W95844  22.235  28.141  13.539
28777W        W95845  16.169  17.222  13.451
28778W        W95846  34.452  36.423  11.576
28779W        W95847  27.077  13.300   3.225
28780W        W95848  33.020  12.125  14.837
28781W        W95849   3.899  25.051  12.017
28782W        W95850   0.877   9.728   1.853
28783W        W95851   6.739   0.835   4.313
28784W        W95852  20.562  35.999  13.893
28785W        W95853  19.137  36.349  14.438
28786W        W95854   8.776  21.207   2.334
28787W        W95855  21.513  38.009   3.761
28788W        W95856   6.917  40.433   0.308
28789W        W95857   1.337  34.949   1.861
28790W        W95858  40.545  36.417   0.871
28791W        W95859  27.647  31.924   0.773
28792W        W95860  33.595   9.822  10.460
28793W        W95861  18.295  19.664   5.110
28794W        W95862   7.766  23.061   1.358
28795W        W95863  15.683  22.186  10.419
28796W        W95864  16.776  10.873   4.769
28797W        W95865  31.433   8.780  10.495
28798W        W95866  29.460  33.616  12.918
28799W        W95867  28.663  43.856   1.726
28800W        W95868  40.841  17.112   0.445
28801W        W95869  23.152  28.470  14.997
28802W        W95870  41.024  23.130   4.726
28803W        W95871  19.215  24.164   3.192
28804W        W95872  25.618  33.453  11.945
28805W        W95873   1.440   3.754  11.867
28806W        W95874  30.994  31.610  12.016
28807W        W95875  35.967  17.215   5.197
28808W        W95876   7.800  20.573   4.284
28809W        W95877  43.007   8.677   1.292
28810W        W95878  36.082  23.727   4.176
28811W        W95879   4.751  35.902  11.894
28812W        W95880  11.250  14.788  10.435
28813W        W95881  17.275   0.422  12.455
28814W        W95882  15.246  18.058  14.409
28815W        W95883  17.084  23.071   0.819
28816W        W95884  15.814  18.591  13.416
28817W        W95885   1.333  24.147   4.121
28818W        W95886   3.353  42.372   1.216
28819W        W95887  26.962  40.035  10.966
28820W        W95888  23.724  44.373   0.763
28821W        W95889  38.378  31.466   4.148
28822W        W95890   9.373   9.766   1.329
28823W        W95891  15.701  24.550   4.831
28824W        W95892  43.307  37.424   0.250
28825W        W95893  37.459  29.119   0.963
28826W        W95894   1.965  34.919   1.339
28827W        W95895  24.563   1.780  10.533
28828W        W95896  41.798  37.575   2.397
28829W        W95897   6.259  36.096  13.437
28830W        W95898   5.688  18.112   2.878
28831W        W95899   4.263   8.853   3.365
28832W        W95900  15.131  41.391   3.780
28833W        W95901  23.019   4.244   3.168
28834W        W95902  11.627  31.104   1.849
28835W        W95903  15.664  30.963   4.123
28836W        W95904   1.875  36.058   5.679
28837W        W95905   5.726   1.934  12.882
28838W        W95906   7.188  25.176  13.356
28839W        W95907  22.169  33.926  10.976
28840W        W95908  39.826  12.616  14.410
28841W        W95909  25.015  22.057   0.806
28842W        W95910  28.526  40.943   1.725
28843W        W95911  19.201   3.247  12.371
28844W        W95912  14.154  42.791  14.021
28845W        W95913   0.297  31.916   4.834
28846W        W95914  35.954  20.654   3.753
28847W        W95915  22.105  26.056   2.663
28848W        W95916  15.169   2.782   3.345
28849W        W95917  30.108  36.391   3.172
28850W        W95918  24.088  22.207   4.763
28851W        W95919  29.606  26.675   3.312
28852W        W95920  42.471  42.017   3.371
28853W        W95921  12.334  26.077  10.421
28854W        W95922   4.228  33.065  12.066
28855W        W95923  10.738   5.255  11.925
28856W        W95924  19.208  10.820  11.424
28857W        W95925  17.121  25.630  11.055
28858W        W95926  26.652  34.022   0.747
28859W        W95927  26.141   0.839   0.374
28860W        W95928  39.886  16.670   0.265
28861W        W95929  25.508  41.902  13.908
28862W        W95930  37.916   9.341   1.897
28863W        W95931   8.835  20.121  10.529
28864W        W95932  10.270   5.742  14.977
28865W        W95933   3.427   4.437  11.910
28866W        W95934  24.702  26.181  12.021
28867W        W95935  27.995  42.819  10.582
28868W        W95936  10.382  13.113   1.262
28869W        W95937  23.069  19.745  11.113
28870W        W95938  18.172   4.375  11.543
28871W        W95939  13.297  18.172  10.469
28872W        W95940  27.600  35.947  14.290
28873W        W95941  24.009   1.762  12.088
28874W        W95942   7.768  44.849  13.324
28875W        W95943  36.513  37.890  12.910
28876W        W95944   6.777  38.427  12.037
28877W        W95945  32.596   6.767   4.750
28878W        W95946  17.202  31.527  13.423
28879W        W95947   3.783  27.574  10.638
28880W        W95948  34.014  34.098  11.909
28881W        W95949   0.473  25.007  10.946
28882W        W95950   1.869   9.358   3.203
28883W        W95951  38.898  15.257  14.443
28884W        W95952  38.504  20.101  11.579
28885W        W95953  31.084  23.597  12.047
28886W        W95954  33.569   0.875   2.798
28887W        W95955  33.085  29.025   3.836
28888W        W95956  44.449  32.016  11.424
28889W        W95957  28.549  34.931  14.826
28890W        W95958  19.087  14.687  10.623
28891W        W95959  21.184   4.858   4.777
28892W        W95960  39.885   1.294   2.696
28893W        W95961  26.618  34.534  11.067
28894W        W95962   4.226  28.469  14.430
28895W        W95963   0.259  41.459   0.350
28896W        W95964  36.875  32.591   0.337
28897W        W95965  30.554  17.275  12.937
28898W        W95966  13.801  13.625  10.598
28899W        W95967   4.892  12.701  13.501
28900W        W95968   3.818  33.012  14.385
28901W        W95969   2.246  15.736   3.216
28902W        W95970  41.472   2.949  14.416
28903W        W95971  36.898  26.470   4.631
28904W        W95972  41.872  26.519   0.833
28905W        W95973   8.272  10.784   3.661
28906W        W95974  43.334  26.627   1.437
28907W        W95975  37.557  24.067   0.848
28908W        W95976  12.216  34.866   2.742
28909W        W95977  15.636  41.848   1.438
28910W        W95978  13.783  19.675  12.061
28911W        W95979  27.011  12.844  14.016
28912W        W95980  42.861  20.738  10.523
28913W        W95981  41.537  20.104  11.550
28914W        W95982  17.638  34.503   1.866
28915W        W95983   6.827  42.884   2.792
28916W        W95984  19.073  23.621  12.430
28917W        W95985  29.057  12.329   0.477
28918W        W95986  24.564  19.126  14.938
28919W        W95987  39.006  33.620   5.191
28920W        W95988  23.010  16.590   0.477
28921W        W95989   6.412  42.777   4.723
28922W        W95990   4.775   7.181   4.697
28923W        W95991  32.480   9.209   2.680
28924W        W95992  22.516  27.572  11.580
28925W        W95993   7.826  41.032   3.164
28926W        W95994  32.581  35.107  14.815
28927W        W95995  18.168  35.538   0.346
28928W        W95996  19.603  22.717   4.627
28929W        W95997  37.535  42.905   4.812
28930W        W95998  42.496  30.074  14.942
28931W        W95999  35.926  29.664  12.462
28932W        W96000  28.566  11.295   2.856
28933W        W96001  43.458  33.123   2.753
28934W        W96002  37.862  20.706  13.964
28935W        W96003  28.497  24.633  10.490
28936W        W96004   8.811  24.118   4.703
28937W        W96005  40.002  43.938  12.375
28938W        W96006   0.879  18.598  13.476
28939W        W96007   9.815  14.269   2.702
28940W        W96008  33.496  43.884  13.492
28941W        W96009  23.702  42.961  13.472
28942W        W96010   9.848  20.530  12.435
28943W        W96011   9.250  32.923  10.472
28944W        W96012  11.259  32.926   4.296
28945W        W96013   2.394  38.908  10.423
28946W        W96014  18.243   1.285  12.420
28947W        W96015  22.658  21.609  13.796
28948W        W96016   5.899   0.364  11.534
28949W        W96017   4.876  23.562  14.850
28950W        W96018  27.535   3.803   3.285
28951W        W96019  37.040   4.398   3.263
28952W        W96020  36.525  24.034   0.400
28953W        W96021  22.241  43.855  12.876
28954W        W96022   8.717   2.384  11.457
28955W        W96023  20.595  25.521  10.963
28956W        W96024  20.726   3.711  12.955
28957W        W96025  25.151  31.965  12.557
28958W        W96026   6.724  12.119   0.429
28959W        W96027  33.002  32.631   4.131
28960W        W96028  16.765  44.002  11.583
28961W        W96029  16.607  21.038  11.995
28962W        W96030  25.140  20.641   1.212
28963W        W96031  35.019  38.989  10.997
28964W        W96032  35.879  28.001   3.811
28965W        W96033  18.553  42.292   2.882
28966W        W96034  10.774  21.675   0.405
28967W        W96035  33.437  27.957   1.393
28968W        W96036   9.838  26.686  12.043
28969W        W96037   7.318  34.892  10.629
28970W        W96038   9.279  13.653   3.229
28971W        W96039  24.667  41.840   1.366
28972W        W96040  38.465  14.632   4.240
28973W        W96041   7.323   7.851  14.940
28974W        W96042  14.601  39.441   4.635
28975W        W96043  44.413  11.677   1.929
28976W        W96044  27.987  21.114  12.372
28977W        W96045  29.576   0.366  11.423
28978W        W96046  14.656   7.910  13.362
28979W        W96047  13.175  36.543   2.728
28980W        W96048  27.974  44.806   1.699
28981W        W96049  16.732   4.773   3.354
28982W        W96050  16.098   5.730  14.996
28983W        W96051   0.820   3.416   0.438
28984W        W96052   9.384  14.220  13.346
28985W        W96053  19.240  32.015   4.789
28986W        W96054  41.519  42.895  11.395
28987W        W96055   0.761  23.685   1.848
28988W        W96056  18.675  41.851  10.441
28989W        W96057  31.549  31.413   2.785
28990W        W96058  30.512  43.277   4.670
28991W        W96059   1.387  12.263  14.847
28992W        W96060   1.799  18.653   1.370
28993W        W96061  44.446  26.552  12.387
28994W        W96062  15.659  15.641  13.032
28995W        W96063  21.160  41.956  10.910
28996W        W96064  32.404  19.688  12.425
28997W        W96065  26.089  24.081  12.430
28998W        W96066   0.324  17.091   2.209
28999W        W96067   9.792  44.811  11.084
29000W        W96068  10.222   4.280  10.553
29001W        W96069  38.930  38.968   2.181
29002W        W96070  26.098  12.632  12.350
29003W        W96071  25.577   2.869  12.865
29004W        W96072   2.273   9.387  10.440
29005W        W96073   6.923  20.247  13.803
29006W        W96074  28.626  36.885  12.456
29007W        W96075  41.872  39.368   1.353
29008W        W96076  20.234  34.520   3.801
29009W        W96077   5.423  27.954   1.320
29010W        W96078  16.139   2.744  12.060
29011W        W96079   7.256  42.367  12.405
29012W        W96080  38.976  40.448  13.865
29013W        W96081  38.370  33.052  10.626
29014W        W96082  32.026   6.220   4.728
29015W        W96083  24.532  11.372   1.240
29016W        W96084  30.116  17.580  13.053
29017W        W96085  19.098  17.116   2.205
29018W        W96086   6.794  37.342  11.040
29019W        W96087  30.007   5.407   4.816
29020W        W96088  19.691  33.586   5.145
29021W        W96089  43.984  25.683  13.319
29022W        W96090  42.977  37.535  10.545
29023W        W96091  42.518  13.168  13.411
29024W        W96092  34.434   2.760  14.442
29025W        W96093  19.599  40.513   3.311
29026W        W96094  28.120  19.110   3.728
29027W        W96095  12.659  28.981   4.309
29028W        W96096   9.395  17.652   2.419
29029W        W96097  33.516  42.795   1.827
29030W        W96098  29.572  36.546  13.863
29031W        W96099  39.053   1.324  14.321
29032W        W96100  29.035  27.615   0.828
29033W        W96101  23.593  16.723   4.284
29034W        W96102   9.322  37.854   4.621
29035W        W96103  22.726  16.804  14.444
29036W        W96104  38.519  38.548   1.697
29037W        W96105  24.007  26.677  10.959
29038W        W96106  31.402  44.294   4.830
29039W        W96107   2.443  10.249  12.941
29040W        W96108   8.223   1.894   2.836
29041W        W96109  33.509  23.179  13.376
29042W        W96110   4.847  34.080  13.877
29043W        W96111  42.846  17.595   0.411
29044W        W96112  10.307  29.007   9.999
29045W        W96113  24.084  29.647  11.409
29046W        W96114  25.653   0.294   1.280
29047W        W96115   3.733  18.114   1.769
29048W        W96116  41.004  15.288  14.436
29049W        W96117  37.844   0.327  13.403
29050W        W96118  43.342  37.422  12.368
29051W        W96119  35.361  17.665   0.820
29052W        W96120  21.752   4.255  12.070
29053W        W96121  32.141  20.093  12.047
29054W        W96122  36.465  40.874   0.770
29055W        W96123  18.630  40.409   5.144
29056W        W96124   6.692  11.656   4.650
29057W        W96125   8.363  29.092   0.354
29058W        W96126  41.904  10.670   2.761
29059W        W96127  31.140  43.948   3.863
29060W        W96128   4.305  14.267   2.372
29061W        W96129   5.725   0.469  13.957
29062W        W96130  15.772  37.504   1.380
29063W        W96131   2.793  18.288  10.579
29064W        W96132  40.812  28.494   3.321
29065W        W96133  40.353  21.716  14.816
29066W        W96134  32.046  26.137   3.270
29067W        W96135  25.965  28.975   1.842
29068W        W96136  26.654  19.534   0.365
29069W        W96137  33.096  26.987   1.259
29070W        W96138  20.141   0.808  10.090
29071W        W96139   6.253   2.261   4.820
29072W        W96140  11.369   7.292   4.690
29073W        W96141  24.034  40.385   4.327
29074W        W96142  26.519  10.173   3.209
29075W        W96143  15.682  43.989  10.148
29076W        W96144   6.361  44.368   1.718
29077W        W96145  37.930   7.831  11.526
29078W        W96146  20.662  40.531  12.549
29079W        W96147  19.542  42.360  14.279
29080W        W96148  25.473  22.208   0.420
29081W        W96149  32.551  33.103   3.675
29082W        W96150  32.012  37.524  14.845
29083W        W96151  26.600  35.402  13.873
29084W        W96152   4.885  31.558  12.095
29085W        W96153  11.250  41.897  12.423
29086W        W96154  21.031  11.237  10.013
29087W        W96155   8.791  38.985   5.118
29088W        W96156  38.464  35.539  11.499
29089W        W96157  26.091  19.084  11.046
29090W        W96158  36.955  21.148  11.565
29091W        W96159  23.119   0.955   1.731
29092W        W96160  35.039  39.862  13.433
29093W        W96161   8.405  34.586  12.412
29094W        W96162  29.505  24.153   4.310
29095W        W96163  20.766  24.190   3.348
29096W        W96164  25.529   3.333  12.850
29097W        W96165  39.909  26.592  10.458
29098W        W96166  37.922   1.371  14.446
29099W        W96167   5.228  33.131   0.254
29100W        W96168  28.062  39.050  13.457
29101W        W96169  35.582  13.806  13.975
29102W        W96170   2.768  12.208  12.401
29103W        W96171  18.785  12.176  12.352
29104W        W96172  19.114  23.046  13.487
29105W        W96173  35.966  31.990  12.436
29106W        W96174   9.711  41.908   3.160
29107W        W96175  26.178  23.567   0.249
29108W        W96176  22.024  11.839   3.146
29109W        W96177  28.499  19.598   4.260
29110W        W96178   8.184  28.028  10.586
29111W        W96179  13.629  18.620  12.434
29112W        W96180  28.077  38.071  13.401
29113W        W96181  12.288  36.095  12.072
29114W        W96182  15.326  12.771   0.246
29115W        W96183  21.113  13.661   4.599
29116W        W96184  36.893  43.943   1.377
29117W        W96185  35.482  27.686   1.446
29118W        W96186  26.574   5.197  13.470
29119W        W96187  15.164  17.750   1.739
29120W        W96188   8.290  36.445   4.151
29121W        W96189  28.616  36.513   3.231
29122W        W96190   5.382  41.003   0.329
29123W        W96191  43.313  23.126  14.366
29124W        W96192  28.537  17.709  14.328
29125W        W96193   8.656  34.559  13.428
29126W        W96194  28.940  13.183   2.314
29127W        W96195  25.668   5.429   4.814
29128W        W96196   1.242  14.661  14.417
29129W        W96197  24.189  37.533  13.980
29130W        W96198   1.791  22.020  10.424
29131W        W96199   0.965  17.275  14.426
29132W        W96200  17.225  28.577   4.242
29133W        W96201  37.043  29.948   3.695
29134W        W96202  26.060  21.567   3.787
29135W        W96203  25.971  20.209  11.086
29136W        W96204  28.656  30.443   4.673
29137W        W96205  35.583  14.807   4.210
29138W        W96206  41.885  43.920   4.628
29139W        W96207  43.984  13.217   3.829
29140W        W96208  27.177   9.756  14.841
29141W        W96209  35.857  17.749   1.346
29142W        W96210  28.065   7.246   4.707
29143W        W96211  37.446  43.988   4.133
29144W        W96212  43.325   3.736  12.863
29145W        W96213  28.661  36.524   0.249
29146W        W96214   1.303  14.800   2.691
29147W        W96215  28.588  34.015   2.763
29148W        W96216   4.935  37.420   0.834
29149W        W96217   5.915  33.067  12.428
29150W        W96218  36.403  32.458  12.956
29151W        W96219  21.551  33.076   4.232
29152W        W96220  17.119   1.920  10.626
29153W        W96221  19.200  32.456  13.372
29154W        W96222  36.427  18.198   1.380
29155W        W96223  41.821  40.449   2.892
29156W        W96224  28.517  13.811   2.733
29157W        W96225  27.581  24.557   3.838
29158W        W96226   1.298  30.055   2.857
29159W        W96227  11.721  12.329   3.148
29160W        W96228  35.963  39.914   2.810
29161W        W96229  35.415  29.609   2.861
29162W        W96230  14.602  38.913  11.504
29163W        W96231   3.752  27.676  11.035
29164W        W96232  39.453  31.938   3.167
29165W        W96233  44.776   8.843   4.650
29166W        W96234  44.912  35.571  13.050
29167W        W96235  24.634  17.145  13.318
29168W        W96236  43.320   7.759  13.957
29169W        W96237  15.195   9.657   3.217
29170W        W96238  23.552   4.778   2.375
29171W        W96239  13.840  39.881   3.281
29172W        W96240  42.364   5.926   2.885
29173W        W96241  43.332  35.008  12.562
29174W        W96242  26.507  36.476   0.244
29175W        W96243  28.455  16.177  13.058
29176W        W96244  18.278  37.344  11.599
29177W        W96245   4.427  15.632   4.156
29178W        W96246  40.394  31.106  10.608
29179W        W96247   4.414  35.418   3.155
29180W        W96248  34.427  22.658  12.989
29181W        W96249  36.051  35.373  13.968
29182W        W96250  30.160  43.410  13.548
29183W        W96251  25.692  22.562  14.884
29184W        W96252  28.450  23.145   4.785
29185W        W96253  12.690   3.808   4.202
29186W        W96254  36.841  40.462  14.971
29187W        W96255   4.834  40.395  11.018
29188W        W96256  30.532  40.009   2.903
29189W        W96257  34.871  37.573   3.379
29190W        W96258  30.918  19.104  14.953
29191W        W96259  28.578  30.499  12.435
29192W        W96260  40.020  24.068   3.789
29193W        W96261  42.799   3.334   3.340
29194W        W96262  17.066  24.626   0.763
29195W        W96263  12.728  17.279  11.107
29196W        W96264   4.895  25.597   1.744
29197W        W96265  32.450  29.570  12.549
29198W        W96266  15.633  37.374   0.749
29199W        W96267  29.080  36.356  13.457
29200W        W96268  27.506  10.188  14.437
29201W        W96269  20.543  24.546  12.960
29202W        W96270  40.529   2.236  10.889
29203W        W96271  11.783   4.399   2.221
29204W        W96272  14.337  27.517  13.513
29205W        W96273  14.792   0.938  13.953
29206W        W96274  25.973  14.238   1.761
29207W        W96275  19.571  42.469  12.992
29208W        W96276  44.504  34.466   5.670
29209W        W96277   3.906   5.914   3.347
29210W        W96278  15.769   9.205  10.087
29211W        W96279   0.903  11.215  11.541
29212W        W96280  38.489   1.907  10.441
29213W        W96281  14.166  32.925   4.731
29214W        W96282  36.532  25.487  13.342
29215W        W96283   5.723  34.886  10.618
29216W        W96284  10.362  19.149  12.578
29217W        W96285  42.352  19.677  11.467
29218W        W96286  43.955  25.595  14.391
29219W        W96287  35.046  28.962   1.237
29220W        W96288  30.492   1.355   4.825
29221W        W96289  41.407  25.172  13.416
29222W        W96290  31.981  21.730  12.492
29223W        W96291   1.407  41.300   1.873
29224W        W96292  15.730  44.424  12.486
29225W        W96293  27.084  40.015  11.595
29226W        W96294  40.355  41.808   2.665
29227W        W96295  14.096  21.657  13.310
29228W        W96296  43.486  25.164  10.620
29229W        W96297  39.389  19.681  12.571
29230W        W96298  28.119   9.791   2.787
29231W        W96299  44.312  20.722   4.699
29232W        W96300  32.948  29.650   2.751
29233W        W96301  40.493  27.087   2.387
29234W        W96302  41.520  35.563   4.778
29235W        W96303  35.034  29.430   0.313
29236W        W96304  31.421  28.489   4.325
29237W        W96305  14.239  20.181  10.520
29238W        W96306  43.466  12.348   3.787
29239W        W96307  38.475  12.255  14.311
29240W        W96308  41.472  29.540   2.889
29241W        W96309   2.271   3.767  12.963
29242W        W96310  22.238  22.094   1.765
29243W        W96311  30.625  43.465  11.014
29244W        W96312  25.517  30.564  10.141
29245W        W96313  32.060  31.557  10.057
29246W        W96314  40.017  43.412   4.321
29247W        W96315  44.468  32.506   4.193
29248W        W96316  11.317  12.260  12.427
29249W        W96317  26.524   1.912  13.994
29250W        W96318  32.587  21.664   4.791
29251W        W96319   3.955   6.737  14.430
29252W        W96320  22.176  29.509  14.286
29253W        W96321  40.499  32.046  11.043
29254W        W96322  29.948  11.622   4.205
29255W        W96323  14.658   5.322   1.807
29256W        W96324  31.927   4.353   2.341
29257W        W96325  40.323   0.809   1.932
29258W        W96326   2.782  40.899  13.471
29259W        W96327   1.405  37.522  11.079
29260W        W96328  19.641  10.731  12.434
29261W        W96329   5.394  21.065  13.362
29262W        W96330  10.315  31.612  14.375
29263W        W96331   8.371  18.688  12.534
29264W        W96332  26.061  10.229   3.339
29265W        W96333  18.598  38.929  12.073
29266W        W96334   8.194   4.770  12.922
29267W        W96335   1.865  38.057  10.898
29268W        W96336  25.095   5.331  10.459
29269W        W96337  30.652  32.416   1.929
29270W        W96338   4.843  37.569   2.343
29271W        W96339  39.380   0.250  14.002
29272W        W96340  21.580  12.307  13.864
29273W        W96341   6.882  20.566  10.959
29274W        W96342  22.724  27.027  11.386
29275W        W96343  21.229  37.977  10.947
29276W        W96344  38.821  22.248  13.004
29277W        W96345  43.009   5.777   1.382
29278W        W96346   8.676  25.971   4.164
29279W        W96347  32.964  41.910   1.215
29280W        W96348   8.304  41.315   2.206
29281W        W96349  34.933  10.868   3.210
29282W        W96350  23.049  23.518  10.553
29283W        W96351  27.055   9.207  13.035
29284W        W96352  16.769  24.040   2.385
29285W        W96353   0.939  25.044   1.764
29286W        W96354  21.218   3.735  13.913
29287W        W96355  33.114  35.947   4.132
29288W        W96356  28.666  29.109  13.413
29289W        W96357   8.769   6.293  14.911
29290W        W96358  23.632  34.498   1.725
29291W        W96359  44.847  12.277   1.760
29292W        W96360  41.468  41.000  13.002
29293W        W96361  10.683  24.561   0.395
29294W        W96362  22.509   1.791  14.773
29295W        W96363  25.204  43.977   2.407
29296W        W96364  44.792  44.343  14.404
29297W        W96365  34.008  12.690  12.513
29298W        W96366  12.188   7.672  12.035
29299W        W96367  32.407   7.282  13.822
29300W        W96368  13.646   6.707   0.345
29301W        W96369  18.277  42.355   3.719
29302W        W96370  18.137  28.625  10.895
29303W        W96371  37.927  21.542   2.401
29304W        W96372  17.631  20.090  14.313
29305W        W96373   8.390   5.391   3.805
29306W        W96374  31.964  27.129   3.784
29307W        W96375  39.446  18.563  11.484
29308W        W96376  28.033  37.524   5.301
29309W        W96377  19.044   9.752   3.239
29310W        W96378  26.072  29.474  12.055
29311W        W96379  33.381  17.699   1.310
29312W        W96380  29.933   3.411   1.216
29313W        W96381  37.951  35.952   2.801
29314W        W96382   7.725  12.677   4.663
29315W        W96383  26.650   5.719  10.148
29316W        W96384  13.722  43.992   4.161
29317W        W96385  10.732   4.795  13.491
29318W        W96386  41.851   4.937  10.487
29319W        W96387   6.765  20.700  13.335
29320W        W96388  25.048  11.727  13.444
29321W        W96389  11.686  43.795  11.039
29322W        W96390  40.422  16.811  13.925
29323W        W96391   4.741  23.212   4.635
29324W        W96392   9.373  22.127  12.404
29325W        W96393  18.787  35.034  12.981
29326W        W96394   7.762  39.486  12.955
29327W        W96395  25.976  14.261   0.833
29328W        W96396  26.111  16.694   1.803
29329W        W96397  15.129  12.286   0.271
29330W        W96398  17.593  41.351   2.822
29331W        W96399  31.946  33.885   3.770
29332W        W96400  13.727  37.350   3.829
29333W        W96401  36.072   6.776  11.865
29334W        W96402  29.090  34.969  14.982
29335W        W96403  36.026  38.833  11.037
29336W        W96404  11.359  18.577  10.511
29337W        W96405  41.992  43.958   3.863
29338W        W96406  14.824  29.630   0.759
29339W        W96407  37.531   5.389  10.540
29340W        W96408  42.296  20.196  11.026
29341W        W96409   9.176   6.348   1.726
29342W        W96410  25.673  44.305   0.819
29343W        W96411   4.331  16.791   1.314
29344W        W96412   2.376   2.782  11.600
29345W        W96413  41.396  43.864  13.388
29346W        W96414  27.153  19.124   2.796
29347W        W96415  36.919  38.014  12.864
29348W        W96416  25.136  26.682  14.893
29349W        W96417  16.706  30.154   1.444
29350W        W96418   9.257  26.463  13.451
29351W        W96419  26.457   1.894   3.868
29352W        W96420  43.407  44.775   4.202
29353W        W96421  27.172  26.090   3.770
29354W        W96422  19.278  28.650  13.313
29355W        W96423  14.789  18.549   3.802
29356W        W96424  12.784  38.010  12.544
29357W        W96425   3.851  29.619   4.669
29358W        W96426   9.801  30.142   2.343
29359W        W96427  42.914  17.096   3.179
29360W        W96428  19.175  43.920   4.661
29361W        W96429   7.222  36.879  11.553
29362W        W96430  11.847   0.436  13.872
29363W        W96431  10.812  10.254   1.448
29364W        W96432  14.764  27.955  10.616
29365W        W96433  40.895  34.016  12.475
29366W        W96434  28.478  43.454   1.339
29367W        W96435  32.462  22.077   1.250
29368W        W96436  39.322  27.537   0.260
29369W        W96437  35.896   6.349  10.498
29370W        W96438  29.046  21.596   3.751
29371W        W96439  10.167   2.953   9.939
29372W        W96440  42.897  39.447   4.705
29373W        W96441  32.592   2.812  11.388
29374W        W96442  11.150   9.340  11.493
29375W        W96443  39.994   6.904   2.896
29376W        W96444  24.009  27.633   3.773
29377W        W96445  26.968   5.264   2.683
29378W        W96446  34.612  23.233   3.368
29379W        W96447  32.935  34.058  13.981
29380W        W96448  36.537   2.383   1.285
29381W        W96449  11.674  17.599   4.717
29382W        W96450  20.063  26.168  13.310
29383W        W96451  18.724  18.702  13.986
29384W        W96452  27.454  11.273  10.573
29385W        W96453   5.882  29.988  11.414
29386W        W96454  14.675   5.364   3.720
29387W        W96455  35.008  18.238   5.314
29388W        W96456  32.012  41.861  14.403
29389W        W96457  23.057  10.778  11.408
29390W        W96458   3.892  11.812  10.541
29391W        W96459   8.678  43.874   2.892
29392W        W96460  43.869  14.280   4.156
29393W        W96461  41.920  36.423   1.216
29394W        W96462   7.397   3.846   0.426
29395W        W96463  41.963  32.938  14.913
29396W        W96464   1.885  29.605  13.358
29397W        W96465   4.893   5.820   2.313
29398W        W96466   3.247  20.526  11.029
29399W        W96467  11.306  36.855  10.984
29400W        W96468  14.290   0.862  13.828
29401W        W96469  15.813  42.848   1.713
29402W        W96470  17.179  44.870   3.172
29403W        W96471   3.406   5.846  14.880
29404W        W96472   1.807  26.975   3.742
29405W        W96473  12.214  42.945  13.795
29406W        W96474  33.932  23.196   3.195
29407W        W96475  18.720  35.876   3.244
29408W        W96476  30.637  42.383  10.476
29409W        W96477  11.239  16.133  10.410
29410W        W96478  10.139  32.134  10.041
29411W        W96479  35.510   6.722  11.970
29412W        W96480  41.789  11.697  11.528
29413W        W96481  24.146  23.676  12.084
29414W        W96482  14.134  38.042  12.035
29415W        W96483  28.069  33.939   3.169
29416W        W96484  41.935  25.019   4.230
29417W        W96485   9.657   3.936  13.026
29418W        W96486  37.040  43.812  10.465
29419W        W96487  27.514  14.234  14.999
29420W        W96488  20.631  42.948  10.571
29421W        W96489  16.233  43.472   2.681
29422W        W96490  38.468   7.271  10.451
29423W        W96491   6.280  20.679   0.367
29424W        W96492  19.220   0.392   2.700
29425W        W96493  42.925  28.038  14.826
29426W        W96494  26.538  40.802   1.770
29427W        W96495   4.759  41.387   2.287
29428W        W96496  10.316  36.439   0.884
29429W        W96497   0.253   5.371  13.892
29430W        W96498   4.705  20.684   0.945
29431W        W96499  28.602  36.480  11.120
29432W        W96500  41.937  43.444   3.729
29433W        W96501  38.426  44.481   1.804
29434W        W96502  41.503  25.202  11.856
29435W        W96503  37.524  30.614   4.176
29436W        W96504   5.352   0.843  11.510
29437W        W96505  22.548  35.603   1.419
29438W        W96506  21.552  39.372  11.945
29439W        W96507  34.105  23.554   3.800
29440W        W96508  19.105  22.027  12.986
29441W        W96509   7.910   8.856   9.992
29442W        W96510  26.644  12.174  13.501
29443W        W96511  30.515  40.448  13.878
29444W        W96512   3.876  17.150   0.904
29445W        W96513  25.968  44.851   4.284
29446W        W96514  12.766  18.200  14.308
29447W        W96515  26.020  38.507   1.441
29448W        W96516   6.236  20.603  14.791
29449W        W96517  13.744  44.822   4.609
29450W        W96518  37.475  15.768   2.226
29451W        W96519  21.023  30.645  14.771
29452W        W96520  37.484  37.542   2.693
29453W        W96521  24.998  41.515  13.965
29454W        W96522  38.425  13.669  14.027
29455W        W96523   4.888  12.672   3.715
29456W        W96524  43.824  21.660   2.303
29457W        W96525  29.624  35.481   5.798
29458W        W96526  13.148  40.534   3.851
29459W        W96527  21.025   2.324   2.756
29460W        W96528  34.979  25.099  10.118
29461W        W96529  31.030   5.712   3.723
29462W        W96530   0.363   3.249  14.950
29463W        W96531  33.442  33.409  14.411
29464W        W96532  20.114  25.475  13.421
29465W        W96533  40.492  11.232  10.412
29466W        W96534  14.643  39.992  13.321
29467W        W96535  37.864  36.380   3.851
29468W        W96536  42.356  25.100   1.797
29469W        W96537  14.784   5.278   4.674
29470W        W96538  40.923  23.088  14.454
29471W        W96539  24.221   1.427   3.747
29472W        W96540  44.858  36.555  10.028
29473W        W96541  42.494   7.816   0.289
29474W        W96542  12.769  32.565   0.777
29475W        W96543  25.682  42.813   5.259
29476W        W96544  43.292  14.686  11.038
29477W        W96545  39.478  25.572  13.476
29478W        W96546   7.846  34.863  13.457
29479W        W96547   6.195  30.448  10.993
29480W        W96548  43.775  35.917  14.802
29481W        W96549  19.115  28.046  12.898
29482W        W96550  24.994  29.439   0.437
29483W        W96551   6.816  32.997   4.728
29484W        W96552   2.329  42.457  11.545
29485W        W96553  38.377  31.558   3.260
29486W        W96554   7.741  12.691   3.836
29487W        W96555  42.508  27.058  14.458
29488W        W96556  41.305  29.958  14.374
29489W        W96557  22.071  40.511   0.913
29490W        W96558  29.042  43.346  13.989
29491W        W96559   1.411  29.654  14.383
29492W        W96560   4.251  42.457  10.597
29493W        W96561  16.766  42.974   3.827
29494W        W96562   7.297   9.362   4.831
29495W        W96563  12.143  22.528   1.762
29496W        W96564  14.648  25.479   2.276
29497W        W96565  30.152  31.953  14.355
29498W        W96566  43.495   3.774   4.212
29499W        W96567  15.146  41.043  14.963
29500W        W96568  37.884   6.216   2.251
29501W        W96569   9.653  20.041  14.384
29502W        W96570  20.217  17.112  14.481
29503W        W96571  21.051   3.375   1.314
29504W        W96572  19.202  11.636   0.360
29505W        W96573  18.745  39.864  13.842
29506W        W96574   6.274  38.475  10.932
29507W        W96575  19.608  26.172  13.808
29508W        W96576  18.620  32.047   1.755
29509W        W96577  17.073  22.560   0.435
29510W        W96578   8.231   2.316  10.930
29511W        W96579  18.056  22.011   1.238
29512W        W96580   8.356  12.706   3.788
29513W        W96581  23.131  43.846  11.425
29514W        W96582  16.180   6.827   1.722
29515W        W96583  32.115  14.604  13.049
29516W        W96584  30.045  39.852   3.862
29517W        W96585  29.648  31.510   4.619
29518W        W96586   6.350  17.794  13.007
29519W        W96587  21.583  21.025   2.810
29520W        W96588  22.032  21.563   3.729
29521W        W96589   3.781  39.547  12.096
29522W        W96590   3.231  28.993   0.431
29523W        W96591  15.213  10.162   5.192
29524W        W96592  41.398  26.972  14.422
29525W        W96593  33.463   1.479  12.567
29526W        W96594  26.952  19.212  13.321
29527W        W96595  27.651  42.909   0.933
29528W        W96596  39.947   2.770  11.953
29529W        W96597  26.968  12.782  12.829
29530W        W96598  33.507  43.398  11.543
29531W        W96599  34.981  16.122   0.742
29532W        W96600  34.956  25.712   3.845
29533W        W96601  38.559  38.511  13.878
29534W        W96602  17.185  15.642  13.423
29535W        W96603  16.095  23.602   3.258
29536W        W96604  29.545  13.251   0.905
29537W        W96605  44.469   6.710   1.294
29538W        W96606  20.699  34.884   2.716
29539W        W96607  25.564  24.653   1.391
29540W        W96608   1.743   3.329  12.077
29541W        W96609  20.234  25.562   0.461
29542W        W96610   2.786  22.578   2.312
29543W        W96611  10.174   8.288  10.468
29544W        W96612  14.245  43.467   0.865
29545W        W96613  35.412  29.439   3.148
29546W        W96614   5.805  39.348   0.426
29547W        W96615  30.499   9.718  10.985
29548W        W96616  40.518  17.608  14.924
29549W        W96617   3.765  12.179   1.849
29550W        W96618  37.006  17.134   1.717
29551W        W96619  34.375  27.598  12.570
29552W        W96620  32.888  35.005  12.992
29553W        W96621  37.359  44.822   0.420
29554W        W96622  38.980  33.114  12.366
29555W        W96623  33.503  33.606  13.008
29556W        W96624  12.645  38.460   3.684
29557W        W96625   5.703   7.693   1.349
29558W        W96626  22.069  27.076   1.726
29559W        W96627   5.904  29.478   0.867
29560W        W96628  36.892  40.041   3.161
29561W        W96629  42.781  34.903  11.517
29562W        W96630  17.304   9.716   0.829
29563W        W96631  30.946  20.566   4.700
29564W        W96632   8.863  25.061  12.344
29565W        W96633  40.476  42.946   2.690
29566W        W96634   8.187  24.573  13.809
29567W        W96635  12.829  30.532   4.836
29568W        W96636  26.057   4.835   3.243
29569W        W96637  20.197  34.005   3.845
29570W        W96638  25.013  10.381  14.877
29571W        W96639  12.618  43.837   2.821
29572W        W96640  13.252  41.859  12.357
29573W        W96641  24.588  19.637  14.881
29574W        W96642  10.864  21.135   2.204
29575W        W96643  24.643  44.880  11.027
29576W        W96644  17.155   3.902   2.683
29577W        W96645   6.821   1.363   0.929
29578W        W96646   7.859   4.739  14.920
29579W        W96647   0.356  26.520  10.548
29580W        W96648  12.764  26.576  12.387
29581W        W96649  36.377  22.073   4.166
29582W        W96650  31.434   2.364   3.215
29583W        W96651  13.309  21.209  11.987
29584W        W96652  10.822  10.231  11.936
29585W        W96653   1.910  30.550  13.898
29586W        W96654  33.473  35.495   1.321
29587W        W96655  35.905  35.581  10.415
29588W        W96656  43.294  32.517   1.750
29589W        W96657  16.240   2.455  14.873
29590W        W96658  24.986   9.699   3.229
29591W        W96659  35.511  24.628  12.091
29592W        W96660  39.449  29.564   4.152
29593W        W96661  38.380  19.731  12.392
29594W        W96662  17.285   1.820  11.963
29595W        W96663  16.720  44.871  12.347
29596W        W96664   3.723  39.052  11.608
29597W        W96665  22.607  28.146   1.754
29598W        W96666  10.172  31.452  10.501
29599W        W96667  10.777   0.270   2.755
29600W        W96668  37.083  21.722  14.291
29601W        W96669  10.179  36.014   1.756
29602W        W96670  19.113  32.508  14.508
29603W        W96671  42.481  34.374   2.760
29604W        W96672  31.442  31.068   0.380
29605W        W96673  21.641  23.661   0.393
29606W        W96674  10.847  41.432   0.822
29607W        W96675   3.313   2.734  13.865
29608W        W96676  31.918  43.021   4.597
29609W        W96677  41.989  12.123  12.971
29610W        W96678  30.920  24.198  12.349
29611W        W96679  39.062  32.106   1.250
29612W        W96680  37.475  42.502   2.400
29613W        W96681  28.558  38.481   2.785
29614W        W96682  37.406  32.996   1.799
29615W        W96683  12.809   1.439   3.214
29616W        W96684  29.059  12.136   1.432
29617W        W96685   2.226   2.806  14.941
29618W        W96686  30.580  27.946  12.849
29619W        W96687   3.888  30.523   3.313
29620W        W96688  24.093  21.178   2.273
29621W        W96689  36.859  34.594   2.663
29622W        W96690  13.817  36.041  14.335
29623W        W96691  44.347  16.713   4.703
29624W        W96692  41.926  14.764   3.314
29625W        W96693  30.617   7.229   0.471
29626W        W96694  25.207  23.698   1.435
29627W        W96695  31.140  22.715  13.416
29628W        W96696   6.266   1.928   1.869
29629W        W96697  43.374  17.181  14.388
29630W        W96698  24.105  33.562   2.233
29631W        W96699  41.843  40.909  11.978
29632W        W96700  29.920   7.868  13.356
29633W        W96701  33.592  31.055   1.449
29634W        W96702  14.648  19.602  13.060
29635W        W96703  35.064   8.407   2.820
29636W        W96704  29.507  44.978  13.865
29637W        W96705  18.090  34.488  13.350
29638W        W96706  37.847  23.213  12.358
29639W        W96707   7.219  22.519   1.913
29640W        W96708  37.925   3.802  14.336
29641W        W96709   6.848  22.642   4.156
29642W        W96710  20.604  36.381  12.909
29643W        W96711   4.840  23.074   0.890
29644W        W96712  39.456   9.371  12.379
29645W        W96713  31.936   2.957   1.254
29646W        W96714   6.296  30.567  13.354
29647W        W96715  15.627   7.202   0.427
29648W        W96716  27.589  44.845   3.740
29649W        W96717  30.632  17.218   1.291
29650W        W96718  39.323  16.130   4.199
29651W        W96719  16.809   9.152  12.463
29652W        W96720   7.342  34.072   0.891
29653W        W96721  43.468  23.694   0.339
29654W        W96722  23.032   4.273   1.902
29655W        W96723  42.826  23.181  10.575
29656W        W96724   6.794  28.503   1.263
29657W        W96725  18.202  14.129  13.045
29658W        W96726   5.823  13.716  13.970
29659W        W96727  26.182  23.076  14.313
29660W        W96728   4.293  36.977  11.414
29661W        W96729  38.388  23.725   1.768
29662W        W96730  36.365  44.882   1.433
29663W        W96731  15.665  27.086  10.487
29664W        W96732  37.066  10.248  13.796
29665W        W96733  42.478  31.911  14.958
29666W        W96734  41.367  28.443   1.811
29667W        W96735  26.151  29.510  11.463
29668W        W96736  22.742  32.051  12.897
29669W        W96737  25.704  14.774  13.544
29670W        W96738   0.896  44.010  10.482
29671W        W96739  27.508  44.811   0.905
29672W        W96740  18.277  34.068   0.267
29673W        W96741  39.006   7.888   2.880
29674W        W96742  42.920  13.748  11.552
29675W        W96743  44.988  29.515   1.741
29676W        W96744  18.680  41.445  11.602
29677W        W96745  31.604  30.415  14.398
29678W        W96746  42.345  39.832  13.909
29679W        W96747  25.092  30.946  10.484
29680W        W96748   1.739  37.580   0.803
29681W        W96749  17.581  17.188   4.295
29682W        W96750  41.448   5.315  10.936
29683W        W96751  14.830  29.663   2.820
29684W        W96752  33.547  38.460  11.587
29685W        W96753  44.829  16.288  11.875
29686W        W96754  11.862  41.388  13.948
29687W        W96755  10.734  35.601  11.583
29688W        W96756  18.197  39.359   1.776
29689W        W96757  44.399  29.042   3.674
29690W        W96758  40.891  19.188   3.217
29691W        W96759  33.462  35.469   0.962
29692W        W96760   9.347  20.033  11.866
29693W        W96761  43.018  33.913   1.826
29694W        W96762  18.737  35.463   0.442
29695W        W96763  41.300   7.702   2.187
29696W        W96764  39.896  23.094   1.332
29697W        W96765  34.054  40.944   3.660
29698W        W96766   3.383  32.504   2.277
29699W        W96767   2.896  17.742   0.256
29700W        W96768  28.955  20.681   1.381
29701W        W96769  22.180  17.619  13.990
29702W        W96770  21.536  15.288   0.800
29703W        W96771   7.365  33.533   1.410
29704W        W96772   0.987  22.727  12.980
29705W        W96773  15.254   9.161  13.890
29706W        W96774  33.411  18.649   4.218
29707W        W96775  31.426  28.475   0.418
29708W        W96776  14.336  20.742   3.640
29709W        W96777  20.562   7.911   2.733
29710W        W96778  34.000  32.512  11.064
29711W        W96779  12.295  38.378   2.705
29712W        W96780   0.423  31.975  10.619
29713W        W96781  39.560   9.689   0.908
29714W        W96782  24.229  37.521  10.896
29715W        W96783  14.631  20.543  11.988
29716W        W96784   7.231  23.093   1.704
29717W        W96785  23.715   5.325   4.259
29718W        W96786  33.078  13.200   3.849
29719W        W96787  17.787  14.099   0.876
29720W        W96788   1.367  44.359  13.357
29721W        W96789   4.364  19.102   0.865
29722W        W96790  17.190  12.154   1.923
29723W        W96791  38.879  26.553   2.405
29724W        W96792  27.133  13.778   2.865
29725W        W96793  44.903   1.453  12.416
29726W        W96794  36.439  22.144   1.851
29727W        W96795  16.785  13.134  14.768
29728W        W96796  10.810  44.767  11.432
29729W        W96797  29.554   9.658  12.969
29730W        W96798  22.183  39.355   3.276
29731W        W96799  19.673  36.463  12.488
29732W        W96800  43.465  40.806   3.846
29733W        W96801   5.335   3.907  13.877
29734W        W96802   3.953  17.162   4.661
29735W        W96803  37.069  11.724   4.667
29736W        W96804  12.330  25.045   0.780
29737W        W96805   2.301   2.807  13.873
29738W        W96806  42.414  32.062   1.392
29739W        W96807  19.258  37.460   1.740
29740W        W96808  28.649   9.203  10.446
29741W        W96809  25.975  36.346   3.862
29742W        W96810  43.442  40.368   2.363
29743W        W96811   2.327  29.513  12.523
29744W        W96812  31.931  33.075   1.702
29745W        W96813  40.816  17.255  14.921
29746W        W96814  12.223  27.649  12.577
29747W        W96815  41.445   3.273  12.558
29748W        W96816  43.968  39.819  11.921
29749W        W96817  21.574   0.788   2.268
29750W        W96818  44.277   6.692   0.294
29751W        W96819   4.867  15.802  12.521
29752W        W96820  16.785  29.442   0.473
29753W        W96821  33.054  41.483   2.401
29754W        W96822  11.865  11.181  14.894
29755W        W96823  10.803  42.442  12.827
29756W        W96824  42.942  34.555  11.388
29757W        W96825   0.922  14.723   3.656
29758W        W96826  17.578  38.820  11.855
29759W        W96827  20.769   7.854  13.867
29760W        W96828  35.424  41.462  11.587
29761W        W96829  31.562  28.519  14.326
29762W        W96830  19.725   1.757   4.127
29763W        W96831   0.257  22.636  13.020
29764W        W96832  13.647  19.134  10.558
29765W        W96833  38.839   2.813  13.351
29766W        W96834  34.036   6.800   3.812
29767W        W96835  25.986   2.850  13.477
29768W        W96836   6.841   6.846  12.981
29769W        W96837   0.818  12.630  12.096
29770W        W96838   9.241  11.136   1.212
29771W        W96839   0.842  33.487  11.867
29772W        W96840  31.414   2.924   0.905
29773W        W96841  27.188  44.790   3.770
29774W        W96842  38.333  41.530   0.965
29775W        W96843  15.665   4.345   3.180
29776W        W96844  19.665  41.329   3.170
29777W        W96845  27.990  27.981   9.931
29778W        W96846  13.125   1.755   2.851
29779W        W96847  16.122  39.417  14.000
29780W        W96848  12.767   6.382  11.009
29781W        W96849  26.051  40.946   4.204
29782W        W96850  22.558  12.777   3.150
29783W        W96851  25.175  12.807  14.421
29784W        W96852  36.863  11.148   2.349
29785W        W96853  34.374  18.643   2.269
29786W        W96854  28.990  30.523  13.313
29787W        W96855  15.253  13.346  14.387
29788W        W96856  13.788  23.029  12.932
29789W        W96857   0.429  26.135  12.882
29790W        W96858  11.358  18.101   1.879
29791W        W96859  14.754  11.263   0.855
29792W        W96860   4.342  21.203  13.955
29793W        W96861  38.957  38.937  11.451
29794W        W96862  20.717   5.735   4.166
29795W        W96863  27.967  28.051  14.832
29796W        W96864  17.582  31.006   0.761
29797W        W96865  15.772   3.849   3.701
29798W        W96866  36.932   7.271  11.448
29799W        W96867  32.067  13.307  14.029
29800W        W96868   2.943  31.449   4.648
29801W        W96869  21.150  39.318   4.163
29802W        W96870   9.354   5.819   2.227
29803W        W96871  20.101  33.126  12.063
29804W        W96872  42.008  35.004   2.232
29805W        W96873  43.484  14.321  13.529
29806W        W96874  23.620  36.356  12.418
29807W        W96875  39.044   1.332  13.905
29808W        W96876   4.933   9.701  11.092
29809W        W96877   4.769   3.281  13.523
29810W        W96878  28.644  14.172   2.382
29811W        W96879  14.132  10.815   0.766
29812W        W96880  35.100  25.496  14.311
29813W        W96881  15.635  13.142   3.223
29814W        W96882  18.603  34.952  14.844
29815W        W96883  43.467  34.907   4.346
29816W        W96884  24.037  19.773  12.883
29817W        W96885  24.514   0.982  10.629
29818W        W96886  37.873   4.401   1.799
29819W        W96887   1.388  33.094   0.256
29820W        W96888  25.641  31.640   1.263
29821W        W96889  29.638  37.990  13.375
29822W        W96890  26.652  30.126   0.366
29823W        W96891  21.256  14.640  11.083
29824W        W96892  44.968  24.629   2.790
29825W        W96893   9.877   9.347   0.735
29826W        W96894  11.740  14.663  14.761
29827W        W96895  19.270  24.708  13.940
29828W        W96896  23.608  32.046   4.210
29829W        W96897  44.784   1.360   2.394
29830W        W96898  33.006  19.620   1.409
29831W        W96899  13.823  20.127  10.910
29832W        W96900  18.065   1.769   1.838
29833W        W96901  41.922  27.658   3.363
29834W        W96902  23.685  11.130   4.703
29835W        W96903  41.982  44.301  10.140
29836W        W96904  30.936  41.018  13.889
29837W        W96905  29.602  16.185  14.359
29838W        W96906  13.132  11.164  14.439
29839W        W96907  43.502  39.513  12.433
29840W        W96908  17.141   5.771  12.018
29841W        W96909  10.777  13.109   1.211
29842W        W96910  31.924  31.436  10.537
29843W        W96911  39.417  43.803  14.366
29844W        W96912  32.599   4.706  13.484
29845W        W96913  15.177   0.841   2.338
29846W        W96914   2.831   1.480  11.118
29847W        W96915  25.184   2.446  10.605
29848W        W96916   7.199  26.577   0.291
29849W        W96917  20.703  43.964   3.305
29850W        W96918  23.038  14.777  12.413
29851W        W96919  26.018  43.280  12.824
29852W        W96920  34.872  34.549  12.365
29853W        W96921  11.314  16.719  13.973
29854W        W96922  31.515   6.259  14.975
29855W        W96923   6.210  10.874   4.352
29856W        W96924  13.329  42.426   0.799
29857W        W96925  16.265  21.117  10.956
29858W        W96926  41.371  22.542  14.430
29859W        W96927  11.821  39.361  14.010
29860W        W96928  23.645  16.768   2.761
29861W        W96929  32.441  34.500  14.412
29862W        W96930  21.637  23.668   0.733
29863W        W96931  30.608  28.098   3.265
29864W        W96932  16.193   7.205   2.368
29865W        W96933   1.947  44.435  14.407
29866W        W96934  22.229  41.394   3.175
29867W        W96935  41.996  20.533  12.368
29868W        W96936   0.358   3.346  11.408
29869W        W96937  13.749  30.986  13.435
29870W        W96938  31.402  37.085  14.493
29871W        W96939   7.223  43.843  13.475
29872W        W96940  15.184   8.242   0.726
29873W        W96941  27.128  15.652   1.772
29874W        W96942  31.471  30.908  14.477
29875W        W96943  34.914   6.214   5.142
29876W        W96944  29.102  36.406  11.869
29877W        W96945  13.772  16.801  11.063
29878W        W96946  30.554  11.672  10.610
29879W        W96947   3.386  25.561   4.227
29880W        W96948  31.939   7.216   1.276
29881W        W96949  25.653   5.695  10.102
29882W        W96950  34.519  18.653  10.604
29883W        W96951  42.905   5.420  12.926
29884W        W96952  39.487  35.597  11.108
29885W        W96953  40.837   7.848  11.127
29886W        W96954  21.701  12.326  11.413
29887W        W96955  14.720  18.169   3.330
29888W        W96956  24.050  29.602   0.361
29889W        W96957  38.958  10.282  13.518
29890W        W96958  20.184  10.238   1.798
29891W        W96959  35.537  15.095   1.891
29892W        W96960   4.753  37.511   3.166
29893W        W96961  11.312  40.934   4.115
29894W        W96962  17.729  10.759   0.839
29895W        W96963  42.312  19.082   0.737
29896W        W96964  11.313   9.262  13.533
29897W        W96965  40.013  22.136   3.815
29898W        W96966  14.136  32.114  13.364
29899W        W96967  12.653  11.140  13.812
29900W        W96968  37.460   7.279   1.245
29901W        W96969  37.992  35.459   3.716
29902W        W96970   9.803   2.383  13.893
29903W        W96971  12.362  16.761  12.569
29904W        W96972   8.296   3.731  12.053
29905W        W96973  13.727  13.837  11.999
29906W        W96974  14.272  11.787   1.349
29907W        W96975   1.465  28.448  10.406
29908W        W96976  43.836  38.908  13.830
29909W        W96977  13.696  37.919   4.780
29910W        W96978  27.471  32.968  10.152
29911W        W96979   4.768  38.541  13.900
29912W        W96980  18.571  40.523  14.919
29913W        W96981  24.661  29.458  10.492
29914W        W96982  15.110  41.307   0.732
29915W        W96983  32.114   4.351  12.003
29916W        W96984   0.826  24.185  10.606
29917W        W96985  16.315  34.958  10.971
29918W        W96986   3.247   8.171   1.325
29919W        W96987  12.224   2.450  14.320
29920W        W96988  15.167  36.946   1.832
29921W        W96989  18.066  30.504   5.144
29922W        W96990   0.415   8.775   1.312
29923W        W96991  26.497  17.799   1.415
29924W        W96992  20.166  22.249  10.986
29925W        W96993   7.191  26.195   0.930
29926W        W96994  10.640  22.110  13.843
29927W        W96995  31.644  40.894  13.384
29928W        W96996   7.840  22.109   3.298
29929W        W96997  44.945  30.993  12.577
29930W        W96998  28.953  39.023  14.777
29931W        W96999  43.329  10.215  11.506
29932W        W97000  19.194  21.206  10.504
29933W        W97001  25.567  39.350   3.717
29934W        W97002   2.234  33.079   1.799
29935W        W97003  35.940   0.318  13.007
29936W        W97004   3.334  24.012   5.173
29937W        W97005  18.084  14.735  12.095
29938W        W97006  12.329  41.292  13.003
29939W        W97007  33.436   6.419   1.908
29940W        W97008  37.007  26.069  14.375
29941W        W97009  40.368  23.555  10.495
29942W        W97010  41.795   1.251   0.760
29943W        W97011   9.654   4.938  11.480
29944W        W97012  23.693  10.245  10.977
29945W        W97013  25.599  15.649  14.285
29946W        W97014  31.546  38.019  13.871
29947W        W97015  30.085  10.770  12.850
29948W        W97016   0.364  15.586   3.837
29949W        W97017  12.267  43.890  13.447
29950W        W97018   8.802  36.521  14.956
29951W        W97019  33.556  38.553  11.048
29952W        W97020  25.632   4.816  12.875
29953W        W97021  30.610   2.922   2.337
29954W        W97022  19.237  17.268  12.392
29955W        W97023  16.300   5.422   0.328
29956W        W97024  32.089  43.281   2.319
29957W        W97025  13.175   4.877  10.049
29958W        W97026  23.170   7.856  14.356
29959W        W97027   2.767  44.483   0.465
29960W        W97028  25.613  31.518   4.256
29961W        W97029   8.777  19.586   3.660
29962W        W97030   7.901   9.359   4.307
29963W        W97031  43.933  38.960   2.257
29964W        W97032  42.368  35.365  11.960
29965W        W97033  35.102  19.158   1.320
29966W        W97034  37.535  39.868  11.046
29967W        W97035  44.441  29.628   3.773
29968W        W97036  23.081   7.691  11.434
29969W        W97037   4.719  23.627   2.728
29970W        W97038  29.977  33.466  13.346
29971W        W97039  12.718  39.034  13.419
29972W        W97040   5.895  35.419  12.401
29973W        W97041  24.522   4.324   2.684
29974W        W97042  17.680   6.697  13.499
29975W        W97043   6.798  44.756   0.255
29976W        W97044  21.036   3.912  14.380
29977W        W97045  22.679   8.681  14.924
29978W        W97046  32.510   9.759  14.854
29979W        W97047   2.851  36.089   0.380
29980W        W97048  12.758  16.725  10.547
29981W        W97049  10.194  16.092  10.629
29982W        W97050  39.372  39.337  14.473
29983W        W97051  26.578  20.534   3.277
29984W        W97052   0.487  27.005  12.058
29985W        W97053  25.123  29.968   3.840
29986W        W97054  28.536  42.788  13.448
29987W        W97055   0.852   1.373   0.878
29988W        W97056  39.931  40.948   2.397
29989W        W97057  12.278  34.581   1.392
29990W        W97058  17.590   1.783  14.277
29991W        W97059  24.689  35.457   3.250
29992W        W97060   2.958  24.626   4.618
29993W        W97061  42.522   5.394   0.867
29994W        W97062  44.958  30.058  12.978
29995W        W97063   5.890  37.398  12.034
29996W        W97064  27.465   0.257   3.765
29997W        W97065   7.376  37.870   2.751
29998W        W97066  39.392  35.902   3.173
29999W        W97067  15.656  24.224   5.127
30000W        W97068  26.145  11.162  13.362
30001W        W97069  28.606  31.122  10.627
30002W        W97070  23.221   7.299   0.820
30003W        W97071  38.350  39.440   3.212
30004W        W97072  12.738  12.849  12.964
30005W        W97073  16.778  42.380   2.345
30006W        W97074  20.033  36.398  13.328
30007W        W97075  36.987  25.644  13.852
30008W        W97076  36.504  41.998  14.428
30009W        W97077  34.515  21.035  13.965
30010W        W97078  35.516  27.664  12.867
30011W        W97079   7.294  23.713  13.481
30012W        W97080  34.542   8.227  10.982
30013W        W97081  31.640  34.095  13.828
30014W        W97082  41.982   0.848   2.284
30015W        W97083  13.340   1.765  14.386
30016W        W97084  17.578   9.688   0.450
30017W        W97085  32.512  19.655  13.418
30018W        W97086  28.142  41.488  13.444
30019W        W97087  33.998   8.166  13.903
30020W        W97088  13.841   0.450   3.668
30021W        W97089   4.920   9.735  10.503
30022W        W97090   9.768  40.863   1.236
30023W        W97091  38.924  41.032   3.716
30024W        W97092   3.895  30.648  12.869
30025W        W97093  12.750   3.798  13.024
30026W        W97094  38.419   7.868  14.283
30027W        W97095   9.292   1.379   4.241
30028W        W97096  21.569  18.741  14.379
30029W        W97097  10.290  42.990  10.020
30030W        W97098  34.480  31.440   2.692
30031W        W97099  42.390  11.293   2.411
30032W        W97100  32.089  28.983  12.394
30033W        W97101  38.424  39.426  11.408
30034W        W97102  33.077   7.758   3.294
30035W        W97103   4.929   8.289  14.428
30036W        W97104  43.346  27.168   1.379
30037W        W97105  12.712  29.120   0.875
30038W        W97106  30.048  29.498  10.573
30039W        W97107   9.815  22.040  12.493
30040W        W97108  25.004  31.645  10.903
30041W        W97109  39.453   9.231   4.248
30042W        W97110  15.719  19.691   0.760
30043W        W97111  28.091  28.095  12.959
30044W        W97112  13.831  36.977   0.848
30045W        W97113  41.008  41.843  12.573
30046W        W97114  36.434  13.172  11.585
30047W        W97115   2.374  16.703  14.929
30048W        W97116  32.059   6.821   2.845
30049W        W97117  25.012  16.686   4.243
30050W        W97118  15.195   8.197  14.301
30051W        W97119  19.058   9.210  12.870
30052W        W97120  30.561   5.309  14.400
30053W        W97121  27.522  44.985  12.855
30054W        W97122   1.910   9.384  10.523
30055W        W97123  44.888  23.122  13.057
30056W        W97124  25.207  30.609  14.000
30057W        W97125  32.539  28.526  13.465
30058W        W97126  42.779  42.468   0.409
30059W        W97127  16.094  38.444  12.046
30060W        W97128  39.410   8.318   0.308
30061W        W97129  12.145  29.514  10.553
30062W        W97130  42.946  44.755  12.932
30063W        W97131  42.881  30.490   2.180
30064W        W97132  44.872  40.405   4.698
30065W        W97133  44.977  15.720   1.316
30066W        W97134  41.375  43.945  12.004
30067W        W97135  35.084  18.667   2.783
30068W        W97136   8.789  22.663   3.339
30069W        W97137   1.958  23.233  10.449
30070W        W97138   7.371   8.879  13.524
30071W        W97139  41.008   1.967  14.327
30072W        W97140  38.009  37.458  10.915
30073W        W97141  37.349  16.792  10.468
30074W        W97142  11.342  10.669  11.471
30075W        W97143  36.382   8.364   1.435
30076W        W97144  17.180  20.063   1.371
30077W        W97145  16.154  26.550  11.926
30078W        W97146   4.793   8.295   1.372
30079W        W97147  27.675  34.496   1.851
30080W        W97148   8.716  14.267  14.974
30081W        W97149  21.071   2.266   5.170
30082W        W97150  11.642  15.607  11.051
30083W        W97151  43.013  29.026  11.514
30084W        W97152  17.269  31.633  11.935
30085W        W97153  30.619  25.136   3.230
30086W        W97154  37.530  43.329   5.234
30087W        W97155  25.623  18.236   0.847
30088W        W97156   4.254  29.055  14.439
30089W        W97157  33.937  15.304  12.339
30090W        W97158  39.377  39.856   1.406
30091W        W97159   0.478   8.390  11.100
30092W        W97160  14.164  17.718   2.679
30093W        W97161  25.003  11.222   3.326
30094W        W97162  38.391  17.776   1.930
30095W        W97163  29.478   0.410   4.821
30096W        W97164  28.156  30.073  13.315
30097W        W97165  21.524  24.716   0.854
30098W        W97166   4.359   7.747   3.681
30099W        W97167   7.871  26.976  14.765
30100W        W97168  36.950  32.546  12.456
30101W        W97169   4.295  39.834  13.952
30102W        W97170   2.239  43.424   0.379
30103W        W97171  28.091  31.916   5.159
30104W        W97172  41.321  41.299   2.728
30105W        W97173  36.515  27.052   2.262
30106W        W97174   4.759   3.857  10.058
30107W        W97175  39.022  36.552   2.328
30108W        W97176   8.812  23.225   4.833
30109W        W97177  22.059  36.039  11.542
30110W        W97178  44.770  40.533  13.952
30111W        W97179  39.849   6.360  14.830
30112W        W97180  18.201   4.415  12.440
30113W        W97181  40.334  42.503   4.329
30114W        W97182  30.008  44.403  13.481
30115W        W97183   4.353  17.154  10.480
30116W        W97184   9.823  30.620  10.888
30117W        W97185  21.163  31.447   4.641
30118W        W97186  38.521  14.668   2.295
30119W        W97187  22.124   8.246  10.958
30120W        W97188   7.396  33.571   0.420
30121W        W97189  43.788  33.047  10.559
30122W        W97190   1.965  24.533   1.823
30123W        W97191  26.468   8.788  11.475
30124W        W97192  29.577  19.701  12.366
30125W        W97193  24.170  15.130  14.372
30126W        W97194  17.232  14.159  11.904
30127W        W97195  14.645  33.979   2.189
30128W        W97196   8.773  33.426  12.051
30129W        W97197  10.350   3.882   2.194
30130W        W97198  22.730  30.122  13.398
30131W        W97199  38.883  27.692  11.427
30132W        W97200  20.580  35.498  10.953
30133W        W97201  25.659   0.366  12.576
30134W        W97202  28.097   0.760   4.742
30135W        W97203  23.116  24.025  10.930
30136W        W97204   3.389   0.891   0.275
30137W        W97205  10.380  18.245  14.810
30138W        W97206  18.183   2.342  11.377
30139W        W97207  28.579  42.483  13.396
30140W        W97208  41.798  20.616   2.397
30141W        W97209   2.920  37.390  10.895
30142W        W97210   6.835  39.964   0.802
30143W        W97211  22.735  33.621  13.822
30144W        W97212  42.935  39.015   3.790
30145W        W97213  19.555  11.712  13.520
30146W        W97214  31.483  15.654   2.184
30147W        W97215  29.457  39.416  11.444
30148W        W97216  39.490  44.465  14.972
30149W        W97217  34.930  21.705  14.435
30150W        W97218  32.532  26.119  14.767
30151W        W97219   3.773  35.108  13.835
30152W        W97220  28.091  18.083   9.956
30153W        W97221  16.178  20.649   3.154
30154W        W97222  25.645   2.309   2.863
30155W        W97223  12.323  35.574  13.476
30156W        W97224  42.507  22.122  10.578
30157W        W97225  35.578  12.845  12.856
30158W        W97226   9.254  43.946   3.705
30159W        W97227  32.938  43.412  12.038
30160W        W97228  10.276  17.063  12.963
30161W        W97229  25.207   3.285   3.269
30162W        W97230  28.495  39.369   2.677
30163W        W97231   9.292  37.462  14.031
30164W        W97232  28.503  38.856  13.828
30165W        W97233  25.601  40.971  11.912
30166W        W97234  42.508  44.963   0.287
30167W        W97235  23.541   8.837   0.847
30168W        W97236  31.441  38.523  10.974
30169W        W97237  29.534  37.472  13.907
30170W        W97238  10.187  16.691   3.780
30171W        W97239  40.313   8.357   0.890
30172W        W97240  12.257  27.975   0.295
30173W        W97241  36.059  22.612   3.825
30174W        W97242  24.186  41.430  10.552
30175W        W97243   6.848  43.916   3.643
30176W        W97244   9.736  24.651  13.988
30177W        W97245   4.398  34.980   2.838
30178W        W97246   7.710   9.271  12.537
30179W        W97247  19.229   6.772   0.444
30180W        W97248   3.289  16.158  11.091
30181W        W97249  34.493  31.622  12.362
30182W        W97250   3.280  11.138  11.974
30183W        W97251  12.797  25.598   0.301
30184W        W97252   5.741  19.773   1.263
30185W        W97253  36.015  36.957  11.083
30186W        W97254  32.060  28.961   9.986
30187W        W97255  41.021  32.411   1.245
30188W        W97256  15.805  41.329  12.351
30189W        W97257   2.302  20.715   1.745
30190W        W97258  33.921  16.707  11.970
30191W        W97259  10.728   5.704   3.756
30192W        W97260  37.895  19.540   2.303
30193W        W97261  44.459   1.448  14.374
30194W        W97262   3.895  12.131  13.407
30195W        W97263  44.467  11.706   0.476
30196W        W97264  44.957  17.668  13.930
30197W        W97265  23.648  13.251   0.248
30198W        W97266  20.615   5.403   3.210
30199W        W97267  29.044  14.834  11.597
30200W        W97268  37.920  13.137   2.288
30201W        W97269   7.769   4.724   4.608
30202W        W97270  26.549  35.952  13.808
30203W        W97271  22.121  22.519   3.151
30204W        W97272  12.749  41.389   2.331
30205W        W97273  39.939  43.402   0.271
30206W        W97274   8.377   5.850  11.957
30207W        W97275  12.167  31.596  14.335
30208W        W97276  12.265  39.042   1.918
30209W        W97277   6.697  18.555  14.923
30210W        W97278   7.366  33.596  14.925
30211W        W97279  27.149  19.139  13.035
30212W        W97280  23.239  31.539   2.249
30213W        W97281   0.929  33.526   3.250
30214W        W97282   3.827  43.825   3.728
30215W        W97283   2.804  26.639  11.459
30216W        W97284  20.733  32.089   4.793
30217W        W97285   0.447  19.274   1.375
30218W        W97286   8.286  32.084  10.569
30219W        W97287   0.751  37.830  10.435
30220W        W97288   4.211  38.862   3.288
30221W        W97289   8.315   0.943   0.850
30222W        W97290  18.730  33.397   4.221
30223W        W97291   7.189   9.773  12.456
30224W        W97292  44.978  28.961   0.795
30225W        W97293  17.232  24.028   2.306
30226W        W97294  17.624  12.807  13.868
30227W        W97295  14.759   0.266   3.704
30228W        W97296  10.155  36.062  10.998
30229W        W97297  15.804  11.272   9.953
30230W        W97298  27.631  11.243  12.570
30231W        W97299  12.354  27.586  11.092
30232W        W97300  38.978  12.822   4.284
30233W        W97301  30.025  14.165   2.339
30234W        W97302  16.618  12.612  13.950
30235W        W97303   7.828  44.831   2.197
30236W        W97304  25.496  10.710  14.329
30237W        W97305  16.081  28.554  13.425
30238W        W97306  37.049  27.593   0.469
30239W        W97307  19.542  14.228  11.569
30240W        W97308  40.549   6.870   1.279
30241W        W97309  26.097  17.218   4.179
30242W        W97310  20.056   6.681   1.868
30243W        W97311  42.453  29.581  13.998
30244W        W97312  30.504   7.726  11.436
30245W        W97313  39.395  34.912  10.963
30246W        W97314  35.576  26.624  11.515
30247W        W97315   7.352  28.036  11.088
30248W        W97316  15.217  10.811  10.554
30249W        W97317  11.223  29.994  14.425
30250W        W97318  44.330  24.671  12.500
30251W        W97319  14.807  41.920   4.766
30252W        W97320   1.336  26.514   2.700
30253W        W97321  28.660  30.146   4.134
30254W        W97322  26.076  40.899   3.151
30255W        W97323  24.615  27.685  14.514
30256W        W97324   5.414  35.475   1.726
30257W        W97325  13.327  35.066   0.475
30258W        W97326  38.931  34.405   2.786
30259W        W97327  43.776  36.444   3.695
30260W        W97328  41.336   0.799   1.912
30261W        W97329  40.886  20.260   1.929
30262W        W97330  19.547  23.042   4.176
30263W        W97331  43.507  13.298   4.704
30264W        W97332  24.498  15.304  10.407
30265W        W97333  41.507  34.531  10.582
30266W        W97334  22.646   8.884   3.781
30267W        W97335  26.665   7.177  11.417
30268W        W97336  17.649  12.840   1.258
30269W        W97337   1.347  28.612   1.247
30270W        W97338  21.042  33.520  14.832
30271W        W97339  33.878  16.290  13.034
30272W        W97340  15.803  24.638   4.295
30273W        W97341   3.438  19.140   2.782
30274W        W97342  26.678  12.797   2.366
30275W        W97343  39.360   1.737   2.679
30276W        W97344  32.392  20.264   1.417
30277W        W97345  35.957  38.993  14.875
30278W        W97346  33.024  14.723  11.487
30279W        W97347  43.819  11.650   3.277
30280W        W97348  44.868  15.239   0.819
30281W        W97349   8.335  25.112   4.351
30282W        W97350  20.710  19.698   3.280
30283W        W97351  25.161   8.259  14.945
30284W        W97352  11.368  15.769   2.375
30285W        W97353  20.677   9.174   2.804
30286W        W97354  22.582  19.135   3.856
30287W        W97355  24.044   5.224   2.203
30288W        W97356  39.957  18.658  11.940
30289W        W97357  13.843  21.037   4.836
30290W        W97358  18.548  17.684  13.899
30291W        W97359  11.218  17.220  11.541
30292W        W97360   4.894   8.869  11.610
30293W        W97361  32.893  24.103  13.006
30294W        W97362  37.052   8.206   4.210
30295W        W97363   2.318  16.290   2.767
30296W        W97364   0.249  12.194  10.459
30297W        W97365  40.042  36.469   2.845
30298W        W97366   4.283  39.430  14.917
30299W        W97367  18.742   8.376   1.747
30300W        W97368   5.890  12.289  11.515
30301W        W97369  27.017   0.433   3.840
30302W        W97370  20.718  28.152   2.792
30303W        W97371  22.068  34.901   1.393
30304W        W97372  28.522  21.706   1.927
30305W        W97373   0.336   7.727   1.759
30306W        W97374  42.378   9.784  12.493
30307W        W97375  39.896  21.127   3.176
30308W        W97376   8.683   0.886  11.375
30309W        W97377  14.242  42.846   4.634
30310W        W97378  30.490   4.355  14.022
30311W        W97379  24.693  13.642   3.835
30312W        W97380   5.370  40.519   2.290
30313W        W97381  26.541  29.453   5.171
30314W        W97382   3.841  17.255   0.402
30315W        W97383  18.285   0.824  13.381
30316W        W97384  27.026  10.362  12.371
30317W        W97385  35.458  34.995  12.455
30318W        W97386  24.709  28.617  12.983
30319W        W97387   9.221  28.186  10.637
30320W        W97388  43.769   9.315   4.601
30321W        W97389  15.733  26.163   4.224
30322W        W97390  19.593  34.943   0.255
30323W        W97391  29.156   1.346  13.867
30324W        W97392  18.121  41.323   0.862
30325W        W97393  24.643  40.531  14.760
30326W        W97394   6.679  17.611  10.994
30327W        W97395   4.786   8.691  10.493
30328W        W97396   2.302   3.742   0.402
30329W        W97397  12.855   9.800   1.371
30330W        W97398  19.660   7.396  12.411
30331W        W97399  23.091  26.152  14.477
30332W        W97400  11.849  35.563  12.499
30333W        W97401   3.806  41.908   1.422
30334W        W97402  44.777  18.158  12.463
30335W        W97403   4.380  35.043  10.640
30336W        W97404  20.216  38.877   0.931
30337W        W97405  29.433  11.324   0.324
30338W        W97406  38.925  15.092  13.800
30339W        W97407   6.733  15.219  12.430
30340W        W97408   8.362  10.875  13.521
30341W        W97409  33.430  29.990   1.846
30342W        W97410  44.916  27.521   4.663
30343W        W97411  44.907  40.800   1.757
30344W        W97412  19.181  34.050  12.955
30345W        W97413  28.680  16.173   4.680
30346W        W97414  31.496   6.864  12.834
30347W        W97415  34.551  21.074   1.409
30348W        W97416  28.614   7.412  11.428
30349W        W97417  30.555  23.555   4.168
30350W        W97418  10.830   0.893  12.874
30351W        W97419  37.873  21.520  14.777
30352W        W97420   6.385  28.003   1.925
30353W        W97421   3.239  12.788   1.372
30354W        W97422   9.296  39.892  10.579
30355W        W97423  44.455  39.402   1.815
30356W        W97424  23.577  23.635  11.565
30357W        W97425   6.723   0.791   0.273
30358W        W97426  11.344   1.900  13.812
30359W        W97427   0.765  19.549   4.257
30360W        W97428  14.607  35.932   5.132
30361W        W97429  19.206   2.818   2.721
30362W        W97430  12.614   4.304   1.789
30363W        W97431   1.248  29.975   0.451
30364W        W97432  41.312  12.300   0.429
30365W        W97433   5.290   9.865   0.778
30366W        W97434  36.514  12.838   4.710
30367W        W97435   0.350  44.949  14.307
30368W        W97436   1.255  35.946   2.315
30369W        W97437  24.145  20.702   1.363
30370W        W97438  25.589  15.805  13.524
30371W        W97439   9.881  12.265  11.512
30372W        W97440   4.905  29.639   2.413
30373W        W97441  15.312  40.951   4.724
30374W        W97442  15.715  29.967   4.214
30375W        W97443   1.363  33.022   1.438
30376W        W97444  14.231  44.833   2.670
30377W        W97445   7.685   0.452  10.921
30378W        W97446   7.745  24.016   4.739
30379W        W97447  29.620  22.039  14.893
30380W        W97448  30.504   8.263   1.267
30381W        W97449  11.300  44.948  13.880
30382W        W97450   4.847   4.704   4.751
30383W        W97451  41.921   4.805  11.903
30384W        W97452  25.573  39.377  10.510
30385W        W97453  43.296   8.819   4.765
30386W        W97454  36.098  17.573   0.451
30387W        W97455  38.057  10.765   1.331
30388W        W97456  35.587  10.184   2.390
30389W        W97457   0.402   9.647  11.435
30390W        W97458  23.643  43.445  10.633
30391W        W97459  27.017   5.781  10.582
30392W        W97460  27.480   5.268  10.949
30393W        W97461  19.635  15.586   5.162
30394W        W97462  42.418   6.754   1.284
30395W        W97463   2.348  37.444  13.520
30396W        W97464  27.678  37.546   3.798
30397W        W97465   6.906  31.945   4.241
30398W        W97466   6.688  27.524  11.856
30399W        W97467  44.416   1.898  11.461
30400W        W97468  30.116   4.208   3.830
30401W        W97469   9.744   2.232   2.242
30402W        W97470  39.369  30.957   1.258
30403W        W97471  25.697   5.897  14.840
30404W        W97472   8.365  22.628   1.865
30405W        W97473  10.302  39.365  11.878
30406W        W97474  31.986  19.103  14.869
30407W        W97475  44.910   0.464  14.346
30408W        W97476   5.822   2.879  11.449
30409W        W97477  15.229  41.020   0.880
30410W        W97478  16.091  33.550   0.963
30411W        W97479  41.973  33.886  14.001
30412W        W97480  17.666  40.337   0.939
30413W        W97481  41.892   2.865  12.014
30414W        W97482  20.228  14.309   0.881
30415W        W97483   7.310   8.872  10.919
30416W        W97484  19.247  32.444   1.899
30417W        W97485   8.165   5.810  14.803
30418W        W97486  22.143  17.582  12.369
30419W        W97487   6.392  21.061  13.502
30420W        W97488  16.218  16.689   4.238
30421W        W97489  15.298  35.511  14.478
30422W        W97490   9.832  43.502   1.886
30423W        W97491  34.997  24.503  10.932
30424W        W97492  29.054  21.547   2.890
30425W        W97493  18.750  41.408   5.279
30426W        W97494   1.432   1.815  10.942
30427W        W97495  13.325  25.211   3.774
30428W        W97496  36.066   8.888   3.768
30429W        W97497  10.357  20.118  12.408
30430W        W97498  38.560  24.716  14.982
30431W        W97499  22.195  26.567  12.440
30432W        W97500  43.925  28.494   3.724
30433W        W97501  17.254  14.309  11.043
30434W        W97502  32.399  10.215   2.682
30435W        W97503  25.980   8.350   1.878
30436W        W97504  28.444  35.964  13.514
30437W        W97505  43.877  23.080   4.745
30438W        W97506  18.717  40.866   0.362
30439W        W97507  25.187  19.682   3.190
30440W        W97508  37.043   8.373  14.857
30441W        W97509   6.223  11.218   3.637
30442W        W97510  32.583   9.315   4.716
30443W        W97511  14.798  36.897   3.312
30444W        W97512  43.870  22.216   3.278
30445W        W97513  21.083  26.982   3.687
30446W        W97514   9.761  28.945   3.722
30447W        W97515  18.223  31.569   2.282
30448W        W97516  12.161  24.697  10.504
30449W        W97517  37.541   9.779  10.516
30450W        W97518  20.606  12.122  14.022
30451W        W97519  42.923  41.837  13.321
30452W        W97520  10.655  18.612  11.007
30453W        W97521  23.146  18.060   3.247
30454W        W97522  11.696  24.580   4.153
30455W        W97523  21.728  30.470   0.460
30456W        W97524  10.364  16.742   0.408
30457W        W97525   6.904  42.333  14.779
30458W        W97526  14.782  29.924  13.890
30459W        W97527  39.503   9.693   2.256
30460W        W97528  42.493   7.739   2.209
30461W        W97529  36.361  34.597   1.426
30462W        W97530  41.960  35.533   1.307
30463W        W97531   0.847  37.579  14.847
30464W        W97532  37.421   8.252  11.954
30465W        W97533  16.746  13.115   1.382
30466W        W97534  17.625  11.196   3.358
30467W        W97535  28.469  17.615  13.428
30468W        W97536   8.898   0.792   1.225
30469W        W97537  13.252  36.563   0.330
30470W        W97538  29.649  27.014   0.317
30471W        W97539  28.652  38.414  10.444
30472W        W97540  36.086  44.828  12.980
30473W        W97541  18.708   6.761   4.670
30474W        W97542  14.125  33.562  13.886
30475W        W97543  14.336  15.112   1.722
30476W        W97544  33.548  12.331   3.238
30477W        W97545  12.723  12.275   4.263
30478W        W97546  32.964  27.962  14.281
30479W        W97547   8.271  36.910   2.395
30480W        W97548  25.972   0.897   4.683
30481W        W97549  32.921  24.047  13.968
30482W        W97550  41.463  10.295   3.342
30483W        W97551  17.741  13.640  12.394
30484W        W97552   0.813  25.657   1.697
30485W        W97553  10.655  41.495  10.559
30486W        W97554  34.585  21.656   4.229
30487W        W97555  22.011  23.681  14.022
30488W        W97556  39.888  35.429  10.982
30489W        W97557  19.051  40.868  10.950
30490W        W97558  30.637  19.281  14.479
30491W        W97559  40.308  18.089  11.942
30492W        W97560  21.611  31.600  11.040
30493W        W97561   8.201  13.817   3.373
30494W        W97562  27.642  22.072   3.753
30495W        W97563  18.214  44.273  11.442
30496W        W97564   9.254  31.434  12.458
30497W        W97565  39.475  15.615   0.276
30498W        W97566  27.692  18.157  10.999
30499W        W97567  18.761   2.786  12.372
30500W        W97568  25.507   0.357   4.317
30501W        W97569   2.300  12.818  13.538
30502W        W97570  30.080  40.940  11.398
30503W        W97571   2.459  29.068   0.814
30504W        W97572  16.187  33.118   2.373
30505W        W97573  28.114  31.439   4.715
30506W        W97574  20.684  35.401   1.275
30507W        W97575  34.419  40.527   1.390
30508W        W97576  10.871  32.537   3.240
30509W        W97577  30.549  10.181  12.901
30510W        W97578  23.095  14.154  11.372
30511W        W97579   2.472  25.070   5.116
30512W        W97580  28.060   9.263   3.259
30513W        W97581  43.298  35.596   3.263
30514W        W97582  37.053  19.106   3.263
30515W        W97583  42.486   6.320  11.053
30516W        W97584  21.121  38.333   0.811
30517W        W97585  36.870  26.095   1.222
30518W        W97586  43.931  40.045   2.815
30519W        W97587  21.100   1.818  11.986
30520W        W97588  21.631  12.771   2.329
30521W        W97589  13.788  24.099  14.906
30522W        W97590  20.093  23.732   3.675
30523W        W97591  14.603  26.514   5.194
30524W        W97592  26.036  15.587  14.895
30525W        W97593  24.618  27.470   0.906
30526W        W97594  12.777  14.197  14.912
30527W        W97595  41.435  29.106  11.066
30528W        W97596  10.632  22.064   3.746
30529W        W97597  42.789  24.069   4.279
30530W        W97598  33.473  14.778   0.943
30531W        W97599  44.843  25.075  13.307
30532W        W97600   0.318  44.410   0.330
30533W        W97601  27.096  17.122  12.977
30534W        W97602  26.086   6.844   1.363
30535W        W97603  14.808  34.406   4.226
30536W        W97604  27.601  23.573   4.802
30537W        W97605  42.356  35.072  13.937
30538W        W97606   0.847  30.440  14.350
30539W        W97607  28.131   3.256   2.724
30540W        W97608  36.443   3.779  11.448
30541W        W97609  35.546  33.570  12.914
30542W        W97610   4.327  25.581  11.941
30543W        W97611  41.369  18.209   0.923
30544W        W97612  21.524  30.565   2.254
30545W        W97613  28.957  17.063  13.323
30546W        W97614  27.022   3.801   2.347
30547W        W97615  17.786  22.531  12.063
30548W        W97616   5.701   3.917   4.746
30549W        W97617  28.034  11.290   3.219
30550W        W97618   6.898  27.625   3.161
30551W        W97619   7.317   5.806  10.558
30552W        W97620  25.057   3.251   2.220
30553W        W97621  36.370  27.989   2.784
30554W        W97622   5.220  22.226   4.720
30555W        W97623   6.734   5.790   3.324
30556W        W97624   7.233  42.479  13.539
30557W        W97625  36.474  12.239   0.364
30558W        W97626  19.629  33.920  14.895
30559W        W97627  44.859   1.265  14.977
30560W        W97628  16.666  11.252   2.847
30561W        W97629  43.327  44.436   0.472
30562W        W97630   4.342   3.215   4.182
30563W        W97631  20.239  16.223  10.565
30564W        W97632  42.815   2.898  12.971
30565W        W97633  42.415  15.768   1.819
30566W        W97634  36.914   5.234   2.298
30567W        W97635  37.015  10.833   1.358
30568W        W97636  21.068  21.196   2.862
30569W        W97637   5.854  39.414  11.855
30570W        W97638   6.816  11.306   3.249
30571W        W97639   5.790   9.192  14.881
30572W        W97640   8.826  44.318   3.321
30573W        W97641   0.285  30.038  11.066
30574W        W97642  39.817  42.510  14.515
30575W        W97643  22.012  10.144   4.296
30576W        W97644  36.008  10.853  13.310
30577W        W97645  22.095   1.425  13.968
30578W        W97646  10.345   7.865  13.418
30579W        W97647  22.673   1.473   3.315
30580W        W97648  10.732  32.465  12.445
30581W        W97649  20.098   0.482   4.655
30582W        W97650  30.454  19.279   2.336
30583W        W97651  11.822  40.800   2.336
30584W        W97652  22.202  31.992   2.880
30585W        W97653  36.962  17.265   3.236
30586W        W97654  12.162  24.005   2.692
30587W        W97655  24.601  32.998   4.203
30588W        W97656  25.687  21.523   0.321
30589W        W97657   5.249  19.077  12.418
30590W        W97658  21.246  29.493  11.965
30591W        W97659  35.547  24.126  14.410
30592W        W97660   0.769  17.255   2.891
30593W        W97661   2.883  39.850  12.845
30594W        W97662  34.589  14.692   1.867
30595W        W97663   9.858  11.190  11.915
30596W        W97664  13.347  36.541  14.508
30597W        W97665  38.884  42.968  14.777
30598W        W97666  34.518  40.900  13.018
30599W        W97667  13.778  38.826   1.278
30600W        W97668  43.296  37.370   4.196
30601W        W97669   1.963   5.409   2.861
30602W        W97670   9.163  33.504  12.477
30603W        W97671  25.132  10.840   0.258
30604W        W97672  42.330  18.693  10.563
30605W        W97673  36.034  28.583   0.362
30606W        W97674  35.464  11.272   3.299
30607W        W97675   7.394  44.919  12.436
30608W        W97676  26.582  13.779   1.786
30609W        W97677  43.428  21.146   4.629
30610W        W97678  18.294  35.889  13.818
30611W        W97679  25.657  26.093   2.178
30612W        W97680  27.620  25.616   3.710
30613W        W97681  13.821  40.828  14.329
30614W        W97682   9.753   6.245   0.866
30615W        W97683  40.537  42.972  12.059
30616W        W97684  28.053  26.070   0.440
30617W        W97685  33.016  33.036   2.202
30618W        W97686  43.434   9.683   0.315
30619W        W97687  13.229  29.067   0.428
30620W        W97688   5.302  27.688  14.429
30621W        W97689   7.803  29.153   1.293
30622W        W97690  31.406  30.003  13.336
30623W        W97691   1.452   1.915  14.394
30624W        W97692  34.063  10.874  13.534
30625W        W97693  33.503  44.451   9.973
30626W        W97694  27.457  40.025   4.328
30627W        W97695  20.052  27.982  11.373
30628W        W97696   0.253  25.990   0.377
30629W        W97697  12.266   3.424   0.740
30630W        W97698  22.738  23.518   1.741
30631W        W97699  20.706  13.644  11.579
30632W        W97700   8.854  39.814  12.896
30633W        W97701  38.461  17.600  13.348
30634W        W97702  43.894   6.844  13.049
30635W        W97703  17.260   1.330  13.891
30636W        W97704   3.758  13.158  12.534
30637W        W97705  42.470  43.345   3.688
30638W        W97706  30.021  23.134  11.605
30639W        W97707   2.720  25.635  10.962
30640W        W97708  27.534  16.189   4.226
30641W        W97709  17.107  12.243  14.392
30642W        W97710  29.489   2.235   4.289
30643W        W97711  16.708  28.186   3.815
30644W        W97712  28.559   0.256  13.016
30645W        W97713  11.739  17.224  13.432
30646W        W97714  43.772  43.337   1.349
30647W        W97715  22.068  34.011   0.965
30648W        W97716  18.773  20.116  14.810
30649W        W97717   6.827  10.691   4.262
30650W        W97718  24.494  10.763  11.913
30651W        W97719  15.233  13.791  14.006
30652W        W97720  16.685  22.576  13.455
30653W        W97721   8.349  29.507  12.906
30654W        W97722  23.611  35.859  11.598
30655W        W97723  25.060  36.872  12.982
30656W        W97724  16.162  15.216  11.382
30657W        W97725  24.617  35.858  10.898
30658W        W97726  19.629  40.543   1.371
30659W        W97727  10.663  38.954  12.073
30660W        W97728   6.868  17.594   3.168
30661W        W97729  36.088   2.850  11.893
30662W        W97730   4.354  20.700  13.310
30663W        W97731   4.346  13.311   3.722
30664W        W97732  43.890  41.435   4.259
30665W        W97733   9.766  32.449  11.560
30666W        W97734   6.866  20.071   3.837
30667W        W97735  12.808  40.900   4.734
30668W        W97736  38.417  29.990   2.716
30669W        W97737  11.675  12.721  12.025
30670W        W97738  27.496  44.835   2.221
30671W        W97739   4.228  34.599   0.838
30672W        W97740  21.147  27.155  11.073
30673W        W97741   5.247  15.699   3.365
30674W        W97742  34.609  38.051  13.870
30675W        W97743  37.995   3.335   2.731
30676W        W97744  32.586  28.451   9.655
30677W        W97745   6.859  41.825   1.802
30678W        W97746   7.319  18.773   1.371
30679W        W97747  37.409  26.174  11.488
30680W        W97748   3.395  43.829   2.250
30681W        W97749  31.645  38.964  10.936
30682W        W97750   7.341   8.343  14.347
30683W        W97751   7.316  37.384  10.925
30684W        W97752  12.715  25.175   4.149
30685W        W97753  34.954   2.809  11.887
30686W        W97754  38.977  16.207   3.157
30687W        W97755  33.479  16.757  13.889
30688W        W97756  12.239  33.998  14.803
30689W        W97757  42.296   4.892  13.013
30690W        W97758  23.232  34.372   0.400
30691W        W97759  22.735  39.549  12.892
30692W        W97760  16.708   4.210  13.814
30693W        W97761  20.607  12.834   2.686
30694W        W97762  27.633   4.910   2.313
30695W        W97763   7.787  37.510   3.816
30696W        W97764  38.931   4.925  14.377
30697W        W97765  32.404  36.475  11.917
30698W        W97766   9.377  39.549  13.832
30699W        W97767  19.268   0.956  10.444
30700W        W97768  31.629  35.515  12.844
30701W        W97769  39.345  44.899  11.001
30702W        W97770  18.783  28.012   4.635
30703W        W97771  25.162  21.551   1.319
30704W        W97772  37.842  16.286   4.756
30705W        W97773   9.812  34.525   3.155
30706W        W97774  33.897  25.098   0.268
30707W        W97775   3.733  14.629  10.416
30708W        W97776  20.236  42.862   4.606
30709W        W97777   1.326  37.838  12.088
30710W        W97778  43.354  25.169   4.796
30711W        W97779  41.963  16.713   4.222
30712W        W97780  41.385  10.183  12.900
30713W        W97781   2.854  22.644  14.850
30714W        W97782   4.799  33.888  10.528
30715W        W97783   3.891  15.231  12.539
30716W        W97784  34.497   2.341  11.971
30717W        W97785  23.523  14.674  13.795
30718W        W97786   0.305   7.342   2.303
30719W        W97787  26.500  18.108   3.238
30720W        W97788  10.221  39.346  10.550
30721W        W97789  25.020  17.075  11.087
30722W        W97790  44.371   8.316   2.304
30723W        W97791  29.426  43.974  13.367
30724W        W97792  37.386  28.064   0.822
30725W        W97793  18.152   5.723  13.032
30726W        W97794  19.154  29.508  13.992
30727W        W97795  18.115  21.176  14.924
30728W        W97796  26.634  27.628   0.460
30729W        W97797  30.009  34.044   2.888
30730W        W97798  44.433  17.695  11.976
30731W        W97799  26.077  31.562  11.939
30732W        W97800   5.849  41.345  13.820
30733W        W97801  42.363   0.884  13.893
30734W        W97802  37.476  13.338   5.301
30735W        W97803  29.461  33.612  11.595
30736W        W97804  31.943  36.503  14.343
30737W        W97805   9.857  24.579   4.795
30738W        W97806   7.699  17.585   3.304
30739W        W97807  21.695  10.331   1.326
30740W        W97808  33.562  22.660   2.751
30741W        W97809   5.893  34.059  12.487
30742W        W97810   8.724  41.445  13.881
30743W        W97811   5.281  12.641  13.404
30744W        W97812  29.114  23.529   3.337
30745W        W97813  30.092   4.779  11.123
30746W        W97814  32.477  17.555  11.371
30747W        W97815  11.157  10.245   3.702
30748W        W97816  25.194  20.053   3.294
30749W        W97817  17.721  18.601   2.671
30750W        W97818  20.049  28.641  10.933
30751W        W97819  29.948  12.745  11.500
30752W        W97820  30.109  16.733  12.497
30753W        W97821  43.899  40.935  11.086
30754W        W97822  12.628  13.842   4.716
30755W        W97823  34.463  15.175   4.139
30756W        W97824   9.667  43.836  12.481
30757W        W97825  14.124  34.378   3.234
30758W        W97826  26.972  43.407  14.760
30759W        W97827   9.754  40.035  12.053
30760W        W97828  11.160  39.009   4.775
30761W        W97829  21.572  27.156  13.945
30762W        W97830  30.006  25.666   3.697
30763W        W97831   7.744  42.342   4.616
30764W        W97832  14.223  27.607  14.511
30765W        W97833   6.791  38.972   0.279
30766W        W97834   4.790  38.402  10.551
30767W        W97835  10.716  38.859  13.022
30768W        W97836  29.930   7.180   4.792
30769W        W97837  40.820   0.749  14.861
30770W        W97838   7.192  37.402   0.911
30771W        W97839  29.122  44.450   2.410
30772W        W97840   6.353   3.252  12.910
30773W        W97841  30.612  23.083  14.512
30774W        W97842  40.923  34.089  13.012
30775W        W97843  19.643   0.270  12.446
30776W        W97844  11.280  30.996  14.291
30777W        W97845  25.070  25.608  14.854
30778W        W97846  24.540  21.702  12.084
30779W        W97847  15.603  20.185   1.783
30780W        W97848  12.290  42.802  11.565
30781W        W97849  44.836  17.672  11.543
30782W        W97850   9.881  23.700   0.354
30783W        W97851  20.572  37.368   0.333
30784W        W97852   7.361  30.065  14.914
30785W        W97853  43.888  32.539   0.730
30786W        W97854  13.218  24.197  14.471
30787W        W97855   8.755  44.890   0.440
30788W        W97856  31.929  13.349   2.864
30789W        W97857  15.759  31.941  12.492
30790W        W97858  36.005  17.260  14.836
30791W        W97859  25.600  13.720   3.845
30792W        W97860  21.090  44.994  11.925
30793W        W97861  36.876  35.044   2.759
30794W        W97862  32.891  21.567   1.334
30795W        W97863  21.228  41.508   0.785
30796W        W97864  29.924  28.484  11.393
30797W        W97865  36.408  43.289   4.719
30798W        W97866  32.545  40.813   4.337
30799W        W97867   0.318   9.689  13.514
30800W        W97868  10.339   3.891  13.824
30801W        W97869  38.962  14.633  14.318
30802W        W97870  34.534   4.285   2.788
30803W        W97871   5.404  21.705   2.202
30804W        W97872  10.688  21.052  14.313
30805W        W97873   5.388  26.001   3.372
30806W        W97874  21.079  13.720   1.865
30807W        W97875  14.132   3.249  14.027
30808W        W97876  25.156  10.286   2.204
30809W        W97877  38.466  28.593   3.723
30810W        W97878   6.279  15.138  14.843
30811W        W97879   5.751   6.897  14.791
30812W        W97880  14.721   4.931   3.787
30813W        W97881  31.070  10.764   1.880
30814W        W97882  30.493  34.550   3.226
30815W        W97883   5.258  38.841   2.315
30816W        W97884  30.421  34.030  12.578
30817W        W97885  30.654  28.503   0.426
30818W        W97886  11.304   9.281   0.861
30819W        W97887   5.747  12.343   4.800
30820W        W97888  11.207  13.179   1.228
30821W        W97889   6.879  33.047  11.958
30822W        W97890  18.667   1.956   1.785
30823W        W97891  18.176   8.181  11.410
30824W        W97892  37.951  34.443  14.935
30825W        W97893  41.043   4.785   3.660
30826W        W97894  21.614  36.057  13.806
30827W        W97895  19.706  15.286   2.887
30828W        W97896  16.734   9.756   3.150
30829W        W97897   8.895   3.259  10.624
30830W        W97898  39.947   2.903  11.375
30831W        W97899  19.622  14.811  14.966
30832W        W97900  41.006   8.796   1.413
30833W        W97901   3.854  18.145   3.213
30834W        W97902  20.222  15.698  13.809
30835W        W97903   0.298   0.389  11.600
30836W        W97904   7.859  30.639   5.278
30837W        W97905  29.990  37.517  12.340
30838W        W97906  37.474  19.577  14.916
30839W        W97907   0.964  42.288   3.856
30840W        W97908   7.676  37.352   4.711
30841W        W97909  38.326  21.734  13.855
30842W        W97910  28.440   6.361   4.707
30843W        W97911  21.077  37.495   1.931
30844W        W97912  22.253  25.080  12.073
30845W        W97913  15.625  27.057  12.070
30846W        W97914   3.764  40.445   1.833
30847W        W97915  16.151  14.617  12.374
30848W        W97916  41.454  18.557   1.918
30849W        W97917  23.992   2.908   3.772
30850W        W97918  38.386   2.868  12.545
30851W        W97919  31.444  36.568  10.641
30852W        W97920  32.028  15.301   3.857
30853W        W97921  36.578   4.868  10.581
30854W        W97922  25.668   6.866   3.324
30855W        W97923  30.459  33.901  13.967
30856W        W97924  34.110  38.004   4.821
30857W        W97925  31.113  44.954  13.048
30858W        W97926  18.780  10.642   2.675
30859W        W97927  11.758  34.915   0.374
30860W        W97928  12.644  22.611   0.408
30861W        W97929   3.306  17.101  12.071
30862W        W97930   4.367  23.090  14.862
30863W        W97931   8.372   1.865  13.541
30864W        W97932  13.339  27.475   2.395
30865W        W97933  20.094  23.588   2.383
30866W        W97934  24.105  37.842   2.809
30867W        W97935  39.534  20.154   0.845
30868W        W97936  41.010  26.476  12.025
30869W        W97937  43.481   6.840   2.732
30870W        W97938   7.819  44.468   0.942
30871W        W97939  41.389  43.482  14.898
30872W        W97940  14.292  13.680  10.585
30873W        W97941  28.663  40.472  12.375
30874W        W97942  41.303  19.594  14.453
30875W        W97943  16.691  10.809  11.039
30876W        W97944  33.961  18.549   4.196
30877W        W97945   6.339  11.168   1.924
30878W        W97946   0.309  43.969   0.439
30879W        W97947  10.732   6.709   0.460
30880W        W97948  10.721  35.361   0.732
30881W        W97949  34.021  33.521  12.002
30882W        W97950  43.402  39.531   3.652
30883W        W97951  23.059  24.071  13.534
30884W        W97952  34.563   7.755   4.137
30885W        W97953  16.310  31.008  13.872
30886W        W97954  21.076  16.094  11.410
30887W        W97955  13.611  40.839   4.612
30888W        W97956   4.705  27.084   5.082
30889W        W97957  12.800  39.938   3.866
30890W        W97958  39.395  39.489   4.645
30891W        W97959  22.219  29.670   0.481
30892W        W97960  18.120  23.213   4.622
30893W        W97961  15.262  33.547  12.466
30894W        W97962  35.928  17.768   1.870
30895W        W97963  15.156   7.771  11.125
30896W        W97964   4.755  33.380  14.024
30897W        W97965  13.125  13.250  10.582
30898W        W97966   9.211  33.912   2.373
30899W        W97967  41.522  30.514   1.848
30900W        W97968   1.935  38.045  11.899
30901W        W97969  27.944  43.299  14.504
30902W        W97970   8.887  18.166   3.266
30903W        W97971  33.098  32.609  10.484
30904W        W97972  44.838  17.225  11.924
30905W        W97973  28.149  13.838  14.412
30906W        W97974   7.382  44.438   2.302
30907W        W97975  15.775  17.303  10.429
30908W        W97976  18.067  31.033   5.666
30909W        W97977  14.328  27.965   1.427
30910W        W97978  30.068   0.988   3.822
30911W        W97979  11.169  31.920   1.709
30912W        W97980  39.813   3.304   0.461
30913W        W97981  39.406  43.302   0.407
30914W        W97982  15.593  14.643  14.475
30915W        W97983   7.374  29.536  11.411
30916W        W97984  44.817  19.547  13.332
30917W        W97985  40.377  29.520   3.746
30918W        W97986   9.150  44.790   3.228
30919W        W97987   7.801  16.659   2.884
30920W        W97988  14.817  27.575  10.968
30921W        W97989  12.704  41.336   1.368
30922W        W97990  38.498  40.535   1.696
30923W        W97991  33.442  29.082  13.054
30924W        W97992   4.377   3.385   3.307
30925W        W97993  38.987  15.309  12.389
30926W        W97994  30.536  35.106  10.019
30927W        W97995  38.985  40.889  12.350
30928W        W97996  27.094  44.384   2.303
30929W        W97997  29.497  10.818   2.333
30930W        W97998  31.919  28.536   1.838
30931W        W97999  40.442  37.891  12.925
30932W        W98000   5.301   8.668   5.192
30933W        W98001  19.229  39.026   5.173
30934W        W98002  16.617  35.520   3.239
30935W        W98003  43.001  23.169   3.347
30936W        W98004  27.956  40.481   9.924
30937W        W98005   8.193  23.148   3.216
30938W        W98006  30.008  17.569   0.815
30939W        W98007  32.475  16.649   1.900
30940W        W98008   4.817  16.612  10.436
30941W        W98009  24.033   2.332  11.980
30942W        W98010  31.439  16.303  13.942
30943W        W98011  39.378  44.951  11.419
30944W        W98012  43.509  37.022  11.025
30945W        W98013  32.575  22.564   0.867
30946W        W98014  28.516   5.878   4.119
30947W        W98015   1.779  35.096   5.313
30948W        W98016  28.039  15.805   0.807
30949W        W98017   3.439   2.375  13.969
30950W        W98018   6.720  10.210   1.912
30951W        W98019  27.054  34.560  11.465
30952W        W98020  15.271  12.310  14.319
30953W        W98021  23.555  27.465  14.384
30954W        W98022  38.561  31.964   4.612
30955W        W98023  12.297   1.274  14.970
30956W        W98024  43.975   0.251   0.362
30957W        W98025  39.941  44.908   0.367
30958W        W98026  35.037  39.877  14.348
30959W        W98027   7.747  13.843  11.514
30960W        W98028  24.633   7.854   4.761
30961W        W98029  10.731   7.281   0.878
30962W        W98030  13.349  26.195   2.855
30963W        W98031  33.579  23.496   1.857
30964W        W98032  11.178   4.930  10.958
30965W        W98033  35.011  20.684   3.722
30966W        W98034  24.227  42.457   0.920
30967W        W98035  23.664  36.861   1.899
30968W        W98036  29.058  38.873  12.893
30969W        W98037  40.438  44.377   1.868
30970W        W98038   2.722  31.923   2.866
30971W        W98039  26.964  42.853   1.811
30972W        W98040  30.110  42.819  10.966
30973W        W98041   1.889   1.942   3.808
30974W        W98042   2.379   3.897   1.826
30975W        W98043  10.309   8.656   4.177
30976W        W98044  27.622  26.167   3.343
30977W        W98045   9.696  26.111   4.176
30978W        W98046  37.433   3.435  13.868
30979W        W98047  22.589   8.672  11.532
30980W        W98048  17.594   9.865   1.411
30981W        W98049  31.413  21.666   4.319
30982W        W98050   4.917   7.867  14.960
30983W        W98051  12.624  25.069  11.998
30984W        W98052  26.179  16.248  14.959
30985W        W98053  22.500  25.471   3.694
30986W        W98054  40.538  31.011  12.405
30987W        W98055  44.499  39.840   2.341
30988W        W98056  42.398  31.622  10.954
30989W        W98057   6.359  16.724  14.426
30990W        W98058  10.639  30.966  11.912
30991W        W98059   6.866  17.647  11.551
30992W        W98060   5.928  20.668   0.888
30993W        W98061  27.962  23.998  13.364
30994W        W98062  39.944  37.068   0.888
30995W        W98063   7.310  14.278   2.736
30996W        W98064   8.655   5.351   0.892
30997W        W98065  42.029  21.529  11.031
30998W        W98066   9.772  19.715   1.428
30999W        W98067  15.231  18.163   1.829
31000W        W98068  32.982  25.051  11.536
31001W        W98069   4.248  19.269  14.456
31002W        W98070  12.157   4.279  12.363
31003W        W98071  25.037   2.747  14.787
31004W        W98072  14.670  29.474   3.372
31005W        W98073   2.283  19.682  12.549
31006W        W98074   4.739  29.556  14.818
31007W        W98075  10.678  37.893   4.127
31008W        W98076  44.771  37.550  13.795
31009W        W98077  25.164  43.898   1.256
31010W        W98078  34.501  44.327   0.793
31011W        W98079   0.794  30.912  14.020
31012W        W98080  24.002  22.533  10.130
31013W        W98081  42.839  11.862  11.513
31014W        W98082  20.718  35.028  14.423
31015W        W98083   5.438  32.047   1.919
31016W        W98084  18.568  32.965   3.320
31017W        W98085  11.822  14.749  13.410
31018W        W98086  31.415  22.675  11.396
31019W        W98087  32.035  11.178  14.490
31020W        W98088  37.456   8.763  13.031
31021W        W98089  14.253  35.523  10.956
31022W        W98090  27.495  37.911   2.338
31023W        W98091  19.640  15.678  11.089
31024W        W98092  41.427  35.599   0.901
31025W        W98093  35.961  31.010  14.835
31026W        W98094  36.943   5.773  14.494
31027W        W98095  13.216  41.949  14.306
31028W        W98096  42.808  13.123  12.413
31029W        W98097  41.935  31.137  10.418
31030W        W98098   0.759   0.395   2.782
31031W        W98099  33.058  30.047   4.277
31032W        W98100  37.840  44.861   1.760
31033W        W98101  31.015   6.315  14.297
31034W        W98102  20.661  26.487  13.913
31035W        W98103  14.831  35.006   1.296
31036W        W98104  21.258  11.797   4.605
31037W        W98105  10.780   0.983  14.971
31038W        W98106   8.393  17.561   1.347
31039W        W98107  42.898   2.776   2.839
31040W        W98108  20.614  12.202   1.779
31041W        W98109  39.010  13.247   0.934
31042W        W98110   0.471  10.842   3.180
31043W        W98111  30.437  26.693  14.950
31044W        W98112  32.049   5.876  13.903
31045W        W98113  20.160   0.970   1.218
31046W        W98114  12.624  26.641   2.779
31047W        W98115  43.938  38.954   4.598
31048W        W98116   9.666  27.637   4.626
31049W        W98117   4.247  10.639   2.780
31050W        W98118  19.658  40.958  10.887
31051W        W98119  32.544  23.658   3.678
31052W        W98120  31.496  43.457   4.338
31053W        W98121  44.804  10.736  11.050
31054W        W98122  43.494  29.092  13.371
31055W        W98123  17.696  19.702   3.814
31056W        W98124  12.275  18.658   3.749
31057W        W98125  26.520  28.943   0.298
31058W        W98126  14.696  17.063  12.986
31059W        W98127  20.649   3.721   2.247
31060W        W98128  17.134   2.862   2.238
31061W        W98129  37.971   6.917  10.962
31062W        W98130  19.716  21.652  12.527
31063W        W98131   1.963  35.022   0.279
31064W        W98132   3.383  10.169   0.399
31065W        W98133  42.457   0.858   0.458
31066W        W98134  15.134  35.516   2.741
31067W        W98135   1.254  16.678   0.301
31068W        W98136  41.509   3.943   3.312
31069W        W98137   6.898  15.736  13.461
31070W        W98138  30.160  16.626   2.186
31071W        W98139  29.448  20.259  14.865
31072W        W98140  29.945   9.852   4.631
31073W        W98141  43.426  21.064  11.373
31074W        W98142  38.852  40.364   1.274
31075W        W98143  28.014  34.896   4.647
31076W        W98144  10.815   3.379  10.407
31077W        W98145   8.210   0.309  13.002
31078W        W98146  35.446   4.445   2.721
31079W        W98147  33.583  37.373   1.246
31080W        W98148  36.381  31.935   1.857
31081W        W98149  28.460  11.134  11.387
31082W        W98150  11.725  34.057  12.367
31083W        W98151  20.184   1.308   4.827
31084W        W98152  34.402  18.116   2.384
31085W        W98153  30.632   1.917  10.609
31086W        W98154   7.696  16.575  10.993
31087W        W98155  17.098  40.374  13.379
31088W        W98156  23.190   8.785  12.889
31089W        W98157   5.248  40.005   3.700
31090W        W98158  33.962  38.836  13.533
31091W        W98159   3.354   5.305   2.744
31092W        W98160  26.472   5.438  12.514
31093W        W98161  39.547  16.771  11.374
31094W        W98162  22.016  13.348  13.027
31095W        W98163  23.655  19.648   1.843
31096W        W98164  26.603  22.585  14.328
31097W        W98165   7.320   0.411   4.172
31098W        W98166  32.122  34.533  14.900
31099W        W98167  20.756  24.987   0.282
31100W        W98168  12.243   6.705  12.965
31101W        W98169  34.565  24.630  12.901
31102W        W98170  41.838  27.041   2.857
31103W        W98171  44.800   5.433   3.838
31104W        W98172  24.548  15.300   1.796
31105W        W98173   0.827  38.482  14.474
31106W        W98174  16.095  34.951   3.342
31107W        W98175   0.341  41.501   3.723
31108W        W98176   0.484   0.780  11.586
31109W        W98177   1.283  27.945  10.981
31110W        W98178   0.293  36.379   0.875
31111W        W98179   8.793   6.788   3.258
31112W        W98180   8.286  40.534  14.761
31113W        W98181  44.346   2.848   0.354
31114W        W98182  12.141   9.696  11.379
31115W        W98183  37.339   7.862   5.187
31116W        W98184  38.518  24.511   2.860
31117W        W98185  35.890  33.129   2.342
31118W        W98186   6.291  40.836  13.410
31119W        W98187   5.903  25.987  12.058
31120W        W98188  40.028  43.916   3.746
31121W        W98189   4.900   4.719   3.254
31122W        W98190   7.234  29.170  12.025
31123W        W98191  36.431  27.515   3.351
31124W        W98192  18.587  33.569   9.940
31125W        W98193  10.367  20.728   2.338
31126W        W98194  34.517  25.546  11.519
31127W        W98195  17.761  40.995   4.343
31128W        W98196  18.628  42.375  12.494
31129W        W98197  38.339  31.595   1.429
31130W        W98198  42.455  28.132  13.437
31131W        W98199  28.671  10.336   2.418
31132W        W98200   3.300  21.669  14.415
31133W        W98201   9.310   8.208   1.294
31134W        W98202  38.936   1.321  14.782
31135W        W98203   1.453  38.421  10.441
31136W        W98204  39.002  24.011  14.841
31137W        W98205  43.011  30.477   1.434
31138W        W98206  31.903  13.169   3.330
31139W        W98207  22.128  10.352  11.958
31140W        W98208   1.345  43.431   4.673
31141W        W98209   3.934  26.483  10.576
31142W        W98210  22.614   4.760  13.546
31143W        W98211   6.728   8.786   4.199
31144W        W98212  19.729  40.808   0.443
31145W        W98213  17.134  32.127  13.470
31146W        W98214  19.176  13.760   3.224
31147W        W98215  23.690  33.981   0.308
31148W        W98216  31.013   5.781   9.950
31149W        W98217  14.102  43.877  11.122
31150W        W98218  31.438  10.826   4.619
31151W        W98219  42.325  10.786  11.073
31152W        W98220  37.550  19.122  10.412
31153W        W98221  14.222  12.144  13.881
31154W        W98222  39.942  10.144   4.264
31155W        W98223  41.416  23.591  14.765
31156W        W98224  37.010   5.341   1.789
31157W        W98225  40.026   8.161   2.769
31158W        W98226  30.938  37.481  11.863
31159W        W98227  19.068   6.287   3.774
31160W        W98228  34.941  10.305   0.477
31161W        W98229  18.250  16.602   2.260
31162W        W98230  44.370  30.026  13.840
31163W        W98231  30.062  23.999   4.330
31164W        W98232  41.394  31.445   4.641
31165W        W98233  10.797  42.948   0.270
31166W        W98234  22.519  32.511  10.980
31167W        W98235  33.441  24.481  11.934
31168W        W98236   3.446  18.216  12.054
31169W        W98237  28.936  24.228   3.309
31170W        W98238   9.304  23.509  14.796
31171W        W98239  16.099  24.599   0.749
31172W        W98240  38.528   7.757   1.235
31173W        W98241  38.958  22.059  12.463
31174W        W98242  17.145   9.707   2.198
31175W        W98243  19.756   1.750   0.430
31176W        W98244  15.759  23.583   4.324
31177W        W98245  38.349  16.313   4.684
31178W        W98246  14.762  24.003   1.738
31179W        W98247   2.842  36.372  13.457
31180W        W98248  41.976  42.891  12.510
31181W        W98249  11.149  38.027  13.485
31182W        W98250  33.981  44.412  10.613
31183W        W98251  15.689  31.000   2.340
31184W        W98252  23.007  32.488   2.683
31185W        W98253  24.510  25.524   1.751
31186W        W98254  33.405  15.593   1.743
31187W        W98255   8.822   0.293   3.811
31188W        W98256  37.851   2.950   2.341
31189W        W98257   4.209   1.401   4.141
31190W        W98258  30.530  21.715  14.937
31191W        W98259  25.489  44.325   4.765
31192W        W98260  22.600  18.747  13.892
31193W        W98261  26.001  41.812  14.447
31194W        W98262  29.495   6.338   9.976
31195W        W98263  37.875  27.110   0.369
31196W        W98264  25.021  36.854   4.740
31197W        W98265   9.204  23.675  13.825
31198W        W98266  40.841  35.491   4.189
31199W        W98267  41.893  19.750   1.801
31200W        W98268   3.319  21.718  10.901
31201W        W98269  26.524  36.098  14.850
31202W        W98270   2.433   0.956  14.479
31203W        W98271   2.265  15.579   2.388
31204W        W98272   6.901  36.477  12.911
31205W        W98273  40.052  18.068  13.360
31206W        W98274  18.597  39.346   4.601
31207W        W98275  40.340   3.711   0.301
31208W        W98276   8.841   8.402   0.280
31209W        W98277  24.491  20.767  11.019
31210W        W98278  34.905  43.971  13.925
31211W        W98279   1.792  29.035   1.776
31212W        W98280  20.141   7.667  11.436
31213W        W98281  16.694  37.557  11.925
31214W        W98282  35.481   9.364   2.691
31215W        W98283  44.329  16.258   3.865
31216W        W98284  11.170  13.704  11.479
31217W        W98285  10.685   5.704   1.792
31218W        W98286  42.016  23.728  11.899
31219W        W98287  42.906  22.632  12.971
31220W        W98288  25.491  10.860  11.913
31221W        W98289   9.248  28.177  13.524
31222W        W98290  20.113  36.067  12.070
31223W        W98291  21.559   0.355   2.179
31224W        W98292   3.323  23.637  11.943
31225W        W98293   1.940   1.381  12.965
31226W        W98294   8.329  13.732  10.430
31227W        W98295  11.645   1.453   0.789
31228W        W98296  32.123  30.438  10.133
31229W        W98297  10.841  20.185   0.830
31230W        W98298  40.845  16.749   0.467
31231W        W98299  10.321  25.041   3.692
31232W        W98300  32.600  14.166  14.837
31233W        W98301  19.605   9.830  10.945
31234W        W98302  43.467  25.681  12.867
31235W        W98303  19.118  19.540   1.707
31236W        W98304  32.557  12.626  12.886
31237W        W98305  37.968  29.102  12.062
31238W        W98306  25.511  25.654  11.519
31239W        W98307  10.693  16.678  14.910
31240W        W98308  32.498  15.725  13.506
31241W        W98309  19.156   0.843  13.979
31242W        W98310   5.312  32.559   4.292
31243W        W98311  30.516   7.207   2.859
31244W        W98312  11.261  16.231   3.830
31245W        W98313  27.502  28.147  11.998
31246W        W98314   3.719  38.518   4.651
31247W        W98315  24.722  23.648  14.956
31248W        W98316   0.944   8.292   3.193
31249W        W98317  36.361   1.383   0.297
31250W        W98318  19.172  38.518  11.488
31251W        W98319   3.430  18.257  11.469
31252W        W98320  28.157  36.055  14.866
31253W        W98321   9.312   7.297   4.748
31254W        W98322  35.946   8.843  13.479
31255W        W98323  39.495  31.017  11.581
31256W        W98324   8.843  12.355   4.233
31257W        W98325  22.677   7.189  13.430
31258W        W98326  17.564  26.149   3.659
31259W        W98327  26.973  10.828  10.425
31260W        W98328  15.715  44.966  11.393
31261W        W98329  16.602   0.368  14.957
31262W        W98330  10.331   5.873  14.391
31263W        W98331   3.238  14.765  13.886
31264W        W98332  12.123   0.979   2.225
31265W        W98333  35.537  22.691   4.231
31266W        W98334  33.048   8.359  12.968
31267W        W98335  21.754   0.842  13.490
31268W        W98336  25.012  36.583  13.908
31269W        W98337  13.674   8.810   3.861
31270W        W98338  39.836  39.831  11.597
31271W        W98339  31.940   4.933   0.410
31272W        W98340  44.872  44.909   0.325
31273W        W98341  13.172  33.522   1.783
31274W        W98342  38.561  38.327   3.297
31275W        W98343  22.048   2.394  11.982
31276W        W98344  31.061  26.176   3.226
31277W        W98345  21.111  43.957   2.331
31278W        W98346  18.567   7.250  12.505
31279W        W98347   9.360  16.076  12.038
31280W        W98348   1.468   4.380   3.149
31281W        W98349  16.146   1.894  14.846
31282W        W98350   1.791   2.882   3.840
31283W        W98351   6.362  31.488  11.081
31284W        W98352  35.098  34.942   3.279
31285W        W98353  42.428  36.437  11.477
31286W        W98354  21.627  42.917  12.359
31287W        W98355  35.431  30.124  12.413
31288W        W98356  18.066   1.828  11.418
31289W        W98357  35.444  13.184  13.803
31290W        W98358  24.206  43.364  13.418
31291W        W98359  31.000  27.678   0.865
31292W        W98360   4.749   0.849   1.250
31293W        W98361  13.729  10.237  10.956
31294W        W98362  37.859  37.939  11.568
31295W        W98363  26.963  37.573   2.809
31296W        W98364  35.045   9.748  11.461
31297W        W98365  19.619   5.777  13.401
31298W        W98366  41.491  40.428  13.468
31299W        W98367   5.270   1.891   0.446
31300W        W98368  29.105  27.023  12.359
31301W        W98369  21.204  16.086  13.440
31302W        W98370  18.568  14.217  12.497
31303W        W98371  41.301  39.896  12.459
31304W        W98372  14.327   8.189  11.994
31305W        W98373  17.135   1.320   0.338
31306W        W98374  20.590  29.943  11.898
31307W        W98375  34.555  40.008   0.262
31308W        W98376  18.553  22.143   5.150
31309W        W98377  24.710  39.861   1.765
31310W        W98378  25.111  15.260  11.889
31311W        W98379  15.664   6.822   3.720
31312W        W98380  29.442  26.966  13.544
31313W        W98381   7.353  24.058  14.427
31314W        W98382  41.475  42.013   3.661
31315W        W98383  39.936  16.622  13.859
31316W        W98384  22.236   3.947  12.977
31317W        W98385  27.177  36.411  10.978
31318W        W98386  34.486  30.577  10.563
31319W        W98387   8.819  20.164   3.854
31320W        W98388   4.923  21.513  10.039
31321W        W98389  14.760   7.302  10.440
31322W        W98390   5.885  22.091   0.261
31323W        W98391  38.937  39.023  12.935
31324W        W98392  26.091  21.524  14.019
31325W        W98393  40.943  11.140   3.768
31326W        W98394  32.622  16.796  12.914
31327W        W98395  32.484  31.960  12.930
31328W        W98396  35.465  14.172   3.726
31329W        W98397  21.562  21.557   1.922
31330W        W98398  10.687   6.289   2.392
31331W        W98399  34.440  29.069  13.436
31332W        W98400  24.154  11.357   4.751
31333W        W98401  36.845  28.474  10.500
31334W        W98402  41.938  15.314   1.298
31335W        W98403   0.431  27.981  14.784
31336W        W98404  30.603  18.633   3.655
31337W        W98405  38.507  43.972  13.951
31338W        W98406  17.131   1.339   0.925
31339W        W98407  38.413  19.658   2.306
31340W        W98408   8.248  26.544  14.965
31341W        W98409  17.769   0.397  13.978
31342W        W98410  34.457  22.607   0.755
31343W        W98411  35.877  14.229   2.219
31344W        W98412   3.430  30.561  11.554
31345W        W98413   6.393  41.345  14.930
31346W        W98414  38.458  36.076  11.960
31347W        W98415   7.236  37.409  13.031
31348W        W98416  17.601  17.705   0.433
31349W        W98417  32.083  44.007  11.580
31350W        W98418  23.647  19.599   0.911
31351W        W98419  17.753  11.687   3.236
31352W        W98420  13.759  42.505   4.783
31353W        W98421  15.326  28.120  11.552
31354W        W98422  15.647  10.149  10.446
31355W        W98423  28.945   0.310   4.664
31356W        W98424  20.274  13.167  13.055
31357W        W98425  30.146  20.579  13.951
31358W        W98426   0.821  12.268   0.274
31359W        W98427  36.969  10.261  12.396
31360W        W98428   4.271  21.737   0.937
31361W        W98429  13.780   8.292   1.815
31362W        W98430  34.017  20.066  13.890
31363W        W98431  30.514  32.486   5.255
31364W        W98432  26.089  37.410  11.534
31365W        W98433  28.580  13.674  14.364
31366W        W98434  42.890  32.126   3.233
31367W        W98435   8.392  19.630  11.564
31368W        W98436  43.362   8.350   1.850
31369W        W98437  24.033  44.817  13.890
31370W        W98438  43.440  42.318   3.707
31371W        W98439  40.506   4.251   4.743
31372W        W98440  21.027  37.374   5.210
31373W        W98441  42.357  28.979  14.941
31374W        W98442  42.384  20.746   3.849
31375W        W98443  30.137   9.392  12.384
31376W        W98444   8.315  23.176  11.566
31377W        W98445  38.564  26.537   1.391
31378W        W98446  28.951  23.656   4.710
31379W        W98447  26.180  31.118  13.846
31380W        W98448   5.790   0.879   3.733
31381W        W98449  14.755   8.163  10.890
31382W        W98450  10.756  17.625  13.874
31383W        W98451   8.748   2.798   4.768
31384W        W98452  30.654  14.298  13.839
31385W        W98453   5.788  29.988  14.437
31386W        W98454  25.178   2.930  13.925
31387W        W98455  41.838   9.166  11.089
31388W        W98456  24.597  36.476  14.393
31389W        W98457  38.417  35.064  14.003
31390W        W98458  25.985  10.648   3.696
31391W        W98459  35.565  13.724   4.147
31392W        W98460  32.062  44.444   4.255
31393W        W98461  21.709  37.018   3.162
31394W        W98462  34.107  14.716  11.586
31395W        W98463  26.576  22.203  10.432
31396W        W98464  19.172  17.083   1.305
31397W        W98465  38.842  44.835  14.484
31398W        W98466  12.244  35.442  13.858
31399W        W98467  38.415  11.780   4.153
31400W        W98468  33.493   2.823  12.043
31401W        W98469  21.261  43.378   2.868
31402W        W98470  42.493  11.155  13.506
31403W        W98471  35.090  23.219   0.474
31404W        W98472  43.785  23.152   1.857
31405W        W98473   0.861  20.665  11.502
31406W        W98474  25.708   7.179  14.316
31407W        W98475  20.193  13.181   4.803
31408W        W98476  25.136  13.319  13.837
31409W        W98477  37.461  38.983  10.549
31410W        W98478  23.538  24.206  12.025
31411W        W98479  17.104  17.594   4.136
31412W        W98480  30.454   5.842  11.445
31413W        W98481  22.506  15.172   3.776
31414W        W98482  17.649   1.434  10.566
31415W        W98483  10.280  38.438  13.401
31416W        W98484  44.805  11.171  10.514
31417W        W98485  16.592  36.863   4.203
31418W        W98486  40.346  26.675   2.289
31419W        W98487  35.509   8.356   3.147
31420W        W98488  14.604  42.970  10.583
31421W        W98489  18.719   6.229  13.451
31422W        W98490  31.573  33.029  14.359
31423W        W98491  43.493  39.023   0.363
31424W        W98492  29.486  17.695   3.740
31425W        W98493  12.763  17.574  11.458
31426W        W98494  28.996  38.983   2.356
31427W        W98495   1.831  13.240   0.281
31428W        W98496  21.702  31.457  14.464
31429W        W98497  26.497  37.364  12.857
31430W        W98498  35.896   8.674   1.827
31431W        W98499  31.521  15.163  10.104
31432W        W98500   1.377  19.224   0.933
31433W        W98501  20.086  37.572   3.851
31434W        W98502  25.193  10.220   0.474
31435W        W98503  23.602  25.643  14.354
31436W        W98504  31.526  44.396  12.454
31437W        W98505  21.704  35.037   2.841
31438W        W98506  42.365   0.259  10.946
31439W        W98507  29.173   8.209  14.799
31440W        W98508  33.989  17.786   2.900
31441W        W98509   3.308  35.593   2.787
31442W        W98510  21.533   6.328   2.289
31443W        W98511  26.089   9.219  10.949
31444W        W98512  26.552  33.128  10.150
31445W        W98513  11.338  21.723  14.806
31446W        W98514  24.144   0.773  14.963
31447W        W98515  29.143  10.205  12.382
31448W        W98516  11.153  43.834   2.738
31449W        W98517  32.107  26.479   5.150
31450W        W98518  18.281  44.861   0.829
31451W        W98519   1.437  18.762   1.405
31452W        W98520   0.912  11.744   1.424
31453W        W98521  34.537   7.826  11.486
31454W        W98522   3.717  10.290  11.420
31455W        W98523  29.600  10.764  10.497
31456W        W98524  23.499  15.291  13.059
31457W        W98525  14.273   5.327  14.943
31458W        W98526  26.063  18.113   4.292
31459W        W98527  11.133  22.647   4.609
31460W        W98528  42.941   6.903  13.025
31461W        W98529  19.098  38.417   3.857
31462W        W98530  30.528   3.785  12.534
31463W        W98531  10.341  12.160   3.284
31464W        W98532  43.501  28.150   3.381
31465W        W98533  29.648   6.739   1.931
31466W        W98534  11.795   3.768   1.424
31467W        W98535  23.161  41.961   0.749
31468W        W98536   4.765  34.478  14.960
31469W        W98537  36.949  19.231   4.263
31470W        W98538   1.820  38.862   0.452
31471W        W98539   8.387  38.525  12.885
31472W        W98540   7.695  22.650   4.343
31473W        W98541  25.995  10.850  13.351
31474W        W98542  28.546  40.956   2.309
31475W        W98543   6.252  17.772  10.493
31476W        W98544  35.990  10.656  11.483
31477W        W98545  36.000  16.111   2.862
31478W        W98546  41.932  37.462   1.346
31479W        W98547  30.935  34.085   4.833
31480W        W98548  24.546  27.576   4.130
31481W        W98549  39.869  31.620  14.291
31482W        W98550  35.039  24.985   4.614
31483W        W98551   7.723  13.839  11.049
31484W        W98552   3.956  14.105   1.883
31485W        W98553  25.103  28.566  14.898
31486W        W98554  10.693  10.137  10.522
31487W        W98555  10.157  32.462   1.411
31488W        W98556  23.659  37.942  13.325
31489W        W98557  34.871  24.694   4.810
31490W        W98558  22.015  19.055   3.386
31491W        W98559   1.760  25.588  14.781
31492W        W98560  29.524   2.763  10.461
31493W        W98561  39.870  13.788   0.906
31494W        W98562  11.694  27.180   0.366
31495W        W98563  28.577  11.267  14.806
31496W        W98564   4.913  12.341   4.751
31497W        W98565  42.447  30.916  12.519
31498W        W98566  12.629   2.454  12.405
31499W        W98567  40.393  36.496   0.279
31500W        W98568  14.614  32.477   2.735
31501W        W98569  13.700  33.011  12.078
31502W        W98570  15.672  38.998  14.769
31503W        W98571   9.197  34.456   1.409
31504W        W98572  11.767  12.160  14.894
31505W        W98573  30.542   0.415  13.058
31506W        W98574  25.064  34.977  13.062
31507W        W98575  20.140   0.907  12.920
31508W        W98576  33.591  26.991   3.703
31509W        W98577  26.974  13.724   1.747
31510W        W98578  11.860   9.644   4.264
31511W        W98579  24.018  38.537  14.031
31512W        W98580  14.653  33.614  13.839
31513W        W98581  32.961  25.190  13.819
31514W        W98582  26.622  13.162   0.271
31515W        W98583  20.733  12.157  10.992
31516W        W98584  25.031  28.056   1.732
31517W        W98585  39.860  38.977  11.956
31518W        W98586   5.203   8.355  14.792
31519W        W98587  39.393   3.935  14.814
31520W        W98588   6.781  17.574   0.354
31521W        W98589  19.685   1.253  12.433
31522W        W98590   7.214  36.540   2.360
31523W        W98591  14.631  30.112  10.912
31524W        W98592  22.085   0.800   3.735
31525W        W98593  12.283   7.323   2.390
31526W        W98594  26.500  36.857   2.198
31527W        W98595  13.718  11.361   3.352
31528W        W98596  20.143  23.159   4.632
31529W        W98597   8.876  29.093   1.825
31530W        W98598  37.003  23.518  14.922
31531W        W98599  36.097  12.800   0.836
31532W        W98600   5.823  29.056   2.821
31533W        W98601  38.454  37.548  11.026
31534W        W98602  30.442  22.592   0.798
31535W        W98603  10.650  30.085  14.461
31536W        W98604   8.663  10.850   0.340
31537W        W98605  37.365  11.818   4.758
31538W        W98606  42.288  35.490  12.570
31539W        W98607   2.875   2.782  12.501
31540W        W98608  13.272   7.816  13.900
31541W        W98609  25.595  27.979   1.400
31542W        W98610   7.208   0.898  14.966
31543W        W98611   6.302   7.684  12.064
31544W        W98612  37.441  31.940  14.800
31545W        W98613  27.948  35.441   0.768
31546W        W98614  42.970  13.788  12.420
31547W        W98615  17.069  44.889   2.850
31548W        W98616   1.740  44.935   1.336
31549W        W98617   4.752  33.078  12.016
31550W        W98618   8.810  12.339   1.837
31551W        W98619  23.182  40.826  10.955
31552W        W98620  29.424  11.155   1.242
31553W        W98621  29.479  39.955   3.310
31554W        W98622  33.099  40.531  12.548
31555W        W98623  33.073  29.525  12.353
31556W        W98624  35.993   0.763  11.103
31557W        W98625  32.505  36.432   2.810
31558W        W98626  31.072  17.098   2.689
31559W        W98627  13.693  36.421   0.381
31560W        W98628  42.442   5.852   4.668
31561W        W98629  15.760  34.465   2.701
31562W        W98630  33.064  16.675   3.306
31563W        W98631  20.104  10.796   4.269
31564W        W98632  44.978  43.973  10.496
31565W        W98633   3.375   9.829   4.638
31566W        W98634  21.703  43.470  12.539
31567W        W98635  10.664  41.293  13.384
31568W        W98636  39.891   5.323  11.507
31569W        W98637  29.986  16.143  10.412
31570W        W98638  25.504   0.490  14.834
31571W        W98639  38.415   7.353   4.224
31572W        W98640   4.856  33.914  11.581
31573W        W98641  11.334  29.426   3.150
31574W        W98642  30.529  37.572   4.149
31575W        W98643  17.742  30.656   2.389
31576W        W98644  35.962  30.150   0.776
31577W        W98645  37.417   7.397   2.795
31578W        W98646  17.153  13.186  11.050
31579W        W98647  43.444  27.606   1.792
31580W        W98648  32.460  28.045   2.720
31581W        W98649  42.855   3.864  10.592
31582W        W98650  24.702  18.675   0.764
31583W        W98651  33.448   1.963  12.481
31584W        W98652   4.330  25.028  14.009
31585W        W98653  18.725  40.543   0.880
31586W        W98654  35.937  25.215  13.498
31587W        W98655  30.050  44.502   4.665
31588W        W98656  39.354  22.180  10.413
31589W        W98657   1.253  14.594  12.908
31590W        W98658  36.540   9.744   2.287
31591W        W98659   9.745  20.597   0.425
31592W        W98660  32.441  16.219  13.450
31593W        W98661  19.204  18.138  13.813
31594W        W98662  31.151  39.932   4.703
31595W        W98663  35.590  15.780   2.776
31596W        W98664  22.551   7.186   4.617
31597W        W98665  26.008   2.924  12.081
31598W        W98666  43.910  29.160   2.727
31599W        W98667  35.854  16.285  11.926
31600W        W98668  41.921  30.539   2.393
31601W        W98669   1.468  28.076   3.749
31602W        W98670   4.921   2.226  12.066
31603W        W98671  18.083   0.986   4.829
31604W        W98672   6.821  21.648  13.331
31605W        W98673   8.352  15.584  14.886
31606W        W98674  18.638  20.177   1.268
31607W        W98675  34.565  39.463  11.532
31608W        W98676  22.161   7.183  14.386
31609W        W98677  18.753  42.786  12.888
31610W        W98678  33.548  42.453  10.640
31611W        W98679  22.668   5.865   1.322
31612W        W98680  41.514  44.789  11.073
31613W        W98681  30.103  26.208  14.443
31614W        W98682  15.195  40.022   0.305
31615W        W98683  13.664  38.533  10.960
31616W        W98684  30.571  34.892   2.257
31617W        W98685  14.768  17.305  14.390
31618W        W98686   9.665  10.155   1.294
31619W        W98687   6.368  43.434   2.749
31620W        W98688  36.531  30.596  13.442
31621W        W98689  22.598  22.564  13.408
31622W        W98690  21.663  38.056  14.762
31623W        W98691  44.786  17.299  12.934
31624W        W98692  19.278   6.827  13.035
31625W        W98693  27.561  25.137  11.537
31626W        W98694  38.345  42.333   0.295
31627W        W98695  34.520  26.127  10.623
31628W        W98696  23.985   0.918   2.357
31629W        W98697   6.290  27.943   3.332
31630W        W98698  39.465  31.015   2.745
31631W        W98699  11.813  30.916   1.408
31632W        W98700  40.307  15.682   4.160
31633W        W98701  15.801  43.392  13.886
31634W        W98702  35.574  14.727  12.567
31635W        W98703   6.695   7.180   4.770
31636W        W98704   9.877   2.253   2.814
31637W        W98705  38.429  11.765   1.286
31638W        W98706   3.400  12.212   2.802
31639W        W98707  18.225  41.369   1.276
31640W        W98708  28.547  43.420   3.710
31641W        W98709  36.887  39.330  11.590
31642W        W98710  41.438  44.918  13.915
31643W        W98711   0.797  32.484  10.131
31644W        W98712  25.214   5.832  11.994
31645W        W98713  24.591  34.118  11.428
31646W        W98714  41.490   6.273  14.466
31647W        W98715  24.721  23.505   3.213
31648W        W98716  28.931  43.861   0.862
31649W        W98717  26.051  35.361   3.789
31650W        W98718  30.643  40.930   0.845
31651W        W98719   8.193  30.460  14.448
31652W        W98720  22.219  38.432  14.422
31653W        W98721  20.599  32.490   4.244
31654W        W98722  21.743  23.135  12.914
31655W        W98723  19.083  27.484  13.542
31656W        W98724   7.370  19.090  14.987
31657W        W98725  32.629   7.254   3.258
31658W        W98726   6.269   5.784  11.510
31659W        W98727  26.018  24.203   2.241
31660W        W98728  44.944  24.716  12.915
31661W        W98729  16.713  13.757   1.728
31662W        W98730  38.539  16.110  14.512
31663W        W98731  30.004  11.633  11.976
31664W        W98732  37.574  18.563  13.891
31665W        W98733   7.343  14.720  11.600
31666W        W98734  35.926  19.057   3.857
31667W        W98735   3.349  44.282   4.157
31668W        W98736   6.911   5.239  12.960
31669W        W98737  42.999  16.764  14.356
31670W        W98738   5.429  30.964  12.498
31671W        W98739  16.590  36.486   2.739
31672W        W98740  21.709  11.315   0.468
31673W        W98741  43.803  20.637  12.538
31674W        W98742  25.121  17.086  10.536
31675W        W98743  22.113  23.640   0.865
31676W        W98744  35.386   0.487   4.680
31677W        W98745  13.139  28.469  11.024
31678W        W98746  38.533  33.882  13.801
31679W        W98747  15.786  40.969   1.799
31680W        W98748  15.580  35.382   1.713
31681W        W98749  34.482  34.088   2.224
31682W        W98750  43.858  39.898   0.339
31683W        W98751  15.712   5.792  14.342
31684W        W98752  33.895  18.171  11.411
31685W        W98753  16.310  26.031   0.907
31686W        W98754  41.981  31.043  14.283
31687W        W98755   6.815  23.209   1.725
31688W        W98756   0.304  35.916   4.165
31689W        W98757  17.278  31.583   2.847
31690W        W98758   3.740  13.282   1.874
31691W        W98759  40.340  34.973   1.431
31692W        W98760  35.938  23.556   2.275
31693W        W98761   8.681  19.101  10.133
31694W        W98762  32.441   3.777  13.909
31695W        W98763  30.525  35.382  10.477
31696W        W98764   8.702  26.015  14.508
31697W        W98765  23.704  43.834   4.725
31698W        W98766  26.511  16.583  14.021
31699W        W98767  33.889   3.736  10.620
31700W        W98768  23.010  15.260  11.378
31701W        W98769   2.374  39.430   2.779
31702W        W98770  11.794  28.047   0.400
31703W        W98771  20.687  35.023  11.020
31704W        W98772  18.640  40.384  11.873
31705W        W98773  28.118  44.917  14.288
31706W        W98774  17.283  36.364   3.377
31707W        W98775  39.974  36.083   1.840
31708W        W98776  12.346  13.655  10.455
31709W        W98777  26.188  34.002   2.189
31710W        W98778  30.106  33.082   0.798
31711W        W98779  16.753   1.923  13.811
31712W        W98780  35.368  14.243   4.224
31713W        W98781  19.127  28.605  12.913
31714W        W98782  13.821  35.998  11.920
31715W        W98783  16.604  39.504  13.321
31716W        W98784  44.396  23.723  10.599
31717W        W98785  25.624   8.880  14.773
31718W        W98786   1.378   9.336  14.837
31719W        W98787  23.671  10.236  10.412
31720W        W98788  22.608  32.599   3.195
31721W        W98789  30.519  42.367  12.924
31722W        W98790  17.637  13.141   4.640
31723W        W98791  20.259  15.324  11.081
31724W        W98792   6.750  35.024  14.428
31725W        W98793   1.840   2.304  11.979
31726W        W98794   5.354  19.180  12.849
31727W        W98795  37.074  41.787   3.235
31728W        W98796  41.507  10.319  14.867
31729W        W98797  38.406  32.515   2.183
31730W        W98798  39.524  20.167  11.099
31731W        W98799  37.958  31.967  11.578
31732W        W98800  37.357  37.048  13.315
31733W        W98801   8.829  33.478  11.407
31734W        W98802  24.212   9.664   3.147
31735W        W98803  27.039   8.803   3.869
31736W        W98804  19.687  33.087   3.386
31737W        W98805   8.257  42.324   3.766
31738W        W98806  10.277  12.726   1.226
31739W        W98807  30.482  42.777  10.634
31740W        W98808   3.934  28.011  13.867
31741W        W98809   8.381  39.016  13.402
31742W        W98810  40.936  43.445  12.501
31743W        W98811   3.215   6.245   2.797
31744W        W98812  15.251   0.325   0.870
31745W        W98813  21.063  14.797   2.855
31746W        W98814   4.404   3.812   0.267
31747W        W98815  20.055  27.483   2.770
31748W        W98816   3.405   7.882   3.182
31749W        W98817  39.369   4.426  10.604
31750W        W98818  12.782  20.751   2.183
31751W        W98819  21.747   2.333  13.850
31752W        W98820   1.376  29.023  10.580
31753W        W98821  10.868  21.520   3.360
31754W        W98822  43.980  20.113  11.892
31755W        W98823  24.992  36.443  12.523
31756W        W98824   7.742   6.308  10.582
31757W        W98825  37.477  43.378  13.522
31758W        W98826  26.054  42.386  12.086
31759W        W98827   9.840  39.837  10.969
31760W        W98828  16.154  38.394  10.628
31761W        W98829  18.766  43.981  14.002
31762W        W98830   5.931  42.385  13.827
31763W        W98831   8.822   0.830  11.038
31764W        W98832  15.720  34.907   2.693
31765W        W98833  27.576  33.891   1.767
31766W        W98834  27.532  17.626  11.074
31767W        W98835  13.338  19.119   0.423
31768W        W98836  23.628  41.020   3.771
31769W        W98837   6.381   9.690  11.858
31770W        W98838   3.876  32.890   4.759
31771W        W98839  41.535  39.941   3.289
31772W        W98840  34.439  29.438  11.416
31773W        W98841   0.451  33.536   3.169
31774W        W98842  25.485  26.621   0.909
31775W        W98843  10.357  34.576   4.721
31776W        W98844  39.813   4.836   1.709
31777W        W98845  11.358  13.333  14.792
31778W        W98846   4.711   6.223   0.754
31779W        W98847  33.451  44.806  10.616
31780W        W98848  14.097  24.573   0.890
31781W        W98849  20.606  35.054  11.492
31782W        W98850  41.860  37.458   1.766
31783W        W98851  24.495  33.047   0.905
31784W        W98852  35.550  12.226   0.913
31785W        W98853  42.322   8.390   4.725
31786W        W98854  18.623   8.844   2.789
31787W        W98855  33.095  39.473  12.518
31788W        W98856  21.698   5.308  11.528
31789W        W98857   2.778  40.465  10.943
31790W        W98858  16.588  29.536  11.439
31791W        W98859   7.806  33.053  12.087
31792W        W98860  16.076  19.044   2.419
31793W        W98861  23.120  22.743   2.794
31794W        W98862  22.057  42.327   0.307
31795W        W98863  22.643   0.281  10.132
31796W        W98864  31.444  13.326  13.461
31797W        W98865  21.596  27.592  12.823
31798W        W98866  30.585   3.340   2.288
31799W        W98867  12.361  15.208   4.116
31800W        W98868   7.269  39.533   1.416
31801W        W98869  36.899  12.854   3.658
31802W        W98870  17.671  19.538   4.771
31803W        W98871  28.159  30.007  14.799
31804W        W98872  13.219   8.770  14.452
31805W        W98873  10.201  43.296   3.210
31806W        W98874  16.813  43.376  11.943
31807W        W98875   6.365   8.669   0.358
31808W        W98876  28.123   8.867  12.893
31809W        W98877  13.239  16.148  10.553
31810W        W98878  15.229  14.211   1.760
31811W        W98879  26.528  16.126  10.480
31812W        W98880  25.561  26.985   3.666
31813W        W98881  24.592  22.594   3.249
31814W        W98882   8.711  26.072  11.606
31815W        W98883  39.559  25.636   3.255
31816W        W98884  42.815  27.987   5.145
31817W        W98885   1.865  26.554   4.817
31818W        W98886   4.229  24.595   1.837
31819W        W98887  30.450   4.339   1.858
31820W        W98888  32.531  40.846   3.700
31821W        W98889  44.324  24.563   3.663
31822W        W98890  24.986   9.720  14.274
31823W        W98891  20.687   4.699   4.680
31824W        W98892  42.427  38.922   2.283
31825W        W98893  39.413  27.470   4.682
31826W        W98894   0.781  37.838   2.876
31827W        W98895   3.391  26.544   1.885
31828W        W98896  29.567  36.870  11.123
31829W        W98897  13.276   6.809   4.335
31830W        W98898  43.418  14.806   2.829
31831W        W98899  44.354  43.390  11.059
31832W        W98900  41.852  14.155   0.810
31833W        W98901  23.132  23.094  11.461
31834W        W98902   2.958  37.517  12.399
31835W        W98903  36.974   1.401   4.304
31836W        W98904   8.841  19.040  11.508
31837W        W98905  37.469  31.601   3.759
31838W        W98906  41.322  34.973   3.734
31839W        W98907  21.189  11.779   1.275
31840W        W98908  28.121  28.475   3.759
31841W        W98909  18.636  44.459  14.941
31842W        W98910  34.377  41.315  13.420
31843W        W98911   0.294  27.464   1.314
31844W        W98912  17.143  44.406  12.432
31845W        W98913  33.544  31.507  11.890
31846W        W98914   4.777  43.806   4.765
31847W        W98915  21.550  11.166   2.772
31848W        W98916  41.387  29.127  11.430
31849W        W98917  10.734  38.963   1.287
31850W        W98918  15.288  26.009  13.497
31851W        W98919  16.186  41.903   2.733
31852W        W98920  25.073   6.739   4.127
31853W        W98921   4.733  20.200  11.533
31854W        W98922  18.125  38.963  11.954
31855W        W98923   6.218  23.587   0.462
31856W        W98924   6.195   4.242   2.875
31857W        W98925   9.151  34.956  13.010
31858W        W98926   1.775  11.196  12.006
31859W        W98927  37.475  17.583   2.843
31860W        W98928  29.150   0.835   3.684
31861W        W98929  21.633  20.742   0.815
31862W        W98930  17.191  24.212  12.432
31863W        W98931  12.333  43.842   4.644
31864W        W98932   4.869  16.731  13.425
31865W        W98933  23.640   8.272   3.360
31866W        W98934  43.333  44.826   3.299
31867W        W98935  28.655  28.445  14.992
31868W        W98936   3.373   2.870  10.490
31869W        W98937  35.970  39.437   2.863
31870W        W98938  19.261  10.157  14.379
31871W        W98939  32.969  35.955   3.188
31872W        W98940  37.502  31.528  14.878
31873W        W98941  42.838  41.326  14.382
31874W        W98942  12.700   7.276  12.500
31875W        W98943  37.862  10.834  11.403
31876W        W98944  38.031   8.779   0.916
31877W        W98945   9.224  16.224   4.683
31878W        W98946   6.850  39.535   1.930
31879W        W98947  13.611  43.908  12.047
31880W        W98948  21.732  19.150  11.875
31881W        W98949  44.984  22.220  11.050
31882W        W98950  29.574  34.111  13.998
31883W        W98951  31.526  31.545  10.568
31884W        W98952  20.568   1.323  12.893
31885W        W98953   5.405  26.584   3.376
31886W        W98954   7.691  32.074  13.520
31887W        W98955  38.919  37.373  12.092
31888W        W98956   9.678  10.205  13.514
31889W        W98957  20.717  44.348   0.248
31890W        W98958   5.374  34.474   1.232
31891W        W98959  43.870   7.805  10.632
31892W        W98960  29.140  16.797   4.342
31893W        W98961  25.656  23.555   4.766
31894W        W98962  10.771  22.671   2.366
31895W        W98963  10.684  30.560   0.914
31896W        W98964  29.439  16.295  14.836
31897W        W98965  27.176  13.347   1.823
31898W        W98966   2.959  30.932  14.368
31899W        W98967  17.088  16.108   2.807
31900W        W98968  23.132  23.628  11.479
31901W        W98969  14.286  20.064  11.595
31902W        W98970  34.986  39.420  14.948
31903W        W98971  13.222  10.341   2.745
31904W        W98972   9.230  41.909   1.328
31905W        W98973  26.207  26.549   0.758
31906W        W98974  38.375  25.005  14.885
31907W        W98975  23.994  27.078   1.786
31908W        W98976  30.086  11.308   4.715
31909W        W98977  32.462  33.111  14.935
31910W        W98978  30.061   2.375   2.742
31911W        W98979  28.535  10.372  12.087
31912W        W98980  39.947  31.051   2.742
31913W        W98981  22.240  34.425  13.871
31914W        W98982   1.419   2.296   0.385
31915W        W98983  39.856  24.015   4.835
31916W        W98984  14.300  30.020   0.352
31917W        W98985   2.261  32.427   3.240
31918W        W98986  28.167  18.745  13.959
31919W        W98987  13.768   8.772   3.211
31920W        W98988   3.430  28.593  14.392
31921W        W98989   4.879   1.427   2.748
31922W        W98990   2.387  24.100   2.228
31923W        W98991  41.035   1.312  11.611
31924W        W98992  34.907  20.685  10.991
31925W        W98993  21.175  17.238   3.163
31926W        W98994  20.541  19.060   4.216
31927W        W98995   4.760  36.903  12.510
31928W        W98996  10.842  24.122   2.791
31929W        W98997  28.088  12.297   1.331
31930W        W98998  31.061   8.263  12.516
31931W        W98999   2.235  34.516  10.143
31932W        W99000  18.566  35.562   3.260
31933W        W99001  17.573  38.876   9.923
31934W        W99002  39.412  26.205  10.956
31935W        W99003  29.559   2.724  10.899
31936W        W99004  23.000  39.027  14.473
31937W        W99005  22.098   6.715   2.337
31938W        W99006   1.908  32.102   4.647
31939W        W99007  27.494  36.373  10.472
31940W        W99008  33.888   9.781   1.912
31941W        W99009  22.181  28.942   3.188
31942W        W99010  31.624  34.434  11.590
31943W        W99011  19.052  28.140   2.267
31944W        W99012   2.456  30.948   3.149
31945W        W99013  14.173  37.555  12.945
31946W        W99014  11.623  14.784  11.986
31947W        W99015  11.776   5.769   3.255
31948W        W99016  38.843  28.187  12.578
31949W        W99017  22.592  38.449   4.656
31950W        W99018   7.727  31.535   2.816
31951W        W99019  42.032  31.017   0.942
31952W        W99020  15.759  10.360   5.665
31953W        W99021  13.723  35.014  14.028
31954W        W99022   4.285  32.896   0.287
31955W        W99023   7.192  17.094   4.745
31956W        W99024   0.927  19.160   3.182
31957W        W99025  12.329  31.971  11.945
31958W        W99026  19.601  28.667  13.060
31959W        W99027  15.178   1.810   3.708
31960W        W99028  27.534  28.552   1.927
31961W        W99029   7.208  28.676  11.453
31962W        W99030  37.468  34.590  14.461
31963W        W99031  10.280  11.856  13.465
31964W        W99032  15.131  41.518   4.161
31965W        W99033  12.224   7.249   0.444
31966W        W99034  23.704   8.185   2.384
31967W        W99035  22.010   0.772  14.022
31968W        W99036  14.297   8.245  12.441
31969W        W99037   3.885  32.020   5.251
31970W        W99038  15.222  20.744  11.909
31971W        W99039   1.360  38.054   4.275
31972W        W99040  42.856   3.944   3.703
31973W        W99041  31.409  34.472   0.343
31974W        W99042   4.341   2.941   4.680
31975W        W99043  19.119  33.610   3.846
31976W        W99044  29.589   8.205  11.530
31977W        W99045  24.084  22.729   2.899
31978W        W99046  32.483   9.272  11.028
31979W        W99047  42.002  10.818  13.050
31980W        W99048  17.266  26.183   3.815
31981W        W99049  19.155  29.579  13.044
31982W        W99050  34.476  29.049   2.855
31983W        W99051   4.880  22.573   2.279
31984W        W99052  32.587  21.170   2.876
31985W        W99053  15.305  10.245  13.520
31986W        W99054  22.702  28.041   4.186
31987W        W99055  30.655  41.513   4.627
31988W        W99056  11.770  34.571   1.266
31989W        W99057  11.660  33.618   0.834
31990W        W99058  30.993   8.815  11.004
31991W        W99059  29.436  43.287   2.710
31992W        W99060  17.595  14.649  11.514
31993W        W99061  21.612  33.568   0.446
31994W        W99062  12.122  23.226  14.918
31995W        W99063  39.852  10.641   4.296
31996W        W99064   5.857  26.005  14.328
31997W        W99065  37.894  16.743   0.325
31998W        W99066  33.129   2.465  11.937
31999W        W99067   0.389  23.209  11.962
32000W        W99068  34.001   9.752   0.268
32001W        W99069  26.503  35.026   2.272
32002W        W99070  36.921  16.617  11.026
32003W        W99071  17.246  26.092   0.252
32004W        W99072  38.013  36.372   1.912
32005W        W99073  43.921  32.435  11.959
32006W        W99074   8.375   9.757   4.651
32007W        W99075  41.804  42.964   2.290
32008W        W99076   5.404   1.480   3.382
32009W        W99077  31.147  37.382   4.351
32010W        W99078  18.776   0.429   0.884
32011W        W99079  18.207  27.993   4.772
32012W        W99080  42.459  10.143   0.755
32013W        W99081  29.601   8.816   3.146
32014W        W99082  32.127   5.202  11.096
32015W        W99083  36.521   5.407  10.632
32016W        W99084  26.598   4.432   4.353
32017W        W99085  13.213  30.125  12.523
32018W        W99086  32.576  40.473   1.812
32019W        W99087  22.678   0.821   2.782
32020W        W99088  11.671  29.628  13.833
32021W        W99089  30.053  39.868  12.359
32022W        W99090  10.704  33.067  14.493
32023W        W99091  19.060  23.142   4.326
32024W        W99092   6.405  35.866  14.974
32025W        W99093  13.815  38.068   3.731
32026W        W99094  39.019  28.558  13.335
32027W        W99095  12.223  23.025   3.231
32028W        W99096   8.851  19.084   3.203
32029W        W99097  28.482  27.512  14.827
32030W        W99098   4.242  39.435  14.451
32031W        W99099  43.938  23.492   2.717
32032W        W99100  15.626  21.131   2.398
32033W        W99101  38.443  34.874  11.554
32034W        W99102  32.505  34.022  14.514
32035W        W99103   4.306  23.185   1.811
32036W        W99104   3.764  27.104  13.991
32037W        W99105   8.771  27.550  12.024
32038W        W99106  33.955  38.495   3.724
32039W        W99107  23.134  28.472  12.944
32040W        W99108  41.358  39.040   4.173
32041W        W99109  13.753  10.214   2.190
32042W        W99110   7.895   8.784  14.403
32043W        W99111  25.684  31.468  14.310
32044W        W99112  11.166  32.440   0.919
32045W        W99113  20.170  32.430  12.011
32046W        W99114  10.662  33.967  10.978
32047W        W99115  25.683  20.209   2.693
32048W        W99116  24.984  30.125   0.765
32049W        W99117  32.973  29.125  11.057
32050W        W99118  23.602   3.332  10.484
32051W        W99119  28.010  28.988   3.337
32052W        W99120  23.115  42.903  12.846
32053W        W99121  34.436  22.527  11.476
32054W        W99122  25.047  24.189   3.743
32055W        W99123  39.415  12.617   1.737
32056W        W99124  25.017  17.179  14.975
32057W        W99125  24.687  37.434  14.008
32058W        W99126  21.536  43.435  14.955
32059W        W99127  18.775  23.583   3.258
32060W        W99128  38.462  28.516   4.668
32061W        W99129  35.062  10.237  12.576
32062W        W99130   0.756   4.920   0.301
32063W        W99131  13.778  24.072   2.214
32064W        W99132  38.949   9.202   4.307
32065W        W99133  30.022   5.271   3.810
32066W        W99134   4.375   3.282  13.899
32067W        W99135   6.884  26.051   3.365
32068W        W99136  31.145   7.336   3.322
32069W        W99137  20.228   8.392  13.351
32070W        W99138  41.320  39.467  11.906
32071W        W99139  22.154   5.816  14.393
32072W        W99140  32.552   3.357  12.412
32073W        W99141  27.980   1.479   3.360
32074W        W99142  34.373  17.583   0.446
32075W        W99143  27.628  25.592  13.424
32076W        W99144  13.804  42.990  14.771
32077W        W99145  37.921  31.480   0.965
32078W        W99146  13.202  23.992   2.352
32079W        W99147  32.045  37.399  11.048
32080W        W99148  41.017  18.186  12.413
32081W        W99149  13.174   8.669   3.327
32082W        W99150  28.981  13.112  11.050
32083W        W99151   2.427  10.164   2.284
32084W        W99152  20.056  41.932  11.463
32085W        W99153   6.355  43.445  14.306
32086W        W99154  28.060  32.409   0.438
32087W        W99155  10.192  27.023  10.467
32088W        W99156  29.500  16.708  11.550
32089W        W99157   0.808  39.980  14.002
32090W        W99158   5.687  12.643  13.049
32091W        W99159  27.991  29.067   2.270
32092W        W99160  40.809  27.039  13.976
32093W        W99161  22.124   2.384   3.288
32094W        W99162   4.213  37.855  11.384
32095W        W99163  33.467  33.083  11.905
32096W        W99164  25.987  37.469  12.977
32097W        W99165  13.258  11.668   1.728
32098W        W99166  10.289  21.679   4.293
32099W        W99167  42.829   9.282  14.983
32100W        W99168  25.141  33.414   5.140
32101W        W99169   5.350  14.272   1.259
32102W        W99170  23.547  36.920  14.820
32103W        W99171  21.203  42.343  11.438
32104W        W99172  34.498  34.409  13.422
32105W        W99173  29.539  21.213  13.337
32106W        W99174   9.878  22.132   0.252
32107W        W99175  26.498  29.055  10.046
32108W        W99176  19.743  35.876  10.999
32109W        W99177  22.519   0.349   1.803
32110W        W99178  33.913  29.551  11.011
32111W        W99179  18.647  27.006  10.562
32112W        W99180  40.497  24.133  11.408
32113W        W99181  32.589  27.995  13.458
32114W        W99182  20.539  34.548  11.116
32115W        W99183  23.088   5.353   1.737
32116W        W99184   7.417  14.161  10.404
32117W        W99185  33.984  17.582  10.459
32118W        W99186  11.252  13.336  14.351
32119W        W99187  20.209   3.375   2.699
32120W        W99188  42.832  11.221  10.474
32121W        W99189   9.288  31.480  12.016
32122W        W99190  23.126  44.397  10.903
32123W        W99191  35.414  25.035   0.850
32124W        W99192   4.448  19.570  13.517
32125W        W99193   5.844  39.906  13.795
32126W        W99194  32.597  37.340  14.026
32127W        W99195   4.299  18.089  13.365
32128W        W99196   5.914  33.412   0.388
32129W        W99197  28.135   5.216   2.404
32130W        W99198  21.111  32.476  13.806
32131W        W99199  42.919  18.757  12.385
32132W        W99200  13.822  30.509  11.572
32133W        W99201   3.955   7.906  14.443
32134W        W99202  16.677   9.192  14.277
32135W        W99203  17.091  24.619  12.512
32136W        W99204  13.246   6.183   4.748
32137W        W99205  14.240  40.990  12.342
32138W        W99206  32.448  38.423  13.393
32139W        W99207  14.278  11.656   0.925
32140W        W99208  15.260   5.286  13.457
32141W        W99209  20.533   1.768  11.016
32142W        W99210   1.364   1.240   4.284
32143W        W99211   5.273   1.270  13.007
32144W        W99212   4.786  36.510  10.918
32145W        W99213  18.746   7.329   0.730
32146W        W99214  27.194  31.127  13.997
32147W        W99215  20.115   2.380  12.002
32148W        W99216  30.455  22.578  12.527
32149W        W99217  29.971  14.773   0.477
32150W        W99218  25.472  22.564   2.236
32151W        W99219  40.039  29.982  12.930
32152W        W99220  22.068  15.317   1.296
32153W        W99221  14.701  30.516   5.273
32154W        W99222  23.669   7.869  14.774
32155W        W99223  24.682   6.411  14.792
32156W        W99224  36.846  19.763   4.786
32157W        W99225  38.513  32.440   0.275
32158W        W99226  19.625  23.087  14.909
32159W        W99227  24.058  28.008  14.437
32160W        W99228  27.070  14.746   3.703
32161W        W99229   8.661  41.423   4.274
32162W        W99230  20.647   2.455   4.777
32163W        W99231  31.628  12.156   0.888
32164W        W99232  41.038  39.513   3.280
32165W        W99233   3.727  18.126   3.832
32166W        W99234  24.553  43.953  13.055
32167W        W99235  15.634  29.647   3.146
32168W        W99236  29.638   7.363   0.261
32169W        W99237  34.490  37.489   3.644
32170W        W99238   4.732  41.849   4.267
32171W        W99239   2.232  40.901  13.545
32172W        W99240  32.431  10.822   3.152
32173W        W99241  14.719  29.630  11.078
32174W        W99242   8.885  44.906  12.409
32175W        W99243  29.529  24.107  14.900
32176W        W99244  38.987  21.025  12.536
32177W        W99245   8.715  42.483  13.913
32178W        W99246  24.711  22.063  13.062
32179W        W99247   2.354  11.668  14.288
32180W        W99248  29.524  37.041   3.213
32181W        W99249  37.337  40.358   2.824
32182W        W99250  19.627   6.418   3.352
32183W        W99251  37.970  40.516   4.150
32184W        W99252  44.763  22.022  14.793
32185W        W99253  24.653  14.106  12.459
32186W        W99254  23.996  42.853  12.971
32187W        W99255  26.961  11.195   2.698
32188W        W99256  36.092  44.365   3.173
32189W        W99257  20.599  11.241  12.986
32190W        W99258   5.854   0.445  14.932
32191W        W99259   3.282  19.178   1.272
32192W        W99260  40.038   9.228   4.313
32193W        W99261   6.201  44.396  14.377
32194W        W99262  30.938  42.783   0.947
32195W        W99263  15.303  17.161  12.067
32196W        W99264   6.253  16.618   9.949
32197W        W99265  38.520  32.444  13.892
32198W        W99266  19.282  32.604   3.159
32199W        W99267   5.856  35.053   2.832
32200W        W99268   5.816  10.383  11.059
32201W        W99269  44.998  20.198   0.761
32202W        W99270  13.643  15.307  11.389
32203W        W99271  33.466   5.701   4.768
32204W        W99272  12.252  22.152  10.935
32205W        W99273  43.284  24.657   2.201
32206W        W99274   0.979  19.137  11.567
32207W        W99275   8.318  38.946   0.770
32208W        W99276   9.328  22.094   0.956
32209W        W99277  21.208  38.483   5.722
32210W        W99278  40.337  12.297   1.333
32211W        W99279  37.979  34.473  13.461
32212W        W99280  42.787  15.133   4.688
32213W        W99281  41.298  27.683   0.919
32214W        W99282  42.849  44.005  14.491
32215W        W99283   5.303  43.930   1.782
32216W        W99284  21.251   4.339  13.978
32217W        W99285  34.438  14.824   3.367
32218W        W99286  30.427  24.550  11.541
32219W        W99287  29.535  36.025  14.967
32220W        W99288  20.179  29.424  12.391
32221W        W99289  12.840  41.905   3.758
32222W        W99290   3.838  35.507  11.434
32223W        W99291   7.778  15.717  13.472
32224W        W99292  36.909  21.574   1.379
32225W        W99293  35.373  28.507   1.848
32226W        W99294  42.424  41.443   1.903
32227W        W99295   4.814  14.731   2.340
32228W        W99296   6.254  17.645  14.320
32229W        W99297  37.369   2.922   2.880
32230W        W99298  15.687  30.976   1.854
32231W        W99299  42.849  41.834  13.024
32232W        W99300  10.181   3.397  12.025
32233W        W99301  44.856  30.029  12.506
32234W        W99302  10.847  42.365   2.740
32235W        W99303  19.573  32.476  11.124
32236W        W99304  25.510   2.817  12.563
32237W        W99305   1.798   2.417  14.505
32238W        W99306  34.934   0.425  12.489
32239W        W99307  30.909   0.271  13.863
32240W        W99308  33.957  39.862  11.051
32241W        W99309  31.029  37.050  12.472
32242W        W99310  27.048  35.379   1.242
32243W        W99311  44.371  25.048  13.412
32244W        W99312  26.623  13.756   4.243
32245W        W99313  16.224  18.614  11.432
32246W        W99314  43.506  33.464   0.424
32247W        W99315  11.748  22.565  10.932
32248W        W99316  27.591  36.926   3.655
32249W        W99317   7.876  17.623  11.464
32250W        W99318  37.985  30.512   4.626
32251W        W99319  31.930  27.127  12.928
32252W        W99320   4.342  30.915   3.780
32253W        W99321   9.272  30.924  12.039
32254W        W99322  33.622  43.405   3.650
32255W        W99323  25.694   7.188   0.368
32256W        W99324  34.047   9.878   4.644
32257W        W99325   6.392   6.696   2.259
32258W        W99326  23.160   6.235  12.573
32259W        W99327  40.384  37.831  14.462
32260W        W99328  26.181  14.169   0.416
32261W        W99329  18.060  41.851   0.384
32262W        W99330  42.844   7.776  10.596
32263W        W99331  20.208  34.921   3.151
32264W        W99332  28.165   2.394  10.577
32265W        W99333  29.666  36.486   1.769
32266W        W99334   8.228  13.688   2.895
32267W        W99335  41.369  32.608   3.270
32268W        W99336  12.257  31.106   0.467
32269W        W99337   5.857  11.360   4.707
32270W        W99338   4.234   9.257   3.855
32271W        W99339  43.020  38.968   5.081
32272W        W99340  33.599  32.894   3.739
32273W        W99341  37.514  18.678   3.758
32274W        W99342  31.030  15.657   5.278
32275W        W99343  35.968  25.116  14.860
32276W        W99344  43.468  41.515   2.774
32277W        W99345   8.190  15.255  14.995
32278W        W99346  29.950  43.324  14.810
32279W        W99347  27.555  34.019  11.559
32280W        W99348  38.958  38.962  11.095
32281W        W99349   7.406   4.908   3.332
32282W        W99350  31.912  22.723  14.031
32283W        W99351  39.332  26.604   3.168
32284W        W99352  37.368  11.342  13.925
32285W        W99353  23.715   7.861   2.728
32286W        W99354   7.685  36.573  13.955
32287W        W99355  37.350  35.578   4.239
32288W        W99356  14.736   4.775  11.861
32289W        W99357  10.173   2.421  14.465
32290W        W99358  18.579  38.383   0.924
32291W        W99359  22.531  25.197   3.676
32292W        W99360   8.206   5.795  11.035
32293W        W99361  12.165   6.710   3.193
32294W        W99362  40.961  21.206  14.390
32295W        W99363   6.241  23.123  12.999
32296W        W99364   9.258  22.657  12.471
32297W        W99365  36.016  35.991  13.476
32298W        W99366  27.600  25.565  11.121
32299W        W99367   2.247  33.126  14.904
32300W        W99368  41.394  31.488   2.274
32301W        W99369   6.842  44.492  14.792
32302W        W99370   1.338  26.489   1.719
32303W        W99371  27.010  23.663   0.297
32304W        W99372  25.502  37.482  12.983
32305W        W99373  13.776  31.564  12.475
32306W        W99374  15.311  33.475   3.691
32307W        W99375  40.384   7.670   4.268
32308W        W99376   1.341  14.643  14.825
32309W        W99377  44.471  35.543  13.808
32310W        W99378  13.237  11.198  13.516
32311W        W99379  19.269  10.785  10.632
32312W        W99380  15.691   9.810   0.938
32313W        W99381  31.130  26.501   0.827
32314W        W99382  32.611  41.040  14.421
32315W        W99383   8.784  38.362   3.789
32316W        W99384  11.642  44.423   1.704
32317W        W99385  18.630  38.906  14.959
32318W        W99386  31.470  10.196  13.864
32319W        W99387  15.716  11.372  13.905
32320W        W99388  19.545  17.079   4.216
32321W        W99389  13.791  16.607   3.272
32322W        W99390  30.491  29.517   3.219
32323W        W99391  34.899  33.892  11.039
32324W        W99392   4.875   3.735  12.544
32325W        W99393  33.529   2.334   0.748
32326W        W99394  22.503  24.609   0.414
32327W        W99395  39.320   6.817   1.343
32328W        W99396  26.614  32.007  10.447
32329W        W99397  38.031  41.837   4.354
32330W        W99398  12.129   3.237   2.746
32331W        W99399  20.092  10.818   3.233
32332W        W99400  36.585   9.760  10.418
32333W        W99401  42.306  16.113   1.437
32334W        W99402  42.902  27.524   4.176
32335W        W99403  42.393  28.136   2.838
32336W        W99404  43.000  42.027  10.596
32337W        W99405  11.158   6.195  14.298
32338W        W99406  26.987   7.668  11.399
32339W        W99407  28.970   2.467  13.415
32340W        W99408   2.326  20.244  12.920
32341W        W99409   4.723   0.822   0.440
32342W        W99410  33.390   8.376  13.458
32343W        W99411   6.813  44.494  14.312
32344W        W99412  20.198   4.775   4.313
32345W        W99413  25.055  33.004   0.271
32346W        W99414  43.787  35.042   2.854
32347W        W99415  31.030  23.636   3.347
32348W        W99416  18.573  43.450  11.098
32349W        W99417  18.784  11.140  10.624
32350W        W99418  26.493  43.378  11.549
32351W        W99419   3.827  30.967  14.316
32352W        W99420  42.983  42.843   1.270
32353W        W99421   9.265  43.289   0.859
32354W        W99422  38.493  11.864  10.642
32355W        W99423  10.740  37.037  11.125
32356W        W99424  28.030   2.394  13.339
32357W        W99425   2.422   5.292   1.346
32358W        W99426   1.907  42.462  10.963
32359W        W99427  37.045  37.878   1.771
32360W        W99428   8.234   9.352  12.002
32361W        W99429  19.592  28.071   5.135
32362W        W99430  18.297  30.950   4.767
32363W        W99431  20.260  37.943   3.367
32364W        W99432  27.526   3.291   2.803
32365W        W99433  32.625  15.619  12.566
32366W        W99434   2.962   6.762   3.678
32367W        W99435  25.536  13.247   4.333
32368W        W99436  14.255  26.506  12.994
32369W        W99437  44.397   1.760   1.228
32370W        W99438  43.817  27.686   4.205
32371W        W99439  35.588   7.896  10.906
32372W        W99440  17.267  26.143  14.385
32373W        W99441  31.020  37.406  12.992
32374W        W99442  36.563  23.217   2.327
32375W        W99443   3.391  11.179  13.957
32376W        W99444   2.880  19.692   2.701
32377W        W99445  26.975   3.875  13.325
32378W        W99446   9.284  40.032  11.102
32379W        W99447  11.739  36.544  11.572
32380W        W99448  44.936   8.382  12.975
32381W        W99449   6.744  28.478   4.834
32382W        W99450   8.172  18.556  12.962
32383W        W99451  33.052   7.235  12.386
32384W        W99452  29.471  26.494   3.769
32385W        W99453   7.254  33.003   1.298
32386W        W99454  25.149   5.797  11.543
32387W        W99455  17.268   9.809   9.970
32388W        W99456  16.770  33.060  13.511
32389W        W99457  39.837  42.322  13.469
32390W        W99458  22.126  39.508   2.783
32391W        W99459  28.057  10.643  14.979
32392W        W99460  24.659  13.293   4.816
32393W        W99461  43.000  41.030  13.945
32394W        W99462   5.825  31.014  14.303
32395W        W99463  44.469   4.701   1.264
32396W        W99464  26.029  19.281  12.082
32397W        W99465  11.770  14.120   3.634
32398W        W99466  14.176  35.493   0.819
32399W        W99467  15.742  43.912   3.787
32400W        W99468  32.616  11.708   2.848
32401W        W99469  23.184  30.923   0.475
32402W        W99470  15.110  35.449  10.591
32403W        W99471  20.094   0.465  14.835
32404W        W99472  42.792  16.657  12.531
32405W        W99473  21.547  33.543  14.028
32406W        W99474  42.016  23.652   2.742
32407W        W99475  23.084   3.797   1.277
32408W        W99476   7.723  10.751  13.438
32409W        W99477  35.417   5.329  12.832
32410W        W99478  30.097  16.569   2.771
32411W        W99479  40.356  41.788  13.351
32412W        W99480  17.564  32.997   2.241
32413W        W99481  24.991  35.932   4.800
32414W        W99482  32.514   4.344  10.951
32415W        W99483  26.035   4.305   1.296
32416W        W99484  33.035  27.467  11.931
32417W        W99485  41.858  18.124   1.807
32418W        W99486  30.642  37.859   3.768
32419W        W99487  35.412  25.582  12.578
32420W        W99488  10.211  32.977   2.357
32421W        W99489  12.261  16.688  13.802
32422W        W99490  17.765  39.980  14.984
32423W        W99491   4.409  11.249  13.993
32424W        W99492   1.847  37.540   1.273
32425W        W99493  37.336  33.974   3.703
32426W        W99494  33.019  18.715   1.797
32427W        W99495  44.911   2.377  11.465
32428W        W99496  36.852  33.571  12.981
32429W        W99497  25.007  24.975  12.431
32430W        W99498   8.794  12.788   1.727
32431W        W99499  22.743  11.839   1.789
32432W        W99500  38.827  22.577  13.395
32433W        W99501  30.563   6.810  11.035
32434W        W99502   9.700  15.223   3.708
32435W        W99503  44.857  24.022   1.388
32436W        W99504  35.888  24.618  10.522
32437W        W99505   9.772  29.946   2.850
32438W        W99506  19.073   3.242   3.146
32439W        W99507  29.016  17.308   1.437
32440W        W99508  19.259   7.325   2.703
32441W        W99509  35.070  21.189   1.401
32442W        W99510  27.010  32.971  13.994
32443W        W99511  34.082  43.926   4.292
32444W        W99512  33.562  15.269   4.228
32445W        W99513  28.031   1.909  12.960
32446W        W99514   0.250  39.530  12.475
32447W        W99515  23.192  24.509  11.389
32448W        W99516  35.475  19.589   2.811
32449W        W99517  30.571  38.428  13.356
32450W        W99518  31.970   7.739  13.819
32451W        W99519  34.924  19.732  11.434
32452W        W99520   1.759  35.050  13.947
32453W        W99521  31.097  31.151  13.416
32454W        W99522   0.822   1.298   3.309
32455W        W99523  41.896  27.679   4.757
32456W        W99524  26.603  28.132  10.473
32457W        W99525  27.065   0.438  14.807
32458W        W99526  42.790  40.455  12.437
32459W        W99527  15.163  19.554  10.906
32460W        W99528  19.070  22.507  11.997
32461W        W99529  18.667  11.673  13.937
32462W        W99530  22.996   9.351  13.312
32463W        W99531  43.948   1.279  12.980
32464W        W99532  31.583  17.610  12.930
32465W        W99533  37.932  24.519   1.926
32466W        W99534  11.226  27.142   4.164
32467W        W99535  14.758   9.324  11.523
32468W        W99536  32.461  30.425  10.964
32469W        W99537   0.434   1.335  11.108
32470W        W99538  34.374   9.745  14.412
32471W        W99539  14.148  32.110  10.635
32472W        W99540  20.524  28.010   1.700
32473W        W99541  25.571  42.459  14.905
32474W        W99542   2.775  25.567  13.870
32475W        W99543  22.615  29.566   0.742
32476W        W99544  16.725  22.574   3.244
32477W        W99545   5.933  23.587   2.344
32478W        W99546   9.658  28.085  12.473
32479W        W99547   2.384  17.606   0.332
32480W        W99548  24.031  12.193   2.839
32481W        W99549  32.928   4.922   2.671
32482W        W99550   5.205  44.466   1.725
32483W        W99551   2.922  25.215   2.772
32484W        W99552  30.080   5.376  12.448
32485W        W99553  23.128  40.876  12.062
32486W        W99554  22.193   8.699   4.165
32487W        W99555  11.364  32.594  11.603
32488W        W99556  40.949   6.319   4.274
32489W        W99557  29.040  21.030  12.578
32490W        W99558   0.429   4.302  14.399
32491W        W99559   9.807  25.683   1.240
32492W        W99560  10.658  13.121  11.082
32493W        W99561  41.962   6.339  14.430
32494W        W99562   7.387  40.397   2.676
32495W        W99563  27.566  39.043  10.927
32496W        W99564  38.058  15.714   4.254
32497W        W99565  21.194  27.013  14.317
32498W        W99566   0.980  28.148  13.514
32499W        W99567  30.604  16.664  11.504
32500W        W99568   7.190  19.564  13.803
32501W        W99569  13.105  38.867  13.937
32502W        W99570  17.557  10.340  10.451
32503W        W99571   3.323  35.459   4.700
32504W        W99572  39.530  32.450  10.988
32505W        W99573   2.362  33.062  13.806
32506W        W99574  20.617  10.353  14.766
32507W        W99575  43.818  28.128   2.250
32508W        W99576   3.721   2.913  11.577
32509W        W99577   9.786  22.252  13.902
32510W        W99578  35.534  22.676   4.724
32511W        W99579  12.286  10.797   0.406
32512W        W99580   4.888  17.649   0.478
32513W        W99581  28.438  17.753   1.928
32514W        W99582  40.969  15.648  14.482
32515W        W99583   6.858  37.855   4.773
32516W        W99584   5.851  39.392   1.385
32517W        W99585  37.358  18.732   2.186
32518W        W99586  36.510  34.554   0.900
32519W        W99587   3.445  23.722  12.541
32520W        W99588  41.025  29.959   3.765
32521W        W99589  40.817   2.365  12.066
32522W        W99590  41.530  16.607  12.363
32523W        W99591  32.515  16.078   2.697
32524W        W99592  19.115  17.243   4.256
32525W        W99593  30.494  39.839  10.904
32526W        W99594  23.040  38.000  14.317
32527W        W99595  36.031  20.198  14.017
32528W        W99596   7.739  28.513  10.591
32529W        W99597  33.481  40.504   1.811
32530W        W99598  24.675  26.673  14.760
32531W        W99599  14.290  14.634   3.285
32532W        W99600  17.062   6.404  14.377
32533W        W99601  37.870  29.588   3.654
32534W        W99602  12.851  39.545  13.946
32535W        W99603  34.949  24.686   4.314
32536W        W99604  11.723  24.698   1.341
32537W        W99605  22.148  28.517  11.496
32538W        W99606  36.577  28.453  14.798
32539W        W99607   5.888  40.490  13.926
32540W        W99608  30.004  34.049   0.878
32541W        W99609  37.409  27.086  10.957
32542W        W99610  13.846  34.059   3.196
32543W        W99611  13.665  18.681  13.403
32544W        W99612   1.964  35.960  13.383
32545W        W99613  27.683  30.604   2.234
32546W        W99614  31.947   5.859  10.643
32547W        W99615  38.942  30.586  11.528
32548W        W99616  29.549  19.742   1.734
32549W        W99617  23.069  41.431   3.281
32550W        W99618  13.766   4.377   4.718
32551W        W99619   9.208   4.724  12.450
32552W        W99620  11.695  37.464   2.268
32553W        W99621   6.708  13.317   2.202
32554W        W99622  24.034  32.959   1.889
32555W        W99623  18.294  27.482   2.331
32556W        W99624  21.212  16.275  14.940
32557W        W99625  41.861   4.383   0.452
32558W        W99626  37.508  19.701   1.377
32559W        W99627   3.401  38.821  14.011
32560W        W99628  23.546  29.926   1.241
32561W        W99629  38.946  27.528   2.719
32562W        W99630   6.400  13.629   4.307
32563W        W99631  31.120  42.330  12.050
32564W        W99632  28.629   5.274   0.315
32565W        W99633  39.966  17.100   4.752
32566W        W99634   2.823   2.854   3.160
32567W        W99635  41.316  25.611  13.464
32568W        W99636   5.259  27.625   1.730
32569W        W99637  37.929  31.646  14.428
32570W        W99638  26.181  40.971  12.957
32571W        W99639  17.642   3.382  13.877
32572W        W99640  30.553  13.791  11.465
32573W        W99641  36.356  23.207   0.318
32574W        W99642   6.735   3.441   1.739
32575W        W99643  35.894  13.125  11.486
32576W        W99644  43.804   9.197   2.190
32577W        W99645  13.166   0.479   3.209
32578W        W99646  36.497  35.917   4.258
32579W        W99647  29.617   9.277   0.756
32580W        W99648  42.437  16.134  12.503
32581W        W99649  24.562  26.570   1.230
32582W        W99650  19.581  30.418   1.869
32583W        W99651   3.434   3.869  14.785
32584W        W99652   0.951  32.444   3.672
32585W        W99653  10.183   6.856   3.849
32586W        W99654  23.633  39.508   2.183
32587W        W99655  30.044  20.267   4.718
32588W        W99656  29.967   1.274  11.917
32589W        W99657  38.461  22.154   4.137
32590W        W99658   5.843  11.647   2.690
32591W        W99659   3.859  15.784  12.407
32592W        W99660  30.043   2.967  12.870
32593W        W99661  29.549   6.757   3.734
32594W        W99662  24.089  35.009   3.303
32595W        W99663  27.090   8.298   4.730
32596W        W99664   0.358   9.657   4.143
32597W        W99665   6.847  26.514   1.282
32598W        W99666  20.570  14.240  10.463
32599W        W99667   5.320  36.054  10.633
32600W        W99668  36.888  25.025   1.447
32601W        W99669  18.588  25.554   1.226
32602W        W99670   5.914  42.824   4.770
32603W        W99671  21.253  13.704   0.750
32604W        W99672  31.026  30.923  10.574
32605W        W99673  24.603   0.794  13.438
32606W        W99674  38.479  18.764   2.702
32607W        W99675  35.449   0.336   2.339
32608W        W99676  27.580  42.454  12.832
32609W        W99677   6.312  17.647   0.371
32610W        W99678  19.244   5.370   2.749
32611W        W99679  15.660   9.799  13.540
32612W        W99680   3.791  41.351  10.500
32613W        W99681  39.889  38.411   0.962
32614W        W99682  28.483  37.979  13.924
32615W        W99683  13.204   4.354  11.473
32616W        W99684  41.888  10.333   3.677
32617W        W99685  12.250  39.367   1.360
32618W        W99686   4.248   1.903  12.898
32619W        W99687  41.382   7.253  14.456
32620W        W99688  21.673  41.419   9.602
32621W        W99689  30.524   6.236  11.383
32622W        W99690  13.335  19.144   1.338
32623W        W99691  15.662  39.884  10.418
32624W        W99692  18.753  26.641   1.297
32625W        W99693  11.214  25.044   2.382
32626W        W99694  42.013  41.942   4.143
32627W        W99695   4.262  16.592  13.488
32628W        W99696   7.395   7.732   4.214
32629W        W99697  30.519  27.527  14.469
32630W        W99698  18.573  33.963   2.707
32631W        W99699  14.333  12.134  14.498
32632W        W99700  30.058   5.931  12.420
32633W        W99701  28.473  16.751  12.846
32634W        W99702  44.881  33.532  14.515
32635W        W99703   3.241  39.825   3.321
32636W        W99704  28.586  20.704  10.631
32637W        W99705  17.069  18.720   5.246
32638W        W99706  31.542  42.865  10.585
32639W        W99707  40.534  24.656  12.380
32640W        W99708  42.969  17.103  12.354
32641W        W99709   7.224  35.581   3.319
32642W        W99710  28.134  18.145  14.380
32643W        W99711  37.558  15.162  10.457
32644W        W99712   7.277  17.137   1.803
32645W        W99713  21.656  13.789   3.721
32646W        W99714  18.121   9.343  12.456
32647W        W99715  14.702  12.693   1.259
32648W        W99716  12.326  10.269  10.149
32649W        W99717  36.871  37.337  11.378
32650W        W99718  21.639  21.140   0.959
32651W        W99719  31.990  33.971   0.959
32652W        W99720  32.092  44.001  10.146
32653W        W99721  39.020  17.222   5.249
32654W        W99722  26.554  12.221   0.409
32655W        W99723  37.836   5.789   3.834
32656W        W99724   3.361   2.918  13.376
32657W        W99725  39.504  36.567   0.451
32658W        W99726   0.808  41.009   0.808
32659W        W99727  30.553  17.281   2.792
32660W        W99728  20.647  25.101   3.377
32661W        W99729  21.675  21.086  13.984
32662W        W99730  11.721   1.347   0.278
32663W        W99731  29.173   1.859   3.267
32664W        W99732  10.226  12.710   2.235
32665W        W99733  33.966  31.572  13.960
32666W        W99734  40.946  13.244  14.436
32667W        W99735  10.832   5.382   0.818
32668W        W99736   9.183  10.714   3.677
32669W        W99737  36.079  44.493  12.479
32670W        W99738  28.473  44.406   2.879
32671W        W99739  30.585  19.085   0.410
32672W        W99740  41.882  36.583  12.866
32673W        W99741  41.983  13.626  12.406
32674W        W99742   4.756  22.583  14.806
32675W        W99743   1.818  38.540   4.128
32676W        W99744  26.194  14.616   4.244
32677W        W99745  12.330  10.821  14.020
32678W        W99746  10.773   2.754  13.434
32679W        W99747  43.932  24.181   3.803
32680W        W99748  21.026   8.204   4.752
32681W        W99749  43.986  13.611  11.079
32682W        W99750   8.739  15.211  13.060
32683W        W99751   8.260  29.943  12.375
32684W        W99752  28.998  16.078   1.822
32685W        W99753   1.964  12.179  11.452
32686W        W99754  25.053  19.045   0.286
32687W        W99755  36.440  41.902   3.707
32688W        W99756   8.859  15.755  13.470
32689W        W99757  10.827  33.507   2.803
32690W        W99758  17.229  43.316  13.048
32691W        W99759  13.655  44.344  14.466
32692W        W99760  24.635  42.461   3.222
32693W        W99761  12.144  33.542  11.439
32694W        W99762  32.104  20.643  12.403
32695W        W99763   0.969  18.661   3.362
32696W        W99764  10.324  33.579  11.957
32697W        W99765  21.522  11.719  14.353
32698W        W99766  12.843  11.346   4.239
32699W        W99767   5.365  24.132   3.226
32700W        W99768  38.369   2.465  14.874
32701W        W99769  10.173  28.677   3.766
32702W        W99770  18.055   6.850   0.423
32703W        W99771   9.761  37.028   2.728
32704W        W99772  22.023  17.594  11.003
32705W        W99773  24.135  32.437   2.803
32706W        W99774  14.100  20.063   5.183
32707W        W99775  10.698  31.926   4.795
32708W        W99776  19.677  11.351  11.125
32709W        W99777  17.737   7.912  10.576
32710W        W99778   6.217   8.670  13.522
32711W        W99779  25.056  44.011  10.538
32712W        W99780  32.066  41.403   3.855
32713W        W99781  14.234   9.780   1.824
32714W        W99782  26.050  42.858  14.015
32715W        W99783   5.323  44.357   1.336
32716W        W99784  16.238   1.918  11.589
32717W        W99785  30.938  21.237  13.054
32718W        W99786  21.513  41.856  12.837
32719W        W99787  20.066   4.216  11.415
32720W        W99788  35.533  10.783  11.952
32721W        W99789  21.195  39.866  11.561
32722W        W99790  22.630  17.582   0.943
32723W        W99791  34.374  12.261   0.370
32724W        W99792   5.216  42.804  10.927
32725W        W99793  42.952  42.909   1.820
32726W        W99794   3.271  40.042  11.504
32727W        W99795  41.430  12.718   3.336
32728W        W99796  21.537   3.426  13.858
32729W        W99797  23.238  25.033   4.115
32730W        W99798  15.223  35.109   3.785
32731W        W99799   4.926  37.571  14.327
32732W        W99800   7.849  33.073   4.670
32733W        W99801  10.875  39.435  10.501
32734W        W99802  19.535  11.714   1.838
32735W        W99803   0.372  21.219  13.995
32736W        W99804   5.811  25.086   3.837
32737W        W99805  40.023   2.421   0.938
32738W        W99806  21.101  36.091  11.546
32739W        W99807  15.752  42.901  10.512
32740W        W99808  36.400  42.953   1.365
32741W        W99809  38.832  42.871   3.163
32742W        W99810  17.676  43.953   2.668
32743W        W99811  23.194  25.115  14.286
32744W        W99812  22.699  15.125  10.996
32745W        W99813   1.374  18.168   3.156
32746W        W99814  21.612  44.442   1.900
32747W        W99815  17.084  30.006   1.783
32748W        W99816   4.428   5.231   2.900
32749W        W99817  13.271  29.029   3.677
32750W        W99818  27.083   6.233  11.862
32751W        W99819  22.502  11.178  11.084
32752W        W99820  12.138  38.846  14.435
32753W        W99821   7.286   7.286   0.831
32754W        W99822  40.942  24.060   0.255
32755W        W99823  22.572   4.811  11.383
32756W        W99824  24.528  12.327   4.760
32757W        W99825  26.501  32.602   1.268
32758W        W99826   1.755  15.767   2.398
32759W        W99827  21.035   6.361   1.891
32760W        W99828   7.747  29.470  13.802
32761W        W99829  20.657  14.104  12.389
32762W        W99830  23.519  10.194   1.851
32763W        W99831  20.273  17.696  11.089
32764W        W99832  20.731  34.581  12.433
32765W        W99833   1.865  25.633  14.387
32766W        W99834  42.793  27.196   4.220
32767W        W99835   8.719  34.571   3.683
32768W        W99836  15.099  29.647  10.920
32769W        W99837  38.929   1.428  12.009
32770W        W99838  39.015   5.250  14.008
32771W        W99839  36.455  43.412  13.968
32772W        W99840  24.146   4.352   4.351
32773W        W99841   1.277  21.663  12.994
32774W        W99842  16.582  20.124   3.319
32775W        W99843  27.151  33.008   0.938
32776W        W99844  25.098   8.788  12.351
32777W        W99845   3.751   2.306  10.451
32778W        W99846  38.029   2.377  14.358
32779W        W99847  17.275  25.590  12.443
32780W        W99848  33.967  20.164   4.309
32781W        W99849  37.870  30.059   4.249
32782W        W99850  21.028   0.294  14.925
32783W        W99851  25.671  29.087   2.897
32784W        W99852  44.291   0.837  10.516
32785W        W99853  43.281  24.702  12.566
32786W        W99854  23.116  26.472   0.260
32787W        W99855  14.283  10.740  14.500
32788W        W99856  41.337  40.356   0.842
32789W        W99857  34.566  10.232  11.480
32790W        W99858  17.644   9.201   0.427
32791W        W99859  17.300  32.015   4.648
32792W        W99860  36.956   4.723   0.401
32793W        W99861  29.146  43.835  14.503
32794W        W99862  25.137  22.175  14.509
32795W        W99863  36.368  32.097   5.299
32796W        W99864  42.370  31.620  12.924
32797W        W99865  36.043   1.316   3.720
32798W        W99866  17.594  16.264   0.842
32799W        W99867  13.180   7.743   3.840
32800W        W99868  39.847   3.883  11.477
32801W        W99869   9.302  44.298  11.573
32802W        W99870  28.037  22.250  12.055
32803W        W99871  37.049  30.157  12.074
32804W        W99872   9.864  40.995   2.669
32805W        W99873   5.770   7.782  11.375
32806W        W99874  13.624  35.990  11.411
32807W        W99875  16.077   4.838  14.403
32808W        W99876  33.964  10.847  14.766
32809W        W99877  32.411  17.112  13.360
32810W        W99878   0.967   3.426  14.437
32811W        W99879   9.239  33.983   4.146
32812W        W99880  31.482  26.671   1.859
32813W        W99881   4.411  11.842   1.720
32814W        W99882  30.990  24.015   0.892
32815W        W99883  37.846  22.054   2.853
32816W        W99884  18.250  19.598   2.879
32817W        W99885  41.311  30.009  14.803
32818W        W99886   3.716  32.894   9.587
32819W        W99887  42.960  31.482  11.385
32820W        W99888  19.154   8.205  14.507
32821W        W99889  15.598  36.368  10.625
32822W        W99890  35.072  30.466  11.024
32823W        W99891  37.050   8.239  11.426
32824W        W99892  26.010  15.255   4.261
32825W        W99893   4.823  17.723  13.799
32826W        W99894  19.669   3.384   4.331
32827W        W99895   2.349  41.966   3.176
32828W        W99896   0.887   5.786  10.149
32829W        W99897  19.670  37.833   4.754
32830W        W99898  35.583  22.191  14.341
32831W        W99899  17.676   9.766  14.501
32832W        W99900  11.237  31.025   3.772
32833W        W99901   6.758  11.759   0.472
32834W        W99902  43.333  26.558  12.380
32835W        W99903   5.928  35.084   4.783
32836W        W99904  10.857  32.113  12.986
32837W        W99905  26.609  18.618   4.193
32838W        W99906  21.191  36.532   1.254
32839W        W99907  36.488   9.368   4.695
32840W        W99908  15.690  15.316  10.507
32841W        W99909  10.689  25.502   3.292
32842W        W99910  12.617  23.187   3.169
32843W        W99911  16.090   6.922   1.276
32844W        W99912  19.155  38.328   2.698
32845W        W99913  35.511  38.025   1.273
32846W        W99914  43.787  24.630   2.318
32847W        W99915  27.167   8.199  12.972
32848W        W99916  43.486  37.456  14.280
32849W        W99917   3.353  35.049  12.975
32850W        W99918  19.779  43.855  11.378
32851W        W99919  16.796   5.793  11.445
32852W        W99920  19.185  14.229  12.386
32853W        W99921  10.809  20.583  11.413
32854W        W99922   6.220  41.319  12.009
32855W        W99923  22.188  23.093  10.592
32856W        W99924  44.260  20.618  13.958
32857W        W99925  38.325  43.875   0.459
32858W        W99926  11.229   4.427   1.310
32859W        W99927  38.840  16.239  13.037
32860W        W99928  43.516   2.820  13.949
32861W        W99929  35.096  43.906  10.593
32862W        W99930  35.408  25.607  13.041
32863W        W99931  35.456  29.661   3.757
32864W        W99932  24.203  25.076  10.091
32865W        W99933   9.671  20.052  12.997
32866W        W99934  40.353   3.948  10.470
32867W        W99935  15.091  24.215   3.640
32868W        W99936   9.264  36.949  14.780
32869W        W99937  19.675   1.349   2.267
32870W        W99938  31.084  32.408   9.924
32871W        W99939  24.020  10.333   3.736
32872W        W99940   6.911  30.513  14.327
32873W        W99941  35.450  15.689   1.442
32874W        W99942  41.968  30.431   4.782
32875W        W99943   4.900  41.862   0.477
32876W        W99944   2.239  35.939   3.834
32877W        W99945  10.683  19.088   1.264
32878W        W99946  32.888  37.412  11.577
32879W        W99947  13.750  18.223  13.467
32880W        W99948   3.450  16.313  13.889
32881W        W99949  33.977  17.579   4.781
32882W        W99950  36.574   4.282   3.206
32883W        W99951  15.751  26.519   1.265
32884W        W99952  17.780   2.362   4.142
32885W        W99953   9.753  10.311  12.414
32886W        W99954  27.151  12.699   4.319
32887W        W99955  43.935  18.051   0.954
32888W        W99956  26.584  31.928  14.344
32889W        W99957  36.572  17.235  14.981
32890W        W99958  23.080  10.704   0.333
32891W        W99959  43.437  36.951   0.786
32892W        W99960  23.150  19.043  13.509
32893W        W99961  16.736  29.472   1.809
32894W        W99962  37.404  35.984   1.723
32895W        W99963  13.306   0.941   4.305
32896W        W99964  14.261   9.687   3.163
32897W        W99965  44.499  13.750  13.444
32898W        W99966   7.180  28.622   4.291
32899W        W99967  11.699   9.802  11.526
32900W        W99968   6.342  28.018   0.276
32901W        W99969  41.986  31.480   2.676
32902W        W99970   3.792  28.123   3.148
32903W        W99971  34.486   3.742  14.955
32904W        W99972   8.857  18.294  11.868
32905W        W99973  32.445   4.227  14.782
32906W        W99974  19.541  29.049   0.277
32907W        W99975  25.691  42.454  13.343
32908W        W99976   9.185   7.257  10.572
32909W        W99977  26.502  22.173  11.908
32910W        W99978   1.255   6.870  11.097
32911W        W99979  13.106  35.587  13.547
32912W        W99980  37.859  25.135   4.745
32913W        W99981   1.949  35.403  11.485
32914W        W99982  27.965  21.097   1.427
32915W        W99983   5.718  14.298   4.182
32916W        W99984  35.405   7.841  13.405
32917W        W99985   7.182   8.346   1.892
32918W        W99986  33.444   3.923  13.916
32919W        W99987  20.081  33.401  14.274
32920W        W99988  27.545  30.913  13.888
32921W        W99989  32.982  13.136  13.523
32922W        W99990  13.710  29.086  11.950
32923W        W99991  42.354   0.980   3.343
32924W        W99992   4.759   4.422  14.780
32925W        W99993  25.520  23.652  14.491
32926W        W99994  11.709  42.849   2.295
32927W        W99995  38.481  31.009   3.272
32928W        W99996   7.325  22.158  13.528
32929W        W99997  10.207  28.185   4.336
32930W        W99998   9.157  40.852  12.040
32931W        W99999   5.399   1.457   4.805
32932W        W    0  38.529  35.052   0.268
32933W        W    1  30.521   6.749   2.697
32934W        W    2   1.827  17.596  12.906
32935W        W    3  37.846  16.262   1.333
32936W        W    4  18.701  19.156   2.794
32937W        W    5   0.330  18.751   4.717
32938W        W    6  21.665  14.242   3.675
32939W        W    7   0.967   9.234  12.936
32940W        W    8  39.916  27.012   2.251
32941W        W    9   5.340  24.594   3.240
32942W        W   10  33.978   8.667   1.881
32943W        W   11  36.542   8.399  14.896
32944W        W   12  34.061  22.025   0.271
32945W        W   13  28.466  24.986  11.118
32946W        W   14  20.673   4.406  14.407
32947W        W   15   0.898  22.656   2.265
32948W        W   16  35.504  11.678  14.949
32949W        W   17  19.605  28.569  14.485
32950W        W   18  19.055  18.224   3.658
32951W        W   19  28.648   2.242   3.375
32952W        W   20  30.020  29.607  13.052
32953W        W   21  25.152   0.326  13.307
32954W        W   22   9.804  24.715  14.935
32955W        W   23   3.370  38.055   4.143
32956W        W   24  12.726  44.499  10.593
32957W        W   25  41.491  44.446  10.488
32958W        W   26  43.509  32.575  14.327
32959W        W   27  10.836  38.844  10.530
32960W        W   28  12.679  38.566   3.266
32961W        W   29   3.944   3.325  12.832
32962W        W   30  27.646  20.176   0.770
32963W        W   31   2.741   6.324  10.946
32964W        W   32  15.127  27.528  14.414
32965W        W   33   2.458  29.080  14.851
32966W        W   34  29.583  39.366  12.444
32967W        W   35  32.434  15.273   5.661
32968W        W   36  36.379   0.947  14.294
32969W        W   37  14.732  12.651  10.584
32970W        W   38  17.182  40.045   0.393
32971W        W   39   6.347  13.300  14.978
32972W        W   40  43.905  29.523   1.373
32973W        W   41  43.379  32.573  13.980
32974W        W   42  20.764  16.582   4.278
32975W        W   43  16.773  26.674  14.289
32976W        W   44  35.412  23.130   3.280
32977W        W   45  22.208  14.823  14.947
32978W        W   46  41.003  26.522   1.350
32979W        W   47  30.154  25.060   4.627
32980W        W   48   2.915  10.722  14.476
32981W        W   49   3.948  19.127  14.439
32982W        W   50  11.329  32.451  11.914
32983W        W   51  42.925  28.020  12.502
32984W        W   52  11.660  36.461   0.444
32985W        W   53  41.376  12.313   1.314
32986W        W   54  16.664  22.688   0.853
32987W        W   55  38.959  17.767  12.881
32988W        W   56  23.642  41.343   1.830
32989W        W   57  43.811  42.398   2.268
32990W        W   58  23.155  25.166   1.229
32991W        W   59   7.889  12.354  13.858
32992W        W   60  29.481  25.981   3.807
32993W        W   61  43.323  15.213   1.743
32994W        W   62  41.296  20.034   3.328
32995W        W   63  19.654   8.734  14.988
32996W        W   64  38.384  34.415  13.884
32997W        W   65  44.498  17.286   4.271
32998W        W   66   6.790  41.496   4.725
32999W        W   67   9.371  14.163   4.342
33000W        W   68  21.633  16.650   3.331
33001W        W   69  12.233  43.881   3.215
33002W        W   70   1.803  27.040  12.878
33003W        W   71  15.768   4.409   1.749
33004W        W   72  43.513  25.993   2.799
33005W        W   73  30.090  18.079  14.426
33006W        W   74  43.850   5.434   3.328
33007W        W   75  13.806  12.118   0.242
33008W        W   76   9.234   8.666  11.936
33009W        W   77  13.786  40.943   1.826
33010W        W   78  12.728  29.921  12.888
33011W        W   79   4.422  13.200   1.328
33012W        W   80  36.423  19.725   4.291
33013W        W   81  24.716  29.038  12.025
33014W        W   82   9.695   8.870   1.841
33015W        W   83  14.219  12.767   0.933
33016W        W   84  39.065  24.004  12.470
33017W        W   85  38.406  10.191   0.955
33018W        W   86   6.681  44.388  10.444
33019W        W   87  39.363  33.934  12.021
33020W        W   88  32.408  38.435   0.397
33021W        W   89  42.398   6.872  11.021
33022W        W   90  14.199  23.030   0.359
33023W        W   91  19.285  39.432   5.626
33024W        W   92   2.725  40.498   1.739
33025W        W   93   9.648  12.174  14.474
33026W        W   94  25.041  27.667  13.839
33027W        W   95   7.771  43.335  11.550
33028W        W   96  28.102  11.219   1.816
33029W        W   97  29.518  21.590  10.527
33030W        W   98  24.491  29.159  12.937
33031W        W   99   8.869  35.868   1.753
33032W        W  100  12.770  44.427   1.917
33033W        W  101  13.237  26.001   0.436
33034W        W  102  39.936   4.213   0.853
33035W        W  103  24.994  27.654  13.501
33036W        W  104  23.993  41.860   0.432
33037W        W  105  30.497  34.867  11.025
33038W        W  106   7.409  18.184   4.242
33039W        W  107  40.353  19.598  13.332
33040W        W  108  39.517  44.797  14.341
33041W        W  109   4.785   3.320   3.851
33042W        W  110  27.030   5.414   3.158
33043W        W  111  30.496  19.745   1.780
33044W        W  112  10.805  35.925   2.680
33045W        W  113  12.259  12.789  10.514
33046W        W  114  20.640  44.760  14.502
33047W        W  115  18.769   8.394   4.295
33048W        W  116  25.580   3.440  10.931
33049W        W  117  42.798  10.700  13.461
33050W        W  118  41.926  25.065  12.025
33051W        W  119  35.374  33.041  14.810
33052W        W  120  12.788   1.865   0.954
33053W        W  121  17.161   6.191  13.533
33054W        W  122  30.118  10.320   4.227
33055W        W  123  23.639  24.156  13.489
33056W        W  124  29.611  27.148   4.776
33057W        W  125  21.259  37.044   5.287
33058W        W  126  34.446   9.200  12.512
33059W        W  127  14.668  43.391   2.681
33060W        W  128   7.891  27.676   4.688
33061W        W  129  37.450  39.004  13.435
33062W        W  130  39.477   0.458  11.100
33063W        W  131  42.837   9.280  14.308
33064W        W  132  12.702  19.550   5.162
33065W        W  133  21.250   3.278  14.494
33066W        W  134  37.062  26.062  10.560
33067W        W  135  31.001  28.627  11.380
33068W        W  136  16.594  10.638   3.825
33069W        W  137  17.067   2.399   0.838
33070W        W  138  16.124  37.064  14.902
33071W        W  139  18.270  43.480  12.428
33072W        W  140  44.961  11.240   3.295
33073W        W  141  13.274   7.720  12.523
33074W        W  142  38.832  34.006   4.700
33075W        W  143  22.570   2.869  13.817
33076W        W  144  29.519  16.231   4.707
33077W        W  145  28.670   6.266   0.835
33078W        W  146  40.937  18.786  14.813
33079W        W  147  16.584  19.700   1.896
33080W        W  148  32.049  40.475  14.989
33081W        W  149  25.642  17.227   0.448
33082W        W  150  37.890  27.998   3.330
33083W        W  151  20.760  26.525   2.355
33084W        W  152  28.969  37.354   0.830
33085W        W  153  21.219  30.503  13.923
33086W        W  154  33.597  20.103  10.907
33087W        W  155  34.091  38.504  13.001
33088W        W  156  34.922  28.141  14.394
33089W        W  157   9.744  23.071   3.319
33090W        W  158   9.753  26.003  10.541
33091W        W  159   5.373  14.236  14.929
33092W        W  160  42.993   9.694  11.465
33093W        W  161   3.771  13.803  11.530
33094W        W  162  19.242   8.309   3.866
33095W        W  163   0.408   2.867   0.869
33096W        W  164   7.374  29.108   4.126
33097W        W  165  34.089  34.118   0.338
33098W        W  166  35.923  22.139  14.979
33099W        W  167  30.600  22.213  14.366
33100W        W  168  32.588  28.148  13.912
33101W        W  169  12.225  35.045   2.325
33102W        W  170  27.027  15.293   1.746
33103W        W  171  33.420  24.512  14.881
33104W        W  172  38.425  19.208  14.929
33105W        W  173  17.675  17.694   1.392
33106W        W  174  30.050   2.268   1.780
33107W        W  175   5.789  37.581   1.431
33108W        W  176  29.532  29.525  14.772
33109W        W  177  14.298  14.796   2.178
33110W        W  178  31.564   8.833  10.925
33111W        W  179  37.993  44.323   1.846
33112W        W  180   5.378  23.495   3.336
33113W        W  181   7.700  19.639   2.227
33114W        W  182  41.908  25.185   2.248
33115W        W  183  11.275  16.273  12.046
33116W        W  184  11.164  37.435  14.974
33117W        W  185  15.742  23.607  11.576
33118W        W  186  16.648  38.358   0.441
33119W        W  187  29.546  16.642   1.409
33120W        W  188  13.628  11.841  14.820
33121W        W  189  22.997   7.359  11.546
33122W        W  190  39.484  33.054   0.344
33123W        W  191  42.398  27.586   2.372
33124W        W  192  14.291  26.458   2.841
33125W        W  193   9.876   4.736   2.676
33126W        W  194  35.865  32.502  12.873
33127W        W  195  13.771  20.595  11.949
33128W        W  196   1.343   9.189  14.467
33129W        W  197  42.364  30.961   0.371
33130W        W  198  26.507  33.625  13.828
33131W        W  199  43.827  26.113   2.722
33132W        W  200  17.203  12.729   2.294
33133W        W  201  43.507  17.653   2.384
33134W        W  202   5.259  11.270   0.789
33135W        W  203  24.165  15.628   4.156
33136W        W  204  31.467  39.933   1.933
33137W        W  205  41.952  33.907   2.182
33138W        W  206  27.057  35.491  11.501
33139W        W  207  42.913  15.716  13.025
33140W        W  208  26.548  21.145   2.758
33141W        W  209  43.007  19.769   4.835
33142W        W  210  12.302  21.721   0.752
33143W        W  211  38.524  16.091   0.727
33144W        W  212  18.227   5.418   4.148
33145W        W  213   9.383   5.827  14.367
33146W        W  214  42.003  11.297   4.175
33147W        W  215  22.664  13.255   1.380
33148W        W  216   9.289   0.378   1.800
33149W        W  217  14.300  25.618  11.467
33150W        W  218  18.739  16.615  13.817
33151W        W  219  43.854  42.018  11.979
33152W        W  220  11.797   4.366  11.606
33153W        W  221  13.258  16.143   2.683
33154W        W  222  38.948  35.102   1.901
33155W        W  223  36.993  37.975  11.039
33156W        W  224  15.147  42.887  12.066
33157W        W  225   9.799  39.486   1.297
33158W        W  226  41.898  26.036   2.190
33159W        W  227   6.421  28.099  11.966
33160W        W  228  26.180  14.154  14.403
33161W        W  229  40.842  30.569   3.767
33162W        W  230   7.331  26.483   2.892
33163W        W  231  18.124  38.348  14.855
33164W        W  232   1.353   9.757   2.343
33165W        W  233  38.462  23.118  11.984
33166W        W  234  35.363  21.662  13.033
33167W        W  235   2.884  36.942   4.767
33168W        W  236  30.967  11.669   2.236
33169W        W  237  21.586   9.682  14.012
33170W        W  238   7.881   2.394   0.730
33171W        W  239  32.088  22.148   1.408
33172W        W  240  21.244  30.509  13.421
33173W        W  241   9.376   0.982   2.194
33174W        W  242   4.798  39.941   2.901
33175W        W  243  44.923  12.216   0.935
33176W        W  244  14.165   3.247  14.905
33177W        W  245  30.495  21.586   2.847
33178W        W  246  38.890  44.300   1.449
33179W        W  247  27.958  19.715  12.080
33180W        W  248  20.597  10.786  11.520
33181W        W  249   9.761   9.839  13.048
33182W        W  250  15.801  44.437  13.848
33183W        W  251   2.433  16.802   0.835
33184W        W  252  37.551  21.620   0.785
33185W        W  253  16.587  16.158  10.463
33186W        W  254  34.064  14.768   1.409
33187W        W  255   4.359  16.778   4.677
33188W        W  256  30.588  16.242  14.379
33189W        W  257  33.547  27.027  13.895
33190W        W  258   9.810  39.463   3.855
33191W        W  259  25.982  16.171  10.957
33192W        W  260  31.077  13.789   4.119
33193W        W  261  40.400   9.711   3.384
33194W        W  262  29.140  28.958  10.418
33195W        W  263  13.697   5.199  10.614
33196W        W  264  14.680  29.595   4.688
33197W        W  265  35.542  20.669  12.437
33198W        W  266  18.781  10.259  10.591
33199W        W  267   2.953   8.371   0.768
33200W        W  268  21.127  29.060   2.216
33201W        W  269  29.635  32.528   1.814
33202W        W  270  33.590  36.567  10.953
33203W        W  271   9.646  24.211  12.001
33204W        W  272  21.215  44.872  13.373
33205W        W  273  12.331  27.496   2.808
33206W        W  274  13.309  25.570  12.572
33207W        W  275  15.737  18.050   4.800
33208W        W  276  34.374  26.572  12.005
33209W        W  277  10.239   7.850   3.203
33210W        W  278  42.344   6.420  10.574
33211W        W  279  11.337   1.293  12.476
33212W        W  280  13.684  40.001   4.128
33213W        W  281  44.431  39.934   1.216
33214W        W  282  42.777  27.103   0.814
33215W        W  283  28.533   3.772  13.366
33216W        W  284  17.721  13.627   1.229
33217W        W  285   0.253   5.240   1.328
33218W        W  286   9.263  29.616  10.951
33219W        W  287  17.191  42.861   1.280
33220W        W  288  16.588  23.593  12.476
33221W        W  289  14.822   2.412   0.420
33222W        W  290  37.515  15.194  12.091
33223W        W  291  39.001  44.993  13.982
33224W        W  292  27.138   5.439  13.988
33225W        W  293  41.356  38.986   4.796
33226W        W  294   2.286  36.557  13.312
33227W        W  295  16.627  16.651   2.692
33228W        W  296  11.351  27.551   3.709
33229W        W  297  29.450  19.694  11.884
33230W        W  298  25.664   9.669  11.026
33231W        W  299  21.605  19.563   0.281
33232W        W  300   7.777  40.881   1.790
33233W        W  301  24.591  29.142  12.424
33234W        W  302   5.198   9.264  12.857
33235W        W  303  25.121  24.641  14.405
33236W        W  304   1.976  42.997  11.464
33237W        W  305  43.359  18.677  14.504
33238W        W  306  44.288   7.674   1.771
33239W        W  307  13.680  40.963   4.277
33240W        W  308  31.634  44.972   4.118
33241W        W  309  29.438  32.534   4.324
33242W        W  310  18.248  21.655  10.575
33243W        W  311  39.477  40.468   4.681
33244W        W  312   8.792   9.775   0.397
33245W        W  313  35.557   3.303  12.927
33246W        W  314  15.233   5.308  11.110
33247W        W  315   9.707  37.338   0.889
33248W        W  316  23.708  14.734   0.258
33249W        W  317  20.659   5.934   2.747
33250W        W  318  43.832  22.607   4.793
33251W        W  319  28.546  10.633  13.061
33252W        W  320  18.758  29.136  13.339
33253W        W  321  10.875  35.105  12.440
33254W        W  322  12.356  13.609  13.980
33255W        W  323  13.339  24.176   1.313
33256W        W  324  22.021   4.818  12.921
33257W        W  325  16.171   1.412   1.217
33258W        W  326  33.458  23.193   2.289
33259W        W  327   3.943  32.123   4.343
33260W        W  328  30.074   3.346   1.897
33261W        W  329  31.901  12.774   4.297
33262W        W  330  42.796  37.465  12.388
33263W        W  331  15.189  35.436  12.499
33264W        W  332  35.906   2.441  11.981
33265W        W  333  26.198  43.401  11.496
33266W        W  334  18.163   0.480   0.468
33267W        W  335  25.490   0.354   3.276
33268W        W  336  29.441  28.176   3.164
33269W        W  337  32.072  28.453   0.392
33270W        W  338   6.741   1.942   2.397
33271W        W  339  42.466  22.203   4.274
33272W        W  340   4.292  23.677  12.356
33273W        W  341  12.612  26.644  14.894
33274W        W  342  13.691  10.318   3.183
33275W        W  343  21.034  41.315   3.238
33276W        W  344  31.605   9.249  13.037
33277W        W  345  39.387  31.575   0.802
33278W        W  346  34.884  21.650   2.862
33279W        W  347  14.249   1.426   4.764
33280W        W  348  32.404   6.894  14.840
33281W        W  349  44.328  42.913  10.441
33282W        W  350  31.983  15.611  14.987
33283W        W  351  18.545  25.965  12.579
33284W        W  352  13.727  33.102  12.446
33285W        W  353  41.532  30.522   0.407
33286W        W  354  20.045  18.254  14.965
33287W        W  355   3.347  15.762   4.621
33288W        W  356   9.784  27.618   2.763
33289W        W  357  23.580  25.601  13.538
33290W        W  358   5.737  25.187  13.347
33291W        W  359  18.096  16.706  13.934
33292W        W  360  37.384   5.891  13.483
33293W        W  361  35.438  36.566  13.943
33294W        W  362  34.392  18.056  11.586
33295W        W  363   6.726  40.325   3.788
33296W        W  364  25.016  28.631  12.465
33297W        W  365  16.760  10.153  13.928
33298W        W  366   0.252  23.597   4.319
33299W        W  367  38.019  44.993  13.878
33300W        W  368  30.000  30.129   3.769
33301W        W  369  37.510  18.187   1.273
33302W        W  370  40.835  35.534  12.375
33303W        W  371  14.773   4.207   1.838
33304W        W  372  31.023  30.636   0.270
33305W        W  373  19.769  35.871   0.416
33306W        W  374  28.529   6.688  13.534
33307W        W  375  42.028  10.663   0.772
33308W        W  376  43.006  12.162   3.334
33309W        W  377  20.119  17.111   0.360
33310W        W  378  43.468  36.904   4.748
33311W        W  379   9.259  44.380   4.668
33312W        W  380  18.127  22.661   3.325
33313W        W  381  30.933  18.647  14.438
33314W        W  382  30.953  29.629  13.376
33315W        W  383  21.518   6.878   3.148
33316W        W  384  41.791   2.339  14.805
33317W        W  385  23.660  20.240  11.397
33318W        W  386  37.013  42.507   0.884
33319W        W  387  39.052   7.838   3.365
33320W        W  388  37.924  29.654  10.902
33321W        W  389  10.302  15.282   2.370
33322W        W  390  19.040   2.367   1.857
33323W        W  391  32.432  32.042   0.848
33324W        W  392   2.776  18.619  12.967
33325W        W  393  33.931  35.907   2.690
33326W        W  394  30.590  28.602   2.189
33327W        W  395  38.880  38.326   4.143
33328W        W  396  10.312  34.027   0.277
33329W        W  397   1.249  28.665  11.908
33330W        W  398  20.119  21.242   1.935
33331W        W  399  42.396  19.556   1.836
33332W        W  400  26.203  26.086  10.537
33333W        W  401  20.174  22.712   2.903
33334W        W  402  42.823  18.788   3.355
33335W        W  403  12.634   3.303  12.448
33336W        W  404  37.896  42.477   2.248
33337W        W  405  36.043  31.579  13.877
33338W        W  406   7.324  34.540  10.969
33339W        W  407  41.328  39.517   2.801
33340W        W  408  30.106  12.738   3.336
33341W        W  409  38.978  13.841   1.859
33342W        W  410  31.039  29.125   4.247
33343W        W  411  35.497  42.508   1.878
33344W        W  412  29.526  19.730  14.957
33345W        W  413  24.617  39.812   0.732
33346W        W  414  28.964  13.751  11.566
33347W        W  415  10.681   1.295   2.324
33348W        W  416  11.636  41.438   3.818
33349W        W  417   1.977  37.542  11.993
33350W        W  418  10.281  26.135   4.140
33351W        W  419   1.753   3.800   4.128
33352W        W  420   2.796   7.328   0.266
33353W        W  421   4.746  15.619  10.965
33354W        W  422  10.150  42.282  12.932
33355W        W  423  18.061   5.365   1.885
33356W        W  424  40.537  26.039   1.745
33357W        W  425  16.211  42.888  10.058
33358W        W  426  24.052   2.350  11.467
33359W        W  427   7.362  29.044   3.370
33360W        W  428  13.233  19.603   3.321
33361W        W  429  22.567  32.405  12.460
33362W        W  430   6.763   3.740  11.981
33363W        W  431   1.270   4.920   3.292
33364W        W  432  44.932  43.799   3.864
33365W        W  433   4.807  35.920  11.079
33366W        W  434  23.188  15.203  13.307
33367W        W  435  25.992  37.367   2.819
33368W        W  436   0.260  36.467   4.200
33369W        W  437  29.934   3.818   3.316
33370W        W  438  33.381  23.015   3.352
33371W        W  439  29.073  16.759  14.782
33372W        W  440  26.519   8.269   2.866
33373W        W  441   9.296  42.386  14.823
33374W        W  442  40.928   2.299  14.277
33375W        W  443  29.517  41.954   4.179
33376W        W  444  34.485   1.875   3.319
33377W        W  445  24.677   9.657   3.279
33378W        W  446  19.765  28.590   0.757
33379W        W  447   3.335  22.514   0.281
33380W        W  448  34.005   4.867   2.326
33381W        W  449  20.154  34.423  14.958
33382W        W  450  19.759  33.007   1.411
33383W        W  451  37.382  10.373   2.786
33384W        W  452  34.003  19.096  11.395
33385W        W  453  22.180  35.527   3.680
33386W        W  454  19.572  38.963   1.229
33387W        W  455  42.481  44.928   4.119
33388W        W  456  42.991  34.517  10.099
33389W        W  457  22.220  15.789  14.342
33390W        W  458  12.725  35.093   1.367
33391W        W  459  33.436  38.415   0.351
33392W        W  460  27.051  28.024   0.823
33393W        W  461  14.186  16.775   4.225
33394W        W  462  27.648   4.777  11.086
33395W        W  463  44.768  23.723   4.712
33396W        W  464  17.711  22.211  13.041
33397W        W  465  23.213  40.915   5.217
33398W        W  466   8.844  10.704  13.838
33399W        W  467  24.508  33.461  13.923
33400W        W  468  14.629  36.904  13.805
33401W        W  469  18.192   3.839   1.242
33402W        W  470  43.865  29.579  13.534
33403W        W  471  32.942   7.331   0.417
33404W        W  472  13.267  34.395  14.507
33405W        W  473  20.191   6.381   4.190
33406W        W  474  39.420  22.017   2.219
33407W        W  475  41.837  10.257   2.197
33408W        W  476   4.738  34.024  14.352
33409W        W  477  35.570  22.575  13.956
33410W        W  478  44.393  43.399  12.095
33411W        W  479  20.613   6.381  11.112
33412W        W  480   1.410   4.864  12.561
33413W        W  481  11.197  32.588  11.091
33414W        W  482  34.479   0.868   4.164
33415W        W  483  21.028  35.560  14.897
33416W        W  484  44.288  25.077   2.355
33417W        W  485  11.761   0.976   3.268
33418W        W  486  21.166  43.830  14.024
33419W        W  487  34.501  30.105   1.890
33420W        W  488  23.545  14.642   4.771
33421W        W  489  38.946  33.035   0.828
33422W        W  490   6.854  28.127   1.849
33423W        W  491  31.989  41.538   0.843
33424W        W  492  20.231   7.781  10.960
33425W        W  493   1.418  16.573  13.470
33426W        W  494   0.836   9.242   3.763
33427W        W  495  23.082   6.803   0.892
33428W        W  496  10.780  40.980   0.819
33429W        W  497   4.318  19.062  14.954
33430W        W  498   8.869  13.347   1.844
33431W        W  499  23.523  29.616   4.291
33432W        W  500  13.144  24.658   2.870
33433W        W  501  44.381  32.446   4.661
33434W        W  502   9.227  37.581  11.128
33435W        W  503  21.258  22.647  12.053
33436W        W  504   9.200  10.330  11.923
33437W        W  505   7.173  41.309  13.315
33438W        W  506  13.698  19.279  12.005
33439W        W  507  24.055   4.751   0.394
33440W        W  508  25.695  31.986  14.809
33441W        W  509  15.688  23.069   1.800
33442W        W  510   4.899  34.397   2.802
33443W        W  511  20.175  34.977   3.791
33444W        W  512  32.942  22.513  12.427
33445W        W  513  23.624  38.553  12.079
33446W        W  514  42.863  11.151  14.275
33447W        W  515  28.529  42.936   0.731
33448W        W  516  26.650  26.507   1.233
33449W        W  517  41.405  22.745  11.090
33450W        W  518  29.558  39.332   3.690
33451W        W  519  34.049  39.536   4.700
33452W        W  520  39.063   3.730   0.256
33453W        W  521  14.737  36.403  10.613
33454W        W  522  44.344   0.354   4.792
33455W        W  523  20.566  35.515  10.435
33456W        W  524  13.642   4.804   3.343
33457W        W  525  36.937  19.205   3.638
33458W        W  526   4.878  13.225   2.687
33459W        W  527  31.032  27.021  12.096
33460W        W  528  27.119  37.577  10.482
33461W        W  529  22.998  35.603  11.051
33462W        W  530   4.262  24.219  13.326
33463W        W  531  25.218  21.192   2.189
33464W        W  532  17.760  32.003  11.932
33465W        W  533  13.786   0.471   4.146
33466W        W  534  21.674  38.526  10.990
33467W        W  535   1.972   2.314  11.505
33468W        W  536   0.757   1.307   1.225
33469W        W  537  42.907  37.048   2.844
33470W        W  538  27.018  10.659   3.755
33471W        W  539  39.365  38.032  14.912
33472W        W  540  30.956  29.426   4.312
33473W        W  541  22.713  21.186   1.255
33474W        W  542  40.922  11.217   2.188
33475W        W  543  25.154  34.924  11.471
33476W        W  544  31.454  36.348  14.948
33477W        W  545   9.836  36.568   1.732
33478W        W  546  19.119  36.452   2.751
33479W        W  547  15.206  41.038   2.207
33480W        W  548  34.382   7.706   1.737
33481W        W  549  28.987  27.547  11.377
33482W        W  550  12.315  34.066   4.119
33483W        W  551  14.292   1.366  11.959
33484W        W  552  28.479  35.039  11.903
33485W        W  553  34.090  30.440  12.986
33486W        W  554  35.545  20.029  10.536
33487W        W  555  36.536  31.922  14.821
33488W        W  556   6.293  16.273   1.935
33489W        W  557  32.525  27.609   5.282
33490W        W  558  26.568  33.047  10.624
33491W        W  559  13.791  30.979   2.411
33492W        W  560   6.420  22.669   0.843
33493W        W  561  11.130  10.340  14.429
33494W        W  562  12.743   6.366   0.783
33495W        W  563  39.021  38.035  14.312
33496W        W  564  28.567  37.918   1.864
33497W        W  565  25.116  23.045   4.238
33498W        W  566   2.254  19.235   1.365
33499W        W  567  26.188  36.954   1.814
33500W        W  568  12.723   6.786  12.948
33501W        W  569  27.685  18.262   2.355
33502W        W  570  14.261  17.606   4.206
33503W        W  571   9.832   0.876   4.344
33504W        W  572  28.160  33.007   1.907
33505W        W  573   3.875  39.980  11.525
33506W        W  574  28.497  23.529  13.420
33507W        W  575  25.596  41.998   3.187
33508W        W  576  41.337  31.551   0.338
33509W        W  577   8.780  42.289  12.856
33510W        W  578   4.777  34.075  11.088
33511W        W  579  36.536  18.568  11.557
33512W        W  580  22.597   3.918  10.912
33513W        W  581  25.204  29.945   3.299
33514W        W  582  35.364   3.249   4.187
33515W        W  583  44.986  35.548  11.009
33516W        W  584   3.824  32.541  14.763
33517W        W  585  18.183  27.685   4.133
33518W        W  586  22.010  42.852  11.055
33519W        W  587  37.951  26.461   4.139
33520W        W  588   2.753   4.412   4.342
33521W        W  589   4.911  10.160  14.995
33522W        W  590   6.249  15.273  12.485
33523W        W  591  36.969   0.918  13.810
33524W        W  592  22.557  23.199  13.321
33525W        W  593   1.317   5.794   1.703
33526W        W  594  17.148  25.990  13.877
33527W        W  595  35.597   8.670   4.641
33528W        W  596  43.782   2.853   3.863
33529W        W  597   3.351  13.611  13.390
33530W        W  598  16.207   5.352   1.754
33531W        W  599  36.947  15.659  10.962
33532W        W  600  33.992  21.150  12.362
33533W        W  601  17.795  18.555   1.764
33534W        W  602  32.094   2.735   2.793
33535W        W  603  29.445   7.293   3.696
33536W        W  604  43.492  23.025   0.798
33537W        W  605  35.372  35.528   3.229
33538W        W  606  14.625  36.579  11.431
33539W        W  607  32.891  24.605  14.920
33540W        W  608  11.763  25.703   9.958
33541W        W  609   0.343  39.935  13.958
33542W        W  610   9.216  43.396  11.008
33543W        W  611   1.348  34.553   4.163
33544W        W  612  25.207   2.419  12.095
33545W        W  613  39.453  16.150   2.411
33546W        W  614  20.037  27.135  13.838
33547W        W  615  10.255   9.656  10.937
33548W        W  616  15.792  13.738   3.182
33549W        W  617  36.449  14.269  11.079
33550W        W  618  25.141   7.369   4.292
33551W        W  619   7.805  19.747  11.485
33552W        W  620   4.917   6.688  10.925
33553W        W  621  39.424  44.819   4.828
33554W        W  622  40.498   2.366   3.283
33555W        W  623  33.546  40.346   1.241
33556W        W  624  42.899  20.731  14.441
33557W        W  625  18.200  10.687   0.361
33558W        W  626  28.998  33.593  13.332
33559W        W  627   3.940  18.685   1.262
33560W        W  628  11.355  35.527  12.980
33561W        W  629  10.290   1.936  14.288
33562W        W  630  27.568  42.411   3.725
33563W        W  631  21.666  41.874   2.230
33564W        W  632  35.107  14.596   3.792
33565W        W  633  37.491   2.451   1.860
33566W        W  634  35.555  41.791  14.885
33567W        W  635  28.069  17.665  13.522
33568W        W  636  34.020  39.488  11.555
33569W        W  637   1.820  28.101  12.020
33570W        W  638   9.340  19.602   3.289
33571W        W  639  38.993  19.086   2.703
33572W        W  640   6.823  16.165   9.926
33573W        W  641  42.880  25.064  12.528
33574W        W  642  20.694  21.186  12.095
33575W        W  643  15.684  25.625   1.790
33576W        W  644   4.879  33.070  13.944
33577W        W  645  35.426  23.515  10.562
33578W        W  646  17.626   3.228  10.625
33579W        W  647  37.508  39.937  10.149
33580W        W  648  21.746  28.009  14.505
33581W        W  649  37.021  35.876   0.798
33582W        W  650  29.499   2.893  11.999
33583W        W  651  17.109   6.836  10.998
33584W        W  652  27.983  32.551   2.759
33585W        W  653  23.557  30.606  13.477
33586W        W  654  39.954  25.507   0.816
33587W        W  655  32.992   2.333  12.854
33588W        W  656  23.589  21.733   1.904
33589W        W  657  40.920  44.977   4.835
33590W        W  658   0.907  43.917  12.916
33591W        W  659  20.763  21.045   0.904
33592W        W  660  25.502  23.158   0.271
33593W        W  661  27.445   8.668  12.402
33594W        W  662  38.453  12.794   4.766
33595W        W  663  28.471  10.234  13.420
33596W        W  664   9.173  17.154  14.449
33597W        W  665  25.010  28.948  10.010
33598W        W  666  37.511  23.118  12.844
33599W        W  667  10.790   4.346  14.024
33600W        W  668   1.786  15.723  13.386
33601W        W  669   8.231  21.136   3.280
33602W        W  670  15.253  24.548   3.246
33603W        W  671  36.024  37.480  11.562
33604W        W  672  19.200   5.320   0.480
33605W        W  673   0.312  43.796  13.426
33606W        W  674  32.930  40.350  13.362
33607W        W  675  23.994  29.447  12.347
33608W        W  676  37.535  27.181   3.369
33609W        W  677  44.481  37.867  12.438
33610W        W  678  23.188  40.975  11.566
33611W        W  679  20.199   8.702   5.164
33612W        W  680  44.291   5.925  13.841
33613W        W  681  40.404  18.591   4.816
33614W        W  682  17.133  12.852   0.940
33615W        W  683  43.441  34.613   1.774
33616W        W  684   5.251  28.515  11.123
33617W        W  685  15.735  43.866   4.806
33618W        W  686   3.870  29.987   4.788
33619W        W  687  10.278   8.869   0.791
33620W        W  688  10.727  16.583   0.274
33621W        W  689  18.611   4.416  12.953
33622W        W  690  21.261  19.750  10.564
33623W        W  691   5.693  16.123   2.245
33624W        W  692  23.721  26.643  11.474
33625W        W  693  12.618   8.680   0.947
33626W        W  694   3.878  38.048   2.691
33627W        W  695   2.352  23.195  12.825
33628W        W  696  39.413   5.396   3.760
33629W        W  697  39.449  32.558   0.814
33630W        W  698   9.697   8.401  12.930
33631W        W  699  41.992  18.161  14.513
33632W        W  700  34.402  39.951   2.733
33633W        W  701  30.520   1.807  14.425
33634W        W  702   8.861  25.635   0.257
33635W        W  703  44.778   8.878  14.322
33636W        W  704  43.451  31.460  11.458
33637W        W  705   0.875   9.787   1.401
33638W        W  706   2.307  23.032   2.679
33639W        W  707   1.274  39.991   2.893
33640W        W  708  34.890   4.397  10.465
33641W        W  709  16.234  17.696   3.192
33642W        W  710  28.004  43.439  11.101
33643W        W  711   8.882  11.206   1.816
33644W        W  712  15.254  20.077   0.904
33645W        W  713  29.499  19.675   4.328
33646W        W  714  44.373  23.008  14.780
33647W        W  715  24.672  38.523   4.632
33648W        W  716  19.621   2.395  11.961
33649W        W  717  33.005  31.978  12.901
33650W        W  718   3.216  37.959   0.958
33651W        W  719  37.046  19.566   4.206
33652W        W  720   2.402  12.119  10.583
33653W        W  721  27.497   2.270   0.872
33654W        W  722  34.092  29.139  13.033
33655W        W  723  25.215  27.153   4.231
33656W        W  724   2.303  39.532   3.239
33657W        W  725   9.159   4.784   9.955
33658W        W  726   8.162  41.517  12.003
33659W        W  727  39.896  14.771   3.682
33660W        W  728  15.617  32.411  10.962
33661W        W  729  14.778   3.869   0.462
33662W        W  730  38.820  28.144  10.946
33663W        W  731  38.488   8.292  12.397
33664W        W  732  12.316  28.018   1.277
33665W        W  733  34.892  18.582  13.922
33666W        W  734  30.506  27.692  12.348
33667W        W  735  12.292  11.247   1.409
33668W        W  736   1.748   9.201   3.768
33669W        W  737   5.224  35.964  12.939
33670W        W  738  20.765   9.267   0.411
33671W        W  739  41.865  42.895   1.395
33672W        W  740  17.269   7.295   3.843
33673W        W  741   4.272  21.209   2.701
33674W        W  742   1.309  25.519   4.811
33675W        W  743  28.498  41.310  14.940
33676W        W  744  42.847  33.434   0.799
33677W        W  745  26.121  13.623  11.929
33678W        W  746  32.545  44.963   4.606
33679W        W  747  40.475  22.173   2.759
33680W        W  748  13.116  31.441   4.342
33681W        W  749  15.763  16.185  12.038
33682W        W  750  36.473  42.487   0.803
33683W        W  751  41.898  10.216  13.472
33684W        W  752  24.993   8.675  13.459
33685W        W  753   7.666  37.370  14.467
33686W        W  754  14.749  24.693   0.331
33687W        W  755  34.004   9.684  13.916
33688W        W  756  38.979  29.449   2.820
33689W        W  757  24.709  44.871   2.772
33690W        W  758  21.519  15.786  10.640
33691W        W  759  10.828  23.024   1.399
33692W        W  760  22.657   6.836  13.864
33693W        W  761   7.204   1.482  14.845
33694W        W  762  21.060   2.872   1.416
33695W        W  763  31.480  22.561   4.170
33696W        W  764  14.611   9.342   0.434
33697W        W  765  25.555  10.772  12.935
33698W        W  766  18.548  30.985  12.339
33699W        W  767  35.057  31.631  12.915
33700W        W  768  41.338  27.671   3.668
33701W        W  769  36.452   7.310  11.122
33702W        W  770   8.851   2.458   4.154
33703W        W  771   0.873   8.898  14.513
33704W        W  772  14.636  16.186   2.303
33705W        W  773  18.143  33.076   2.868
33706W        W  774  39.889  36.054  13.827
33707W        W  775   2.373   2.798   3.798
33708W        W  776  33.389   2.411  13.490
33709W        W  777  37.380  21.619   2.844
33710W        W  778  38.976  38.530   4.707
33711W        W  779  16.229  14.770  12.930
33712W        W  780  28.614  27.018   4.230
33713W        W  781  42.867  44.367   2.310
33714W        W  782  30.972  10.808  13.846
33715W        W  783   3.296  13.616   2.749
33716W        W  784  18.710  22.708   2.290
33717W        W  785   6.872   8.323   2.671
33718W        W  786  40.549  31.541  14.850
33719W        W  787  44.363  28.165  14.363
33720W        W  788   8.796  21.643   1.418
33721W        W  789   4.388  23.050  12.824
33722W        W  790  14.173   7.198  10.582
33723W        W  791  44.415  28.057  10.640
33724W        W  792  38.410  19.227   2.393
33725W        W  793  31.556  25.710  13.903
33726W        W  794  18.702  27.969   5.159
33727W        W  795   9.374   5.927   4.700
33728W        W  796  25.002  42.978  14.799
33729W        W  797  38.528  25.579  14.962
33730W        W  798   2.236  25.602   0.843
33731W        W  799  32.083  39.389   2.903
33732W        W  800  43.291   3.785   2.691
33733W        W  801  29.975  28.653  11.867
33734W        W  802   3.300  37.391  13.316
33735W        W  803  14.700  33.047   3.806
33736W        W  804   0.797  36.966  14.900
33737W        W  805  44.291  34.579   2.325
33738W        W  806  10.319  33.617  10.903
33739W        W  807  32.056  23.616   0.424
33740W        W  808   8.185  22.154   0.453
33741W        W  809  16.160  32.567  13.483
33742W        W  810   5.287  13.842   3.201
33743W        W  811  38.383   4.359  13.459
33744W        W  812   4.336  26.566   3.376
33745W        W  813  20.265  20.601   4.746
33746W        W  814   7.842  29.451  13.349
33747W        W  815   2.882   3.943   3.787
33748W        W  816   7.852   9.392  14.913
33749W        W  817  42.998  29.480   3.252
33750W        W  818  43.933  20.250   2.848
33751W        W  819  42.804  26.117   4.729
33752W        W  820  24.183  39.472   4.722
33753W        W  821   0.757  42.848   0.351
33754W        W  822  21.173  40.352  14.471
33755W        W  823  43.300  25.162  10.979
33756W        W  824  37.452   9.833  11.921
33757W        W  825   5.823   7.824  12.950
33758W        W  826  18.657  32.488   3.815
33759W        W  827  18.729  12.684  12.841
33760W        W  828  15.667  37.850   0.294
33761W        W  829  27.164  17.299  14.453
33762W        W  830  17.276  21.111   1.257
33763W        W  831  17.197  12.273   3.258
33764W        W  832   1.887  20.103   2.889
33765W        W  833  26.958  15.663  11.858
33766W        W  834   7.225  44.322  14.487
33767W        W  835  19.656  10.354   5.216
33768W        W  836  31.086  21.054   0.275
33769W        W  837  23.505  26.958  12.549
33770W        W  838  19.214  24.129   3.689
33771W        W  839   0.418  14.802  11.856
33772W        W  840   2.818  18.248  10.961
33773W        W  841  20.544  24.591  12.398
33774W        W  842  44.935  37.833   3.171
33775W        W  843   1.926  43.818   0.792
33776W        W  844  27.528  17.192   0.376
33777W        W  845  28.060  30.942   5.151
33778W        W  846  13.640   0.275   2.271
33779W        W  847  11.258  37.462   0.459
33780W        W  848  12.263  24.676  14.446
33781W        W  849  18.607  16.268   1.767
33782W        W  850  40.507  43.844  11.965
33783W        W  851   2.463   9.882   3.208
33784W        W  852  26.467   5.194   0.289
33785W        W  853  20.144   8.829  12.844
33786W        W  854  16.792  20.085   2.342
33787W        W  855  15.655   4.220  14.409
33788W        W  856  34.982  33.888  10.423
33789W        W  857  11.696  34.018  12.015
33790W        W  858  16.109  32.424  14.938
33791W        W  859  24.216  44.494   9.966
33792W        W  860  33.964  22.562   4.301
33793W        W  861  35.394   7.345  10.504
33794W        W  862  23.553  33.622   1.423
33795W        W  863  31.104   0.746   4.175
33796W        W  864  41.942   1.794  13.018
33797W        W  865  24.226  13.720   2.235
33798W        W  866  41.026   3.884   4.702
33799W        W  867  12.789  32.541  14.021
33800W        W  868  30.481  19.567   4.181
33801W        W  869  14.141  16.670  14.972
33802W        W  870  19.613   5.280   2.688
33803W        W  871  35.973  31.915  10.530
33804W        W  872  33.098  38.023  11.035
33805W        W  873  12.794  21.263   4.722
33806W        W  874  44.461  37.061  10.994
33807W        W  875  25.054  27.633  11.063
33808W        W  876  35.103  23.182  12.043
33809W        W  877  32.429  23.190  11.980
33810W        W  878  42.795  23.570   3.299
33811W        W  879  35.033  17.260   4.170
33812W        W  880  36.495   0.432   0.286
33813W        W  881  35.599  27.565   3.690
33814W        W  882   9.843  25.655   1.924
33815W        W  883  26.579  43.796  14.915
33816W        W  884  17.718  44.411  12.090
33817W        W  885  28.116  14.311   2.856
33818W        W  886   6.873   8.708   2.852
33819W        W  887  24.552  34.001   0.285
33820W        W  888   8.322   8.746  11.478
33821W        W  889   8.186  16.695   2.728
33822W        W  890   1.282  43.314  14.373
33823W        W  891   7.751  42.881  14.970
33824W        W  892  31.956   1.308   1.932
33825W        W  893  18.258   0.352   3.225
33826W        W  894  29.999  28.095  14.386
33827W        W  895   0.938  13.708   2.226
33828W        W  896   3.931   1.974   3.188
33829W        W  897  36.928  39.981  13.404
33830W        W  898   5.263  21.533  12.519
33831W        W  899  33.036  29.033   2.668
33832W        W  900  41.017  35.943  10.441
33833W        W  901  29.457  14.257  14.829
33834W        W  902  22.706  35.435   2.194
33835W        W  903  35.413  18.729   2.268
33836W        W  904   0.791  20.678  11.924
33837W        W  905  28.107  32.482  13.447
33838W        W  906  28.023   7.780  13.370
33839W        W  907  11.247   2.752   2.743
33840W        W  908   5.901  14.323   2.878
33841W        W  909  42.368  21.708   1.792
33842W        W  910   0.951  29.987   2.815
33843W        W  911  23.063  11.800   4.165
33844W        W  912  16.093  25.126  13.360
33845W        W  913   3.336  34.066   1.308
33846W        W  914  25.053   3.727  12.406
33847W        W  915   6.278   8.822  10.022
33848W        W  916  10.207  13.759   1.329
33849W        W  917  20.587  20.077   0.885
33850W        W  918  24.227  44.996  13.471
33851W        W  919  19.676  20.213  14.858
33852W        W  920  18.771  21.744   3.234
33853W        W  921   5.864   9.794   0.844
33854W        W  922   4.214  32.011   0.250
33855W        W  923  34.980   6.715   4.193
33856W        W  924   9.833  43.927  12.949
33857W        W  925   5.224  37.078  14.000
33858W        W  926  38.368  10.344   2.847
33859W        W  927   8.686   0.824   0.846
33860W        W  928  14.742  32.578  13.403
33861W        W  929  16.619   5.764   3.860
33862W        W  930   4.755  16.800  14.480
33863W        W  931  27.587  24.021   2.209
33864W        W  932  30.910   0.861   2.806
33865W        W  933   9.821  39.833   3.300
33866W        W  934   7.212   9.761   0.849
33867W        W  935  11.735  26.197   2.413
33868W        W  936   7.402  21.217   0.414
33869W        W  937  34.873  25.549  13.500
33870W        W  938   4.780   7.818   2.835
33871W        W  939   5.280  21.240  12.992
33872W        W  940  35.040  33.080  13.486
33873W        W  941  19.764  14.746   0.262
33874W        W  942   2.890  29.957  13.051
33875W        W  943  11.305  29.146  11.498
33876W        W  944   1.330  18.725  14.889
33877W        W  945  33.462   7.394  10.474
33878W        W  946  25.710  41.390   3.844
33879W        W  947  17.757  27.077  13.015
33880W        W  948  22.144  42.472   4.707
33881W        W  949  26.983  16.658  11.858
33882W        W  950  14.621   5.833  12.903
33883W        W  951  24.558  41.952  14.858
33884W        W  952  39.371  28.152   3.255
33885W        W  953  42.381  32.977  10.469
33886W        W  954  28.935  22.160  10.935
33887W        W  955  12.686   6.307  10.454
33888W        W  956  42.295  34.021  11.387
33889W        W  957  26.006  37.378   3.370
33890W        W  958  42.020   6.340  11.938
33891W        W  959  20.658   0.883  12.342
33892W        W  960  25.652  25.996   3.840
33893W        W  961  44.994  11.200  11.896
33894W        W  962  17.654  22.568   0.826
33895W        W  963  29.488   2.925   1.777
33896W        W  964  30.960  16.148  13.950
33897W        W  965   1.925  30.958   3.749
33898W        W  966  10.670  35.018  10.925
33899W        W  967  29.048  22.531  12.068
33900W        W  968  41.917  27.150  14.891
33901W        W  969  36.495  43.887  12.056
33902W        W  970  30.978   0.392  11.857
33903W        W  971  28.954  23.569  11.495
33904W        W  972  32.502  18.685   4.304
33905W        W  973  32.429  15.602  12.050
33906W        W  974   1.960  28.647   0.472
33907W        W  975  32.447  31.616  13.436
33908W        W  976  32.957  29.557  13.916
33909W        W  977  44.943  35.514   0.760
33910W        W  978  39.045  33.449   4.211
33911W        W  979   2.965  20.113  13.910
33912W        W  980  17.789   7.373   4.198
33913W        W  981  34.050  43.859   3.748
33914W        W  982  43.868  37.442   0.304
33915W        W  983  27.628  15.193  12.947
33916W        W  984  29.171  15.711  10.938
33917W        W  985  27.963  31.108  10.991
33918W        W  986  29.455  34.549  13.548
33919W        W  987  39.868  41.982   3.312
33920W        W  988   9.737  13.774   0.752
33921W        W  989  25.669  36.847  14.867
33922W        W  990   8.396   1.313   2.768
33923W        W  991  27.447  10.728  12.013
33924W        W  992   5.828  34.908   3.832
33925W        W  993  42.951   4.832   4.317
33926W        W  994  15.742  30.040  14.828
33927W        W  995  28.965  44.971  12.439
33928W        W  996  25.110  26.668  10.495
33929W        W  997  23.713  19.603  11.403
33930W        W  998  30.549   3.393   1.318
33931W        W  999  30.467  41.922  14.019
33932W        W 1000  38.917  34.867  13.011
33933W        W 1001   9.710  44.300   1.793
33934W        W 1002   0.412  31.506   0.761
33935W        W 1003  36.874   2.277  11.881
33936W        W 1004  16.744   9.226  12.930
33937W        W 1005  44.919  24.613  13.977
33938W        W 1006  13.738  39.517  12.886
33939W        W 1007  28.544  28.152  12.957
33940W        W 1008   6.718  27.621   2.229
33941W        W 1009  14.280  19.770   5.164
33942W        W 1010   8.194  43.339   1.760
33943W        W 1011  29.606   3.741   3.664
33944W        W 1012  21.112   5.295  13.376
33945W        W 1013  39.873  44.814  10.929
33946W        W 1014  30.067  41.853  11.123
33947W        W 1015  16.230  42.445  14.789
33948W        W 1016  19.109  12.255  12.375
33949W        W 1017  44.760   0.867  13.329
33950W        W 1018  31.520  36.057   1.253
33951W        W 1019  33.884  34.005   2.671
33952W        W 1020  34.008   3.830   4.325
33953W        W 1021  19.706  22.101   3.249
33954W        W 1022  37.851  18.686  14.360
33955W        W 1023  34.944  11.773  12.826
33956W        W 1024  26.697  12.264   2.306
33957W        W 1025  15.710  31.936   0.769
33958W        W 1026  43.006  16.666  11.483
33959W        W 1027  31.528  16.601   4.712
33960W        W 1028  43.879  42.427   4.333
33961W        W 1029  23.612   4.740   4.121
33962W        W 1030  10.184  30.482  12.449
33963W        W 1031   5.317  10.791  11.087
33964W        W 1032  27.579  14.759  12.870
33965W        W 1033  18.146  10.314  13.062
33966W        W 1034  41.827  37.564   5.255
33967W        W 1035   7.381   3.368  13.525
33968W        W 1036  16.225  27.518   4.162
33969W        W 1037  37.901  28.988   3.694
33970W        W 1038  20.235  14.803  11.104
33971W        W 1039  38.978  23.489   4.715
33972W        W 1040  35.054  11.134   1.913
33973W        W 1041  15.604  37.018   1.448
33974W        W 1042  22.626  10.174   0.888
33975W        W 1043  11.822   9.786  10.107
33976W        W 1044  23.188   0.270  10.610
33977W        W 1045  20.212  42.799   3.808
33978W        W 1046  12.774  21.666   3.205
33979W        W 1047  34.585  13.184  12.564
33980W        W 1048  27.081   7.408   2.299
33981W        W 1049   6.896  41.853  12.906
33982W        W 1050  11.801  24.551  14.028
33983W        W 1051  13.156  22.535   3.849
33984W        W 1052  41.503   9.701  11.491
33985W        W 1053  24.640  38.929   0.402
33986W        W 1054  33.039  28.531  11.921
33987W        W 1055  37.473  43.984  12.940
33988W        W 1056  17.556  16.303   0.430
33989W        W 1057  41.453  24.630   3.809
33990W        W 1058  38.907  37.338   5.268
33991W        W 1059  16.595  39.971  13.477
33992W        W 1060  15.740  23.551  12.533
33993W        W 1061   9.271   7.863  12.044
33994W        W 1062  28.462  31.586   4.348
33995W        W 1063  13.253   9.660   2.713
33996W        W 1064  28.581  10.864   2.336
33997W        W 1065   5.750  42.461  12.903
33998W        W 1066  34.406  36.438  13.353
33999W        W 1067  17.277  26.094   2.200
34000W        W 1068   1.969  42.298   0.425
34001W        W 1069   9.326  30.443   5.203
34002W        W 1070  37.917  21.678  13.342
34003W        W 1071  31.117  22.609   0.886
34004W        W 1072  21.691  24.554  12.517
34005W        W 1073  13.312  26.622  11.510
34006W        W 1074  31.969  41.930   5.107
34007W        W 1075  30.090   7.387   1.383
34008W        W 1076  17.159  27.174   0.426
34009W        W 1077  24.045  32.545  12.508
34010W        W 1078  13.739  21.175  12.349
34011W        W 1079  32.122   3.849   1.287
34012W        W 1080   8.819   6.215   3.859
34013W        W 1081  34.086  17.289  11.052
34014W        W 1082   1.465  13.321   4.261
34015W        W 1083  21.043  19.656   0.834
34016W        W 1084  29.010  22.243   1.256
34017W        W 1085  19.204   3.837  10.435
34018W        W 1086  25.039  25.526   3.677
34019W        W 1087  11.809  21.203  14.993
34020W        W 1088   1.260  34.080   1.241
34021W        W 1089   6.183  37.889  12.978
34022W        W 1090  38.949  35.075  12.557
34023W        W 1091  14.691  18.103   1.239
34024W        W 1092   9.320  35.010   3.353
34025W        W 1093   2.356  41.858   1.918
34026W        W 1094  36.991  20.063   0.841
34027W        W 1095   7.202  10.766   2.330
34028W        W 1096  31.547  17.078   2.308
34029W        W 1097  11.828  44.329  13.924
34030W        W 1098   6.226   0.321   0.435
34031W        W 1099  21.123  37.924  12.997
34032W        W 1100   2.299  29.517   1.915
34033W        W 1101  34.582  31.118  14.761
34034W        W 1102  39.975  16.700  12.430
34035W        W 1103   7.396  40.491   1.396
34036W        W 1104  32.114  42.508  12.472
34037W        W 1105  37.501  38.405   3.654
34038W        W 1106   4.796  17.163   4.236
34039W        W 1107  44.879  25.513  10.921
34040W        W 1108  11.289  18.271   2.847
34041W        W 1109  22.539  14.098   4.766
34042W        W 1110  44.926  13.622  14.405
34043W        W 1111  40.459  34.538  14.908
34044W        W 1112  42.979  11.631  12.462
34045W        W 1113   1.921  28.558  12.951
34046W        W 1114  32.011  15.786  12.448
34047W        W 1115  19.272  36.469   1.340
34048W        W 1116  21.671   2.444   2.354
34049W        W 1117   4.944  30.069   4.113
34050W        W 1118  13.168   2.468  13.454
34051W        W 1119  43.400  18.616   2.373
34052W        W 1120   1.829  21.129   4.254
34053W        W 1121  16.630  27.510   2.274
34054W        W 1122  12.725  30.442  12.945
34055W        W 1123  15.300  12.735   1.349
34056W        W 1124  37.458  19.626   2.332
34057W        W 1125  32.105  28.021   5.315
34058W        W 1126   6.775  44.404   0.763
34059W        W 1127  22.241  29.619   2.394
34060W        W 1128  35.519  39.426   0.395
34061W        W 1129  26.106  26.108  13.796
34062W        W 1130  41.794  21.114  11.539
34063W        W 1131  10.216  32.950   1.237
34064W        W 1132  18.213   2.724  12.898
34065W        W 1133  28.640  21.526   4.241
34066W        W 1134  10.216  25.486  14.292
34067W        W 1135  39.840   6.724  13.873
34068W        W 1136  21.227  37.005   4.747
34069W        W 1137  10.338   1.436  10.475
34070W        W 1138  31.440   9.703   2.232
34071W        W 1139  28.678  20.047   2.753
34072W        W 1140  31.138  14.665   2.382
34073W        W 1141  38.369  14.159   0.242
34074W        W 1142  39.994   2.811  13.029
34075W        W 1143   8.244  22.705   4.678
34076W        W 1144  34.485   3.723  10.429
34077W        W 1145  44.403  32.563  11.515
34078W        W 1146  26.622  28.930  10.912
34079W        W 1147  25.139  20.229  11.123
34080W        W 1148  21.743   8.688   4.791
34081W        W 1149   0.290  43.313   4.732
34082W        W 1150  39.969  24.671   1.311
34083W        W 1151  20.659  23.217   1.907
34084W        W 1152   1.977  39.940   2.239
34085W        W 1153  19.646   0.765  11.512
34086W        W 1154  32.096   5.711  11.935
34087W        W 1155  25.129   3.918  13.348
34088W        W 1156  18.756  26.092   2.282
34089W        W 1157  26.622  24.176   2.265
34090W        W 1158   9.865  16.610  12.561
34091W        W 1159   5.278  27.465   2.226
34092W        W 1160   3.735  43.457  12.567
34093W        W 1161  22.701  19.055   1.888
34094W        W 1162  38.450   5.416   4.156
34095W        W 1163  17.099  23.532   2.392
34096W        W 1164  35.052  19.163  14.471
34097W        W 1165  31.044   4.864  10.420
34098W        W 1166  44.760  35.002   2.180
34099W        W 1167  31.544  35.944  14.443
34100W        W 1168  44.956   4.330  13.940
34101W        W 1169  40.358  35.877  10.089
34102W        W 1170  21.687  22.118  11.889
34103W        W 1171  28.125   2.879   1.831
34104W        W 1172  33.916  11.664  14.347
34105W        W 1173  25.653  39.030  12.905
34106W        W 1174  40.314  33.913  13.958
34107W        W 1175  25.968  14.177   3.337
34108W        W 1176  43.860  23.024  14.479
34109W        W 1177  15.823  12.286   4.814
34110W        W 1178  28.509  42.348  12.549
34111W        W 1179   5.840  19.762   2.210
34112W        W 1180  26.965  20.671  11.937
34113W        W 1181  39.931   0.461  13.379
34114W        W 1182  41.427  30.942   1.706
34115W        W 1183  32.504  10.766  13.517
34116W        W 1184  26.471  37.347   1.769
34117W        W 1185  27.992  17.692  12.947
34118W        W 1186  32.625  38.359  14.935
34119W        W 1187  30.435  36.566   3.689
34120W        W 1188   5.392  20.607   0.310
34121W        W 1189  21.177  30.039   4.154
34122W        W 1190  26.082  21.645   3.234
34123W        W 1191  39.981  22.528   4.328
34124W        W 1192  13.642  23.194  13.538
34125W        W 1193  18.079   2.898  11.925
34126W        W 1194   3.353  28.082   3.386
34127W        W 1195   4.891   4.795  11.864
34128W        W 1196  29.492  11.271   0.811
34129W        W 1197  24.056  35.889   3.696
34130W        W 1198   4.884  38.442  14.894
34131W        W 1199  16.765   9.818  12.488
34132W        W 1200  34.030  19.670  14.397
34133W        W 1201  24.101  18.748  10.536
34134W        W 1202  37.017  29.068  11.865
34135W        W 1203  15.687  35.974   0.471
34136W        W 1204  30.944  19.573  14.031
34137W        W 1205  33.391  12.704  12.401
34138W        W 1206  43.787  34.559   5.286
34139W        W 1207  26.682  43.916  12.945
34140W        W 1208  30.619   0.945   4.673
34141W        W 1209  19.618   0.306   3.833
34142W        W 1210  18.163  42.976  11.540
34143W        W 1211   0.866  32.614  14.886
34144W        W 1212  20.114   3.804   2.220
34145W        W 1213  35.415  19.053   2.800
34146W        W 1214  16.165  37.350  14.836
34147W        W 1215   5.764  43.804  12.500
34148W        W 1216  28.454  38.017  11.433
34149W        W 1217   8.659   3.377  12.497
34150W        W 1218  42.485  43.437  12.568
34151W        W 1219  26.009  16.288  13.410
34152W        W 1220  11.237  33.931  13.904
34153W        W 1221   5.927  21.024   4.351
34154W        W 1222  28.629  42.336  12.914
34155W        W 1223  12.268  19.571   4.743
34156W        W 1224  35.105   5.382   3.864
34157W        W 1225   9.205   3.877  13.988
34158W        W 1226  16.083  22.230  14.801
34159W        W 1227  32.404   8.400  10.472
34160W        W 1228  34.481  41.306  14.849
34161W        W 1229   8.168  35.868  10.632
34162W        W 1230  18.782  43.418  11.478
34163W        W 1231  40.407  28.466  14.966
34164W        W 1232  26.615  44.299   4.733
34165W        W 1233  31.413  19.654  11.402
34166W        W 1234   6.191  17.695   2.808
34167W        W 1235  17.703  24.604   0.744
34168W        W 1236  43.794  17.158   4.332
34169W        W 1237  24.180  36.898  14.991
34170W        W 1238  43.829  13.268  13.797
34171W        W 1239  15.664  10.661   1.255
34172W        W 1240  41.385  22.668   4.835
34173W        W 1241   1.941  34.523   0.412
34174W        W 1242  37.042  14.730   1.393
34175W        W 1243  25.677  20.655  12.030
34176W        W 1244  36.504  39.483  14.853
34177W        W 1245  21.639  44.983   0.948
34178W        W 1246  29.543  42.344   2.316
34179W        W 1247  37.571  33.120   2.326
34180W        W 1248  35.587   3.422   0.936
34181W        W 1249  16.168  44.788   0.341
34182W        W 1250  41.871  36.845   0.325
34183W        W 1251  43.817  10.776  12.829
34184W        W 1252  43.845  16.582  14.480
34185W        W 1253  14.599   0.954  12.366
34186W        W 1254  35.963  23.598   4.722
34187W        W 1255  42.823  44.865  13.482
34188W        W 1256   8.874  30.646   0.328
34189W        W 1257  20.658  10.761   0.345
34190W        W 1258   7.252   9.207  14.835
34191W        W 1259  14.324  14.150  13.987
34192W        W 1260   6.208  22.631  11.391
34193W        W 1261  23.734  33.976   3.169
34194W        W 1262  36.459   1.307   2.818
34195W        W 1263  28.647  43.791  11.112
34196W        W 1264  23.997  18.617   3.675
34197W        W 1265  24.620  26.069   3.718
34198W        W 1266  19.538  13.845   0.809
34199W        W 1267   1.906  23.096   0.435
34200W        W 1268  34.894  43.396  10.519
34201W        W 1269   8.383  20.661  13.792
34202W        W 1270   9.251   8.252   2.755
34203W        W 1271  24.553  37.395   3.372
34204W        W 1272  39.437  21.110  11.595
34205W        W 1273  40.482   4.813   4.652
34206W        W 1274  36.564  23.735   1.421
34207W        W 1275  33.043   4.782  10.407
34208W        W 1276  29.492  40.469   0.949
34209W        W 1277  13.627  38.058   1.225
34210W        W 1278  36.945  17.072   0.745
34211W        W 1279  33.488  31.546   3.203
34212W        W 1280   8.171  27.596   0.838
34213W        W 1281  18.564  41.537  12.516
34214W        W 1282  10.328  14.328   0.387
34215W        W 1283   1.267  26.979  11.886
34216W        W 1284  23.200  19.250  12.380
34217W        W 1285  30.578  26.611   1.902
34218W        W 1286  41.042   2.812   3.230
34219W        W 1287  44.265  26.702  11.900
34220W        W 1288   4.321  25.655   0.291
34221W        W 1289  19.744  22.159  14.962
34222W        W 1290  34.440  16.116   2.367
34223W        W 1291  38.843  39.460  14.015
34224W        W 1292  16.726   3.392   2.257
34225W        W 1293  37.972  36.009   2.321
34226W        W 1294   6.259  44.410   4.260
34227W        W 1295   5.284  15.135  11.096
34228W        W 1296  36.068  39.521  14.855
34229W        W 1297  16.632  36.534  12.473
34230W        W 1298  10.778  40.034   1.349
34231W        W 1299  42.786  34.612   0.800
34232W        W 1300  29.614  32.524  10.064
34233W        W 1301   9.156  25.619  12.945
34234W        W 1302  44.471  35.999   0.864
34235W        W 1303  36.892  34.951  12.851
34236W        W 1304   6.390  19.040   1.379
34237W        W 1305  34.572   4.701   1.251
34238W        W 1306   0.305  44.814  10.554
34239W        W 1307  33.113  33.573  12.836
34240W        W 1308  41.849  14.797  13.505
34241W        W 1309  13.600  29.100   3.711
34242W        W 1310  11.247  20.668  14.511
34243W        W 1311  26.475  36.037   2.211
34244W        W 1312  40.543  42.865  13.396
34245W        W 1313   8.698  40.493  13.530
34246W        W 1314  10.374  16.232   4.797
34247W        W 1315  19.261  42.841  10.988
34248W        W 1316  38.949  15.750   5.317
34249W        W 1317  26.655  28.959   4.220
34250W        W 1318  30.519  32.463   2.831
34251W        W 1319  41.478  24.022   1.842
34252W        W 1320  41.434   8.308   1.760
34253W        W 1321  38.394   5.931  11.578
34254W        W 1322  34.474   4.915   4.673
34255W        W 1323  35.464   9.677   3.175
34256W        W 1324  36.950  40.028   1.778
34257W        W 1325  18.776  10.664   4.739
34258W        W 1326   3.313   5.428   4.617
34259W        W 1327   6.792  34.464   0.927
34260W        W 1328  27.542  39.842   1.739
34261W        W 1329  31.533  17.250  14.014
34262W        W 1330   1.386  20.589  14.762
34263W        W 1331  12.358   4.859  14.858
34264W        W 1332  26.622   4.217   3.641
34265W        W 1333  16.087  31.502   0.326
34266W        W 1334   9.186  34.613  11.588
34267W        W 1335   4.312  37.465   2.696
34268W        W 1336  29.978  25.672  14.437
34269W        W 1337  24.543   8.771  13.995
34270W        W 1338  23.141  33.025   3.637
34271W        W 1339   2.393  14.104  13.014
34272W        W 1340   0.262  26.007  10.580
34273W        W 1341  31.135   3.300  13.316
34274W        W 1342  35.069  41.426   1.809
34275W        W 1343  13.158  25.211  13.350
34276W        W 1344  13.768   0.490   0.745
34277W        W 1345  39.482  25.699   4.658
34278W        W 1346  40.821  12.133  10.910
34279W        W 1347  34.499  41.039   4.237
34280W        W 1348  24.204  16.130  11.929
34281W        W 1349   3.851  30.559   4.222
34282W        W 1350   1.970  20.567  14.339
34283W        W 1351  34.615   4.351   2.371
34284W        W 1352  10.240  29.440   2.793
34285W        W 1353  14.732  17.279   1.805
34286W        W 1354   3.353  20.587  12.488
34287W        W 1355   1.954  29.000   2.803
34288W        W 1356  40.817  24.654   3.181
34289W        W 1357  39.505  14.722   1.769
34290W        W 1358   3.251  28.977  11.888
34291W        W 1359  42.488  24.133   0.844
34292W        W 1360  16.570  31.035  13.861
34293W        W 1361  17.723  12.325  11.546
34294W        W 1362   6.257  13.709  10.074
34295W        W 1363  24.190  11.234  13.433
34296W        W 1364  34.017  15.197   2.292
34297W        W 1365   1.875  35.984   0.941
34298W        W 1366  36.041  11.832   2.875
34299W        W 1367  37.538  38.532  10.128
34300W        W 1368   6.217  10.204  14.452
34301W        W 1369  36.079  31.525  14.413
34302W        W 1370   3.765  11.277  11.966
34303W        W 1371  39.314  39.968  14.817
34304W        W 1372  14.272  33.103  13.320
34305W        W 1373  33.911  44.793   4.780
34306W        W 1374  20.541  31.641   3.148
34307W        W 1375   3.947   0.836  11.016
34308W        W 1376  40.507  43.347   0.924
34309W        W 1377   2.891  18.721  11.968
34310W        W 1378  23.024  37.487  11.899
34311W        W 1379  17.089  37.460   4.245
34312W        W 1380  13.738  32.566   1.708
34313W        W 1381  41.485  24.697   1.740
34314W        W 1382  18.578  23.096  13.010
34315W        W 1383  44.278  22.226  13.433
34316W        W 1384   6.319  36.543  10.448
34317W        W 1385  24.132  23.072   3.741
34318W        W 1386  26.476   7.387   0.271
34319W        W 1387  16.767  40.460   4.758
34320W        W 1388  29.057  31.973   1.763
34321W        W 1389  10.816  26.574   3.347
34322W        W 1390  30.496  18.290  10.572
34323W        W 1391  42.293  27.568  13.917
34324W        W 1392  29.640   4.439   2.803
34325W        W 1393  43.778  12.139  11.892
34326W        W 1394  40.384  15.323  13.427
34327W        W 1395   4.854  27.178  10.613
34328W        W 1396  33.026   9.250  10.469
34329W        W 1397  29.170  42.838   4.172
34330W        W 1398   3.824  34.977  12.068
34331W        W 1399  27.625  31.953  12.530
34332W        W 1400  30.946  18.705  14.954
34333W        W 1401  25.977  37.398   0.830
34334W        W 1402   7.833  36.557   0.413
34335W        W 1403  41.385  18.120  11.554
34336W        W 1404  44.400  38.875   0.861
34337W        W 1405  28.523  32.124  12.969
34338W        W 1406  18.051  34.561  14.331
34339W        W 1407   5.868  11.202  11.443
34340W        W 1408  17.232  12.637  14.009
34341W        W 1409  14.725   5.711  13.539
34342W        W 1410   7.309  17.653   4.265
34343W        W 1411   7.395   2.329   1.253
34344W        W 1412  26.954  40.384  12.908
34345W        W 1413  14.226  25.537  13.403
34346W        W 1414  44.402  15.808   2.194
34347W        W 1415   3.405  29.562  13.930
34348W        W 1416  42.467  37.381   2.240
34349W        W 1417  34.404  34.026   1.210
34350W        W 1418  37.985   7.674   3.757
34351W        W 1419  36.938  22.013  12.533
34352W        W 1420   0.826   4.834  13.898
34353W        W 1421  44.420  40.370  14.028
34354W        W 1422   4.908  42.321   2.856
34355W        W 1423   5.376  17.619  14.804
34356W        W 1424   9.784  23.623  12.992
34357W        W 1425  11.752  17.680  14.838
34358W        W 1426  17.669   4.422  14.475
34359W        W 1427  25.203  20.691  14.490
34360W        W 1428   2.836  11.182   4.144
34361W        W 1429   1.448   8.255  13.879
34362W        W 1430  12.173  21.703   4.311
34363W        W 1431  42.842  29.465   1.903
34364W        W 1432  16.307  43.391   2.409
34365W        W 1433  18.757  29.659  13.437
34366W        W 1434   2.728  13.830   4.155
34367W        W 1435  27.194  32.394   1.253
34368W        W 1436   8.199   6.256  13.347
34369W        W 1437  11.804  14.161   1.905
34370W        W 1438  33.085  35.954  11.394
34371W        W 1439  33.999  15.741  10.571
34372W        W 1440   6.281  28.495  10.580
34373W        W 1441  16.667  32.140   4.636
34374W        W 1442  35.990  31.993  11.407
34375W        W 1443  28.578   2.965   1.244
34376W        W 1444   3.317  22.215   3.677
34377W        W 1445  18.250  39.895  11.582
34378W        W 1446  17.199   0.899   2.872
34379W        W 1447  30.950   7.256   4.609
34380W        W 1448  27.677   4.941  12.904
34381W        W 1449   6.233  17.151   4.798
34382W        W 1450  33.445  22.181  11.855
34383W        W 1451   7.260   4.716  10.986
34384W        W 1452  41.895  41.334  13.894
34385W        W 1453  16.102  38.399  12.404
34386W        W 1454  10.636  24.560   4.260
34387W        W 1455  35.068  25.089   2.203
34388W        W 1456  29.429   1.380  13.889
34389W        W 1457  15.152  23.726   3.639
34390W        W 1458  17.645  32.109  10.641
34391W        W 1459  38.490  42.891   1.429
34392W        W 1460  19.742   3.801   4.616
34393W        W 1461  36.935  14.619   0.959
34394W        W 1462  15.712   1.350   0.886
34395W        W 1463   7.910  10.834  12.983
34396W        W 1464  25.687  18.633  11.470
34397W        W 1465  33.888   0.826  11.441
34398W        W 1466   6.232  18.135  10.065
34399W        W 1467   6.424  14.723   3.746
34400W        W 1468   8.784   7.704  10.593
34401W        W 1469  18.783   1.806   3.361
34402W        W 1470  13.218  20.580   3.703
34403W        W 1471  16.709  33.436   2.391
34404W        W 1472  10.333   7.247  13.889
34405W        W 1473  20.603   4.861   3.797
34406W        W 1474  31.088  34.902  14.348
34407W        W 1475  14.743  12.765   3.860
34408W        W 1476  40.879  29.629   4.125
34409W        W 1477  14.629  16.646   0.861
34410W        W 1478  11.236   3.445  10.481
34411W        W 1479  36.040  40.439  13.975
34412W        W 1480  35.471  10.700  13.527
34413W        W 1481  41.802   8.242  10.442
34414W        W 1482  17.163  20.538  12.847
34415W        W 1483  25.203  19.575   3.734
34416W        W 1484  37.446  11.724  12.028
34417W        W 1485  33.051  20.635   3.792
34418W        W 1486  23.013   6.749   4.250
34419W        W 1487  26.114  15.151   3.186
34420W        W 1488  31.060  13.183   1.232
34421W        W 1489   9.719  19.252  14.909
34422W        W 1490  18.087  14.776   4.348
34423W        W 1491  40.944  15.647  12.344
34424W        W 1492   6.700  33.882  10.566
34425W        W 1493   2.862  34.575  14.807
34426W        W 1494  21.217  26.478   5.245
34427W        W 1495  16.154  24.614   2.684
34428W        W 1496  33.944  18.625  13.369
34429W        W 1497  10.378   6.221   2.815
34430W        W 1498  18.142  26.099   0.765
34431W        W 1499  44.413  22.677   0.264
34432W        W 1500   2.815  14.597   4.724
34433W        W 1501  38.052  28.524  11.896
34434W        W 1502  14.747  26.068   2.331
34435W        W 1503  10.652   8.329   1.346
34436W        W 1504  39.859   6.743   1.741
34437W        W 1505  35.092  33.568   0.753
34438W        W 1506  32.927   2.319  13.979
34439W        W 1507  15.162  41.433   2.188
34440W        W 1508  20.100   3.367  10.887
34441W        W 1509   3.229  16.273  13.376
34442W        W 1510  15.156  37.038  12.962
34443W        W 1511  24.164  21.512  14.452
34444W        W 1512  12.770  10.864   0.427
34445W        W 1513  28.475  13.642   3.775
34446W        W 1514  20.597  25.137  12.046
34447W        W 1515  24.128  13.129  13.378
34448W        W 1516  44.825  21.693  14.509
34449W        W 1517  35.502  23.560  12.864
34450W        W 1518  14.125   7.749   0.833
34451W        W 1519   5.707   7.679   4.698
34452W        W 1520  28.940  14.827   0.850
34453W        W 1521  36.879  40.475  11.938
34454W        W 1522  34.554   0.930  14.470
34455W        W 1523  15.312   3.272   3.821
34456W        W 1524  24.596  31.931   2.886
34457W        W 1525   2.267   3.858  13.529
34458W        W 1526  36.950  30.520   3.819
34459W        W 1527   2.915  40.539   3.782
34460W        W 1528   6.328  41.929   4.757
34461W        W 1529   4.836  44.380   4.346
34462W        W 1530  18.636  33.968  13.486
34463W        W 1531  13.634  24.085  12.536
34464W        W 1532  43.510   8.271   2.283
34465W        W 1533  30.003  30.426   4.613
34466W        W 1534  38.365   0.916  13.447
34467W        W 1535  44.791   4.430  10.609
34468W        W 1536  33.876  40.799   0.789
34469W        W 1537  14.749  19.630   2.357
34470W        W 1538  33.115   4.287  12.444
34471W        W 1539  11.368  14.127   2.885
34472W        W 1540  33.985  38.821   3.697
34473W        W 1541  25.509  12.729  12.069
34474W        W 1542   0.365  22.648  12.529
34475W        W 1543  22.139  10.380   1.388
34476W        W 1544  15.684   9.176  14.474
34477W        W 1545  16.645  18.262  12.456
34478W        W 1546  30.047   3.423   0.428
34479W        W 1547  29.155  26.049  11.399
34480W        W 1548  22.703  33.115   1.929
34481W        W 1549   6.310  38.426  13.021
34482W        W 1550  38.858  13.181  14.291
34483W        W 1551   3.881   9.253   4.151
34484W        W 1552  14.258  33.394   3.650
34485W        W 1553  18.279  15.743  11.919
34486W        W 1554  23.686  16.715   0.812
34487W        W 1555   9.837  30.998  10.599
34488W        W 1556  32.592  42.285   0.386
34489W        W 1557  16.129   6.385   3.845
34490W        W 1558  39.948   5.774   4.621
34491W        W 1559  43.344   1.808   0.822
34492W        W 1560   5.932  16.797  12.841
34493W        W 1561  24.029  44.301   1.762
34494W        W 1562   0.422   2.960   3.758
34495W        W 1563  13.169  23.218   4.603
34496W        W 1564  25.690  16.084   0.883
34497W        W 1565  43.836  10.666  13.843
34498W        W 1566  32.905  30.025  13.983
34499W        W 1567  41.412  32.894  11.093
34500W        W 1568  40.014  30.551  13.989
34501W        W 1569  17.106  16.159   4.707
34502W        W 1570  35.102  37.881   2.301
34503W        W 1571  33.417  19.266  14.501
34504W        W 1572   8.364  31.008  14.439
34505W        W 1573   9.797  36.946  13.024
34506W        W 1574  14.142  13.145   0.457
34507W        W 1575  40.019   7.200   3.764
34508W        W 1576   0.387  15.707  14.394
34509W        W 1577   5.892  20.725   9.436
34510W        W 1578   7.277  17.150   0.892
34511W        W 1579   6.386  15.673   2.775
34512W        W 1580  43.830  21.185  10.641
34513W        W 1581  38.004   7.237   1.852
34514W        W 1582  34.590   4.913   2.724
34515W        W 1583  36.536   1.773  10.916
34516W        W 1584  14.265   8.228   0.318
34517W        W 1585   2.378  14.186  11.956
34518W        W 1586  24.660  21.253   2.871
34519W        W 1587   6.333   6.919  14.995
34520W        W 1588   1.768  19.758  12.991
34521W        W 1589   7.865  17.722   9.659
34522W        W 1590  11.240   8.846   2.336
34523W        W 1591  32.441  29.041   3.222
34524W        W 1592  13.659   6.788   1.401
34525W        W 1593  41.850   6.781  14.346
34526W        W 1594  37.484  42.489  10.968
34527W        W 1595  35.088  18.597   1.236
34528W        W 1596  39.444   5.922   3.307
34529W        W 1597   3.916   6.834   3.335
34530W        W 1598  44.272  27.092  14.993
34531W        W 1599   7.231  24.549   0.306
34532W        W 1600  42.434  17.765  11.595
34533W        W 1601  10.364  10.704  12.421
34534W        W 1602   2.398  42.318  11.968
34535W        W 1603  44.978  18.058   1.707
34536W        W 1604  36.920  24.633   2.883
34537W        W 1605  14.715  24.685   2.836
34538W        W 1606   2.249  16.242  10.525
34539W        W 1607  11.670   2.778   2.233
34540W        W 1608  19.268   4.213  14.459
34541W        W 1609   6.717  20.767   5.254
34542W        W 1610  24.536  22.615  13.507
34543W        W 1611  24.691  26.138   3.193
34544W        W 1612  13.211  44.758  12.416
34545W        W 1613   5.241  35.929  12.385
34546W        W 1614   7.768  28.575  12.875
34547W        W 1615  11.170  36.362   4.681
34548W        W 1616  21.232  41.041  11.090
34549W        W 1617  13.119  38.074   2.255
34550W        W 1618  26.181   1.931   1.291
34551W        W 1619  12.247  34.945   0.764
34552W        W 1620  32.569  42.439  13.845
34553W        W 1621  20.245  13.724   0.948
34554W        W 1622   6.754  16.278  11.061
34555W        W 1623   5.401  25.662  14.826
34556W        W 1624   9.767  36.033   4.774
34557W        W 1625  43.353  43.340  14.484
34558W        W 1626  11.841  22.739  12.508
34559W        W 1627   4.805  21.261  11.474
34560W        W 1628  23.512  34.034  12.403
34561W        W 1629  14.723  18.238   4.127
34562W        W 1630  44.983  15.695   4.598
34563W        W 1631  24.689  43.995   2.334
34564W        W 1632  28.643  12.277  14.787
34565W        W 1633  13.614  35.536  12.928
34566W        W 1634  22.072  12.725  14.855
34567W        W 1635  18.662   9.241   0.800
34568W        W 1636   0.877  42.355   1.325
34569W        W 1637  22.618   2.760  11.530
34570W        W 1638   3.219   1.851   1.414
34571W        W 1639  23.534  27.008  11.509
34572W        W 1640  26.065  13.662  10.953
34573W        W 1641  38.989   4.730   4.800
34574W        W 1642   9.829  34.421   1.409
34575W        W 1643  41.952   2.442  14.457
34576W        W 1644  12.118  44.265   4.232
34577W        W 1645  44.933  13.740   4.792
34578W        W 1646  31.923  37.552   4.794
34579W        W 1647  16.213  10.178   2.195
34580W        W 1648  31.069   3.889   2.273
34581W        W 1649  32.979  32.624  11.552
34582W        W 1650  34.594  44.363  13.943
34583W        W 1651  38.043  25.473  11.390
34584W        W 1652   0.919  29.665  14.896
34585W        W 1653  14.718  39.462  11.500
34586W        W 1654   0.771  17.661  11.607
34587W        W 1655  15.329   4.928   4.723
34588W        W 1656  19.593  23.194  14.315
34589W        W 1657  15.821  35.548   3.197
34590W        W 1658  20.088   0.275   0.887
34591W        W 1659  11.797  34.558   0.304
34592W        W 1660  23.672   1.295  11.010
34593W        W 1661   7.281  21.234  14.772
34594W        W 1662  10.640  26.060  14.851
34595W        W 1663  40.007   5.197  10.632
34596W        W 1664  13.176  31.086  12.868
34597W        W 1665  43.373   3.310   4.337
34598W        W 1666  15.083  25.657  14.947
34599W        W 1667  27.631  31.915  11.403
34600W        W 1668  17.156  39.831  10.425
34601W        W 1669  33.970  30.150  10.894
34602W        W 1670   4.844   5.853   0.844
34603W        W 1671  44.808  13.754  13.377
34604W        W 1672   7.836  43.370   3.647
34605W        W 1673  15.737  34.887  14.511
34606W        W 1674  12.681  18.687   4.747
34607W        W 1675  13.315  32.968  11.028
34608W        W 1676  42.321  39.340  10.491
34609W        W 1677   3.918  14.115  11.036
34610W        W 1678  31.085  33.393   1.211
34611W        W 1679  21.653  11.353   0.962
34612W        W 1680  36.552  14.333   9.980
34613W        W 1681  38.569  32.621  10.911
34614W        W 1682  20.215   4.811  14.442
34615W        W 1683  43.444  41.455  13.030
34616W        W 1684  41.903  42.944  14.920
34617W        W 1685  11.162  26.100   2.355
34618W        W 1686  18.573   7.396  11.508
34619W        W 1687  15.674  25.102  13.907
34620W        W 1688  29.593  11.859  12.921
34621W        W 1689  27.046  35.400   4.299
34622W        W 1690   0.867   2.464   0.785
34623W        W 1691  16.773  25.149   4.128
34624W        W 1692   2.323   3.342   9.953
34625W        W 1693   6.758  15.160  11.007
34626W        W 1694  30.943  21.125  14.014
34627W        W 1695   8.245  29.663   2.349
34628W        W 1696  25.478  25.046  13.955
34629W        W 1697   8.888  27.026  13.055
34630W        W 1698  36.434  24.182   3.673
34631W        W 1699  39.475  31.474   4.799
34632W        W 1700  20.031  32.997   3.362
34633W        W 1701  17.618  26.183   2.184
34634W        W 1702  17.671  22.053  14.412
34635W        W 1703  31.575   0.814  10.620
34636W        W 1704  18.095  43.794  14.958
34637W        W 1705  32.061  34.462   0.254
34638W        W 1706  43.423   5.743   4.270
34639W        W 1707  38.384  18.774  11.106
34640W        W 1708  41.919  24.048  14.508
34641W        W 1709   7.863   0.859  13.365
34642W        W 1710  34.074  11.650   4.712
34643W        W 1711  24.039  36.960  13.432
34644W        W 1712  20.193  33.893  12.435
34645W        W 1713  23.545  36.499   4.632
34646W        W 1714  11.622   9.777   4.802
34647W        W 1715  17.764  27.549  14.808
34648W        W 1716  30.968  36.410  12.055
34649W        W 1717  39.429  30.939  12.426
34650W        W 1718  19.050  15.312  10.918
34651W        W 1719  10.676  14.330   2.727
34652W        W 1720  22.053  38.985  12.015
34653W        W 1721   5.802  27.658  11.559
34654W        W 1722  32.407  13.842   0.842
34655W        W 1723  36.849  17.564  10.963
34656W        W 1724  16.794   7.260   3.720
34657W        W 1725  21.225  43.447  14.928
34658W        W 1726  20.061  27.940   0.887
34659W        W 1727  36.397  27.098   1.434
34660W        W 1728  31.434   6.296  11.018
34661W        W 1729  29.578   4.389   1.815
34662W        W 1730  30.954  10.143   1.765
34663W        W 1731  30.095  23.193   2.247
34664W        W 1732  11.165   4.840  10.544
34665W        W 1733  19.042  18.583   0.769
34666W        W 1734   6.223  36.926   4.828
34667W        W 1735  30.036   0.348  11.905
34668W        W 1736  33.490   4.298  11.456
34669W        W 1737  27.163  40.880  14.805
34670W        W 1738   6.684  31.440   1.695
34671W        W 1739   0.292  15.159  10.498
34672W        W 1740   3.416  22.241   2.284
34673W        W 1741  41.437  34.579   1.840
34674W        W 1742  20.213  18.179  12.557
34675W        W 1743  23.200  36.991   3.355
34676W        W 1744  33.499  40.949   4.265
34677W        W 1745  38.363   4.764   0.356
34678W        W 1746   9.161  11.749   1.864
34679W        W 1747  25.136   5.436   1.839
34680W        W 1748  33.985  26.607  10.419
34681W        W 1749  39.445  42.844   1.278
34682W        W 1750  13.736  40.029  12.472
34683W        W 1751   2.370  43.931  14.002
34684W        W 1752  18.591   3.948  13.309
34685W        W 1753  28.012  11.221   2.200
34686W        W 1754  30.495  33.078   2.837
34687W        W 1755  10.186  17.621  10.607
34688W        W 1756  18.670   6.820  11.503
34689W        W 1757  26.661   8.342  14.347
34690W        W 1758   4.787  43.835  12.497
34691W        W 1759  44.418  15.653  11.101
34692W        W 1760  22.151  11.842   4.824
34693W        W 1761  39.990  21.023  13.984
34694W        W 1762  27.013  15.689  11.106
34695W        W 1763  13.165   9.224   3.732
34696W        W 1764  17.259   4.319  11.033
34697W        W 1765  39.496   5.803  10.452
34698W        W 1766  24.507  30.914   4.798
34699W        W 1767  11.301  18.627  13.376
34700W        W 1768  14.640  39.343  14.421
34701W        W 1769  10.862  30.418  12.385
34702W        W 1770  16.739  28.972  11.385
34703W        W 1771  25.573  24.507  10.416
34704W        W 1772  40.505  43.365  14.477
34705W        W 1773  27.674  15.110   4.716
34706W        W 1774  24.091  28.117   5.276
34707W        W 1775  35.887  11.843  11.374
34708W        W 1776  21.702  43.891   0.342
34709W        W 1777   2.425   0.247   2.216
34710W        W 1778   0.959  19.638  13.060
34711W        W 1779   4.925  36.050  13.849
34712W        W 1780  28.553   9.824   1.768
34713W        W 1781  44.318   4.875   2.285
34714W        W 1782  37.422   7.703   1.324
34715W        W 1783  14.225  32.420   1.281
34716W        W 1784  31.411  36.372   1.212
34717W        W 1785  19.178  16.784  12.021
34718W        W 1786  20.136  14.822   2.821
34719W        W 1787  13.131  11.686  12.085
34720W        W 1788  27.940  43.466  10.614
34721W        W 1789  25.001  15.800  11.010
34722W        W 1790  43.928   7.287   0.431
34723W        W 1791  14.640  18.592  14.354
34724W        W 1792   7.689  38.963   2.269
34725W        W 1793  11.279  13.295   0.940
34726W        W 1794  16.229  23.710  11.074
34727W        W 1795  25.098  34.901   2.672
34728W        W 1796  19.662  35.503   2.831
34729W        W 1797   8.403  22.610  11.601
34730W        W 1798   1.920  21.206   1.743
34731W        W 1799  39.948  29.574  10.573
34732W        W 1800  27.539  18.158  14.997
34733W        W 1801  44.972  20.179  12.060
34734W        W 1802  21.546  39.896   2.285
34735W        W 1803  21.222  24.034  13.976
34736W        W 1804  35.985  40.825  11.081
34737W        W 1805  36.953  16.766   2.190
34738W        W 1806  20.630  14.649   3.210
34739W        W 1807  30.639  38.016  12.889
34740W        W 1808  22.249  44.806  12.891
34741W        W 1809   4.890  21.712  13.540
34742W        W 1810  18.591  15.699   2.357
34743W        W 1811  28.613  23.174  11.523
34744W        W 1812  37.366   0.753   2.296
34745W        W 1813  42.840  29.480  13.435
34746W        W 1814  27.974  15.141  10.474
34747W        W 1815   9.187  29.013   0.848
34748W        W 1816  21.562  17.285  10.641
34749W        W 1817  31.406  25.489   1.917
34750W        W 1818  43.381   4.444   0.793
34751W        W 1819   4.748   9.176  13.022
34752W        W 1820  40.369  43.391   4.623
34753W        W 1821  44.773   9.300   2.260
34754W        W 1822   4.804  10.300   4.644
34755W        W 1823  40.805   0.452  10.978
34756W        W 1824  26.074   3.798  14.384
34757W        W 1825   9.325  31.104   1.257
34758W        W 1826   4.285  12.317  13.507
34759W        W 1827  41.017  24.529  10.535
34760W        W 1828  26.623   2.466   4.170
34761W        W 1829  26.068  41.849   2.364
34762W        W 1830  40.871  13.680   2.305
34763W        W 1831  24.217  22.560   1.429
34764W        W 1832  43.300  36.489  14.030
34765W        W 1833   5.267  34.072  14.907
34766W        W 1834  39.029  22.518   3.807
34767W        W 1835  18.666  30.422   0.944
34768W        W 1836  34.068  11.240  11.565
34769W        W 1837  31.528   7.886   0.830
34770W        W 1838   4.784  37.381   9.921
34771W        W 1839   5.787   9.202  11.091
34772W        W 1840  29.452  28.573   0.880
34773W        W 1841  27.676   7.393  11.026
34774W        W 1842   6.413  39.376   0.734
34775W        W 1843  35.057  40.902  11.523
34776W        W 1844  42.834  40.425  12.051
34777W        W 1845  11.253  31.016  11.467
34778W        W 1846  26.043  41.472   4.122
34779W        W 1847  14.636  33.415   2.375
34780W        W 1848  37.392  37.882   1.385
34781W        W 1849  15.691  14.637   4.312
34782W        W 1850  32.901  21.557   1.906
34783W        W 1851   0.862  43.924  11.003
34784W        W 1852  32.627   3.744   2.817
34785W        W 1853  26.989  17.307  13.323
34786W        W 1854  18.715  41.879   4.806
34787W        W 1855  13.132  14.656   3.718
34788W        W 1856  32.540  12.751   3.242
34789W        W 1857  39.390  24.048   2.235
34790W        W 1858  43.322  21.739  10.457
34791W        W 1859   8.894  38.352   2.190
34792W        W 1860   9.659  19.170  11.447
34793W        W 1861  10.220  33.514  10.573
34794W        W 1862   5.415  11.250   1.332
34795W        W 1863  22.710  17.609   1.355
34796W        W 1864  27.193  14.143   2.229
34797W        W 1865   4.331  19.655  14.485
34798W        W 1866  12.721   1.940  13.804
34799W        W 1867  43.926  44.351   1.398
34800W        W 1868  39.555  29.490   2.705
34801W        W 1869  23.209  43.441   3.280
34802W        W 1870  19.175  18.101   0.475
34803W        W 1871  20.622  12.172   2.242
34804W        W 1872  34.892   3.751   0.365
34805W        W 1873  15.718  43.419  11.430
34806W        W 1874  33.078  40.018  14.406
34807W        W 1875   6.686  40.053   3.665
34808W        W 1876  20.560   7.376   0.245
34809W        W 1877  34.049   1.933   0.800
34810W        W 1878   4.928  14.812  14.827
34811W        W 1879   1.310  20.666   4.717
34812W        W 1880  11.838   6.680  14.796
34813W        W 1881  28.066  12.183  11.901
34814W        W 1882   0.344  36.918   4.144
34815W        W 1883  43.945  32.940  13.970
34816W        W 1884  14.142  38.495   0.852
34817W        W 1885  20.588  44.788   0.426
34818W        W 1886  29.170  39.537  11.123
34819W        W 1887  10.273  35.497   1.698
34820W        W 1888   0.267  34.489  12.515
34821W        W 1889  30.557  10.181  11.894
34822W        W 1890  23.550  19.718  12.386
34823W        W 1891  42.335  20.268  14.856
34824W        W 1892   7.241  31.938   3.156
34825W        W 1893   8.279  43.440   4.834
34826W        W 1894   6.339  16.604   2.668
34827W        W 1895  32.113   8.661   0.320
34828W        W 1896  15.705  34.583   3.830
34829W        W 1897  24.533   2.808   3.212
34830W        W 1898  33.092   8.702   2.289
34831W        W 1899  30.583   1.406  12.948
34832W        W 1900  11.623   9.755   3.746
34833W        W 1901  43.917  14.280  11.009
34834W        W 1902   3.802   8.392   0.816
34835W        W 1903  31.960  23.162  10.492
34836W        W 1904   4.774   0.778  13.308
34837W        W 1905  42.944  14.179  14.467
34838W        W 1906  18.579   0.879  12.394
34839W        W 1907  25.161  40.379   0.389
34840W        W 1908  41.901  43.475   0.929
34841W        W 1909   4.924  31.971  14.907
34842W        W 1910  33.100   9.182  11.611
34843W        W 1911   7.792   1.266   4.722
34844W        W 1912  17.304  37.447   1.901
34845W        W 1913  18.560   0.827   4.304
34846W        W 1914   4.798  22.216   4.769
34847W        W 1915  28.539  24.126   3.714
34848W        W 1916  30.501  43.866   0.367
34849W        W 1917  38.501  20.663   2.864
34850W        W 1918  22.608  33.917  12.384
34851W        W 1919  38.467  33.583  13.908
34852W        W 1920  33.472  14.142   0.306
34853W        W 1921  28.543  22.008   2.762
34854W        W 1922  13.225  30.036  11.568
34855W        W 1923  13.233  24.187  12.430
34856W        W 1924  44.902  26.567  11.477
34857W        W 1925   0.799  35.515   1.434
34858W        W 1926  18.139   3.743  13.379
34859W        W 1927  28.971   3.278   0.735
34860W        W 1928  36.402   4.805  12.413
34861W        W 1929  23.171  21.737   3.636
34862W        W 1930  32.074  41.844   1.825
34863W        W 1931  30.976   3.850   0.731
34864W        W 1932  28.117  37.999   0.770
34865W        W 1933  24.981  33.927   0.751
34866W        W 1934   4.357  38.844  14.940
34867W        W 1935  29.579  10.694  12.919
34868W        W 1936  17.284  16.733   4.277
34869W        W 1937   5.342   1.907   2.280
34870W        W 1938  13.142  28.962   2.694
34871W        W 1939  35.052   6.353   4.671
34872W        W 1940   5.295  13.150  10.642
34873W        W 1941  42.848  35.882   0.458
34874W        W 1942  39.012   1.350   2.721
34875W        W 1943  17.068  11.658   2.283
34876W        W 1944  15.195  24.080   4.776
34877W        W 1945  28.504  41.317  12.538
34878W        W 1946  34.603  14.212  12.541
34879W        W 1947  19.196  16.649  11.420
34880W        W 1948   7.188  39.399   4.648
34881W        W 1949  10.650  15.634   3.701
34882W        W 1950   5.851   1.916   0.907
34883W        W 1951  35.458   7.766   3.206
34884W        W 1952  10.319   4.211   5.202
34885W        W 1953  16.273   9.689  10.929
34886W        W 1954  33.057  22.136  14.901
34887W        W 1955   8.336  28.562  11.469
34888W        W 1956  22.591  44.309  12.058
34889W        W 1957   1.842  36.424  12.478
34890W        W 1958   5.374  27.008   3.243
34891W        W 1959  44.447  17.103   2.200
34892W        W 1960   9.304  30.547  14.998
34893W        W 1961  20.689  37.362  14.987
34894W        W 1962  33.381   2.917  12.838
34895W        W 1963  23.620   1.441   3.715
34896W        W 1964  44.821   3.400  12.865
34897W        W 1965  26.080  39.510  10.542
34898W        W 1966  17.739  11.834   0.827
34899W        W 1967  22.518  33.449  12.420
34900W        W 1968  35.075  15.601  12.960
34901W        W 1969  16.157   5.207   1.252
34902W        W 1970  12.745  15.750  10.405
34903W        W 1971  14.652  38.905  13.831
34904W        W 1972  32.036  35.109  11.019
34905W        W 1973   0.787  27.633   3.215
34906W        W 1974  27.957  34.891   5.250
34907W        W 1975  27.152  39.479   2.239
34908W        W 1976   6.784  36.964  12.083
34909W        W 1977  36.085  42.829   1.392
34910W        W 1978   8.828  24.584   0.908
34911W        W 1979  29.027  26.190   1.313
34912W        W 1980  33.516  25.545   4.347
34913W        W 1981   1.455   7.310   0.273
34914W        W 1982  42.978  20.623   1.889
34915W        W 1983  27.669  26.612   2.881
34916W        W 1984   3.813  36.471   0.797
34917W        W 1985  29.111  30.530  11.592
34918W        W 1986  14.333   4.449  12.999
34919W        W 1987   0.758  41.504   3.186
34920W        W 1988   3.286  42.481   0.411
34921W        W 1989  17.799   2.967   0.868
34922W        W 1990  22.574  41.980  13.326
34923W        W 1991  26.041  28.122  13.537
34924W        W 1992   6.224  34.564  14.813
34925W        W 1993  27.074  24.050  14.968
34926W        W 1994  39.969  38.041  12.851
34927W        W 1995  23.597  32.508   4.659
34928W        W 1996  28.159  32.030   2.753
34929W        W 1997   1.815  21.216   1.299
34930W        W 1998  27.173  15.307   1.416
34931W        W 1999   6.687   0.906   3.217
34932W        W 2000  22.007   4.398  11.012
34933W        W 2001  39.917  43.463   0.898
34934W        W 2002  15.281  15.090   4.823
34935W        W 2003   6.788   4.712  13.959
34936W        W 2004  19.581  32.512  13.948
34937W        W 2005  40.944  18.233   1.745
34938W        W 2006  44.774  19.061  12.471
34939W        W 2007  44.282  26.478   1.350
34940W        W 2008   0.329   5.719  12.971
34941W        W 2009  25.968  39.949   0.443
34942W        W 2010  19.281  17.560  14.442
34943W        W 2011   5.265   6.902   4.172
34944W        W 2012  11.647  14.264   4.720
34945W        W 2013   9.284   5.919   2.788
34946W        W 2014  12.222   1.391   3.776
34947W        W 2015   8.180   6.894  13.892
34948W        W 2016  24.013   5.839  11.113
34949W        W 2017   7.197  28.160  13.874
34950W        W 2018  24.541  41.987   3.288
34951W        W 2019  39.953  32.464   1.298
34952W        W 2020   7.739   3.227  14.423
34953W        W 2021   7.390  11.203   3.328
34954W        W 2022  42.427  23.169   4.737
34955W        W 2023  21.586  31.572  11.519
34956W        W 2024  23.673  41.366  14.277
34957W        W 2025  22.631  12.219  11.429
34958W        W 2026  30.158  19.615   2.786
34959W        W 2027  24.654  44.809  11.427
34960W        W 2028  24.540  36.348   4.196
34961W        W 2029   5.236   3.303  10.457
34962W        W 2030  34.090  26.468   3.806
34963W        W 2031  29.155  40.439  12.420
34964W        W 2032  25.616  25.173  14.877
34965W        W 2033   3.305  42.422  11.023
34966W        W 2034  38.899  19.091  10.014
34967W        W 2035  13.144  41.527   3.751
34968W        W 2036  30.115  27.613  11.486
34969W        W 2037  31.452  26.093  14.365
34970W        W 2038  15.310  24.576   2.191
34971W        W 2039   2.448  24.703   0.277
34972W        W 2040  39.027  38.458   2.702
34973W        W 2041  36.861  38.844   0.258
34974W        W 2042   6.406  35.436  10.642
34975W        W 2043  27.093  18.672   4.810
34976W        W 2044  31.118   9.702   4.350
34977W        W 2045  17.671  14.294  14.799
34978W        W 2046   3.236  44.953   4.680
34979W        W 2047   3.332  38.382   3.712
34980W        W 2048  25.215  43.958  14.511
34981W        W 2049  35.873  15.727  13.533
34982W        W 2050  10.755  15.705   2.320
34983W        W 2051   2.244  27.985  10.608
34984W        W 2052  36.094   6.239  11.592
34985W        W 2053  36.581  23.580   3.342
34986W        W 2054  23.210   4.407  14.829
34987W        W 2055  25.161  40.391  12.031
34988W        W 2056   6.269   0.482   0.778
34989W        W 2057  33.893  11.252   3.815
34990W        W 2058   1.905   9.883   0.406
34991W        W 2059  26.623  43.461   4.751
34992W        W 2060  22.021  27.587  11.548
34993W        W 2061   4.204   0.897   4.635
34994W        W 2062   4.890  35.405  10.500
34995W        W 2063  39.996  44.802   4.144
34996W        W 2064  22.043  11.799  11.057
34997W        W 2065  22.071  22.663  13.052
34998W        W 2066   1.800  29.022  14.391
34999W        W 2067  10.866  26.051  11.052
35000W        W 2068  19.537   4.882   4.715
35001W        W 2069  34.386  43.873   3.721
35002W        W 2070  31.631  14.275  12.405
35003W        W 2071   9.284   4.744   0.756
35004W        W 2072  25.550  40.352  13.000
35005W        W 2073  30.164  11.650   3.641
35006W        W 2074  36.025  36.398  13.490
35007W        W 2075  43.320  25.136  13.500
35008W        W 2076  12.681  41.872  12.546
35009W        W 2077   0.364   8.688   1.791
35010W        W 2078  11.841  33.424   0.320
35011W        W 2079  15.266  40.968  13.903
35012W        W 2080  21.235  33.446   1.747
35013W        W 2081  29.466  11.665  14.460
35014W        W 2082  33.886  30.086   2.184
35015W        W 2083  15.805  42.899   2.689
35016W        W 2084  21.173  10.320  10.602
35017W        W 2085  25.964  30.633   4.304
35018W        W 2086  25.545  30.036   4.685
35019W        W 2087   8.731  10.703  12.846
35020W        W 2088  19.588  37.015  14.874
35021W        W 2089   2.352  20.239  14.969
35022W        W 2090  18.685  12.617   1.797
35023W        W 2091  10.658  35.064   0.448
35024W        W 2092  38.548  27.043   3.291
35025W        W 2093  22.049   7.236  12.538
35026W        W 2094   2.424   8.388   1.742
35027W        W 2095  30.997   1.914   4.293
35028W        W 2096  10.171  44.384  12.902
35029W        W 2097  30.434  29.119  13.488
35030W        W 2098  11.715  12.289   4.228
35031W        W 2099   8.885  38.568  12.412
35032W        W 2100  22.656   5.341   4.342
35033W        W 2101  31.408  36.054   2.341
35034W        W 2102  39.470  35.596  10.507
35035W        W 2103  40.971  15.232  13.360
35036W        W 2104  33.553   6.794  11.108
35037W        W 2105  28.965  15.138  13.888
35038W        W 2106  37.364  35.414   1.277
35039W        W 2107   6.415  32.107  11.078
35040W        W 2108  21.234  28.166  11.474
35041W        W 2109  34.869  29.505  12.017
35042W        W 2110  26.050  38.945   1.328
35043W        W 2111  41.444   7.380   3.856
35044W        W 2112  33.114  13.655   0.809
35045W        W 2113  41.497  22.083  11.574
35046W        W 2114  12.137  23.135   4.122
35047W        W 2115  25.110   0.857   3.370
35048W        W 2116  36.425   3.381   3.666
35049W        W 2117  19.765   1.452  12.040
35050W        W 2118  41.313  24.033  13.397
35051W        W 2119   4.813  18.152  13.495
35052W        W 2120  28.595  15.319  12.571
35053W        W 2121  33.564   8.791   2.418
35054W        W 2122  32.112   1.328  13.829
35055W        W 2123   2.726  21.038  10.509
35056W        W 2124  36.958   1.453   2.338
35057W        W 2125  38.968   1.387   3.751
35058W        W 2126  23.721  36.050  10.487
35059W        W 2127  13.653  10.661  14.489
35060W        W 2128  33.442  10.346  12.560
35061W        W 2129  22.534  32.032  14.003
35062W        W 2130  18.096  24.055   0.331
35063W        W 2131  16.243  11.842  11.089
35064W        W 2132  24.557   9.814   4.150
35065W        W 2133  24.662  23.201   0.762
35066W        W 2134  20.242   7.377   2.392
35067W        W 2135  12.622  39.319   2.257
35068W        W 2136  36.353  29.033  14.842
35069W        W 2137  31.431  19.611   0.892
35070W        W 2138  15.112  14.130  12.921
35071W        W 2139   2.783  18.167  12.906
35072W        W 2140   5.209  39.862  13.318
35073W        W 2141  23.534  19.236   3.344
35074W        W 2142   1.740  20.736  13.829
35075W        W 2143  29.531  15.822  14.438
35076W        W 2144   2.291   0.389  14.294
35077W        W 2145  13.669  11.301   4.268
35078W        W 2146  36.391  18.617   0.780
35079W        W 2147  33.414  37.502   0.779
35080W        W 2148  14.597  31.086   2.274
35081W        W 2149  22.523  25.034  11.075
35082W        W 2150  34.904  27.973   3.254
35083W        W 2151   6.204  23.685  11.081
35084W        W 2152  30.925  11.160  12.557
35085W        W 2153  34.075  29.474  11.450
35086W        W 2154   5.228  22.654   4.344
35087W        W 2155  25.558  41.427  13.044
35088W        W 2156   2.878  24.076  13.997
35089W        W 2157  26.568   8.274  10.412
35090W        W 2158   6.874  20.212  10.062
35091W        W 2159  24.486  40.947   1.773
35092W        W 2160  37.353  22.521   4.261
35093W        W 2161  37.901  24.110  11.107
35094W        W 2162  36.379  17.567  13.451
35095W        W 2163  19.639   0.899   2.884
35096W        W 2164   4.223  30.494   1.892
35097W        W 2165  41.344   2.823  11.527
35098W        W 2166  23.111  29.621  11.562
35099W        W 2167   4.303  44.378  12.569
35100W        W 2168  16.786  25.076   5.113
35101W        W 2169  41.901  32.550  11.501
35102W        W 2170  35.388  11.314  14.991
35103W        W 2171  12.637  34.997  14.455
35104W        W 2172   0.891  12.231   4.612
35105W        W 2173  34.963  15.180  14.411
35106W        W 2174  15.588   4.333   4.172
35107W        W 2175   4.305  33.066  11.468
35108W        W 2176   9.818  37.439   1.732
35109W        W 2177  27.950  23.223   4.223
35110W        W 2178   1.964   2.423   0.286
35111W        W 2179  15.579  19.139   1.430
35112W        W 2180  44.788  36.516   0.826
35113W        W 2181   8.753  26.667   4.254
35114W        W 2182  16.769  42.481   1.699
35115W        W 2183  41.497  34.903   3.216
35116W        W 2184  28.558  33.602  12.481
35117W        W 2185  33.881   8.285   4.236
35118W        W 2186  42.489  36.466  10.595
35119W        W 2187  33.100  22.689  11.946
35120W        W 2188  27.500   9.345  11.007
35121W        W 2189   6.206  23.079  12.498
35122W        W 2190  44.437  13.259   1.865
35123W        W 2191  11.238  37.393   4.180
35124W        W 2192  29.105   1.265  13.022
35125W        W 2193  25.700  22.212  14.770
35126W        W 2194   2.885  43.936  14.378
35127W        W 2195  44.807   3.894   3.193
35128W        W 2196   2.767  43.510   1.856
35129W        W 2197  11.129   6.887  10.435
35130W        W 2198  29.538  34.920   5.191
35131W        W 2199  16.210  11.270   3.256
35132W        W 2200  16.291  20.162   0.844
35133W        W 2201  27.977  26.592   1.878
35134W        W 2202  36.494   2.444  10.573
35135W        W 2203  15.632  37.535   4.687
35136W        W 2204  10.841  38.343   4.714
35137W        W 2205  31.546  40.979  11.547
35138W        W 2206   9.161  23.619   4.211
35139W        W 2207  24.674  32.102  14.894
35140W        W 2208  19.236  30.075  13.358
35141W        W 2209  24.510  20.101   0.328
35142W        W 2210  31.126  11.770   3.831
35143W        W 2211  39.061   3.381   9.982
35144W        W 2212  30.493  36.438  12.885
35145W        W 2213  38.940  22.998  14.796
35146W        W 2214   6.325  26.519   3.858
35147W        W 2215   3.266  44.003   3.746
35148W        W 2216   7.368   1.315  12.543
35149W        W 2217   1.824  31.984  13.314
35150W        W 2218   0.973  41.406   4.161
35151W        W 2219   9.187   4.945   4.157
35152W        W 2220  36.079  13.129  14.286
35153W        W 2221  44.850   1.875   2.332
35154W        W 2222   6.192  42.959   1.935
35155W        W 2223  36.885   2.741  11.536
35156W        W 2224  22.610  36.467  13.814
35157W        W 2225   8.766  21.619  12.500
35158W        W 2226   5.854   5.249   3.367
35159W        W 2227  22.192  44.420  13.040
35160W        W 2228  30.988  18.104  10.538
35161W        W 2229  33.463   5.241   0.249
35162W        W 2230   3.794  20.117   4.347
35163W        W 2231  28.635  21.107  14.902
35164W        W 2232  32.584   9.855  13.335
35165W        W 2233  21.724  17.652   4.662
35166W        W 2234  14.638  33.504   4.140
35167W        W 2235  35.943   8.879   2.366
35168W        W 2236  30.616   4.873  10.578
35169W        W 2237  33.108  29.030   1.734
35170W        W 2238  32.395  15.581  14.800
35171W        W 2239  20.055  24.185   2.865
35172W        W 2240  19.775   5.694  10.427
35173W        W 2241  29.433  29.574  13.997
35174W        W 2242   5.702  26.592   9.937
35175W        W 2243  12.711  36.384   0.390
35176W        W 2244  14.810  11.274  10.643
35177W        W 2245  27.085  30.992  14.306
35178W        W 2246  33.101  14.103  11.593
35179W        W 2247  23.991  18.592   4.242
35180W        W 2248  35.949  34.038   1.722
35181W        W 2249  21.553  28.558  11.964
35182W        W 2250  22.155  12.624   2.819
35183W        W 2251  26.018  19.647  13.047
35184W        W 2252  42.809  21.729  12.984
35185W        W 2253  44.821  28.633  12.846
35186W        W 2254  42.513   2.852  14.920
35187W        W 2255  40.929  18.214  12.077
35188W        W 2256   7.868  41.534   1.296
35189W        W 2257   1.806  24.709  14.399
35190W        W 2258  18.669  28.630   4.191
35191W        W 2259   3.937  27.522  14.440
35192W        W 2260  14.264  21.256   2.722
35193W        W 2261  20.659   4.278  14.837
35194W        W 2262  19.223  44.363  14.311
35195W        W 2263  14.109  37.924   0.783
35196W        W 2264  42.816  43.474  12.824
35197W        W 2265  42.485  16.234  11.032
35198W        W 2266  34.511  40.541   1.727
35199W        W 2267  42.875  31.612   1.316
35200W        W 2268  23.193  33.553   9.925
35201W        W 2269  34.950  11.176  12.844
35202W        W 2270  40.339   8.896  13.367
35203W        W 2271  29.112   9.668  14.424
35204W        W 2272   7.843  22.533   1.218
35205W        W 2273  10.795  41.841  11.012
35206W        W 2274  39.346  23.105   3.306
35207W        W 2275   3.224  14.333  14.831
35208W        W 2276   7.850  42.016  11.410
35209W        W 2277  10.723  14.712   2.241
35210W        W 2278  36.441  30.485   3.704
35211W        W 2279  27.012  34.065   3.776
35212W        W 2280  16.254   6.376   1.717
35213W        W 2281  14.094   5.801   1.353
35214W        W 2282  40.965  28.989   4.818
35215W        W 2283  41.010  13.708   3.733
35216W        W 2284  31.518  28.185   3.817
35217W        W 2285  21.103  41.912   1.369
35218W        W 2286  29.082  28.612  13.356
35219W        W 2287   4.816  15.200  11.928
35220W        W 2288  40.365  27.642  10.416
35221W        W 2289  44.316  12.729  12.846
35222W        W 2290  37.548   0.970  14.939
35223W        W 2291   8.703  10.221   3.832
35224W        W 2292   2.307  28.562  11.510
35225W        W 2293  12.125  26.000   0.249
35226W        W 2294   9.213  17.137  12.508
35227W        W 2295   6.785  11.251   0.785
35228W        W 2296   2.860  43.396  14.291
35229W        W 2297  13.628  34.397  11.604
35230W        W 2298   8.819  31.524  13.420
35231W        W 2299  23.155  26.664   4.605
35232W        W 2300  40.543   8.757   1.805
35233W        W 2301  38.460  37.082   4.682
35234W        W 2302   9.216   2.301   2.742
35235W        W 2303   1.398  26.518  11.513
35236W        W 2304  31.506  19.694   3.784
35237W        W 2305  10.154  28.493  13.951
35238W        W 2306  24.152  13.768  14.937
35239W        W 2307  44.290  12.644  12.400
35240W        W 2308   2.308  15.786  11.034
35241W        W 2309  22.732  41.886  14.931
35242W        W 2310   4.721  33.383  14.365
35243W        W 2311   8.374  41.843   3.860
35244W        W 2312  27.629  31.483  13.026
35245W        W 2313  42.832  30.048  12.910
35246W        W 2314   5.196  39.515   1.291
35247W        W 2315  32.523  23.230  13.513
35248W        W 2316  37.033  11.835  14.867
35249W        W 2317  18.691   8.266  10.558
35250W        W 2318  31.526  32.043  14.004
35251W        W 2319   5.870  24.525  10.516
35252W        W 2320  23.111  36.454   2.315
35253W        W 2321   5.722  24.021   2.791
35254W        W 2322  31.407   3.300   4.128
35255W        W 2323   6.417  16.118  14.947
35256W        W 2324  24.041  17.682   1.698
35257W        W 2325  31.540  13.796  12.440
35258W        W 2326   1.432  38.925  11.583
35259W        W 2327  39.867  40.825  11.899
35260W        W 2328   6.426  39.823   5.151
35261W        W 2329  36.470  35.426   1.355
35262W        W 2330  44.379  26.113   2.321
35263W        W 2331   4.257  25.624  13.398
35264W        W 2332  30.056  44.909  13.993
35265W        W 2333   3.222  36.009  12.416
35266W        W 2334  35.102  29.074   2.843
35267W        W 2335  37.459  30.569   4.762
35268W        W 2336  35.512  12.738  10.617
35269W        W 2337  11.767  41.948  13.843
35270W        W 2338  24.049  13.710   1.802
35271W        W 2339   0.853   8.742  14.944
35272W        W 2340  41.028   6.363  13.523
35273W        W 2341  34.049  12.755   2.368
35274W        W 2342   5.386  30.951   2.238
35275W        W 2343  23.084  25.144   3.193
35276W        W 2344  28.115  32.117   9.980
35277W        W 2345  37.922   7.825  14.442
35278W        W 2346  41.881   2.287  13.528
35279W        W 2347   8.380  42.449   2.720
35280W        W 2348  33.545   0.952   1.779
35281W        W 2349   4.890  35.358   0.799
35282W        W 2350  43.002  22.159  14.419
35283W        W 2351   3.230   9.677   4.336
35284W        W 2352  32.457  37.869  14.980
35285W        W 2353  26.963  39.046   0.482
35286W        W 2354  35.566  41.420   4.618
35287W        W 2355   3.719  30.587   1.331
35288W        W 2356  10.347  33.459   0.783
35289W        W 2357  17.124   1.240   4.140
35290W        W 2358  16.685  14.662   4.142
35291W        W 2359  34.419   0.861   4.632
35292W        W 2360  20.768  37.939   0.475
35293W        W 2361  15.610  44.287   5.297
35294W        W 2362  25.039  35.061  14.932
35295W        W 2363  11.321  39.924  10.490
35296W        W 2364  39.821  28.563  14.447
35297W        W 2365  17.714  39.977   3.834
35298W        W 2366  29.964  28.589  13.484
35299W        W 2367  13.817  41.538   4.825
35300W        W 2368  13.139  11.350  14.840
35301W        W 2369  31.634  42.321   3.819
35302W        W 2370  25.179  29.063  12.886
35303W        W 2371  29.072  34.531  14.962
35304W        W 2372  11.771  33.043   1.215
35305W        W 2373  29.595  37.369   4.251
35306W        W 2374  24.103  39.944  10.057
35307W        W 2375  22.611   0.779   3.650
35308W        W 2376  31.153  32.500   3.776
35309W        W 2377  32.129   0.300  11.897
35310W        W 2378   8.301  39.930   4.617
35311W        W 2379  43.360  41.821  12.490
35312W        W 2380  23.005  29.643   2.757
35313W        W 2381  21.242  27.677  11.114
35314W        W 2382  12.159  23.013  13.824
35315W        W 2383  17.696  25.029   3.861
35316W        W 2384  31.080  10.213   3.788
35317W        W 2385   9.665  20.233   2.185
35318W        W 2386   1.740  26.957  10.414
35319W        W 2387  31.977  17.196   1.312
35320W        W 2388   4.239  11.152   3.669
35321W        W 2389   7.731   5.722   4.188
35322W        W 2390  40.994  14.607   4.666
35323W        W 2391  22.177  39.833   1.913
35324W        W 2392  41.303  41.867  11.021
35325W        W 2393  12.855  14.592   1.261
35326W        W 2394  12.708  42.896   4.619
35327W        W 2395  41.418   5.281  13.046
35328W        W 2396  44.826  32.413  12.919
35329W        W 2397  18.165  24.157   1.728
35330W        W 2398  35.596  18.223   1.386
35331W        W 2399   1.828  24.050   1.213
35332W        W 2400  44.947  20.036   1.370
35333W        W 2401  21.225  34.536  13.522
35334W        W 2402  40.856  35.868   4.767
35335W        W 2403  15.205  28.484  13.430
35336W        W 2404  23.195  21.534   0.865
35337W        W 2405  19.052  30.464   1.742
35338W        W 2406  23.510  17.180  13.882
35339W        W 2407   3.868   7.671   4.146
35340W        W 2408   9.186   3.349   3.802
35341W        W 2409   4.425  24.553  11.872
35342W        W 2410  14.701  10.739   0.422
35343W        W 2411  13.601  13.747   1.375
35344W        W 2412   6.369  42.950  11.572
35345W        W 2413  42.009   2.763   2.185
35346W        W 2414  29.541  14.110   2.200
35347W        W 2415  29.089  28.134   3.240
35348W        W 2416  37.386  15.298  14.345
35349W        W 2417  17.620  27.634   3.656
35350W        W 2418   4.370  22.157   4.741
35351W        W 2419  15.792   1.299   2.404
35352W        W 2420   5.770  24.499  11.536
35353W        W 2421  29.486  33.088  14.868
35354W        W 2422  18.764   4.442   2.367
35355W        W 2423  26.465  15.778   5.178
35356W        W 2424  29.004  26.565  10.017
35357W        W 2425  22.710   7.721  14.985
35358W        W 2426  34.095  15.754  14.505
35359W        W 2427  36.484  17.801   2.201
35360W        W 2428  37.526   7.832  11.401
35361W        W 2429  26.504  10.871  12.355
35362W        W 2430  17.292  17.785   3.305
35363W        W 2431  24.716   8.332  13.454
35364W        W 2432  31.643  44.771   1.436
35365W        W 2433  10.645   0.972  11.460
35366W        W 2434  28.020   6.327  10.905
35367W        W 2435   7.854  34.119   1.696
35368W        W 2436  42.366   5.766   3.288
35369W        W 2437  13.640  37.036  10.495
35370W        W 2438  43.791  33.497  13.407
35371W        W 2439  29.094  18.728   3.802
35372W        W 2440  25.037  42.847   1.773
35373W        W 2441  35.510   4.362  12.069
35374W        W 2442  36.965   5.363  11.081
35375W        W 2443  16.180   8.287  13.948
35376W        W 2444   6.290  10.783   2.872
35377W        W 2445   2.748  13.159  14.846
35378W        W 2446  42.325  19.123   1.885
35379W        W 2447  25.061   9.662   1.408
35380W        W 2448  27.620  11.705   0.820
35381W        W 2449  42.315  16.248   4.682
35382W        W 2450  36.970  21.733   0.382
35383W        W 2451  37.849  44.381   3.739
35384W        W 2452   6.302  30.144  12.571
35385W        W 2453  40.913   5.912   1.710
35386W        W 2454  22.248   8.705  10.589
35387W        W 2455  14.769  41.001  13.429
35388W        W 2456  13.114  21.596  12.009
35389W        W 2457  17.714  17.801  11.034
35390W        W 2458   1.769  19.735  14.912
35391W        W 2459  26.016   1.418  14.431
35392W        W 2460  13.148  12.124   2.390
35393W        W 2461  29.987  39.052   4.694
35394W        W 2462  27.141  32.111  14.974
35395W        W 2463  13.687  22.147   0.245
35396W        W 2464  28.632  22.105   1.826
35397W        W 2465  12.318  13.767   4.746
35398W        W 2466   0.399  20.143  11.878
35399W        W 2467  39.852   1.959  12.831
35400W        W 2468  28.186  29.601  13.424
35401W        W 2469   3.379  24.210   1.219
35402W        W 2470  39.459  43.465  11.486
35403W        W 2471  21.027   0.424   4.242
35404W        W 2472  26.025  34.983   4.681
35405W        W 2473   1.415  26.032   1.383
35406W        W 2474  15.277  44.373  10.912
35407W        W 2475   7.676  41.866  13.379
35408W        W 2476   1.399   0.865  13.540
35409W        W 2477  37.576  21.623   0.411
35410W        W 2478  20.208  25.107   1.759
35411W        W 2479  25.544   7.378   2.684
35412W        W 2480   9.654  28.060  14.769
35413W        W 2481   9.794  12.221  12.518
35414W        W 2482  36.584  35.006   0.406
35415W        W 2483  39.478  10.138  12.880
35416W        W 2484  25.044  20.076   2.734
35417W        W 2485  10.166  28.649   0.793
35418W        W 2486  16.721   7.765  10.902
35419W        W 2487   1.363   7.417  13.410
35420W        W 2488  28.076  31.986  13.376
35421W        W 2489  40.809   3.444   2.884
35422W        W 2490  30.547  14.207  10.924
35423W        W 2491   9.289   7.326   5.200
35424W        W 2492  36.092  20.173  14.375
35425W        W 2493  10.306   0.259   1.214
35426W        W 2494  21.611  23.658   4.285
35427W        W 2495   7.777  17.762   4.323
35428W        W 2496  38.463  33.387   2.705
35429W        W 2497  35.426  29.606  11.409
35430W        W 2498  24.600  28.515   4.610
35431W        W 2499  12.692   3.788  13.307
35432W        W 2500  30.468  27.630   1.409
35433W        W 2501   1.825  30.492   0.777
35434W        W 2502  14.223  38.955   0.789
35435W        W 2503   9.302   6.703  12.376
35436W        W 2504  12.149   4.390   0.374
35437W        W 2505  32.041  42.979  10.451
35438W        W 2506  11.806   2.320  12.987
35439W        W 2507  17.645  27.552  12.522
35440W        W 2508  28.670  22.652  13.394
35441W        W 2509  38.519   8.222   4.746
35442W        W 2510  21.138   9.261  11.986
35443W        W 2511  24.153  28.077   1.264
35444W        W 2512   1.267   8.188   3.185
35445W        W 2513  23.219  27.942  14.877
35446W        W 2514  17.226  43.305   1.322
35447W        W 2515  29.586   3.774  12.430
35448W        W 2516   3.459  10.362   5.208
35449W        W 2517  35.101   1.862   0.910
35450W        W 2518  18.055  31.614  11.010
35451W        W 2519  42.490  32.545   3.250
35452W        W 2520  37.414  16.252  11.507
35453W        W 2521  35.960  33.874  14.439
35454W        W 2522  30.572  16.179  10.606
35455W        W 2523   3.453  10.358  11.558
35456W        W 2524   5.198  28.942   4.183
35457W        W 2525  23.061  21.171   4.315
35458W        W 2526   9.747   8.222   3.349
35459W        W 2527  31.981  24.700   2.809
35460W        W 2528   6.712  43.306  10.414
35461W        W 2529  37.501   7.183   4.214
35462W        W 2530  31.036   5.922   3.152
35463W        W 2531  37.018  29.003  10.434
35464W        W 2532  17.603  13.231  11.597
35465W        W 2533  25.066  33.496   0.262
35466W        W 2534  39.960  33.609  14.411
35467W        W 2535  36.410  10.215  13.040
35468W        W 2536  26.983   6.346   2.228
35469W        W 2537  26.103  27.066  13.953
35470W        W 2538  43.996   4.290  12.077
35471W        W 2539  15.770  10.716   5.665
35472W        W 2540  39.534  44.935   0.318
35473W        W 2541  33.014   6.678  13.451
35474W        W 2542   9.834   6.337  14.943
35475W        W 2543  26.077  37.910   2.902
35476W        W 2544  44.487  17.224   1.817
35477W        W 2545  17.085  32.530   1.729
35478W        W 2546   7.678  42.379  12.434
35479W        W 2547  43.873   8.257  14.277
35480W        W 2548  38.970  14.272   3.241
35481W        W 2549  15.696  13.615  10.929
35482W        W 2550  34.538  32.602  14.029
35483W        W 2551  43.398  27.597   3.669
35484W        W 2552  11.161  28.545  10.502
35485W        W 2553  23.690  13.768  12.988
35486W        W 2554  15.167  38.831  13.966
35487W        W 2555  12.678  19.039  11.375
35488W        W 2556  33.884   8.326  11.970
35489W        W 2557   1.469  35.099   2.721
35490W        W 2558  34.974  26.018   4.743
35491W        W 2559  20.194  37.441  11.902
35492W        W 2560  12.304  13.316   0.796
35493W        W 2561  11.349   2.396  13.529
35494W        W 2562  41.975  30.117   2.665
35495W        W 2563  20.642  23.110   3.668
35496W        W 2564  28.620   2.462   1.264
35497W        W 2565  39.530  15.685  10.487
35498W        W 2566  19.717   8.162  10.892
35499W        W 2567  41.471  37.385  11.895
35500W        W 2568  12.738  20.222  11.500
35501W        W 2569   3.839   5.388  12.050
35502W        W 2570  34.086  37.016   0.325
35503W        W 2571   5.209  36.409  12.082
35504W        W 2572   4.227  14.333   4.806
35505W        W 2573  42.346   0.781  10.428
35506W        W 2574  18.670  34.874   2.245
35507W        W 2575  38.069   9.383  11.582
35508W        W 2576  41.464  37.345   2.765
35509W        W 2577  16.674  41.924  14.300
35510W        W 2578  41.944   8.314   4.177
35511W        W 2579  17.262  35.392  13.987
35512W        W 2580  30.449   8.865   4.734
35513W        W 2581  21.053  38.913  10.986
35514W        W 2582  10.190  34.376  11.866
35515W        W 2583  37.085  21.026   4.641
35516W        W 2584  35.550  11.351   1.215
35517W        W 2585  39.457  19.602  14.361
35518W        W 2586  27.528   5.276  11.939
35519W        W 2587  36.577  37.540   0.254
35520W        W 2588  36.526  15.204   4.720
35521W        W 2589   1.286   8.744  10.436
35522W        W 2590  44.971  18.711  10.995
35523W        W 2591  28.583  23.724  14.435
35524W        W 2592  15.627  41.516  10.537
35525W        W 2593  21.518  37.579   2.848
35526W        W 2594  19.256  43.326   0.339
35527W        W 2595  27.095   5.334   4.657
35528W        W 2596   8.219  17.165  11.099
35529W        W 2597   0.963  33.624   0.965
35530W        W 2598  16.131  24.996   5.207
35531W        W 2599   6.395  20.141   1.256
35532W        W 2600  23.536  21.139  11.470
35533W        W 2601  30.917  35.418  12.513
35534W        W 2602  17.794  19.564   5.126
35535W        W 2603  28.445   3.764  12.568
35536W        W 2604   2.738  18.274   1.273
35537W        W 2605  17.167  42.492  12.919
35538W        W 2606  12.250  25.971   2.691
35539W        W 2607  30.423  20.232  14.842
35540W        W 2608   4.240  40.309  12.896
35541W        W 2609   4.824   2.853   1.330
35542W        W 2610  39.820   4.734   3.374
35543W        W 2611   3.846   9.648  12.931
35544W        W 2612   7.737  22.027   1.875
35545W        W 2613  38.507  14.098   3.176
35546W        W 2614  44.466   2.891  10.451
35547W        W 2615  25.997   0.257   0.317
35548W        W 2616   1.423  44.764   4.194
35549W        W 2617   0.881   2.738  10.503
35550W        W 2618  24.154  42.861   4.735
35551W        W 2619  20.652  38.366  12.450
35552W        W 2620  39.831   0.484   0.838
35553W        W 2621  23.624  20.186   4.160
35554W        W 2622  34.980  33.904   3.358
35555W        W 2623  32.545  26.547  11.497
35556W        W 2624  18.756  22.156   3.665
35557W        W 2625   3.867  18.621   2.223
35558W        W 2626  17.743  14.746  13.988
35559W        W 2627  40.032  20.119   3.187
35560W        W 2628   4.935  40.035   1.863
35561W        W 2629  44.807  23.153   0.478
35562W        W 2630  11.272  22.562  12.485
35563W        W 2631  30.500  20.202   2.817
35564W        W 2632  13.687  20.654   4.781
35565W        W 2633  41.921  25.154   0.283
35566W        W 2634  11.673   6.206  10.630
35567W        W 2635  20.714  26.159   3.339
35568W        W 2636  14.593  23.602   2.223
35569W        W 2637  23.198  15.263  11.886
35570W        W 2638  36.580   1.805   1.915
35571W        W 2639   2.364  41.345  12.366
35572W        W 2640  44.855  33.940  13.912
35573W        W 2641  23.719  39.555   0.331
35574W        W 2642  42.303  37.557   0.952
35575W        W 2643  44.848  28.451  14.286
35576W        W 2644  26.500  17.177  13.473
35577W        W 2645  26.517   7.281  13.044
35578W        W 2646  41.980   1.411  11.556
35579W        W 2647  26.583  32.096  12.452
35580W        W 2648  15.219  20.688   0.953
35581W        W 2649   5.342  27.999  11.974
35582W        W 2650  29.448  32.993  14.489
35583W        W 2651  24.187  18.212  13.412
35584W        W 2652  26.133  19.171  12.825
35585W        W 2653  41.933  34.518  10.003
35586W        W 2654  37.860  26.092   1.440
35587W        W 2655  37.491  21.214  11.103
35588W        W 2656  31.152  35.470  11.082
35589W        W 2657  28.486  34.398  12.395
35590W        W 2658  38.514   3.273  14.365
35591W        W 2659  40.510  38.897   2.257
35592W        W 2660  27.116  39.400  13.371
35593W        W 2661  18.142   3.245  12.944
35594W        W 2662  20.056  31.912  10.473
35595W        W 2663  40.003  35.042   1.264
35596W        W 2664  28.660  21.062  13.043
35597W        W 2665   2.228   6.234   0.268
35598W        W 2666  33.987   9.170  13.021
35599W        W 2667  35.411  12.666   1.780
35600W        W 2668  16.669  11.327  11.525
35601W        W 2669  41.314  40.488   3.151
35602W        W 2670  23.587  25.078  12.537
35603W        W 2671  19.228   6.743   2.229
35604W        W 2672  44.920  15.190  10.887
35605W        W 2673   1.754  34.566   1.714
35606W        W 2674  41.455  14.709   0.417
35607W        W 2675   2.361  17.290   3.161
35608W        W 2676  37.471  10.816  12.843
35609W        W 2677  32.495  39.914   3.385
35610W        W 2678  17.651  16.265   3.288
35611W        W 2679  33.394  25.563  13.451
35612W        W 2680  16.300  30.107  11.067
35613W        W 2681  38.033  10.367   2.802
35614W        W 2682  15.670  40.386   0.369
35615W        W 2683  32.891   1.975   1.335
35616W        W 2684  30.997  29.661  14.842
35617W        W 2685  44.864  40.505   0.883
35618W        W 2686  34.592  35.380   1.724
35619W        W 2687  36.874  11.173  14.998
35620W        W 2688  24.033  16.787   4.681
35621W        W 2689  41.500  28.578  10.631
35622W        W 2690  17.191  22.744  11.472
35623W        W 2691  30.579  39.985   1.914
35624W        W 2692   8.714  33.900   4.832
35625W        W 2693  10.211  25.559  12.536
35626W        W 2694  12.332  25.131   1.892
35627W        W 2695  33.511  13.107  12.557
35628W        W 2696  42.449  23.053   2.357
35629W        W 2697  41.801  24.499  12.942
35630W        W 2698  40.500  11.727  12.430
35631W        W 2699  21.627  22.130   0.801
35632W        W 2700   0.262  29.640   2.352
35633W        W 2701  21.722  15.815   2.902
35634W        W 2702  37.876  18.647   3.750
35635W        W 2703  16.153  24.648  13.463
35636W        W 2704   1.928  10.773   3.224
35637W        W 2705  37.058  23.593  12.843
35638W        W 2706  10.258  38.463   1.867
35639W        W 2707  31.975  21.240   4.180
35640W        W 2708   5.832   2.948  10.984
35641W        W 2709  27.480   3.890  11.521
35642W        W 2710  22.584  21.725   4.201
35643W        W 2711   9.168  40.037   4.694
35644W        W 2712  11.720  37.417  12.938
35645W        W 2713  41.456  37.436   1.807
35646W        W 2714   9.685  29.663   1.721
35647W        W 2715   0.352  18.281  12.907
35648W        W 2716   7.903   8.171  11.989
35649W        W 2717  14.096  15.240  12.478
35650W        W 2718  31.407  42.500   3.219
35651W        W 2719  27.665   8.721   3.154
35652W        W 2720  23.718  38.379   2.873
35653W        W 2721  31.620  14.248   0.747
35654W        W 2722  28.026  13.808   2.878
35655W        W 2723  38.926   2.816   4.717
35656W        W 2724  11.634  43.486  12.969
35657W        W 2725  44.965  28.123   0.831
35658W        W 2726   4.711  38.929   3.780
35659W        W 2727  14.764  12.275   1.255
35660W        W 2728  35.945  39.513  13.919
35661W        W 2729  31.913  33.931  14.954
35662W        W 2730  30.991  23.238  11.962
35663W        W 2731  40.054  17.246   1.252
35664W        W 2732  31.144   7.211  14.844
35665W        W 2733  11.735  17.683   2.823
35666W        W 2734  20.597  29.499   2.411
35667W        W 2735   7.848  42.478   0.265
35668W        W 2736  19.270  29.970   0.745
35669W        W 2737   6.756   8.256  14.766
35670W        W 2738  10.169  34.997  12.559
35671W        W 2739   5.850  38.389  12.474
35672W        W 2740  36.484   3.343   3.277
35673W        W 2741  28.542  20.175  12.859
35674W        W 2742   5.353  28.435  13.021
35675W        W 2743  38.057  30.550   5.306
35676W        W 2744  31.471   5.910  14.888
35677W        W 2745  37.437  20.571   0.373
35678W        W 2746  38.349  35.854   3.307
35679W        W 2747  31.500  18.170   1.850
35680W        W 2748  29.029   1.885  11.558
35681W        W 2749  25.583  28.622  13.334
35682W        W 2750  13.176  15.626  12.061
35683W        W 2751   5.906   4.813  14.859
35684W        W 2752  12.619   1.386  10.131
35685W        W 2753   6.793  15.686  14.382
35686W        W 2754  11.282  18.191  10.963
35687W        W 2755  27.574  36.930   1.372
35688W        W 2756  25.467  12.855   0.937
35689W        W 2757   5.932  24.185  10.482
35690W        W 2758  20.637  11.722   2.798
35691W        W 2759  35.087  17.262  13.534
35692W        W 2760  26.482  18.097  10.046
35693W        W 2761  23.113  34.583   3.154
35694W        W 2762  36.048  36.364   1.740
35695W        W 2763  24.076  39.419  10.072
35696W        W 2764  33.926  24.595   0.287
35697W        W 2765  37.909  14.707   4.725
35698W        W 2766  23.701  11.341   2.325
35699W        W 2767   8.865   8.664  13.027
35700W        W 2768   9.857  42.994  14.961
35701W        W 2769  41.808  40.441   1.417
35702W        W 2770   3.826   7.259   0.813
35703W        W 2771  38.024  22.590  12.978
35704W        W 2772  17.692  17.587   0.958
35705W        W 2773  10.214  10.788   1.740
35706W        W 2774  34.102   5.753  13.543
35707W        W 2775  13.243  15.799   1.388
35708W        W 2776  33.540  17.651  11.492
35709W        W 2777  13.703   7.666  10.889
35710W        W 2778  11.335   5.221  13.960
35711W        W 2779  30.621  31.427  14.291
35712W        W 2780  40.830  10.226  13.310
35713W        W 2781  25.645  41.317   0.818
35714W        W 2782  11.272  16.305  14.969
35715W        W 2783  10.758  19.109   3.266
35716W        W 2784   5.228  31.559  12.862
35717W        W 2785  44.478  14.614  13.798
35718W        W 2786  39.461  21.696  14.454
35719W        W 2787  19.702  19.544  10.581
35720W        W 2788  28.667  35.885   2.256
35721W        W 2789   8.875  17.680   1.254
35722W        W 2790   9.186  39.995  14.868
35723W        W 2791  23.197   8.829   3.299
35724W        W 2792  32.604  29.560   0.852
35725W        W 2793  19.619  32.917  10.637
35726W        W 2794  42.314  11.192   1.729
35727W        W 2795  42.354   2.438   0.747
35728W        W 2796  37.016  14.614  14.843
35729W        W 2797  36.355  42.816   2.702
35730W        W 2798  34.023  34.371  10.424
35731W        W 2799   8.400  23.029  12.828
35732W        W 2800  25.704  36.878   2.718
35733W        W 2801  20.136   5.384   0.864
35734W        W 2802  17.764   7.415  14.507
35735W        W 2803  23.708  30.150  13.327
35736W        W 2804  28.172  14.632  10.620
35737W        W 2805  22.730  19.728   1.765
35738W        W 2806   5.752  25.190  12.380
35739W        W 2807  31.512  39.481  14.889
35740W        W 2808  17.601  33.060  11.052
35741W        W 2809  24.229  12.654   1.324
35742W        W 2810  38.333  42.033  11.099
35743W        W 2811  38.068  12.259   1.397
35744W        W 2812  29.051  38.833   1.877
35745W        W 2813  20.583  44.412   4.836
35746W        W 2814  14.628  32.926  11.082
35747W        W 2815  17.568  43.804   1.262
35748W        W 2816  10.716  22.558  11.372
35749W        W 2817  16.610   7.822   4.623
35750W        W 2818  28.175  30.630   3.325
35751W        W 2819  32.600   8.845   1.329
35752W        W 2820  18.756  20.687   1.397
35753W        W 2821  11.246  38.916   2.403
35754W        W 2822  30.951  32.583   2.321
35755W        W 2823   9.209  28.563  12.877
35756W        W 2824  30.097  20.631  12.380
35757W        W 2825  30.423  19.186   4.211
35758W        W 2826  21.598  38.520   5.802
35759W        W 2827  42.959  14.325  10.985
35760W        W 2828   2.735   7.325  10.591
35761W        W 2829  37.087  38.838   1.700
35762W        W 2830  29.554  12.223  12.474
35763W        W 2831  25.089  32.471  13.413
35764W        W 2832  37.439  20.042   5.083
35765W        W 2833  18.635  11.304   4.200
35766W        W 2834  41.459  31.527  13.511
35767W        W 2835   1.787   7.417  13.988
35768W        W 2836  17.130  14.810   4.312
35769W        W 2837   7.706  22.680   3.326
35770W        W 2838  26.491  42.782  11.468
35771W        W 2839   6.724   8.262  11.393
35772W        W 2840   7.777  38.395  12.854
35773W        W 2841  35.918  21.536   1.932
35774W        W 2842  42.778  13.106  12.849
35775W        W 2843  17.235  34.573   2.278
35776W        W 2844  42.827  37.889  12.430
35777W        W 2845  23.616  38.387  14.953
35778W        W 2846  26.521  25.558   1.294
35779W        W 2847  12.630  33.040   0.258
35780W        W 2848  10.324  17.751   2.239
35781W        W 2849  39.512  21.028   1.925
35782W        W 2850  10.749  11.127  13.323
35783W        W 2851  24.016  30.654   2.665
35784W        W 2852  20.599  38.558   2.252
35785W        W 2853   6.676  18.177  10.964
35786W        W 2854  28.672  38.821   1.420
35787W        W 2855   9.282  32.620  12.485
35788W        W 2856  21.116  17.077   2.408
35789W        W 2857  31.938  26.603  11.449
35790W        W 2858   0.253  26.151   2.736
35791W        W 2859  25.588  25.685   2.224
35792W        W 2860  10.239   3.828   0.903
35793W        W 2861  23.072  34.031   1.842
35794W        W 2862  30.145  24.059  10.949
35795W        W 2863  35.949  41.432  10.888
35796W        W 2864  19.736  22.671   1.818
35797W        W 2865  12.719  34.003   4.353
35798W        W 2866  20.032   7.804   1.923
35799W        W 2867  33.617  33.067  14.321
35800W        W 2868   8.870   1.238   0.778
35801W        W 2869  33.111  21.186  14.836
35802W        W 2870  25.552  12.686  13.831
35803W        W 2871   1.948  19.613  13.453
35804W        W 2872  33.006  42.344   3.250
35805W        W 2873   8.225  21.743  13.396
35806W        W 2874  29.100   4.731   0.287
35807W        W 2875  17.104  17.727  13.898
35808W        W 2876  39.433  42.496   0.381
35809W        W 2877  20.731  23.209  11.536
35810W        W 2878  22.640  39.503   1.818
35811W        W 2879  34.949  13.755  11.601
35812W        W 2880  16.613  14.673  13.835
35813W        W 2881  44.375   2.905  10.941
35814W        W 2882   1.329   9.829   4.334
35815W        W 2883  20.671  43.343   0.744
35816W        W 2884  38.451   2.249   3.281
35817W        W 2885  41.033   4.936   2.397
35818W        W 2886   7.279   9.322   4.204
35819W        W 2887   0.322  25.031  11.857
35820W        W 2888  41.529  29.086  13.502
35821W        W 2889  22.056   9.699  14.347
35822W        W 2890  15.132  11.235   4.795
35823W        W 2891  14.607  44.917  14.310
35824W        W 2892   1.745   5.345  13.881
35825W        W 2893  16.151  39.446  12.051
35826W        W 2894  16.761  11.739  10.991
35827W        W 2895  14.250  34.986   1.409
35828W        W 2896   6.770  24.203   2.268
35829W        W 2897   8.757   4.204   0.255
35830W        W 2898  32.104  39.905  10.435
35831W        W 2899  32.030   8.385   3.852
35832W        W 2900  27.546   1.860  10.531
35833W        W 2901  26.633  21.674   2.386
35834W        W 2902  27.674  16.224   2.362
35835W        W 2903  36.076  14.100  14.996
35836W        W 2904  29.646  38.035   0.381
35837W        W 2905   2.301  12.832   0.388
35838W        W 2906  37.881  26.065  13.819
35839W        W 2907   0.415   4.224   4.744
35840W        W 2908  23.684   2.826  12.884
35841W        W 2909  36.917  11.268  10.916
35842W        W 2910   6.757  11.211   3.784
35843W        W 2911  29.167  14.598  14.963
35844W        W 2912  18.225  36.976   4.813
35845W        W 2913  24.016  41.361   2.288
35846W        W 2914  27.529  44.989  14.001
35847W        W 2915  27.528  24.557   1.396
35848W        W 2916  12.177  30.088  13.917
35849W        W 2917  15.774  19.752  13.870
35850W        W 2918  22.088   6.840  14.357
35851W        W 2919  39.903  33.546   2.291
35852W        W 2920  33.466   3.762   0.310
35853W        W 2921  39.810  43.389   4.785
35854W        W 2922  39.064  39.820  11.004
35855W        W 2923  15.669  38.505   4.171
35856W        W 2924  22.203  19.087  12.527
35857W        W 2925  10.218  37.973   3.285
35858W        W 2926  29.065  39.464  13.310
35859W        W 2927  24.076  28.639   2.248
35860W        W 2928  21.659  32.932  13.894
35861W        W 2929  23.124  34.386  12.359
35862W        W 2930  44.260  41.023  10.932
35863W        W 2931  18.129  33.073  11.508
35864W        W 2932  17.189  12.360  11.046
35865W        W 2933  19.209   9.743  13.431
35866W        W 2934  39.330  14.713   2.823
35867W        W 2935  10.161  34.933   3.300
35868W        W 2936  14.142   1.422  14.299
35869W        W 2937  35.436   9.332   2.228
35870W        W 2938   4.257  12.840  12.905
35871W        W 2939  39.539   6.830  10.625
35872W        W 2940  31.916   0.448  14.788
35873W        W 2941  21.732  27.680   4.802
35874W        W 2942  16.789  27.181   4.181
35875W        W 2943  23.173  23.041   0.812
35876W        W 2944  14.600  17.602   3.263
35877W        W 2945  16.213   7.740  11.006
35878W        W 2946  12.198   1.374  10.552
35879W        W 2947  29.051  39.988  12.978
35880W        W 2948  14.654  18.577  10.474
35881W        W 2949  43.450  40.447   3.812
35882W        W 2950  10.805   9.795   2.810
35883W        W 2951   1.438  12.317   1.762
35884W        W 2952  37.882  25.963   0.247
35885W        W 2953  31.027  17.675   4.149
35886W        W 2954  27.164  19.716   3.336
35887W        W 2955  35.072  19.101  12.455
35888W        W 2956  42.480  20.141  13.904
35889W        W 2957  32.049   7.731  14.418
35890W        W 2958  35.023  38.980  12.912
35891W        W 2959  33.465  41.908   4.348
35892W        W 2960  14.754   9.673   2.242
35893W        W 2961  44.470  38.990  10.912
35894W        W 2962  17.766   7.373   0.799
35895W        W 2963  19.105  19.698   5.267
35896W        W 2964   0.882  27.987   2.711
35897W        W 2965  21.745  23.096   0.854
35898W        W 2966  38.363  28.601   2.300
35899W        W 2967  16.783  27.563  13.987
35900W        W 2968   5.320  10.250   2.859
35901W        W 2969  13.659   6.909  12.922
35902W        W 2970  35.601   2.289   1.882
35903W        W 2971  39.396  44.844   1.841
35904W        W 2972  12.294  34.078   4.683
35905W        W 2973  34.928  42.026   2.728
35906W        W 2974  20.216  14.243   0.372
35907W        W 2975   1.295  32.093   4.633
35908W        W 2976   0.854  16.766   0.357
35909W        W 2977   5.258  23.044   1.879
35910W        W 2978  13.711  44.401   4.713
35911W        W 2979   2.816  42.996   3.854
35912W        W 2980   3.935  41.485   1.306
35913W        W 2981   9.717  38.943  12.046
35914W        W 2982   7.899  30.024  12.960
35915W        W 2983  14.634  34.446  10.069
35916W        W 2984  35.943  30.961   4.804
35917W        W 2985  20.713   7.836  14.865
35918W        W 2986  43.017  35.036  11.868
35919W        W 2987  40.847   1.886   0.743
35920W        W 2988  27.454  23.026   4.838
35921W        W 2989  43.854  11.740   0.851
35922W        W 2990  31.071  43.293  11.963
35923W        W 2991  12.141  21.564  13.051
35924W        W 2992  30.603  36.541   0.963
35925W        W 2993  22.234  18.108   0.476
35926W        W 2994  33.485  19.668  14.989
35927W        W 2995  44.333  25.022  12.576
35928W        W 2996  29.985  41.334   4.736
35929W        W 2997   9.226  15.093  13.864
35930W        W 2998  37.973  40.447   3.668
35931W        W 2999   5.851  15.710   3.157
35932W        W 3000  32.524   5.888  12.465
35933W        W 3001  13.809  17.184   2.766
35934W        W 3002  12.841  13.804  12.893
35935W        W 3003  25.542  25.094   4.838
35936W        W 3004  36.386  18.613   1.743
35937W        W 3005  39.982  15.244  12.070
35938W        W 3006  15.730  39.512   3.740
35939W        W 3007  35.865  30.519  14.976
35940W        W 3008   3.324  30.942  10.965
35941W        W 3009  39.865  25.051   1.388
35942W        W 3010  19.590  21.170  11.587
35943W        W 3011   1.434   8.881   3.789
35944W        W 3012   8.825  15.676   0.781
35945W        W 3013   6.690  22.734   2.853
35946W        W 3014  20.037   2.864   0.956
35947W        W 3015   8.277   2.759   4.711
35948W        W 3016   7.777  12.787   9.994
35949W        W 3017  10.353  19.154  11.941
35950W        W 3018   3.812  14.105  12.422
35951W        W 3019  25.705   5.205  13.365
35952W        W 3020  38.555  12.800   0.264
35953W        W 3021  18.290  42.937  12.080
35954W        W 3022  19.237  11.771  14.310
35955W        W 3023   8.365  12.145  11.383
35956W        W 3024   0.386   1.843   3.271
35957W        W 3025  18.712  22.620   3.318
35958W        W 3026  39.330  36.370   4.699
35959W        W 3027  29.654   0.316  13.921
35960W        W 3028  22.104  30.631  14.470
35961W        W 3029   8.243  19.062  14.468
35962W        W 3030  21.204  22.136  12.513
35963W        W 3031  28.028   7.797   0.310
35964W        W 3032  13.805  22.603  10.506
35965W        W 3033  23.529  12.792   3.149
35966W        W 3034  41.511  18.780   2.399
35967W        W 3035  25.710  36.935  12.382
35968W        W 3036  33.492  15.232   2.330
35969W        W 3037  34.936  40.372   3.361
35970W        W 3038  41.521  28.932  12.501
35971W        W 3039  33.127  33.129  10.456
35972W        W 3040  22.155   6.270   2.202
35973W        W 3041  31.980  24.175   0.430
35974W        W 3042  40.908  43.000   3.809
35975W        W 3043   1.314  43.334  10.626
35976W        W 3044   1.899  42.521  12.985
35977W        W 3045   2.867   3.835  11.938
35978W        W 3046  21.635   3.813  11.597
35979W        W 3047   8.792  43.426  12.023
35980W        W 3048  13.644  24.195  14.346
35981W        W 3049  39.528   6.390  13.797
35982W        W 3050  22.678  42.984   1.419
35983W        W 3051  27.629  22.500   0.269
35984W        W 3052  35.937  36.024   2.185
35985W        W 3053  27.533   0.853  12.365
35986W        W 3054  35.527  29.940   1.696
35987W        W 3055   1.904   5.435   3.188
35988W        W 3056  15.127  10.832   2.749
35989W        W 3057  11.192  30.142  10.917
35990W        W 3058   4.243   8.825   0.894
35991W        W 3059  17.578  44.899  14.315
35992W        W 3060  16.573  40.952  10.507
35993W        W 3061   5.353  29.518  12.892
35994W        W 3062  32.478  31.043  12.863
35995W        W 3063   9.813   0.302   2.413
35996W        W 3064  13.244  39.352  14.017
35997W        W 3065  32.027   6.706  14.777
35998W        W 3066  24.021  21.097   3.232
35999W        W 3067  16.118  10.752   3.661
36000W        W 3068  19.249  41.328   0.859
36001W        W 3069  34.381   4.361  10.645
36002W        W 3070  36.849  17.679  12.412
36003W        W 3071   5.769  20.143   3.339
36004W        W 3072  22.028  23.535  12.574
36005W        W 3073  43.879   4.428   0.734
36006W        W 3074  39.836  42.414   2.811
36007W        W 3075  39.967  43.466   1.436
36008W        W 3076  37.559  29.940   0.892
36009W        W 3077  25.514  12.633   3.337
36010W        W 3078  28.520  15.659  13.055
36011W        W 3079   8.890  30.950  10.490
36012W        W 3080  38.492   8.305  13.963
36013W        W 3081  16.681  22.578   1.425
36014W        W 3082  41.382  21.262  12.347
36015W        W 3083  15.236  31.900   0.740
36016W        W 3084  12.226  34.449  13.024
36017W        W 3085  30.072  16.191   3.170
36018W        W 3086  34.026  35.073   0.318
36019W        W 3087  43.994  30.621  11.024
36020W        W 3088  39.818   8.352   1.889
36021W        W 3089  10.643   6.910   3.646
36022W        W 3090  17.634  37.464   2.718
36023W        W 3091  28.122   9.350  11.923
36024W        W 3092  34.466  23.586  13.505
36025W        W 3093  13.640  44.812   4.341
36026W        W 3094   2.931  17.142  14.781
36027W        W 3095  41.331  34.921  10.506
36028W        W 3096  37.867   9.330  13.404
36029W        W 3097  37.520  26.100   3.323
36030W        W 3098   3.436  18.211  12.907
36031W        W 3099  28.186  30.578  13.871
36032W        W 3100   6.785  12.360  14.511
36033W        W 3101  25.175  44.840  14.789
36034W        W 3102   5.223  17.647   3.275
36035W        W 3103  34.433  40.021   2.260
36036W        W 3104  18.202   8.260  13.895
36037W        W 3105  44.503  23.984  10.532
36038W        W 3106  32.052   1.340   2.310
36039W        W 3107  21.741   2.929   1.432
36040W        W 3108  38.384  19.560   3.689
36041W        W 3109  24.546  41.860   2.254
36042W        W 3110  29.919  39.954   4.760
36043W        W 3111   8.865   9.766  13.857
36044W        W 3112  15.772  28.525  10.158
36045W        W 3113  17.224  40.944  13.912
36046W        W 3114  30.619   3.282   0.385
36047W        W 3115  35.508   2.839   1.922
36048W        W 3116  20.532  42.841  14.906
36049W        W 3117  29.476  34.933  11.906
36050W        W 3118  27.962   8.242   1.293
36051W        W 3119  39.387  33.416   1.379
36052W        W 3120  31.621  24.544  12.935
36053W        W 3121  13.173  18.222  14.327
36054W        W 3122   6.720  43.915  12.996
36055W        W 3123  28.495  17.600  10.999
36056W        W 3124  22.025  29.646   1.396
36057W        W 3125  37.397  20.579  14.449
36058W        W 3126  42.833  31.054   2.730
36059W        W 3127  43.291  31.495  11.112
36060W        W 3128  38.884  37.343  12.995
36061W        W 3129  42.516   9.681  14.877
36062W        W 3130  31.559   7.697   4.789
36063W        W 3131  22.056  22.138  11.879
36064W        W 3132  10.761  26.639   3.780
36065W        W 3133  32.472   4.725   4.630
36066W        W 3134  15.083  18.267   2.268
36067W        W 3135   1.870   3.845   2.786
36068W        W 3136  25.025   2.911   2.203
36069W        W 3137   2.461   4.873  10.517
36070W        W 3138  17.675   7.697   3.186
36071W        W 3139  16.756  40.965  11.390
36072W        W 3140  15.717  14.164  11.600
36073W        W 3141   4.728  21.215   3.333
36074W        W 3142   6.322  40.502   1.827
36075W        W 3143  15.701  28.177  14.437
36076W        W 3144   7.271   1.958  14.891
36077W        W 3145   7.689  32.142  14.296
36078W        W 3146   3.410  36.865  12.042
36079W        W 3147  22.560  12.310   4.719
36080W        W 3148  10.677   8.774  14.299
36081W        W 3149  11.303  27.515  14.434
36082W        W 3150   8.193  42.941  11.387
36083W        W 3151   6.829  20.693  14.354
36084W        W 3152   9.842  27.515   1.232
36085W        W 3153  22.629  26.569   3.867
36086W        W 3154  28.644  26.505   3.158
36087W        W 3155  32.908  33.438  13.906
36088W        W 3156   9.151  14.125   3.709
36089W        W 3157   6.762  26.174   1.351
36090W        W 3158  38.930   8.279  10.529
36091W        W 3159  34.501  27.131  11.423
36092W        W 3160  35.470  19.591   2.318
36093W        W 3161  37.362  13.609  11.040
36094W        W 3162  13.197  24.675   4.784
36095W        W 3163  44.990  17.191   1.779
36096W        W 3164   5.420  20.686  14.345
36097W        W 3165  14.272  24.534  11.405
36098W        W 3166   2.450   8.713  12.055
36099W        W 3167  10.719  15.286  14.961
36100W        W 3168   8.734  22.702  13.396
36101W        W 3169  19.261  44.792   3.161
36102W        W 3170  18.557   1.476  12.361
36103W        W 3171  19.573  16.629  11.442
36104W        W 3172  21.569  19.603  13.500
36105W        W 3173  29.621  29.544   2.260
36106W        W 3174  28.489   4.778  13.904
36107W        W 3175  41.801   6.271  11.603
36108W        W 3176  41.870  20.606   1.749
36109W        W 3177  33.103   6.242   3.695
36110W        W 3178   4.378  30.936   0.288
36111W        W 3179  35.552   3.389   3.841
36112W        W 3180  10.669  22.572   4.707
36113W        W 3181  40.500  14.711  10.458
36114W        W 3182   6.821  26.529   1.779
36115W        W 3183  34.584   2.738  11.038
36116W        W 3184  28.971  19.185  11.109
36117W        W 3185  30.068  37.359  13.054
36118W        W 3186  21.242  44.989  12.473
36119W        W 3187  35.512   7.839   0.334
36120W        W 3188  34.609  24.482   1.885
36121W        W 3189  29.530  34.001   0.365
36122W        W 3190  38.833  23.517   1.841
36123W        W 3191  26.987  42.950   0.434
36124W        W 3192  28.524   7.329  14.022
36125W        W 3193  20.715  27.544  11.957
36126W        W 3194   5.716  38.074  11.002
36127W        W 3195  25.488   4.795  11.966
36128W        W 3196  28.975   9.303  14.427
36129W        W 3197  41.535  28.509   1.387
36130W        W 3198  12.117  21.184  13.848
36131W        W 3199   2.392  24.522   3.228
36132W        W 3200  33.899   6.274   4.696
36133W        W 3201   1.932   5.409  10.554
36134W        W 3202   5.361  12.184  11.505
36135W        W 3203  43.991   1.355  12.093
36136W        W 3204  34.065  20.620   0.948
36137W        W 3205  12.175  15.285   4.643
36138W        W 3206  26.151  28.933  12.430
36139W        W 3207  42.834  43.823  13.539
36140W        W 3208  22.742   6.234  14.476
36141W        W 3209  34.378  25.706  14.359
36142W        W 3210  36.357   6.704  11.930
36143W        W 3211   8.865  35.556  12.506
36144W        W 3212  35.583  12.328   4.718
36145W        W 3213  18.637  39.509  12.924
36146W        W 3214  30.160  16.752  11.487
36147W        W 3215  13.253  14.767  11.026
36148W        W 3216  27.006  44.860   0.793
36149W        W 3217  23.029  28.563   0.405
36150W        W 3218  38.978  43.948   4.753
36151W        W 3219  24.561  26.171  12.965
36152W        W 3220   3.285  30.007   1.304
36153W        W 3221  25.515  36.541  11.972
36154W        W 3222  26.180  33.574  12.465
36155W        W 3223  14.106  24.486  12.923
36156W        W 3224  40.352  34.406  12.024
36157W        W 3225   4.805  39.328   4.202
36158W        W 3226  25.708  24.572   2.280
36159W        W 3227  13.195  44.753  14.406
36160W        W 3228  31.907  38.974   3.662
36161W        W 3229  23.041  29.488  10.958
36162W        W 3230  42.454  40.452   4.185
36163W        W 3231  22.594   7.820  13.542
36164W        W 3232  22.022  32.573   1.715
36165W        W 3233  34.998   9.310  12.492
36166W        W 3234  11.829  15.165  11.930
36167W        W 3235  39.353  35.075   3.382
36168W        W 3236  19.690  13.810   4.332
36169W        W 3237  20.544   9.249  11.026
36170W        W 3238  42.982  42.993   2.192
36171W        W 3239   9.354  29.154   1.221
36172W        W 3240  37.972  34.018  14.379
36173W        W 3241  19.045  31.607  14.898
36174W        W 3242  11.276  28.512   4.598
36175W        W 3243  26.680   0.404   1.233
36176W        W 3244  37.471  33.401  12.444
36177W        W 3245  29.997  28.123   1.917
36178W        W 3246  22.196  17.556  10.554
36179W        W 3247  10.202   0.363  13.060
36180W        W 3248  32.900  27.154  11.012
36181W        W 3249   3.928  15.794  11.607
36182W        W 3250  12.616  17.570   3.673
36183W        W 3251  11.804  22.236   0.907
36184W        W 3252  36.481   0.838  12.069
36185W        W 3253  26.007  36.444  12.480
36186W        W 3254   5.745  32.135  11.997
36187W        W 3255  24.997  14.639  11.906
36188W        W 3256  24.518  20.125   3.635
36189W        W 3257  32.890  25.637  12.861
36190W        W 3258  42.976  38.910  11.014
36191W        W 3259  20.735  10.371  14.456
36192W        W 3260  14.133  10.298   5.143
36193W        W 3261  34.450  38.469  12.879
36194W        W 3262   9.761   1.873  12.027
36195W        W 3263   8.322  15.821  11.509
36196W        W 3264  41.036  27.507   2.193
36197W        W 3265  38.336  25.680   1.211
36198W        W 3266  31.585  11.143  12.076
36199W        W 3267  19.780  11.216   4.633
36200W        W 3268  39.918   1.363   0.781
36201W        W 3269  14.268   2.774  11.592
36202W        W 3270  44.311  15.123   4.262
36203W        W 3271  41.986  11.191  14.018
36204W        W 3272  33.999  20.702   1.363
36205W        W 3273  44.817   7.672   4.175
36206W        W 3274  16.132  33.075   0.885
36207W        W 3275  11.651  25.087   3.727
36208W        W 3276  36.884  11.350  13.308
36209W        W 3277  18.293  41.888  13.819
36210W        W 3278  12.345  18.551  10.515
36211W        W 3279  27.962  20.095   0.313
36212W        W 3280  36.084  28.509  11.095
36213W        W 3281  11.799  36.029   1.819
36214W        W 3282  34.979  35.949  13.810
36215W        W 3283  11.365   3.394  10.952
36216W        W 3284  14.206  33.441  12.362
36217W        W 3285   0.925  10.165   4.240
36218W        W 3286  33.431  11.694   0.851
36219W        W 3287  32.940  26.091  14.988
36220W        W 3288  27.026  27.634   0.333
36221W        W 3289  30.008  15.776   3.803
36222W        W 3290  10.782  16.723  12.008
36223W        W 3291  10.314  26.537  13.832
36224W        W 3292  44.285  13.728   4.287
36225W        W 3293  37.927  27.142   4.350
36226W        W 3294  37.542   1.323   1.446
36227W        W 3295  44.967   1.391   3.158
36228W        W 3296   4.255  27.045   0.398
36229W        W 3297  23.573  42.412   2.318
36230W        W 3298  29.986   4.425   3.384
36231W        W 3299  40.429   7.738   3.693
36232W        W 3300  14.648  23.044   0.428
36233W        W 3301  41.801  33.079  10.971
36234W        W 3302  11.226  27.607  12.032
36235W        W 3303  23.626  13.738   4.787
36236W        W 3304  44.967  28.976   0.353
36237W        W 3305  19.643  34.525   4.166
36238W        W 3306   8.392  15.812  13.816
36239W        W 3307  15.658  13.119  12.878
36240W        W 3308  17.742  31.625  13.966
36241W        W 3309  12.769  25.017   1.732
36242W        W 3310  32.993   7.396  10.909
36243W        W 3311  41.850   1.845   2.270
36244W        W 3312  10.733  27.079  10.633
36245W        W 3313  16.152  34.978   4.614
36246W        W 3314  18.719  43.344   0.955
36247W        W 3315  42.410  28.514  14.479
36248W        W 3316  19.647  31.461  13.037
36249W        W 3317  36.062  30.566  13.510
36250W        W 3318  10.245   7.172  13.377
36251W        W 3319  17.288  39.983  13.926
36252W        W 3320   7.667  29.424   1.708
36253W        W 3321  36.871  26.103  11.056
36254W        W 3322  33.546   4.882   4.160
36255W        W 3323   0.974  11.316   0.311
36256W        W 3324  25.088  22.121   4.341
36257W        W 3325  17.112  17.605  10.632
36258W        W 3326  44.359  14.105   1.291
36259W        W 3327  29.480  34.383   0.842
36260W        W 3328  43.814  12.620   3.230
36261W        W 3329  24.000  24.574   0.769
36262W        W 3330  37.402  20.662   3.218
36263W        W 3331  38.410  13.713   2.194
36264W        W 3332  31.109  20.064  10.584
36265W        W 3333  27.518  44.317   0.279
36266W        W 3334  17.234   5.229  14.983
36267W        W 3335  25.052  22.196  11.997
36268W        W 3336  28.546   5.393  11.128
36269W        W 3337   8.745  44.391  14.451
36270W        W 3338  31.974  13.669   1.892
36271W        W 3339  23.984  35.950  10.119
36272W        W 3340   6.873  19.663   2.679
36273W        W 3341   4.902  13.156  12.403
36274W        W 3342  43.334  43.347  13.056
36275W        W 3343   9.192  23.199  12.389
36276W        W 3344  23.672   4.411   0.935
36277W        W 3345  30.065  29.574   2.417
36278W        W 3346  30.947   4.898   0.363
36279W        W 3347   4.763  13.826   2.840
36280W        W 3348  40.321  22.029  13.958
36281W        W 3349  25.999  23.056   0.870
36282W        W 3350  15.317   8.397  13.420
36283W        W 3351  25.652  30.055   4.296
36284W        W 3352   3.936   6.244  11.373
36285W        W 3353   6.777  24.198  14.917
36286W        W 3354  16.123  11.346   4.193
36287W        W 3355  41.025  34.399   4.288
36288W        W 3356  37.358  24.526  13.047
36289W        W 3357  36.498  32.457  11.871
36290W        W 3358  36.411  29.919   0.767
36291W        W 3359  37.938  43.511   4.120
36292W        W 3360  32.982  21.686  11.891
36293W        W 3361  40.842  24.020   4.813
36294W        W 3362  25.678  43.473  14.323
36295W        W 3363  14.258   2.807   0.254
36296W        W 3364  31.514   4.278   2.788
36297W        W 3365  12.298  25.988   4.198
36298W        W 3366  20.687  41.820   0.325
36299W        W 3367  16.582  26.159   2.218
36300W        W 3368  10.684  40.477   3.353
36301W        W 3369   5.378  20.221  14.286
36302W        W 3370  12.138  30.998   0.883
36303W        W 3371  23.675  42.983  14.285
36304W        W 3372  21.553   1.400  11.895
36305W        W 3373  20.636  14.261  12.927
36306W        W 3374  31.414  41.381   3.370
36307W        W 3375  40.993   8.175  10.423
36308W        W 3376  25.982  26.474  14.962
36309W        W 3377   5.354  10.873  14.931
36310W        W 3378  44.768   3.337  10.531
36311W        W 3379  10.149  30.598  10.024
36312W        W 3380  36.426   3.746  10.947
36313W        W 3381  34.097  13.333  14.304
36314W        W 3382   0.316   7.814   4.703
36315W        W 3383  13.225  10.772   3.213
36316W        W 3384  37.563  17.587  14.501
36317W        W 3385  27.531   0.988  14.862
36318W        W 3386   7.264   9.341   0.807
36319W        W 3387  10.868  28.932  13.514
36320W        W 3388  23.553   2.264   4.273
36321W        W 3389  11.701   0.486  11.036
36322W        W 3390  32.101   7.666  13.505
36323W        W 3391  43.413  10.279   3.837
36324W        W 3392  34.012  29.940  12.480
36325W        W 3393  42.950  28.461   1.321
36326W        W 3394  31.473  42.417   2.793
36327W        W 3395  12.181   5.856  13.897
36328W        W 3396  41.530   9.252  12.038
36329W        W 3397   8.273  32.590  11.502
36330W        W 3398   4.205   4.790   4.679
36331W        W 3399   5.894  29.480   1.276
36332W        W 3400  16.164  41.992  14.013
36333W        W 3401  25.470  17.628  12.020
36334W        W 3402   7.701   2.916   4.230
36335W        W 3403  43.294  16.155   0.360
36336W        W 3404  16.762  10.711  12.486
36337W        W 3405  31.933  14.756   0.429
36338W        W 3406  27.129   1.321  10.411
36339W        W 3407  16.567   9.284   3.386
36340W        W 3408   1.911  20.110  10.593
36341W        W 3409   6.390  26.020  10.558
36342W        W 3410  32.979  13.200  12.958
36343W        W 3411  17.084   1.298  12.088
36344W        W 3412  43.850  32.048  12.895
36345W        W 3413  31.570  15.239   1.287
36346W        W 3414  11.327  31.476   1.776
36347W        W 3415  22.165   5.381   4.784
36348W        W 3416  25.165  39.428   2.782
36349W        W 3417  24.524  42.410   0.901
36350W        W 3418  40.404   7.228   4.239
36351W        W 3419  26.139  21.598  14.514
36352W        W 3420  22.739  21.247   0.339
36353W        W 3421  29.170  26.046   4.347
36354W        W 3422  42.332  10.790  10.564
36355W        W 3423   2.930  32.901  14.983
36356W        W 3424  19.211  24.660   1.322
36357W        W 3425   7.822  42.921  12.047
36358W        W 3426  33.097  44.875  14.373
36359W        W 3427  41.497  16.125  11.561
36360W        W 3428  38.033  36.386  10.622
36361W        W 3429   2.301  40.974  11.043
36362W        W 3430  41.442  20.061  12.900
36363W        W 3431  21.127   2.471   1.271
36364W        W 3432  35.433   3.307  14.337
36365W        W 3433  19.136   9.671   0.809
36366W        W 3434  22.999  24.219  14.276
36367W        W 3435  42.388  12.361   3.728
36368W        W 3436  43.453   2.292  11.554
36369W        W 3437  22.081  36.904   1.225
36370W        W 3438  37.454   8.712   0.449
36371W        W 3439   2.930   4.431  14.017
36372W        W 3440  13.631   4.368   2.775
36373W        W 3441  28.116  39.821   3.248
36374W        W 3442  38.064  34.428   0.937
36375W        W 3443  41.877   2.859  14.333
36376W        W 3444   5.743  34.606   4.759
36377W        W 3445  12.193  23.607   4.784
36378W        W 3446  35.064  31.982   9.943
36379W        W 3447   0.834  43.975   3.272
36380W        W 3448  23.199   6.335   0.439
36381W        W 3449   4.882  10.151  12.067
36382W        W 3450   7.768  43.961  12.968
36383W        W 3451   3.247  10.877  13.054
36384W        W 3452   9.333   4.206   1.427
36385W        W 3453  18.264  13.236  11.893
36386W        W 3454  30.086  23.218  11.097
36387W        W 3455  43.946  15.805   0.323
36388W        W 3456  17.782  24.974   0.737
36389W        W 3457  23.728  13.784   0.759
36390W        W 3458  11.622  16.097  12.527
36391W        W 3459   5.821   0.920   2.872
36392W        W 3460  43.854  19.179  12.391
36393W        W 3461   7.320  29.639   3.284
36394W        W 3462  11.665  15.263  13.862
36395W        W 3463  10.758  35.543  11.051
36396W        W 3464  26.689  39.813   5.123
36397W        W 3465  28.532  10.693  12.406
36398W        W 3466  42.525   8.212   2.823
36399W        W 3467  21.602  22.661  13.484
36400W        W 3468  24.700  36.899  10.640
36401W        W 3469  37.881   6.359  12.837
36402W        W 3470  17.655   4.426  11.374
36403W        W 3471   4.929  42.437  14.360
36404W        W 3472  37.990  18.172  12.044
36405W        W 3473  34.493  38.422   4.251
36406W        W 3474  43.984  44.995  13.492
36407W        W 3475  30.092  15.151  14.008
36408W        W 3476  11.818  25.012  10.984
36409W        W 3477  18.218  10.639   0.829
36410W        W 3478  35.013  18.182   1.773
36411W        W 3479  43.283  40.816   4.336
36412W        W 3480   6.788  38.897   3.727
36413W        W 3481  44.427   1.392   3.693
36414W        W 3482   5.263  11.655  12.988
36415W        W 3483   8.384  20.063   0.399
36416W        W 3484  37.085  22.519  14.444
36417W        W 3485  26.136  43.896   2.831
36418W        W 3486  33.914  39.044   4.322
36419W        W 3487  34.430   8.724   4.783
36420W        W 3488  39.537  34.517  13.512
36421W        W 3489  18.584  34.952  11.123
36422W        W 3490  34.536  14.094   0.244
36423W        W 3491   4.281  27.598  14.915
36424W        W 3492  35.367  42.515   0.801
36425W        W 3493  43.459  26.512  13.415
36426W        W 3494  18.717   7.223   2.241
36427W        W 3495  38.928  32.987   3.685
36428W        W 3496  33.507  25.537   0.366
36429W        W 3497  35.864  24.038  13.488
36430W        W 3498   1.445  31.065  10.467
36431W        W 3499  35.078  25.152   1.380
36432W        W 3500  21.600   2.326   0.835
36433W        W 3501   4.810  17.212   0.291
36434W        W 3502  21.064  35.507  13.968
36435W        W 3503  13.843  20.530   1.349
36436W        W 3504  38.932   8.815   4.129
36437W        W 3505   1.872  22.037  13.496
36438W        W 3506  23.718   3.944   0.385
36439W        W 3507  35.876   3.388  14.826
36440W        W 3508  14.105   2.935  11.120
36441W        W 3509  32.476  30.128   1.430
36442W        W 3510  40.369  16.266  13.016
36443W        W 3511   0.346   3.747  13.429
36444W        W 3512  32.034   9.384   3.780
36445W        W 3513  34.929  43.298   1.230
36446W        W 3514  19.584  20.645   0.879
36447W        W 3515  13.765  40.915   0.938
36448W        W 3516  22.546  35.944  13.412
36449W        W 3517  38.477  22.112   0.874
36450W        W 3518  15.216  35.599   1.244
36451W        W 3519  11.223  13.629   0.896
36452W        W 3520  15.633  44.361   3.160
36453W        W 3521   0.863  21.203  11.881
36454W        W 3522   2.451  39.951  14.956
36455W        W 3523  36.009   9.293   2.200
36456W        W 3524  19.074  25.020  13.467
36457W        W 3525  22.158  14.270  11.903
36458W        W 3526  31.016   7.763   0.734
36459W        W 3527  15.235  15.132   2.778
36460W        W 3528  31.007  43.000   2.853
36461W        W 3529  11.665  23.710  11.982
36462W        W 3530  44.908  11.651  12.882
36463W        W 3531  35.106  11.277  12.519
36464W        W 3532   4.935  31.420   3.767
36465W        W 3533  37.989  18.172  14.790
36466W        W 3534   7.821  13.667  11.987
36467W        W 3535  31.505  12.678   4.196
36468W        W 3536   7.752  40.311   0.269
36469W        W 3537  34.020  22.135  11.584
36470W        W 3538  33.938   2.789  14.502
36471W        W 3539  14.234  21.113   4.794
36472W        W 3540  10.263   7.348   0.480
36473W        W 3541  42.420  31.112  14.770
36474W        W 3542  32.554   3.405   1.344
36475W        W 3543  30.447  39.490   3.733
36476W        W 3544  22.637  18.116  14.907
36477W        W 3545  16.117  20.675  10.504
36478W        W 3546   5.926   6.305   4.221
36479W        W 3547  20.162  11.249   0.355
36480W        W 3548  14.765   4.306   1.419
36481W        W 3549  30.426  15.263   0.434
36482W        W 3550  16.276  23.013   2.790
36483W        W 3551  28.599  20.257  12.465
36484W        W 3552  20.088  11.814   0.306
36485W        W 3553   8.721  36.086  12.490
36486W        W 3554  15.727  43.780   3.163
36487W        W 3555  19.657  10.834   0.273
36488W        W 3556  44.843   1.237   3.730
36489W        W 3557   6.892  27.056  11.488
36490W        W 3558  13.736  26.627  14.010
36491W        W 3559  16.812   2.754   0.876
36492W        W 3560  38.928  23.640  12.485
36493W        W 3561  39.031   9.885  12.346
36494W        W 3562  36.005  12.710  14.369
36495W        W 3563  40.429  23.592  13.057
36496W        W 3564   8.883  22.224  12.512
36497W        W 3565  30.065   7.711  12.046
36498W        W 3566  12.751  31.946  11.973
36499W        W 3567   9.872  37.058  12.349
36500W        W 3568  42.952  16.242   3.799
36501W        W 3569   2.912  17.277  10.945
36502W        W 3570  33.074  41.910   3.839
36503W        W 3571  31.570  32.435   1.867
36504W        W 3572  25.076  29.515   0.770
36505W        W 3573  29.030  41.403   0.784
36506W        W 3574  14.599   2.249  11.487
36507W        W 3575  44.346  30.562   5.173
36508W        W 3576  13.672   0.315  10.891
36509W        W 3577  32.427  38.461   1.790
36510W        W 3578  33.621  35.574   3.840
36511W        W 3579  33.539  30.452   0.478
36512W        W 3580  18.066  31.536   1.912
36513W        W 3581   2.868  42.371   3.318
36514W        W 3582  22.236  30.156   3.251
36515W        W 3583  31.619   1.309  14.802
36516W        W 3584  29.111  28.942   0.885
36517W        W 3585   3.712  39.935   0.471
36518W        W 3586  16.717  29.991  11.957
36519W        W 3587  27.186  18.296   4.217
36520W        W 3588  21.124  12.146   3.295
36521W        W 3589  32.405  12.152   3.676
36522W        W 3590   9.201  38.006   2.782
36523W        W 3591  34.865  30.652  14.852
36524W        W 3592  21.031   6.241  13.006
36525W        W 3593  30.064  44.454  11.448
36526W        W 3594  21.020  13.168   1.851
36527W        W 3595  18.232  24.680  12.540
36528W        W 3596  28.939  33.559   1.219
36529W        W 3597  14.157  38.925   4.115
36530W        W 3598  30.498  37.015   2.351
36531W        W 3599  12.194  19.209   3.745
36532W        W 3600  15.718  21.175   0.349
36533W        W 3601   8.773   5.358   1.897
36534W        W 3602  37.456   3.433   3.794
36535W        W 3603  21.669   5.741  13.931
36536W        W 3604  25.008  35.088   0.860
36537W        W 3605   4.796   8.224   4.217
36538W        W 3606  28.142   1.319  14.984
36539W        W 3607  42.932  26.576  12.048
36540W        W 3608  36.521  18.174   0.856
36541W        W 3609  32.914  37.556   2.375
36542W        W 3610  20.578  37.997   2.267
36543W        W 3611   9.213  38.480  10.956
36544W        W 3612  35.384  23.034  13.514
36545W        W 3613  28.602  32.137   1.801
36546W        W 3614  21.730  30.520  14.514
36547W        W 3615  22.014   0.976   1.292
36548W        W 3616  38.040  10.220   4.332
36549W        W 3617  18.248  16.076   0.775
36550W        W 3618  16.645  25.985   3.700
36551W        W 3619   7.764  27.513  10.926
36552W        W 3620  17.589  28.074   0.435
36553W        W 3621  25.117   3.227  13.946
36554W        W 3622  26.463  11.796  12.895
36555W        W 3623  17.763  41.393  13.939
36556W        W 3624  20.066   7.890  11.976
36557W        W 3625  27.080  12.725   1.411
36558W        W 3626  20.746   7.202  14.430
36559W        W 3627   4.930  21.663  13.873
36560W        W 3628  18.716   6.333  12.399
36561W        W 3629  17.121  22.186  10.891
36562W        W 3630  10.196  42.343  14.487
36563W        W 3631   3.343   7.231   3.349
36564W        W 3632  44.805  19.778   4.698
36565W        W 3633  10.299   3.314   4.308
36566W        W 3634  26.514  36.986  10.996
36567W        W 3635  20.758   6.353   3.832
36568W        W 3636   2.812  13.785  14.279
36569W        W 3637  22.998  20.247  10.946
36570W        W 3638  22.116  41.397   1.911
36571W        W 3639  30.127   0.812   1.809
36572W        W 3640  27.488  32.137   0.245
36573W        W 3641  15.752  36.014  13.351
36574W        W 3642  17.160  18.579   0.952
36575W        W 3643  10.799   3.291  12.006
36576W        W 3644  15.701   3.239  12.516
36577W        W 3645  32.917  41.787   2.736
36578W        W 3646  37.377  27.480  13.410
36579W        W 3647  14.830  19.072  12.460
36580W        W 3648  22.720  11.313  14.989
36581W        W 3649   9.723  18.295  11.000
36582W        W 3650  37.493  29.491  11.084
36583W        W 3651  30.476  40.510   2.719
36584W        W 3652  13.621  38.463   3.852
36585W        W 3653  24.551   2.254   4.730
36586W        W 3654  30.930  37.968   0.861
36587W        W 3655  26.969   8.669   1.439
36588W        W 3656  17.165   7.862   0.386
36589W        W 3657  15.734  44.416   0.292
36590W        W 3658  40.370  23.170   0.258
36591W        W 3659  13.641  35.453   3.320
36592W        W 3660  10.686  19.249   2.367
36593W        W 3661   1.940  42.952   5.169
36594W        W 3662  23.501  29.623  13.330
36595W        W 3663  27.571  38.065   4.270
36596W        W 3664  33.541  41.935  13.980
36597W        W 3665  11.221  19.657   1.839
36598W        W 3666  36.969  14.233   3.758
36599W        W 3667  18.677  27.084   3.204
36600W        W 3668  20.271  36.984  10.902
36601W        W 3669  32.947  20.765   4.227
36602W        W 3670  29.560  17.176  13.425
36603W        W 3671  26.528  37.853  13.534
36604W        W 3672  27.485  40.954   2.344
36605W        W 3673  26.964  41.974  13.866
36606W        W 3674  23.084  23.161  11.957
36607W        W 3675  14.160   1.849  13.461
36608W        W 3676  18.267  43.948   0.950
36609W        W 3677  25.640  35.902  11.116
36610W        W 3678  40.331  40.864   4.717
36611W        W 3679  34.368  33.002   0.455
36612W        W 3680   3.785  22.239   1.846
36613W        W 3681  37.923  40.544  12.845
36614W        W 3682  19.268  34.898  13.012
36615W        W 3683   4.389  37.835  13.351
36616W        W 3684   6.802  43.930  11.881
36617W        W 3685  19.199  38.892  11.975
36618W        W 3686  17.204  12.641  14.481
36619W        W 3687  16.138  20.645   1.374
36620W        W 3688  41.807  11.301   2.353
36621W        W 3689  31.997  39.463  12.058
36622W        W 3690  34.032  40.876   1.729
36623W        W 3691   3.338  10.361  10.480
36624W        W 3692  10.791  15.119   0.382
36625W        W 3693   8.678  44.982  10.053
36626W        W 3694  16.119  13.676   3.632
36627W        W 3695  12.217  29.430  13.795
36628W        W 3696   3.743  40.430   2.298
36629W        W 3697  43.342  40.530  11.905
36630W        W 3698   0.771   5.359  11.545
36631W        W 3699  33.477  34.971   0.915
36632W        W 3700   7.836  30.975   3.770
36633W        W 3701  33.992  14.217  14.455
36634W        W 3702  27.087  27.142  11.430
36635W        W 3703  36.486   3.952  13.835
36636W        W 3704  17.205  27.604   2.721
36637W        W 3705  36.956  27.948   1.269
36638W        W 3706  39.027  41.502   0.894
36639W        W 3707  16.267  17.102  11.381
36640W        W 3708  33.612  21.654   2.860
36641W        W 3709  38.841  36.062   5.233
36642W        W 3710  13.144  23.106   3.222
36643W        W 3711  14.705  16.315  11.413
36644W        W 3712  36.085  41.938   1.795
36645W        W 3713  21.608  41.310  12.543
36646W        W 3714   8.833  36.555  12.025
36647W        W 3715  36.991  25.968   4.163
36648W        W 3716  24.571  14.810   1.297
36649W        W 3717  11.635  23.158  11.517
36650W        W 3718  38.366   9.256  11.397
36651W        W 3719   9.220  23.510   0.401
36652W        W 3720  12.664  44.346   2.697
36653W        W 3721  26.675  31.590  11.929
36654W        W 3722  25.697  27.463  10.496
36655W        W 3723  10.788  43.336   2.846
36656W        W 3724  26.131  36.972  14.489
36657W        W 3725  13.178   0.349  14.785
36658W        W 3726  23.564  17.663   0.477
36659W        W 3727  42.495  17.562  10.488
36660W        W 3728  38.884  25.536  11.096
36661W        W 3729  41.042  38.006   2.794
36662W        W 3730  29.972  17.112   4.293
36663W        W 3731  36.888  28.110  12.080
36664W        W 3732  26.109  30.085  10.474
36665W        W 3733  19.206   9.200  14.827
36666W        W 3734  18.582  17.690   1.413
36667W        W 3735  21.718  19.710  10.498
36668W        W 3736  23.199  11.770  11.069
36669W        W 3737  14.782  40.955   0.289
36670W        W 3738  34.515  39.951  10.491
36671W        W 3739  13.616  38.829  13.493
36672W        W 3740  25.672  30.435   5.087
36673W        W 3741  18.598  29.105  13.948
36674W        W 3742  25.051  17.176  11.398
36675W        W 3743   4.432   6.803   4.241
36676W        W 3744  32.065  34.871   2.186
36677W        W 3745  39.329   3.803  13.368
36678W        W 3746   4.328  10.212   4.134
36679W        W 3747  12.829  42.013   0.310
36680W        W 3748   5.755  19.550  14.881
36681W        W 3749   4.225   7.859   2.334
36682W        W 3750  19.253  21.199   0.479
36683W        W 3751   0.444  37.541   1.703
36684W        W 3752  34.011   7.415   2.787
36685W        W 3753  30.445   8.246   4.122
36686W        W 3754  18.184  18.137   3.743
36687W        W 3755   8.811   9.821  10.471
36688W        W 3756  29.164  29.604   1.758
36689W        W 3757  26.081  15.315   2.391
36690W        W 3758   2.345  35.999  12.341
36691W        W 3759  31.911   1.463  10.581
36692W        W 3760  42.381  12.252  12.397
36693W        W 3761  29.652  37.390  10.463
36694W        W 3762  31.617  13.737  14.922
36695W        W 3763   1.359  34.541   0.348
36696W        W 3764  31.004  44.863   2.364
36697W        W 3765  40.043  16.216  12.989
36698W        W 3766  12.781  32.937  12.371
36699W        W 3767   4.405  15.288   3.249
36700W        W 3768   6.878  28.084   0.412
36701W        W 3769  40.519  15.730   0.816
36702W        W 3770   9.308   5.199   2.788
36703W        W 3771  12.299  19.115  12.463
36704W        W 3772  27.575  28.148  11.375
36705W        W 3773  13.131  24.528   2.257
36706W        W 3774  31.632   4.798   0.259
36707W        W 3775   0.917  27.016   4.156
36708W        W 3776   2.289  22.502  14.820
36709W        W 3777  33.407  34.599   1.449
36710W        W 3778  21.697  34.507   3.301
36711W        W 3779  32.900  27.561   0.261
36712W        W 3780  27.622   6.217   3.844
36713W        W 3781  41.533  35.913   1.277
36714W        W 3782  14.755  41.298  14.772
36715W        W 3783  24.107  31.907  13.490
36716W        W 3784  10.841   5.757  14.407
36717W        W 3785  23.669  43.981   1.246
36718W        W 3786   3.928  15.144  13.340
36719W        W 3787   8.241  16.650  11.885
36720W        W 3788  25.566  25.546  12.062
36721W        W 3789  44.431  24.202   1.768
36722W        W 3790  20.195  14.228   1.329
36723W        W 3791   8.814   6.404   4.817
36724W        W 3792  18.203  18.787  11.909
36725W        W 3793  41.793  12.851   3.333
36726W        W 3794  34.958  28.596  14.410
36727W        W 3795  43.775   4.788  12.432
36728W        W 3796  27.616  40.821  13.802
36729W        W 3797  15.128  18.654   4.705
36730W        W 3798  23.638  35.517   0.330
36731W        W 3799   7.399  16.765  13.887
36732W        W 3800  36.580   0.953   0.399
36733W        W 3801  31.424  22.593   3.195
36734W        W 3802  26.056   1.849  11.472
36735W        W 3803  25.112  37.905   1.764
36736W        W 3804  40.342  39.479   4.292
36737W        W 3805  35.596  31.605  10.619
36738W        W 3806  38.862   2.872   1.790
36739W        W 3807  18.144  27.061   1.702
36740W        W 3808   9.277  15.261  14.486
36741W        W 3809   4.792   7.879  12.983
36742W        W 3810  38.880  32.447  11.507
36743W        W 3811   4.450  27.458   4.785
36744W        W 3812   1.929  41.877  12.427
36745W        W 3813  18.746  10.713   0.750
36746W        W 3814  22.159  12.243   3.156
36747W        W 3815  26.072  29.169   4.154
36748W        W 3816  21.746   1.244  10.464
36749W        W 3817  16.307   3.956   1.225
36750W        W 3818  24.993  17.708   3.853
36751W        W 3819   8.328  34.483  12.853
36752W        W 3820  18.780   9.387   3.301
36753W        W 3821  21.621   7.281  13.412
36754W        W 3822  24.567  21.125   3.859
36755W        W 3823   0.372  11.240  14.493
36756W        W 3824  30.084  34.997   5.286
36757W        W 3825  33.890  17.684  13.830
36758W        W 3826  12.130   9.744  14.356
36759W        W 3827  26.681  29.571  11.880
36760W        W 3828  17.156  42.352  11.936
36761W        W 3829  36.028  38.855   2.293
36762W        W 3830  20.246  25.667  10.475
36763W        W 3831  39.960   1.252   1.324
36764W        W 3832   0.977   0.874  10.959
36765W        W 3833  14.799  24.505  13.450
36766W        W 3834  40.344   6.727  14.807
36767W        W 3835  22.709  33.093  12.435
36768W        W 3836   3.441  14.315  12.527
36769W        W 3837  17.128   7.242   1.259
36770W        W 3838  15.217   2.836   2.346
36771W        W 3839  23.131   4.219   1.313
36772W        W 3840  19.224  32.625  13.019
36773W        W 3841   0.821  12.797   9.926
36774W        W 3842  19.245   9.825  14.932
36775W        W 3843  36.394  18.643   0.372
36776W        W 3844  25.116  41.851   3.851
36777W        W 3845  31.986  36.410   3.331
36778W        W 3846  15.775  39.477   9.922
36779W        W 3847  18.754  11.313  14.377
36780W        W 3848  14.689  35.437  13.888
36781W        W 3849  27.641  28.512  10.433
36782W        W 3850   6.699  28.450  11.441
36783W        W 3851  19.642  37.896  13.958
36784W        W 3852  43.940  10.158  12.490
36785W        W 3853  43.391   4.422   0.316
36786W        W 3854  27.514  17.214  13.469
36787W        W 3855  44.990   7.238   3.326
36788W        W 3856  14.330  36.365   1.361
36789W        W 3857  14.825  25.026  12.988
36790W        W 3858  28.961   3.829   2.856
36791W        W 3859  25.132  18.175  11.881
36792W        W 3860  26.641  40.430  11.431
36793W        W 3861  15.661  29.929   1.385
36794W        W 3862  39.066   3.307   1.338
36795W        W 3863  13.729  32.105   5.292
36796W        W 3864  18.109   9.172  12.970
36797W        W 3865  34.503  21.545  10.963
36798W        W 3866  33.404   3.734   4.798
36799W        W 3867  38.398  36.394   1.236
36800W        W 3868   0.784   5.240  12.006
36801W        W 3869  13.643  36.465   1.857
36802W        W 3870  27.085  10.338   0.868
36803W        W 3871  15.284  44.462   1.380
36804W        W 3872  21.217  37.511  13.910
36805W        W 3873  39.383  24.684  14.421
36806W        W 3874  30.105  44.789   0.281
36807W        W 3875   8.339  17.132  13.493
36808W        W 3876  35.974  44.868  11.114
36809W        W 3877  34.967  13.749  14.762
36810W        W 3878  36.381   9.224  10.887
36811W        W 3879  22.099   2.341  12.402
36812W        W 3880  34.960   4.777  10.973
36813W        W 3881   1.785  20.615  10.595
36814W        W 3882  24.665  35.575   3.698
36815W        W 3883  28.935   5.323   0.283
36816W        W 3884  10.800  37.544  11.945
36817W        W 3885  25.040  25.993  13.879
36818W        W 3886  44.477  25.218  14.912
36819W        W 3887  14.189  40.361  14.464
36820W        W 3888  17.136   8.288   2.744
36821W        W 3889  29.650  28.554   2.226
36822W        W 3890  40.983  40.858   0.474
36823W        W 3891  31.150  22.103  11.517
36824W        W 3892  32.981  31.927  10.516
36825W        W 3893   2.735  27.996   1.423
36826W        W 3894   6.214  11.153  12.075
36827W        W 3895  11.792  21.109   3.353
36828W        W 3896   3.355  44.327  14.855
36829W        W 3897  43.775  14.722  14.856
36830W        W 3898  15.635  35.379  13.448
36831W        W 3899  18.052   6.256   3.261
36832W        W 3900  14.116   3.861  14.355
36833W        W 3901  35.440   2.963  14.501
36834W        W 3902  42.858  11.737   3.698
36835W        W 3903   9.233  24.034  13.943
36836W        W 3904  25.103   8.305  11.098
36837W        W 3905  28.637  32.030   3.205
36838W        W 3906  42.392  24.505  13.501
36839W        W 3907  19.703  10.228  12.501
36840W        W 3908  31.943  44.000   4.667
36841W        W 3909  16.217  24.619  11.936
36842W        W 3910  34.889  13.674  12.932
36843W        W 3911   2.785  17.183  12.367
36844W        W 3912  11.636  40.469  14.962
36845W        W 3913  16.264  37.573   0.331
36846W        W 3914  16.272  10.346   3.688
36847W        W 3915  21.067   5.710  10.458
36848W        W 3916  11.137   2.277   4.287
36849W        W 3917  14.167  40.040   1.261
36850W        W 3918   2.246  40.548   0.758
36851W        W 3919  44.317   1.945  12.535
36852W        W 3920   5.795  15.303  14.373
36853W        W 3921  21.657  42.370   0.957
36854W        W 3922  33.086  19.708  12.883
36855W        W 3923   9.184  35.947   0.270
36856W        W 3924  14.282  21.628   3.668
36857W        W 3925  23.692  20.556  14.394
36858W        W 3926   0.287  43.935   3.811
36859W        W 3927   9.848  15.307  14.360
36860W        W 3928  43.887  14.804  13.962
36861W        W 3929  30.934  35.069  10.925
36862W        W 3930  43.893  15.107   0.254
36863W        W 3931  19.544   7.869   1.228
36864W        W 3932  15.748  18.099  12.399
36865W        W 3933   8.271  34.063  10.570
36866W        W 3934  26.474  33.444   0.876
36867W        W 3935  22.204  11.628   4.129
36868W        W 3936   8.355  14.651  10.921
36869W        W 3937  44.438  12.698   2.710
36870W        W 3938  27.691  12.673  14.936
36871W        W 3939   9.379  20.667   2.843
36872W        W 3940  12.668  12.151   2.272
36873W        W 3941  27.561  37.011  14.371
36874W        W 3942  38.070  10.315   3.802
36875W        W 3943   4.772  30.505  11.899
36876W        W 3944  34.012  41.418  14.942
36877W        W 3945  11.250   4.214  10.632
36878W        W 3946  30.578  32.949  14.422
36879W        W 3947   0.342   8.818   5.114
36880W        W 3948  23.036  32.978   1.279
36881W        W 3949   1.755   5.291  13.006
36882W        W 3950  10.780  41.528  10.965
36883W        W 3951  11.623  25.186  10.506
36884W        W 3952   7.670  17.302   2.249
36885W        W 3953  25.538   4.420   2.367
36886W        W 3954   1.808  12.267  12.395
36887W        W 3955  30.159  40.472  12.076
36888W        W 3956  25.651  18.277   1.725
36889W        W 3957  37.361   1.810   4.247
36890W        W 3958  27.063  25.568  14.347
36891W        W 3959  34.588  42.965   3.866
36892W        W 3960  33.511   8.261  13.049
36893W        W 3961  10.151  20.762  11.917
36894W        W 3962   3.756  32.105   1.702
36895W        W 3963  39.001  35.951  13.500
36896W        W 3964  44.767  34.408   5.611
36897W        W 3965  37.966   4.945   1.260
36898W        W 3966  19.646  33.435   4.120
36899W        W 3967   0.320   9.259   4.236
36900W        W 3968  20.219  11.350  11.898
36901W        W 3969  30.109   9.377   4.678
36902W        W 3970  33.124   3.328   2.801
36903W        W 3971  27.022  32.099  11.066
36904W        W 3972   9.180  19.268   4.762
36905W        W 3973  22.586  27.130   0.801
36906W        W 3974  30.615   6.792  14.277
36907W        W 3975   2.801  10.671   3.736
36908W        W 3976  28.658  30.018   0.775
36909W        W 3977  14.772   3.883   2.244
36910W        W 3978  43.926   6.772   0.852
36911W        W 3979   0.327  38.034   1.918
36912W        W 3980  13.263  13.809  10.920
36913W        W 3981  19.702   0.336   3.217
36914W        W 3982  23.537  43.356  14.321
36915W        W 3983   6.377  14.153  10.074
36916W        W 3984   9.774   7.701   2.270
36917W        W 3985  34.040  34.427  14.800
36918W        W 3986  29.066  14.296   3.786
36919W        W 3987  11.131   0.328   0.254
36920W        W 3988  28.930  35.943   4.621
36921W        W 3989  37.986  20.091   0.400
36922W        W 3990  29.533  31.643   2.406
36923W        W 3991   3.334   0.790   2.669
36924W        W 3992  25.973  42.006  11.508
36925W        W 3993   6.358  28.063   3.754
36926W        W 3994  33.524  35.912   2.216
36927W        W 3995   4.254  25.633   4.173
36928W        W 3996  30.143  16.705   1.891
36929W        W 3997  37.054  39.409   0.277
36930W        W 3998  42.403  32.488   3.638
36931W        W 3999   9.377  30.963  10.524
36932W        W 4000   1.327  36.585  13.794
36933W        W 4001   4.767  16.256   3.758
36934W        W 4002   6.859   2.911   2.225
36935W        W 4003  13.323   4.279   1.377
36936W        W 4004  22.738  43.978   4.164
36937W        W 4005   0.263  11.278  13.990
36938W        W 4006  20.649   7.271   2.837
36939W        W 4007  40.359  34.398  10.083
36940W        W 4008  19.099  27.553   0.752
36941W        W 4009  34.497   3.276  12.390
36942W        W 4010  10.270  38.458   4.181
36943W        W 4011  14.268  43.856  12.064
36944W        W 4012   6.723  26.177   4.600
36945W        W 4013  42.415  38.934   3.850
36946W        W 4014  43.279  26.077  11.474
36947W        W 4015   8.822   9.263   0.399
36948W        W 4016  33.945  12.756  13.007
36949W        W 4017  16.705  23.058   5.104
36950W        W 4018  17.110  25.137   2.244
36951W        W 4019  21.052  24.042   4.650
36952W        W 4020   6.828  25.606  11.573
36953W        W 4021   6.317  15.162  12.072
36954W        W 4022  42.877  27.170  13.449
36955W        W 4023   2.373  34.947   1.768
36956W        W 4024  44.340  22.620  14.513
36957W        W 4025   1.475  34.948  14.985
36958W        W 4026  36.426  11.281  14.498
36959W        W 4027  32.916  39.411  10.564
36960W        W 4028  41.833  29.119   1.836
36961W        W 4029   4.421  11.720  11.523
36962W        W 4030  43.501  14.189   0.297
36963W        W 4031  19.637  33.476   1.789
36964W        W 4032  28.658  32.438  13.913
36965W        W 4033  43.416  40.054   2.767
36966W        W 4034  35.451   5.853   3.241
36967W        W 4035  30.602  42.964  11.568
36968W        W 4036  22.729   8.368  13.538
36969W        W 4037   5.430  11.846   1.923
36970W        W 4038  37.024  34.070  10.889
36971W        W 4039  12.734   5.429  14.916
36972W        W 4040  41.933  37.470   2.771
36973W        W 4041  22.733  26.088   1.794
36974W        W 4042  29.485   4.883  14.514
36975W        W 4043  20.034  27.614   0.750
36976W        W 4044  40.915  26.501  13.814
36977W        W 4045  40.340  37.839   3.828
36978W        W 4046  27.069  34.411  10.451
36979W        W 4047  43.468  18.703  11.583
36980W        W 4048  27.472  13.731   3.294
36981W        W 4049  20.647  34.957  13.058
36982W        W 4050  30.613  34.613   5.293
36983W        W 4051  21.758   0.745   4.762
36984W        W 4052  28.983  28.007   1.347
36985W        W 4053  12.201  36.996  12.454
36986W        W 4054  30.971  14.174   2.858
36987W        W 4055  17.788  14.119  14.473
36988W        W 4056  24.038  42.804  12.065
36989W        W 4057  21.591  27.054   2.751
36990W        W 4058  18.091  41.942   4.816
36991W        W 4059   6.184   3.343  13.537
36992W        W 4060  13.687  32.038   4.820
36993W        W 4061   8.876  41.899   3.840
36994W        W 4062   2.860  43.274  12.083
36995W        W 4063  40.908  12.291  12.562
36996W        W 4064  14.094   3.282   3.292
36997W        W 4065  31.509  33.958  12.826
36998W        W 4066   1.816   1.477  12.072
36999W        W 4067  31.415  18.747  12.544
37000W        W 4068  40.339  28.069  14.971
37001W        W 4069  33.933  34.525   3.220
37002W        W 4070  12.296   8.406   1.345
37003W        W 4071  35.928  19.664   1.391
37004W        W 4072   6.853  19.579   0.445
37005W        W 4073  21.231  14.165  10.528
37006W        W 4074   8.270  32.578  12.990
37007W        W 4075  28.490   3.942   1.294
37008W        W 4076  23.101  41.403  12.413
37009W        W 4077   4.898  29.098  12.933
37010W        W 4078  14.239  34.431  10.408
37011W        W 4079  14.641  11.799  10.999
37012W        W 4080  27.537  22.141  11.421
37013W        W 4081   2.776  25.112   3.824
37014W        W 4082   4.899   9.235  14.315
37015W        W 4083   5.829  19.196   3.669
37016W        W 4084  20.624  35.396  12.483
37017W        W 4085  31.503   0.332  12.883
37018W        W 4086  23.688  42.297   4.150
37019W        W 4087  34.051  27.181   2.896
37020W        W 4088  24.602   5.343   3.819
37021W        W 4089  31.546  11.185  10.927
37022W        W 4090  16.312  41.341   0.364
37023W        W 4091  32.110  15.705  11.462
37024W        W 4092  13.794  22.162  11.004
37025W        W 4093  40.436   7.770   3.194
37026W        W 4094  32.953  28.480  12.455
37027W        W 4095  32.617  32.429  12.390
37028W        W 4096  28.106   2.849   4.730
37029W        W 4097  43.921  18.781   1.442
37030W        W 4098  30.422  31.899  14.365
37031W        W 4099  27.585  38.475  12.016
37032W        W 4100  14.813  10.301   2.208
37033W        W 4101  27.967  34.379   2.251
37034W        W 4102  19.231  40.952  10.431
37035W        W 4103   2.856  44.480   4.727
37036W        W 4104  20.097  10.721   3.725
37037W        W 4105  34.057  13.775   0.919
37038W        W 4106  14.313  43.395   3.282
37039W        W 4107  15.588   1.378  14.468
37040W        W 4108  15.605  11.670  10.483
37041W        W 4109  13.348  28.561   2.781
37042W        W 4110   2.807  27.641   0.343
37043W        W 4111  32.443  28.578  11.891
37044W        W 4112  38.960   4.842   1.365
37045W        W 4113  40.325   8.708  11.868
37046W        W 4114   1.477  24.566   4.143
37047W        W 4115  31.098  35.602   0.853
37048W        W 4116  34.478   0.445  10.981
37049W        W 4117   3.859  20.583   1.838
37050W        W 4118  40.824  28.041  12.900
37051W        W 4119  42.904  11.805   0.285
37052W        W 4120  14.809  18.683   1.867
37053W        W 4121  29.035  32.443   2.417
37054W        W 4122  24.985   0.460  11.863
37055W        W 4123  33.928  12.826   4.166
37056W        W 4124  29.026  24.535  10.484
37057W        W 4125  10.311  32.999   2.734
37058W        W 4126  43.892  13.144  10.998
37059W        W 4127  31.452  22.190   2.821
37060W        W 4128   0.270  21.027  13.528
37061W        W 4129   3.400  32.915   0.347
37062W        W 4130  10.157  36.081   0.315
37063W        W 4131  24.534  25.552   2.365
37064W        W 4132  34.105  16.073   1.246
37065W        W 4133  20.766  29.063   1.873
37066W        W 4134  32.535   8.774  14.481
37067W        W 4135   9.349  21.670  11.496
37068W        W 4136  41.522  12.839  11.571
37069W        W 4137  33.435  16.262   1.421
37070W        W 4138   2.956   6.824   4.225
37071W        W 4139  17.071  11.217  13.918
37072W        W 4140  31.447  31.450   3.298
37073W        W 4141  23.722  16.305   2.762
37074W        W 4142  16.805   1.927  10.532
37075W        W 4143  26.660  38.883   4.210
37076W        W 4144  12.717  43.963  14.000
37077W        W 4145   1.243  36.906  11.059
37078W        W 4146   5.293  14.235  11.042
37079W        W 4147  17.718  21.162  12.498
37080W        W 4148  39.062   4.434  10.597
37081W        W 4149  22.141   2.270   1.754
37082W        W 4150   5.297  38.355   4.115
37083W        W 4151   2.847   7.275   2.357
37084W        W 4152  36.887   0.835  14.306
37085W        W 4153  44.858  13.837   0.323
37086W        W 4154   5.219  16.623   4.252
37087W        W 4155  15.177  21.529   2.692
37088W        W 4156  14.190   2.260  11.025
37089W        W 4157  20.204  26.190   2.273
37090W        W 4158   0.266   4.909   4.118
37091W        W 4159  22.633  23.531  12.548
37092W        W 4160  24.587  34.060   2.387
37093W        W 4161  40.390  37.427  11.583
37094W        W 4162  15.732  33.448  10.615
37095W        W 4163  33.100  10.852   4.155
37096W        W 4164  25.643   5.895  10.465
37097W        W 4165  41.909  25.589  11.101
37098W        W 4166  37.929  34.425   0.283
37099W        W 4167  26.189  32.126   3.754
37100W        W 4168  27.950  44.334  13.958
37101W        W 4169  23.236  16.758   3.852
37102W        W 4170  18.086  42.379   4.745
37103W        W 4171  22.525  35.499  12.396
37104W        W 4172  18.713  29.155   1.289
37105W        W 4173  28.539  27.565   4.665
37106W        W 4174   5.905   9.371   2.811
37107W        W 4175  21.601  16.114   2.270
37108W        W 4176  33.585   9.715   0.257
37109W        W 4177   6.387  28.033   0.894
37110W        W 4178  16.309  43.304   1.436
37111W        W 4179  31.527  29.097   3.746
37112W        W 4180  29.660  15.816   0.440
37113W        W 4181  42.986  13.272  11.906
37114W        W 4182   1.776  17.100  11.104
37115W        W 4183   8.891  11.828   0.340
37116W        W 4184  32.576  24.231  13.948
37117W        W 4185  21.648  42.497  14.469
37118W        W 4186  27.041  30.490  13.911
37119W        W 4187   2.406   9.318   3.242
37120W        W 4188  19.160  13.616  12.516
37121W        W 4189  44.348   9.677  12.412
37122W        W 4190   0.940  14.336   3.265
37123W        W 4191  25.048  12.138  14.367
37124W        W 4192  18.085  30.462  14.387
37125W        W 4193  39.322  29.434   3.646
37126W        W 4194  39.968  22.237  11.549
37127W        W 4195  34.948   4.793  10.634
37128W        W 4196  24.687  35.415  14.774
37129W        W 4197  16.150   7.848  13.535
37130W        W 4198   9.369  39.379   3.376
37131W        W 4199  19.710  11.237  10.549
37132W        W 4200   6.184  35.455   1.822
37133W        W 4201   5.923  21.738  14.333
37134W        W 4202  33.388  18.244  14.901
37135W        W 4203  13.665  40.436  14.021
37136W        W 4204  18.705  14.635   4.271
37137W        W 4205   3.251   3.771   4.119
37138W        W 4206  20.029  41.997   3.308
37139W        W 4207  12.839  11.781   4.707
37140W        W 4208   8.169   2.902  11.474
37141W        W 4209  38.860   0.793   4.818
37142W        W 4210  10.159   9.771  11.973
37143W        W 4211  16.147  26.974   0.926
37144W        W 4212  31.578  24.698   3.654
37145W        W 4213  19.694  14.762  12.957
37146W        W 4214  27.465  27.036   3.863
37147W        W 4215   9.876   2.756   1.780
37148W        W 4216  21.717  40.496  14.927
37149W        W 4217  30.560   1.830  13.366
37150W        W 4218  10.703  39.017  12.454
37151W        W 4219  15.187   0.839  13.352
37152W        W 4220  16.692   5.373   1.372
37153W        W 4221  40.517   0.941  10.584
37154W        W 4222  25.582  30.630  12.969
37155W        W 4223  30.586  38.046  14.834
37156W        W 4224  13.227  17.244   3.798
37157W        W 4225  28.572   8.744   2.903
37158W        W 4226  38.903  42.972   5.259
37159W        W 4227   3.914  39.952  10.593
37160W        W 4228   3.924  36.069   3.641
37161W        W 4229  43.884   0.431  12.047
37162W        W 4230   1.832  10.856   4.802
37163W        W 4231  38.070  44.965  11.046
37164W        W 4232  28.935  12.792   0.423
37165W        W 4233  26.599  13.809   4.800
37166W        W 4234  37.384  28.135  11.597
37167W        W 4235  34.549  40.944  10.449
37168W        W 4236   3.450   5.882  10.627
37169W        W 4237  20.118   3.883   3.301
37170W        W 4238  35.520   4.763  10.932
37171W        W 4239  18.219   1.358  13.364
37172W        W 4240  11.844  13.277  12.530
37173W        W 4241  16.593  18.242  11.380
37174W        W 4242  12.347  31.411  14.025
37175W        W 4243  31.988  16.669   0.773
37176W        W 4244  43.449   3.889   1.826
37177W        W 4245  20.627   8.399  14.024
37178W        W 4246  38.450  15.764  13.321
37179W        W 4247  12.238  23.612  10.940
37180W        W 4248  21.073   3.306   4.695
37181W        W 4249   8.755  39.899  14.780
37182W        W 4250  13.144  21.608  12.535
37183W        W 4251  23.654  10.160   0.296
37184W        W 4252   0.373  20.272   0.331
37185W        W 4253   0.475  43.315  11.526
37186W        W 4254  31.939  12.169   3.722
37187W        W 4255   9.803  11.683  10.412
37188W        W 4256  37.018  34.102   2.801
37189W        W 4257   9.243  22.122  13.329
37190W        W 4258  19.270  10.768   1.806
37191W        W 4259  34.940  18.094   2.310
37192W        W 4260  26.969  38.386   0.793
37193W        W 4261  29.049  40.481   4.150
37194W        W 4262  23.716  43.373  13.858
37195W        W 4263  43.430  25.566   2.739
37196W        W 4264  17.755   8.169   1.851
37197W        W 4265  35.976  38.871  11.383
37198W        W 4266  33.388  30.447  12.992
37199W        W 4267  13.824  13.747  14.883
37200W        W 4268  30.513  23.069   2.831
37201W        W 4269  40.821  11.649   3.702
37202W        W 4270   6.748   3.855   2.362
37203W        W 4271  37.983  40.340  12.517
37204W        W 4272  42.016  35.499   3.186
37205W        W 4273  38.326  10.702  10.442
37206W        W 4274  10.726  41.012  11.874
37207W        W 4275  20.202   6.773  14.844
37208W        W 4276  28.174  12.176   2.768
37209W        W 4277  35.978   4.881   1.696
37210W        W 4278  41.334  15.790  12.953
37211W        W 4279  22.215   2.937   4.639
37212W        W 4280  10.643   3.216   2.299
37213W        W 4281  10.699  16.086  12.557
37214W        W 4282  26.490  19.767  13.914
37215W        W 4283  14.642  44.934   4.610
37216W        W 4284  38.998   3.869   1.919
37217W        W 4285  23.516  24.535  13.350
37218W        W 4286   6.359  14.809   3.288
37219W        W 4287  12.150  29.424   1.789
37220W        W 4288  34.559  38.880  11.542
37221W        W 4289  10.869  18.161   2.821
37222W        W 4290  36.431  15.277   2.886
37223W        W 4291  38.861  14.787  11.885
37224W        W 4292  13.343  34.983  14.280
37225W        W 4293  22.094  19.227  11.457
37226W        W 4294   0.384  38.560  11.535
37227W        W 4295   6.352  11.277  14.275
37228W        W 4296  16.711  17.081   0.867
37229W        W 4297   7.292  39.328  11.542
37230W        W 4298  22.535  22.252  10.455
37231W        W 4299  34.419  11.632   1.771
37232W        W 4300  37.040  44.901   4.233
37233W        W 4301  26.548   5.383  14.764
37234W        W 4302   0.939  31.440   4.664
37235W        W 4303  26.136  40.433  14.999
37236W        W 4304  21.690   2.727  14.851
37237W        W 4305  25.709  44.293   2.770
37238W        W 4306  31.475  24.659  10.124
37239W        W 4307  14.096  23.719  14.507
37240W        W 4308   0.890  20.595  12.484
37241W        W 4309  43.430  24.600   1.403
37242W        W 4310  19.208  24.503   4.140
37243W        W 4311   6.328   6.783  11.604
37244W        W 4312  35.441  16.708   3.325
37245W        W 4313  18.753  25.558   2.665
37246W        W 4314  20.211   2.850  12.483
37247W        W 4315  26.549  17.753  12.449
37248W        W 4316  29.506  24.154   0.817
37249W        W 4317   5.382  26.119  10.968
37250W        W 4318  24.644   1.443   4.347
37251W        W 4319   6.897  34.053   2.781
37252W        W 4320   6.898   0.910  10.922
37253W        W 4321  13.199  32.108  11.077
37254W        W 4322   9.217  14.308  11.052
37255W        W 4323  19.604  37.481   1.274
37256W        W 4324  40.446   5.430  13.796
37257W        W 4325  21.024  39.515   0.938
37258W        W 4326  32.081  23.091   0.963
37259W        W 4327  27.030   9.358   1.935
37260W        W 4328  21.691  27.505  10.894
37261W        W 4329   9.759   7.708   3.279
37262W        W 4330  21.580   4.841   0.853
37263W        W 4331   2.918   9.336  10.906
37264W        W 4332   2.965   5.409   4.210
37265W        W 4333  24.063  13.718   1.439
37266W        W 4334  10.727  38.514   1.407
37267W        W 4335  44.431  39.967  13.476
37268W        W 4336  31.608  20.069  14.915
37269W        W 4337  32.413   0.364   2.873
37270W        W 4338  26.128  27.966  10.430
37271W        W 4339  29.541  28.664  12.896
37272W        W 4340   6.387  42.295  11.085
37273W        W 4341  25.686  11.650   2.852
37274W        W 4342  10.801  15.141  12.501
37275W        W 4343  38.863  18.618   2.822
37276W        W 4344  23.550  31.107  14.500
37277W        W 4345  31.945  27.175   1.213
37278W        W 4346  22.187   3.758   4.308
37279W        W 4347  17.157  15.805   9.980
37280W        W 4348   4.861  39.837  14.307
37281W        W 4349  35.386  27.101   1.349
37282W        W 4350  29.103  36.904  13.499
37283W        W 4351  36.905  31.502  14.442
37284W        W 4352  41.009  43.892  11.104
37285W        W 4353   8.680   1.406   2.371
37286W        W 4354  21.752  14.650   1.711
37287W        W 4355  12.142   4.393  11.403
37288W        W 4356  36.018   4.447  13.021
37289W        W 4357   2.817  15.284  13.431
37290W        W 4358  10.295   5.823  10.896
37291W        W 4359  12.636   4.899   0.865
37292W        W 4360  41.522  37.559   4.774
37293W        W 4361  44.359  41.312  11.015
37294W        W 4362  33.419  23.685   2.716
37295W        W 4363  13.679  10.638   3.663
37296W        W 4364  22.518   4.230  14.944
37297W        W 4365   1.261  15.207  12.484
37298W        W 4366  19.229  24.567  12.875
37299W        W 4367  16.240  16.193   2.693
37300W        W 4368  37.983  42.339  13.358
37301W        W 4369  31.427  22.603  14.348
37302W        W 4370  15.087  19.173  10.590
37303W        W 4371  33.112  17.278   0.781
37304W        W 4372   3.255  42.894   3.765
37305W        W 4373   6.332  29.975   3.731
37306W        W 4374  13.170  43.769   1.243
37307W        W 4375  12.809  30.011  13.994
37308W        W 4376   2.278  38.870   2.293
37309W        W 4377  41.962  34.950   2.764
37310W        W 4378  12.329  23.504  13.919
37311W        W 4379   9.327  14.681  14.920
37312W        W 4380   4.878  32.566   3.825
37313W        W 4381  38.050  41.972  14.844
37314W        W 4382  22.191   3.938   2.864
37315W        W 4383  22.177   6.287   0.864
37316W        W 4384  28.937  43.317   0.962
37317W        W 4385   1.417  18.631   0.278
37318W        W 4386  32.130  12.146   2.320
37319W        W 4387   4.907  43.989  11.537
37320W        W 4388   1.887  15.683  13.045
37321W        W 4389  24.142  30.614  11.903
37322W        W 4390  42.986   3.868   2.230
37323W        W 4391  44.821  39.452  13.473
37324W        W 4392  30.601  41.946   3.858
37325W        W 4393  33.625   7.720  14.030
37326W        W 4394  22.246  15.221  10.434
37327W        W 4395  12.636  20.161   3.198
37328W        W 4396   3.890   8.211  12.539
37329W        W 4397   6.801  10.190  12.919
37330W        W 4398   1.874  34.446   1.331
37331W        W 4399  23.023   0.985  13.379
37332W        W 4400  44.910  29.427  12.928
37333W        W 4401  14.623   3.393  13.406
37334W        W 4402  33.579  22.515  13.932
37335W        W 4403  34.451  23.678   1.930
37336W        W 4404  36.366  26.559   2.741
37337W        W 4405  31.431  31.478  13.385
37338W        W 4406  26.014  31.066   0.907
37339W        W 4407   6.746  43.272   3.676
37340W        W 4408  17.613   3.264  14.846
37341W        W 4409  24.497  27.031   2.734
37342W        W 4410  43.345  39.923   0.313
37343W        W 4411  14.686  10.691  11.989
37344W        W 4412  44.407  44.348   4.620
37345W        W 4413  23.669   1.267  12.502
37346W        W 4414  44.965   3.269  11.074
37347W        W 4415  26.078  23.173  11.108
37348W        W 4416   4.286   1.238  13.376
37349W        W 4417  32.046  21.096   0.382
37350W        W 4418  39.994  43.403   2.323
37351W        W 4419  35.599   7.174  11.039
37352W        W 4420  31.585  37.007   2.296
37353W        W 4421  33.572  36.944   2.369
37354W        W 4422  25.537  36.587  14.359
37355W        W 4423  31.554   1.396   2.251
37356W        W 4424  28.557  37.423  13.874
37357W        W 4425  28.545  13.704   4.332
37358W        W 4426   4.360  19.172   2.332
37359W        W 4427   2.800  26.652  14.889
37360W        W 4428   8.183  32.408  14.373
37361W        W 4429  14.190  19.763   0.914
37362W        W 4430  12.660  36.029   4.160
37363W        W 4431  27.450   5.353  13.940
37364W        W 4432  34.593  15.582   0.425
37365W        W 4433  23.732   8.735   1.699
37366W        W 4434  42.343   0.975  13.406
37367W        W 4435  13.144  21.512   2.731
37368W        W 4436  12.219  35.435  10.547
37369W        W 4437   8.671  32.432   4.725
37370W        W 4438   8.284  40.020  12.941
37371W        W 4439  11.835  23.601  10.541
37372W        W 4440  33.081  17.073   1.215
37373W        W 4441  14.734  17.307   2.829
37374W        W 4442   9.687  41.801   2.413
37375W        W 4443   9.733  30.088  14.416
37376W        W 4444  34.441   2.458  14.994
37377W        W 4445  21.690  21.065  13.049
37378W        W 4446  42.820  41.890   2.341
37379W        W 4447   3.263  29.992   0.866
37380W        W 4448  10.766  28.434   2.873
37381W        W 4449   0.368   1.926   0.301
37382W        W 4450   8.861  37.993  13.540
37383W        W 4451  14.309  10.865  12.043
37384W        W 4452  29.171  42.798  12.021
37385W        W 4453  24.017  24.996   0.783
37386W        W 4454  35.965   2.301   0.301
37387W        W 4455  44.472  42.009   4.597
37388W        W 4456  26.620  36.075   0.912
37389W        W 4457  11.343  40.979   2.878
37390W        W 4458  43.891   5.338  10.501
37391W        W 4459  30.979   3.339  13.885
37392W        W 4460  10.306  16.078  13.392
37393W        W 4461  17.786  21.665   3.365
37394W        W 4462  29.646  35.531  10.471
37395W        W 4463   9.343  26.698   1.218
37396W        W 4464  21.711  29.474   2.693
37397W        W 4465  38.472  39.372  10.963
37398W        W 4466  24.554  42.822  10.990
37399W        W 4467   4.375  36.971   3.309
37400W        W 4468  36.890  37.070  11.427
37401W        W 4469  28.978  40.538  14.501
37402W        W 4470  10.236  13.774   1.754
37403W        W 4471  38.522   5.420   1.247
37404W        W 4472  44.885  23.113   0.966
37405W        W 4473   7.200  27.197  12.059
37406W        W 4474   6.195  35.945  10.512
37407W        W 4475  33.039  18.096  11.926
37408W        W 4476  37.529   1.259   4.682
37409W        W 4477  19.247  15.795  14.784
37410W        W 4478  22.719  34.503  13.506
37411W        W 4479   7.728  17.567   3.703
37412W        W 4480  11.137  39.383   3.821
37413W        W 4481   6.412  12.638   2.674
37414W        W 4482   7.676   9.205   1.910
37415W        W 4483  43.844  35.051  13.499
37416W        W 4484  40.473   7.252  14.911
37417W        W 4485  19.160  44.334  11.587
37418W        W 4486   3.859  17.782   4.820
37419W        W 4487  44.855  32.628   2.728
37420W        W 4488  38.967  44.354   5.122
37421W        W 4489  23.222   4.258  13.452
37422W        W 4490   1.766  33.966  14.932
37423W        W 4491  27.169  25.514  11.572
37424W        W 4492  38.338  19.700  11.873
37425W        W 4493  40.899  39.899  12.072
37426W        W 4494  26.615   1.799   2.831
37427W        W 4495  42.508   3.725   4.739
37428W        W 4496  18.185  24.169  11.036
37429W        W 4497  14.595  16.081   0.458
37430W        W 4498   1.338  28.970  14.987
37431W        W 4499  37.517  33.559   4.710
37432W        W 4500  24.558  16.153  14.445
37433W        W 4501  11.267   3.404  12.094
37434W        W 4502  15.772  13.294  14.960
37435W        W 4503   6.329  33.450   0.422
37436W        W 4504   8.290   5.841  14.462
37437W        W 4505   3.315   0.981  13.327
37438W        W 4506  23.690  13.697  12.022
37439W        W 4507  12.176  17.569   3.347
37440W        W 4508  38.889  43.505   0.308
37441W        W 4509  12.189  40.515   2.388
37442W        W 4510  43.493   7.214   0.470
37443W        W 4511  43.829  32.573  12.517
37444W        W 4512   5.772   4.352   0.254
37445W        W 4513   6.792  44.422   1.833
37446W        W 4514  25.190  36.408   3.643
37447W        W 4515  21.027  18.658  10.501
37448W        W 4516  21.182  13.725  14.351
37449W        W 4517  17.609  42.487  14.909
37450W        W 4518  40.517  29.644   2.317
37451W        W 4519   9.772   9.755   1.325
37452W        W 4520  30.630   6.721   0.728
37453W        W 4521  39.465   5.847  12.391
37454W        W 4522  29.933  11.654  12.846
37455W        W 4523  15.104   2.367   2.226
37456W        W 4524  10.179  21.244  13.311
37457W        W 4525   8.184  15.321  11.590
37458W        W 4526  34.976  29.170   0.412
37459W        W 4527  13.250  23.584   2.326
37460W        W 4528  11.708  42.926   4.722
37461W        W 4529  37.408  34.425   3.642
37462W        W 4530  42.815  15.688  10.900
37463W        W 4531   6.723  15.162  13.028
37464W        W 4532  10.275  10.737  13.009
37465W        W 4533  42.334  26.113   2.734
37466W        W 4534  27.663  11.254  14.004
37467W        W 4535  40.042  21.064   0.445
37468W        W 4536  17.093  16.630   0.343
37469W        W 4537   2.235   1.444   2.296
37470W        W 4538  11.705  35.100   4.165
37471W        W 4539  44.937  32.092  13.958
37472W        W 4540   5.807   9.654  13.030
37473W        W 4541  28.021  40.501  14.832
37474W        W 4542  38.003  37.369  13.372
37475W        W 4543   4.882   0.262   4.657
37476W        W 4544  25.664  33.606   4.635
37477W        W 4545  38.518  34.542  10.598
37478W        W 4546  20.573  43.487   4.769
37479W        W 4547  33.064  40.999   3.770
37480W        W 4548   2.288   3.890  10.459
37481W        W 4549  33.430  27.032   2.301
37482W        W 4550  24.590  43.876   1.437
37483W        W 4551  35.048  36.358   0.756
37484W        W 4552  43.393  43.312   3.770
37485W        W 4553  10.650  14.293   0.344
37486W        W 4554  32.988  20.250  10.894
37487W        W 4555  39.835  42.010   4.639
37488W        W 4556  33.599  10.636  14.874
37489W        W 4557  18.630   8.311   2.382
37490W        W 4558  19.581   8.283   1.316
37491W        W 4559  31.474  31.154   4.817
37492W        W 4560  24.663  18.580  12.895
37493W        W 4561   0.973  37.513  11.418
37494W        W 4562  11.744  44.303   0.841
37495W        W 4563  15.589  33.914  10.456
37496W        W 4564  42.455   0.353   3.859
37497W        W 4565  39.544  34.960   1.787
37498W        W 4566  25.585  39.550  13.432
37499W        W 4567  19.534  18.629   0.378
37500W        W 4568  30.059  30.557   3.300
37501W        W 4569  22.524  31.531  12.435
37502W        W 4570  21.141  17.146   1.347
37503W        W 4571  13.191  28.057  12.530
37504W        W 4572  18.659  37.576   1.784
37505W        W 4573   2.459  39.438  11.429
37506W        W 4574  11.233  31.941   0.370
37507W        W 4575   5.332  32.042  13.504
37508W        W 4576  29.143   7.373  12.889
37509W        W 4577   4.379  11.369   1.859
37510W        W 4578  44.805  16.127   0.303
37511W        W 4579   8.859   1.421   1.780
37512W        W 4580  32.534  26.598   1.877
37513W        W 4581  35.372  22.583  10.447
37514W        W 4582  35.408  33.056  12.073
37515W        W 4583  18.722   0.380   2.805
37516W        W 4584  44.943  20.214   3.189
37517W        W 4585  22.179  42.949   1.304
37518W        W 4586  11.153  21.182   0.836
37519W        W 4587  19.182  17.694  13.034
37520W        W 4588  29.467   1.733  14.430
37521W        W 4589   4.207  12.243  10.428
37522W        W 4590   0.840  15.158  10.563
37523W        W 4591  16.608  19.669   4.324
37524W        W 4592  22.126  27.966   3.340
37525W        W 4593  39.453   5.418  12.092
37526W        W 4594  43.510  44.941  13.029
37527W        W 4595  42.838   3.271  14.895
37528W        W 4596  13.700  38.470   4.617
37529W        W 4597  41.862  27.980   0.909
37530W        W 4598  26.031  37.507  14.278
37531W        W 4599  10.782   8.804   3.206
37532W        W 4600   4.403  43.856  12.939
37533W        W 4601   1.852  14.126   2.750
37534W        W 4602  20.673  40.850  12.457
37535W        W 4603   0.392  28.128   3.167
37536W        W 4604   2.756  39.862   4.806
37537W        W 4605  38.477   7.325   3.801
37538W        W 4606  31.083  21.541  13.062
37539W        W 4607   0.358  40.370   1.750
37540W        W 4608  22.049  41.942  10.581
37541W        W 4609   5.795  29.457  13.384
37542W        W 4610  17.590  26.643  14.919
37543W        W 4611  35.370   0.891  13.897
37544W        W 4612  19.600   4.374  13.353
37545W        W 4613  15.179   8.839   3.707
37546W        W 4614  11.310  12.346  13.849
37547W        W 4615  16.176  15.808  13.923
37548W        W 4616  25.612   3.730   1.272
37549W        W 4617  29.063   3.361   2.394
37550W        W 4618  40.444  38.420  10.984
37551W        W 4619  31.952  19.233  11.965
37552W        W 4620  40.819  18.094  13.042
37553W        W 4621  43.892  25.690   0.295
37554W        W 4622  15.770  33.127   4.341
37555W        W 4623   6.911  32.941   2.696
37556W        W 4624  43.804  15.579  10.906
37557W        W 4625  30.937  22.580  12.027
37558W        W 4626   7.810  31.481  10.562
37559W        W 4627  32.930   3.836  14.399
37560W        W 4628   2.245  29.617   4.658
37561W        W 4629  29.056  33.439  14.283
37562W        W 4630   9.879  43.365  10.594
37563W        W 4631  17.691  36.996   0.364
37564W        W 4632  19.198  25.615  13.356
37565W        W 4633  27.669  27.065  11.075
37566W        W 4634  33.603  16.711  14.853
37567W        W 4635  11.728  27.114   3.301
37568W        W 4636  19.746  36.978  13.370
37569W        W 4637  16.273   4.315  14.402
37570W        W 4638  29.445  33.411   2.775
37571W        W 4639   1.920  23.625  12.479
37572W        W 4640  18.239   4.215  13.046
37573W        W 4641  39.487   1.971   0.825
37574W        W 4642  24.073   9.212   0.753
37575W        W 4643  14.285  27.589  12.086
37576W        W 4644  23.104  22.580   2.267
37577W        W 4645  13.731  16.250   2.701
37578W        W 4646   9.814   7.682  11.120
37579W        W 4647  41.789  44.362  12.443
37580W        W 4648   0.915  17.593   1.885
37581W        W 4649   5.733  34.370  11.386
37582W        W 4650   6.878  16.706  12.097
37583W        W 4651   5.847  17.293   4.269
37584W        W 4652  40.383  40.414   2.864
37585W        W 4653  28.519  34.009   3.313
37586W        W 4654  22.607  43.349  10.528
37587W        W 4655  12.648  32.604   4.835
37588W        W 4656  28.178  36.094   3.284
37589W        W 4657  35.420  29.473   1.330
37590W        W 4658  19.644   9.347   0.896
37591W        W 4659  36.921  18.170   1.426
37592W        W 4660   2.819  25.014  12.029
37593W        W 4661  36.489   6.325  14.861
37594W        W 4662  16.611  21.732   3.161
37595W        W 4663  38.535  28.510  11.897
37596W        W 4664   4.808  14.254   3.373
37597W        W 4665   0.748  25.667   3.251
37598W        W 4666  33.914  20.725   3.263
37599W        W 4667  32.521   7.772   3.343
37600W        W 4668  44.917  21.017   0.807
37601W        W 4669   4.261   6.772  11.066
37602W        W 4670  43.826   1.972   1.700
37603W        W 4671  27.963  12.761  12.517
37604W        W 4672  38.854   3.271  13.463
37605W        W 4673  43.371  33.992   2.304
37606W        W 4674   9.320  17.249   3.854
37607W        W 4675  36.081  19.275   2.181
37608W        W 4676  11.768   2.879   5.322
37609W        W 4677  25.545  23.732  11.047
37610W        W 4678  36.371   7.201   1.878
37611W        W 4679  30.481  24.624  14.353
37612W        W 4680  16.791  37.337  11.397
37613W        W 4681  18.547  37.385  13.399
37614W        W 4682  18.202  33.545  13.331
37615W        W 4683  35.071  40.809  10.511
37616W        W 4684  24.227  36.545  14.885
37617W        W 4685  31.499  26.995  10.605
37618W        W 4686   5.427  32.397  13.059
37619W        W 4687  10.211  39.361   0.784
37620W        W 4688   8.754  43.969   4.147
37621W        W 4689  10.275  24.586   3.743
37622W        W 4690  39.374   4.839  10.614
37623W        W 4691  25.124  19.608  12.962
37624W        W 4692  20.623  19.767  10.937
37625W        W 4693  25.538   1.447   1.367
37626W        W 4694  44.327  22.507   9.922
37627W        W 4695  11.739  40.365   3.804
37628W        W 4696  22.648  16.629  11.063
37629W        W 4697  20.685  34.426   1.753
37630W        W 4698   3.340  21.738   4.824
37631W        W 4699  18.119  31.908   3.303
37632W        W 4700  35.964  44.374  11.519
37633W        W 4701  11.186  37.369  11.472
37634W        W 4702  40.506  43.835   2.361
37635W        W 4703  10.253  32.629  13.333
37636W        W 4704  25.597  43.986  11.573
37637W        W 4705  35.437  15.145  13.348
37638W        W 4706  39.845  36.900  14.323
37639W        W 4707  20.724  14.777  13.512
37640W        W 4708  40.370  17.666   0.458
37641W        W 4709  19.738  25.990   1.870
37642W        W 4710  33.112   1.933   2.271
37643W        W 4711  21.119  27.450  10.469
37644W        W 4712  15.748  25.007   4.158
37645W        W 4713   0.892  20.522  14.960
37646W        W 4714  20.687  19.074  10.913
37647W        W 4715  41.335  36.406  11.030
37648W        W 4716  31.045  21.659  13.411
37649W        W 4717  32.544  24.594   0.277
37650W        W 4718  38.347  39.332   3.685
37651W        W 4719  28.044   5.929  11.419
37652W        W 4720   1.290  28.969  10.988
37653W        W 4721   2.914  42.830  14.869
37654W        W 4722  34.445  28.106   3.756
37655W        W 4723  39.926  44.390   4.177
37656W        W 4724  27.100  24.019  13.862
37657W        W 4725   1.859   3.376  12.507
37658W        W 4726  13.342  24.557  12.884
37659W        W 4727  13.286  21.155   0.243
37660W        W 4728  27.508   7.779  13.842
37661W        W 4729  22.210  39.900  11.597
37662W        W 4730  33.476  44.433   3.148
37663W        W 4731  23.621   7.259  12.380
37664W        W 4732  38.553  40.404  13.409
37665W        W 4733   3.955  17.647  11.446
37666W        W 4734  41.954  36.875  11.377
37667W        W 4735  18.561  39.363   0.299
37668W        W 4736  42.301  30.524  12.847
37669W        W 4737  23.987  42.452  12.022
37670W        W 4738  44.791  10.656   4.348
37671W        W 4739   8.323   0.804   3.252
37672W        W 4740  23.082   7.720  10.453
37673W        W 4741   1.828   6.746  11.559
37674W        W 4742  32.065  27.451  10.967
37675W        W 4743  19.155  12.675  10.942
37676W        W 4744  12.119   0.248   0.305
37677W        W 4745  27.524   5.867   2.851
37678W        W 4746  16.776  39.547   3.647
37679W        W 4747  19.074  37.967  14.438
37680W        W 4748   6.906  40.934   4.823
37681W        W 4749   8.235  39.403   4.688
37682W        W 4750  12.154  41.308   4.725
37683W        W 4751  28.084  29.924   2.814
37684W        W 4752  34.046  11.317   1.211
37685W        W 4753  22.074  35.948  10.911
37686W        W 4754  12.238   0.987   2.772
37687W        W 4755   5.728  15.688  11.431
37688W        W 4756   7.210  31.073  10.517
37689W        W 4757  13.332  19.173   3.224
37690W        W 4758  41.839  16.183   0.322
37691W        W 4759   9.812  23.099   1.403
37692W        W 4760   7.698   4.266   1.429
37693W        W 4761  11.142   6.311   1.230
37694W        W 4762  14.139  34.975   4.753
37695W        W 4763  17.759   6.899   4.612
37696W        W 4764  28.477  29.477   4.706
37697W        W 4765  20.232  41.532   4.626
37698W        W 4766  14.679   2.868  14.969
37699W        W 4767  16.576  23.195  13.525
37700W        W 4768  31.903  34.951   0.379
37701W        W 4769  32.054  20.679   0.809
37702W        W 4770  23.580  33.553  14.297
37703W        W 4771  28.029  40.804   3.693
37704W        W 4772  16.759   7.833   2.685
37705W        W 4773  39.345  23.138  13.045
37706W        W 4774  20.073  12.316   2.354
37707W        W 4775  12.771  44.328  14.759
37708W        W 4776  39.439  18.670   2.893
37709W        W 4777  42.945   8.796  11.116
37710W        W 4778  16.678  39.915   4.315
37711W        W 4779   1.887  33.898   1.325
37712W        W 4780  34.060  31.907  10.458
37713W        W 4781  16.691  30.925   2.805
37714W        W 4782  34.019  16.673   0.317
37715W        W 4783  12.635  18.213  12.974
37716W        W 4784  38.933  10.362  10.559
37717W        W 4785  15.176  15.094   3.863
37718W        W 4786   5.424  16.271   3.843
37719W        W 4787  40.866  42.429  14.363
37720W        W 4788  12.619  42.847  10.069
37721W        W 4789  19.229  22.071  10.446
37722W        W 4790  16.606  14.588   2.815
37723W        W 4791  26.596   5.751   2.864
37724W        W 4792   2.335  36.974   3.798
37725W        W 4793  30.044  10.759   1.763
37726W        W 4794  16.757   2.865  13.365
37727W        W 4795  32.057  18.181  12.847
37728W        W 4796  35.090  42.867   4.289
37729W        W 4797   2.228  16.297  11.442
37730W        W 4798  34.000   7.668   3.653
37731W        W 4799   7.896  19.104  14.893
37732W        W 4800  14.629  16.575   0.373
37733W        W 4801  40.315  38.964  10.152
37734W        W 4802   0.783   0.864  13.425
37735W        W 4803   4.333  22.672   1.428
37736W        W 4804  36.537   1.355  10.898
37737W        W 4805  28.984   9.816   2.838
37738W        W 4806  27.189  38.047   3.786
37739W        W 4807  32.114   9.385  11.058
37740W        W 4808   9.260   2.761   0.889
37741W        W 4809  43.832  32.510   1.415
37742W        W 4810  23.565  39.949   1.304
37743W        W 4811   1.890   9.226  12.025
37744W        W 4812  44.340  37.010  14.323
37745W        W 4813  12.239  15.667  10.641
37746W        W 4814  14.281  11.627  11.932
37747W        W 4815   9.201  38.519   0.279
37748W        W 4816  44.999   0.325   1.855
37749W        W 4817  30.121  22.120  13.823
37750W        W 4818   6.903  43.010  14.818
37751W        W 4819  14.596  33.394  13.376
37752W        W 4820   4.324  28.530   1.859
37753W        W 4821  27.090  35.072   3.816
37754W        W 4822   3.844  24.126  10.436
37755W        W 4823  38.027  23.585  12.387
37756W        W 4824  26.141  32.538   1.840
37757W        W 4825  13.132  11.262  10.523
37758W        W 4826   6.845  23.150  10.506
37759W        W 4827  11.129   1.751  14.764
37760W        W 4828  41.944  20.202   3.785
37761W        W 4829  44.437  33.603  10.956
37762W        W 4830  39.324  16.639  11.858
37763W        W 4831  14.620  26.078   0.786
37764W        W 4832   0.895  14.098   1.751
37765W        W 4833  39.945  39.814  14.288
37766W        W 4834  35.455  35.364  11.923
37767W        W 4835  23.728  44.397   2.798
37768W        W 4836  11.717   2.753   1.821
37769W        W 4837  30.100   3.880   4.175
37770W        W 4838  39.844   6.745   3.791
37771W        W 4839  12.613  12.318   3.165
37772W        W 4840  28.455  40.417   2.291
37773W        W 4841   0.286  19.272  12.438
37774W        W 4842  10.257  43.973   3.216
37775W        W 4843  44.477  11.855  10.455
37776W        W 4844   8.679  24.595  11.930
37777W        W 4845  18.103  31.909   3.794
37778W        W 4846  22.178   2.960   3.216
37779W        W 4847  14.328   8.202  10.445
37780W        W 4848  25.512   8.363  13.360
37781W        W 4849  29.980  20.205  10.634
37782W        W 4850  37.539  25.197  12.495
37783W        W 4851  22.692  39.971   1.379
37784W        W 4852   6.886  14.292   3.361
37785W        W 4853  13.223   5.322   3.377
37786W        W 4854  25.053  10.244  13.352
37787W        W 4855   0.742  34.490   3.775
37788W        W 4856   0.812   7.826  14.469
37789W        W 4857  17.297  10.275  12.556
37790W        W 4858  27.981  29.470   0.769
37791W        W 4859   7.841  37.418   4.161
37792W        W 4860   6.307  14.335   1.239
37793W        W 4861  35.466  21.637  11.968
37794W        W 4862  22.209  42.458  14.321
37795W        W 4863   2.337  36.874  11.501
37796W        W 4864  38.483  23.716  12.519
37797W        W 4865  40.970  41.436   3.264
37798W        W 4866  23.550   4.436   2.276
37799W        W 4867  44.275  12.680   3.632
37800W        W 4868  41.848   8.274  12.343
37801W        W 4869  31.151  42.855  12.903
37802W        W 4870  18.172  35.953   1.329
37803W        W 4871  20.075  31.919   4.199
37804W        W 4872  16.246  24.522  14.777
37805W        W 4873  36.994  22.997  12.054
37806W        W 4874  15.809  13.716   2.834
37807W        W 4875  23.181  13.637  14.000
37808W        W 4876  42.941  35.940   3.154
37809W        W 4877  36.865  42.012  13.977
37810W        W 4878   5.247  12.664  14.010
37811W        W 4879   3.334  38.980   2.280
37812W        W 4880   7.886  18.565   2.680
37813W        W 4881  35.957  26.007  14.427
37814W        W 4882  36.944  34.991  13.987
37815W        W 4883   7.200  10.851  14.828
37816W        W 4884   7.310   4.382   4.304
37817W        W 4885  40.502  29.440  14.898
37818W        W 4886  36.907  33.412   1.896
37819W        W 4887   5.709   1.375   4.772
37820W        W 4888  38.882  17.624  13.384
37821W        W 4889   1.819  39.485  10.565
37822W        W 4890  35.045  29.038  12.346
37823W        W 4891  37.911   3.887   4.169
37824W        W 4892  26.683  26.530  13.536
37825W        W 4893  17.760   4.735  11.893
37826W        W 4894  36.894  36.498  14.412
37827W        W 4895  33.025  37.438  14.378
37828W        W 4896   1.271  20.030   0.946
37829W        W 4897  23.027  23.232  14.806
37830W        W 4898  32.133  41.420  12.429
37831W        W 4899  12.312  19.140  11.909
37832W        W 4900  18.640   2.741   4.328
37833W        W 4901   1.448  14.774   1.324
37834W        W 4902  17.729  16.209   1.814
37835W        W 4903  38.931  17.153  14.794
37836W        W 4904  19.238   4.438  10.571
37837W        W 4905  15.612  20.754   1.255
37838W        W 4906   3.383   4.372   3.178
37839W        W 4907  13.286  16.254   2.389
37840W        W 4908  18.137  40.484  13.370
37841W        W 4909  23.049   0.427   1.712
37842W        W 4910  27.619  20.138   4.218
37843W        W 4911  15.156  38.425  10.468
37844W        W 4912  38.353  33.525  14.444
37845W        W 4913  37.449  22.211   1.215
37846W        W 4914  12.137  31.098   3.797
37847W        W 4915  37.345  19.601   4.241
37848W        W 4916   3.399  33.911  12.444
37849W        W 4917  30.596  21.695  13.938
37850W        W 4918  38.364  27.109   2.238
37851W        W 4919  35.436   8.293  13.318
37852W        W 4920  14.672  25.123   3.295
37853W        W 4921   9.768   9.246   3.232
37854W        W 4922  29.580  15.701  13.808
37855W        W 4923  40.528  28.948   0.459
37856W        W 4924  44.458  11.684  11.887
37857W        W 4925  27.472  31.119   4.785
37858W        W 4926  11.250   7.724  14.410
37859W        W 4927  21.041  27.949  14.421
37860W        W 4928  12.183   8.193  11.381
37861W        W 4929  25.979  30.137   4.143
37862W        W 4930  40.820  41.409   4.301
37863W        W 4931   9.883   2.431  11.062
37864W        W 4932  32.007  29.092  13.859
37865W        W 4933  41.864  43.766  12.987
37866W        W 4934  43.316  36.526  14.406
37867W        W 4935  30.594  25.502  12.967
37868W        W 4936  27.959  37.906  13.868
37869W        W 4937  11.259  31.610  12.941
37870W        W 4938  37.036  26.181  14.961
37871W        W 4939   4.852  36.860  11.007
37872W        W 4940  22.615  38.409   3.848
37873W        W 4941  44.411  16.634   2.865
37874W        W 4942  31.939  14.642   3.200
37875W        W 4943  21.089  43.826  12.873
37876W        W 4944  31.116  31.995  11.394
37877W        W 4945  34.105  16.764  14.872
37878W        W 4946  41.909  40.987   3.698
37879W        W 4947  27.481  19.728  12.357
37880W        W 4948  16.598  29.973  12.408
37881W        W 4949  33.944   0.419  11.949
37882W        W 4950   4.272   2.262   3.165
37883W        W 4951  14.287  20.114  13.818
37884W        W 4952  19.685  12.818  13.819
37885W        W 4953  40.922  13.621  10.518
37886W        W 4954  10.342  10.195   1.787
37887W        W 4955  12.250  14.241   4.149
37888W        W 4956   4.740   6.248   5.305
37889W        W 4957   8.706  22.671  13.831
37890W        W 4958   8.342   9.882  12.012
37891W        W 4959   5.282  23.532  14.771
37892W        W 4960  41.299  26.581   3.311
37893W        W 4961   6.883  30.055   2.357
37894W        W 4962  29.123  18.240   1.774
37895W        W 4963  33.476  36.518   1.287
37896W        W 4964   3.845  33.426   3.785
37897W        W 4965  23.217  12.213  13.448
37898W        W 4966  17.302   6.729   4.126
37899W        W 4967  25.145   1.930  10.543
37900W        W 4968   1.417  14.671   4.830
37901W        W 4969  12.729   6.768   0.737
37902W        W 4970  20.573   8.891  11.859
37903W        W 4971  26.593  37.952   1.274
37904W        W 4972  29.535  44.264   5.087
37905W        W 4973  30.464  32.559   3.315
37906W        W 4974   8.269  13.171  12.007
37907W        W 4975  27.053   7.238   4.763
37908W        W 4976  37.436  40.339  10.489
37909W        W 4977  22.021  20.753  11.088
37910W        W 4978  44.922   2.729  11.564
37911W        W 4979  29.509  27.642  14.466
37912W        W 4980  35.036  22.733  13.498
37913W        W 4981  33.615   0.976  14.330
37914W        W 4982  37.519   0.398   0.442
37915W        W 4983  31.562  23.099  12.450
37916W        W 4984  19.171   1.477   4.146
37917W        W 4985  28.160  24.686   3.334
37918W        W 4986  37.898  38.503   0.938
37919W        W 4987  31.504   1.955   3.755
37920W        W 4988  11.136   0.379  10.078
37921W        W 4989  15.708  41.854   3.151
37922W        W 4990  10.194  22.605   0.920
37923W        W 4991   7.813   0.403  11.933
37924W        W 4992  10.714   3.386  12.422
37925W        W 4993  28.576  23.070  13.347
37926W        W 4994  20.563  13.285  14.476
37927W        W 4995   3.799  23.698   0.304
37928W        W 4996   0.315  27.101   2.808
37929W        W 4997  35.996   7.693  11.028
37930W        W 4998  39.481  43.434  13.797
37931W        W 4999  17.648  20.222   2.377
37932W        W 5000  38.443  22.098  11.875
37933W        W 5001  28.514  25.578   0.833
37934W        W 5002   4.299   0.849  11.894
37935W        W 5003  38.843   9.225  12.040
37936W        W 5004  26.523  40.457  10.449
37937W        W 5005   6.218  39.557  10.452
37938W        W 5006   9.655  13.105  12.497
37939W        W 5007  27.076  19.581   1.370
37940W        W 5008  37.424   6.843  13.916
37941W        W 5009   6.341  38.501   2.829
37942W        W 5010  39.391   2.312  11.024
37943W        W 5011  11.841  12.848   4.688
37944W        W 5012   4.894  26.191   4.274
37945W        W 5013  42.012  19.582  12.386
37946W        W 5014  13.727  12.339   1.756
37947W        W 5015  26.091   9.239   0.402
37948W        W 5016  32.102  16.285   4.659
37949W        W 5017  23.016   5.365  12.478
37950W        W 5018  34.049  28.162  12.047
37951W        W 5019  17.076  14.595   4.682
37952W        W 5020   1.909   7.862   2.260
37953W        W 5021  31.061  35.470  13.819
37954W        W 5022  18.734  29.005  10.577
37955W        W 5023  44.840  21.183   2.705
37956W        W 5024  14.234  33.913   3.679
37957W        W 5025  10.750  26.512   2.224
37958W        W 5026  14.648  11.368  12.482
37959W        W 5027  39.553   0.436  11.927
37960W        W 5028   9.850   7.763   3.669
37961W        W 5029  11.741  28.058  12.858
37962W        W 5030  43.916   1.937   2.868
37963W        W 5031   7.407  22.252  12.562
37964W        W 5032  18.065   4.399  13.545
37965W        W 5033  19.768  15.128  12.894
37966W        W 5034  16.138  12.750  10.636
37967W        W 5035  15.284   2.229  14.994
37968W        W 5036  26.181  11.623   1.732
37969W        W 5037  21.126  16.622  13.993
37970W        W 5038  28.610   1.466  14.779
37971W        W 5039  20.656  29.607  14.919
37972W        W 5040  33.917  41.974   3.742
37973W        W 5041  11.810  41.519   4.121
37974W        W 5042  10.677  11.264  12.870
37975W        W 5043  21.601  19.088   2.695
37976W        W 5044  36.900  15.776   1.708
37977W        W 5045   6.396  12.123   3.268
37978W        W 5046  17.662   5.734  13.010
37979W        W 5047  44.448  12.700  10.100
37980W        W 5048   8.706   4.900   0.292
37981W        W 5049  27.503  29.465  12.974
37982W        W 5050  22.613  44.427  12.397
37983W        W 5051  35.008  28.463   2.200
37984W        W 5052  30.951  11.201   3.211
37985W        W 5053  10.221  40.375   1.812
37986W        W 5054  19.154  31.108   1.742
37987W        W 5055  27.491  12.275  11.122
37988W        W 5056  18.077  25.038  13.919
37989W        W 5057  23.199  20.698  12.447
37990W        W 5058  21.647  24.497  14.491
37991W        W 5059   2.374  44.789   0.918
37992W        W 5060  37.062  44.449  13.442
37993W        W 5061   9.312  42.859  10.423
37994W        W 5062  28.679  23.724  14.830
37995W        W 5063   8.685  28.620   3.218
37996W        W 5064  37.907  19.153   1.700
37997W        W 5065  12.726  19.107   3.869
37998W        W 5066  37.390  35.499   2.759
37999W        W 5067  43.395   4.937   0.869
38000W        W 5068  24.029  37.563   4.766
38001W        W 5069  35.462  32.556   1.908
38002W        W 5070  10.361  21.538  13.905
38003W        W 5071  12.253  21.570  14.834
38004W        W 5072   0.936  26.146   0.932
38005W        W 5073  15.695  12.178  14.765
38006W        W 5074  26.202  37.996  13.364
38007W        W 5075  27.585  29.069  10.516
38008W        W 5076   0.296  27.182   4.322
38009W        W 5077  11.706  24.086   3.630
38010W        W 5078  28.658  14.676  13.406
38011W        W 5079  35.996  26.121  11.453
38012W        W 5080  39.986  22.034  13.812
38013W        W 5081   6.325  38.034   0.277
38014W        W 5082  30.620  13.320   1.770
38015W        W 5083  31.945  34.892  14.916
38016W        W 5084  19.680  16.250  12.441
38017W        W 5085   0.880   4.365  10.473
38018W        W 5086  35.468  39.910  11.431
38019W        W 5087   5.379  38.070   3.636
38020W        W 5088  43.002  22.641  14.292
38021W        W 5089  32.913  12.280  12.835
38022W        W 5090  12.230  41.787  14.343
38023W        W 5091  44.451  29.065  14.488
38024W        W 5092  22.040  11.314   3.814
38025W        W 5093  25.576  37.873   2.344
38026W        W 5094  43.899  34.418   3.723
38027W        W 5095  15.720  15.624  13.889
38028W        W 5096  21.236  12.682   2.306
38029W        W 5097  14.203  40.525   1.318
38030W        W 5098  15.319  36.376   4.167
38031W        W 5099  29.518   1.236  11.900
38032W        W 5100  13.693  28.657   1.745
38033W        W 5101  11.845   0.904   2.332
38034W        W 5102  29.611   1.738  12.341
38035W        W 5103  36.955  14.300   0.300
38036W        W 5104  35.399  40.993  13.459
38037W        W 5105  22.732   9.881  13.507
38038W        W 5106  43.407  35.991   3.722
38039W        W 5107  42.384  37.937   3.298
38040W        W 5108   6.321  18.721   0.790
38041W        W 5109  11.795  41.472   3.254
38042W        W 5110  19.776  33.004  11.468
38043W        W 5111  26.078  33.972  12.018
38044W        W 5112   5.829  43.014   1.242
38045W        W 5113  15.100  35.024   0.757
38046W        W 5114  21.522   1.776   0.747
38047W        W 5115  11.831  31.108   4.698
38048W        W 5116  24.614  36.872   4.340
38049W        W 5117  32.990  44.357   4.740
38050W        W 5118  20.217   0.466  11.105
38051W        W 5119  36.092  44.797  13.956
38052W        W 5120  14.254   9.207  13.476
38053W        W 5121  33.598  44.783   3.293
38054W        W 5122   8.749  35.464  13.920
38055W        W 5123  34.600  14.730  11.115
38056W        W 5124  15.705  26.549   3.282
38057W        W 5125   3.868  41.515   3.686
38058W        W 5126  31.929  42.443  11.419
38059W        W 5127  23.692  33.418  11.570
38060W        W 5128  42.472  23.632  14.505
38061W        W 5129   8.336  28.145  12.060
38062W        W 5130  42.305   5.815  13.806
38063W        W 5131   8.898  36.570  14.032
38064W        W 5132  34.581  27.690   4.626
38065W        W 5133  42.819   7.881   3.223
38066W        W 5134  12.823  35.968   1.730
38067W        W 5135  14.717   0.967   2.770
38068W        W 5136  33.956  19.780  10.447
38069W        W 5137  13.322  32.394   0.278
38070W        W 5138  28.671  26.498  14.477
38071W        W 5139   8.387  35.082   1.314
38072W        W 5140  15.145  18.715   1.826
38073W        W 5141  41.506  15.135  11.525
38074W        W 5142  14.746  36.048   2.320
38075W        W 5143  37.965  37.879   0.468
38076W        W 5144  27.632  27.518  14.019
38077W        W 5145  29.669  30.096   1.832
38078W        W 5146   5.813  10.687   3.870
38079W        W 5147  12.763  19.566  13.448
38080W        W 5148   5.913  44.943  12.038
38081W        W 5149   2.291  31.505   1.244
38082W        W 5150  23.165  44.800   4.705
38083W        W 5151  11.673  28.182   2.777
38084W        W 5152  40.948  21.718  10.916
38085W        W 5153  14.106  44.494  11.557
38086W        W 5154  17.775   4.297   2.798
38087W        W 5155  29.061  41.457   2.853
38088W        W 5156   5.908  21.027  11.418
38089W        W 5157  33.010  40.880  12.356
38090W        W 5158  16.145  25.090  10.893
38091W        W 5159  24.603  33.544   1.258
38092W        W 5160  23.687  11.203  13.446
38093W        W 5161   5.337   9.277  11.929
38094W        W 5162  27.647  20.724   4.730
38095W        W 5163  12.242  11.677   3.286
38096W        W 5164  35.599  38.470  12.016
38097W        W 5165  26.576  29.028  11.568
38098W        W 5166  10.686  36.856  11.976
38099W        W 5167   8.265   3.276   2.288
38100W        W 5168  27.119  23.169   2.345
38101W        W 5169  25.966  27.968   0.388
38102W        W 5170   1.471  36.005  14.351
38103W        W 5171  38.819  35.911   2.868
38104W        W 5172  23.671  35.536   3.249
38105W        W 5173  20.229  38.346   9.988
38106W        W 5174  38.904   1.305  11.129
38107W        W 5175  11.771   5.267  10.566
38108W        W 5176  20.760  18.177   0.851
38109W        W 5177   9.265  21.258  13.435
38110W        W 5178  21.021  35.880  10.945
38111W        W 5179  34.905  29.482  14.759
38112W        W 5180  32.053  34.873  13.318
38113W        W 5181  29.570   7.874  12.435
38114W        W 5182  10.727  12.812  13.331
38115W        W 5183  18.273  23.710  11.500
38116W        W 5184  34.528   9.245  10.954
38117W        W 5185  39.381  31.470   2.358
38118W        W 5186  13.627   8.272  13.980
38119W        W 5187  26.168  35.479  13.478
38120W        W 5188  37.447  20.725  10.613
38121W        W 5189   6.276  39.863  14.516
38122W        W 5190  42.322  24.109  13.483
38123W        W 5191  11.793  23.570  10.146
38124W        W 5192  36.524  42.944  14.834
38125W        W 5193  30.105  33.393  14.992
38126W        W 5194  29.533  43.802  12.904
38127W        W 5195  26.058  35.875  12.409
38128W        W 5196   7.692  14.199   0.339
38129W        W 5197  20.262  13.325   0.375
38130W        W 5198   0.925  12.763   2.729
38131W        W 5199  24.572   0.410  14.899
38132W        W 5200  43.844   0.331   4.144
38133W        W 5201   0.463  21.708  12.438
38134W        W 5202  39.353   8.855   2.802
38135W        W 5203   1.287  15.600  12.380
38136W        W 5204  35.481  19.182  11.896
38137W        W 5205  43.406   8.272   0.920
38138W        W 5206  37.957  33.621   4.187
38139W        W 5207   1.808  43.348   4.160
38140W        W 5208   8.309   3.248   1.420
38141W        W 5209  26.636   4.425  11.950
38142W        W 5210  27.122  37.511   4.609
38143W        W 5211  25.562   8.215  14.898
38144W        W 5212   5.707  28.454  10.593
38145W        W 5213  23.560   8.880  11.120
38146W        W 5214  22.134  29.565  13.475
38147W        W 5215  19.729   2.299  12.889
38148W        W 5216  23.117   8.274   3.806
38149W        W 5217   9.207  26.680  11.557
38150W        W 5218  10.716  31.099   1.270
38151W        W 5219   9.756  36.934   3.848
38152W        W 5220  23.998  25.033   2.717
38153W        W 5221  35.403  22.016   3.314
38154W        W 5222  37.026  29.622  14.384
38155W        W 5223  20.218  16.759  13.334
38156W        W 5224  10.263  28.072   3.714
38157W        W 5225   1.257  14.621   3.837
38158W        W 5226  25.663   6.898  13.534
38159W        W 5227  38.923  27.648  11.046
38160W        W 5228  40.830  43.375  10.533
38161W        W 5229  43.349  32.123   2.195
38162W        W 5230  34.085  41.833  13.465
38163W        W 5231  29.157  44.859   3.187
38164W        W 5232  36.074  30.919   0.430
38165W        W 5233  24.694  21.150  14.915
38166W        W 5234  12.795  21.141  12.897
38167W        W 5235  36.959  14.644  14.420
38168W        W 5236  19.213  44.446   4.700
38169W        W 5237  38.335   9.870  11.941
38170W        W 5238   0.276  21.170   0.857
38171W        W 5239  42.290  13.169  11.106
38172W        W 5240  28.476  21.052  13.932
38173W        W 5241  40.413  25.195   4.697
38174W        W 5242  30.063  20.262  13.439
38175W        W 5243  29.610  12.251   3.687
38176W        W 5244  41.892  30.533  12.532
38177W        W 5245   6.384  33.529  13.910
38178W        W 5246  32.537  41.850  11.948
38179W        W 5247  30.153   8.779  14.973
38180W        W 5248  36.349  33.033   3.307
38181W        W 5249   7.670  41.302  12.073
38182W        W 5250  38.349  10.141   4.796
38183W        W 5251  23.997   0.965   1.843
38184W        W 5252  11.837  20.251  14.997
38185W        W 5253  12.305   1.351  12.940
38186W        W 5254  25.535  21.183   2.408
38187W        W 5255  23.071   9.795  14.407
38188W        W 5256  16.152  16.139  10.889
38189W        W 5257  40.398  20.701   2.665
38190W        W 5258  10.812  38.384   1.783
38191W        W 5259  41.461  39.515  10.574
38192W        W 5260  36.402  39.333   1.903
38193W        W 5261  21.688   7.401  11.567
38194W        W 5262  11.716  26.600  14.452
38195W        W 5263  39.898  38.020   2.804
38196W        W 5264  18.240  15.315   3.337
38197W        W 5265  43.909  42.856   3.230
38198W        W 5266  43.943  44.348  11.462
38199W        W 5267  13.325   8.222  12.055
38200W        W 5268  18.754  18.672   2.748
38201W        W 5269  32.591  36.841  10.947
38202W        W 5270   4.930   0.819  14.827
38203W        W 5271  23.181  34.008  11.884
38204W        W 5272  29.509  18.093  10.484
38205W        W 5273  17.276   0.819  13.482
38206W        W 5274  27.505  33.567   2.750
38207W        W 5275  39.319  13.646  13.823
38208W        W 5276  25.085   2.365   0.341
38209W        W 5277  31.947  29.605  13.044
38210W        W 5278  11.652  40.008  14.027
38211W        W 5279  24.584  39.433  13.494
38212W        W 5280  18.589  40.887  14.919
38213W        W 5281   9.665  13.843   2.835
38214W        W 5282  24.554  26.549   3.385
38215W        W 5283  11.219  31.554   1.274
38216W        W 5284   8.393   3.748  11.557
38217W        W 5285   7.756  27.030   3.245
38218W        W 5286  17.718   4.754  13.517
38219W        W 5287  32.941   3.930  13.856
38220W        W 5288   4.932  18.213   4.290
38221W        W 5289  16.111  23.666  11.898
38222W        W 5290  31.491  23.513  11.551
38223W        W 5291  10.756  16.630  11.011
38224W        W 5292   6.308  12.832  11.023
38225W        W 5293   1.321  37.548   4.291
38226W        W 5294  22.130  16.625   2.389
38227W        W 5295  11.860  19.201   4.674
38228W        W 5296  15.170   6.744  10.947
38229W        W 5297  22.250  33.998  13.452
38230W        W 5298  43.771  22.568   3.731
38231W        W 5299   1.265  37.832   0.343
38232W        W 5300  36.065  31.617   1.438
38233W        W 5301  32.561   7.193  13.030
38234W        W 5302  11.368   3.407   1.853
38235W        W 5303  38.368  44.483   2.869
38236W        W 5304  14.112  40.878   3.329
38237W        W 5305  41.951   0.790  10.028
38238W        W 5306  23.013  41.397  12.031
38239W        W 5307  37.998  27.073   2.724
38240W        W 5308  28.469   2.401   4.723
38241W        W 5309   5.429  44.305   3.169
38242W        W 5310  37.503   4.702   2.855
38243W        W 5311  27.585  12.719   2.250
38244W        W 5312  12.121  23.708   4.119
38245W        W 5313  26.697   5.905   1.317
38246W        W 5314  22.214   6.403  13.020
38247W        W 5315  31.491  24.169  10.000
38248W        W 5316   4.261  27.168  11.586
38249W        W 5317   2.242  20.081   4.182
38250W        W 5318  31.473  24.116  13.850
38251W        W 5319  24.989  43.348  13.402
38252W        W 5320  29.057  28.665  14.919
38253W        W 5321  38.569  24.541  11.896
38254W        W 5322  36.888  44.488   1.908
38255W        W 5323  28.114  13.275  11.098
38256W        W 5324   0.329  36.043  10.998
38257W        W 5325   3.279  36.998  13.506
38258W        W 5326   7.765  22.190   4.182
38259W        W 5327  37.475  19.582   4.632
38260W        W 5328  11.189  16.101   4.793
38261W        W 5329  20.665  37.073  12.092
38262W        W 5330   2.469   1.867   1.296
38263W        W 5331   1.856  24.638  12.043
38264W        W 5332   5.835  37.030  12.341
38265W        W 5333  14.100  29.495   0.353
38266W        W 5334  13.711  38.948  12.919
38267W        W 5335  24.089  26.536  12.485
38268W        W 5336  19.571  21.063   3.377
38269W        W 5337  27.096  27.979  14.830
38270W        W 5338  11.816   3.908   4.726
38271W        W 5339  34.611  19.043   3.156
38272W        W 5340  44.000   6.693  10.622
38273W        W 5341  34.078  23.525   1.431
38274W        W 5342  19.687  32.566  12.362
38275W        W 5343  22.214  10.244  12.878
38276W        W 5344  27.068  42.821  12.361
38277W        W 5345  41.519   3.813   0.249
38278W        W 5346  39.969  23.577   1.245
38279W        W 5347  43.888  40.948   0.809
38280W        W 5348  34.602   6.264  11.391
38281W        W 5349   5.693  23.020  12.398
38282W        W 5350  28.016  25.164  12.097
38283W        W 5351  37.372  34.878   3.713
38284W        W 5352   2.322  43.913   1.840
38285W        W 5353  10.157   5.737   2.390
38286W        W 5354   9.814  31.528  11.542
38287W        W 5355  20.740  24.183  11.055
38288W        W 5356  32.609   1.863  10.645
38289W        W 5357  10.635  30.942  14.346
38290W        W 5358  35.392  16.637  14.979
38291W        W 5359   6.230  43.786  10.457
38292W        W 5360  41.874   3.941   0.849
38293W        W 5361  43.805  42.923  12.341
38294W        W 5362  16.615  41.873  14.917
38295W        W 5363  10.877  41.417   4.323
38296W        W 5364  37.030  11.225   1.342
38297W        W 5365  35.081  26.584   3.668
38298W        W 5366  32.891  25.492  14.426
38299W        W 5367  31.568  24.116  13.457
38300W        W 5368  19.239  17.581   3.266
38301W        W 5369  36.515  39.941   0.894
38302W        W 5370  29.467  29.118   3.713
38303W        W 5371  24.580  25.175  10.919
38304W        W 5372  43.950  31.959   2.315
38305W        W 5373  12.740   8.306  11.044
38306W        W 5374  23.145  27.134  12.504
38307W        W 5375   9.242  40.882  14.435
38308W        W 5376   0.981  30.048   2.291
38309W        W 5377  32.448   1.353  13.543
38310W        W 5378  41.379  25.512  11.972
38311W        W 5379   8.396  32.896   2.889
38312W        W 5380  27.091  23.582  12.063
38313W        W 5381  25.689  39.064  13.515
38314W        W 5382   8.218  41.882   4.742
38315W        W 5383  13.321  29.620   2.694
38316W        W 5384   0.937  23.094   2.833
38317W        W 5385   3.798  39.944   0.891
38318W        W 5386  10.250   1.879  11.063
38319W        W 5387  12.765  15.732   4.265
38320W        W 5388  26.107   0.345  12.016
38321W        W 5389  33.005  10.180  12.061
38322W        W 5390  16.680  11.246  10.519
38323W        W 5391  20.620  44.319   3.239
38324W        W 5392  18.600   3.942  12.841
38325W        W 5393  27.588  22.745  10.981
38326W        W 5394  41.903  35.436  12.948
38327W        W 5395  40.976  13.311   3.650
38328W        W 5396  40.933  38.975   3.369
38329W        W 5397  19.190  22.707   3.632
38330W        W 5398  14.221   4.442   1.766
38331W        W 5399  16.221  38.916  14.903
38332W        W 5400  22.140  15.313  12.544
38333W        W 5401  11.215  27.192   0.781
38334W        W 5402  17.124  43.787   3.275
38335W        W 5403  22.684  14.689  14.984
38336W        W 5404  40.977  20.737   3.725
38337W        W 5405   1.776  36.914   2.877
38338W        W 5406  11.154  15.691  13.424
38339W        W 5407  32.133   7.241   2.284
38340W        W 5408  44.949  13.764   2.686
38341W        W 5409   4.431  44.353   0.439
38342W        W 5410   6.802   6.210   2.876
38343W        W 5411  19.215  13.728  11.082
38344W        W 5412  21.615  12.177  10.994
38345W        W 5413  31.026  26.507  11.908
38346W        W 5414  31.916   3.828  10.993
38347W        W 5415  43.773  22.042  14.827
38348W        W 5416   6.737  33.411  11.960
38349W        W 5417  34.474   5.735  10.594
38350W        W 5418   1.816  10.762   1.843
38351W        W 5419  34.016  39.871   0.445
38352W        W 5420  36.580  43.469   2.349
38353W        W 5421  24.605  42.496  13.355
38354W        W 5422  44.966  17.775  12.824
38355W        W 5423  37.520  12.847   4.749
38356W        W 5424  39.427  24.189  12.999
38357W        W 5425  11.281  18.613   0.436
38358W        W 5426  40.807  34.610  10.510
38359W        W 5427  26.655  16.771  13.370
38360W        W 5428   4.821  16.811  11.473
38361W        W 5429  21.675   9.232   2.892
38362W        W 5430  14.730  11.209   3.313
38363W        W 5431  39.548  12.239  14.282
38364W        W 5432  25.599  31.936   4.203
38365W        W 5433  26.049   4.811   9.927
38366W        W 5434  22.248  37.020  10.520
38367W        W 5435  41.922  20.750   3.724
38368W        W 5436  32.444   3.776  10.438
38369W        W 5437   0.354  10.660   4.646
38370W        W 5438  19.778  15.816   1.292
38371W        W 5439  19.714  21.242   0.446
38372W        W 5440  41.449  25.558   1.380
38373W        W 5441  41.495  35.978   1.890
38374W        W 5442   0.972  44.329   4.827
38375W        W 5443  36.383  27.005   3.275
38376W        W 5444  26.198  37.916   3.289
38377W        W 5445  23.603  32.893   0.451
38378W        W 5446  36.460  32.946   0.250
38379W        W 5447  18.661   2.289   0.813
38380W        W 5448  26.095   8.871  12.017
38381W        W 5449   2.906  10.792   1.718
38382W        W 5450  26.164  22.140  10.418
38383W        W 5451  41.944   5.239  11.081
38384W        W 5452  42.900   1.870   1.397
38385W        W 5453  43.900   3.712   3.197
38386W        W 5454   1.935  42.463  11.496
38387W        W 5455  18.677   1.873   1.417
38388W        W 5456  42.848  31.463   4.650
38389W        W 5457  19.167  38.834   2.662
38390W        W 5458  19.048   1.929  14.441
38391W        W 5459  25.683  18.238   4.118
38392W        W 5460  14.589  25.973  12.564
38393W        W 5461  26.056  27.021  12.862
38394W        W 5462  31.984  24.686  10.064
38395W        W 5463  24.084  31.427  14.868
38396W        W 5464  25.121  42.922  13.339
38397W        W 5465  25.477  15.704  12.912
38398W        W 5466   2.741  39.040   0.471
38399W        W 5467   9.693   1.238   0.778
38400W        W 5468   6.816   1.782   2.887
38401W        W 5469   7.794  34.053  13.350
38402W        W 5470   8.802  30.027  13.318
38403W        W 5471  17.669  36.896  14.779
38404W        W 5472   0.309  33.599  14.938
38405W        W 5473  16.302  28.184   9.977
38406W        W 5474   1.764  23.114   3.231
38407W        W 5475  33.602  31.087  13.849
38408W        W 5476  35.953  10.351   4.648
38409W        W 5477  15.120  31.630   2.410
38410W        W 5478   2.913  42.994  14.476
38411W        W 5479  28.613   8.678  11.889
38412W        W 5480  33.113  22.664  14.299
38413W        W 5481  15.751   5.359  14.813
38414W        W 5482  34.911  39.962   2.811
38415W        W 5483  22.072  44.463   4.690
38416W        W 5484   9.227   9.289  14.929
38417W        W 5485  23.560  22.672   0.849
38418W        W 5486  42.400   4.385   3.178
38419W        W 5487  10.639  32.606  11.552
38420W        W 5488   6.827  19.745  11.592
38421W        W 5489  39.036  37.036   0.962
38422W        W 5490  16.221  11.819   1.817
38423W        W 5491  27.526  23.716  14.925
38424W        W 5492  13.730  13.340  13.795
38425W        W 5493  43.360  14.598  12.867
38426W        W 5494   7.771  29.095  10.559
38427W        W 5495  37.878   6.848   3.287
38428W        W 5496  42.391  35.958   4.677
38429W        W 5497  23.064  22.604  10.899
38430W        W 5498  23.066  24.033  13.046
38431W        W 5499  12.718   7.210   2.233
38432W        W 5500  19.189  18.701   4.209
38433W        W 5501   8.275  13.312   0.382
38434W        W 5502  26.591  37.537  13.825
38435W        W 5503  20.593   1.841  14.802
38436W        W 5504  39.414  40.324  14.023
38437W        W 5505   3.369  24.975   4.597
38438W        W 5506  44.810  37.068  10.973
38439W        W 5507  14.637  33.433   9.946
38440W        W 5508   8.317  12.134  12.049
38441W        W 5509  36.889  10.842   4.335
38442W        W 5510  37.046  11.216   4.333
38443W        W 5511  10.633  41.411  11.477
38444W        W 5512  33.583   9.316   3.741
38445W        W 5513   1.951  15.320  10.451
38446W        W 5514   2.262   8.227   3.789
38447W        W 5515  26.993  10.834  14.868
38448W        W 5516  39.343  10.876   2.790
38449W        W 5517   9.341  13.687  11.904
38450W        W 5518  15.173  41.043   0.406
38451W        W 5519  33.615  25.628   3.814
38452W        W 5520   7.827  17.235   2.840
38453W        W 5521  13.196  21.612  13.379
38454W        W 5522  31.414  17.562  10.913
38455W        W 5523  27.099  17.671  10.487
38456W        W 5524  12.340  39.474   3.228
38457W        W 5525   6.317  31.024  14.386
38458W        W 5526   9.883  34.864  12.937
38459W        W 5527  33.062   7.306   0.843
38460W        W 5528  22.218   6.843  10.595
38461W        W 5529  26.582  19.229  11.412
38462W        W 5530  32.893  16.757  10.577
38463W        W 5531   1.799  17.138   4.287
38464W        W 5532  13.303   2.453  10.499
38465W        W 5533  29.587   9.810   3.277
38466W        W 5534  37.347  33.479  13.429
38467W        W 5535  41.319  29.943   1.895
38468W        W 5536  42.936  19.586   2.700
38469W        W 5537  28.987  37.004  10.416
38470W        W 5538  18.225  39.823   3.668
38471W        W 5539  17.650   6.362   2.278
38472W        W 5540  21.753   8.375  12.938
38473W        W 5541  24.120   2.919   4.312
38474W        W 5542  24.084  40.355   5.192
38475W        W 5543  15.655  34.058  10.952
38476W        W 5544  27.592  17.706   0.798
38477W        W 5545  41.825  39.835   3.765
38478W        W 5546   2.898   3.436  11.128
38479W        W 5547  33.090  31.445   4.226
38480W        W 5548  37.537   6.735   0.475
38481W        W 5549   0.293   1.853   1.332
38482W        W 5550   2.268  16.638  14.322
38483W        W 5551  25.656   7.350   1.425
38484W        W 5552  37.578  42.362  13.847
38485W        W 5553  36.902  24.623   0.482
38486W        W 5554  27.170  30.962   4.319
38487W        W 5555   4.788   1.320  14.984
38488W        W 5556  42.870  19.556  11.933
38489W        W 5557  20.146  30.022   2.875
38490W        W 5558   3.444   4.897   2.733
38491W        W 5559  11.797  28.173   2.411
38492W        W 5560  25.165  38.562  10.954
38493W        W 5561  37.524  35.561  14.392
38494W        W 5562  30.914  12.710  14.942
38495W        W 5563  30.491  25.129   1.259
38496W        W 5564  17.561  37.512   5.289
38497W        W 5565  36.554  12.293   3.351
38498W        W 5566  23.582   9.251  13.387
38499W        W 5567  29.141  12.218  12.567
38500W        W 5568  28.499  27.950   1.338
38501W        W 5569  27.021  33.909   0.768
38502W        W 5570  27.486  26.673  14.367
38503W        W 5571  16.215  18.600   3.852
38504W        W 5572  16.578   2.724   2.339
38505W        W 5573  35.027  10.754   0.334
38506W        W 5574  19.590  10.283  10.424
38507W        W 5575  26.637  17.242  12.524
38508W        W 5576  27.059  42.918   5.295
38509W        W 5577  44.842  10.297  12.499
38510W        W 5578  11.844  24.552  11.602
38511W        W 5579  16.225  42.449  12.509
38512W        W 5580  23.082   1.877   5.196
38513W        W 5581  33.025  16.605   1.777
38514W        W 5582   7.239  27.660   3.355
38515W        W 5583  38.954  24.105   3.318
38516W        W 5584  33.391  32.510  13.834
38517W        W 5585  43.877  22.194   3.864
38518W        W 5586  16.677  11.677   3.306
38519W        W 5587  23.144  41.895   1.714
38520W        W 5588  10.644  18.617   1.275
38521W        W 5589   8.855  16.727   4.825
38522W        W 5590  35.500  31.417  11.591
38523W        W 5591   2.248  18.201  12.390
38524W        W 5592  44.339  27.643   3.302
38525W        W 5593  30.922  29.086   2.700
38526W        W 5594  18.292  32.112  11.481
38527W        W 5595  40.449   7.844   0.897
38528W        W 5596  41.827  39.871   4.347
38529W        W 5597  11.135  27.183  12.092
38530W        W 5598  22.672  13.345   2.205
38531W        W 5599  12.223  41.450   4.353
38532W        W 5600  26.470  22.212   3.324
38533W        W 5601  44.816   2.751   3.761
38534W        W 5602  44.837  32.543  10.515
38535W        W 5603  32.120  15.741   9.944
38536W        W 5604  43.983  22.576  11.036
38537W        W 5605  16.634  14.633   0.901
38538W        W 5606  22.143  41.958   1.769
38539W        W 5607  28.626  30.488   1.259
38540W        W 5608  22.031  39.327  12.017
38541W        W 5609  44.807  25.483  13.359
38542W        W 5610   4.243  32.564  11.600
38543W        W 5611   4.333  20.116  14.409
38544W        W 5612  38.462   6.684  10.558
38545W        W 5613  31.624  38.483  10.477
38546W        W 5614  31.646  22.152   2.254
38547W        W 5615   4.928  16.315   4.221
38548W        W 5616  35.571   2.460  12.043
38549W        W 5617  14.276  44.985   4.680
38550W        W 5618  19.098  30.634   5.267
38551W        W 5619   1.414  44.883  11.509
38552W        W 5620  13.791  37.874  11.009
38553W        W 5621  35.544  21.709   3.835
38554W        W 5622  38.040  15.746  12.061
38555W        W 5623  33.079  30.126  10.950
38556W        W 5624  19.226  15.218  13.998
38557W        W 5625  41.795   2.951   1.354
38558W        W 5626  44.468  15.651   1.705
38559W        W 5627  30.916  12.660   1.452
38560W        W 5628  40.357  36.956   1.300
38561W        W 5629  40.432  26.583  13.898
38562W        W 5630  31.146  33.386   3.663
38563W        W 5631  16.181  42.873  12.994
38564W        W 5632  15.142  18.660   2.751
38565W        W 5633  28.961  28.967  11.048
38566W        W 5634  38.475  28.088  10.523
38567W        W 5635  31.963   0.331   1.427
38568W        W 5636  30.514  14.786  13.334
38569W        W 5637   3.378  30.468   1.768
38570W        W 5638  16.249  22.703  12.342
38571W        W 5639  27.944   6.287  12.574
38572W        W 5640  20.585  35.870  10.624
38573W        W 5641  21.722  14.652  11.980
38574W        W 5642   3.326  44.785   3.270
38575W        W 5643   3.854  29.147  14.950
38576W        W 5644  35.600  36.564  13.518
38577W        W 5645  28.456  27.446   2.408
38578W        W 5646  43.507  21.684  11.605
38579W        W 5647  42.523   7.290   1.816
38580W        W 5648  38.454  38.346  12.384
38581W        W 5649   8.833  33.012   2.750
38582W        W 5650   7.718  18.758   0.474
38583W        W 5651  17.634  44.759   0.927
38584W        W 5652  31.558  18.198   2.392
38585W        W 5653  16.292   6.187  14.992
38586W        W 5654   5.383  30.596  13.915
38587W        W 5655  15.101  11.708  11.952
38588W        W 5656  19.113  35.405   4.814
38589W        W 5657   6.725  32.125  14.361
38590W        W 5658   2.758  16.095  11.857
38591W        W 5659   5.371  39.933   4.355
38592W        W 5660  41.528   2.832  11.931
38593W        W 5661  33.942  33.923  13.372
38594W        W 5662  11.701  15.226   2.855
38595W        W 5663  26.702  25.649   0.765
38596W        W 5664   5.324   4.333   0.771
38597W        W 5665   6.814  24.663  14.366
38598W        W 5666  39.538   1.237  11.543
38599W        W 5667  34.425  34.373  11.955
38600W        W 5668  30.505  41.405  12.994
38601W        W 5669  30.142  43.907  11.586
38602W        W 5670  16.167  22.083  10.087
38603W        W 5671  19.742  27.597  10.581
38604W        W 5672  14.833  30.503   3.267
38605W        W 5673  33.557  16.308  11.928
38606W        W 5674  37.958  31.126  10.626
38607W        W 5675  43.913  21.600  11.086
38608W        W 5676  12.854  21.103  11.080
38609W        W 5677   2.299   8.235   0.469
38610W        W 5678  24.555  43.379   3.745
38611W        W 5679  41.876  10.189  11.908
38612W        W 5680   4.281  37.862   1.315
38613W        W 5681  29.494   0.884   2.820
38614W        W 5682   5.697  27.630   3.215
38615W        W 5683  31.411  30.483   0.939
38616W        W 5684  26.964  13.781   0.739
38617W        W 5685   9.234  24.987   4.652
38618W        W 5686   6.194  10.835   2.370
38619W        W 5687   4.368  29.960   4.268
38620W        W 5688   5.296  29.932   1.340
38621W        W 5689  10.295   3.461  13.390
38622W        W 5690  27.673  21.597  12.873
38623W        W 5691  43.937  35.945  14.022
38624W        W 5692  20.172   4.210   0.332
38625W        W 5693  36.005  32.604   4.335
38626W        W 5694  13.126  21.543   0.434
38627W        W 5695  23.112   8.173  12.026
38628W        W 5696   8.775  11.693  12.354
38629W        W 5697  40.870  15.283  10.956
38630W        W 5698  22.617  29.146   0.951
38631W        W 5699  11.236  21.735   4.609
38632W        W 5700  27.053  36.898  12.036
38633W        W 5701  22.704  22.195  13.821
38634W        W 5702  36.970   1.738   3.689
38635W        W 5703  13.609  31.555   3.199
38636W        W 5704   3.425  32.138   0.409
38637W        W 5705   9.801   7.363   0.263
38638W        W 5706   1.767   4.267  14.485
38639W        W 5707   5.279  14.112   5.133
38640W        W 5708  42.850  36.347   0.295
38641W        W 5709  44.954  12.338   0.453
38642W        W 5710  24.561  43.388   2.412
38643W        W 5711  30.996   1.858  13.440
38644W        W 5712   5.249  43.787   0.298
38645W        W 5713  29.075   6.260  13.963
38646W        W 5714   2.763  27.979  14.018
38647W        W 5715  15.750  39.446  13.370
38648W        W 5716   3.785  19.711   0.752
38649W        W 5717   7.711  32.438   1.848
38650W        W 5718   1.376   9.190  11.422
38651W        W 5719  17.600  23.207  12.397
38652W        W 5720   9.196  30.656   2.886
38653W        W 5721  44.329  17.701   3.258
38654W        W 5722   3.855  38.326  14.292
38655W        W 5723  11.266  16.611   2.231
38656W        W 5724  40.882  16.690   3.177
38657W        W 5725  26.068   9.807   4.683
38658W        W 5726  23.037  17.231  11.925
38659W        W 5727  34.415  34.968   1.701
38660W        W 5728  36.476  13.667  11.016
38661W        W 5729  32.023  19.611  12.864
38662W        W 5730   8.823  39.417   1.408
38663W        W 5731   6.348  29.568   1.223
38664W        W 5732  36.401  25.977  10.460
38665W        W 5733   1.251  28.465   3.256
38666W        W 5734   4.840   0.963   1.922
38667W        W 5735  32.021  36.998   1.410
38668W        W 5736  31.437   2.358   4.739
38669W        W 5737  26.657  14.110   4.218
38670W        W 5738  26.515  12.286  11.513
38671W        W 5739  34.080  41.941   1.807
38672W        W 5740   3.777  42.931  10.089
38673W        W 5741   3.833  28.156  14.880
38674W        W 5742  37.022   4.429  12.898
38675W        W 5743  34.484  30.911   3.170
38676W        W 5744   8.704  36.077   3.747
38677W        W 5745  44.269   3.866  14.491
38678W        W 5746   0.957  12.728   4.174
38679W        W 5747  40.545  26.017  11.534
38680W        W 5748  16.634  30.565   1.897
38681W        W 5749  18.666  39.843  10.923
38682W        W 5750  35.004  12.123   4.732
38683W        W 5751   9.831   7.411  12.407
38684W        W 5752   5.193  21.526   0.391
38685W        W 5753  10.161  14.643  13.521
38686W        W 5754  36.038  14.809   2.394
38687W        W 5755  23.651  24.070   4.732
38688W        W 5756  27.675  44.266  13.476
38689W        W 5757  31.471   1.396   4.715
38690W        W 5758   8.690  24.146   2.789
38691W        W 5759  13.735  41.787  14.030
38692W        W 5760   9.193  36.879   1.391
38693W        W 5761  19.726  14.173  14.885
38694W        W 5762   0.968   8.752   9.946
38695W        W 5763  38.886  31.602  12.954
38696W        W 5764  20.547  43.514   4.259
38697W        W 5765   9.226  15.287  12.006
38698W        W 5766  15.761  30.622  14.300
38699W        W 5767  27.092  38.904   1.269
38700W        W 5768  18.775  13.608   1.916
38701W        W 5769  40.418  18.234  14.439
38702W        W 5770  34.101  13.671  11.035
38703W        W 5771  33.577   0.326   0.382
38704W        W 5772   6.425  29.979   4.814
38705W        W 5773  42.801   9.358   4.183
38706W        W 5774  42.452  32.495   2.272
38707W        W 5775   9.324   8.697  13.495
38708W        W 5776  38.840   1.272   2.223
38709W        W 5777  19.552  32.945  14.275
38710W        W 5778  39.874   4.263  12.003
38711W        W 5779   9.178  13.346  11.404
38712W        W 5780  31.556  41.325  13.034
38713W        W 5781  21.215  17.291  14.462
38714W        W 5782   7.820  29.618   1.333
38715W        W 5783  35.867  23.138  14.960
38716W        W 5784  41.921   7.387  10.975
38717W        W 5785   9.279  17.096   4.273
38718W        W 5786  14.614  29.005   0.247
38719W        W 5787   2.754  33.444  12.905
38720W        W 5788  12.688   4.441  11.507
38721W        W 5789   1.273  29.554   4.268
38722W        W 5790  11.314   2.825   1.256
38723W        W 5791  22.600  33.896  13.918
38724W        W 5792  24.572   6.266  13.319
38725W        W 5793  44.340  20.232  14.944
38726W        W 5794  22.678  34.481  14.361
38727W        W 5795  12.281  23.701   1.774
38728W        W 5796  18.705   7.356   3.372
38729W        W 5797  30.597  25.989   3.282
38730W        W 5798  32.518  20.174  12.480
38731W        W 5799   2.761  26.568   2.339
38732W        W 5800   2.403   5.910   2.665
38733W        W 5801  26.987  17.231  11.534
38734W        W 5802  31.430  11.315  13.355
38735W        W 5803  20.055   5.282  13.980
38736W        W 5804  19.637  14.696  14.319
38737W        W 5805  25.084  33.427  13.012
38738W        W 5806  29.654   0.844  10.564
38739W        W 5807  13.351  44.857   2.722
38740W        W 5808  18.157  36.525   3.824
38741W        W 5809   8.345  15.107   0.462
38742W        W 5810  33.445  36.536  12.831
38743W        W 5811  39.043  18.281   2.312
38744W        W 5812  17.249  29.154  13.536
38745W        W 5813   6.700  33.449   1.811
38746W        W 5814   3.406  15.719  13.357
38747W        W 5815  42.460  22.140   2.889
38748W        W 5816  22.599  17.634  12.901
38749W        W 5817   0.944  32.956   4.761
38750W        W 5818  15.267  33.911  13.893
38751W        W 5819   7.273  13.737  10.498
38752W        W 5820  11.200  11.254   4.299
38753W        W 5821  41.953   2.756  12.959
38754W        W 5822   4.342  33.006   2.216
38755W        W 5823  19.639  43.384  13.831
38756W        W 5824  31.633  17.266   4.737
38757W        W 5825  18.791  43.773  13.547
38758W        W 5826  37.447  23.651   0.368
38759W        W 5827  12.688  43.963   0.246
38760W        W 5828  40.359   8.196   0.376
38761W        W 5829   3.328  44.857  13.837
38762W        W 5830  23.707  42.818   2.387
38763W        W 5831  18.771  17.595  14.309
38764W        W 5832   6.345  42.301  13.482
38765W        W 5833  11.835  26.995   1.886
38766W        W 5834  27.181   6.266  13.354
38767W        W 5835  21.166  13.306   0.860
38768W        W 5836  44.891  29.072  10.565
38769W        W 5837  42.371  13.225  13.855
38770W        W 5838  15.788  33.424  12.464
38771W        W 5839  12.852   8.849   3.774
38772W        W 5840  16.774  29.014   2.791
38773W        W 5841   8.684  34.085   3.376
38774W        W 5842  35.519  20.187  11.450
38775W        W 5843  28.182   9.656   4.215
38776W        W 5844  24.169  27.482  13.935
38777W        W 5845  17.794  14.795   3.833
38778W        W 5846  21.623  23.183  12.547
38779W        W 5847  32.060  42.315   1.788
38780W        W 5848  22.518   1.471   2.731
38781W        W 5849   9.807  32.973   3.368
38782W        W 5850   5.785  41.898  13.895
38783W        W 5851  13.801  26.653  11.087
38784W        W 5852   9.201  19.233   2.762
38785W        W 5853  24.163  33.606  11.993
38786W        W 5854  30.579  42.349   4.211
38787W        W 5855   1.896  11.780   2.343
38788W        W 5856  36.361  23.084  11.964
38789W        W 5857  23.998  36.514   3.204
38790W        W 5858  38.369  32.029   3.283
38791W        W 5859  25.979   6.289   4.183
38792W        W 5860  24.025  23.543  12.895
38793W        W 5861  23.238   8.794   2.759
38794W        W 5862  15.271   8.374   2.354
38795W        W 5863  28.037  10.669  11.932
38796W        W 5864   7.820  21.613  14.944
38797W        W 5865  24.532  36.098   4.209
38798W        W 5866  40.349  37.507  10.438
38799W        W 5867  15.588  34.980  13.986
38800W        W 5868  36.443  27.517  11.522
38801W        W 5869  10.681  25.172   1.329
38802W        W 5870   2.919  24.508  14.313
38803W        W 5871  39.457   1.378  13.896
38804W        W 5872  16.694  33.082   4.235
38805W        W 5873  39.446  12.264  12.971
38806W        W 5874  13.114   2.835   0.271
38807W        W 5875  11.796  41.017  14.797
38808W        W 5876   2.817  34.386  10.935
38809W        W 5877  10.634   1.942   3.270
38810W        W 5878  41.330  27.941  12.009
38811W        W 5879  32.453  10.791   0.828
38812W        W 5880  37.345  42.967   2.287
38813W        W 5881   3.757  16.108  12.057
38814W        W 5882   9.351  15.707   9.982
38815W        W 5883   7.417  21.571  13.013
38816W        W 5884   5.404  39.828  12.458
38817W        W 5885  12.159  28.931  12.827
38818W        W 5886  39.958  23.033  11.508
38819W        W 5887  25.118  42.491   0.813
38820W        W 5888  36.555   8.163  13.966
38821W        W 5889  41.805   4.370   0.815
38822W        W 5890  30.127   8.216  14.911
38823W        W 5891  22.164  10.865  14.436
38824W        W 5892   1.428  44.000  12.845
38825W        W 5893  18.759  36.960   3.828
38826W        W 5894  13.694  38.415   3.327
38827W        W 5895  24.674   8.328   0.792
38828W        W 5896  32.923   9.364   3.842
38829W        W 5897  18.678  40.962   4.227
38830W        W 5898  19.737  31.971   2.291
38831W        W 5899   9.210  42.953  11.600
38832W        W 5900  35.363  17.304  13.053
38833W        W 5901   3.929   6.231  13.345
38834W        W 5902   6.868  19.084   4.256
38835W        W 5903   6.796  10.792  11.941
38836W        W 5904   1.317  20.765   1.220
38837W        W 5905  16.751  26.478  12.912
38838W        W 5906  29.599  16.762   2.361
38839W        W 5907  28.151  11.657   0.459
38840W        W 5908  11.297  32.905  14.304
38841W        W 5909   4.802  20.527   1.722
38842W        W 5910  33.497  42.377  12.500
38843W        W 5911  37.040  24.619   4.264
38844W        W 5912  24.127   3.833  12.070
38845W        W 5913  31.500  41.311   0.303
38846W        W 5914  43.001  14.230  14.938
38847W        W 5915  11.255   4.743   0.276
38848W        W 5916  23.495  37.909   3.751
38849W        W 5917  31.432  19.687   0.309
38850W        W 5918  42.342  40.432   3.243
38851W        W 5919   7.733   9.178   2.735
38852W        W 5920  15.719  18.275   0.754
38853W        W 5921  42.850  26.571  13.355
38854W        W 5922  14.167  38.020   4.747
38855W        W 5923   8.388  28.466   2.317
38856W        W 5924   7.345  32.003  14.467
38857W        W 5925  40.427  41.483   1.438
38858W        W 5926  15.212  38.390   2.352
38859W        W 5927   6.718   1.772  13.905
38860W        W 5928  16.221  32.454  11.986
38861W        W 5929  36.593  14.651  14.391
38862W        W 5930  37.879  12.803   3.748
38863W        W 5931   3.712  41.789  12.540
38864W        W 5932  35.011  39.900   1.402
38865W        W 5933  25.965  19.678  13.383
38866W        W 5934   7.906  18.127  11.079
38867W        W 5935  17.290  34.065   4.143
38868W        W 5936   9.749  25.013   2.855
38869W        W 5937  32.629   8.875   0.481
38870W        W 5938  17.750  39.850   0.953
38871W        W 5939  43.391  22.658   3.172
38872W        W 5940  18.176  19.647  11.404
38873W        W 5941  43.324  36.859  10.459
38874W        W 5942  21.620  12.246   1.836
38875W        W 5943   0.757  33.449  14.415
38876W        W 5944  30.458  35.044   0.931
38877W        W 5945   3.443   5.216   3.246
38878W        W 5946   0.479  29.518  11.989
38879W        W 5947  30.460   1.809   4.812
38880W        W 5948  10.302  34.025   4.708
38881W        W 5949  14.689   8.839   3.828
38882W        W 5950  28.458  39.376   4.198
38883W        W 5951  14.287  42.388  11.492
38884W        W 5952  13.188  32.001   4.597
38885W        W 5953  19.548   3.947   0.862
38886W        W 5954  11.721  17.611   4.147
38887W        W 5955  12.286   7.223   0.882
38888W        W 5956  17.237   6.310   0.418
38889W        W 5957   0.282   3.247   0.829
38890W        W 5958  17.207  29.081   0.769
38891W        W 5959  11.160   8.385  13.969
38892W        W 5960   0.399  21.734  10.465
38893W        W 5961  42.368  32.011   0.294
38894W        W 5962  18.226  23.094   3.327
38895W        W 5963  13.156   2.812   2.889
38896W        W 5964  20.119  33.987  14.280
38897W        W 5965  24.575  11.654   0.937
38898W        W 5966  15.764   5.848   3.313
38899W        W 5967  11.675  28.649  12.460
38900W        W 5968   1.441  12.757  13.833
38901W        W 5969   3.441  36.566   0.954
38902W        W 5970  41.363  11.691  11.584
38903W        W 5971  28.023  40.378   0.903
38904W        W 5972   0.354  37.916   0.854
38905W        W 5973  41.913  44.815  11.993
38906W        W 5974  44.450  33.044   1.779
38907W        W 5975  23.190  25.594   2.298
38908W        W 5976   6.888  10.780   4.620
38909W        W 5977  21.167  34.419  12.901
38910W        W 5978  16.282  19.720  10.001
38911W        W 5979   5.433  17.655   2.276
38912W        W 5980  26.145  30.130   3.673
38913W        W 5981   5.845  16.570  13.476
38914W        W 5982  38.408   9.306   0.388
38915W        W 5983  34.897  22.542  14.305
38916W        W 5984  12.720  15.224   1.252
38917W        W 5985  29.661  12.737   1.409
38918W        W 5986  26.469  40.399   0.868
38919W        W 5987  11.815  36.513   1.284
38920W        W 5988  26.590  10.740   4.332
38921W        W 5989   4.875   5.440  13.897
38922W        W 5990   7.748   5.304  12.490
38923W        W 5991  15.587  28.971  13.509
38924W        W 5992  25.528  42.928   4.116
38925W        W 5993  26.502  28.663  13.460
38926W        W 5994  41.896  37.044   4.711
38927W        W 5995   4.420  23.212   3.829
38928W        W 5996  38.035  37.387   0.777
38929W        W 5997   1.460  22.131   1.379
38930W        W 5998  22.575  34.506  13.940
38931W        W 5999  33.085  15.782  11.000
38932W        W 6000  12.698  37.867  11.908
38933W        W 6001   4.248  19.225  11.459
38934W        W 6002  16.626   6.411  10.624
38935W        W 6003  13.248  31.999   4.222
38936W        W 6004  18.633  30.508  14.513
38937W        W 6005  40.308  11.817  14.503
38938W        W 6006  15.719   0.331   3.276
38939W        W 6007   3.864   9.801   0.865
38940W        W 6008  29.595  15.261   3.346
38941W        W 6009  16.184  41.035   0.270
38942W        W 6010  10.280  40.420  12.552
38943W        W 6011  18.614  44.921  14.990
38944W        W 6012  12.615  15.667  13.487
38945W        W 6013   6.191  10.166   4.732
38946W        W 6014  28.165  26.696   0.941
38947W        W 6015   4.263  40.315   3.267
38948W        W 6016  26.020  29.478  12.342
38949W        W 6017  21.526  41.447   2.684
38950W        W 6018  24.669  23.016   1.319
38951W        W 6019  28.668  44.931  10.888
38952W        W 6020  42.932  41.967   3.674
38953W        W 6021  36.045  21.156  11.483
38954W        W 6022   2.954  25.084   4.273
38955W        W 6023  29.641  39.376  10.424
38956W        W 6024  22.036  40.866  14.027
38957W        W 6025  33.059  19.598  12.353
38958W        W 6026  37.436   5.334  12.866
38959W        W 6027  18.655  28.629  12.388
38960W        W 6028   5.199  27.142   4.272
38961W        W 6029   1.392  27.476  11.564
38962W        W 6030  43.412   5.319  12.992
38963W        W 6031  29.643  16.093   2.210
38964W        W 6032  40.385   4.308   1.388
38965W        W 6033   6.194  25.217  12.837
38966W        W 6034  11.661  25.080  14.447
38967W        W 6035  20.667  32.426  11.464
38968W        W 6036  15.307  20.688  14.509
38969W        W 6037  35.982  22.575   3.329
38970W        W 6038  26.598  14.310  12.911
38971W        W 6039   3.307  36.986   0.802
38972W        W 6040  40.391  20.029  11.999
38973W        W 6041   3.731  12.616   3.190
38974W        W 6042   5.855  28.978  12.352
38975W        W 6043  11.152   6.399  12.005
38976W        W 6044   2.260   5.874  10.624
38977W        W 6045   4.832  43.335  12.355
38978W        W 6046  24.175  28.018  11.567
38979W        W 6047  44.446  44.837  11.096
38980W        W 6048  39.365  13.620  12.537
38981W        W 6049   4.341  33.521  12.970
38982W        W 6050  15.319  16.308  14.994
38983W        W 6051  33.498  28.494  11.029
38984W        W 6052  12.212   6.422   2.770
38985W        W 6053   8.834  19.157  11.033
38986W        W 6054  22.703   4.323  14.011
38987W        W 6055  26.983   7.186   1.803
38988W        W 6056  19.669  33.097   3.758
38989W        W 6057  28.047  38.877   0.349
38990W        W 6058  39.013   7.730   1.371
38991W        W 6059  44.288  23.734  13.914
38992W        W 6060   3.373   7.674  13.899
38993W        W 6061  33.999   7.256   2.337
38994W        W 6062   3.796  27.102  12.885
38995W        W 6063  20.678  21.019  12.972
38996W        W 6064  41.401  14.152  13.504
38997W        W 6065  41.477   3.299  11.568
38998W        W 6066   7.176  19.143   2.716
38999W        W 6067  33.042  30.971   2.891
39000W        W 6068  28.993  31.991  10.910
39001W        W 6069  19.615   8.334   0.836
39002W        W 6070  13.820   3.884   1.299
39003W        W 6071   8.747  16.674   3.312
39004W        W 6072  23.217   1.435  14.844
39005W        W 6073  20.757  21.678   4.132
39006W        W 6074  42.022  42.938  12.973
39007W        W 6075  26.571  43.980   0.917
39008W        W 6076  28.681  10.159  11.569
39009W        W 6077  15.712   3.887   1.311
39010W        W 6078   3.428  10.866   2.335
39011W        W 6079   2.375  31.453  12.487
39012W        W 6080  14.198  40.394   4.310
39013W        W 6081  26.052   7.752  14.415
39014W        W 6082  11.163  23.013   2.762
39015W        W 6083  37.956   1.480   1.846
39016W        W 6084  21.543  30.095  14.802
39017W        W 6085  22.109   1.307   3.265
39018W        W 6086   2.455   1.960   0.404
39019W        W 6087   9.150  44.310  12.483
39020W        W 6088  16.103   8.761   0.908
39021W        W 6089  10.304   2.378  12.985
39022W        W 6090   3.245  33.997   2.880
39023W        W 6091  30.144  23.494  14.277
39024W        W 6092   3.798  19.155   1.224
39025W        W 6093  16.664   9.735   0.396
39026W        W 6094  41.795  32.996   3.221
39027W        W 6095   2.938  15.101   2.258
39028W        W 6096  18.650   4.835   4.627
39029W        W 6097  41.922  16.072  10.476
39030W        W 6098  35.102  11.173  10.933
39031W        W 6099  29.635  38.909   3.704
39032W        W 6100   5.712  30.104  10.937
39033W        W 6101   0.327  43.814   1.358
39034W        W 6102  40.503  11.129   2.732
39035W        W 6103   4.755  16.296   2.874
39036W        W 6104  32.534  33.093   2.347
39037W        W 6105  22.996  21.758   1.387
39038W        W 6106  17.064  41.811   3.148
39039W        W 6107  33.510  42.853   4.721
39040W        W 6108  25.554  20.679  10.980
39041W        W 6109  11.835  27.546   1.268
39042W        W 6110   2.253   6.242   1.249
39043W        W 6111  44.801  10.748  12.003
39044W        W 6112   9.338  12.649   1.894
39045W        W 6113   3.338   4.242  14.323
39046W        W 6114  18.699   3.341  13.874
39047W        W 6115   8.896   5.810   1.399
39048W        W 6116   4.837  17.690  11.973
39049W        W 6117  32.974  30.461  13.432
39050W        W 6118   3.243  26.490  10.128
39051W        W 6119   5.908  11.281   4.171
39052W        W 6120  27.029  19.707  10.447
39053W        W 6121  41.322  33.979  14.376
39054W        W 6122  38.008  25.482  10.929
39055W        W 6123  17.100  24.035  10.408
39056W        W 6124  20.134  17.703   4.233
39057W        W 6125   9.777  37.004  11.872
39058W        W 6126  35.403  23.597  12.370
39059W        W 6127   4.733  13.713  13.397
39060W        W 6128  18.582  17.123   3.254
39061W        W 6129  29.573  44.884  11.479
39062W        W 6130  15.668   4.414   2.221
39063W        W 6131  42.864  12.168   1.376
39064W        W 6132  22.715   9.209  12.509
39065W        W 6133  40.353  12.186  11.450
39066W        W 6134  19.648  28.599  13.330
39067W        W 6135  28.136  10.359   9.962
39068W        W 6136   4.346  13.323   4.744
39069W        W 6137   9.713  25.534   4.262
39070W        W 6138  33.979   4.902   3.175
39071W        W 6139   9.184  43.794   4.256
39072W        W 6140  25.003  33.501   4.346
39073W        W 6141   8.240  17.582   4.597
39074W        W 6142   2.872  23.185  13.491
39075W        W 6143   2.313  16.782   1.929
39076W        W 6144  31.425  35.024   4.281
39077W        W 6145   7.380  33.995  11.603
39078W        W 6146  34.576  40.410   4.741
39079W        W 6147  15.201  15.594  11.862
39080W        W 6148   0.825   3.847   0.255
39081W        W 6149  15.658  34.422  10.927
39082W        W 6150  35.926  41.483  13.051
39083W        W 6151   7.217  27.972   0.945
39084W        W 6152   4.379  14.728   2.284
39085W        W 6153  21.679  18.720   3.756
39086W        W 6154  43.444  22.652  11.601
39087W        W 6155  21.584  22.083  14.859
39088W        W 6156   9.768   8.784  14.982
39089W        W 6157   6.873  39.424  11.580
39090W        W 6158   7.395  13.813  13.986
39091W        W 6159  42.017  39.362  11.452
39092W        W 6160   3.763  41.487  12.957
39093W        W 6161  26.084  21.078  11.430
39094W        W 6162  16.573  25.563  13.843
39095W        W 6163  38.562   6.697   1.775
39096W        W 6164   0.793  14.605  11.595
39097W        W 6165  25.216  36.900   1.370
39098W        W 6166  37.546   6.714  11.430
39099W        W 6167  34.448  38.385   3.239
39100W        W 6168   6.882  29.517  13.881
39101W        W 6169  40.434  27.018  13.044
39102W        W 6170  23.067  30.966   2.721
39103W        W 6171  40.963   9.708  11.960
39104W        W 6172  37.532  11.670  11.461
39105W        W 6173  27.982  30.423   4.712
39106W        W 6174  34.613  36.097  10.609
39107W        W 6175   8.745  33.044  12.977
39108W        W 6176  13.119  36.951   1.863
39109W        W 6177  29.513  17.262  14.992
39110W        W 6178  28.151  40.317   1.751
39111W        W 6179  28.981  38.434   4.179
39112W        W 6180  13.327   7.277   3.287
39113W        W 6181   7.210  37.993   0.479
39114W        W 6182  34.055   5.326  14.002
39115W        W 6183  20.234   4.318  11.005
39116W        W 6184  37.386   0.357   3.370
39117W        W 6185  23.195   8.381   0.967
39118W        W 6186  11.225  14.684   2.235
39119W        W 6187  31.457  29.506  10.889
39120W        W 6188  16.745  18.154   4.162
39121W        W 6189  25.050  30.444   0.850
39122W        W 6190   7.817  28.089  11.612
39123W        W 6191  42.832   7.405  13.388
39124W        W 6192  23.501  44.485   4.624
39125W        W 6193   5.832  16.737   5.747
39126W        W 6194  41.950  16.164  14.334
39127W        W 6195  12.161  19.623  14.361
39128W        W 6196  17.066  27.474  10.446
39129W        W 6197  44.487  25.581  11.932
39130W        W 6198   4.259  34.066  14.456
39131W        W 6199  28.053  11.693   4.781
39132W        W 6200  26.177  12.823  10.929
39133W        W 6201  39.499   7.184  14.842
39134W        W 6202   2.319   6.799   0.732
39135W        W 6203  24.172  31.551   0.865
39136W        W 6204  17.253  20.081  11.457
39137W        W 6205  43.348  43.958   0.771
39138W        W 6206  37.058  12.764   4.784
39139W        W 6207  27.946  26.568   9.949
39140W        W 6208   0.450  22.678   2.222
39141W        W 6209  25.990   6.274  11.587
39142W        W 6210   9.290  24.186  14.312
39143W        W 6211  43.343  34.505  14.027
39144W        W 6212  15.134  31.923   1.919
39145W        W 6213  31.560  23.097  10.931
39146W        W 6214   2.356  14.815   3.774
39147W        W 6215  29.469  27.649  14.832
39148W        W 6216  22.082  12.695  13.035
39149W        W 6217  18.774   4.725  10.892
39150W        W 6218  42.350   6.692  12.509
39151W        W 6219  43.016  23.724   4.278
39152W        W 6220  36.011   8.332   2.313
39153W        W 6221  29.589  41.459   1.342
39154W        W 6222  15.584  10.347  14.326
39155W        W 6223   7.214  24.649   1.805
39156W        W 6224   1.858  27.066   2.825
39157W        W 6225  10.839   2.233  11.975
39158W        W 6226  19.193   4.280  11.071
39159W        W 6227  41.302  40.540   1.805
39160W        W 6228  29.922  38.483  14.432
39161W        W 6229  30.078  29.160   3.241
39162W        W 6230  35.518  38.066   1.877
39163W        W 6231  21.044  28.090  12.949
39164W        W 6232  35.593  29.026   1.361
39165W        W 6233  43.364   1.951   3.645
39166W        W 6234  43.456  35.036   1.706
39167W        W 6235  13.134  31.073   2.326
39168W        W 6236  34.540  12.281   1.723
39169W        W 6237  34.474  39.945   4.157
39170W        W 6238  19.564   7.810   4.318
39171W        W 6239   5.370  33.381   1.345
39172W        W 6240  32.523  37.901   4.195
39173W        W 6241  42.502   5.281  13.426
39174W        W 6242  24.698  37.947   1.923
39175W        W 6243   8.867   8.670  14.897
39176W        W 6244   6.856  37.868  11.413
39177W        W 6245   2.954  32.089   3.183
39178W        W 6246   1.246  26.602   0.959
39179W        W 6247  41.387  13.679   0.875
39180W        W 6248  35.581  27.551   0.881
39181W        W 6249  38.832  12.643  13.932
39182W        W 6250  36.382   1.250   3.206
39183W        W 6251   6.738  20.583   3.699
39184W        W 6252  27.041   5.787   2.287
39185W        W 6253  27.516   2.318   1.229
39186W        W 6254  37.861   1.820  13.958
39187W        W 6255   3.434  18.271  13.510
39188W        W 6256  26.011  19.105   1.707
39189W        W 6257   2.261  37.387   1.721
39190W        W 6258  16.620   7.778  12.088
39191W        W 6259  33.516  16.173   4.277
39192W        W 6260  34.942   2.354  10.583
39193W        W 6261  16.621  40.370  13.413
39194W        W 6262  35.359  44.953  10.523
39195W        W 6263  29.580   5.747   0.412
39196W        W 6264  42.796  20.145  10.462
39197W        W 6265  23.206  31.971  13.540
39198W        W 6266  33.622  11.133  14.289
39199W        W 6267  39.456  30.976   4.312
39200W        W 6268  40.956   0.261  14.438
39201W        W 6269  22.135  41.006  14.483
39202W        W 6270   9.350  33.944   0.801
39203W        W 6271   9.155  43.946  13.377
39204W        W 6272  35.895  42.967  13.794
39205W        W 6273  38.502  34.945   2.317
39206W        W 6274   4.309  24.002   2.888
39207W        W 6275   7.766  23.587  14.025
39208W        W 6276  26.099   7.370   1.730
39209W        W 6277  16.657  36.474  14.770
39210W        W 6278  20.704   1.833  11.383
39211W        W 6279  34.021   4.212  11.528
39212W        W 6280  39.448  40.955  11.535
39213W        W 6281  43.304  38.343  14.383
39214W        W 6282  28.667  26.555  13.345
39215W        W 6283  38.833  35.500  14.771
39216W        W 6284   4.411  30.469   4.318
39217W        W 6285  15.182  40.001   3.336
39218W        W 6286  38.416  41.943   1.903
39219W        W 6287  21.028  37.424   3.757
39220W        W 6288   4.899  31.042  11.458
39221W        W 6289  25.660  41.400  12.571
39222W        W 6290  31.630   4.742  12.411
39223W        W 6291  28.643  23.626  12.531
39224W        W 6292   0.965  37.078   3.649
39225W        W 6293  23.167  13.605  11.082
39226W        W 6294   4.275   4.738  14.795
39227W        W 6295  12.642  17.110  14.950
39228W        W 6296  10.203  20.537  10.101
39229W        W 6297  19.189  14.168  13.866
39230W        W 6298  16.201  28.457   1.249
39231W        W 6299   0.466  35.954   0.888
39232W        W 6300   2.851  35.972  11.907
39233W        W 6301  13.297  20.554  10.574
39234W        W 6302  11.772  12.197  12.014
39235W        W 6303  44.313   8.200   3.365
39236W        W 6304  35.987  18.750   3.718
39237W        W 6305  18.204  22.688   3.703
39238W        W 6306  32.945  33.922   0.948
39239W        W 6307   7.287  34.610  13.038
39240W        W 6308  10.765  26.119  11.393
39241W        W 6309  43.862  17.218   0.814
39242W        W 6310  41.927  26.647   3.155
39243W        W 6311  34.061   8.838  12.960
39244W        W 6312  15.690  42.302   2.837
39245W        W 6313  16.132  28.998   0.830
39246W        W 6314  10.831   7.757   4.210
39247W        W 6315  22.530  18.173   4.714
39248W        W 6316  37.033  13.814  12.402
39249W        W 6317  26.996  42.469   4.826
39250W        W 6318  19.717  35.047  13.812
39251W        W 6319   8.222  41.454   4.141
39252W        W 6320  11.787  20.660  10.117
39253W        W 6321  39.336  42.500  13.488
39254W        W 6322   8.289  34.583  10.965
39255W        W 6323  24.224  23.532  14.501
39256W        W 6324  33.053  43.889   0.732
39257W        W 6325   0.906   8.376  12.422
39258W        W 6326  26.981  34.518  11.893
39259W        W 6327  42.923  44.809   4.648
39260W        W 6328   3.797  13.665  14.913
39261W        W 6329  34.901  36.560  14.493
39262W        W 6330  44.767   1.805  13.471
39263W        W 6331  35.977   2.861  12.940
39264W        W 6332  30.014  12.700  14.458
39265W        W 6333  42.820  29.567  11.453
39266W        W 6334  13.827  44.899   2.739
39267W        W 6335   6.850  37.384  14.889
39268W        W 6336   6.414  19.668  11.870
39269W        W 6337  30.068   6.918   1.232
39270W        W 6338  12.333  19.629  11.117
39271W        W 6339  32.528  35.411   1.363
39272W        W 6340  24.222  37.997   0.374
39273W        W 6341   7.843  39.472   0.951
39274W        W 6342  35.883  38.326   2.771
39275W        W 6343  24.118  33.488  13.830
39276W        W 6344  44.917   6.764  11.395
39277W        W 6345  24.526   9.191   4.648
39278W        W 6346  34.410  42.940   3.305
39279W        W 6347  25.537  39.367  12.977
39280W        W 6348  10.354  30.640  11.978
39281W        W 6349   7.912  20.110  12.889
39282W        W 6350  38.825  14.147   1.871
39283W        W 6351  18.104   2.256  12.041
39284W        W 6352  15.092  31.991  14.307
39285W        W 6353   9.391  43.814  10.889
39286W        W 6354   9.250  22.650   0.784
39287W        W 6355   6.324  22.617  10.093
39288W        W 6356  21.560  37.920  10.991
39289W        W 6357  25.601  22.713   4.344
39290W        W 6358   9.360  21.228   2.314
39291W        W 6359  33.079   1.748   4.278
39292W        W 6360  21.186   8.886   1.250
39293W        W 6361  30.481  21.220  10.983
39294W        W 6362  24.044  44.329   2.337
39295W        W 6363  21.084  35.889  11.873
39296W        W 6364  34.452  34.960  10.955
39297W        W 6365  41.847  27.086  10.532
39298W        W 6366  20.180  14.244   3.648
39299W        W 6367  23.710   3.357  12.462
39300W        W 6368   0.827   0.382   0.398
39301W        W 6369  35.001  33.594   2.339
39302W        W 6370  37.895  12.691  12.851
39303W        W 6371  19.564  37.835  11.025
39304W        W 6372  15.683  43.803  14.476
39305W        W 6373   7.706  26.164  10.577
39306W        W 6374  15.652  12.834   0.366
39307W        W 6375  37.336  29.107  14.810
39308W        W 6376  19.081  30.083  14.841
39309W        W 6377  17.066  22.183  13.819
39310W        W 6378  42.890  44.344  13.943
39311W        W 6379   8.888  11.673   1.299
39312W        W 6380  11.198  22.572  13.535
39313W        W 6381   2.941   2.919   0.270
39314W        W 6382  10.252  31.941   1.851
39315W        W 6383  29.636  25.122  13.353
39316W        W 6384   6.320  12.118   4.695
39317W        W 6385  29.445  29.481   4.189
39318W        W 6386  10.180  15.779  14.990
39319W        W 6387  33.933  16.279   1.930
39320W        W 6388   8.381  33.054   2.357
39321W        W 6389   2.819  36.442  10.968
39322W        W 6390  27.623   6.814   2.404
39323W        W 6391   2.289   6.288  10.586
39324W        W 6392  43.496  40.340  11.089
39325W        W 6393   8.352   1.244   0.959
39326W        W 6394  34.898  28.500   3.365
39327W        W 6395  38.527   5.261  11.921
39328W        W 6396  10.219  10.854  11.110
39329W        W 6397  43.379  12.829  12.353
39330W        W 6398  31.896  29.945   2.266
39331W        W 6399  37.035  22.586  13.411
39332W        W 6400   3.904  26.144   2.403
39333W        W 6401  18.709  20.245   3.638
39334W        W 6402  35.041  34.953  13.382
39335W        W 6403  31.418  29.160  14.342
39336W        W 6404  41.804  23.231  12.886
39337W        W 6405   3.719  35.079  11.574
39338W        W 6406  18.297   1.878  10.644
39339W        W 6407  17.182  23.586  10.529
39340W        W 6408  26.537   0.304   1.790
39341W        W 6409   2.291  38.527  12.356
39342W        W 6410  20.585  38.502  11.534
39343W        W 6411  33.393  24.493  12.908
39344W        W 6412  13.244   6.789  12.038
39345W        W 6413  31.993  31.446   0.890
39346W        W 6414  23.212  43.433   0.829
39347W        W 6415  40.974  41.410   1.702
39348W        W 6416  21.704  15.303   1.740
39349W        W 6417  25.069  21.602   0.927
39350W        W 6418  14.618  41.947   3.866
39351W        W 6419  36.851   0.416  12.429
39352W        W 6420   2.735   7.361  10.913
39353W        W 6421  41.825  25.590   0.278
39354W        W 6422  14.111  44.808   1.789
39355W        W 6423  29.665  35.977  14.307
39356W        W 6424  22.014  41.385   3.724
39357W        W 6425  26.051   7.265  10.564
39358W        W 6426  37.405   5.286  14.031
39359W        W 6427  16.686  42.814   5.098
39360W        W 6428  38.327   4.367  10.594
39361W        W 6429  19.266  20.035   3.283
39362W        W 6430   7.905  15.693   2.872
39363W        W 6431  19.053  26.010   3.273
39364W        W 6432  21.735  41.957  10.963
39365W        W 6433   8.207  27.679  11.389
39366W        W 6434  28.962  13.833   1.234
39367W        W 6435  39.433  37.082   1.929
39368W        W 6436  22.243  32.484   4.838
39369W        W 6437  27.131   4.914   2.229
39370W        W 6438  39.857  14.148  14.377
39371W        W 6439  33.383  27.128   1.315
39372W        W 6440   1.885  11.779   5.293
39373W        W 6441   8.166  30.936   2.292
39374W        W 6442  44.452  43.516   4.275
39375W        W 6443  40.810  22.606  13.887
39376W        W 6444  19.183  37.027  14.014
39377W        W 6445  41.880  30.023  12.011
39378W        W 6446  36.487  23.156  10.425
39379W        W 6447  34.991  15.611   5.289
39380W        W 6448   4.223  35.470   4.304
39381W        W 6449   2.815   3.712   2.209
39382W        W 6450  39.031  21.534   3.160
39383W        W 6451   3.358  26.621  13.414
39384W        W 6452   4.703  12.349  11.105
39385W        W 6453  40.423  12.649  14.889
39386W        W 6454  41.960  24.197  12.349
39387W        W 6455  42.962  22.189   2.726
39388W        W 6456  40.053  44.007  11.605
39389W        W 6457  34.911  41.326  13.333
39390W        W 6458  14.692  10.836  10.602
39391W        W 6459  35.915   4.393  14.916
39392W        W 6460  44.924   9.318   3.299
39393W        W 6461  32.059   6.736   4.246
39394W        W 6462  31.454  33.009  13.963
39395W        W 6463   7.822  16.759  10.587
39396W        W 6464  32.530  29.559  11.866
39397W        W 6465   7.316   8.185  11.123
39398W        W 6466  35.923  15.273   4.673
39399W        W 6467  14.264  27.690   1.754
39400W        W 6468  17.269  44.971  14.319
39401W        W 6469  17.662   0.892  10.508
39402W        W 6470  26.092   9.659  11.552
39403W        W 6471  38.048   0.815   4.711
39404W        W 6472  36.514  21.512   4.227
39405W        W 6473   1.877   4.745  10.032
39406W        W 6474  36.557  41.804   4.127
39407W        W 6475  19.588  21.554  13.391
39408W        W 6476  38.357  25.155  11.937
39409W        W 6477  38.915  26.645   1.766
39410W        W 6478  28.150  17.624  14.959
39411W        W 6479  15.593   3.425  10.987
39412W        W 6480  15.237  30.469   3.642
39413W        W 6481  36.518   5.237  10.924
39414W        W 6482  18.707  34.093   3.659
39415W        W 6483  29.141  27.081  14.440
39416W        W 6484  18.637  11.683   2.326
39417W        W 6485  17.162  23.656  12.927
39418W        W 6486  13.140  41.982  14.940
39419W        W 6487  39.842  41.965  10.411
39420W        W 6488  21.219   9.377   3.771
39421W        W 6489  41.534  14.640  14.998
39422W        W 6490  24.163  24.489   2.296
39423W        W 6491  22.157   0.429   0.795
39424W        W 6492  38.013  10.153   3.355
39425W        W 6493  30.659   0.961  10.617
39426W        W 6494  17.672  17.085  11.893
39427W        W 6495  36.378  10.162   3.164
39428W        W 6496  13.132   1.766   0.471
39429W        W 6497  25.565  21.197   4.735
39430W        W 6498  41.982  22.110   1.895
39431W        W 6499   0.756  22.622   1.911
39432W        W 6500  35.592   4.421  13.541
39433W        W 6501  33.090  34.961   1.791
39434W        W 6502  31.153   3.799  13.534
39435W        W 6503  14.804   8.710  14.952
39436W        W 6504  27.997  19.081  10.983
39437W        W 6505  29.509  15.677   0.751
39438W        W 6506  35.416  43.972  11.458
39439W        W 6507  30.027  39.064  14.826
39440W        W 6508   2.310  21.109   2.745
39441W        W 6509  32.043  23.688  11.903
39442W        W 6510   2.789  39.041  14.977
39443W        W 6511  23.050  21.537  14.843
39444W        W 6512  44.821  10.176  11.989
39445W        W 6513  13.660  30.115   4.713
39446W        W 6514  35.438  41.889  12.042
39447W        W 6515   9.719   2.787  12.976
39448W        W 6516  31.059  27.595  14.851
39449W        W 6517  23.668  40.988  14.369
39450W        W 6518  23.139  18.083   3.747
39451W        W 6519  41.371  19.149   0.834
39452W        W 6520  25.217  21.688  12.526
39453W        W 6521  36.977   6.859   1.369
39454W        W 6522  38.968  34.557  11.917
39455W        W 6523  32.433  31.039  11.881
39456W        W 6524  38.490  14.736  12.037
39457W        W 6525  10.301  20.643  10.494
39458W        W 6526  16.706   3.326  14.937
39459W        W 6527  13.611  13.655  11.084
39460W        W 6528   2.282  14.596   4.721
39461W        W 6529  22.113  22.072  14.344
39462W        W 6530   3.248  33.127   2.395
39463W        W 6531  33.403  11.769   3.194
39464W        W 6532  11.627   5.431  13.321
39465W        W 6533  40.406  27.123  11.523
39466W        W 6534  40.983  28.574  14.385
39467W        W 6535  10.237  12.754   3.310
39468W        W 6536   1.476  38.071   3.243
39469W        W 6537  36.055  18.553  14.378
39470W        W 6538   3.789  42.283   3.185
39471W        W 6539  12.768  28.582  10.434
39472W        W 6540  39.496  24.127   2.844
39473W        W 6541  40.960  20.629  10.972
39474W        W 6542  29.946  14.594  12.900
39475W        W 6543   4.273  21.216  14.979
39476W        W 6544  20.627  21.633  14.882
39477W        W 6545  23.135  32.566  12.850
39478W        W 6546  18.123  18.060   2.228
39479W        W 6547  13.664  23.044   3.300
39480W        W 6548  18.103  23.731   2.293
39481W        W 6549  26.656   8.789   3.179
39482W        W 6550  19.634  41.494  11.377
39483W        W 6551  16.810  19.115   1.758
39484W        W 6552  43.957  44.317   2.205
39485W        W 6553  32.454  35.073  11.605
39486W        W 6554   1.384  38.032  11.460
39487W        W 6555  13.695  13.638   0.756
39488W        W 6556  10.663  38.053   3.796
39489W        W 6557  43.935  23.076  11.116
39490W        W 6558  36.938   8.362  13.005
39491W        W 6559  14.607  22.721  14.797
39492W        W 6560   3.917  24.091   4.742
39493W        W 6561  14.790  44.983  11.116
39494W        W 6562  42.423  19.661   4.799
39495W        W 6563   9.355  16.613   3.800
39496W        W 6564  14.644  27.632  10.573
39497W        W 6565  44.765  34.062   4.302
39498W        W 6566   9.387   9.810  14.372
39499W        W 6567  13.116  23.529  11.015
39500W        W 6568  32.442   5.313   4.826
39501W        W 6569  18.694  26.507   4.126
39502W        W 6570  35.485  15.799   2.276
39503W        W 6571  23.987  19.614   1.873
39504W        W 6572  17.558  39.996   4.685
39505W        W 6573  18.640   6.383  10.643
39506W        W 6574   8.380  28.589   3.662
39507W        W 6575  23.070  28.001   0.448
39508W        W 6576  30.970  28.137  10.473
39509W        W 6577  27.089  42.892   0.877
39510W        W 6578  11.717  41.974  11.128
39511W        W 6579  25.983  13.813  13.440
39512W        W 6580   0.938  30.024   1.440
39513W        W 6581  41.888   4.329  10.951
39514W        W 6582  29.485  34.596   0.450
39515W        W 6583   5.864  41.893   2.722
39516W        W 6584  21.228  29.126   1.871
39517W        W 6585  24.572  20.745   1.736
39518W        W 6586  37.928  35.004   1.921
39519W        W 6587  24.575  27.049   1.842
39520W        W 6588   5.777  30.916   0.727
39521W        W 6589  39.337  31.406   1.349
39522W        W 6590   2.957  38.488  13.027
39523W        W 6591  28.165   1.257  13.885
39524W        W 6592  12.769   4.783  10.541
39525W        W 6593  13.732  15.730   4.160
39526W        W 6594   4.809  18.700   0.282
39527W        W 6595   2.362  35.548  11.910
39528W        W 6596  30.085   3.817   4.647
39529W        W 6597  24.185  20.705   3.843
39530W        W 6598  13.178  15.198  12.480
39531W        W 6599  30.000  40.043   2.250
39532W        W 6600  42.898  29.074  10.454
39533W        W 6601  38.351  27.452  10.581
39534W        W 6602  23.657  17.238   2.388
39535W        W 6603  27.549   4.367   1.368
39536W        W 6604  30.022  37.902   3.791
39537W        W 6605  34.071  44.266   4.810
39538W        W 6606  24.613  13.294   2.364
39539W        W 6607  16.282  37.846  13.962
39540W        W 6608  43.351  19.713  14.802
39541W        W 6609  19.644   3.853  12.036
39542W        W 6610  11.243  44.495  11.478
39543W        W 6611   8.285  16.631   2.291
39544W        W 6612  19.657   1.244  10.593
39545W        W 6613  29.545   2.732  13.495
39546W        W 6614  28.596  18.785  11.945
39547W        W 6615  36.506  27.968  12.536
39548W        W 6616  10.870  41.005  12.936
39549W        W 6617  35.858  22.504   4.171
39550W        W 6618   4.374   1.836  13.510
39551W        W 6619  21.053  40.809   9.646
39552W        W 6620  42.929  44.916  14.299
39553W        W 6621  19.095  39.505  10.457
39554W        W 6622  20.732   7.892   0.307
39555W        W 6623  12.250  36.358   1.390
39556W        W 6624  23.007  24.084   1.429
39557W        W 6625   7.400   6.824   0.278
39558W        W 6626  43.767  33.882  14.494
39559W        W 6627   4.841  35.065   0.817
39560W        W 6628  24.074   5.711   4.717
39561W        W 6629   0.970  23.058  13.537
39562W        W 6630  29.091  42.910  13.946
39563W        W 6631   3.344  43.272  14.817
39564W        W 6632  30.616  16.220  12.967
39565W        W 6633   7.264  22.590  13.062
39566W        W 6634  13.149  10.878  12.448
39567W        W 6635   8.860   6.809  12.951
39568W        W 6636  12.686  29.930  13.312
39569W        W 6637  22.557  40.472  11.929
39570W        W 6638  11.673  11.653   4.836
39571W        W 6639  35.563  31.063  13.806
39572W        W 6640  25.539  34.894   3.332
39573W        W 6641   3.219  22.592   1.927
39574W        W 6642  10.332  44.851  13.818
39575W        W 6643  44.271  13.125  11.097
39576W        W 6644  34.395  24.160  12.830
39577W        W 6645  32.001  35.074   3.649
39578W        W 6646  36.361  19.267  13.847
39579W        W 6647  16.141  19.241   0.932
39580W        W 6648  26.605  35.359  12.929
39581W        W 6649  20.522  19.071  11.923
39582W        W 6650  22.036  41.490   2.859
39583W        W 6651  39.879  16.734  11.579
39584W        W 6652  24.534  37.981   0.817
39585W        W 6653   4.302  19.278   3.207
39586W        W 6654  34.949  42.439  14.922
39587W        W 6655  23.554   2.288   2.839
39588W        W 6656  29.441  41.946   1.243
39589W        W 6657   8.898  15.136  12.533
39590W        W 6658  41.484  22.538   2.208
39591W        W 6659  26.009   0.347  11.508
39592W        W 6660  21.579  39.998   9.966
39593W        W 6661  18.135  41.441  13.515
39594W        W 6662   2.947  21.538   1.769
39595W        W 6663  14.143  37.034  14.323
39596W        W 6664  11.259   4.435   2.244
39597W        W 6665  27.507  21.212  14.974
39598W        W 6666   5.880  29.940   3.218
39599W        W 6667  44.496  35.967   0.429
39600W        W 6668  11.200  40.419   2.181
39601W        W 6669  43.503  23.062  12.073
39602W        W 6670  44.468  35.869  12.553
39603W        W 6671  20.587  25.600   2.197
39604W        W 6672   2.801  14.651   1.236
39605W        W 6673  12.217  38.484  11.500
39606W        W 6674  31.965  41.525   0.476
39607W        W 6675   9.771  21.610  11.036
39608W        W 6676  19.714   1.771   2.280
39609W        W 6677  36.951   0.328  10.490
39610W        W 6678  38.017   9.271  11.049
39611W        W 6679  13.107   9.267  14.006
39612W        W 6680  18.753  41.006  13.501
39613W        W 6681   5.922  43.307   4.721
39614W        W 6682  17.168  14.737   2.813
39615W        W 6683   7.241   7.798  13.843
39616W        W 6684  29.525  41.942   1.700
39617W        W 6685   3.426  25.042  14.320
39618W        W 6686  36.476  21.641   1.273
39619W        W 6687  36.924  23.545   2.740
39620W        W 6688  25.085  42.780   1.241
39621W        W 6689   7.753  11.637   0.784
39622W        W 6690  37.031  44.883  12.580
39623W        W 6691  18.787  23.039  12.495
39624W        W 6692  32.507   2.328  12.941
39625W        W 6693  20.065  27.970   4.315
39626W        W 6694  38.445   5.312  11.469
39627W        W 6695  13.720  20.709  14.507
39628W        W 6696  30.535  37.894   2.326
39629W        W 6697  27.050   0.333   0.843
39630W        W 6698  11.334  31.455  12.090
39631W        W 6699  16.603  34.025  11.557
39632W        W 6700  10.862  29.533  12.887
39633W        W 6701   9.313   0.825   4.725
39634W        W 6702   8.735  22.199   4.761
39635W        W 6703  36.918   7.784   0.794
39636W        W 6704  42.808  24.999   1.300
39637W        W 6705  25.532  40.369  13.846
39638W        W 6706  33.453  28.541  14.899
39639W        W 6707  24.539   2.873  14.800
39640W        W 6708  20.236  17.147  10.640
39641W        W 6709   4.760   8.692  14.439
39642W        W 6710  39.928  25.598   3.703
39643W        W 6711   4.927  39.340   1.405
39644W        W 6712  12.151  27.093  12.434
39645W        W 6713  27.607  24.100  13.308
39646W        W 6714   3.400  17.254  13.017
39647W        W 6715   4.860  12.310   2.707
39648W        W 6716  25.567  24.657  14.025
39649W        W 6717  41.295  14.763  10.983
39650W        W 6718  30.113   3.397  10.411
39651W        W 6719  24.576  11.788  11.398
39652W        W 6720   4.327  16.295   4.598
39653W        W 6721  31.407   1.256  10.628
39654W        W 6722   7.757   1.379   2.818
39655W        W 6723  15.802  30.996   0.438
39656W        W 6724  32.005  34.005  10.449
39657W        W 6725  30.570  26.996   4.823
39658W        W 6726  17.735  15.624  11.867
39659W        W 6727   8.729  24.110  13.321
39660W        W 6728  33.981  10.264  11.875
39661W        W 6729  25.207  13.625  14.312
39662W        W 6730  44.367  40.863   9.974
39663W        W 6731  20.662  22.071  13.361
39664W        W 6732   8.395  40.457   4.789
39665W        W 6733  24.050   3.901  11.469
39666W        W 6734  36.448   1.789  13.029
39667W        W 6735  24.507  39.350   4.178
39668W        W 6736  26.603  26.187  11.929
39669W        W 6737   7.242  23.997  12.886
39670W        W 6738  25.164  32.480   1.884
39671W        W 6739  44.794   1.313  13.802
39672W        W 6740  41.424  18.155  13.044
39673W        W 6741  38.541   4.760  11.968
39674W        W 6742  16.200  27.963   2.268
39675W        W 6743  23.217  20.063   0.914
39676W        W 6744   1.333   3.780   4.300
39677W        W 6745  33.010  28.491   3.267
39678W        W 6746  42.429  39.334   3.194
39679W        W 6747   2.314   4.912  12.004
39680W        W 6748  21.171  38.942   5.309
39681W        W 6749  41.964  43.309  11.121
39682W        W 6750   4.271   3.836  12.026
39683W        W 6751   6.398  32.990  11.962
39684W        W 6752  40.887  39.371   4.822
39685W        W 6753  12.293  15.694  10.038
39686W        W 6754  14.196  29.125   2.722
39687W        W 6755   6.822  44.358   3.217
39688W        W 6756  23.082   9.866  14.028
39689W        W 6757  43.497   9.372   0.740
39690W        W 6758  37.575  22.141   4.625
39691W        W 6759   7.786  14.609   1.392
39692W        W 6760  12.239  13.149  14.425
39693W        W 6761  15.267  41.460  11.542
39694W        W 6762  14.266  18.787  11.883
39695W        W 6763   4.390  10.653  11.466
39696W        W 6764  23.987  27.586  12.978
39697W        W 6765  19.081   0.746  13.000
39698W        W 6766  25.617  19.712  11.378
39699W        W 6767  28.155   0.493  12.852
39700W        W 6768   8.789  39.378   2.896
39701W        W 6769   8.864  10.191   2.683
39702W        W 6770  30.001  35.542  11.866
39703W        W 6771   6.903  30.978   3.867
39704W        W 6772  28.677  26.016  12.490
39705W        W 6773  26.185  11.669  13.038
39706W        W 6774   0.372  36.844   0.951
39707W        W 6775  34.483  28.675   2.842
39708W        W 6776  35.887   8.164  12.466
39709W        W 6777  38.012  16.749  14.801
39710W        W 6778   1.329  19.695  13.336
39711W        W 6779  34.901  21.649   4.196
39712W        W 6780  14.103   9.245   4.191
39713W        W 6781   5.218  39.904   4.638
39714W        W 6782  44.919  37.032  12.476
39715W        W 6783  33.567  27.512  12.446
39716W        W 6784  22.061  22.650  11.018
39717W        W 6785  44.945   6.390   2.729
39718W        W 6786   1.467   8.787  12.543
39719W        W 6787  29.051  40.383  14.921
39720W        W 6788  12.856   2.952   0.785
39721W        W 6789   9.739  40.019   3.740
39722W        W 6790  37.908  39.009   3.320
39723W        W 6791  15.599  38.870   2.682
39724W        W 6792  20.165  12.138  13.828
39725W        W 6793   8.181  27.526   3.841
39726W        W 6794   8.300  19.766  10.161
39727W        W 6795   4.809   2.381   2.387
39728W        W 6796   9.197  11.846   0.818
39729W        W 6797  23.581   3.225  12.884
39730W        W 6798  17.253  29.998   4.665
39731W        W 6799  14.642  29.540  12.516
39732W        W 6800  43.995  11.634  11.970
39733W        W 6801  20.130  29.551   1.878
39734W        W 6802   6.329   5.307   4.834
39735W        W 6803   9.353  26.954  12.856
39736W        W 6804  35.601  20.743  10.444
39737W        W 6805   5.389  16.209   0.320
39738W        W 6806  38.077  40.306   1.729
39739W        W 6807   4.290  40.846  12.423
39740W        W 6808  33.899  27.091  14.869
39741W        W 6809  35.052  26.032   0.882
39742W        W 6810  35.586  44.334  14.450
39743W        W 6811  34.370  33.622  12.975
39744W        W 6812  28.471  33.038   3.256
39745W        W 6813  34.506  25.558   4.769
39746W        W 6814  24.173   7.218   1.229
39747W        W 6815  13.309  42.497  10.536
39748W        W 6816  39.971  40.334   1.842
39749W        W 6817  44.847  39.874   0.791
39750W        W 6818  37.455   9.187   1.278
39751W        W 6819  20.556  37.882   4.237
39752W        W 6820   4.431  20.071   1.880
39753W        W 6821  19.777   8.168   0.399
39754W        W 6822  34.564   1.359   0.379
39755W        W 6823  17.616  18.756   3.383
39756W        W 6824  19.775  44.342  12.976
39757W        W 6825  25.605  34.497  14.353
39758W        W 6826  31.988   5.351  14.461
39759W        W 6827  20.685  10.212   1.731
39760W        W 6828   8.341  30.458   1.809
39761W        W 6829  27.679   3.892   1.933
39762W        W 6830  18.170  28.602   1.355
39763W        W 6831   8.876  29.628   4.250
39764W        W 6832  21.586   7.877   1.238
39765W        W 6833  14.265  16.650  13.850
39766W        W 6834  16.187  32.621  12.570
39767W        W 6835  38.991   3.278  12.833
39768W        W 6836  10.846  29.082   2.875
39769W        W 6837   9.819   2.314  11.572
39770W        W 6838   4.346   5.247  14.760
39771W        W 6839   1.958  44.370   4.599
39772W        W 6840   8.787  18.776   3.311
39773W        W 6841  16.081  22.247   0.940
39774W        W 6842  18.259   9.648  14.419
39775W        W 6843  38.548  13.818  14.867
39776W        W 6844  33.983   4.822  10.982
39777W        W 6845  31.133   5.885   1.879
39778W        W 6846   4.803  41.801  11.442
39779W        W 6847  10.652  20.212  14.295
39780W        W 6848  43.823  31.453  11.870
39781W        W 6849  34.466  43.394  12.069
39782W        W 6850   9.228  15.280   2.722
39783W        W 6851  13.772  36.505   1.231
39784W        W 6852  29.475  15.256  14.380
39785W        W 6853  22.507  39.493  11.377
39786W        W 6854  39.901  22.608   3.374
39787W        W 6855  27.099   9.153  13.910
39788W        W 6856  35.400   0.830  10.598
39789W        W 6857  19.282  33.884  13.471
39790W        W 6858  32.116  41.003   4.295
39791W        W 6859  21.046   8.195   4.185
39792W        W 6860  26.701  35.561   9.999
39793W        W 6861  27.117   3.797  13.830
39794W        W 6862  28.548  41.406  11.985
39795W        W 6863  21.113  35.069  10.996
39796W        W 6864  22.564  24.627  12.065
39797W        W 6865  19.094  20.144   3.792
39798W        W 6866  12.715  19.690   3.829
39799W        W 6867  40.942  19.537  13.794
39800W        W 6868  40.005  18.683   3.727
39801W        W 6869  37.838  30.951   2.684
39802W        W 6870  42.423  30.587   3.210
39803W        W 6871  12.247  24.020   3.709
39804W        W 6872   7.239  38.519   2.749
39805W        W 6873  28.500  20.589   1.818
39806W        W 6874  13.745   4.944  10.405
39807W        W 6875  29.476  31.569  11.548
39808W        W 6876  17.689  30.436   1.920
39809W        W 6877  41.969  44.801   0.445
39810W        W 6878   6.886  19.124   3.267
39811W        W 6879  16.652  35.496  11.075
39812W        W 6880  18.686  22.086  11.541
39813W        W 6881  23.158  17.726   1.294
39814W        W 6882  38.020  12.841  11.975
39815W        W 6883  26.179  10.208  11.966
39816W        W 6884  43.408  14.730  10.611
39817W        W 6885  11.627  29.092  10.587
39818W        W 6886  26.036  26.602   0.399
39819W        W 6887  34.380  38.913  14.474
39820W        W 6888  16.785  43.929   3.707
39821W        W 6889   0.306  16.586   1.798
39822W        W 6890  43.513  28.131  11.602
39823W        W 6891  16.233  19.067  10.587
39824W        W 6892   2.860  34.588  11.552
39825W        W 6893  44.419  37.533   3.859
39826W        W 6894  23.689  19.202  11.536
39827W        W 6895  14.321  29.121  13.053
39828W        W 6896   3.818  13.279  12.877
39829W        W 6897   0.324   7.332   4.127
39830W        W 6898  30.507  26.660  13.502
39831W        W 6899   7.764  20.048  11.465
39832W        W 6900  40.307  17.070   0.780
39833W        W 6901  27.461  14.303   3.852
39834W        W 6902  29.609  21.138  14.019
39835W        W 6903   4.320   5.853   3.721
39836W        W 6904  33.109  24.156   4.713
39837W        W 6905  42.476  43.839  11.911
39838W        W 6906   3.411  38.497   4.172
39839W        W 6907  29.495  10.240   0.858
39840W        W 6908  13.600  19.732   2.396
39841W        W 6909  22.109  25.537   4.686
39842W        W 6910  17.733  43.866  10.973
39843W        W 6911  31.076  43.869   0.275
39844W        W 6912   2.404  42.344   1.340
39845W        W 6913  43.422  20.589   1.399
39846W        W 6914   9.249  44.003   1.428
39847W        W 6915   9.727  28.489  11.019
39848W        W 6916  28.512  11.627  12.533
39849W        W 6917  24.005  35.896   4.703
39850W        W 6918   8.370  16.248   3.303
39851W        W 6919  38.041  12.736   4.626
39852W        W 6920   3.284  28.495   2.879
39853W        W 6921  27.942  37.393  13.001
39854W        W 6922  12.200   6.387  11.408
39855W        W 6923   3.893  14.286   2.737
39856W        W 6924  25.691   8.279  11.952
39857W        W 6925  25.181  41.453   4.630
39858W        W 6926  17.117   9.277  14.981
39859W        W 6927  43.507  20.754   0.351
39860W        W 6928  31.120   2.944   4.222
39861W        W 6929  31.635  40.302   1.251
39862W        W 6930  38.970  31.136  13.485
39863W        W 6931  14.624  28.618  13.359
39864W        W 6932  27.581  38.387  13.450
39865W        W 6933  29.011  23.645   2.309
39866W        W 6934  34.486   0.836   3.300
39867W        W 6935  15.134   6.831  10.066
39868W        W 6936  14.214  39.409   0.295
39869W        W 6937  12.282  40.869   0.845
39870W        W 6938  26.164  41.867   4.241
39871W        W 6939   1.732  31.037  10.904
39872W        W 6940  20.116  11.657  14.318
39873W        W 6941  15.088  17.130  10.914
39874W        W 6942  21.077  34.043   1.849
39875W        W 6943  13.107   0.315  12.086
39876W        W 6944  29.086  42.402  10.434
39877W        W 6945  33.518  21.108   3.342
39878W        W 6946  38.993  14.303   4.237
39879W        W 6947  31.973  16.794   5.081
39880W        W 6948  12.749   5.397   4.808
39881W        W 6949  14.104  34.880  11.900
39882W        W 6950  37.921   9.247   3.660
39883W        W 6951   1.795  12.197   3.192
39884W        W 6952   3.411  34.554   1.269
39885W        W 6953  35.467  39.345   2.353
39886W        W 6954   8.186  16.158   0.364
39887W        W 6955  33.616  14.735  11.948
39888W        W 6956  28.056  38.896  10.912
39889W        W 6957  34.977   1.399   4.627
39890W        W 6958   7.287  14.685  11.101
39891W        W 6959  37.002   8.404  13.373
39892W        W 6960  23.707  18.284   3.311
39893W        W 6961   0.265  20.560  11.111
39894W        W 6962  18.097   0.447   0.823
39895W        W 6963  26.459  35.593  11.971
39896W        W 6964   2.879  27.156   4.166
39897W        W 6965  29.583   8.841   2.744
39898W        W 6966  21.089  17.285   4.827
39899W        W 6967  18.182  15.127  14.882
39900W        W 6968  26.462  33.927   4.726
39901W        W 6969  20.080  42.952  12.522
39902W        W 6970  29.595  24.523   2.764
39903W        W 6971  11.771  10.646  13.882
39904W        W 6972  39.813  17.557  13.547
39905W        W 6973  39.977  18.752   2.663
39906W        W 6974  29.167  15.158   3.236
39907W        W 6975  39.809   2.286  14.435
39908W        W 6976  23.714  31.065   4.234
39909W        W 6977  17.091  22.573  14.425
39910W        W 6978  16.649  27.942  10.921
39911W        W 6979  19.764  35.446  11.447
39912W        W 6980  25.144  15.158   2.181
39913W        W 6981  18.655  44.343  14.404
39914W        W 6982   9.644   5.212  12.080
39915W        W 6983  23.090  15.196   3.777
39916W        W 6984  38.012  22.693   1.824
39917W        W 6985  32.129  18.118  12.350
39918W        W 6986   9.828  19.222   2.257
39919W        W 6987  17.198  34.905  12.346
39920W        W 6988  30.051   3.777  12.034
39921W        W 6989  43.801  40.396   2.304
39922W        W 6990   0.320  37.465  13.962
39923W        W 6991  23.565  25.169   0.284
39924W        W 6992  21.600  26.155   2.409
39925W        W 6993  10.648  43.463  14.288
39926W        W 6994   6.834  41.417  10.438
39927W        W 6995  40.837  22.178  13.350
39928W        W 6996  31.554  24.688  11.909
39929W        W 6997  29.664   5.275   1.430
39930W        W 6998  18.283  23.539   1.922
39931W        W 6999  21.094  19.206  13.838
39932W        W 7000   5.877  42.445   4.192
39933W        W 7001  14.229   0.849  13.342
39934W        W 7002  24.161  27.006  11.601
39935W        W 7003  13.336  38.522  14.783
39936W        W 7004  30.611  27.021   0.338
39937W        W 7005  40.369   7.296   1.360
39938W        W 7006  30.586  43.830  12.912
39939W        W 7007  16.118  26.092  13.048
39940W        W 7008   5.365  29.515  13.468
39941W        W 7009   3.237  18.285   4.248
39942W        W 7010  31.120  23.624  10.986
39943W        W 7011   2.801  26.587   0.434
39944W        W 7012  10.145   7.315  10.033
39945W        W 7013  13.769  20.742   4.174
39946W        W 7014   7.789  17.117   1.239
39947W        W 7015   3.445  21.685  13.325
39948W        W 7016  35.027  28.570   1.295
39949W        W 7017  31.585  21.634  13.846
39950W        W 7018   8.848  23.718   2.222
39951W        W 7019  10.156  42.869   2.728
39952W        W 7020   0.974  43.953  14.013
39953W        W 7021  21.194  16.737   1.299
39954W        W 7022  26.497  28.505  12.060
39955W        W 7023   8.171   2.952   0.893
39956W        W 7024  24.040  14.788  13.424
39957W        W 7025  24.097  29.126   3.646
39958W        W 7026  38.411  38.034   2.843
39959W        W 7027   5.343  43.414  14.489
39960W        W 7028  20.255   1.411   2.886
39961W        W 7029  43.459   0.986   4.164
39962W        W 7030  16.128  21.141   0.374
39963W        W 7031  20.062   6.405  14.508
39964W        W 7032  16.084  41.326  13.349
39965W        W 7033  28.127  40.024  12.942
39966W        W 7034  42.987  32.090   2.852
39967W        W 7035  20.586   6.369   1.911
39968W        W 7036   2.954  28.010   3.260
39969W        W 7037  23.541  32.594  11.569
39970W        W 7038  32.885  41.976   3.217
39971W        W 7039   2.348  34.060  14.952
39972W        W 7040  27.450  41.491  11.524
39973W        W 7041  18.101  35.037  11.045
39974W        W 7042   2.231  22.701   4.777
39975W        W 7043   5.431   1.331  10.993
39976W        W 7044  26.168   5.313   2.897
39977W        W 7045  39.560  42.803  10.610
39978W        W 7046   2.342  12.790   0.878
39979W        W 7047   5.391   4.868  12.991
39980W        W 7048  31.589   0.916  12.572
39981W        W 7049  42.982  17.287   1.400
39982W        W 7050  20.028  41.823   0.914
39983W        W 7051  24.484  29.547   2.864
39984W        W 7052   1.396  43.931   0.787
39985W        W 7053  28.995  13.176  12.549
39986W        W 7054  12.158   8.377   4.121
39987W        W 7055  42.915  35.048   2.334
39988W        W 7056  32.442  21.069  11.552
39989W        W 7057  27.689  19.131  10.473
39990W        W 7058   9.204  11.722   3.170
39991W        W 7059  34.985  43.472  11.029
39992W        W 7060  20.628   3.332   3.358
39993W        W 7061  15.137  37.918  11.860
39994W        W 7062  41.879   9.699  13.319
39995W        W 7063  14.744  17.175  12.520
39996W        W 7064  10.294  19.162  11.447
39997W        W 7065  26.027  11.199  14.028
39998W        W 7066  35.486  10.373  11.568
39999W        W 7067   6.828  19.540  12.575
40000W        W 7068  40.304   4.813   9.941
40001W        W 7069  39.353   7.813   4.169
40002W        W 7070  15.193  38.981   1.283
40003W        W 7071   6.753  21.163  14.340
40004W        W 7072  10.172  31.415  11.473
40005W        W 7073  28.559  44.300  12.448
40006W        W 7074   8.371  18.297   4.139
40007W        W 7075  34.896   5.798  12.456
40008W        W 7076   2.893  32.405  10.045
40009W        W 7077  19.100  32.469   0.431
40010W        W 7078  34.552  28.934  13.874
40011W        W 7079  23.665  11.663   1.825
40012W        W 7080  21.671  39.059  11.566
40013W        W 7081  24.003  15.685  10.061
40014W        W 7082  27.641   9.781   2.672
40015W        W 7083  13.289  44.452   1.220
40016W        W 7084  32.943   2.905  13.367
40017W        W 7085  39.823  12.280   1.379
40018W        W 7086  35.928  15.129  13.823
40019W        W 7087   4.708  20.204  13.993
40020W        W 7088  33.479  24.695   2.727
40021W        W 7089  32.928  35.526  12.466
40022W        W 7090  16.287  44.002   1.250
40023W        W 7091  28.054  38.956  10.623
40024W        W 7092  29.071  32.004  12.041
40025W        W 7093  28.123  36.405  12.966
40026W        W 7094  12.315  11.695   4.690
40027W        W 7095   8.376  32.103  14.359
40028W        W 7096  20.538  37.558   3.295
40029W        W 7097  27.040  31.504  10.610
40030W        W 7098   3.863  43.836   1.755
40031W        W 7099  21.245  44.873  11.383
40032W        W 7100  41.392  10.788  11.579
40033W        W 7101  10.219  12.713  14.449
40034W        W 7102  42.999   9.238   4.834
40035W        W 7103  17.666   8.362   3.843
40036W        W 7104  16.757  13.264  11.380
40037W        W 7105  18.657  42.816   1.263
40038W        W 7106   1.840  23.103   2.810
40039W        W 7107  38.850  29.531   4.675
40040W        W 7108  26.049  17.703   4.663
40041W        W 7109  25.006   7.761  12.468
40042W        W 7110  12.210  30.105   0.375
40043W        W 7111  26.085  31.622   4.790
40044W        W 7112   2.324  35.037  14.955
40045W        W 7113  39.370  12.804  14.814
40046W        W 7114  20.246  23.133  13.499
40047W        W 7115  18.583   4.755  10.457
40048W        W 7116  41.512  42.995  13.819
40049W        W 7117  23.203  24.582  11.867
40050W        W 7118  42.305  29.666  12.425
40051W        W 7119  15.729  29.440   2.349
40052W        W 7120  20.232  38.030   1.696
40053W        W 7121  14.828  35.415  13.409
40054W        W 7122   7.369  35.378   0.806
40055W        W 7123  17.248  22.711   4.803
40056W        W 7124  42.471  43.403  11.932
40057W        W 7125  22.221  26.700   2.177
40058W        W 7126  39.480  18.753  14.929
40059W        W 7127  32.907  17.295  14.862
40060W        W 7128   3.293  43.289   4.345
40061W        W 7129  27.171  25.480  12.025
40062W        W 7130   3.305  33.014  13.478
40063W        W 7131  16.237  26.049   2.371
40064W        W 7132  17.162  26.483  12.095
40065W        W 7133  35.042  12.184   1.243
40066W        W 7134  30.478  18.623   4.270
40067W        W 7135  37.545   5.221   1.792
40068W        W 7136   1.367  13.761  14.498
40069W        W 7137   3.234  24.030   3.783
40070W        W 7138  23.056   0.887  14.301
40071W        W 7139  32.573  30.941  13.547
40072W        W 7140  29.549  10.266   2.705
40073W        W 7141   1.287  10.811  12.536
40074W        W 7142  40.433  44.473   1.239
40075W        W 7143   1.482  34.524  13.994
40076W        W 7144  32.127  10.258   4.233
40077W        W 7145  43.397  11.724   4.195
40078W        W 7146  28.179  34.467  11.543
40079W        W 7147   3.369  11.827   2.188
40080W        W 7148  10.782  34.087   4.728
40081W        W 7149   5.808  39.504  14.008
40082W        W 7150   3.458  31.044   4.696
40083W        W 7151   5.397  35.964  13.373
40084W        W 7152   7.678  37.556  13.442
40085W        W 7153  43.882  29.616  10.496
40086W        W 7154  24.637  15.708   4.311
40087W        W 7155   6.258  16.692  12.357
40088W        W 7156  37.414  33.040  12.975
40089W        W 7157  26.497  17.768   0.796
40090W        W 7158  43.311   4.209  12.562
40091W        W 7159  18.050  15.118   2.771
40092W        W 7160  25.109   1.358  11.455
40093W        W 7161  17.264  40.875   2.325
40094W        W 7162  32.034  25.191   4.236
40095W        W 7163  28.155  14.283  13.364
40096W        W 7164   1.806  10.682  14.760
40097W        W 7165  34.059  11.665   2.790
40098W        W 7166  26.653  11.748  11.571
40099W        W 7167  26.505  41.518  13.931
40100W        W 7168  24.715   1.759  12.364
40101W        W 7169  31.118  20.162   2.345
40102W        W 7170  33.530   1.334   0.917
40103W        W 7171  32.491  30.975  12.568
40104W        W 7172  21.238  27.166   2.409
40105W        W 7173  42.804  27.093   1.312
40106W        W 7174  40.519  42.385   3.189
40107W        W 7175   3.240  29.518   3.321
40108W        W 7176  23.130  44.777  12.978
40109W        W 7177  17.075  25.077   0.278
40110W        W 7178  25.029  18.757  13.494
40111W        W 7179  42.973  35.939  11.465
40112W        W 7180  41.492  20.724  14.809
40113W        W 7181  13.843  12.612   2.867
40114W        W 7182  21.077  29.136  13.795
40115W        W 7183  34.484  40.525  10.944
40116W        W 7184  43.489  22.006  12.562
40117W        W 7185  37.580   0.920  11.965
40118W        W 7186  33.432  30.161  12.863
40119W        W 7187  12.852  10.226  13.529
40120W        W 7188   2.287  44.954  14.860
40121W        W 7189   1.334  22.136   2.392
40122W        W 7190  38.009   8.204   1.270
40123W        W 7191   7.714  17.744   2.199
40124W        W 7192  19.779  19.724   4.314
40125W        W 7193  13.119   8.851   5.210
40126W        W 7194  24.094  44.781  12.906
40127W        W 7195  30.590  42.327   2.754
40128W        W 7196   7.200  10.139   2.350
40129W        W 7197  38.440  31.578   0.924
40130W        W 7198  33.941  24.660  12.458
40131W        W 7199  27.578  34.447   3.662
40132W        W 7200  23.525  31.991   2.351
40133W        W 7201  42.297  26.986  10.532
40134W        W 7202  38.386  13.160  11.610
40135W        W 7203  37.861  27.629   2.189
40136W        W 7204  11.625  23.694  14.300
40137W        W 7205   7.713   8.223  14.015
40138W        W 7206  17.095  17.130   4.281
40139W        W 7207   4.426  42.392  12.091
40140W        W 7208  15.583  17.636  14.506
40141W        W 7209  16.688  22.114   0.792
40142W        W 7210  34.914  16.636  13.527
40143W        W 7211   7.313   5.743  11.064
40144W        W 7212   8.318  29.550   4.816
40145W        W 7213  10.341  39.473  14.338
40146W        W 7214  14.754  21.523  11.457
40147W        W 7215  19.641  25.082  11.931
40148W        W 7216  13.668  44.900   2.209
40149W        W 7217  43.827  21.040  12.409
40150W        W 7218  23.228   7.890   0.936
40151W        W 7219  19.173  25.055   4.263
40152W        W 7220   5.356  18.779   3.645
40153W        W 7221  30.029   4.329   4.827
40154W        W 7222  42.827   2.426   1.778
40155W        W 7223   7.332  12.312  11.469
40156W        W 7224  29.933  12.688  12.394
40157W        W 7225  19.222  25.681   3.234
40158W        W 7226   0.853  42.901  11.122
40159W        W 7227  26.507   0.285  14.381
40160W        W 7228  43.304  34.567  14.870
40161W        W 7229  22.148  10.834  12.069
40162W        W 7230  24.032  39.009  10.995
40163W        W 7231  43.272  32.455   0.342
40164W        W 7232  38.339   7.236   0.378
40165W        W 7233  12.300  13.229  13.494
40166W        W 7234  41.965  15.633  12.519
40167W        W 7235  42.304  39.960   2.367
40168W        W 7236  12.187  17.248  11.053
40169W        W 7237  19.059   4.321  13.356
40170W        W 7238  11.651  31.491  12.521
40171W        W 7239   1.743   1.866   3.157
40172W        W 7240   9.165   9.215   0.422
40173W        W 7241   1.878  23.695  11.047
40174W        W 7242  37.336  12.228   3.811
40175W        W 7243  10.240  41.972   4.303
40176W        W 7244  39.518  20.134   0.266
40177W        W 7245  16.084  21.236   4.210
40178W        W 7246   4.334   8.401   1.695
40179W        W 7247  39.340  31.096   3.147
40180W        W 7248  29.472  35.403   4.737
40181W        W 7249  19.740  20.119   4.327
40182W        W 7250  36.409  19.748  14.897
40183W        W 7251  21.623  34.996   4.790
40184W        W 7252   3.394  20.190   3.251
40185W        W 7253  34.535  31.930   2.205
40186W        W 7254  29.469  30.457  13.060
40187W        W 7255  28.121  37.570  14.497
40188W        W 7256  27.560   0.987   3.718
40189W        W 7257  22.520  24.480   4.128
40190W        W 7258  22.172  12.353   1.325
40191W        W 7259  26.185  31.910  11.983
40192W        W 7260  13.154  14.121  11.022
40193W        W 7261   5.882  44.414   2.706
40194W        W 7262   3.222   5.756  12.452
40195W        W 7263   3.259  32.103  13.986
40196W        W 7264   9.661  26.495  14.471
40197W        W 7265  24.041  20.118  14.342
40198W        W 7266  14.634  14.217  12.911
40199W        W 7267  41.957  35.985  13.050
40200W        W 7268   3.795   4.856  14.888
40201W        W 7269   5.401  36.579  11.412
40202W        W 7270   6.415  13.243  11.859
40203W        W 7271  29.433  34.992  14.476
40204W        W 7272  11.748  33.572   1.749
40205W        W 7273  36.590  28.026   3.761
40206W        W 7274  41.514   0.862   4.605
40207W        W 7275  33.569  31.634  11.442
40208W        W 7276  27.559  14.130   0.283
40209W        W 7277  43.992  24.110   2.739
40210W        W 7278   1.846  41.296   4.761
40211W        W 7279  31.579  17.063  14.834
40212W        W 7280  29.476  36.893  13.497
40213W        W 7281  19.252  29.514   2.739
40214W        W 7282  43.780  14.171   2.387
40215W        W 7283  24.489  27.076   1.228
40216W        W 7284  26.537   5.256   3.309
40217W        W 7285  42.390   8.696   4.675
40218W        W 7286  44.913   4.402   0.907
40219W        W 7287   2.851  43.834  10.522
40220W        W 7288  17.083  30.454   0.407
40221W        W 7289  38.326  20.764  10.602
40222W        W 7290  25.988  17.297  12.942
40223W        W 7291  26.703   4.823   2.730
40224W        W 7292   5.813   1.844  14.977
40225W        W 7293   3.769   7.226   3.845
40226W        W 7294  41.478  12.328  10.619
40227W        W 7295  30.486  26.489   2.760
40228W        W 7296   6.746  40.828   1.712
40229W        W 7297  17.223  15.641   5.099
40230W        W 7298  23.158  35.029  14.514
40231W        W 7299  38.821  43.496  10.532
40232W        W 7300  23.038  14.797  10.471
40233W        W 7301  19.633  39.995  12.998
40234W        W 7302  40.504  37.556   2.182
40235W        W 7303  15.220  33.968  12.914
40236W        W 7304  11.216  24.161  13.021
40237W        W 7305  21.262  27.045   4.770
40238W        W 7306  32.528  30.097   4.149
40239W        W 7307   4.320   3.248   9.964
40240W        W 7308  18.775  25.122  14.317
40241W        W 7309  19.059  11.313   4.268
40242W        W 7310   4.370  13.694  11.596
40243W        W 7311  25.523  42.978   2.861
40244W        W 7312  42.820  28.978   4.737
40245W        W 7313  11.858  23.163  11.981
40246W        W 7314  11.726  27.993  14.391
40247W        W 7315   8.194   8.288   1.421
40248W        W 7316  36.850  10.763  14.833
40249W        W 7317  24.599  19.671  12.959
40250W        W 7318  26.625  18.249   2.211
40251W        W 7319  38.505  24.651  10.944
40252W        W 7320  24.047  10.348  12.353
40253W        W 7321  17.681  36.507   0.887
40254W        W 7322  38.505  40.540   0.405
40255W        W 7323   7.361  38.393  14.788
40256W        W 7324  41.445  25.628  12.416
40257W        W 7325   3.375  29.058   2.786
40258W        W 7326  35.962  29.660   0.926
40259W        W 7327  43.507  27.543   2.860
40260W        W 7328   3.821  31.984   2.404
40261W        W 7329  36.398  35.553   3.352
40262W        W 7330  22.527  35.359  13.878
40263W        W 7331   2.875   6.843  13.917
40264W        W 7332  26.983  16.588  11.483
40265W        W 7333  27.500   0.874  10.509
40266W        W 7334  37.032  25.052   1.701
40267W        W 7335  44.937   1.276   0.764
40268W        W 7336  18.752  13.810  13.410
40269W        W 7337  10.322  33.561   4.292
40270W        W 7338  16.658  26.099  14.511
40271W        W 7339  12.718  12.826   3.856
40272W        W 7340   1.427  34.061  10.507
40273W        W 7341   2.938  20.068   1.331
40274W        W 7342   5.782  39.343  14.983
40275W        W 7343   9.710  29.499  12.493
40276W        W 7344  40.541  27.524   4.287
40277W        W 7345  14.172  10.368   3.283
40278W        W 7346  15.643   6.679  13.989
40279W        W 7347  22.730   8.402   0.913
40280W        W 7348  35.053  16.093  11.486
40281W        W 7349   8.750  28.029   2.250
40282W        W 7350   1.958  30.154   1.835
40283W        W 7351  38.501  19.666   3.376
40284W        W 7352  30.552   4.912   2.228
40285W        W 7353  16.598  25.992  14.870
40286W        W 7354   3.321   6.913  12.016
40287W        W 7355  44.879  31.132   4.701
40288W        W 7356  39.859  16.286   3.749
40289W        W 7357  16.761  40.477  12.096
40290W        W 7358  17.272  37.022  10.550
40291W        W 7359  42.870  42.832  14.299
40292W        W 7360  18.635  24.619  11.078
40293W        W 7361  19.243  38.467  14.433
40294W        W 7362   7.737   8.756  11.462
40295W        W 7363   0.352  35.065  12.415
40296W        W 7364  33.465  15.174  12.835
40297W        W 7365  34.950  29.007  10.604
40298W        W 7366  23.226  24.674  13.482
40299W        W 7367  11.166   9.310   4.716
40300W        W 7368  38.831  31.516   4.797
40301W        W 7369   8.883  32.511   0.885
40302W        W 7370  32.392  34.582  10.568
40303W        W 7371  17.173  24.217   2.877
40304W        W 7372   1.268   0.881  14.908
40305W        W 7373   2.961  38.869  11.439
40306W        W 7374   9.207  23.525  10.410
40307W        W 7375   3.422   4.811   4.689
40308W        W 7376  21.222  42.952   4.125
40309W        W 7377  10.716   7.852  13.998
40310W        W 7378  37.546  33.592   1.236
40311W        W 7379  26.480   7.408  12.548
40312W        W 7380   4.275  43.401  11.551
40313W        W 7381  22.538  10.640   4.716
40314W        W 7382  19.213   9.235   2.239
40315W        W 7383  21.711  33.974  14.293
40316W        W 7384  24.182   5.259   4.706
40317W        W 7385  14.127  37.428   3.148
40318W        W 7386  11.265  29.540   1.271
40319W        W 7387  28.556  38.013  14.932
40320W        W 7388  36.892  37.044   1.328
40321W        W 7389  27.585  42.928   1.847
40322W        W 7390  37.044   7.797  13.863
40323W        W 7391  19.187   2.466   3.276
40324W        W 7392  28.587  41.950   3.282
40325W        W 7393  40.982  20.679  10.524
40326W        W 7394   2.846  22.052   3.693
40327W        W 7395   9.378   3.459  11.526
40328W        W 7396  34.504  35.597   4.732
40329W        W 7397  38.933  20.602  12.519
40330W        W 7398  17.583  22.996  11.549
40331W        W 7399  35.471  21.511  11.571
40332W        W 7400  17.196   7.310  11.940
40333W        W 7401  14.594  36.072  10.475
40334W        W 7402  33.952  36.039  13.803
40335W        W 7403  29.096  29.582  12.045
40336W        W 7404   5.903   0.916  12.421
40337W        W 7405  20.269  35.482   4.308
40338W        W 7406  21.693  42.863  11.386
40339W        W 7407   3.723   6.723  11.588
40340W        W 7408  32.541  21.573   1.408
40341W        W 7409  22.022   1.478   1.287
40342W        W 7410  37.508  44.926  11.604
40343W        W 7411  12.628   7.198   0.439
40344W        W 7412   9.862  34.430   4.174
40345W        W 7413  24.231  11.735   4.780
40346W        W 7414   8.895  28.450  14.914
40347W        W 7415  42.306  28.616  11.097
40348W        W 7416  39.900  37.416  11.375
40349W        W 7417   1.879  23.563   2.806
40350W        W 7418   5.822  10.271  11.966
40351W        W 7419  20.649   8.835  10.621
40352W        W 7420  28.618  35.515  13.882
40353W        W 7421  22.236  44.286   0.282
40354W        W 7422  39.993  17.215  12.463
40355W        W 7423  17.754  11.727  13.805
40356W        W 7424   0.457  33.398  11.084
40357W        W 7425  26.020  22.238   3.220
40358W        W 7426  23.664  35.914  12.453
40359W        W 7427  42.496   6.240  12.340
40360W        W 7428  14.682  20.709  11.105
40361W        W 7429   9.231  36.058  12.024
40362W        W 7430  38.367  14.120   2.180
40363W        W 7431  15.202  22.730   3.304
40364W        W 7432   7.906   5.923  14.507
40365W        W 7433  32.965   7.858  10.570
40366W        W 7434  15.596   9.359   3.804
40367W        W 7435  31.536  12.127   2.671
40368W        W 7436  26.565  43.948  13.972
40369W        W 7437   2.921   8.295  12.461
40370W        W 7438  10.641  42.784   1.320
40371W        W 7439  19.758  41.799  11.033
40372W        W 7440  15.626  16.772  11.448
40373W        W 7441  31.955  44.504   3.379
40374W        W 7442  15.290  40.006  10.547
40375W        W 7443  28.087   1.317   4.305
40376W        W 7444  10.350  10.645  11.393
40377W        W 7445  25.214  44.504   0.945
40378W        W 7446  38.349   7.689  13.864
40379W        W 7447   8.866  13.777   4.831
40380W        W 7448  42.520  22.125   1.358
40381W        W 7449  27.954  23.524   1.795
40382W        W 7450  25.063  12.144  12.534
40383W        W 7451   0.489  10.732  13.416
40384W        W 7452  35.856  33.086   3.235
40385W        W 7453  25.065  42.417  14.778
40386W        W 7454  30.158  11.353   3.250
40387W        W 7455  32.462   8.726   0.822
40388W        W 7456   7.891  44.389  14.859
40389W        W 7457  38.847  24.206   4.346
40390W        W 7458  19.047  33.459  14.032
40391W        W 7459  22.574  36.370  13.354
40392W        W 7460  33.043   8.300  12.576
40393W        W 7461  24.604  21.603  12.511
40394W        W 7462  19.681   4.705   2.807
40395W        W 7463  22.568  41.311   3.197
40396W        W 7464  17.297  16.761   4.801
40397W        W 7465  21.103   9.688   3.181
40398W        W 7466   0.859   3.299   0.862
40399W        W 7467  24.057   6.196   1.311
40400W        W 7468  42.502  19.607   4.241
40401W        W 7469   6.684  30.474  12.365
40402W        W 7470   9.748   7.847  13.804
40403W        W 7471   9.868  16.777   3.676
40404W        W 7472  22.639  27.089   1.927
40405W        W 7473  21.057  26.067   2.709
40406W        W 7474   0.849  44.943  12.565
40407W        W 7475  37.830  14.313   1.242
40408W        W 7476  39.059   2.227   0.726
40409W        W 7477  13.321  25.097  14.023
40410W        W 7478   6.297   6.801   0.944
40411W        W 7479  44.387  34.080   1.782
40412W        W 7480   1.839  10.215   4.698
40413W        W 7481  16.079  39.491   1.358
40414W        W 7482  43.879  21.119  12.908
40415W        W 7483  21.735  28.092   3.699
40416W        W 7484  38.056  12.282  11.533
40417W        W 7485  34.464  37.044   3.841
40418W        W 7486  30.449  25.629  13.804
40419W        W 7487  25.164  33.433  12.427
40420W        W 7488  20.649   2.740  14.931
40421W        W 7489  39.812  39.526  12.574
40422W        W 7490  39.902  30.945   1.326
40423W        W 7491   5.926   4.792  12.005
40424W        W 7492  20.064  29.006   1.835
40425W        W 7493  32.414  34.467   2.283
40426W        W 7494  44.954  18.762   1.835
40427W        W 7495  27.970  36.462  10.097
40428W        W 7496  42.967  15.726   2.835
40429W        W 7497  12.837  39.403   2.730
40430W        W 7498  34.471  14.645   2.192
40431W        W 7499  36.581   9.262   2.197
40432W        W 7500  15.262  16.254   0.808
40433W        W 7501  28.606  13.129   3.851
40434W        W 7502  33.601   7.870   0.438
40435W        W 7503  23.009  41.909   3.855
40436W        W 7504  21.517   9.248  12.864
40437W        W 7505  12.147   7.393  12.517
40438W        W 7506  26.043  36.559   0.293
40439W        W 7507  24.186  23.607  10.428
40440W        W 7508  24.480   4.216   2.228
40441W        W 7509   2.898  31.003  13.422
40442W        W 7510  34.890  11.275   3.717
40443W        W 7511  32.421  42.915   2.320
40444W        W 7512  41.958  44.836  11.562
40445W        W 7513  27.537  37.349  14.377
40446W        W 7514   0.289   9.318   0.839
40447W        W 7515  35.372  39.528  13.978
40448W        W 7516  35.507  14.648   4.688
40449W        W 7517  20.260  17.779  11.945
40450W        W 7518  23.523  26.120   3.354
40451W        W 7519   5.353  34.574  13.841
40452W        W 7520  38.530   1.370  13.847
40453W        W 7521  39.433  29.493  11.859
40454W        W 7522   7.175  42.030   0.824
40455W        W 7523  20.562  26.652   4.262
40456W        W 7524  20.094   6.841  14.486
40457W        W 7525  37.005  30.124  13.394
40458W        W 7526  19.623  38.553   1.842
40459W        W 7527  34.880   2.777  13.056
40460W        W 7528  10.177  25.567   0.758
40461W        W 7529  13.163   1.912  12.091
40462W        W 7530  22.220  11.172   4.325
40463W        W 7531   9.214  17.674   4.274
40464W        W 7532  29.624  30.111  12.891
40465W        W 7533  39.518   9.333   3.860
40466W        W 7534  10.671  11.844  12.368
40467W        W 7535  11.310  25.972  10.566
40468W        W 7536  30.161  39.538  14.010
40469W        W 7537  20.066  22.521   3.365
40470W        W 7538  23.550  44.286   0.387
40471W        W 7539  39.379   2.330  12.451
40472W        W 7540  33.953  22.248   4.223
40473W        W 7541  37.017  43.289   1.932
40474W        W 7542  14.103  13.314   2.763
40475W        W 7543  27.092  29.466  13.007
40476W        W 7544  36.583  23.590  11.976
40477W        W 7545  18.612   1.370  14.339
40478W        W 7546   7.876  22.560  13.962
40479W        W 7547  41.367  14.112   5.303
40480W        W 7548  16.719  11.734   4.190
40481W        W 7549  29.170   3.785   3.743
40482W        W 7550  11.786  28.496  14.417
40483W        W 7551   4.800  28.144  13.526
40484W        W 7552  28.592  24.686  14.929
40485W        W 7553  31.048   2.955  11.393
40486W        W 7554  44.308  12.160   2.758
40487W        W 7555  22.624  39.869  11.574
40488W        W 7556  24.487  28.610  14.398
40489W        W 7557  13.612  37.557  13.513
40490W        W 7558   5.726  24.114  11.538
40491W        W 7559  31.452  30.655   2.697
40492W        W 7560  13.248  39.384   2.705
40493W        W 7561  34.547  31.068  11.584
40494W        W 7562   4.796  13.287  10.431
40495W        W 7563  43.449  10.863   1.838
40496W        W 7564  25.524  16.157  12.478
40497W        W 7565  20.551   2.869  11.913
40498W        W 7566  33.951  11.715   0.961
40499W        W 7567  27.531  32.051  11.029
40500W        W 7568  25.063   6.798   1.776
40501W        W 7569   5.282  24.037   0.738
40502W        W 7570  32.579  26.985  14.999
40503W        W 7571  37.885  13.310   1.332
40504W        W 7572  13.737  24.497   3.349
40505W        W 7573  15.215  17.133   0.322
40506W        W 7574  28.123   6.284   5.094
40507W        W 7575   5.252  12.671  14.779
40508W        W 7576   4.846  20.170   1.847
40509W        W 7577   8.750  13.274  14.974
40510W        W 7578   9.732  44.451  11.961
40511W        W 7579  16.681   6.823  13.433
40512W        W 7580  32.004  20.165  11.424
40513W        W 7581  10.264  30.563   2.766
40514W        W 7582  42.405  37.038   4.298
40515W        W 7583  39.858  31.498  12.064
40516W        W 7584  25.495  25.606  14.906
40517W        W 7585  12.215   5.780   0.825
40518W        W 7586  16.271  38.475   2.259
40519W        W 7587  28.583  11.203   1.250
40520W        W 7588  14.206  40.529   3.780
40521W        W 7589  37.874  42.320   4.769
40522W        W 7590  11.187  41.792   2.320
40523W        W 7591  25.488  23.138  13.908
40524W        W 7592  10.304  35.402  10.620
40525W        W 7593  20.121  25.503   4.193
40526W        W 7594  43.910  18.147  11.396
40527W        W 7595  30.015  22.578  10.491
40528W        W 7596  15.715  18.724  14.865
40529W        W 7597  34.474  25.656  12.900
40530W        W 7598  12.853  36.922   4.702
40531W        W 7599  23.192  40.858   3.291
40532W        W 7600  29.629  26.530  10.413
40533W        W 7601   6.794  23.496   1.243
40534W        W 7602  33.613  31.452   1.322
40535W        W 7603  38.437  24.518   4.794
40536W        W 7604  15.775  35.469  12.415
40537W        W 7605  11.256  40.549   4.664
40538W        W 7606   6.835  13.289   3.808
40539W        W 7607  19.081  25.570   2.771
40540W        W 7608  33.990  42.822  10.947
40541W        W 7609  37.912  39.399  14.408
40542W        W 7610   3.906   2.886  12.456
40543W        W 7611  20.643  22.253   3.831
40544W        W 7612  41.468  37.871   1.786
40545W        W 7613  18.565   7.883   5.166
40546W        W 7614  25.612  43.355   3.715
40547W        W 7615  41.370  15.695   1.729
40548W        W 7616  21.129  29.578  14.821
40549W        W 7617  44.452  34.539  10.917
40550W        W 7618  14.726  23.559  13.406
40551W        W 7619   6.391  31.592  13.032
40552W        W 7620   9.254  20.627  10.565
40553W        W 7621  15.706  21.606  14.280
40554W        W 7622   6.895  36.038   0.947
40555W        W 7623  26.097  11.176   1.333
40556W        W 7624  30.567  22.216  14.884
40557W        W 7625   2.275  34.978  11.924
40558W        W 7626   8.831  44.993  12.001
40559W        W 7627  25.513  39.437   4.719
40560W        W 7628  33.132   2.237  14.421
40561W        W 7629   4.796  27.610   9.934
40562W        W 7630  16.630  37.843  12.899
40563W        W 7631  32.012   9.767  11.434
40564W        W 7632  10.855  28.469   4.739
40565W        W 7633  43.872  15.118   2.338
40566W        W 7634  31.026  12.812   4.234
40567W        W 7635   7.859  44.835   0.253
40568W        W 7636  40.521  17.223   4.731
40569W        W 7637  37.962   4.865   3.680
40570W        W 7638   7.675  15.233   2.700
40571W        W 7639  20.237  33.511  11.500
40572W        W 7640  20.766  27.488  14.995
40573W        W 7641  28.602  44.005   0.736
40574W        W 7642  31.898  43.434  11.917
40575W        W 7643   0.952  13.630  13.059
40576W        W 7644  29.958  19.587   2.347
40577W        W 7645  27.197  43.482   0.436
40578W        W 7646  15.730  21.090  12.347
40579W        W 7647  10.374  16.244  11.067
40580W        W 7648   3.394   8.736  11.111
40581W        W 7649  42.780  43.343  10.465
40582W        W 7650   2.878  31.972   4.744
40583W        W 7651  12.212   9.161  13.945
40584W        W 7652  40.497   9.824   0.834
40585W        W 7653   4.298  35.398   0.444
40586W        W 7654  22.155  22.210   1.420
40587W        W 7655  42.813  26.529   1.239
40588W        W 7656   9.842  21.239   1.221
40589W        W 7657  12.241  28.081  11.531
40590W        W 7658  10.349  15.793   4.599
40591W        W 7659  16.733  24.028   3.711
40592W        W 7660  10.772  24.046   2.330
40593W        W 7661  35.952  19.238   1.445
40594W        W 7662   0.924  44.834  14.976
40595W        W 7663   9.299  39.999   0.965
40596W        W 7664   0.825   6.215   3.304
40597W        W 7665  37.553   1.464  14.282
40598W        W 7666  28.967   7.279  13.530
40599W        W 7667  17.739  35.064   3.271
40600W        W 7668  13.267  20.672   2.737
40601W        W 7669  26.667  41.836  11.546
40602W        W 7670  20.222  31.607   1.707
40603W        W 7671  25.539  39.912   4.141
40604W        W 7672  27.114  36.549  10.595
40605W        W 7673   5.691   3.815  12.840
40606W        W 7674  15.801  27.050  13.342
40607W        W 7675   6.724   3.321  14.878
40608W        W 7676   2.796  17.790   0.942
40609W        W 7677  35.882  42.290   1.912
40610W        W 7678  35.978   6.898  14.387
40611W        W 7679  17.753  12.788   1.743
40612W        W 7680   4.836  44.284   1.388
40613W        W 7681  33.981  37.036  14.951
40614W        W 7682   2.801  30.637   0.906
40615W        W 7683  34.995  16.620  13.886
40616W        W 7684  39.823   2.857  12.411
40617W        W 7685   1.971  17.788   0.272
40618W        W 7686  18.580  31.598   4.757
40619W        W 7687  40.382  23.211  13.473
40620W        W 7688   2.810   3.874   4.781
40621W        W 7689  24.158  34.429   1.881
40622W        W 7690  13.846  17.628  11.420
40623W        W 7691  38.454   7.172  13.363
40624W        W 7692  26.619  13.708  11.525
40625W        W 7693  12.176  43.331   1.738
40626W        W 7694  41.832  26.491  11.384
40627W        W 7695  30.036  27.185  13.879
40628W        W 7696   3.840  20.637  10.572
40629W        W 7697  17.263  26.566   3.858
40630W        W 7698  21.082  28.949  12.395
40631W        W 7699  36.461  29.957  14.925
40632W        W 7700  40.461  38.481   0.352
40633W        W 7701  14.824  31.992   0.259
40634W        W 7702   0.873  34.031   3.304
40635W        W 7703  24.522   5.401  11.115
40636W        W 7704  38.459   8.318   1.764
40637W        W 7705   6.247   0.834  13.950
40638W        W 7706  31.947  39.040   0.767
40639W        W 7707  21.674  12.198  10.617
40640W        W 7708   7.358  30.024   2.837
40641W        W 7709   9.175   8.170  12.524
40642W        W 7710  36.416  17.590   4.721
40643W        W 7711  22.187   4.916  13.505
40644W        W 7712  22.610   0.288   4.779
40645W        W 7713  17.129  11.328  14.890
40646W        W 7714  28.675  37.929  11.894
40647W        W 7715  30.606   6.336  14.373
40648W        W 7716  38.053   2.832  11.528
40649W        W 7717  29.533  21.253  11.028
40650W        W 7718  16.596  34.104   2.805
40651W        W 7719  34.389   6.294  13.919
40652W        W 7720  19.087  40.381   3.387
40653W        W 7721   1.275  19.738   3.677
40654W        W 7722  29.005  19.066  14.855
40655W        W 7723  13.214  24.569  11.924
40656W        W 7724  21.622  18.137  12.848
40657W        W 7725  25.616  37.883  11.377
40658W        W 7726  19.275  17.213   4.705
40659W        W 7727  43.395  43.823  13.934
40660W        W 7728  10.339   6.283  10.536
40661W        W 7729  40.854   9.754  12.473
40662W        W 7730  44.990  12.813   4.229
40663W        W 7731  15.757  16.743   1.270
40664W        W 7732  41.836  31.105  12.894
40665W        W 7733  23.156  36.007   4.756
40666W        W 7734  31.120  15.258  11.975
40667W        W 7735  34.544  11.828  12.947
40668W        W 7736  34.599  12.630  14.771
40669W        W 7737   3.824  26.069   0.422
40670W        W 7738  13.786  41.416  14.926
40671W        W 7739  12.855  10.171  12.037
40672W        W 7740   6.828  23.001   0.799
40673W        W 7741  20.757   0.947  10.468
40674W        W 7742  39.033  43.959  10.484
40675W        W 7743  42.788  40.014  10.427
40676W        W 7744  40.412  16.164   3.219
40677W        W 7745  13.291  40.972   1.814
40678W        W 7746  42.899  19.703   1.434
40679W        W 7747  24.711  26.635  10.433
40680W        W 7748  21.192   0.942  12.549
40681W        W 7749   5.698   3.834  14.330
40682W        W 7750  22.044  24.554  14.778
40683W        W 7751  13.233   0.867  11.065
40684W        W 7752  17.663  42.281  14.450
40685W        W 7753  20.722  36.588  10.944
40686W        W 7754   3.835  37.890  11.048
40687W        W 7755   9.742  34.091   3.723
40688W        W 7756   5.388  44.959  13.336
40689W        W 7757  18.082  41.481  12.380
40690W        W 7758  40.883  29.473   2.270
40691W        W 7759   1.786  26.642   3.286
40692W        W 7760  43.801  27.022   4.643
40693W        W 7761  28.041  17.168  12.874
40694W        W 7762  31.006  31.605   3.859
40695W        W 7763  10.798  28.465   2.346
40696W        W 7764  12.206  25.566  11.026
40697W        W 7765  25.508  38.423   3.350
40698W        W 7766  25.002  34.882  13.487
40699W        W 7767  34.579  25.693  14.893
40700W        W 7768  25.116  16.259  14.390
40701W        W 7769  42.405  29.592   4.121
40702W        W 7770   8.895  19.084   4.249
40703W        W 7771  42.509   0.360  14.889
40704W        W 7772  10.863   9.757   0.305
40705W        W 7773  17.152  38.497   2.783
40706W        W 7774  28.952  36.527  14.890
40707W        W 7775  39.499  34.003   1.852
40708W        W 7776  31.565  43.342  12.075
40709W        W 7777  16.801  41.425  12.021
40710W        W 7778  29.088  34.524  12.930
40711W        W 7779  42.823  26.672   3.191
40712W        W 7780  16.179  30.570   0.348
40713W        W 7781  32.120  15.138   1.251
40714W        W 7782  26.122  43.930  10.510
40715W        W 7783  35.902  15.248  12.564
40716W        W 7784  29.131  35.963   1.792
40717W        W 7785  39.462  25.012   1.928
40718W        W 7786  28.583  37.493  11.903
40719W        W 7787  27.171   9.705  14.401
40720W        W 7788  25.138  12.810   1.234
40721W        W 7789  10.162  11.861   1.698
40722W        W 7790  36.996   1.442  12.341
40723W        W 7791  13.795  26.156   1.762
40724W        W 7792  33.502  26.173  12.045
40725W        W 7793  28.170  22.657  12.422
40726W        W 7794  27.565  30.005   0.851
40727W        W 7795  13.106  16.755  14.367
40728W        W 7796  34.951  44.474  14.928
40729W        W 7797   1.733   1.356   4.344
40730W        W 7798  35.065  13.670   1.414
40731W        W 7799  39.870  37.014  11.896
40732W        W 7800  15.084  18.725  11.517
40733W        W 7801  20.755  28.606  10.411
40734W        W 7802  10.151  42.934  10.451
40735W        W 7803  26.995  33.095  11.430
40736W        W 7804  14.104  35.547   2.778
40737W        W 7805  10.753  26.150  13.798
40738W        W 7806  18.294  28.055   3.771
40739W        W 7807  39.899  43.311   3.337
40740W        W 7808  25.201  20.673   3.644
40741W        W 7809  22.171  39.906  10.467
40742W        W 7810  14.748  17.133   0.762
40743W        W 7811  31.029  22.663   2.662
40744W        W 7812   2.252  15.100  10.406
40745W        W 7813  12.856  43.449  14.463
40746W        W 7814  21.615  17.701  14.385
40747W        W 7815  43.907   2.845  13.480
40748W        W 7816  32.525  41.891   3.201
40749W        W 7817  36.948  32.594   4.726
40750W        W 7818  42.823   6.807  13.927
40751W        W 7819  21.214  28.179   0.278
40752W        W 7820   7.866   7.682   3.713
40753W        W 7821   2.760   3.237   4.333
40754W        W 7822  28.143  44.493   4.661
40755W        W 7823  36.497  26.068  11.394
40756W        W 7824  22.627   9.838   2.757
40757W        W 7825  15.115  36.879   3.707
40758W        W 7826  19.543  21.568  10.525
40759W        W 7827  24.132  24.555  14.409
40760W        W 7828  17.580  37.059  11.005
40761W        W 7829  22.032   3.226   4.126
40762W        W 7830  37.856  22.531  14.916
40763W        W 7831  20.624  37.914  10.625
40764W        W 7832  28.606  25.494   0.298
40765W        W 7833   1.303   5.207  12.544
40766W        W 7834  28.562   1.316  11.052
40767W        W 7835   2.289   6.826  12.384
40768W        W 7836   9.765  18.751  11.125
40769W        W 7837   4.915  42.480   3.247
40770W        W 7838  44.298  23.547  14.899
40771W        W 7839  31.406  33.010  13.330
40772W        W 7840  16.807  31.935   5.289
40773W        W 7841  36.898  17.129  13.453
40774W        W 7842   0.363   1.771   0.760
40775W        W 7843  23.027  36.983   2.277
40776W        W 7844  17.695  32.985   3.174
40777W        W 7845  29.576  21.235  14.844
40778W        W 7846  34.539   3.735  12.415
40779W        W 7847  17.209  39.352   0.749
40780W        W 7848  22.159  18.773   0.379
40781W        W 7849  43.422   4.214  13.491
40782W        W 7850  22.203  30.074   1.451
40783W        W 7851  34.381  37.872   0.895
40784W        W 7852  42.962   7.909   5.130
40785W        W 7853   2.329   3.940  13.974
40786W        W 7854   2.309  16.208   3.248
40787W        W 7855  19.072   1.868  12.539
40788W        W 7856  21.630  24.093  11.548
40789W        W 7857  30.600  13.226  11.562
40790W        W 7858  30.432  43.508  12.971
40791W        W 7859  40.348  35.067  12.960
40792W        W 7860  26.492  20.163  14.321
40793W        W 7861  33.956  44.301  14.461
40794W        W 7862  44.937  42.482  11.958
40795W        W 7863   0.865  17.791  13.411
40796W        W 7864   0.784  31.436   3.181
40797W        W 7865  23.118  19.633   4.334
40798W        W 7866  10.866  20.587   3.765
40799W        W 7867  29.097  25.707   1.796
40800W        W 7868  35.109  34.496  11.423
40801W        W 7869  37.353  31.013  11.954
40802W        W 7870   7.773  36.536   2.279
40803W        W 7871  21.116  18.223   0.414
40804W        W 7872  36.590   7.680   1.805
40805W        W 7873   5.325  13.609   0.921
40806W        W 7874  18.747  31.402  13.870
40807W        W 7875  15.315  30.126  11.488
40808W        W 7876  25.988  33.569  13.908
40809W        W 7877  15.761   3.771   1.784
40810W        W 7878  14.167  44.410  12.049
40811W        W 7879  44.412  40.408  11.064
40812W        W 7880   7.705  40.881  10.444
40813W        W 7881  28.499  34.927   5.176
40814W        W 7882  43.902  26.076  10.953
40815W        W 7883  18.231  40.984  13.899
40816W        W 7884   7.355   7.897  13.506
40817W        W 7885  19.601  24.690  12.931
40818W        W 7886  16.250   8.809   3.677
40819W        W 7887  17.781  36.054   3.641
40820W        W 7888  18.153  38.050  14.774
40821W        W 7889  42.404  44.399  12.400
40822W        W 7890  35.580  39.916   1.427
40823W        W 7891  32.603  10.846  14.821
40824W        W 7892  37.881   5.846   2.676
40825W        W 7893  30.658  14.681   3.363
40826W        W 7894  28.186  44.858   0.737
40827W        W 7895  25.091  28.960   3.661
40828W        W 7896  18.270  35.092  14.961
40829W        W 7897   8.309  30.117   4.282
40830W        W 7898  34.492  18.661   0.907
40831W        W 7899  42.316  20.031  14.381
40832W        W 7900   8.712  19.762   4.205
40833W        W 7901  18.233  42.401   3.213
40834W        W 7902  25.115   1.351  13.945
40835W        W 7903  33.598  15.793  11.958
40836W        W 7904  33.535  17.291  12.393
40837W        W 7905   0.296  18.771   3.741
40838W        W 7906  43.312  30.644   4.736
40839W        W 7907  39.061  23.985  12.929
40840W        W 7908  30.651  34.863   5.169
40841W        W 7909   0.962  23.668  12.454
40842W        W 7910  14.289  13.603   0.373
40843W        W 7911  17.574  42.837  10.038
40844W        W 7912  21.538  31.913   4.715
40845W        W 7913  28.145   2.376   1.344
40846W        W 7914  39.946   0.469  13.868
40847W        W 7915  29.983  25.636  12.858
40848W        W 7916  43.909  31.493  10.585
40849W        W 7917  26.070   9.183   4.807
40850W        W 7918  39.382  28.606  11.584
40851W        W 7919  26.675  27.940   1.730
40852W        W 7920  40.871  30.648   0.800
40853W        W 7921   1.439  20.119  14.992
40854W        W 7922  20.214  33.510   3.692
40855W        W 7923  19.704  14.177  10.912
40856W        W 7924  21.639  42.466  12.876
40857W        W 7925  10.255  40.953   2.662
40858W        W 7926  32.017  24.703   0.773
40859W        W 7927   3.332  39.937  13.346
40860W        W 7928  30.567  39.054  12.386
40861W        W 7929  41.313  27.618   2.267
40862W        W 7930  37.431  12.152  11.098
40863W        W 7931  26.523  18.102   1.260
40864W        W 7932  26.662   2.257  12.415
40865W        W 7933  41.791   7.303   0.392
40866W        W 7934  20.654   8.308   2.727
40867W        W 7935  32.076  39.028   1.722
40868W        W 7936  30.108  21.218  10.956
40869W        W 7937  23.679  37.403  14.975
40870W        W 7938  34.596   1.337  13.455
40871W        W 7939  11.284  17.678  13.008
40872W        W 7940  17.572  15.621   2.737
40873W        W 7941  34.065  27.685  14.827
40874W        W 7942   0.837   2.268   4.744
40875W        W 7943  39.890  15.714   0.359
40876W        W 7944  32.936   3.215  14.943
40877W        W 7945  24.577  11.362   0.350
40878W        W 7946  32.915  21.018   0.775
40879W        W 7947  27.462  38.325   0.344
40880W        W 7948  16.118  15.774  14.461
40881W        W 7949  29.109  40.941  11.413
40882W        W 7950  16.088  35.557  14.515
40883W        W 7951  23.230   1.852  12.358
40884W        W 7952  37.416  35.967   4.677
40885W        W 7953   8.792   9.888   3.735
40886W        W 7954  36.410  10.342   3.767
40887W        W 7955  30.032   5.382  12.094
40888W        W 7956  25.694   3.318   4.773
40889W        W 7957  33.976  35.900  11.386
40890W        W 7958  34.378   7.260   1.895
40891W        W 7959  21.165   0.948  13.367
40892W        W 7960  16.570  33.092   1.776
40893W        W 7961  30.952  32.940  10.530
40894W        W 7962   9.888   0.352   4.155
40895W        W 7963  19.093   4.711   4.715
40896W        W 7964   6.856   2.732  14.350
40897W        W 7965  25.116  38.906  11.874
40898W        W 7966  26.621  41.493  13.021
40899W        W 7967  12.779  40.493  14.333
40900W        W 7968   6.229  42.853   1.266
40901W        W 7969  14.594  10.841  14.921
40902W        W 7970  26.033   7.810   2.784
40903W        W 7971  23.194  13.764   2.321
40904W        W 7972   7.865   1.802  10.531
40905W        W 7973  12.260  44.398  11.010
40906W        W 7974  22.731  34.881  12.392
40907W        W 7975  12.240  13.802   0.365
40908W        W 7976  43.808  24.510   3.870
40909W        W 7977  28.621   7.717  14.829
40910W        W 7978  12.683  10.681   0.741
40911W        W 7979  23.560  11.251   0.336
40912W        W 7980  38.350   4.326   2.725
40913W        W 7981  44.765   3.921   1.713
40914W        W 7982  44.404  19.049   4.733
40915W        W 7983  21.664  44.260  11.448
40916W        W 7984  35.371  16.626  11.112
40917W        W 7985  35.086  22.144  13.046
40918W        W 7986  11.634  24.515  12.094
40919W        W 7987  25.555  13.759  13.907
40920W        W 7988  20.616  33.477   3.637
40921W        W 7989  33.117  36.381  12.490
40922W        W 7990  31.588  30.949  12.497
40923W        W 7991   8.219   0.799   5.612
40924W        W 7992  29.096  21.670   3.250
40925W        W 7993  25.089   7.904   2.287
40926W        W 7994  28.043  14.766   1.307
40927W        W 7995  15.325  22.709  12.064
40928W        W 7996  17.212  18.052  13.354
40929W        W 7997   9.833   1.360  13.962
40930W        W 7998   4.775  14.704  10.047
40931W        W 7999  15.775  39.818  13.021
40932W        W 8000  32.554  39.978   3.680
40933W        W 8001  32.513  31.913   0.331
40934W        W 8002   7.236  13.244   2.228
40935W        W 8003   6.811  26.959   2.209
40936W        W 8004  23.124  36.055  12.497
40937W        W 8005   4.366  31.062   2.318
40938W        W 8006   1.430  14.210   4.306
40939W        W 8007  37.945   1.846   1.365
40940W        W 8008  20.163   8.736  10.991
40941W        W 8009  37.349   1.914  14.323
40942W        W 8010  15.209  37.007   0.371
40943W        W 8011  20.028  32.962  13.507
40944W        W 8012  34.600  25.691   1.837
40945W        W 8013  29.952  32.543  10.978
40946W        W 8014  44.379   2.340  13.000
40947W        W 8015  20.708  10.144  13.372
40948W        W 8016  10.327  14.219   3.768
40949W        W 8017  14.245  17.300   3.263
40950W        W 8018  16.195  22.184  13.833
40951W        W 8019  11.748   1.475  13.940
40952W        W 8020  13.840  17.767  14.874
40953W        W 8021  41.533  22.150   2.361
40954W        W 8022  39.510  14.285   5.216
40955W        W 8023  35.481  43.347  13.064
40956W        W 8024  40.485   5.693  12.515
40957W        W 8025  28.012   6.790   0.764
40958W        W 8026  31.574   7.300  14.395
40959W        W 8027  13.644  33.950   1.290
40960W        W 8028  42.892  11.308  14.772
40961W        W 8029  34.374  35.581   0.952
40962W        W 8030  39.022  11.693  12.062
40963W        W 8031  37.366   8.382   4.304
40964W        W 8032   1.442  19.657   0.920
40965W        W 8033  13.117  16.634  10.933
40966W        W 8034  14.182  44.297  10.430
40967W        W 8035   0.404   0.361   1.268
40968W        W 8036  33.974  24.017   4.226
40969W        W 8037   9.297  19.162   5.233
40970W        W 8038  13.329   0.926  10.626
40971W        W 8039  26.153  35.525   1.811
40972W        W 8040  30.049  35.505   3.666
40973W        W 8041  12.775   5.262   3.629
40974W        W 8042  34.492  37.505  11.538
40975W        W 8043   2.721  38.042  14.028
40976W        W 8044  36.382  10.301   1.263
40977W        W 8045   2.343   8.331   1.363
40978W        W 8046   9.753  27.117   3.741
40979W        W 8047  17.085  11.332   2.323
40980W        W 8048  44.956  33.005  10.151
40981W        W 8049   2.909  36.057   4.182
40982W        W 8050  37.025  37.579  14.894
40983W        W 8051   7.362  27.661  14.472
40984W        W 8052   8.759  27.159   1.346
40985W        W 8053  40.001   8.851   1.349
40986W        W 8054   0.267  41.805  14.879
40987W        W 8055  36.478   1.813   5.084
40988W        W 8056  26.700  37.415   0.473
40989W        W 8057   3.751  24.632   2.730
40990W        W 8058   5.300  37.446   2.667
40991W        W 8059   3.238  28.585   1.827
40992W        W 8060   3.857  20.569   2.374
40993W        W 8061  19.679  19.545  11.399
40994W        W 8062  29.490  28.990   2.387
40995W        W 8063   8.726   9.381   4.240
40996W        W 8064  22.127  20.556  11.901
40997W        W 8065  15.170  34.021   2.765
40998W        W 8066  37.401   2.228   4.305
40999W        W 8067  20.036  38.984   1.754
41000W        W 8068   9.156  43.845   2.738
41001W        W 8069  43.415  11.723  10.946
41002W        W 8070   4.811  10.817  12.010
41003W        W 8071  38.380  13.821  10.588
41004W        W 8072  22.673  40.977  10.487
41005W        W 8073  22.721  40.973   1.772
41006W        W 8074  26.187  15.751  12.557
41007W        W 8075  43.797  30.054   2.339
41008W        W 8076   1.777   2.245   3.695
41009W        W 8077  21.197  35.574   0.246
41010W        W 8078  35.382   6.410   2.761
41011W        W 8079  37.936  32.090  12.959
41012W        W 8080  22.626  19.066   2.224
41013W        W 8081  41.924  30.523  10.113
41014W        W 8082  12.832  33.604   0.809
41015W        W 8083  37.863  28.028   3.810
41016W        W 8084  20.066  20.740  14.400
41017W        W 8085  27.484  12.635  11.564
41018W        W 8086   2.372  37.352  12.007
41019W        W 8087  20.586  15.232  11.940
41020W        W 8088  25.673  17.104  13.461
41021W        W 8089  32.903  18.668   4.196
41022W        W 8090  26.148  12.220   1.292
41023W        W 8091  15.585  24.168   4.735
41024W        W 8092  17.284   0.756  14.990
41025W        W 8093  14.309  38.431  14.758
41026W        W 8094  32.458  29.079   5.176
41027W        W 8095  34.995  19.107   4.715
41028W        W 8096  15.243  33.579   1.777
41029W        W 8097  24.041  18.288  14.347
41030W        W 8098  24.072  37.391  14.989
41031W        W 8099  21.582  22.709  11.947
41032W        W 8100  27.525  38.398  11.484
41033W        W 8101  37.475  24.033   0.422
41034W        W 8102  17.580   6.390   4.189
41035W        W 8103  11.799  26.976  11.516
41036W        W 8104  39.841  33.948  11.040
41037W        W 8105  38.013  11.830  14.876
41038W        W 8106  30.598   3.865  10.406
41039W        W 8107   5.849  22.502  10.496
41040W        W 8108  44.903  41.004  14.762
41041W        W 8109  21.041  37.000   2.323
41042W        W 8110  16.095  24.599   4.679
41043W        W 8111  19.615  35.477  13.318
41044W        W 8112  39.929  13.616  12.995
41045W        W 8113  21.042  36.503   3.223
41046W        W 8114  37.989  28.936  11.608
41047W        W 8115   5.219  36.924   4.160
41048W        W 8116  30.571   1.397  14.978
41049W        W 8117  15.277  19.642  12.054
41050W        W 8118  42.950  39.373   4.138
41051W        W 8119   7.278  41.844  13.506
41052W        W 8120  16.775  11.238   3.278
41053W        W 8121  29.095  36.471  10.920
41054W        W 8122  37.993   8.401  14.939
41055W        W 8123  26.151   4.397  14.017
41056W        W 8124  35.874  20.683   1.930
41057W        W 8125  23.509  21.604  10.942
41058W        W 8126  33.511  23.541   0.852
41059W        W 8127  14.312  43.462  10.543
41060W        W 8128   3.411  35.991   4.248
41061W        W 8129  17.259  38.467   1.353
41062W        W 8130   0.847  22.608  11.045
41063W        W 8131  35.523   9.261  13.994
41064W        W 8132   1.852  41.840  14.866
41065W        W 8133  26.561   1.330   3.155
41066W        W 8134  14.115  28.649   0.439
41067W        W 8135  29.638   2.315  11.449
41068W        W 8136   7.700  26.621   1.361
41069W        W 8137  27.608   9.887  14.825
41070W        W 8138  17.726   7.245   0.416
41071W        W 8139  21.581  18.202   2.206
41072W        W 8140  10.661  37.055  11.549
41073W        W 8141  12.747   7.184   3.150
41074W        W 8142  13.345  26.959   2.368
41075W        W 8143  15.656  13.784   2.282
41076W        W 8144  34.014  41.479  10.989
41077W        W 8145   7.723  26.507  12.050
41078W        W 8146  26.133  31.434   3.714
41079W        W 8147  31.938  38.483  14.830
41080W        W 8148  25.137  11.319  14.006
41081W        W 8149  11.272   0.434  12.392
41082W        W 8150  33.130   3.767   4.324
41083W        W 8151  16.176  18.190  10.102
41084W        W 8152  21.236  34.984   3.782
41085W        W 8153  11.131  19.182  14.805
41086W        W 8154  33.878  31.477   4.701
41087W        W 8155  44.436  19.108  14.864
41088W        W 8156  39.435  31.987   4.129
41089W        W 8157   3.334  27.192  14.463
41090W        W 8158  13.312  31.484   2.687
41091W        W 8159  41.494   7.306  13.431
41092W        W 8160  15.801  34.491   0.871
41093W        W 8161  29.607  23.585   1.243
41094W        W 8162  36.499  17.272   3.279
41095W        W 8163   8.808  30.025  13.856
41096W        W 8164  10.697  20.161  13.854
41097W        W 8165   5.891  28.457  13.863
41098W        W 8166   2.823  33.004  13.040
41099W        W 8167  10.142  31.619   2.347
41100W        W 8168  41.808  30.526   3.634
41101W        W 8169  23.037  33.965  13.809
41102W        W 8170   5.378   1.961   4.755
41103W        W 8171  36.432  22.603   4.204
41104W        W 8172  24.979  17.705   0.912
41105W        W 8173  28.136  32.470   1.925
41106W        W 8174  19.758  14.330   4.705
41107W        W 8175  11.205  27.051  13.960
41108W        W 8176  37.838   9.715  11.530
41109W        W 8177  37.874  43.453  12.860
41110W        W 8178  23.221  19.092   3.318
41111W        W 8179  11.258  34.010   0.931
41112W        W 8180  15.245  16.788   2.676
41113W        W 8181   4.724  21.222   4.175
41114W        W 8182  14.820  39.464   0.287
41115W        W 8183  20.262  10.843  12.508
41116W        W 8184  24.501  33.581  11.598
41117W        W 8185  35.939   2.775   0.370
41118W        W 8186  36.981  36.939  10.990
41119W        W 8187   6.398  23.688   3.693
41120W        W 8188  34.601  20.274   0.887
41121W        W 8189  41.911  22.546  12.949
41122W        W 8190  14.731   6.251   3.788
41123W        W 8191  18.111  31.907  11.892
41124W        W 8192  36.571  24.677   0.882
41125W        W 8193  37.874   0.340  12.872
41126W        W 8194  33.030   0.311  11.418
41127W        W 8195  43.501  35.069  14.017
41128W        W 8196  43.411  24.082   4.344
41129W        W 8197  22.582   4.346   4.754
41130W        W 8198  18.559  14.208   1.916
41131W        W 8199  26.965   5.835   2.698
41132W        W 8200   4.411  25.621   2.740
41133W        W 8201  30.534  25.138   2.867
41134W        W 8202  26.479  38.975   2.689
41135W        W 8203  39.479  25.176   3.261
41136W        W 8204  43.287  40.942   0.253
41137W        W 8205  40.462  33.914  13.406
41138W        W 8206  12.118   3.435  11.863
41139W        W 8207  43.812   1.262   3.818
41140W        W 8208  15.657   1.315  13.924
41141W        W 8209  16.215   7.270   5.289
41142W        W 8210  42.438  38.861  11.083
41143W        W 8211   7.746  44.401   0.292
41144W        W 8212  35.362  31.441   4.783
41145W        W 8213  39.050  21.034   2.771
41146W        W 8214  28.154  22.651   4.832
41147W        W 8215  12.305  32.979  12.012
41148W        W 8216  42.889  37.358  14.321
41149W        W 8217  14.315   6.321   5.317
41150W        W 8218  27.963  39.452  14.937
41151W        W 8219  22.056  22.229  10.436
41152W        W 8220  43.345  42.867   3.686
41153W        W 8221   7.675  37.509  10.152
41154W        W 8222   1.820  38.069  10.531
41155W        W 8223  43.944  34.564  12.529
41156W        W 8224  23.712  25.538  12.410
41157W        W 8225   2.341  26.619  10.608
41158W        W 8226  41.473  11.253  13.977
41159W        W 8227  18.278  18.097  14.769
41160W        W 8228  12.229   3.218   4.716
41161W        W 8229  44.340  11.842  13.033
41162W        W 8230   1.361  42.869   0.379
41163W        W 8231  43.448   3.241  12.539
41164W        W 8232  19.090   8.830   3.203
41165W        W 8233  11.740  18.265   2.709
41166W        W 8234   7.387  24.483  12.963
41167W        W 8235   6.843  28.051  11.385
41168W        W 8236  38.995  33.410  13.500
41169W        W 8237  38.377  17.258  11.487
41170W        W 8238  40.535  35.375   4.753
41171W        W 8239   2.840  31.418   0.300
41172W        W 8240  23.991   3.238  14.886
41173W        W 8241   9.815  16.168  10.950
41174W        W 8242   0.382   7.301   0.874
41175W        W 8243  37.015  39.888  13.919
41176W        W 8244  34.898   0.333   3.822
41177W        W 8245  30.449  17.562   4.626
41178W        W 8246   5.260  11.349  10.412
41179W        W 8247  31.921  39.017  10.971
41180W        W 8248  22.035  26.180   2.339
41181W        W 8249   9.854  15.297  13.875
41182W        W 8250  20.602  18.632  13.546
41183W        W 8251  40.449  40.332  12.567
41184W        W 8252  33.566  31.028  14.964
41185W        W 8253  29.444  13.193   5.297
41186W        W 8254  38.431  44.281   3.386
41187W        W 8255  38.977  38.029  12.823
41188W        W 8256  31.624  23.669  12.494
41189W        W 8257  12.652   0.386   1.272
41190W        W 8258  32.028  31.938  10.422
41191W        W 8259  27.105  12.738  13.386
41192W        W 8260  29.646  12.712   3.865
41193W        W 8261  19.639  36.941   1.826
41194W        W 8262   0.397  31.146  11.515
41195W        W 8263  13.124  14.214  12.432
41196W        W 8264   7.780  20.098  10.525
41197W        W 8265   1.800  18.088   2.720
41198W        W 8266  12.697  29.984   0.875
41199W        W 8267  18.071  19.773  10.923
41200W        W 8268  12.747  40.523   4.645
41201W        W 8269  36.350  35.079  10.614
41202W        W 8270  10.658  19.129  11.385
41203W        W 8271  43.973  21.610  13.417
41204W        W 8272  11.787  42.400  10.940
41205W        W 8273  13.630  27.005  13.356
41206W        W 8274  11.147   3.382  14.950
41207W        W 8275   4.882  27.088   3.725
41208W        W 8276  10.157   7.339   4.607
41209W        W 8277  19.128   1.956   0.823
41210W        W 8278  26.598   8.340   1.290
41211W        W 8279  36.948   5.739  12.576
41212W        W 8280  35.437  29.610   4.311
41213W        W 8281   1.290   8.388  11.583
41214W        W 8282  22.570  18.188   1.859
41215W        W 8283  33.891  38.960   4.656
41216W        W 8284  38.456   5.813   4.647
41217W        W 8285  19.213  17.077  11.871
41218W        W 8286  38.400  22.597   2.272
41219W        W 8287   1.900  42.296  14.468
41220W        W 8288  15.585  42.815  13.046
41221W        W 8289  33.938  23.657  11.470
41222W        W 8290   5.903  22.246  11.457
41223W        W 8291  29.125   2.348  10.494
41224W        W 8292  11.205  17.766  12.070
41225W        W 8293   1.968   6.766  13.372
41226W        W 8294  28.146   1.341  11.395
41227W        W 8295  29.066  28.098   4.643
41228W        W 8296   5.410   8.721  13.988
41229W        W 8297  40.501   2.937   0.453
41230W        W 8298  14.147  26.055  12.439
41231W        W 8299  13.685  16.157  12.404
41232W        W 8300   5.307   3.901   0.826
41233W        W 8301  10.775  42.871  14.300
41234W        W 8302  22.577   5.341   3.326
41235W        W 8303  38.897  22.596  12.580
41236W        W 8304  30.082  32.601  12.022
41237W        W 8305  20.213  39.864   2.324
41238W        W 8306  33.515  34.953  12.855
41239W        W 8307  30.631  26.615   3.800
41240W        W 8308  37.405  21.020  12.952
41241W        W 8309  25.487  40.456  11.020
41242W        W 8310  37.939  25.166   2.766
41243W        W 8311  34.416  28.159   2.713
41244W        W 8312   6.272  39.401  11.091
41245W        W 8313  13.620  10.875   2.336
41246W        W 8314  13.645  35.443   4.257
41247W        W 8315   9.194  30.024   3.777
41248W        W 8316  20.186  24.608   4.767
41249W        W 8317  35.415  22.116   0.828
41250W        W 8318   3.275  32.462   2.748
41251W        W 8319  18.210  14.148   0.792
41252W        W 8320  28.947  28.558   4.699
41253W        W 8321  14.325  32.892  10.504
41254W        W 8322   2.283  40.349  10.019
41255W        W 8323  12.159  43.516  14.469
41256W        W 8324  18.204  12.213  12.567
41257W        W 8325  27.086   8.203   1.238
41258W        W 8326  34.954   0.974  11.396
41259W        W 8327  21.051  32.440   3.743
41260W        W 8328  18.763  15.119  10.987
41261W        W 8329  39.477  32.136  12.843
41262W        W 8330  38.011  44.334   1.317
41263W        W 8331   0.479  40.374   1.358
41264W        W 8332  22.148  35.383  11.125
41265W        W 8333   2.416  32.994   0.349
41266W        W 8334  12.142   0.390  12.969
41267W        W 8335   2.851  33.911  14.362
41268W        W 8336  33.582   2.910  10.439
41269W        W 8337  40.335   0.445  11.380
41270W        W 8338  22.564  10.753  12.506
41271W        W 8339  18.184  14.752   4.641
41272W        W 8340   9.834  24.706  11.992
41273W        W 8341  11.315  25.604   0.776
41274W        W 8342   8.254  25.212   2.778
41275W        W 8343  42.996   3.276  12.824
41276W        W 8344  18.201  33.996   3.641
41277W        W 8345  26.978   9.652   3.648
41278W        W 8346  18.149  10.329   3.675
41279W        W 8347   5.243   2.821  13.543
41280W        W 8348  20.186  43.825   1.908
41281W        W 8349  44.501  10.180   4.671
41282W        W 8350  23.189  19.778  12.084
41283W        W 8351  19.127   4.864  10.907
41284W        W 8352  31.104   1.438  10.571
41285W        W 8353  21.536  21.724  12.561
41286W        W 8354  26.581  44.799   2.802
41287W        W 8355  25.553  35.962   4.220
41288W        W 8356  29.008  34.115  12.421
41289W        W 8357   6.247  13.299  12.484
41290W        W 8358  17.221   3.278   2.844
41291W        W 8359  44.338  38.949  14.364
41292W        W 8360  17.629  16.087  12.464
41293W        W 8361  41.462  40.951  13.821
41294W        W 8362  22.042  19.064   0.436
41295W        W 8363  18.686  43.470  14.391
41296W        W 8364  41.875   4.750   4.810
41297W        W 8365   1.254  22.193   0.940
41298W        W 8366  28.974  41.408   3.651
41299W        W 8367  34.922  34.865   4.215
41300W        W 8368  41.407  25.524  14.363
41301W        W 8369  34.374  13.291   0.412
41302W        W 8370  32.987  39.388   1.733
41303W        W 8371  40.349   9.653   2.784
41304W        W 8372  15.823   3.422   2.684
41305W        W 8373  29.999  22.073   3.636
41306W        W 8374  32.540   0.843   1.718
41307W        W 8375  10.343  10.733  10.429
41308W        W 8376  37.067  41.380  13.876
41309W        W 8377  37.929  20.266  10.990
41310W        W 8378   1.367  33.116  14.029
41311W        W 8379  36.528   9.810  12.858
41312W        W 8380  43.845  29.570  11.485
41313W        W 8381  34.904  32.549  12.996
41314W        W 8382  24.621  38.067   4.224
41315W        W 8383  15.696  42.859   2.246
41316W        W 8384  11.795  42.871  10.431
41317W        W 8385  38.025   8.190  13.464
41318W        W 8386  37.849  12.265   0.761
41319W        W 8387  12.287  12.805   0.880
41320W        W 8388  39.976   2.901   0.818
41321W        W 8389  32.073   8.663   4.304
41322W        W 8390  13.341   4.398   0.333
41323W        W 8391  16.102   3.378  10.968
41324W        W 8392  42.488  27.492   0.391
41325W        W 8393  10.285  41.298   3.714
41326W        W 8394  20.266  12.792   0.886
41327W        W 8395  11.776  33.431  11.922
41328W        W 8396  18.234  12.758   0.860
41329W        W 8397  30.053   6.865  14.310
41330W        W 8398   1.916  39.051  12.355
41331W        W 8399  32.400  19.707   5.139
41332W        W 8400  42.940  18.773  14.838
41333W        W 8401  16.254  16.259  12.034
41334W        W 8402  30.440  43.411   5.213
41335W        W 8403  25.962  17.739   1.355
41336W        W 8404  24.130  18.271   0.957
41337W        W 8405  35.021  38.881  14.299
41338W        W 8406  20.607  24.989  12.552
41339W        W 8407  10.226  40.828   3.180
41340W        W 8408  21.259  33.382   2.838
41341W        W 8409   9.223  25.632  10.610
41342W        W 8410  38.503  16.589  13.949
41343W        W 8411   1.423  21.628   0.948
41344W        W 8412  17.273  39.457   3.867
41345W        W 8413   7.820  24.481   3.696
41346W        W 8414  42.449  31.638   3.197
41347W        W 8415   5.928  17.159  11.880
41348W        W 8416  10.162  26.477  10.601
41349W        W 8417   3.435  33.492  13.053
41350W        W 8418  12.212  13.163  11.525
41351W        W 8419   0.822   9.655  13.912
41352W        W 8420  11.723   2.309   0.956
41353W        W 8421   5.244  17.606   0.849
41354W        W 8422  18.770  13.748  14.455
41355W        W 8423  42.512   4.254  13.792
41356W        W 8424  26.652  18.789  14.456
41357W        W 8425  25.038  10.354   1.441
41358W        W 8426  14.611  31.515  10.916
41359W        W 8427   5.317  30.614   2.245
41360W        W 8428  16.189  37.535   0.821
41361W        W 8429  21.690  42.295  10.034
41362W        W 8430  36.944  43.419   3.719
41363W        W 8431  12.624  12.678   2.241
41364W        W 8432  11.713  18.058   4.196
41365W        W 8433  36.529   2.731  13.516
41366W        W 8434  34.871   1.815   2.186
41367W        W 8435   7.907  34.060   4.659
41368W        W 8436  31.976  39.377  13.053
41369W        W 8437  19.269   5.774   2.741
41370W        W 8438  24.086  22.630  11.983
41371W        W 8439   6.199   0.902  14.280
41372W        W 8440   3.427  41.412   3.853
41373W        W 8441  40.811  23.711  14.368
41374W        W 8442  31.069  42.894  12.464
41375W        W 8443   5.247  22.146  14.910
41376W        W 8444  41.800  41.968  10.907
41377W        W 8445  24.994  11.666  14.351
41378W        W 8446   2.819  21.059  13.444
41379W        W 8447  31.589  14.315  12.070
41380W        W 8448  13.718   3.341  14.943
41381W        W 8449  22.591  15.263  10.097
41382W        W 8450  12.355  25.205   3.346
41383W        W 8451   5.798  10.177   2.257
41384W        W 8452  15.196  18.784  13.888
41385W        W 8453  28.106  21.639   3.848
41386W        W 8454  42.911  17.601   1.892
41387W        W 8455  36.462  22.251   2.838
41388W        W 8456  38.449  18.733  14.349
41389W        W 8457  26.073  44.382  12.418
41390W        W 8458   1.801  27.618   4.134
41391W        W 8459  18.067  38.493   0.783
41392W        W 8460  10.214  44.479  12.085
41393W        W 8461  38.990  44.358   1.907
41394W        W 8462  40.452  36.081  10.557
41395W        W 8463  17.149  25.116   2.863
41396W        W 8464  29.444  31.010   1.819
41397W        W 8465  18.154  22.194   3.362
41398W        W 8466  36.027   4.271   2.786
41399W        W 8467  14.725  31.500   1.785
41400W        W 8468  17.076  22.085   0.407
41401W        W 8469   1.475   5.898  11.066
41402W        W 8470  24.639   4.208   3.718
41403W        W 8471  24.155   1.271  14.278
41404W        W 8472  34.391  12.701  14.401
41405W        W 8473   2.885  11.864  11.057
41406W        W 8474  40.511  16.792   2.252
41407W        W 8475  24.680   1.243   3.263
41408W        W 8476  24.183  37.471  11.915
41409W        W 8477  25.024  42.925   3.648
41410W        W 8478  26.032  23.704  11.022
41411W        W 8479  40.504  16.645   0.839
41412W        W 8480   8.858   2.253   0.432
41413W        W 8481   0.334  12.244   0.302
41414W        W 8482   1.884  22.149  13.974
41415W        W 8483  16.781   0.864  14.453
41416W        W 8484   4.780  25.004   3.840
41417W        W 8485  31.937   7.182   1.930
41418W        W 8486  21.597  33.009   3.862
41419W        W 8487   5.261  17.079   4.328
41420W        W 8488   9.172  13.240   3.316
41421W        W 8489  32.895  40.399   3.328
41422W        W 8490  42.965  29.567   4.259
41423W        W 8491  27.050  21.633  13.459
41424W        W 8492  44.344   7.832   2.752
41425W        W 8493  14.242  33.546   2.893
41426W        W 8494  36.399  13.601  11.384
41427W        W 8495   2.861  29.967   2.805
41428W        W 8496   1.343  15.621  10.452
41429W        W 8497   0.399  42.324  13.546
41430W        W 8498  43.417  17.716  11.962
41431W        W 8499  31.153  39.535   2.754
41432W        W 8500  37.940  43.450  14.965
41433W        W 8501   7.869  27.600  14.021
41434W        W 8502  10.187   8.852   2.206
41435W        W 8503  30.975  19.111  11.000
41436W        W 8504  39.380  22.210  12.044
41437W        W 8505  24.216   7.803   4.812
41438W        W 8506  28.494  17.265  14.457
41439W        W 8507  32.434  33.390  10.890
41440W        W 8508  34.899  43.822  11.105
41441W        W 8509   4.818   2.939   3.248
41442W        W 8510   9.177  37.382  14.949
41443W        W 8511  34.411  34.563   3.834
41444W        W 8512  31.414  18.728   0.295
41445W        W 8513   2.385  42.865  14.811
41446W        W 8514  42.940  26.632   0.340
41447W        W 8515  20.583  14.111   4.136
41448W        W 8516  38.044  12.340   3.181
41449W        W 8517  16.272   3.952   3.150
41450W        W 8518  21.519  37.457   4.741
41451W        W 8519   7.372   0.395  14.299
41452W        W 8520  33.624  41.931  11.537
41453W        W 8521   7.865  38.420   4.826
41454W        W 8522  29.452  18.705  14.947
41455W        W 8523  39.366  33.109   0.967
41456W        W 8524  15.767  30.145  12.446
41457W        W 8525  14.178  38.819  12.463
41458W        W 8526  44.457  21.169   3.257
41459W        W 8527   0.416  39.899  12.549
41460W        W 8528  31.564   6.834   4.611
41461W        W 8529   4.815  43.437  11.100
41462W        W 8530  13.296  10.692   4.837
41463W        W 8531  38.036  23.490   2.702
41464W        W 8532  17.269  13.154   1.278
41465W        W 8533  18.068  31.624   0.327
41466W        W 8534  14.127  23.016  10.957
41467W        W 8535   8.797  18.654   3.706
41468W        W 8536  12.672  10.209   3.236
41469W        W 8537  10.152  26.004   0.429
41470W        W 8538  20.736  25.607  12.966
41471W        W 8539  25.999  10.653   4.329
41472W        W 8540  31.062   7.197  12.900
41473W        W 8541  38.003   5.382   4.273
41474W        W 8542  18.127  32.032   2.245
41475W        W 8543  41.860  41.451   9.972
41476W        W 8544  43.863  37.362   4.266
41477W        W 8545  29.997  15.605  10.609
41478W        W 8546  44.280  11.695  13.362
41479W        W 8547   6.349   2.884   0.844
41480W        W 8548  42.289  23.094   2.786
41481W        W 8549  39.994  36.446   2.229
41482W        W 8550  12.648   1.968   4.279
41483W        W 8551  28.589  16.177  11.934
41484W        W 8552  17.209  22.021   4.271
41485W        W 8553  24.695  30.646   3.181
41486W        W 8554  41.325  40.469  14.980
41487W        W 8555  35.449  25.973  11.886
41488W        W 8556   4.256  41.478   4.803
41489W        W 8557  29.626  19.063   0.413
41490W        W 8558  20.246   1.827   3.677
41491W        W 8559  37.540  37.873   2.703
41492W        W 8560  21.061  10.689   2.790
41493W        W 8561   4.271  26.032  14.506
41494W        W 8562  42.833   0.909   5.194
41495W        W 8563  39.549  27.030  14.817
41496W        W 8564  11.649  34.945  11.052
41497W        W 8565   3.731   9.832   1.756
41498W        W 8566  27.039  25.562   2.803
41499W        W 8567  37.024   9.170  14.874
41500W        W 8568  44.356  23.150  14.316
41501W        W 8569   2.341  19.692   1.229
41502W        W 8570  34.094  33.440  14.390
41503W        W 8571  43.501  25.485  10.932
41504W        W 8572  25.581  21.140  12.382
41505W        W 8573  43.299  15.666  10.150
41506W        W 8574   4.744  24.131  11.974
41507W        W 8575   0.771   6.723   2.771
41508W        W 8576  37.428  13.203  10.619
41509W        W 8577  16.573   6.813   4.118
41510W        W 8578   9.378  25.983   2.259
41511W        W 8579   3.716  20.594  12.851
41512W        W 8580  31.086   2.737  13.841
41513W        W 8581  41.969  10.244  14.987
41514W        W 8582  33.983  32.124   1.295
41515W        W 8583  27.641  42.418  14.976
41516W        W 8584  35.417  41.039   0.353
41517W        W 8585  44.393   5.753   3.710
41518W        W 8586  40.424   9.731  11.379
41519W        W 8587   6.907  17.262   0.365
41520W        W 8588  37.439   3.873   3.289
41521W        W 8589   3.333   5.812   0.850
41522W        W 8590  18.145  13.806  13.878
41523W        W 8591  31.953  35.975   2.290
41524W        W 8592  25.611  18.107  11.933
41525W        W 8593  29.562  25.084  10.523
41526W        W 8594  32.444  18.290  14.979
41527W        W 8595   1.336  42.943  11.429
41528W        W 8596  29.499  25.538   0.257
41529W        W 8597  39.323  31.411  14.848
41530W        W 8598   3.811  37.013  14.498
41531W        W 8599  40.471   4.236  14.466
41532W        W 8600   1.363  10.704   1.405
41533W        W 8601  26.087  15.655  10.537
41534W        W 8602  20.107  14.190  12.055
41535W        W 8603   9.220   3.915   3.685
41536W        W 8604  42.888  10.726  11.036
41537W        W 8605  20.265   1.400  14.890
41538W        W 8606  42.012   3.954  12.444
41539W        W 8607  36.868  17.706  13.396
41540W        W 8608  41.420  41.501   3.199
41541W        W 8609  43.819  27.102  12.043
41542W        W 8610  30.632   7.761   2.197
41543W        W 8611  40.547  39.833   4.652
41544W        W 8612  26.628   8.332  13.527
41545W        W 8613  25.123   9.267   4.632
41546W        W 8614  25.073  38.521   3.382
41547W        W 8615  31.510  24.137  10.454
41548W        W 8616   2.420  38.819   2.846
41549W        W 8617  36.999  39.424  14.004
41550W        W 8618   5.804   6.804   3.815
41551W        W 8619  21.230  32.052  14.964
41552W        W 8620   8.818   1.256  11.054
41553W        W 8621  16.130  32.514  10.501
41554W        W 8622   3.710  11.162   3.697
41555W        W 8623   1.765  36.042  14.318
41556W        W 8624   3.852  39.041  12.542
41557W        W 8625  17.615  38.951   1.774
41558W        W 8626   2.834  41.036   2.374
41559W        W 8627   1.954  30.004  13.919
41560W        W 8628  31.511  32.451   4.637
41561W        W 8629   5.855  43.512  13.482
41562W        W 8630  27.098  25.041  14.384
41563W        W 8631  38.562   8.891   9.990
41564W        W 8632  24.064   3.898  10.544
41565W        W 8633   6.375  27.110  14.447
41566W        W 8634  22.725  24.180   0.857
41567W        W 8635   3.305  20.614  14.443
41568W        W 8636   2.428  17.766   4.626
41569W        W 8637  44.477  34.462  13.880
41570W        W 8638  18.603   5.216   3.257
41571W        W 8639  19.596   0.917   0.472
41572W        W 8640  32.561   8.804  13.471
41573W        W 8641  27.538  13.816  13.891
41574W        W 8642   3.917  43.440  10.475
41575W        W 8643  43.845  42.014   2.729
41576W        W 8644  38.523  33.965   4.753
41577W        W 8645  11.158  33.026   1.801
41578W        W 8646   9.869   3.317  14.811
41579W        W 8647  10.266  26.037   9.963
41580W        W 8648  42.456  28.185  13.846
41581W        W 8649  31.604  28.936  14.842
41582W        W 8650  12.732  39.031  12.828
41583W        W 8651   3.710   0.946  12.495
41584W        W 8652   6.822   8.712   3.768
41585W        W 8653  18.707  22.132   0.856
41586W        W 8654  15.789  18.689   0.752
41587W        W 8655   7.288  21.583   0.891
41588W        W 8656   5.247   3.335   2.742
41589W        W 8657  39.027  23.109   0.442
41590W        W 8658  28.037  35.945  13.392
41591W        W 8659  33.455  20.607   3.148
41592W        W 8660   7.904  13.670   2.774
41593W        W 8661  20.559  12.253   1.287
41594W        W 8662   4.203  14.796  12.852
41595W        W 8663  31.946  20.048  13.863
41596W        W 8664  43.917  34.892   4.707
41597W        W 8665  16.596  31.077   0.748
41598W        W 8666  21.210  12.707   3.279
41599W        W 8667  41.849  38.953  11.507
41600W        W 8668  15.821  27.469  14.992
41601W        W 8669  30.110  40.827  12.956
41602W        W 8670  20.215  16.611  11.585
41603W        W 8671  39.897  38.343  11.908
41604W        W 8672  44.440   4.824   1.907
41605W        W 8673  29.601  18.683  13.418
41606W        W 8674  43.370  29.488   0.411
41607W        W 8675  30.052  27.499   0.742
41608W        W 8676  13.795  27.637   2.392
41609W        W 8677  20.242  41.940  11.014
41610W        W 8678  36.017  42.414  10.458
41611W        W 8679  25.706  34.101  13.376
41612W        W 8680  34.017   4.282   0.781
41613W        W 8681  21.020  32.559   4.193
41614W        W 8682  28.049  30.460  10.532
41615W        W 8683   2.793  42.433   2.663
41616W        W 8684  18.591  41.438   3.863
41617W        W 8685  23.695  40.522  10.561
41618W        W 8686   2.397  23.129  10.895
41619W        W 8687  14.633  34.586   0.822
41620W        W 8688  26.142  43.293   1.736
41621W        W 8689  30.105  18.550   2.675
41622W        W 8690  26.172  30.940   1.742
41623W        W 8691  28.186  44.965   4.709
41624W        W 8692  36.922   9.698  10.591
41625W        W 8693  15.776  43.443  12.992
41626W        W 8694  10.844   9.209  14.439
41627W        W 8695  25.541  11.160  12.501
41628W        W 8696  42.311   3.260   1.716
41629W        W 8697  18.706  16.213   3.772
41630W        W 8698  14.154  19.724  12.039
41631W        W 8699   0.336  13.285  10.472
41632W        W 8700  24.112   8.212   0.328
41633W        W 8701  27.630  22.201   2.854
41634W        W 8702  15.815   0.900   2.326
41635W        W 8703   0.453   6.407   0.427
41636W        W 8704  37.050  28.960  13.544
41637W        W 8705   2.779  19.194  14.931
41638W        W 8706  29.434  42.344   3.255
41639W        W 8707  21.022  36.440  10.511
41640W        W 8708  19.547  26.005  10.947
41641W        W 8709  24.214  10.142  13.942
41642W        W 8710  31.975  38.395  11.021
41643W        W 8711  27.570  30.549   4.122
41644W        W 8712   1.328   3.765  14.003
41645W        W 8713  12.189  37.495   3.211
41646W        W 8714  36.990   0.282   1.259
41647W        W 8715  23.169  39.506   3.824
41648W        W 8716   7.875  33.469   2.216
41649W        W 8717  17.688  10.315  13.014
41650W        W 8718  27.090  20.122  13.862
41651W        W 8719  26.140   2.472  10.540
41652W        W 8720  31.427  21.044  13.382
41653W        W 8721  39.962  14.785   3.218
41654W        W 8722   5.907  36.887   3.320
41655W        W 8723   7.312  44.309   1.866
41656W        W 8724  31.516  25.702  11.922
41657W        W 8725  10.203   8.192   4.290
41658W        W 8726  21.060   6.742  13.979
41659W        W 8727  31.031  39.449   2.294
41660W        W 8728   0.907  29.046  11.430
41661W        W 8729  42.430  22.127   4.692
41662W        W 8730   3.324  42.993   1.344
41663W        W 8731  26.534   2.428  12.000
41664W        W 8732  14.193  23.506   4.334
41665W        W 8733  10.167  29.946   3.384
41666W        W 8734   8.395  32.070   0.879
41667W        W 8735  11.663   3.791  12.372
41668W        W 8736  15.251  19.757  13.492
41669W        W 8737  20.653  31.530  12.965
41670W        W 8738  24.684   8.834   4.283
41671W        W 8739  24.069  14.719   0.913
41672W        W 8740  29.972  16.708   5.582
41673W        W 8741   4.880  35.865   4.219
41674W        W 8742  43.299  29.565  12.456
41675W        W 8743  25.472  35.024  11.078
41676W        W 8744  41.455  17.097   1.319
41677W        W 8745   2.307  37.863   1.711
41678W        W 8746  42.406  30.488   0.954
41679W        W 8747  15.083  17.798   4.191
41680W        W 8748  24.066  22.586   2.359
41681W        W 8749  37.982   8.201   1.874
41682W        W 8750  28.454  15.764   4.806
41683W        W 8751  16.604  44.301   2.396
41684W        W 8752  22.233   2.898  14.282
41685W        W 8753  42.000   1.811   3.764
41686W        W 8754  12.612  32.594   0.262
41687W        W 8755  16.287  42.381   4.621
41688W        W 8756  39.373   3.361   3.154
41689W        W 8757  41.023  33.088   0.314
41690W        W 8758  25.052  34.009  14.382
41691W        W 8759   3.391  27.189   1.714
41692W        W 8760   7.192  32.133   5.246
41693W        W 8761  42.329  27.125  14.886
41694W        W 8762  44.386  13.212   1.383
41695W        W 8763  41.988   7.691   1.235
41696W        W 8764  19.563  27.165  11.055
41697W        W 8765  19.700   3.866   2.689
41698W        W 8766  24.061  22.235  13.532
41699W        W 8767  29.933  11.805  11.397
41700W        W 8768   4.338  38.330  13.923
41701W        W 8769  36.865  19.709  12.842
41702W        W 8770  15.616  37.087  12.487
41703W        W 8771   8.753  27.004  12.454
41704W        W 8772  44.261  13.628  12.364
41705W        W 8773  21.518  31.024   3.386
41706W        W 8774  16.679   6.699  13.014
41707W        W 8775  30.929  16.282   1.776
41708W        W 8776  32.507  30.573  12.511
41709W        W 8777  42.902  28.099  10.971
41710W        W 8778  39.434  30.103  13.414
41711W        W 8779   3.810  23.706   4.245
41712W        W 8780  44.351  15.732   0.735
41713W        W 8781  13.270  17.615  12.954
41714W        W 8782  42.514  44.778  14.345
41715W        W 8783  33.509  34.017  12.945
41716W        W 8784  33.111  32.579   3.347
41717W        W 8785  31.602  15.123   4.129
41718W        W 8786  30.011  43.296  12.958
41719W        W 8787  12.230  28.152  14.024
41720W        W 8788   6.727  10.373  14.317
41721W        W 8789  33.114  32.934  10.995
41722W        W 8790   5.777   8.349  12.997
41723W        W 8791  41.816  18.583   5.258
41724W        W 8792  28.952  11.309   1.712
41725W        W 8793   3.291  43.440   0.387
41726W        W 8794  36.358  28.035   0.885
41727W        W 8795  16.274   4.713   3.725
41728W        W 8796   1.473  19.558  13.810
41729W        W 8797  19.573  41.471   4.794
41730W        W 8798  33.567  28.619  13.312
41731W        W 8799   9.194   3.246   2.747
41732W        W 8800  25.499   5.841   0.729
41733W        W 8801  43.944  39.879  11.401
41734W        W 8802  44.277  43.787  11.054
41735W        W 8803  40.816  42.341   2.267
41736W        W 8804   6.807  12.729   3.253
41737W        W 8805  35.881  11.858   5.175
41738W        W 8806  10.735   6.284  13.307
41739W        W 8807  22.029   1.444   2.855
41740W        W 8808  44.438   9.395  14.947
41741W        W 8809   7.251  22.682  12.544
41742W        W 8810   0.476  22.013   0.882
41743W        W 8811  33.993  12.784   4.712
41744W        W 8812  14.616  23.071  13.449
41745W        W 8813  16.135   9.358  14.313
41746W        W 8814  33.455  29.076   2.866
41747W        W 8815  32.394  39.442   3.343
41748W        W 8816  17.648  27.088   1.826
41749W        W 8817  23.510  35.081   0.775
41750W        W 8818  34.578  36.428  10.433
41751W        W 8819  12.276  44.292   0.433
41752W        W 8820   1.824   8.841  11.959
41753W        W 8821  24.095   6.235   3.355
41754W        W 8822  41.840  25.548   3.185
41755W        W 8823  15.780   1.321   2.725
41756W        W 8824  38.551  15.225   0.458
41757W        W 8825   1.395  29.471   4.697
41758W        W 8826  42.831   4.409   3.713
41759W        W 8827  18.288  23.109  11.087
41760W        W 8828  12.719  34.459   4.694
41761W        W 8829  21.573   5.703  11.453
41762W        W 8830  31.963  19.223  10.908
41763W        W 8831   8.348  33.920   4.282
41764W        W 8832  42.519   4.881   0.316
41765W        W 8833  40.807  12.356  13.352
41766W        W 8834  10.271  11.320  14.961
41767W        W 8835  40.446  29.007   3.768
41768W        W 8836  20.141   4.798  12.889
41769W        W 8837   8.677  41.824  14.883
41770W        W 8838   2.937  31.627   3.750
41771W        W 8839  31.080  10.261  10.519
41772W        W 8840  37.944  20.738  12.381
41773W        W 8841  43.952   8.163   4.219
41774W        W 8842  24.021   2.313   1.828
41775W        W 8843   1.312   3.389   1.426
41776W        W 8844  11.815   7.668  11.058
41777W        W 8845  11.177  34.539   0.727
41778W        W 8846  12.287   2.887  12.350
41779W        W 8847   7.867   1.374   3.209
41780W        W 8848  23.533  39.425  12.457
41781W        W 8849   8.293  16.791   1.790
41782W        W 8850   3.758   7.753  10.517
41783W        W 8851  44.317  15.762  13.519
41784W        W 8852  10.753  36.384  11.066
41785W        W 8853   6.688  21.733   0.896
41786W        W 8854   4.765   4.260  13.476
41787W        W 8855  26.598  40.980  14.854
41788W        W 8856  39.866  15.231   1.419
41789W        W 8857  30.629  43.774  13.847
41790W        W 8858  35.590  19.210   0.730
41791W        W 8859   2.328  29.467  14.020
41792W        W 8860  41.478   0.387   4.248
41793W        W 8861  30.077  13.783   2.393
41794W        W 8862   2.817  36.491   0.361
41795W        W 8863  13.621  27.145   0.402
41796W        W 8864  39.834  36.474  13.378
41797W        W 8865  31.416  32.056   4.174
41798W        W 8866  15.316  34.893  13.948
41799W        W 8867  34.880   0.374  12.026
41800W        W 8868   1.836  21.055   3.177
41801W        W 8869  17.215  14.778  14.808
41802W        W 8870  22.717   9.820  13.908
41803W        W 8871  19.700   8.766  12.577
41804W        W 8872  20.722   2.232  12.924
41805W        W 8873   4.258  11.242  10.436
41806W        W 8874  13.322  16.567  13.990
41807W        W 8875   0.812  41.375   2.386
41808W        W 8876  12.151  43.774   3.716
41809W        W 8877  19.533  25.192  13.060
41810W        W 8878  17.728  13.302  14.901
41811W        W 8879  36.529  43.014  14.020
41812W        W 8880  43.379   2.868   4.726
41813W        W 8881  33.989  36.868   1.889
41814W        W 8882  43.931   4.399   3.267
41815W        W 8883  19.107   7.822  12.870
41816W        W 8884  15.201  17.738   2.878
41817W        W 8885   4.745  43.932  14.031
41818W        W 8886  20.255  20.769  12.993
41819W        W 8887  32.555  29.095   4.344
41820W        W 8888  16.794  24.139  13.840
41821W        W 8889  27.674  14.650  11.975
41822W        W 8890  41.293  13.606   2.815
41823W        W 8891   0.972  39.503   4.202
41824W        W 8892  33.520  38.857  10.532
41825W        W 8893  23.159  31.615   4.288
41826W        W 8894  36.888  38.433   2.295
41827W        W 8895  23.637  39.430   3.295
41828W        W 8896   4.286  25.038   4.799
41829W        W 8897  36.569  19.593   1.814
41830W        W 8898  24.217  32.506   3.636
41831W        W 8899  24.070  39.950   2.751
41832W        W 8900   4.820   4.859   2.663
41833W        W 8901  13.797  12.118   2.844
41834W        W 8902  14.706  31.011  11.436
41835W        W 8903   8.840   4.921  10.970
41836W        W 8904  39.900  44.310  13.982
41837W        W 8905  16.582  26.661   2.730
41838W        W 8906   7.809   4.780  12.891
41839W        W 8907  24.106  43.956   2.276
41840W        W 8908  33.545  26.158   3.248
41841W        W 8909   2.461  42.467   4.796
41842W        W 8910  23.174  15.245  14.443
41843W        W 8911  24.585  18.652  11.983
41844W        W 8912  40.345   1.301   0.386
41845W        W 8913  20.120  18.125   2.668
41846W        W 8914  27.093  38.060  12.085
41847W        W 8915  22.995  34.037   0.356
41848W        W 8916  42.031   1.820   1.408
41849W        W 8917  38.538  16.184   0.269
41850W        W 8918  24.677  18.758   4.338
41851W        W 8919   2.247   9.836  14.837
41852W        W 8920   4.305  17.682   2.854
41853W        W 8921  24.130   4.789  13.455
41854W        W 8922  21.156  42.341  10.093
41855W        W 8923  26.697   3.884   5.084
41856W        W 8924  35.955   5.326   1.277
41857W        W 8925  18.724  12.821  13.839
41858W        W 8926  41.493  25.129  10.919
41859W        W 8927  25.211  23.605  14.781
41860W        W 8928  11.201  37.462   0.956
41861W        W 8929  39.004  37.571  14.029
41862W        W 8930   2.448  31.488   2.697
41863W        W 8931   5.900  36.893  12.852
41864W        W 8932   4.266   1.771  14.802
41865W        W 8933  32.913  16.079   1.802
41866W        W 8934  40.856   0.933   4.290
41867W        W 8935  41.941  24.619  13.798
41868W        W 8936  38.520  27.191  11.905
41869W        W 8937  44.359  42.823   3.774
41870W        W 8938  18.691  18.289  10.126
41871W        W 8939  14.725  40.361   2.678
41872W        W 8940  10.224  26.466   4.684
41873W        W 8941  17.109  15.224  11.083
41874W        W 8942  20.052  20.273  11.009
41875W        W 8943   8.845  11.798   0.864
41876W        W 8944   9.858   6.883   3.350
41877W        W 8945  37.839  17.723  14.434
41878W        W 8946  17.077  40.432   1.797
41879W        W 8947  23.223  21.126  10.923
41880W        W 8948  33.552  10.761   3.696
41881W        W 8949  38.547   3.330   4.836
41882W        W 8950   6.833  16.591   0.739
41883W        W 8951   7.770  23.025  14.421
41884W        W 8952  36.550   4.831  14.360
41885W        W 8953  34.573  29.123   2.226
41886W        W 8954  24.615  42.291  12.565
41887W        W 8955  13.140  29.516  10.459
41888W        W 8956  18.577  31.565   2.861
41889W        W 8957  42.367  18.778   3.750
41890W        W 8958   5.787  40.302   1.928
41891W        W 8959  17.677   1.948   4.310
41892W        W 8960  18.236  44.473   1.787
41893W        W 8961  23.526  30.598  12.548
41894W        W 8962  22.594  33.455   1.425
41895W        W 8963  30.092  12.751  13.841
41896W        W 8964  30.611  32.993  10.462
41897W        W 8965  28.075  29.952  12.930
41898W        W 8966  41.310  31.058  12.085
41899W        W 8967   5.694  16.798   4.784
41900W        W 8968  36.481  39.496   0.801
41901W        W 8969  16.164  37.073  13.350
41902W        W 8970  20.086  24.491  12.452
41903W        W 8971   7.887  24.524   3.333
41904W        W 8972  22.544  23.998  13.021
41905W        W 8973  40.314   1.799  13.043
41906W        W 8974  21.250  13.326   2.851
41907W        W 8975  44.388   4.794  14.862
41908W        W 8976  15.245  38.017  13.526
41909W        W 8977  14.767   0.418   3.218
41910W        W 8978  29.573  24.533  13.839
41911W        W 8979  12.199   7.814   3.738
41912W        W 8980  34.016  27.002   5.166
41913W        W 8981  37.075  44.429  13.835
41914W        W 8982  21.632  21.032  14.506
41915W        W 8983  17.167   0.961   1.910
41916W        W 8984  34.980  44.939  12.926
41917W        W 8985  41.458   0.438   1.799
41918W        W 8986  34.602  24.144  12.096
41919W        W 8987  37.847   2.310   3.767
41920W        W 8988  21.667  44.825   1.245
41921W        W 8989  11.239  26.115  13.985
41922W        W 8990   1.274   0.809   0.323
41923W        W 8991   6.423  38.540   0.834
41924W        W 8992  36.450  24.689   3.331
41925W        W 8993  12.621   8.885  10.569
41926W        W 8994  24.044   5.376   4.132
41927W        W 8995   3.260  28.106   3.857
41928W        W 8996   8.179  23.032   3.788
41929W        W 8997  39.497  24.007   3.729
41930W        W 8998  18.599  42.900  11.431
41931W        W 8999  10.803  37.872   0.788
41932W        W 9000  34.446  25.083   0.846
41933W        W 9001  17.752   8.661  11.594
41934W        W 9002  40.537  26.182  12.028
41935W        W 9003   6.755  38.822   1.377
41936W        W 9004   9.663  12.668  12.454
41937W        W 9005  37.483  27.663  12.009
41938W        W 9006  28.066  29.494  10.526
41939W        W 9007  35.958   2.229  12.892
41940W        W 9008  25.212  42.844   0.324
41941W        W 9009  15.608  13.721  12.560
41942W        W 9010  23.579   1.343   1.775
41943W        W 9011  27.195  32.399   3.381
41944W        W 9012  12.718  35.001   1.799
41945W        W 9013  39.853   6.880   4.654
41946W        W 9014   6.190   9.873   2.879
41947W        W 9015   8.279  24.022  13.879
41948W        W 9016   2.319  10.357   0.758
41949W        W 9017  18.147  17.062  13.863
41950W        W 9018  21.534  23.139   0.351
41951W        W 9019   1.787  21.082   4.823
41952W        W 9020   4.291  40.317   1.428
41953W        W 9021  37.914  39.057  13.891
41954W        W 9022  25.614   6.772   2.774
41955W        W 9023  24.182  21.182   5.102
41956W        W 9024   0.453  44.851   3.313
41957W        W 9025  42.402  43.787   4.145
41958W        W 9026  14.811  38.844   1.897
41959W        W 9027   6.182  25.062  13.464
41960W        W 9028  15.175  31.056  12.438
41961W        W 9029  26.561  36.404   3.291
41962W        W 9030  37.012  23.705   1.766
41963W        W 9031  20.661  31.636   2.882
41964W        W 9032  29.106   0.861  11.584
41965W        W 9033  36.394  12.763   2.673
41966W        W 9034  21.070  23.602   2.344
41967W        W 9035   5.714   0.798   2.363
41968W        W 9036  41.348  36.365   2.410
41969W        W 9037  43.294  10.798   0.308
41970W        W 9038  10.287  43.311  14.812
41971W        W 9039  42.908   9.221   3.238
41972W        W 9040  16.073  25.969   4.267
41973W        W 9041  23.153  42.961   3.854
41974W        W 9042  27.190  20.101   3.779
41975W        W 9043  37.908  15.111   4.239
41976W        W 9044  19.131   3.294  10.930
41977W        W 9045  16.150  12.322  11.488
41978W        W 9046   6.866  20.053  14.316
41979W        W 9047   8.381  22.675  12.825
41980W        W 9048   4.240  13.808   0.462
41981W        W 9049  44.767  38.403   2.348
41982W        W 9050  20.151   4.750   2.710
41983W        W 9051  11.210  36.352   4.317
41984W        W 9052   8.299   5.254   1.282
41985W        W 9053  32.938  24.674   1.402
41986W        W 9054  37.951  22.549  14.424
41987W        W 9055  28.512  27.994  13.926
41988W        W 9056   0.424   4.845   4.711
41989W        W 9057  14.218  39.424  10.574
41990W        W 9058  22.591  35.085   1.861
41991W        W 9059  28.062  15.227   0.768
41992W        W 9060  30.137  24.669   2.262
41993W        W 9061  23.632  44.471   1.258
41994W        W 9062   1.469  29.122  14.452
41995W        W 9063  38.493  22.595   0.444
41996W        W 9064  20.672  24.593   0.425
41997W        W 9065   0.326  44.338  14.505
41998W        W 9066  15.096   7.887  12.507
41999W        W 9067   9.241   7.907   4.265
42000W        W 9068  15.616   8.812   3.189
42001W        W 9069  42.879  13.658  10.584
42002W        W 9070  38.991  21.040  13.901
42003W        W 9071  15.254  25.674  11.528
42004W        W 9072   9.180  22.236   4.333
42005W        W 9073  42.892  27.634   3.334
42006W        W 9074  10.776  15.751   0.908
42007W        W 9075   1.936   6.223   0.956
42008W        W 9076  39.544  44.484  14.338
42009W        W 9077  27.636   5.438  12.555
42010W        W 9078  29.536  29.164   2.815
42011W        W 9079  30.947  38.939  12.873
42012W        W 9080  36.965  36.362   4.302
42013W        W 9081  11.747  13.707  10.535
42014W        W 9082  14.763  43.794   0.860
42015W        W 9083  17.693  26.661   1.221
42016W        W 9084   3.724   6.901   4.660
42017W        W 9085   9.213  23.531  13.354
42018W        W 9086   0.781  17.200  10.523
42019W        W 9087  13.281  35.443   2.381
42020W        W 9088  42.402  26.560  14.298
42021W        W 9089  14.794  11.286  13.818
42022W        W 9090   7.345  42.350   3.206
42023W        W 9091  30.438  30.915   0.245
42024W        W 9092  37.913   0.884  12.564
42025W        W 9093   4.766  43.855  12.939
42026W        W 9094  33.875  41.969   0.285
42027W        W 9095  19.551  43.403  12.483
42028W        W 9096  25.983  28.500   0.354
42029W        W 9097  35.931   2.403  14.477
42030W        W 9098  18.655  10.878   2.270
42031W        W 9099  37.404  12.339  12.575
42032W        W 9100  41.376  32.045  10.919
42033W        W 9101  33.051  30.048  14.976
42034W        W 9102  15.095   8.846  10.921
42035W        W 9103  38.001   4.893   1.694
42036W        W 9104  37.002  21.026   0.352
42037W        W 9105   8.291  44.282  11.416
42038W        W 9106  25.587  44.848   2.843
42039W        W 9107  22.036  25.492  11.879
42040W        W 9108  19.250  21.545   1.243
42041W        W 9109  16.075  39.386   2.839
42042W        W 9110  29.056  18.576  11.071
42043W        W 9111  23.523   3.337  11.584
42044W        W 9112  36.045   3.220   4.149
42045W        W 9113   5.313   6.869  14.859
42046W        W 9114  26.106  19.180  13.815
42047W        W 9115  27.565  33.452  12.493
42048W        W 9116  32.572  38.960   1.221
42049W        W 9117  18.177   7.178   3.668
42050W        W 9118  41.972  29.590  11.923
42051W        W 9119   7.773  22.171   2.305
42052W        W 9120  31.112  30.477   1.244
42053W        W 9121  24.001  18.573   4.809
42054W        W 9122  28.458  18.236   3.231
42055W        W 9123   6.350  39.009  11.441
42056W        W 9124  12.238  17.580  11.873
42057W        W 9125  14.691   4.839  10.140
42058W        W 9126  16.726  13.721  12.040
42059W        W 9127   1.829  39.557   0.765
42060W        W 9128  29.661  11.279  11.947
42061W        W 9129  27.181  34.909   2.694
42062W        W 9130  26.592  36.583  10.990
42063W        W 9131  37.445   3.441   0.369
42064W        W 9132  41.520   6.916   1.378
42065W        W 9133  41.944   5.214   0.888
42066W        W 9134  33.623   9.199  14.344
42067W        W 9135  40.387  42.497   2.179
42068W        W 9136  33.486  44.331  11.969
42069W        W 9137   4.916  14.323   4.704
42070W        W 9138   5.210  34.980  14.470
42071W        W 9139  30.932   0.290  12.429
42072W        W 9140  39.510  19.196  13.797
42073W        W 9141  42.475  40.845   4.719
42074W        W 9142  19.735   3.236  14.502
42075W        W 9143  33.504   3.853   2.781
42076W        W 9144  41.013  32.075  13.059
42077W        W 9145  25.712   6.262  12.366
42078W        W 9146  14.689   8.894  11.569
42079W        W 9147   4.772   5.261  11.020
42080W        W 9148  15.677  21.129   3.274
42081W        W 9149  28.084  36.974  13.426
42082W        W 9150   5.308  35.027   2.377
42083W        W 9151  25.475  33.084   1.720
42084W        W 9152   2.814  44.365  10.982
42085W        W 9153  16.165  38.361   3.313
42086W        W 9154  42.466  18.203  14.779
42087W        W 9155   5.347  40.367  13.526
42088W        W 9156   2.375   6.277  14.763
42089W        W 9157  40.933  25.672  13.909
42090W        W 9158  32.554  10.803   4.178
42091W        W 9159  27.109   6.907   1.324
42092W        W 9160  44.295  14.107   3.794
42093W        W 9161  33.534  12.640   9.941
42094W        W 9162  37.361  37.933  13.315
42095W        W 9163  33.588  42.307  14.458
42096W        W 9164  31.012  30.593  10.502
42097W        W 9165  44.894  29.450  14.319
42098W        W 9166   5.734  32.117   2.892
42099W        W 9167  38.038  31.620   2.224
42100W        W 9168  44.853  28.508  12.372
42101W        W 9169  29.136  37.382  11.426
42102W        W 9170  19.757  44.311   4.229
42103W        W 9171  21.741  38.921   1.392
42104W        W 9172  33.920  30.424   2.388
42105W        W 9173  32.950  22.655   2.858
42106W        W 9174   3.913  18.098  12.494
42107W        W 9175  40.866  21.604  11.480
42108W        W 9176  29.598   0.347   1.367
42109W        W 9177  19.612  42.431   3.797
42110W        W 9178  30.550   3.941  11.920
42111W        W 9179  44.461   5.379  12.966
42112W        W 9180  12.838  21.615  13.479
42113W        W 9181  35.093  22.191   0.950
42114W        W 9182  42.839  24.095   2.240
42115W        W 9183  16.180  39.462  14.469
42116W        W 9184  19.707  24.659   0.803
42117W        W 9185  31.995   2.856   2.386
42118W        W 9186  36.556  38.568   4.300
42119W        W 9187   1.252   5.823   0.404
42120W        W 9188  42.779  26.496  10.908
42121W        W 9189   9.846  16.731   1.349
42122W        W 9190   0.294  13.169   0.472
42123W        W 9191  13.252  16.166  12.435
42124W        W 9192   6.903   4.413  11.484
42125W        W 9193  42.921  35.999  12.546
42126W        W 9194  19.543  28.069   3.334
42127W        W 9195  27.008  15.329  11.433
42128W        W 9196  10.825  44.464   2.839
42129W        W 9197  16.074  29.146  13.470
42130W        W 9198   8.810  37.573   9.928
42131W        W 9199  12.123   2.895   1.935
42132W        W 9200  30.128  25.034  11.055
42133W        W 9201  12.660  28.600   1.769
42134W        W 9202   9.319  20.648   1.789
42135W        W 9203  38.063  38.835  11.964
42136W        W 9204  20.628  11.143  10.566
42137W        W 9205  24.673  21.563  11.577
42138W        W 9206  32.085  21.067  14.949
42139W        W 9207  21.105  40.330   1.351
42140W        W 9208  27.105  12.304   4.279
42141W        W 9209  31.477  19.063   4.837
42142W        W 9210  15.246  27.185   4.334
42143W        W 9211  23.716  19.249  14.935
42144W        W 9212  30.517   0.457   3.794
42145W        W 9213  32.628  15.255  12.497
42146W        W 9214  31.014  21.693   3.189
42147W        W 9215  33.046  32.112   2.815
42148W        W 9216  44.379   1.451   1.256
42149W        W 9217  20.102   2.467   1.273
42150W        W 9218   0.490  15.805  12.896
42151W        W 9219  34.991  43.799  11.560
42152W        W 9220  37.344  10.198   2.307
42153W        W 9221   6.709   0.326   0.298
42154W        W 9222  27.172  14.278   3.243
42155W        W 9223  14.617  15.313   4.822
42156W        W 9224  31.965  26.573  14.299
42157W        W 9225   8.197  44.492  13.975
42158W        W 9226  40.922   3.460  12.447
42159W        W 9227  17.081  15.307   4.687
42160W        W 9228   4.780  31.419   2.221
42161W        W 9229  37.086   5.411   0.480
42162W        W 9230  15.221   4.273  12.349
42163W        W 9231  26.509  23.994   3.380
42164W        W 9232   7.242  16.657  13.034
42165W        W 9233  26.119  22.502   1.434
42166W        W 9234  19.772  18.177  10.921
42167W        W 9235   5.195  36.045   1.268
42168W        W 9236  29.452   6.778  11.987
42169W        W 9237  36.524  33.964   4.628
42170W        W 9238  33.473  35.405  11.957
42171W        W 9239  28.582  41.377   0.875
42172W        W 9240  30.104  27.514  14.886
42173W        W 9241  23.693  22.113  12.075
42174W        W 9242  33.027  27.006  12.405
42175W        W 9243   0.907  12.849   2.406
42176W        W 9244  44.893  39.937  13.352
42177W        W 9245  40.413  27.167   1.215
42178W        W 9246  29.159  19.622  14.924
42179W        W 9247   5.810  42.966   0.275
42180W        W 9248  10.346  33.983  13.342
42181W        W 9249  25.172  11.189   3.870
42182W        W 9250  34.564   2.921  13.380
42183W        W 9251  40.448  37.880  13.940
42184W        W 9252  13.206  16.688   3.146
42185W        W 9253  39.319  41.819   2.316
42186W        W 9254  11.757  42.788  14.290
42187W        W 9255   1.742  10.274  12.013
42188W        W 9256  23.563  40.542  12.858
42189W        W 9257  16.222  11.656  11.936
42190W        W 9258   0.876  40.548   0.350
42191W        W 9259  36.355  14.622  13.480
42192W        W 9260  22.662  43.336   0.940
42193W        W 9261  23.515  20.046   4.631
42194W        W 9262  19.164   8.773  12.061
42195W        W 9263  21.691  15.746   0.848
42196W        W 9264   9.151  37.440   0.913
42197W        W 9265  39.405   5.295   0.386
42198W        W 9266  44.496  21.595   0.958
42199W        W 9267   6.337  13.606  14.829
42200W        W 9268  15.278  18.687   4.117
42201W        W 9269  28.969  21.072  11.042
42202W        W 9270  15.194  26.146   3.772
42203W        W 9271  41.854  25.046   2.691
42204W        W 9272   8.214  16.103  11.964
42205W        W 9273  10.658   3.234   5.315
42206W        W 9274   0.867  11.749   2.823
42207W        W 9275   3.305  26.011  13.913
42208W        W 9276  24.714  21.022   3.254
42209W        W 9277  34.996  23.089  10.422
42210W        W 9278   6.213  35.585  11.557
42211W        W 9279  36.479   8.698   1.783
42212W        W 9280  34.864  35.476  13.882
42213W        W 9281  28.024  11.157  14.828
42214W        W 9282  12.834   0.767  13.861
42215W        W 9283  29.972  15.800  13.352
42216W        W 9284   2.862  27.040   3.356
42217W        W 9285  31.138  10.738  10.997
42218W        W 9286  21.610  43.825  11.996
42219W        W 9287   9.708  30.092  11.426
42220W        W 9288  30.131  32.009  11.504
42221W        W 9289  20.586  20.069  10.506
42222W        W 9290   1.797  41.875  13.934
42223W        W 9291   7.876  43.869  10.491
42224W        W 9292  34.973  39.843  11.038
42225W        W 9293   3.931   1.390  13.445
42226W        W 9294   8.885  26.106   0.867
42227W        W 9295  16.173  27.047  13.812
42228W        W 9296  25.645  17.274  11.948
42229W        W 9297  14.623   0.889   4.699
42230W        W 9298  19.053  27.004   4.606
42231W        W 9299   4.802  29.430   3.854
42232W        W 9300   8.790   9.834  14.802
42233W        W 9301  37.946  38.564  11.122
42234W        W 9302  26.591  20.250  12.521
42235W        W 9303  40.944   6.394   0.431
42236W        W 9304  24.103   5.311   3.194
42237W        W 9305   8.753  40.027  12.091
42238W        W 9306  10.268  26.199  12.908
42239W        W 9307  38.948  28.014   0.418
42240W        W 9308  19.682  35.882  14.404
42241W        W 9309  18.641  15.748   0.968
42242W        W 9310  20.652   2.352  14.977
42243W        W 9311  15.815   3.883  14.471
42244W        W 9312   3.720   4.225  12.370
42245W        W 9313   2.397  25.984   0.247
42246W        W 9314  12.192   3.846  10.951
42247W        W 9315  35.922  18.231  10.454
42248W        W 9316  34.045  10.363  11.390
42249W        W 9317  18.649  43.284  11.865
42250W        W 9318  42.861   7.229  14.997
42251W        W 9319  13.797  27.011   4.740
42252W        W 9320  21.159  35.004  14.851
42253W        W 9321   6.866   4.444   1.430
42254W        W 9322   5.849   3.372  11.003
42255W        W 9323  27.647  36.061   0.472
42256W        W 9324  28.000  27.123  12.998
42257W        W 9325  38.022   6.334   3.820
42258W        W 9326  28.466   9.654  14.294
42259W        W 9327  19.653  18.705  13.409
42260W        W 9328  15.765  24.646   0.822
42261W        W 9329  44.903   9.840  13.986
42262W        W 9330  39.840  12.770  13.807
42263W        W 9331  15.672  25.619  13.964
42264W        W 9332  31.001  22.007   3.309
42265W        W 9333   2.761  12.820   4.232
42266W        W 9334  35.541  16.096   2.203
42267W        W 9335  29.638  16.104  13.354
42268W        W 9336  14.680  32.437  11.443
42269W        W 9337  38.507  18.131  12.028
42270W        W 9338   6.792  14.164  12.522
42271W        W 9339  42.512  16.197  10.640
42272W        W 9340  41.463   4.819   1.755
42273W        W 9341  12.168   8.372   3.831
42274W        W 9342  14.246  17.702   2.185
42275W        W 9343  20.738  40.052   1.766
42276W        W 9344  21.593  13.321  11.916
42277W        W 9345  39.023  38.369   3.689
42278W        W 9346  31.545  44.942   2.266
42279W        W 9347  42.439   2.757   4.795
42280W        W 9348  21.637  12.627  10.618
42281W        W 9349  41.959   0.882  13.947
42282W        W 9350   3.304   5.393  11.097
42283W        W 9351   2.383  38.030   4.353
42284W        W 9352  12.361  13.230   1.709
42285W        W 9353  24.043  34.867  10.569
42286W        W 9354  26.491  29.112  12.857
42287W        W 9355  21.088   3.754  10.478
42288W        W 9356   5.236  39.357  12.029
42289W        W 9357   0.417  19.552  13.873
42290W        W 9358  38.905  41.020  11.946
42291W        W 9359   5.844  36.527  10.422
42292W        W 9360  29.128  44.386   4.205
42293W        W 9361  11.678  22.066  12.837
42294W        W 9362  29.175   4.834  10.535
42295W        W 9363  43.355  21.121  14.816
42296W        W 9364  27.586  25.192   0.394
42297W        W 9365  45.000  24.080  13.039
42298W        W 9366  26.623  43.444  11.000
42299W        W 9367  29.623  18.220  11.491
42300W        W 9368  12.261  26.519  10.413
42301W        W 9369   0.975  16.203  13.477
42302W        W 9370  28.558  26.457   0.911
42303W        W 9371  26.155   3.786  11.517
42304W        W 9372  34.601  24.537   2.391
42305W        W 9373  22.238  38.563  11.108
42306W        W 9374  23.696  30.959  11.575
42307W        W 9375  21.029   7.283  11.033
42308W        W 9376   8.327  34.892   0.379
42309W        W 9377  37.475  38.936   1.894
42310W        W 9378   4.883  20.708   5.097
42311W        W 9379  37.843  35.481   2.275
42312W        W 9380  15.109  37.473  13.046
42313W        W 9381  22.092  33.115   4.602
42314W        W 9382  14.788   1.354  12.544
42315W        W 9383  19.084  41.931   2.697
42316W        W 9384  10.774  15.732   4.828
42317W        W 9385  22.609  37.524   1.825
42318W        W 9386   6.740  41.450  12.042
42319W        W 9387  29.018  10.257  14.290
42320W        W 9388  15.622  42.793   3.307
42321W        W 9389   0.890  18.659   0.311
42322W        W 9390  37.902  20.256   2.294
42323W        W 9391  17.177  27.116   2.281
42324W        W 9392  31.113  15.121  12.557
42325W        W 9393   1.350   7.195   4.272
42326W        W 9394  28.083  37.476  13.502
42327W        W 9395  28.109  35.976   1.232
42328W        W 9396  18.174  37.885  13.520
42329W        W 9397  42.405  39.378  12.096
42330W        W 9398   0.842  40.493  13.981
42331W        W 9399  18.641  12.296   3.272
42332W        W 9400  15.227   9.360   2.750
42333W        W 9401   8.257  30.602   2.334
42334W        W 9402   5.338  22.008   3.246
42335W        W 9403  21.647   7.336   4.166
42336W        W 9404  32.086   8.893   2.305
42337W        W 9405   0.829  18.223  12.023
42338W        W 9406  16.209  17.620  11.521
42339W        W 9407  15.252  43.785  14.030
42340W        W 9408  32.424  11.324   1.805
42341W        W 9409  44.382   0.972   1.290
42342W        W 9410  43.401  26.497   4.316
42343W        W 9411  13.148  32.434   4.819
42344W        W 9412  22.525  40.817   1.322
42345W        W 9413  37.993  14.180  11.079
42346W        W 9414  15.579  31.648  13.503
42347W        W 9415  40.950   7.720  14.876
42348W        W 9416  44.466   7.171   0.859
42349W        W 9417   7.193  14.644  11.925
42350W        W 9418   0.296  30.078   4.599
42351W        W 9419  15.819  16.623   2.227
42352W        W 9420  22.675   7.263   5.318
42353W        W 9421  32.519  12.668  10.409
42354W        W 9422   6.207  27.128   3.347
42355W        W 9423  34.965  38.012   2.669
42356W        W 9424  44.784  32.910   4.810
42357W        W 9425  17.769  41.399  14.845
42358W        W 9426  34.868  22.642   0.836
42359W        W 9427  21.574  13.843   2.374
42360W        W 9428  17.653   3.919  13.995
42361W        W 9429  39.939  20.236   1.909
42362W        W 9430  26.140   7.802  13.994
42363W        W 9431   0.790  21.194   0.476
42364W        W 9432   9.175  14.810   3.755
42365W        W 9433  23.525  13.253   2.245
42366W        W 9434  37.924  30.545  11.922
42367W        W 9435  14.784  24.524   1.853
42368W        W 9436  15.117   0.416   1.752
42369W        W 9437  13.780  12.269   3.309
42370W        W 9438  40.546  41.526  13.423
42371W        W 9439  22.141   9.205  11.992
42372W        W 9440  29.055  21.702  13.345
42373W        W 9441  15.595  19.268  11.998
42374W        W 9442  31.574  16.113  12.883
42375W        W 9443  39.060  11.686  14.931
42376W        W 9444   9.270   7.880   1.395
42377W        W 9445  12.686  20.532   0.745
42378W        W 9446  37.479   8.383  13.010
42379W        W 9447  14.810  27.584   0.918
42380W        W 9448  11.776  22.672   4.657
42381W        W 9449  16.753  30.430  14.384
42382W        W 9450   7.759   0.272  14.321
42383W        W 9451  13.279  13.171  11.966
42384W        W 9452  36.053  12.129   2.417
42385W        W 9453  40.951   9.786  13.516
42386W        W 9454   3.459  42.432   2.794
42387W        W 9455   1.975  28.670  10.637
42388W        W 9456  21.130  37.837   1.880
42389W        W 9457  34.078  22.164   2.376
42390W        W 9458  40.975   3.853   3.824
42391W        W 9459  15.257  43.958   3.287
42392W        W 9460  26.204  42.412  13.869
42393W        W 9461  21.579  34.110  13.911
42394W        W 9462   9.155  44.933   2.714
42395W        W 9463  28.028   8.210   3.870
42396W        W 9464  25.472  19.138   1.720
42397W        W 9465  23.631   9.717  14.817
42398W        W 9466   7.218  16.598   1.365
42399W        W 9467   1.808   8.786   1.366
42400W        W 9468  18.548  11.371  14.832
42401W        W 9469  16.701  28.657   5.173
42402W        W 9470  23.181  18.667  11.046
42403W        W 9471  36.860  25.538  11.873
42404W        W 9472   4.424  10.326  10.559
42405W        W 9473  41.371  15.662  10.963
42406W        W 9474  25.994  18.731  14.815
42407W        W 9475  39.039  12.166   4.741
42408W        W 9476  34.908   6.832   1.869
42409W        W 9477  12.270  11.216   4.681
42410W        W 9478  18.093   2.753  13.502
42411W        W 9479  31.432   2.287   4.295
42412W        W 9480  13.674  16.145  11.573
42413W        W 9481  43.808  37.431  11.594
42414W        W 9482   4.900   5.907  11.056
42415W        W 9483  10.384  42.403   2.291
42416W        W 9484  19.259  14.145   1.227
42417W        W 9485  14.753  44.866  13.498
42418W        W 9486  43.794  16.670  14.988
42419W        W 9487  37.848  28.666  14.981
42420W        W 9488  23.011  25.494   0.796
42421W        W 9489  12.619  34.054  10.539
42422W        W 9490  42.869  37.968   2.277
42423W        W 9491  14.628  25.964   1.270
42424W        W 9492  27.534  10.188   0.347
42425W        W 9493  44.454  23.159   2.250
42426W        W 9494   3.425   5.817   1.272
42427W        W 9495  25.099  23.101   2.251
42428W        W 9496  14.143  26.188  11.009
42429W        W 9497  22.589   1.916  12.832
42430W        W 9498  29.925   9.720  12.576
42431W        W 9499  12.132  31.013   2.304
42432W        W 9500  38.941  39.537   4.120
42433W        W 9501  14.804  21.032   3.737
42434W        W 9502   6.399  27.135  13.341
42435W        W 9503  12.710   8.267   4.740
42436W        W 9504  39.812   8.784   0.334
42437W        W 9505  44.474  19.124   1.334
42438W        W 9506  29.008  13.171  13.332
42439W        W 9507  38.876  44.781  11.048
42440W        W 9508  29.938  15.128   1.757
42441W        W 9509   7.343  29.061   4.725
42442W        W 9510  15.781  41.789   0.378
42443W        W 9511  35.904   1.351   1.418
42444W        W 9512   0.914  16.598   1.450
42445W        W 9513  27.007   7.278  13.513
42446W        W 9514  13.322  44.843  10.503
42447W        W 9515   2.351  39.516   1.234
42448W        W 9516   0.882   7.689   0.470
42449W        W 9517  31.154   3.445   4.724
42450W        W 9518  24.708  34.514   1.817
42451W        W 9519   4.936   7.215  13.526
42452W        W 9520  34.527   9.647   0.299
42453W        W 9521  19.076  14.231  10.500
42454W        W 9522   2.413   4.847   4.343
42455W        W 9523  20.538  15.642   4.750
42456W        W 9524  24.221   8.389  13.042
42457W        W 9525   9.766  23.062  10.932
42458W        W 9526  31.130  34.917  12.943
42459W        W 9527  36.972  21.084   2.246
42460W        W 9528  41.882   2.362   0.761
42461W        W 9529  11.805   2.786   1.262
42462W        W 9530  28.659  24.595  11.872
42463W        W 9531   7.316  33.976   1.883
42464W        W 9532   8.205   9.353  10.474
42465W        W 9533  19.666   8.683   5.144
42466W        W 9534  34.877  20.143   4.685
42467W        W 9535  38.523  43.924   2.248
42468W        W 9536  25.024  44.872  12.580
42469W        W 9537  15.788   9.348  10.891
42470W        W 9538  25.549  41.528   4.182
42471W        W 9539   7.719  19.051  12.474
42472W        W 9540   5.411   7.702  10.552
42473W        W 9541  18.129  25.523  13.426
42474W        W 9542  29.032  31.538  12.359
42475W        W 9543  10.636  20.554   4.658
42476W        W 9544  40.542  21.135  13.487
42477W        W 9545  19.595  31.015  10.512
42478W        W 9546  11.238  18.585   1.831
42479W        W 9547  37.459  27.664   3.663
42480W        W 9548  25.472  40.486  14.925
42481W        W 9549   6.677  41.464  12.484
42482W        W 9550  39.014  17.213  12.384
42483W        W 9551  25.531  19.674   9.951
42484W        W 9552  40.798   1.893   4.263
42485W        W 9553  12.289  20.747   2.331
42486W        W 9554  20.589  39.321  14.509
42487W        W 9555   5.303  26.461   4.262
42488W        W 9556  15.582   6.885  11.096
42489W        W 9557  40.850  27.078  14.759
42490W        W 9558   2.927  41.977   1.843
42491W        W 9559  21.755   8.774  13.314
42492W        W 9560  41.293  34.098   0.840
42493W        W 9561  28.089  13.352   0.312
42494W        W 9562  11.742  40.832   0.894
42495W        W 9563   4.280  11.641  13.942
42496W        W 9564  25.583  28.981   0.411
42497W        W 9565  35.110   8.769   3.199
42498W        W 9566   3.384  12.169   2.275
42499W        W 9567  24.558  43.919   4.728
42500W        W 9568   3.906  34.563   4.811
42501W        W 9569  33.489  35.582  13.362
42502W        W 9570  19.535  34.524  14.964
42503W        W 9571  34.372  14.624  10.494
42504W        W 9572  18.751  41.843  13.462
42505W        W 9573   7.409  33.620   3.275
42506W        W 9574  26.162  16.242   2.859
42507W        W 9575  27.095   7.322  11.429
42508W        W 9576   9.170  16.225   1.739
42509W        W 9577  19.613  21.543  14.030
42510W        W 9578   5.229  37.962  11.974
42511W        W 9579   4.244  15.262  14.383
42512W        W 9580  31.067  29.454  14.447
42513W        W 9581  11.840  33.986   1.430
42514W        W 9582  23.118  42.388   4.286
42515W        W 9583  12.658  18.776   5.142
42516W        W 9584  20.750  29.020   3.724
42517W        W 9585  28.514  27.547  10.492
42518W        W 9586  11.724  31.919   2.684
42519W        W 9587  14.690  26.518   4.260
42520W        W 9588  19.735  17.267  10.524
42521W        W 9589  30.618  14.684  14.981
42522W        W 9590   3.366  37.909  11.557
42523W        W 9591  12.347  41.975  13.376
42524W        W 9592  44.317   6.272  12.388
42525W        W 9593  19.046  27.678  11.485
42526W        W 9594   8.222  18.060  12.873
42527W        W 9595  27.194  33.525   0.875
42528W        W 9596  22.739   9.849   3.155
42529W        W 9597  35.386  37.994   3.163
42530W        W 9598  33.945  11.731  13.456
42531W        W 9599   3.916   3.259   4.163
42532W        W 9600  34.074  21.515  14.364
42533W        W 9601  24.207  28.578   4.769
42534W        W 9602   5.909   0.828  10.575
42535W        W 9603  30.465  33.402  12.062
42536W        W 9604   8.826   2.956   0.967
42537W        W 9605   4.373  17.144  12.907
42538W        W 9606  14.687  12.331   3.788
42539W        W 9607  41.884  37.943  14.870
42540W        W 9608  37.351  39.355   2.345
42541W        W 9609   0.785  13.807   0.778
42542W        W 9610  16.282   2.306  12.075
42543W        W 9611  29.606  42.873   0.483
42544W        W 9612  43.397  12.235   2.383
42545W        W 9613  10.864  18.581   0.955
42546W        W 9614   9.207  39.540   3.803
42547W        W 9615  33.874  34.898  10.970
42548W        W 9616  14.261  29.098  11.393
42549W        W 9617   8.286  30.467  11.511
42550W        W 9618  13.258  38.539  12.568
42551W        W 9619  35.465  17.271   3.826
42552W        W 9620  10.147  28.644  11.427
42553W        W 9621  16.214  12.172   1.264
42554W        W 9622  30.438  28.111   2.842
42555W        W 9623  41.004  22.193  12.431
42556W        W 9624  36.866  44.943  14.788
42557W        W 9625  23.515  41.937   3.759
42558W        W 9626   1.854  14.826  12.946
42559W        W 9627  27.095  38.839   0.876
42560W        W 9628  43.383  30.442   2.870
42561W        W 9629  18.130  40.798  10.418
42562W        W 9630   5.741  27.099  11.386
42563W        W 9631  41.459  14.096   4.773
42564W        W 9632  35.051  33.515   4.115
42565W        W 9633  25.669  40.311  13.497
42566W        W 9634  37.968  36.417   4.622
42567W        W 9635  17.626  25.548  11.589
42568W        W 9636  40.308  43.384  12.087
42569W        W 9637  43.014   2.454  14.894
42570W        W 9638  36.843  32.617   4.304
42571W        W 9639  10.675  29.504  13.983
42572W        W 9640  43.978  25.470  10.903
42573W        W 9641  39.541  30.609   3.223
42574W        W 9642  21.087  30.943  10.528
42575W        W 9643  21.539  29.048   3.677
42576W        W 9644  30.016  20.213  14.883
42577W        W 9645  21.075  19.097   3.644
42578W        W 9646  28.163   4.748   2.273
42579W        W 9647  11.758  41.889   0.354
42580W        W 9648  29.475  39.035   2.248
42581W        W 9649  32.979  21.161  13.488
42582W        W 9650  28.660  24.230  13.043
42583W        W 9651  23.204  12.274   3.861
42584W        W 9652  32.570   0.287   4.255
42585W        W 9653  30.155  43.294   2.320
42586W        W 9654  37.987  40.879  14.452
42587W        W 9655   0.307  27.191  11.438
42588W        W 9656  13.141  27.641  12.504
42589W        W 9657  38.360  10.698  11.981
42590W        W 9658  44.450  31.084  14.967
42591W        W 9659  16.208   9.644  13.840
42592W        W 9660  18.734  34.538   0.782
42593W        W 9661  29.146  37.551   4.779
42594W        W 9662  35.887  34.516   1.804
42595W        W 9663  38.880  18.160   2.785
42596W        W 9664   7.725  23.049  11.414
42597W        W 9665  43.012  18.704  13.013
42598W        W 9666  22.603  11.742  14.918
42599W        W 9667  15.126  31.083   0.787
42600W        W 9668   5.225   8.834   3.253
42601W        W 9669   9.167  14.226  12.060
42602W        W 9670   2.325  36.454   5.256
42603W        W 9671  23.091  18.184  11.948
42604W        W 9672  15.686   3.362   3.332
42605W        W 9673  40.009  29.477  13.947
42606W        W 9674  40.922  13.197   4.677
42607W        W 9675   8.213  27.050   1.449
42608W        W 9676  33.598  19.751  12.023
42609W        W 9677  41.990  24.588   1.872
42610W        W 9678  19.544  26.037   1.272
42611W        W 9679  44.839  18.650  12.460
42612W        W 9680   6.694  34.534   4.199
42613W        W 9681  22.050  23.088   4.232
42614W        W 9682  41.399   2.954   3.803
42615W        W 9683  14.593   8.888   3.229
42616W        W 9684   9.778  25.630   3.199
42617W        W 9685  43.323  36.560   3.713
42618W        W 9686  40.454  40.995   0.885
42619W        W 9687  40.047  21.123  14.449
42620W        W 9688  37.379   7.177   4.720
42621W        W 9689  17.634  42.877  12.364
42622W        W 9690  27.050  15.170   4.127
42623W        W 9691  28.067  27.101  14.354
42624W        W 9692   2.806  16.627   1.773
42625W        W 9693  33.938  21.547  12.372
42626W        W 9694  26.998  39.502  11.876
42627W        W 9695  30.649  36.374  13.888
42628W        W 9696   8.841   0.881  10.122
42629W        W 9697  14.198  25.213   1.906
42630W        W 9698  23.092  28.042   2.704
42631W        W 9699  24.198  35.033  13.387
42632W        W 9700  36.966  25.120   2.664
42633W        W 9701  41.838  11.848  14.309
42634W        W 9702  30.001  41.816   3.333
42635W        W 9703  40.835  25.186  13.380
42636W        W 9704   8.721  15.644   2.365
42637W        W 9705  42.857   4.742   2.179
42638W        W 9706  37.068  36.382  14.967
42639W        W 9707  29.552   2.813  14.895
42640W        W 9708  30.506   5.756  10.473
42641W        W 9709  34.581  18.079   0.393
42642W        W 9710  32.527  33.521  14.002
42643W        W 9711  11.678  33.009   2.863
42644W        W 9712  16.293  31.588  14.904
42645W        W 9713  37.552  37.377  10.938
42646W        W 9714   1.838  34.073   2.865
42647W        W 9715   9.213  23.648   3.349
42648W        W 9716  17.179  29.070   2.877
42649W        W 9717  26.155  16.188   1.311
42650W        W 9718  29.472   7.822   0.864
42651W        W 9719  15.197  22.031   4.135
42652W        W 9720  29.634  42.292  13.477
42653W        W 9721  30.446  29.549   5.104
42654W        W 9722   5.932  41.343   4.191
42655W        W 9723   7.721  11.214   1.765
42656W        W 9724  31.588   0.363   0.409
42657W        W 9725  22.098  15.578   4.339
42658W        W 9726   0.931  12.830   1.716
42659W        W 9727   8.744  41.007  13.905
42660W        W 9728  39.996  19.566  13.946
42661W        W 9729   9.725  43.910   0.272
42662W        W 9730  16.605  16.689   3.265
42663W        W 9731   6.738  12.833  12.927
42664W        W 9732  40.437  22.153  14.999
42665W        W 9733   0.478   2.279  10.637
42666W        W 9734  17.152  24.011   1.834
42667W        W 9735  30.970   6.875   1.310
42668W        W 9736  20.748  37.914  14.284
42669W        W 9737  37.902  11.784   0.884
42670W        W 9738  26.083   7.885   1.890
42671W        W 9739  25.665  17.643   0.294
42672W        W 9740  43.464  36.481  11.506
42673W        W 9741  24.998  42.282   3.340
42674W        W 9742  16.135  36.949  14.396
42675W        W 9743   0.329  42.346   1.286
42676W        W 9744  25.584  36.093   1.451
42677W        W 9745  11.299   6.844   1.390
42678W        W 9746  38.952  44.415   0.779
42679W        W 9747  22.517   3.808   3.690
42680W        W 9748   9.746   4.225  12.087
42681W        W 9749  30.136  10.790  11.921
42682W        W 9750  28.001  29.445  12.516
42683W        W 9751  10.140   1.803  14.935
42684W        W 9752  31.446   9.344  12.370
42685W        W 9753  17.638  32.983  11.412
42686W        W 9754   4.410  23.564  11.457
42687W        W 9755  41.313   8.207  14.309
42688W        W 9756  17.652  22.687  12.896
42689W        W 9757  38.927  18.680   3.362
42690W        W 9758  34.592  23.997   3.724
42691W        W 9759   0.860   8.709  11.599
42692W        W 9760  39.968  11.305  10.445
42693W        W 9761  14.334  22.999  14.471
42694W        W 9762  23.542  16.646   2.321
42695W        W 9763  22.147  18.641  14.885
42696W        W 9764   5.754  12.342   4.123
42697W        W 9765  35.477  24.553  12.403
42698W        W 9766   9.667  13.790   4.774
42699W        W 9767  12.834  35.367  12.974
42700W        W 9768  39.421  35.868  11.378
42701W        W 9769  17.161  38.524  14.806
42702W        W 9770  44.422  32.973   2.396
42703W        W 9771   2.271  28.064  10.928
42704W        W 9772   6.210  34.565   3.343
42705W        W 9773  31.043  19.621   1.745
42706W        W 9774  34.462  30.075   0.795
42707W        W 9775  13.264  16.173   0.884
42708W        W 9776  33.495  44.297   1.919
42709W        W 9777  30.636  26.563   4.180
42710W        W 9778   3.374  41.941  13.053
42711W        W 9779  30.493   6.348   2.836
42712W        W 9780  18.063  18.664   4.288
42713W        W 9781  38.995  12.613  11.123
42714W        W 9782  11.698   9.359  13.459
42715W        W 9783  16.604   2.387  11.472
42716W        W 9784   7.751  30.138   4.765
42717W        W 9785  23.011  12.342  10.462
42718W        W 9786   0.312  40.023  14.368
42719W        W 9787  31.932   3.952  13.391
42720W        W 9788   2.786  10.851  14.806
42721W        W 9789  44.972  20.052  10.599
42722W        W 9790  26.000   7.791  12.568
42723W        W 9791  14.773   8.276  11.426
42724W        W 9792  36.865  17.613   2.208
42725W        W 9793   8.889   1.769  14.291
42726W        W 9794  14.727  10.216  13.343
42727W        W 9795  42.341   2.849   3.319
42728W        W 9796  25.963  13.129   1.213
42729W        W 9797   4.893  37.983   2.399
42730W        W 9798  15.216  19.127  11.930
42731W        W 9799  43.880  29.944   4.276
42732W        W 9800  38.822  14.757   2.758
42733W        W 9801  22.180  25.214  13.349
42734W        W 9802  22.579  20.566   0.443
42735W        W 9803  28.485   7.223  10.616
42736W        W 9804   3.880  17.175  14.766
42737W        W 9805  11.173  14.734  11.054
42738W        W 9806  42.309   1.866   2.360
42739W        W 9807  31.076  10.209  12.388
42740W        W 9808  10.846  34.515   0.872
42741W        W 9809  26.151  21.251  12.845
42742W        W 9810  18.789   0.759   3.192
42743W        W 9811   1.442  19.760   3.351
42744W        W 9812  25.664  25.662  13.425
42745W        W 9813   9.284  37.919   3.306
42746W        W 9814  18.621  13.627   2.187
42747W        W 9815  39.359  27.677  12.850
42748W        W 9816   7.754  33.991  12.412
42749W        W 9817  41.801   2.898  13.544
42750W        W 9818   2.302  38.552   0.447
42751W        W 9819  31.108  29.469   3.247
42752W        W 9820  38.998  14.303   5.160
42753W        W 9821  33.463  25.136   1.801
42754W        W 9822  39.024  30.038  10.421
42755W        W 9823  13.151  17.724  14.009
42756W        W 9824  18.051  14.106   4.652
42757W        W 9825  21.219   1.880   4.651
42758W        W 9826  16.224   5.404   3.284
42759W        W 9827  21.583  12.313   2.844
42760W        W 9828  39.409  35.358   1.935
42761W        W 9829  21.074  32.403   1.263
42762W        W 9830  26.692  41.956  13.457
42763W        W 9831   1.907  17.124  13.317
42764W        W 9832  19.575  36.842   3.629
42765W        W 9833  41.853   4.223  11.452
42766W        W 9834  43.369  20.189  14.396
42767W        W 9835  19.206  31.051   4.196
42768W        W 9836   1.945  43.858  11.990
42769W        W 9837  10.786  21.723  14.436
42770W        W 9838  22.240  34.462  14.430
42771W        W 9839  42.427  29.062   0.804
42772W        W 9840  15.098  27.474   4.321
42773W        W 9841  36.032  44.961  10.572
42774W        W 9842  25.058  18.158   3.834
42775W        W 9843  34.610  43.007  10.474
42776W        W 9844   6.792   2.299  14.885
42777W        W 9845   3.913  15.277   4.117
42778W        W 9846  26.490   7.213   4.656
42779W        W 9847  11.717  42.911   5.224
42780W        W 9848  19.601  31.565   1.226
42781W        W 9849  10.714  17.080   2.285
42782W        W 9850  19.127  34.928   2.776
42783W        W 9851  13.233  32.593  14.951
42784W        W 9852  27.450   0.260   3.383
42785W        W 9853  25.557   0.897   4.198
42786W        W 9854  33.546  36.437  14.957
42787W        W 9855  17.674  25.125  14.465
42788W        W 9856   2.789  39.029   2.734
42789W        W 9857  20.620  21.106   2.783
42790W        W 9858   2.891  39.370  14.967
42791W        W 9859  30.970  36.434   1.761
42792W        W 9860  24.994  36.581   0.937
42793W        W 9861   4.409  35.415   4.809
42794W        W 9862  39.373  26.618   3.663
42795W        W 9863  20.219  17.077   3.210
42796W        W 9864  44.927   8.771   3.645
42797W        W 9865  12.168  37.021  14.422
42798W        W 9866  26.672  33.074   4.334
42799W        W 9867   7.221  31.603  13.918
42800W        W 9868   4.780   7.363  13.868
42801W        W 9869  17.691  12.689   0.308
42802W        W 9870  15.161  37.368   0.892
42803W        W 9871  36.984  21.702  12.405
42804W        W 9872  18.749   1.465   1.406
42805W        W 9873  43.820  40.539  11.970
42806W        W 9874   2.320  10.292  13.505
42807W        W 9875   9.643   9.673   2.331
42808W        W 9876  21.135   4.789  10.581
42809W        W 9877  28.502  18.685  13.971
42810W        W 9878  28.014  36.032   2.819
42811W        W 9879  31.935   1.909  12.976
42812W        W 9880  25.196  11.324  12.053
42813W        W 9881  10.248  39.424  13.343
42814W        W 9882  16.117   9.274   0.277
42815W        W 9883  37.929  37.435  13.849
42816W        W 9884  12.832  14.310  14.507
42817W        W 9885  30.091   1.826  10.440
42818W        W 9886   0.410   4.773  13.403
42819W        W 9887  35.497  41.949   2.782
42820W        W 9888  28.549  40.030  12.553
42821W        W 9889  29.135  22.652   1.762
42822W        W 9890   2.461  36.377   2.319
42823W        W 9891  44.822  36.931  11.860
42824W        W 9892  14.223  24.535  13.347
42825W        W 9893   8.782  39.052   0.331
42826W        W 9894   8.877  21.575  13.946
42827W        W 9895  43.317  33.988   3.739
42828W        W 9896  28.565  31.933   0.257
42829W        W 9897  38.940  37.353  14.461
42830W        W 9898   9.358   5.712   4.339
42831W        W 9899  29.497   0.477  12.434
42832W        W 9900   4.862  19.285   2.747
42833W        W 9901  39.936  28.128  14.469
42834W        W 9902  19.612  39.813   3.201
42835W        W 9903   5.197   5.878  10.926
42836W        W 9904  41.530  18.144   4.127
42837W        W 9905   5.733  15.705  12.072
42838W        W 9906   3.298  21.536  12.860
42839W        W 9907  17.765  26.978  14.515
42840W        W 9908  27.626  12.700  13.464
42841W        W 9909  11.219   3.718   0.740
42842W        W 9910  17.205  18.775  12.991
42843W        W 9911  23.049  36.466  14.947
42844W        W 9912  22.715  18.719   0.312
42845W        W 9913  17.727  40.513   2.200
42846W        W 9914  12.787  42.956  10.593
42847W        W 9915  19.541  27.999   1.882
42848W        W 9916  10.189   0.989   0.412
42849W        W 9917   2.871  19.757  10.488
42850W        W 9918  16.282  16.195  14.453
42851W        W 9919  37.022  36.919  13.798
42852W        W 9920  34.525   4.842   3.218
42853W        W 9921  14.309  17.301  13.001
42854W        W 9922  12.746  24.593  14.429
42855W        W 9923  30.551   9.368  11.001
42856W        W 9924  29.467  36.401   0.398
42857W        W 9925  39.823   9.712   4.659
42858W        W 9926  20.062   9.385   0.838
42859W        W 9927  30.607   8.262  13.895
42860W        W 9928  27.646   9.861   1.377
42861W        W 9929  34.473  39.519   0.914
42862W        W 9930   5.702  30.036   4.340
42863W        W 9931  33.887  32.105   3.671
42864W        W 9932  38.074  29.067   1.244
42865W        W 9933  39.861  15.302   3.634
42866W        W 9934  31.561  32.473   2.211
42867W        W 9935  11.745  36.976  10.597
42868W        W 9936  14.326  44.467   3.309
42869W        W 9937  23.514  23.539   1.323
42870W        W 9938   2.888  34.879  10.419
42871W        W 9939   2.298  29.587   2.842
42872W        W 9940  41.017  19.064   1.703
42873W        W 9941  18.617  40.976  13.791
42874W        W 9942  38.051  36.085   0.901
42875W        W 9943  29.557  17.228   4.262
42876W        W 9944  20.661  35.440  14.941
42877W        W 9945  38.891   4.927  12.930
42878W        W 9946  26.601  31.548   0.457
42879W        W 9947  32.057  35.930  11.006
42880W        W 9948  43.506   9.366   1.722
42881W        W 9949   2.905  33.890   2.181
42882W        W 9950  37.918   6.882   3.766
42883W        W 9951  12.272  39.935  11.072
42884W        W 9952   2.953  31.956  10.430
42885W        W 9953  11.309  40.468   2.824
42886W        W 9954  13.639  44.308   0.912
42887W        W 9955   7.691  11.759   4.124
42888W        W 9956  28.523  16.628  14.461
42889W        W 9957  30.593  17.755  13.342
42890W        W 9958  43.384  44.386  13.369
42891W        W 9959  38.482  29.993   1.302
42892W        W 9960   8.224   6.796  14.359
42893W        W 9961  33.443  30.490  14.885
42894W        W 9962   4.815  28.098  14.992
42895W        W 9963  11.330   5.830  11.119
42896W        W 9964   3.813   9.814  11.997
42897W        W 9965  31.120  43.341   3.293
42898W        W 9966  33.004  23.181   4.830
42899W        W 9967  38.899  43.843  11.410
42900W        W 9968  14.632  12.177   1.858
42901W        W 9969  32.598  34.920   9.982
42902W        W 9970   4.921  17.118   2.255
42903W        W 9971  30.990  15.200  14.342
42904W        W 9972  11.714  20.638  11.946
42905W        W 9973   6.217  42.323  13.897
42906W        W 9974   0.801   0.944   4.134
42907W        W 9975  26.488  19.209   3.324
42908W        W 9976   3.286   3.731   3.640
42909W        W 9977   8.806  35.955  12.945
42910W        W 9978   6.327  26.953  13.042
42911W        W 9979  21.225  20.215   0.355
42912W        W 9980   1.911  36.024  14.774
42913W        W 9981   9.765  34.950  12.484
42914W        W 9982  40.986  27.581   1.231
42915W        W 9983  22.680  41.489   0.755
42916W        W 9984  25.156   7.739   0.820
42917W        W 9985  17.757  10.177  13.439
42918W        W 9986  38.529   5.433  13.529
42919W        W 9987   2.248  20.123   3.807
42920W        W 9988  41.925  32.007  13.406
42921W        W 9989   7.346  37.392   5.173
42922W        W 9990  19.210  26.146  10.947
42923W        W 9991  33.553   1.308   5.315
42924W        W 9992  12.824   2.757  10.958
42925W        W 9993   7.725   5.408   2.839
42926W        W 9994  33.550  35.109  11.466
42927W        W 9995  40.019  14.748   1.295
42928W        W 9996   6.719  41.850  14.342
42929W        W 9997  41.375  39.870  12.834
42930W        W 9998  16.195  39.908  12.935
42931W        W 9999  23.087   6.691  12.421
42932W        W10000  16.102   8.355  11.532
42933W        W10001  11.197   5.859  13.902
42934W        W10002  28.670  27.163  14.383
42935W        W10003  42.031  31.026  13.863
42936W        W10004  19.181  38.948   0.894
42937W        W10005   1.937   1.900   1.730
42938W        W10006  30.594   7.669   4.224
42939W        W10007  21.600  44.328  13.536
42940W        W10008  18.658  15.644  12.961
42941W        W10009  37.847  12.120  10.982
42942W        W10010  28.594  20.682   0.756
42943W        W10011  42.322  31.003   2.864
42944W        W10012   8.779  38.486  11.116
42945W        W10013  25.683  42.374   1.898
42946W        W10014   3.844  41.848  10.616
42947W        W10015  11.262  21.603  13.517
42948W        W10016  42.521  43.794  11.601
42949W        W10017   3.351  43.820   0.880
42950W        W10018   5.801  24.560  12.957
42951W        W10019  34.095  28.182   0.388
42952W        W10020  25.133  24.055   0.273
42953W        W10021  19.747  44.364   2.273
42954W        W10022  29.578  38.030  12.531
42955W        W10023  41.508  28.556  14.281
42956W        W10024  27.175  44.010  13.497
42957W        W10025  18.633   9.780  10.615
42958W        W10026   9.379  33.921  10.496
42959W        W10027   5.792   2.301   2.276
42960W        W10028   7.866  44.966  14.826
42961W        W10029  11.230  27.662  13.901
42962W        W10030  36.548  41.459   2.381
42963W        W10031  34.459  10.356   4.783
42964W        W10032  44.426  19.543   4.654
42965W        W10033  29.626  27.010   1.364
42966W        W10034  40.435  38.950  11.028
42967W        W10035   1.316  26.023   4.152
42968W        W10036   1.838   5.851   3.156
42969W        W10037  10.788  41.435  13.854
42970W        W10038   4.905  43.343   3.158
42971W        W10039  38.549  18.099  10.579
42972W        W10040  21.622   9.671   4.305
42973W        W10041  40.860  36.965  14.857
42974W        W10042  21.708   8.806  12.047
42975W        W10043  12.270  20.644  11.446
42976W        W10044   8.851  37.465   4.756
42977W        W10045  11.172  23.123  12.000
42978W        W10046   7.173  36.938   4.815
42979W        W10047  24.997  31.136  13.828
42980W        W10048  13.719   0.885   2.662
42981W        W10049  15.169  19.596   3.731
42982W        W10050  25.684  12.637  14.489
42983W        W10051   9.354   3.278  10.529
42984W        W10052  37.980   8.337   0.456
42985W        W10053   5.810  35.083  11.029
42986W        W10054  43.515  29.168   3.193
42987W        W10055   4.700  31.002   3.228
42988W        W10056   1.333  15.802  14.867
42989W        W10057  25.472  22.745  13.872
42990W        W10058  41.375  28.443   4.610
42991W        W10059   6.889  32.052   1.333
42992W        W10060   1.261  14.096  13.917
42993W        W10061  42.335  19.133  14.942
42994W        W10062   8.831  14.179  10.549
42995W        W10063  27.047  19.101   3.705
42996W        W10064  27.157  10.319   4.329
42997W        W10065  25.055  24.027   4.788
42998W        W10066   1.341   2.963  12.516
42999W        W10067   3.840  42.325   0.247
43000W        W10068  36.589  37.933   4.192
43001W        W10069  12.258  23.534   0.865
43002W        W10070  23.706  17.640  14.929
43003W        W10071  13.731  37.995  12.370
43004W        W10072  43.895  36.490   2.399
43005W        W10073  23.107  17.168  12.882
43006W        W10074  39.990   8.168  13.447
43007W        W10075   7.695   1.944   5.316
43008W        W10076  21.106  11.202  10.632
43009W        W10077  19.685  40.938  10.547
43010W        W10078   5.235   3.711   1.898
43011W        W10079   1.905  10.190   4.334
43012W        W10080  44.424  34.059   0.338
43013W        W10081  35.067  31.067  12.418
43014W        W10082  25.555  33.388   1.715
43015W        W10083  34.568  30.612   4.164
43016W        W10084   4.806  38.064   1.860
43017W        W10085   4.787   9.152   2.711
43018W        W10086  33.036   9.358   2.880
43019W        W10087  25.489  43.882  11.010
43020W        W10088  37.578  11.775   1.842
43021W        W10089  25.000  32.547   4.680
43022W        W10090  25.976  36.954   1.327
43023W        W10091   5.255  26.009   0.434
43024W        W10092   5.824  24.584   1.417
43025W        W10093  14.249  26.664   1.815
43026W        W10094  29.129  35.575  12.390
43027W        W10095  39.452  23.700   1.848
43028W        W10096  11.639   1.759  11.060
43029W        W10097  43.486   2.443  11.913
43030W        W10098   7.752  34.490  12.532
43031W        W10099  36.094  44.867   2.210
43032W        W10100  34.478  36.372   1.280
43033W        W10101  44.857  22.019   4.282
43034W        W10102  17.240  24.205  12.922
43035W        W10103  39.886  24.559  13.313
43036W        W10104  38.970  15.708  12.958
43037W        W10105  39.966  24.590   2.409
43038W        W10106  17.230  41.804   0.335
43039W        W10107  35.086  19.716  10.104
43040W        W10108  13.324  20.126   4.297
43041W        W10109  39.933   8.337   2.332
43042W        W10110  38.349   7.374   3.321
43043W        W10111  40.039  34.493  13.820
43044W        W10112   1.779   5.780  13.859
43045W        W10113  41.012  34.375  12.049
43046W        W10114  30.080  35.086  12.877
43047W        W10115  12.857  19.272   4.316
43048W        W10116  40.428  11.349  14.977
43049W        W10117  21.024   3.775  10.966
43050W        W10118  12.157  33.402  11.971
43051W        W10119  32.072  31.561   3.768
43052W        W10120  44.437  11.727   3.156
43053W        W10121  20.582  32.026   3.319
43054W        W10122  29.948  28.597  13.882
43055W        W10123   9.836  23.005  13.521
43056W        W10124   6.894  39.034  13.478
43057W        W10125  35.515  34.493   4.679
43058W        W10126  34.896  17.675  14.878
43059W        W10127  28.166  17.079  14.899
43060W        W10128  10.802  42.896   3.752
43061W        W10129  33.492  29.987  12.347
43062W        W10130  39.350  25.119   0.391
43063W        W10131  15.679  22.502   0.945
43064W        W10132  17.729   7.417  10.053
43065W        W10133  43.291  21.734  12.869
43066W        W10134  11.311   4.385  13.791
43067W        W10135  42.355  13.812   2.861
43068W        W10136  21.681  21.541   1.404
43069W        W10137  43.904  17.718  11.504
43070W        W10138  38.846  29.528   4.195
43071W        W10139   8.867  26.002  12.500
43072W        W10140  34.986  33.484   1.838
43073W        W10141  27.069  32.582   4.311
43074W        W10142  17.227  25.119  10.102
43075W        W10143   8.876  17.212   1.878
43076W        W10144  31.482  31.509   0.340
43077W        W10145   6.779   1.329   4.216
43078W        W10146   6.802   6.889  10.953
43079W        W10147  41.943  29.932  10.438
43080W        W10148   1.258  38.923   4.751
43081W        W10149  15.289  19.051  14.348
43082W        W10150  12.762  29.148   3.868
43083W        W10151  35.404  12.244  12.839
43084W        W10152  25.153   2.863  12.349
43085W        W10153  30.012  19.687  14.763
43086W        W10154  17.561  38.878  13.825
43087W        W10155   9.647  32.613  12.541
43088W        W10156  22.572  14.289  14.438
43089W        W10157  14.107  18.059   1.889
43090W        W10158  25.562  19.643   0.295
43091W        W10159  22.089  14.203  14.489
43092W        W10160  17.112  37.862  14.499
43093W        W10161  28.951  20.168  10.920
43094W        W10162  22.537   4.395  12.094
43095W        W10163   8.234  25.161   3.699
43096W        W10164  30.037  18.255   1.837
43097W        W10165  20.558  16.172   0.940
43098W        W10166  11.761   4.814  11.403
43099W        W10167  22.548  42.802  11.889
43100W        W10168   8.806  21.721   2.368
43101W        W10169  26.620   5.861  13.977
43102W        W10170   2.420   6.880   3.718
43103W        W10171  38.377   0.480   0.345
43104W        W10172  19.238  36.571  14.957
43105W        W10173   8.676  41.292  12.459
43106W        W10174   0.855  37.509  13.430
43107W        W10175  11.270   8.679  13.878
43108W        W10176  27.446  24.678  10.551
43109W        W10177  13.161  40.924   3.197
43110W        W10178  44.884  32.979  13.336
43111W        W10179  41.393  36.925   3.315
43112W        W10180  41.847   3.217   1.299
43113W        W10181  31.127  16.280   3.164
43114W        W10182  18.624  27.454   1.908
43115W        W10183  17.294  37.392  11.518
43116W        W10184  37.056  40.868   3.191
43117W        W10185  38.874  35.447   5.142
43118W        W10186   6.691  34.404  14.288
43119W        W10187   1.739  38.447  10.445
43120W        W10188  39.874  27.521   0.400
43121W        W10189  14.120  25.209  12.471
43122W        W10190  39.948  22.687   0.251
43123W        W10191  23.637  31.003  12.932
43124W        W10192  29.648  34.535   3.369
43125W        W10193  26.575  37.944   0.781
43126W        W10194  20.074  43.319  13.815
43127W        W10195  42.441  33.546   4.774
43128W        W10196  43.404  36.458   2.831
43129W        W10197   8.328  43.883  12.574
43130W        W10198  33.479  15.762  10.071
43131W        W10199   2.438  24.724  14.821
43132W        W10200  12.274  40.454   3.266
43133W        W10201  41.364  26.524  12.834
43134W        W10202  30.422   8.819  14.791
43135W        W10203  11.208  20.533   1.277
43136W        W10204  40.316  24.606   0.947
43137W        W10205  15.613  19.205   3.770
43138W        W10206  14.733  38.335  14.421
43139W        W10207  32.127  12.775   2.181
43140W        W10208  32.922  19.634   4.708
43141W        W10209  23.003  39.956   4.189
43142W        W10210  44.907   6.835   3.380
43143W        W10211  31.602  30.915  11.455
43144W        W10212   8.312  27.967  12.940
43145W        W10213  22.117   1.949  13.059
43146W        W10214   9.683  12.620   0.383
43147W        W10215   3.799  22.624  10.497
43148W        W10216  44.847  33.453  12.969
43149W        W10217   2.748  37.975   0.811
43150W        W10218  42.324  10.771   0.765
43151W        W10219  38.557  35.473  13.848
43152W        W10220   8.739  31.134   2.221
43153W        W10221  29.464  30.567  10.017
43154W        W10222  43.363  40.485  13.818
43155W        W10223  43.404  36.415  13.363
43156W        W10224   8.811  37.048  12.970
43157W        W10225  43.327  18.142  10.936
43158W        W10226  11.316   6.776  14.943
43159W        W10227   5.693  20.535  10.559
43160W        W10228  12.130  14.159  12.391
43161W        W10229  34.066  13.731   4.114
43162W        W10230  10.190   0.393  12.405
43163W        W10231  22.557   3.803   3.320
43164W        W10232  24.176  44.261  14.293
43165W        W10233  39.471  37.352  13.470
43166W        W10234   4.387  13.245  14.510
43167W        W10235  16.080  42.803   1.370
43168W        W10236  32.545   8.764   3.200
43169W        W10237  14.629  32.984   2.680
43170W        W10238  32.604  17.215  12.342
43171W        W10239   9.875  24.204  12.339
43172W        W10240  10.175  41.367  14.440
43173W        W10241   7.285  12.326   1.437
43174W        W10242  31.404  21.251  13.844
43175W        W10243  37.840  14.685   2.365
43176W        W10244  43.445  14.266   1.829
43177W        W10245  29.128  40.017   1.371
43178W        W10246   1.742   2.372  13.378
43179W        W10247  44.488  28.665   4.812
43180W        W10248  35.903   4.817  10.627
43181W        W10249   1.972  36.937  12.459
43182W        W10250  39.338  15.643  10.937
43183W        W10251  10.680  28.673  11.931
43184W        W10252   2.948  32.956  14.359
43185W        W10253   1.359  34.524  14.767
43186W        W10254   8.160  20.737  14.497
43187W        W10255  25.639   1.867  14.871
43188W        W10256   4.941  19.629  13.807
43189W        W10257  25.081  43.425   3.175
43190W        W10258  24.207  43.288  12.094
43191W        W10259  40.312  13.108   5.265
43192W        W10260  11.747  34.898   4.824
43193W        W10261  35.428  15.584   0.832
43194W        W10262  44.298  23.726   0.849
43195W        W10263  13.610  32.940  14.989
43196W        W10264  14.660  13.237  11.927
43197W        W10265  26.539  33.412  12.443
43198W        W10266  25.099  35.513   1.384
43199W        W10267  35.581  16.572  11.562
43200W        W10268  38.028  15.329   3.203
43201W        W10269  17.093   6.792   0.317
43202W        W10270  20.560  25.180   3.630
43203W        W10271  38.394   1.927   2.858
43204W        W10272   9.788  27.125  13.462
43205W        W10273  44.433  44.837   4.794
43206W        W10274   5.317  33.007  13.526
43207W        W10275  40.403   6.234   1.219
43208W        W10276  30.982  29.524   1.781
43209W        W10277  33.422  17.638  10.423
43210W        W10278  15.672  33.436   3.320
43211W        W10279  20.639  14.128   3.700
43212W        W10280  10.186  21.098  12.907
43213W        W10281   0.295  14.326   0.949
43214W        W10282   0.854  11.840   3.810
43215W        W10283  31.139  30.581  12.012
43216W        W10284  23.519  21.126  12.029
43217W        W10285   8.354  37.386  13.461
43218W        W10286  21.526  17.110  10.086
43219W        W10287  23.498   0.906   2.305
43220W        W10288  30.040  19.216  14.778
43221W        W10289  19.541  43.838   0.272
43222W        W10290   1.319   5.742   4.162
43223W        W10291  42.331  43.437  12.935
43224W        W10292   4.917  41.450  14.876
43225W        W10293  10.210  37.521   1.447
43226W        W10294  25.490  19.622   3.668
43227W        W10295  41.827  25.499  13.518
43228W        W10296  22.020  18.153   2.243
43229W        W10297  27.164  16.566   0.371
43230W        W10298   8.245  44.764   4.208
43231W        W10299  12.345   8.271  12.944
43232W        W10300  17.654  36.499   3.816
43233W        W10301  15.112  34.499  13.956
43234W        W10302  19.626   4.414   3.867
43235W        W10303  41.888   0.846   1.269
43236W        W10304   9.673   7.204  13.404
43237W        W10305  13.324  43.448   3.829
43238W        W10306  29.610   8.174  14.441
43239W        W10307  19.221  43.270  11.431
43240W        W10308  13.276  28.978   4.707
43241W        W10309  31.070  11.835  14.412
43242W        W10310  42.436  23.703  10.435
43243W        W10311  12.302  31.957  10.635
43244W        W10312  40.909  13.337   0.855
43245W        W10313   8.788  37.365   0.468
43246W        W10314  30.942  38.073  14.794
43247W        W10315   2.321  15.095   3.355
43248W        W10316  13.330  20.046   2.415
43249W        W10317  20.071  37.533  12.517
43250W        W10318   1.758  38.569  13.958
43251W        W10319  20.070   2.754   3.635
43252W        W10320  14.788  13.682   2.877
43253W        W10321  20.640  31.916   1.894
43254W        W10322  35.366  23.985   3.771
43255W        W10323  14.609  36.926  10.404
43256W        W10324  27.504  41.921  12.942
43257W        W10325  37.921   8.234  12.827
43258W        W10326   2.236  36.037   0.312
43259W        W10327  33.490  11.262  10.412
43260W        W10328   7.253   6.399  12.501
43261W        W10329  36.038  39.899  11.597
43262W        W10330  42.934  25.051   3.304
43263W        W10331  38.058   2.232   4.676
43264W        W10332  23.183  13.668  10.530
43265W        W10333  38.510  41.845   4.617
43266W        W10334  41.876   9.221   2.371
43267W        W10335   6.212  38.050   4.836
43268W        W10336  37.946  20.109   3.703
43269W        W10337  39.951  44.478   3.371
43270W        W10338   3.384   3.423  12.462
43271W        W10339  35.500   5.236   2.292
43272W        W10340  44.310   8.665   2.364
43273W        W10341  21.073   6.910   3.269
43274W        W10342  34.408  14.638  12.929
43275W        W10343  26.198  12.289  13.964
43276W        W10344   9.305  30.065  10.591
43277W        W10345  21.253   6.378  10.938
43278W        W10346   9.859  25.499  10.922
43279W        W10347   6.793  33.009   3.357
43280W        W10348  15.320  22.144  13.477
43281W        W10349  36.096  15.170  10.920
43282W        W10350   2.326  43.816  11.551
43283W        W10351  12.203   9.392   2.897
43284W        W10352  10.668  25.552  10.619
43285W        W10353   9.685   2.243   0.799
43286W        W10354  35.888   3.954   1.786
43287W        W10355  17.568  43.855   1.716
43288W        W10356  39.434  27.615   2.239
43289W        W10357  43.986  14.758  12.425
43290W        W10358  39.445   3.443   3.785
43291W        W10359  14.291  33.964   4.204
43292W        W10360  24.142  33.024   3.159
43293W        W10361  43.824  13.204   1.275
43294W        W10362  14.820  33.547   2.664
43295W        W10363  37.069  39.973   4.166
43296W        W10364   4.766  36.352  11.964
43297W        W10365  33.500   6.778  14.981
43298W        W10366   6.677  25.563   3.661
43299W        W10367   4.742  26.051   5.155
43300W        W10368  35.055  35.571  14.943
43301W        W10369  20.263  35.035  10.939
43302W        W10370  13.141  16.608   0.791
43303W        W10371  23.992   0.829   3.745
43304W        W10372   2.412  31.024   1.810
43305W        W10373   0.464  33.587  14.299
43306W        W10374  17.228  14.306   0.479
43307W        W10375  13.143   1.278  10.046
43308W        W10376  27.005  16.192   0.360
43309W        W10377  29.612  25.143   2.902
43310W        W10378   8.831  10.648   0.801
43311W        W10379  36.568  37.856   2.752
43312W        W10380  19.242  14.276   4.710
43313W        W10381   6.732  20.525   4.755
43314W        W10382  29.433  34.928  13.438
43315W        W10383  13.160   0.436  14.287
43316W        W10384  26.137  18.152   3.283
43317W        W10385  29.960  13.631   0.432
43318W        W10386  40.488  14.592  13.367
43319W        W10387   1.376  11.744   0.370
43320W        W10388  30.081  36.931   3.253
43321W        W10389  10.147  27.490   2.297
43322W        W10390  13.688  15.285  11.101
43323W        W10391  22.060   1.291  12.855
43324W        W10392  31.144  39.483  10.504
43325W        W10393   2.346  33.068   9.529
43326W        W10394  41.453  14.146   2.382
43327W        W10395  14.139  32.496   2.714
43328W        W10396   8.206   5.372  12.342
43329W        W10397  14.714  15.760  12.455
43330W        W10398  12.743  11.822  12.947
43331W        W10399   6.833  30.586  13.873
43332W        W10400   8.231  26.611   1.770
43333W        W10401  21.224  40.437   2.902
43334W        W10402   3.299   1.807   0.860
43335W        W10403  43.792  22.663  10.498
43336W        W10404  30.036  33.025   5.731
43337W        W10405   8.812  28.007  14.970
43338W        W10406   0.256   3.431   3.248
43339W        W10407  26.461  13.144   1.922
43340W        W10408  30.571  15.719  11.534
43341W        W10409   6.293   3.880  14.854
43342W        W10410  14.790   4.879   0.292
43343W        W10411  18.122  17.168  10.525
43344W        W10412  11.183   5.439  11.902
43345W        W10413  13.619  25.997  11.904
43346W        W10414  21.678  39.956  14.494
43347W        W10415   1.346  15.143   0.332
43348W        W10416  36.401  14.118   2.873
43349W        W10417   7.693  16.700   2.374
43350W        W10418  37.422   9.159  13.432
43351W        W10419  41.458  35.913  13.908
43352W        W10420  23.572  42.521   3.757
43353W        W10421  12.180   3.412  13.463
43354W        W10422   0.749  35.911   1.330
43355W        W10423  20.210  27.554   2.263
43356W        W10424  26.997   7.384  10.533
43357W        W10425  30.504  33.125   3.150
43358W        W10426   9.661   9.307   0.356
43359W        W10427  15.711  16.188  11.493
43360W        W10428  28.087   7.234   3.760
43361W        W10429  42.807  36.348  11.880
43362W        W10430  26.662  17.614  14.857
43363W        W10431   0.472  23.145  14.874
43364W        W10432  17.744  27.481   5.086
43365W        W10433  34.575  24.056  13.536
43366W        W10434  23.489   2.394   0.794
43367W        W10435  40.383  14.338  13.853
43368W        W10436  11.358  43.987  13.892
43369W        W10437  25.528  33.424  14.475
43370W        W10438   0.744  44.816  13.961
43371W        W10439  28.473  27.555  13.880
43372W        W10440   8.657  18.158   2.841
43373W        W10441  30.977  14.702   0.391
43374W        W10442  41.025   5.283   1.806
43375W        W10443  10.782  20.081   2.404
43376W        W10444  28.505   9.723  11.943
43377W        W10445  13.308  43.827   4.636
43378W        W10446   1.246  17.306   3.718
43379W        W10447  14.664   9.255   1.273
43380W        W10448  31.497  16.726  13.807
43381W        W10449  11.719  26.691  12.026
43382W        W10450  18.667  16.170   4.712
43383W        W10451  36.350   3.328  12.413
43384W        W10452  23.497  10.180  13.881
43385W        W10453  26.588   3.267   2.306
43386W        W10454  27.144  11.635  10.515
43387W        W10455  39.962  24.231  14.799
43388W        W10456  35.981  24.523  14.768
43389W        W10457  23.648  23.525  11.928
43390W        W10458  31.981  42.979   2.335
43391W        W10459   9.773  23.640  11.497
43392W        W10460   6.321  44.001  14.398
43393W        W10461  10.675  19.156  11.931
43394W        W10462  33.975   5.433   0.339
43395W        W10463  37.041  16.691   4.680
43396W        W10464  44.912  19.120  13.501
43397W        W10465  31.617   4.942   0.941
43398W        W10466  28.530  31.028  13.360
43399W        W10467  18.604  14.228   2.761
43400W        W10468   3.812  17.682  13.431
43401W        W10469   5.781  36.581  13.812
43402W        W10470   8.794  29.937   1.889
43403W        W10471  28.465  30.638  14.486
43404W        W10472   8.798  17.164   2.759
43405W        W10473  31.527  18.163   0.857
43406W        W10474   4.365   2.753   2.793
43407W        W10475  19.642  42.325   1.367
43408W        W10476   7.684  39.987  14.294
43409W        W10477  15.797  38.499  11.603
43410W        W10478   0.942  27.458   2.823
43411W        W10479   5.409  15.744  10.574
43412W        W10480   3.243  44.978  10.991
43413W        W10481  41.830  26.020  14.370
43414W        W10482   8.405  44.299   3.384
43415W        W10483  13.698  20.229  10.551
43416W        W10484   5.837   6.824   2.694
43417W        W10485  41.904  38.355  11.437
43418W        W10486   0.407  44.001   0.888
43419W        W10487  22.120  13.129   2.887
43420W        W10488   3.356  42.964   4.317
43421W        W10489  34.868   3.936  11.500
43422W        W10490  29.450  38.898   5.271
43423W        W10491  32.989  11.655  13.913
43424W        W10492  31.962  43.010  12.431
43425W        W10493   5.416  22.014  11.855
43426W        W10494   9.716  27.579   2.313
43427W        W10495  36.407  28.545   1.355
43428W        W10496  35.915  26.017   0.293
43429W        W10497   7.190  29.492   3.851
43430W        W10498  34.455  16.668   3.738
43431W        W10499  31.406  23.047   4.180
43432W        W10500  12.196   0.443   1.334
43433W        W10501   4.799  36.848   4.222
43434W        W10502  25.167   2.335   3.687
43435W        W10503  25.685   4.324  13.469
43436W        W10504  36.421  34.504  14.984
43437W        W10505   8.714  43.831   3.788
43438W        W10506  19.774  44.840   4.781
43439W        W10507  29.160  23.718  14.817
43440W        W10508  37.987  21.607   3.841
43441W        W10509   5.339  23.134   4.141
43442W        W10510  24.705  15.745  13.809
43443W        W10511  36.548  15.792   1.733
43444W        W10512  20.112  33.386  13.339
43445W        W10513  43.834  19.766   2.253
43446W        W10514   9.260   2.447   4.601
43447W        W10515   0.864  29.033   0.841
43448W        W10516  24.041  14.315  11.422
43449W        W10517  18.095  12.679  10.486
43450W        W10518  18.617   6.839   3.818
43451W        W10519  44.980  39.369  13.827
43452W        W10520  13.662  33.437   0.318
43453W        W10521  38.486  37.010  13.990
43454W        W10522  31.433  10.718  11.381
43455W        W10523  12.128  37.830  13.874
43456W        W10524  23.006  44.959   2.732
43457W        W10525  16.592  17.799  12.360
43458W        W10526  37.394  43.339  12.918
43459W        W10527  31.015  20.637  13.365
43460W        W10528  40.430   0.310  14.030
43461W        W10529  23.205   3.942  13.418
43462W        W10530  33.625  18.550   2.193
43463W        W10531  36.011  39.907   3.706
43464W        W10532  15.292  44.889   2.875
43465W        W10533  23.987  36.517  13.429
43466W        W10534  38.325  33.428   4.249
43467W        W10535  19.227   6.227  12.969
43468W        W10536  39.826  13.722   1.334
43469W        W10537  27.990  32.452  10.998
43470W        W10538   3.342  38.373   3.322
43471W        W10539  20.566  30.428  12.925
43472W        W10540  39.941  17.115  11.005
43473W        W10541  21.523   7.873  14.473
43474W        W10542   7.889  40.332  12.877
43475W        W10543  30.027  17.201  11.042
43476W        W10544   9.871  43.419  12.962
43477W        W10545  11.852  14.234   3.175
43478W        W10546  20.202  36.584  11.066
43479W        W10547   5.847  15.641   4.182
43480W        W10548  14.724   4.426  12.947
43481W        W10549  35.068  10.277  13.517
43482W        W10550  20.606   4.233  12.948
43483W        W10551  24.091  22.535   0.326
43484W        W10552  38.988  30.599   4.169
43485W        W10553  42.499  33.984  14.904
43486W        W10554   9.701   4.942  12.545
43487W        W10555  25.123  44.902  12.899
43488W        W10556  33.950  29.974  11.491
43489W        W10557  19.233  36.426  14.001
43490W        W10558  32.577  38.862   1.708
43491W        W10559   1.848  28.937   3.233
43492W        W10560  20.249  36.579  12.473
43493W        W10561  32.061  35.978   1.317
43494W        W10562  40.933  35.857  11.603
43495W        W10563   8.721   0.379   2.696
43496W        W10564  18.227  21.259   3.343
43497W        W10565  18.114  39.938   2.862
43498W        W10566  22.623  22.072   0.249
43499W        W10567   5.867  24.519   1.919
43500W        W10568  30.048  42.977   3.818
43501W        W10569  35.087  43.283   1.785
43502W        W10570  28.156  26.587  10.442
43503W        W10571  26.659  20.193   0.798
43504W        W10572  14.258   4.874   0.358
43505W        W10573  13.297  16.690  12.430
43506W        W10574  11.800   0.889  14.472
43507W        W10575  27.025  26.588   1.808
43508W        W10576   1.364  38.412   2.234
43509W        W10577  32.424  32.133   4.283
43510W        W10578  40.376  20.617  13.954
43511W        W10579   2.757  30.933   4.222
43512W        W10580  42.838  37.058   0.271
43513W        W10581  44.849  30.478  12.401
43514W        W10582  43.311   2.360  14.438
43515W        W10583   0.963  29.101   2.716
43516W        W10584  21.516  21.733  14.904
43517W        W10585   3.712   9.319   3.372
43518W        W10586  38.859  36.450   0.298
43519W        W10587  34.090  34.511   2.342
43520W        W10588  21.697  16.710   0.732
43521W        W10589  20.249  34.994  13.416
43522W        W10590  23.629  42.318  14.309
43523W        W10591  39.472  30.630  14.495
43524W        W10592  32.961   6.917  12.407
43525W        W10593  16.636  25.078  13.469
43526W        W10594  13.298  43.422   2.354
43527W        W10595  26.641  24.222  11.948
43528W        W10596  23.605  34.592   4.229
43529W        W10597   8.670   6.782  13.946
43530W        W10598   2.423  41.503  11.423
43531W        W10599   2.292   4.225   2.810
43532W        W10600  30.990   1.303   3.307
43533W        W10601   3.321  27.103  11.565
43534W        W10602  22.667  40.486  13.042
43535W        W10603  28.970   5.750  13.906
43536W        W10604  21.529   5.426  10.472
43537W        W10605  15.122  15.668   1.232
43538W        W10606   2.258  38.528  12.882
43539W        W10607  38.336  26.550  10.531
43540W        W10608   4.422  14.228  11.938
43541W        W10609  39.315  27.152  13.446
43542W        W10610  33.093  26.033  12.029
43543W        W10611  37.555   3.714   4.260
43544W        W10612  25.018  13.333   0.470
43545W        W10613   2.426  12.214   2.416
43546W        W10614  11.285  28.021  13.921
43547W        W10615   3.304   0.373  14.963
43548W        W10616  33.991  39.373   3.360
43549W        W10617  43.487  12.135  11.912
43550W        W10618  33.407  11.321   1.444
43551W        W10619   8.386  26.604   0.824
43552W        W10620   6.911  19.130   0.817
43553W        W10621  33.467   8.317   1.892
43554W        W10622   9.869  31.520   4.758
43555W        W10623  36.383  23.582  13.798
43556W        W10624  22.029  12.690  11.420
43557W        W10625   4.790  17.164  14.460
43558W        W10626  14.781   2.847  13.805
43559W        W10627  41.324  18.564   3.632
43560W        W10628  34.104  21.610  13.461
43561W        W10629  28.678  26.143   1.893
43562W        W10630  40.542  27.040  11.918
43563W        W10631  23.667  17.094   3.788
43564W        W10632   7.768  20.040  11.901
43565W        W10633  13.200  41.307   4.810
43566W        W10634  13.160  11.152   1.438
43567W        W10635  39.548   9.673  14.006
43568W        W10636  34.109  44.285  11.549
43569W        W10637  30.537   7.767  11.029
43570W        W10638  39.872   7.683  13.444
43571W        W10639   8.677  24.503  13.392
43572W        W10640  14.123   6.872  13.324
43573W        W10641  20.042  12.819  11.927
43574W        W10642   7.902  25.162   3.776
43575W        W10643  29.139  31.488  12.037
43576W        W10644  44.975  40.395  10.615
43577W        W10645  29.529   9.319   2.898
43578W        W10646  36.908   1.969   1.760
43579W        W10647   5.781  44.791   4.153
43580W        W10648  36.030   4.852  11.444
43581W        W10649   3.216  34.968   1.420
43582W        W10650   2.813  30.123   3.670
43583W        W10651  19.770  38.463   0.751
43584W        W10652  30.045   0.954  14.475
43585W        W10653   1.245  44.878  12.085
43586W        W10654  16.790  41.403  14.508
43587W        W10655  40.432  28.646   4.762
43588W        W10656   9.355  39.892  14.469
43589W        W10657  33.532   4.321  10.140
43590W        W10658  13.654  13.731  13.410
43591W        W10659  12.779  38.465   2.346
43592W        W10660  26.145   5.925  10.548
43593W        W10661  40.885  32.510  10.997
43594W        W10662  35.009  30.158  11.599
43595W        W10663  17.766  20.762  14.387
43596W        W10664  19.678  22.163   1.726
43597W        W10665  23.729  32.959  13.871
43598W        W10666  26.966   0.964   3.789
43599W        W10667  18.621   9.746  12.980
43600W        W10668  22.549  24.204  14.778
43601W        W10669  14.747  21.537  10.026
43602W        W10670   3.765  12.676   1.849
43603W        W10671   1.792  10.795  12.841
43604W        W10672  39.889  30.939  11.561
43605W        W10673  20.761  25.532  12.034
43606W        W10674  37.902  15.157  12.370
43607W        W10675   1.461  17.628   0.382
43608W        W10676  15.282   9.169  14.301
43609W        W10677  26.957  27.038  12.011
43610W        W10678  23.164   5.254  12.948
43611W        W10679  12.329  32.932   2.883
43612W        W10680  35.967  38.057  10.945
43613W        W10681  23.541  32.419  13.062
43614W        W10682  31.028   9.236  13.430
43615W        W10683  44.385  14.200   4.315
43616W        W10684  33.940  13.823   0.349
43617W        W10685  38.978  14.679  11.011
43618W        W10686  11.289  32.013   2.303
43619W        W10687  18.743   8.365  11.942
43620W        W10688   4.791  22.675   1.793
43621W        W10689  43.936  33.971  11.088
43622W        W10690  31.610  19.564  14.489
43623W        W10691  23.555  31.102   2.200
43624W        W10692  35.904  19.552   2.185
43625W        W10693  16.243  24.166  11.540
43626W        W10694  27.951  13.312   3.247
43627W        W10695  31.420  21.090   2.228
43628W        W10696  29.657   7.876  13.369
43629W        W10697  15.752  24.619  14.769
43630W        W10698  21.074  11.865  10.488
43631W        W10699  41.883   7.417   1.403
43632W        W10700  42.440  12.674   0.349
43633W        W10701   8.840  36.938   0.960
43634W        W10702  10.279  18.098  11.007
43635W        W10703  24.156  10.751   0.868
43636W        W10704   8.281  42.024   2.352
43637W        W10705  25.527  26.697  12.361
43638W        W10706  41.448  40.328   0.441
43639W        W10707  38.394   4.331  14.326
43640W        W10708  31.528  12.673   0.377
43641W        W10709  33.590  28.051  10.541
43642W        W10710  18.668   6.776   0.895
43643W        W10711  25.700  22.023   3.637
43644W        W10712   3.460  41.004  11.086
43645W        W10713  26.595   1.359   1.706
43646W        W10714  24.523   2.803   2.291
43647W        W10715  23.519  18.163   0.470
43648W        W10716  41.474  23.197  13.793
43649W        W10717  10.176   9.780  14.008
43650W        W10718   3.453  32.604  11.504
43651W        W10719  20.253  18.565   1.328
43652W        W10720  11.793  14.142  10.909
43653W        W10721   5.864  17.191   2.215
43654W        W10722  11.629   4.290   9.979
43655W        W10723  43.380  38.441  12.908
43656W        W10724  17.798  13.621   0.735
43657W        W10725   6.318  10.714  10.427
43658W        W10726  36.017  40.814   4.183
43659W        W10727  11.326   0.396  13.423
43660W        W10728  12.226  22.541  14.961
43661W        W10729  29.452  16.810  13.399
43662W        W10730  40.804   5.834   0.892
43663W        W10731   9.298  34.465  10.509
43664W        W10732   4.366  33.384   3.816
43665W        W10733  22.693  15.220  11.982
43666W        W10734  33.078  11.759   2.347
43667W        W10735  26.685  19.600   1.420
43668W        W10736  41.853   0.922  12.065
43669W        W10737   6.363  36.518   0.280
43670W        W10738  29.086   9.805  10.568
43671W        W10739  34.377  33.554   2.413
43672W        W10740   8.338   5.303  14.922
43673W        W10741  34.384  42.837  14.290
43674W        W10742  26.600   3.899  12.931
43675W        W10743  23.671  40.957  10.485
43676W        W10744   8.727  19.213   0.407
43677W        W10745   0.788  28.972  11.992
43678W        W10746  22.015  40.029  11.928
43679W        W10747   4.414   3.890   2.749
43680W        W10748   4.861  21.084  14.448
43681W        W10749  13.341  13.246  10.967
43682W        W10750   7.260  32.005  11.411
43683W        W10751   7.684  10.769  12.043
43684W        W10752  17.750  40.988  14.355
43685W        W10753  29.624  38.549  13.920
43686W        W10754  32.133  20.739  10.541
43687W        W10755   5.366   2.942   0.815
43688W        W10756  26.644  32.612   0.742
43689W        W10757   8.813  29.965  14.991
43690W        W10758  40.847   2.290  13.504
43691W        W10759   8.195  39.809  14.783
43692W        W10760  14.176  32.581  13.395
43693W        W10761  43.388   9.343   1.365
43694W        W10762  38.023  29.520   2.268
43695W        W10763   0.868   3.422   3.776
43696W        W10764   4.241  23.560   1.869
43697W        W10765  44.919  19.627   2.256
43698W        W10766  22.527  34.117  11.860
43699W        W10767  42.382  18.739  14.378
43700W        W10768  32.025  39.888   1.420
43701W        W10769   7.345  10.672   1.793
43702W        W10770  20.758   5.841  13.396
43703W        W10771   0.948  28.625   3.771
43704W        W10772  13.224   3.374   3.340
43705W        W10773   3.763  27.626   2.788
43706W        W10774  10.657  39.871   0.361
43707W        W10775  16.291  21.058   2.349
43708W        W10776   3.344  37.994  12.572
43709W        W10777   1.919   9.295   0.903
43710W        W10778  15.284  27.973  13.530
43711W        W10779  11.370  39.526  13.866
43712W        W10780   8.718   2.772  10.643
43713W        W10781   8.692  21.726   4.633
43714W        W10782  28.525  32.630  13.016
43715W        W10783  33.501  15.639  14.413
43716W        W10784   3.317  42.399  13.415
43717W        W10785  41.966  34.998  12.908
43718W        W10786  27.196  43.813  11.922
43719W        W10787  26.043  22.696   4.312
43720W        W10788  37.024  23.052  12.415
43721W        W10789  13.152   2.768  10.410
43722W        W10790  11.350  23.658  11.003
43723W        W10791  34.884  24.051   1.297
43724W        W10792  16.229  44.952  11.041
43725W        W10793   9.257  23.074   4.769
43726W        W10794  35.069   5.730   2.898
43727W        W10795  23.122  30.041  13.468
43728W        W10796  38.994   8.303  12.400
43729W        W10797  41.948  43.438   4.340
43730W        W10798  12.676  43.003   2.766
43731W        W10799  29.503  35.422   9.530
43732W        W10800   7.330  44.886   4.324
43733W        W10801   9.177  13.696   4.244
43734W        W10802   7.842  42.985   3.844
43735W        W10803  22.015  25.628   1.746
43736W        W10804   9.753  43.402  12.444
43737W        W10805  39.836  11.789   4.239
43738W        W10806  41.470  36.412   0.731
43739W        W10807  11.193   0.339  14.897
43740W        W10808  36.860  14.722  13.991
43741W        W10809  29.967  41.501   0.452
43742W        W10810  26.004  32.406  14.013
43743W        W10811   7.825  30.943  14.915
43744W        W10812  41.959  10.380   0.956
43745W        W10813  18.550  29.649  14.873
43746W        W10814  31.612  42.362  13.047
43747W        W10815  38.035  21.675  10.980
43748W        W10816  14.312  27.615   1.248
43749W        W10817   1.390  19.054   3.262
43750W        W10818  42.419  37.550   4.785
43751W        W10819   9.653   9.300  13.926
43752W        W10820   3.805   1.913   0.452
43753W        W10821  28.146  37.538   4.715
43754W        W10822  18.779  26.702   2.695
43755W        W10823  18.790  34.983   4.667
43756W        W10824  40.322   2.239   3.640
43757W        W10825  40.982   2.319   1.407
43758W        W10826  10.310  33.421  13.036
43759W        W10827  44.874   9.394  14.846
43760W        W10828  37.398  18.139   2.255
43761W        W10829  27.071  16.082   2.861
43762W        W10830  32.481  40.316   2.243
43763W        W10831  41.923  13.647  14.895
43764W        W10832   3.371  28.556  11.009
43765W        W10833   7.349  20.221   1.846
43766W        W10834  43.856  41.842   0.454
43767W        W10835  41.926  40.329  11.907
43768W        W10836  44.312  31.148   0.411
43769W        W10837   4.875  10.146   4.267
43770W        W10838  44.826  15.611  11.029
43771W        W10839  37.559   0.428  12.546
43772W        W10840  26.961  35.449  12.872
43773W        W10841  19.282  41.874   3.363
43774W        W10842  28.534   5.408   4.741
43775W        W10843  41.464   8.372   2.300
43776W        W10844  29.093  24.028   2.395
43777W        W10845  32.051  28.630  11.062
43778W        W10846  43.290  21.676   0.935
43779W        W10847  41.005  16.240  10.990
43780W        W10848  33.433  27.573  11.546
43781W        W10849   7.204  39.338   3.638
43782W        W10850  17.717  26.530  14.314
43783W        W10851  20.031  13.247  10.941
43784W        W10852  10.662  21.652  10.452
43785W        W10853  43.920  29.168   2.418
43786W        W10854  41.804  35.599  11.071
43787W        W10855  35.871  43.429   3.281
43788W        W10856  11.802  28.587  14.878
43789W        W10857   8.273  21.587   1.244
43790W        W10858  16.666  16.188   3.765
43791W        W10859  12.831   1.429   2.380
43792W        W10860  21.599  41.523   4.213
43793W        W10861  36.430  20.068  12.922
43794W        W10862  20.696  40.526   1.316
43795W        W10863   5.868  42.962   1.809
43796W        W10864  14.250   5.415  12.090
43797W        W10865  31.550  34.465   2.260
43798W        W10866  44.967  31.981  14.780
43799W        W10867  36.933  42.509  12.858
43800W        W10868   7.307  13.135  13.384
43801W        W10869  36.439  43.431  12.558
43802W        W10870  34.951  17.157  10.607
43803W        W10871  42.312  10.707   0.473
43804W        W10872  30.062   1.373  13.975
43805W        W10873  30.030  32.907  10.924
43806W        W10874  31.113   0.787  14.801
43807W        W10875  24.160  12.856   1.769
43808W        W10876  25.061  39.375  11.425
43809W        W10877  16.222  22.179  12.549
43810W        W10878  26.571  19.181  13.867
43811W        W10879  10.649  17.185  12.987
43812W        W10880  44.357  28.093  14.859
43813W        W10881  10.352  12.646   2.729
43814W        W10882  29.926  36.863  12.839
43815W        W10883  18.634   4.770  12.074
43816W        W10884  39.033  21.616   0.460
43817W        W10885   8.713  12.129  14.925
43818W        W10886  12.305  26.541   4.627
43819W        W10887  14.318   4.305  14.833
43820W        W10888  42.469  17.120   2.385
43821W        W10889   2.751  23.730  12.405
43822W        W10890   1.772  34.410   0.801
43823W        W10891  44.364  16.697   3.301
43824W        W10892  26.615  44.470  14.357
43825W        W10893   4.862  28.634  14.858
43826W        W10894   7.671  30.969   1.881
43827W        W10895  31.415   4.361  12.989
43828W        W10896   6.409  37.437   5.106
43829W        W10897  21.138  36.550  12.349
43830W        W10898   4.702  20.091   0.786
43831W        W10899  16.607  26.101   0.266
43832W        W10900   7.731  22.740   3.704
43833W        W10901  11.777  31.933  13.542
43834W        W10902  21.577  25.533  13.064
43835W        W10903  28.032  34.610  12.039
43836W        W10904  12.650   0.856   2.859
43837W        W10905   2.937   7.911  11.099
43838W        W10906  37.499  34.929  13.432
43839W        W10907   3.951   4.352   3.692
43840W        W10908  30.128  16.282   5.269
43841W        W10909   7.257  28.179  13.508
43842W        W10910  34.562  26.019   0.252
43843W        W10911  32.463   9.768  10.547
43844W        W10912  26.034  37.998   1.228
43845W        W10913   7.765  42.848   1.293
43846W        W10914  20.696  26.656   3.320
43847W        W10915   3.940  33.955  10.548
43848W        W10916   1.355  36.542   1.332
43849W        W10917  39.492   8.352   0.876
43850W        W10918  29.043  21.758  10.970
43851W        W10919   1.745   0.274  11.400
43852W        W10920   0.388  25.522   1.427
43853W        W10921  14.812  33.465   3.209
43854W        W10922   6.699  40.405  10.546
43855W        W10923  15.326   7.224   2.195
43856W        W10924  43.432  12.668   5.168
43857W        W10925  34.404  22.713  13.420
43858W        W10926  28.009  12.647   1.806
43859W        W10927  21.708  17.702   3.660
43860W        W10928  13.201   6.867   0.346
43861W        W10929  40.901  38.011   0.365
43862W        W10930  17.752  10.664   2.824
43863W        W10931   7.175  11.146  14.770
43864W        W10932  10.760  25.472  13.497
43865W        W10933   5.856  13.780  10.980
43866W        W10934  19.749  44.286  10.893
43867W        W10935  33.600  37.072   4.767
43868W        W10936  26.087  25.008   4.211
43869W        W10937  12.732  12.729  11.994
43870W        W10938   6.798  41.309   0.825
43871W        W10939  22.232  36.062   2.698
43872W        W10940  20.644  38.512  11.097
43873W        W10941   0.777   2.251   0.334
43874W        W10942   1.311  32.497  12.057
43875W        W10943  14.822  40.873   1.355
43876W        W10944  33.599   6.419   2.811
43877W        W10945  26.702  37.877  11.986
43878W        W10946  43.789  41.978   2.390
43879W        W10947   8.890  32.598   3.317
43880W        W10948  39.815  42.909  13.425
43881W        W10949   0.349  15.768  13.910
43882W        W10950  13.260  14.164  10.071
43883W        W10951   1.343  21.749   1.764
43884W        W10952   2.840  16.168  11.467
43885W        W10953  40.533  14.273  12.351
43886W        W10954  40.412  16.715   4.821
43887W        W10955  41.465  32.130  10.594
43888W        W10956  22.082  43.952  13.489
43889W        W10957  16.083  30.624   4.354
43890W        W10958  26.540  31.557   0.925
43891W        W10959  16.083  21.715  10.910
43892W        W10960   7.313  26.530   4.203
43893W        W10961  38.386  44.873   1.847
43894W        W10962  35.088  22.206  10.998
43895W        W10963  44.975   5.253  14.851
43896W        W10964  28.973   8.249  12.477
43897W        W10965  23.572   5.253  14.901
43898W        W10966  44.489   3.739  10.473
43899W        W10967  43.008   2.958   3.797
43900W        W10968  21.715  12.345   2.392
43901W        W10969  42.847  34.440   3.693
43902W        W10970  18.722   8.360  13.851
43903W        W10971  20.135  12.268  11.918
43904W        W10972  20.180   7.817   0.929
43905W        W10973  23.699  25.601   1.423
43906W        W10974  15.679  11.864  13.919
43907W        W10975  34.878  18.654  11.981
43908W        W10976  40.975   1.944  10.588
43909W        W10977   5.847  23.561   0.285
43910W        W10978  16.127  10.153  14.792
43911W        W10979  42.796  42.318  12.958
43912W        W10980  33.124  35.030  11.063
43913W        W10981   9.189  16.579  14.961
43914W        W10982  15.747   9.364  10.582
43915W        W10983  36.036  34.463   1.347
43916W        W10984  36.966  16.631   4.303
43917W        W10985  28.529  18.186  14.992
43918W        W10986  27.194  30.978  10.922
43919W        W10987  32.926  41.401   3.275
43920W        W10988  24.715  23.098  12.366
43921W        W10989  14.115  25.149  13.932
43922W        W10990  22.700  33.619   4.188
43923W        W10991  11.176  26.606   0.734
43924W        W10992  38.982   6.781  12.489
43925W        W10993  24.636   8.720   3.262
43926W        W10994  44.916  15.606   2.257
43927W        W10995  43.514  37.879   3.678
43928W        W10996  17.281  19.605  14.399
43929W        W10997  23.073   3.400   4.620
43930W        W10998  38.047  34.039  14.806
43931W        W10999   1.387  41.797   1.404
43932W        W11000  21.646   4.936  13.346
43933W        W11001  29.469   9.743   1.378
43934W        W11002   3.948  36.006   5.123
43935W        W11003  29.574  32.441  10.524
43936W        W11004  10.218   4.382  14.493
43937W        W11005  44.482  26.182  14.825
43938W        W11006  27.077  18.234   0.869
43939W        W11007  31.063  18.603   0.444
43940W        W11008   5.347  44.773   1.224
43941W        W11009  18.191  43.315   3.811
43942W        W11010  37.442  25.547  11.985
43943W        W11011  22.573  43.831   2.798
43944W        W11012  24.563  44.766   1.243
43945W        W11013  38.510   2.259   1.725
43946W        W11014   0.946  19.174   2.363
43947W        W11015  42.824  15.211  12.492
43948W        W11016  19.242  17.066  12.852
43949W        W11017  17.219  32.034   3.265
43950W        W11018  22.722  42.389  14.920
43951W        W11019   7.259   0.355  13.020
43952W        W11020   1.881  14.652  13.801
43953W        W11021  12.644  20.159  14.433
43954W        W11022   8.269  31.580  10.632
43955W        W11023  17.700   9.375   2.858
43956W        W11024  22.057  18.687   1.279
43957W        W11025  28.161  37.924  12.566
43958W        W11026  33.575  31.036  11.561
43959W        W11027   1.408  11.369  13.810
43960W        W11028  33.526   3.344  12.980
43961W        W11029  19.590  31.038  12.885
43962W        W11030  36.493  33.006  14.889
43963W        W11031  12.166   3.244   3.182
43964W        W11032  12.137  42.919   3.306
43965W        W11033   5.871  12.641   0.305
43966W        W11034  34.455  21.676  11.965
43967W        W11035  12.808  10.716  12.984
43968W        W11036  42.025  44.374   1.796
43969W        W11037   5.840  15.683   3.807
43970W        W11038  34.105   5.274   2.180
43971W        W11039  35.071  24.720   3.171
43972W        W11040  19.769  44.349  13.814
43973W        W11041  38.539  35.458   0.355
43974W        W11042  30.144  13.230   4.729
43975W        W11043  40.842  34.954  11.123
43976W        W11044  28.000  23.189  12.563
43977W        W11045  31.029  29.037  10.461
43978W        W11046  13.271  25.556   2.860
43979W        W11047  22.118  27.087   3.763
43980W        W11048   3.439   6.248  12.059
43981W        W11049  25.518   8.234  12.516
43982W        W11050  12.717  41.373   0.952
43983W        W11051   4.786  13.296   0.822
43984W        W11052   7.384  33.891  12.079
43985W        W11053  25.551   8.245   1.824
43986W        W11054   0.827  40.445   1.751
43987W        W11055  19.746  14.100  13.363
43988W        W11056  15.260  10.874  12.392
43989W        W11057  37.015   6.354  11.079
43990W        W11058   8.785  40.871  14.429
43991W        W11059  41.495  22.517   1.720
43992W        W11060   5.688  13.255  14.988
43993W        W11061  39.511  36.540   1.276
43994W        W11062  22.071  36.096   2.205
43995W        W11063   2.819  33.546   4.268
43996W        W11064  19.247  29.435   0.932
43997W        W11065   9.206   2.301   1.328
43998W        W11066  28.021  42.507   4.270
43999W        W11067   5.710  42.485   1.868
44000W        W11068  14.703  29.573   3.763
44001W        W11069   8.803  33.434   1.819
44002W        W11070  36.405  25.683   2.296
44003W        W11071   2.944   1.778   1.388
44004W        W11072  24.606  27.470  13.534
44005W        W11073  19.687  28.036  14.450
44006W        W11074  43.281  17.195  13.807
44007W        W11075  44.303  23.120  12.836
44008W        W11076   8.828  42.028   4.797
44009W        W11077  34.111   3.841   3.385
44010W        W11078   9.721  42.834   1.850
44011W        W11079  30.943  44.343   0.877
44012W        W11080   9.648  18.296  11.394
44013W        W11081   3.355  33.536  13.415
44014W        W11082  20.089  13.793  14.761
44015W        W11083  30.594   2.383  13.402
44016W        W11084  22.121  12.182   4.685
44017W        W11085   0.981  14.129   3.640
44018W        W11086  30.412  29.459  11.889
44019W        W11087  19.601   0.443  13.818
44020W        W11088  26.534   2.351  13.494
44021W        W11089   3.304  10.639  14.479
44022W        W11090  37.844  19.256   2.759
44023W        W11091  18.606  31.920  14.912
44024W        W11092  16.160  15.815  11.044
44025W        W11093  39.379  37.053  10.624
44026W        W11094  25.521  34.943  12.073
44027W        W11095  32.445  41.867   2.760
44028W        W11096  27.008   3.818   0.260
44029W        W11097  13.622  24.620  11.075
44030W        W11098  22.682   5.771  13.446
44031W        W11099   6.200   2.721   2.698
44032W        W11100  43.905   7.722   4.329
44033W        W11101  20.193   1.356  13.841
44034W        W11102  30.056  21.683  13.445
44035W        W11103  20.139  23.169   0.876
44036W        W11104  11.838  13.720  10.986
44037W        W11105   1.412  24.719   2.274
44038W        W11106  38.991   8.868  10.417
44039W        W11107  41.926  22.598  10.624
44040W        W11108   1.856  30.426  11.536
44041W        W11109   0.893  15.790  11.108
44042W        W11110  33.522  38.504  14.981
44043W        W11111  33.934  29.996   3.809
44044W        W11112  41.462  21.697  14.867
44045W        W11113  21.529  40.050  13.505
44046W        W11114  22.526  28.638  10.504
44047W        W11115  10.819   8.368   4.140
44048W        W11116  22.069  41.370  11.951
44049W        W11117   7.382   3.859  11.537
44050W        W11118  13.685  23.529   1.293
44051W        W11119   6.261  34.482  10.039
44052W        W11120  28.543  29.070   3.375
44053W        W11121  40.375  27.606   3.778
44054W        W11122  26.024  16.298  14.411
44055W        W11123  35.503  29.453  13.530
44056W        W11124   0.813  20.640  11.044
44057W        W11125   2.242  35.980  13.827
44058W        W11126  42.396   2.920  10.612
44059W        W11127   1.434   6.681   1.931
44060W        W11128  41.401  12.810   0.378
44061W        W11129  26.638  29.126  13.435
44062W        W11130   9.852  20.639  10.948
44063W        W11131   9.852   6.725  13.063
44064W        W11132  18.653  38.491   1.316
44065W        W11133  32.637  35.089   4.122
44066W        W11134  15.242  21.168   2.866
44067W        W11135  32.556   6.730   0.396
44068W        W11136   1.453  13.725   4.633
44069W        W11137  40.431  38.473   3.717
44070W        W11138  41.877  13.208  10.989
44071W        W11139  31.615  32.508   0.260
44072W        W11140  12.762  11.155  11.867
44073W        W11141   9.181   8.771  12.880
44074W        W11142  42.460  35.541   4.133
44075W        W11143  32.956  14.117   3.841
44076W        W11144  28.637  27.623   0.732
44077W        W11145  21.188  41.324  14.906
44078W        W11146  18.601  14.590  12.997
44079W        W11147  15.741  15.781  14.999
44080W        W11148  21.702  35.369  11.553
44081W        W11149   8.892  37.038   1.854
44082W        W11150  34.919  40.415   2.411
44083W        W11151  23.024   1.443   1.327
44084W        W11152  27.020   2.949   2.391
44085W        W11153   5.911  29.545  13.968
44086W        W11154  20.585  11.303  13.970
44087W        W11155  22.030  44.852  13.813
44088W        W11156  20.200  27.607  12.437
44089W        W11157  32.072  11.184  14.023
44090W        W11158  11.730  32.090  11.010
44091W        W11159  37.570  29.108  14.510
44092W        W11160  15.770  37.337  11.908
44093W        W11161  36.071   0.469  12.384
44094W        W11162  15.246  11.289  13.833
44095W        W11163  22.179  21.128  11.396
44096W        W11164  40.433  34.455  11.017
44097W        W11165  38.916  26.107  14.306
44098W        W11166  37.565  38.485  10.564
44099W        W11167   5.923   4.820  10.909
44100W        W11168  29.668  42.475  10.507
44101W        W11169  43.799  27.083   2.833
44102W        W11170   7.334  44.444  11.946
44103W        W11171  31.031  26.584   5.270
44104W        W11172  11.249   8.714   0.393
44105W        W11173   6.360  26.049  12.008
44106W        W11174  40.373  24.598   4.826
44107W        W11175  38.529   5.706  12.578
44108W        W11176  29.001   2.870  13.378
44109W        W11177  14.285  16.289   4.340
44110W        W11178  24.488  28.941  11.515
44111W        W11179  38.051   1.435  12.960
44112W        W11180  35.940  31.012  14.402
44113W        W11181  18.081  26.132  14.417
44114W        W11182  22.016  11.643  14.792
44115W        W11183   1.739  40.435  14.903
44116W        W11184  42.971  37.358  12.076
44117W        W11185   5.286  32.909   3.815
44118W        W11186  14.115  42.919  13.427
44119W        W11187  28.024   0.962   2.820
44120W        W11188  32.909  17.290   4.249
44121W        W11189  34.983  37.426   3.680
44122W        W11190  11.859   0.876  11.906
44123W        W11191  26.959  39.917   2.367
44124W        W11192  34.530  11.834  10.972
44125W        W11193   1.342  41.425   3.776
44126W        W11194  20.658  20.754  12.454
44127W        W11195  36.880  40.924   4.684
44128W        W11196  39.417  20.746   1.698
44129W        W11197  16.576  14.313  14.847
44130W        W11198  12.117  27.182   0.335
44131W        W11199   2.941   0.950   2.794
44132W        W11200  15.781  38.527  10.924
44133W        W11201  16.307  23.735  12.477
44134W        W11202   6.357   8.161  11.119
44135W        W11203   2.285  22.165  12.834
44136W        W11204  19.672   2.313   2.382
44137W        W11205  39.439   9.792   4.782
44138W        W11206  27.450  23.616  14.463
44139W        W11207  39.342   0.279  14.398
44140W        W11208  31.959  24.159  13.854
44141W        W11209   3.239  44.440  10.430
44142W        W11210   6.214  42.005  13.815
44143W        W11211  12.840  35.981  13.811
44144W        W11212  30.925  18.257   0.344
44145W        W11213  32.612  16.218   4.739
44146W        W11214   3.808  13.324  10.425
44147W        W11215  44.984  39.389  14.976
44148W        W11216  42.796  38.894  14.978
44149W        W11217   5.796  22.693   1.278
44150W        W11218  12.840   9.166   4.253
44151W        W11219   9.798  15.790  13.330
44152W        W11220  28.931  25.538   0.263
44153W        W11221  14.111   1.322   2.863
44154W        W11222  39.468   9.357  11.938
44155W        W11223  19.110   0.976   1.221
44156W        W11224  24.214  29.086  10.080
44157W        W11225  40.429   6.715   4.247
44158W        W11226  22.649  19.253   0.408
44159W        W11227  43.382  22.009  10.600
44160W        W11228  10.235  10.811  11.923
44161W        W11229  25.677   8.340  10.435
44162W        W11230  39.404   5.316  12.501
44163W        W11231  32.133  11.833  14.777
44164W        W11232  20.624  42.801   4.796
44165W        W11233  37.896  17.272  14.387
44166W        W11234  18.757  13.236  12.341
44167W        W11235  10.797  10.206  13.939
44168W        W11236   2.449  22.061  10.492
44169W        W11237  13.293  20.216  11.420
44170W        W11238  28.639  43.862  14.940
44171W        W11239  42.835   5.227  13.930
44172W        W11240  35.380   0.763   0.457
44173W        W11241   1.798  33.125   2.878
44174W        W11242  16.141  23.693  14.014
44175W        W11243   9.347  21.595   3.637
44176W        W11244   3.947  37.403   4.225
44177W        W11245  30.147  23.137   3.190
44178W        W11246  38.547  42.373   4.693
44179W        W11247   5.716  37.849  11.411
44180W        W11248  12.221  34.426   2.811
44181W        W11249  29.918  35.940   4.295
44182W        W11250   6.200  36.562  10.984
44183W        W11251  30.621  30.470   4.821
44184W        W11252  30.973  11.801   4.340
44185W        W11253  41.437  30.606  14.381
44186W        W11254  14.201   6.818   3.640
44187W        W11255   0.813   3.380   2.394
44188W        W11256  15.727  10.833  14.849
44189W        W11257  31.142  27.988  12.425
44190W        W11258   3.927  43.829   4.706
44191W        W11259  44.816  13.254   0.314
44192W        W11260  12.214   9.245  12.346
44193W        W11261  42.952   8.163   0.391
44194W        W11262   8.856  17.684  12.416
44195W        W11263  11.768   8.696   2.739
44196W        W11264  34.975  24.686   3.863
44197W        W11265  31.036  40.383  12.840
44198W        W11266  33.999  25.487   3.713
44199W        W11267  22.682  17.221  11.880
44200W        W11268   7.270  19.726  12.472
44201W        W11269  28.137  10.661  10.998
44202W        W11270  44.838  34.501  13.310
44203W        W11271  43.371  26.575   2.812
44204W        W11272  15.121  14.721   4.663
44205W        W11273  32.587  33.414  13.542
44206W        W11274   1.360  18.687  14.009
44207W        W11275   0.444  34.561  12.866
44208W        W11276  38.874  22.568   2.754
44209W        W11277  28.565  44.307   1.869
44210W        W11278  30.984  38.970  11.037
44211W        W11279  20.731  33.088  14.284
44212W        W11280   4.357   5.287  10.890
44213W        W11281   0.359  14.103   1.933
44214W        W11282  32.557  11.143  10.070
44215W        W11283  24.170  26.618   2.740
44216W        W11284  10.809  44.880   3.793
44217W        W11285  24.683   6.331  12.824
44218W        W11286  24.646  38.394   0.865
44219W        W11287   7.333   5.355   0.282
44220W        W11288  30.510   8.771   3.334
44221W        W11289  28.656  23.150  14.412
44222W        W11290  26.048  24.694  12.571
44223W        W11291  19.637  23.591   4.608
44224W        W11292  17.279  35.469  11.893
44225W        W11293  39.839  14.707   4.786
44226W        W11294  12.767  43.336  12.995
44227W        W11295  28.554  22.643   3.283
44228W        W11296  38.855   6.338   2.753
44229W        W11297  35.094  14.789   2.279
44230W        W11298  31.913  29.965   4.283
44231W        W11299   9.829  40.453   3.729
44232W        W11300  43.774  23.189  13.952
44233W        W11301  39.480  35.578   3.775
44234W        W11302   3.291  23.510  12.981
44235W        W11303  44.820   5.767  12.467
44236W        W11304  42.305   9.795  14.003
44237W        W11305  22.574  39.899   2.792
44238W        W11306  27.043  19.635  13.379
44239W        W11307  27.978   6.244   0.393
44240W        W11308  32.583   3.781   3.833
44241W        W11309  11.241  29.048   1.359
44242W        W11310  40.952   6.697  14.837
44243W        W11311   9.874   0.846  13.914
44244W        W11312  22.547  31.569   1.872
44245W        W11313  11.298   4.726  11.986
44246W        W11314  41.805  34.887  11.077
44247W        W11315  22.996  16.139   1.894
44248W        W11316  19.080  27.196  12.072
44249W        W11317  37.957  18.716   2.193
44250W        W11318   8.865   7.307  11.998
44251W        W11319  43.938  20.250   1.395
44252W        W11320   6.772  10.254  14.962
44253W        W11321  21.020   8.187  12.505
44254W        W11322   4.837  44.407   0.262
44255W        W11323   4.771   9.860  14.986
44256W        W11324  21.157  16.115   0.803
44257W        W11325  36.860   4.707  11.032
44258W        W11326   7.682  36.418   2.902
44259W        W11327  35.893  38.018  12.509
44260W        W11328   0.795  27.072   0.391
44261W        W11329  31.111  23.634  14.314
44262W        W11330  12.219  12.181  14.289
44263W        W11331  35.886  18.074   0.761
44264W        W11332   3.360  12.302   3.156
44265W        W11333   6.913   3.232  13.824
44266W        W11334  27.582  18.103  14.480
44267W        W11335  27.193  24.082  10.563
44268W        W11336   5.240  39.886  14.397
44269W        W11337   0.755  25.102   5.139
44270W        W11338  28.941  14.231  13.548
44271W        W11339  31.940  39.350   5.104
44272W        W11340  28.941  16.305   2.847
44273W        W11341  33.579  30.497  12.005
44274W        W11342  15.319  21.538  13.050
44275W        W11343  40.810  42.495  11.400
44276W        W11344   0.270  15.653  10.453
44277W        W11345   5.428  30.622  14.758
44278W        W11346  21.242  31.041   4.627
44279W        W11347  36.096  43.278  13.388
44280W        W11348  33.028  43.341   1.361
44281W        W11349  23.707  37.048  12.504
44282W        W11350  37.976  21.598   1.792
44283W        W11351  27.114   9.365  11.962
44284W        W11352  38.490  41.508   0.478
44285W        W11353   5.333   7.673  11.395
44286W        W11354  18.717  25.057   0.401
44287W        W11355  11.634  41.356   2.362
44288W        W11356  19.623  13.334   0.422
44289W        W11357  22.106  17.090   4.309
44290W        W11358  24.494  38.500  14.491
44291W        W11359  38.885  11.349   4.127
44292W        W11360   3.277  30.572   4.209
44293W        W11361   4.285  17.252  13.475
44294W        W11362  27.579  13.283  11.117
44295W        W11363   7.792   6.835   4.154
44296W        W11364  20.146   9.687   3.283
44297W        W11365  34.113  40.424  10.584
44298W        W11366  15.638   9.812   1.318
44299W        W11367   6.836  21.032  10.582
44300W        W11368  38.433  31.072  11.493
44301W        W11369  34.520  21.644   0.385
44302W        W11370  11.819   1.892   0.750
44303W        W11371  27.945   9.812  13.982
44304W        W11372  14.636   7.317   5.082
44305W        W11373  34.392  30.115  11.478
44306W        W11374   1.939   5.359   0.731
44307W        W11375  35.888  30.478   1.823
44308W        W11376  21.123   8.737   3.381
44309W        W11377  18.230   4.929  13.504
44310W        W11378   9.665   7.402   2.852
44311W        W11379  40.430  43.299  11.034
44312W        W11380   6.900   5.249   0.396
44313W        W11381  24.164  18.117   2.307
44314W        W11382  29.978  42.301  14.772
44315W        W11383   3.434  17.251   5.288
44316W        W11384  11.762  35.906  14.955
44317W        W11385  30.125  26.017  14.018
44318W        W11386  33.397  33.575  13.977
44319W        W11387   1.421  25.086   1.857
44320W        W11388  34.531  31.608   3.647
44321W        W11389  16.805  44.482   1.436
44322W        W11390  17.152  38.441   3.726
44323W        W11391  25.199   9.373  12.084
44324W        W11392  32.014  38.367  10.158
44325W        W11393  29.018  13.332   2.663
44326W        W11394  11.265  19.241  11.603
44327W        W11395  28.627  35.106  13.363
44328W        W11396   9.853  28.975   1.296
44329W        W11397  23.661   7.709  13.807
44330W        W11398  42.502  18.616  11.000
44331W        W11399  15.107  43.938   2.858
44332W        W11400  40.823  22.097  12.888
44333W        W11401  28.452  40.321  12.988
44334W        W11402  18.077  31.544   0.779
44335W        W11403  34.416  16.591  13.932
44336W        W11404  37.575  10.659   1.730
44337W        W11405  16.638  18.751  14.343
44338W        W11406  31.942  38.445  14.432
44339W        W11407   1.275  30.509  10.929
44340W        W11408   0.755  12.842   0.383
44341W        W11409   7.277  28.635  10.440
44342W        W11410  16.211  43.878  10.434
44343W        W11411  30.961  24.511  12.415
44344W        W11412  22.635  20.092  14.860
44345W        W11413  33.106   7.835  11.895
44346W        W11414   1.295   9.201   2.291
44347W        W11415  44.843  38.882   0.404
44348W        W11416  41.939  19.741   4.627
44349W        W11417   5.366  21.664   1.801
44350W        W11418  14.174   7.845   2.723
44351W        W11419   0.425   2.328   0.451
44352W        W11420   1.944  27.004   3.285
44353W        W11421  18.772  23.158  14.375
44354W        W11422  42.827   2.349  13.367
44355W        W11423  39.407  37.502   2.357
44356W        W11424  12.322  25.506   4.626
44357W        W11425  39.823   1.450  11.946
44358W        W11426  38.025   4.917  14.822
44359W        W11427   5.853  42.383  14.432
44360W        W11428  28.178  11.837  14.846
44361W        W11429  36.062   8.751   3.252
44362W        W11430  38.909   4.241  14.479
44363W        W11431   8.293  10.210   4.293
44364W        W11432  31.483  43.376   2.386
44365W        W11433  20.702  13.842  10.564
44366W        W11434  20.572  30.448   4.713
44367W        W11435   8.239  27.066   4.350
44368W        W11436  31.549  27.079  14.427
44369W        W11437  15.097  32.457   4.138
44370W        W11438   4.345  28.588   3.307
44371W        W11439  23.187  16.664  12.481
44372W        W11440  29.452  36.455   2.766
44373W        W11441  19.763   9.326   2.720
44374W        W11442  12.342  36.390  11.997
44375W        W11443   4.930   0.827   3.268
44376W        W11444  13.629   7.396   3.786
44377W        W11445  27.515  20.214  13.824
44378W        W11446   4.267  11.225  13.486
44379W        W11447  24.221   4.352   4.722
44380W        W11448  38.990  34.973   4.313
44381W        W11449  19.224  20.698   4.810
44382W        W11450   5.852  17.112  13.945
44383W        W11451  23.612  20.238   0.791
44384W        W11452  12.660   0.346  14.369
44385W        W11453  24.525  30.557   0.441
44386W        W11454   2.887  39.019   3.633
44387W        W11455   3.886  38.001  12.003
44388W        W11456   5.765  22.678   2.189
44389W        W11457  41.464   1.835  14.858
44390W        W11458  33.044  13.712   2.866
44391W        W11459  11.334  41.526   3.214
44392W        W11460   2.854  22.064   2.333
44393W        W11461   4.266   8.875  12.001
44394W        W11462  31.031  42.930  13.807
44395W        W11463  36.477  17.627  10.482
44396W        W11464  38.542  15.716   4.778
44397W        W11465   7.174  12.244   4.206
44398W        W11466   3.920  44.481   3.806
44399W        W11467  28.526   9.696  12.343
44400W        W11468   4.756  21.736  10.935
44401W        W11469  15.089  40.972  12.892
44402W        W11470  10.804  23.051   2.784
44403W        W11471  15.669   8.689  12.971
44404W        W11472   2.229  10.143   1.891
44405W        W11473   5.365  40.422  13.960
44406W        W11474  41.985  17.566   2.812
44407W        W11475  30.493   3.223  13.960
44408W        W11476   8.694  21.131  11.523
44409W        W11477  43.442   4.913  13.893
44410W        W11478  10.210  13.844  14.931
44411W        W11479  36.929  21.078  13.436
44412W        W11480  32.955  17.160   3.386
44413W        W11481  16.132  32.476  11.064
44414W        W11482  28.504  36.456   2.884
44415W        W11483  10.218  30.427   4.717
44416W        W11484  35.543  19.064   2.330
44417W        W11485  37.037  20.656   1.223
44418W        W11486  17.632  38.975  14.848
44419W        W11487  32.981  27.549  14.833
44420W        W11488  42.507  30.004  11.065
44421W        W11489   5.695  39.006   3.843
44422W        W11490  20.150  10.199   3.649
44423W        W11491   1.894  27.534  11.444
44424W        W11492   8.803  24.512   1.894
44425W        W11493  29.610  39.042  14.969
44426W        W11494  12.232  19.041   1.323
44427W        W11495  38.059  15.590  13.056
44428W        W11496  22.585  34.994   0.814
44429W        W11497  26.184  28.036  12.391
44430W        W11498   8.229   8.836  10.529
44431W        W11499   2.815   3.220  11.997
44432W        W11500  12.165  44.383  14.907
44433W        W11501  23.635  21.660   2.316
44434W        W11502  31.041  43.514   0.345
44435W        W11503   2.423   3.284  13.973
44436W        W11504  31.608  19.133  11.377
44437W        W11505  24.595  11.857   0.272
44438W        W11506  42.449   7.176  14.415
44439W        W11507  12.757   4.316   3.645
44440W        W11508   1.462  14.664   0.252
44441W        W11509  23.612   7.185  11.039
44442W        W11510  44.757  40.404  13.437
44443W        W11511  44.383  43.406   4.666
44444W        W11512  39.852  40.917   3.779
44445W        W11513   4.851   0.263  11.935
44446W        W11514  37.863  15.276   4.726
44447W        W11515   2.908  28.935   0.809
44448W        W11516  41.479  12.199  12.856
44449W        W11517  30.525  34.400   4.615
44450W        W11518  13.812  43.376  12.525
44451W        W11519  30.612  10.206  14.316
44452W        W11520  22.094   3.368  10.897
44453W        W11521  23.687  11.128   3.807
44454W        W11522   5.705  30.466   4.296
44455W        W11523  34.066  16.778  13.479
44456W        W11524  14.259  40.052  11.517
44457W        W11525  10.206   1.938   1.787
44458W        W11526  31.944   0.484   3.767
44459W        W11527  17.160  34.394   4.825
44460W        W11528  26.682  40.548  14.867
44461W        W11529   8.173   1.948  10.567
44462W        W11530   0.761   7.284   4.354
44463W        W11531  23.572  11.715   1.273
44464W        W11532  14.260  17.248   0.864
44465W        W11533  40.318  29.501   2.756
44466W        W11534  27.171  32.904  10.906
44467W        W11535   2.744  20.688   4.286
44468W        W11536  14.645  34.035  11.602
44469W        W11537  36.033  28.089  13.990
44470W        W11538  20.766   0.838   3.663
44471W        W11539  25.634   8.773   0.760
44472W        W11540   9.248  13.821  14.418
44473W        W11541  44.334   6.726  13.892
44474W        W11542  27.536  44.869  11.584
44475W        W11543   1.466   3.236  12.014
44476W        W11544  32.523  21.160   0.282
44477W        W11545  23.663  33.981   1.238
44478W        W11546  21.070   4.912   2.406
44479W        W11547  29.076  12.778   2.298
44480W        W11548   2.889  35.957  14.401
44481W        W11549   9.874   4.363   1.743
44482W        W11550   3.749  10.367   0.843
44483W        W11551   1.929  37.406   0.326
44484W        W11552   2.814   7.379   1.391
44485W        W11553  32.528  28.655  10.500
44486W        W11554  18.609  20.542   0.400
44487W        W11555  10.632  36.350   2.768
44488W        W11556  26.693  41.307  11.450
44489W        W11557  32.583  22.195  11.571
44490W        W11558  14.790  38.493  11.865
44491W        W11559  37.880  35.360  10.910
44492W        W11560  16.737  28.530   0.831
44493W        W11561   7.320   0.889   3.866
44494W        W11562  21.125  31.932  14.396
44495W        W11563  22.227   0.312   3.177
44496W        W11564  27.175  10.653   1.711
44497W        W11565   5.416  25.510   3.863
44498W        W11566   7.713  40.314   2.209
44499W        W11567  14.329  18.089  11.062
44500W        W11568   6.809  12.670   1.890
44501W        W11569  15.577  18.239   0.381
44502W        W11570  29.638   0.886   1.300
44503W        W11571  25.609  23.202  12.384
44504W        W11572   2.448   9.716  11.570
44505W        W11573  43.510  26.555  11.423
44506W        W11574  44.384  25.006  13.873
44507W        W11575   7.674  33.470  10.083
44508W        W11576   3.350  18.180   0.952
44509W        W11577  31.622  26.976   5.712
44510W        W11578  22.533   6.299  12.528
44511W        W11579  43.802  28.441   4.721
44512W        W11580  43.835  19.763  11.959
44513W        W11581  15.691  28.010   2.377
44514W        W11582  22.244  25.146  10.433
44515W        W11583  44.382  20.620  12.530
44516W        W11584  16.618  22.189   3.694
44517W        W11585   1.245  12.683   2.238
44518W        W11586   4.402  30.122  13.383
44519W        W11587   3.376   7.341   4.773
44520W        W11588  30.647  15.664   4.633
44521W        W11589  17.616   2.295  11.917
44522W        W11590  18.294   2.828   0.958
44523W        W11591  36.363  16.743  11.084
44524W        W11592  28.571  10.207  12.371
44525W        W11593  32.063  11.782  10.630
44526W        W11594  41.443   9.754   4.214
44527W        W11595  35.588   6.778  14.319
44528W        W11596  42.335  25.501  13.972
44529W        W11597  37.075  25.585   2.267
44530W        W11598  26.486  39.499  11.472
44531W        W11599   5.898  38.850   1.935
44532W        W11600   6.831  19.575  12.018
44533W        W11601   3.747  43.355   0.886
44534W        W11602  31.406  21.193  10.472
44535W        W11603  10.843  29.583  13.529
44536W        W11604  30.075  41.033   3.647
44537W        W11605  31.055  15.173   0.300
44538W        W11606  23.628  32.465  12.375
44539W        W11607   0.876  13.318  10.474
44540W        W11608  29.984   3.924   1.883
44541W        W11609  44.462  28.549   0.777
44542W        W11610   7.789  40.012   2.899
44543W        W11611  28.004  41.950   2.374
44544W        W11612   9.792  36.434   0.960
44545W        W11613   3.880  18.222  14.960
44546W        W11614  33.585  19.110   2.203
44547W        W11615  13.293  43.889  11.490
44548W        W11616   5.771  29.475  14.377
44549W        W11617  17.799   0.252   1.451
44550W        W11618  34.376  13.207   4.150
44551W        W11619   7.750  28.961  14.841
44552W        W11620   7.340  12.276   0.765
44553W        W11621  21.237   8.312  11.912
44554W        W11622  14.602   7.328  11.943
44555W        W11623  19.665  10.228  13.931
44556W        W11624   2.362  23.150   3.704
44557W        W11625  31.543   5.397   4.628
44558W        W11626   0.439  44.303   4.694
44559W        W11627  29.565  14.336  14.360
44560W        W11628  19.041  29.610  11.453
44561W        W11629   3.955  21.215   1.883
44562W        W11630  15.206  16.310  10.448
44563W        W11631  41.855  37.037   0.848
44564W        W11632  31.469   3.240   3.655
44565W        W11633  43.445   9.182  13.942
44566W        W11634  24.158  29.532  10.465
44567W        W11635  27.661   4.722   3.238
44568W        W11636   1.802   6.410  12.548
44569W        W11637  35.426  27.038   4.644
44570W        W11638  42.380   8.726   3.368
44571W        W11639  19.584   4.372   2.689
44572W        W11640  21.688  41.368  10.499
44573W        W11641   0.252  29.981  13.438
44574W        W11642  21.171  20.162   4.719
44575W        W11643  17.061  44.953   4.252
44576W        W11644   9.722   2.309  12.539
44577W        W11645  31.998  12.725  12.051
44578W        W11646  44.984  39.338   1.446
44579W        W11647  17.185  16.163   1.908
44580W        W11648  17.118   8.725   4.138
44581W        W11649  13.219  16.751   1.926
44582W        W11650  32.562   6.845   0.883
44583W        W11651  13.153  13.256   3.261
44584W        W11652   5.406  13.800   2.298
44585W        W11653  33.082  15.085  12.362
44586W        W11654  19.279  25.060  10.492
44587W        W11655  18.613   9.730  14.829
44588W        W11656  28.177  36.550   0.959
44589W        W11657   2.287  41.962  11.511
44590W        W11658  39.813   9.751   3.767
44591W        W11659  44.470  19.734  14.881
44592W        W11660   9.659  42.904  12.370
44593W        W11661   5.866  16.249  11.491
44594W        W11662  20.577  14.159   1.830
44595W        W11663  35.459  18.577   4.813
44596W        W11664  39.855  19.149   4.346
44597W        W11665  39.859  31.004  11.028
44598W        W11666  21.733  34.869  14.808
44599W        W11667  43.808  12.323   0.279
44600W        W11668   8.311  43.002  13.932
44601W        W11669   1.364  16.224  12.834
44602W        W11670  42.343  40.872  14.788
44603W        W11671   1.352  10.166  14.884
44604W        W11672  10.713  36.969  14.863
44605W        W11673   1.344  14.340  12.009
44606W        W11674  30.521  12.288  11.863
44607W        W11675  21.693  24.551  13.464
44608W        W11676  42.488  21.258   4.186
44609W        W11677   2.956  36.477   4.303
44610W        W11678  30.112  15.714  13.041
44611W        W11679  15.292  15.167   0.792
44612W        W11680  39.025  13.125   2.711
44613W        W11681   1.295  40.525   4.736
44614W        W11682  39.852  28.174  10.565
44615W        W11683  38.424  24.650  12.955
44616W        W11684  15.823  31.435  14.282
44617W        W11685  29.055   8.838  10.893
44618W        W11686  15.802  23.524   0.916
44619W        W11687  22.525  35.437  14.378
44620W        W11688  17.744  44.496   4.327
44621W        W11689  24.145   1.961  13.360
44622W        W11690  42.816   5.925   4.656
44623W        W11691  39.361  28.182   1.716
44624W        W11692   3.420  14.165  10.432
44625W        W11693  25.038  20.073  13.468
44626W        W11694  43.301   2.818   1.320
44627W        W11695  37.470  10.262  12.090
44628W        W11696  19.173   6.688   0.812
44629W        W11697  24.491  36.868  12.854
44630W        W11698  29.108  34.581   4.202
44631W        W11699  17.185  35.400   4.212
44632W        W11700   2.470  12.839  14.350
44633W        W11701  44.424  14.683   2.692
44634W        W11702  27.989  34.033  11.451
44635W        W11703  44.969  13.632  12.473
44636W        W11704  24.670  34.388  13.416
44637W        W11705   3.882   0.341   4.229
44638W        W11706  22.672  41.894   0.829
44639W        W11707  35.379  36.496   2.212
44640W        W11708   8.698  22.068   1.771
44641W        W11709  26.129  17.695  10.505
44642W        W11710   5.698  39.352   3.302
44643W        W11711  12.790  23.113  11.540
44644W        W11712  29.453  23.205  10.525
44645W        W11713  22.010  10.222   2.217
44646W        W11714  31.018  44.010  14.479
44647W        W11715  36.969  11.669   3.743
44648W        W11716  11.797  12.168  14.284
44649W        W11717  42.825  11.838   2.207
44650W        W11718  43.789  26.589  11.111
44651W        W11719  44.968  43.465  11.426
44652W        W11720  18.738  44.358   0.310
44653W        W11721  29.651   5.704   3.847
44654W        W11722  38.433  12.139  11.101
44655W        W11723  40.005  36.077  14.284
44656W        W11724   6.876  12.296   0.805
44657W        W11725   5.744  34.593   3.327
44658W        W11726  30.618  16.167   0.940
44659W        W11727   8.695  25.963   2.383
44660W        W11728  25.038  11.738   2.682
44661W        W11729  29.581  25.154   0.886
44662W        W11730   0.472  25.512  10.474
44663W        W11731  11.666   0.981  12.528
44664W        W11732  13.111  24.679  12.385
44665W        W11733  10.337   5.357  12.397
44666W        W11734  37.862  41.300  11.599
44667W        W11735  33.466  22.239   4.317
44668W        W11736  23.232  32.458  12.406
44669W        W11737  43.300  28.108  12.467
44670W        W11738  13.743  18.066  14.899
44671W        W11739  25.500  37.497   0.876
44672W        W11740  17.756  19.095  13.518
44673W        W11741  42.301   8.308  11.376
44674W        W11742   9.696  26.057   1.812
44675W        W11743  15.112  10.824   3.270
44676W        W11744  12.627   7.733  14.776
44677W        W11745  40.983   7.891   1.297
44678W        W11746   3.763   6.381   4.342
44679W        W11747  28.552  40.532   3.820
44680W        W11748  25.606  27.990  10.403
44681W        W11749   3.437   8.775  12.033
44682W        W11750   7.891  15.247   4.140
44683W        W11751  36.541  36.044   3.768
44684W        W11752  32.109   6.695  13.528
44685W        W11753  16.189  22.539   3.822
44686W        W11754  26.138  24.491  14.454
44687W        W11755  12.851   7.315  14.329
44688W        W11756   3.932  44.001   3.300
44689W        W11757  17.612  33.923   2.386
44690W        W11758  27.992  19.091  10.532
44691W        W11759   6.310  32.512   0.741
44692W        W11760   8.694  42.856  11.109
44693W        W11761  15.151  18.108  13.948
44694W        W11762  27.462  20.166  11.549
44695W        W11763   6.791  18.066  11.531
44696W        W11764   2.929  27.535  13.912
44697W        W11765   8.842  10.233  11.585
44698W        W11766   0.830   4.346   4.174
44699W        W11767  25.131   7.412  13.828
44700W        W11768  44.316  37.415  12.042
44701W        W11769  36.590  40.996   1.882
44702W        W11770  27.628  14.736  13.361
44703W        W11771  15.760  24.027   1.243
44704W        W11772  21.212   8.357   2.293
44705W        W11773  39.980   7.392  13.946
44706W        W11774  10.298  18.780  13.343
44707W        W11775  40.901   9.226  14.910
44708W        W11776  23.636  27.184  14.903
44709W        W11777  23.132  26.485   0.760
44710W        W11778  18.188  33.933   4.249
44711W        W11779  29.496  41.491  10.516
44712W        W11780  23.122  35.919  14.423
44713W        W11781  42.994   5.269  12.449
44714W        W11782   9.812  19.224  12.955
44715W        W11783   7.306  36.981  12.946
44716W        W11784  29.990  31.616  10.584
44717W        W11785  35.512  14.225  11.886
44718W        W11786  11.174   7.291  14.495
44719W        W11787  44.980  16.695   3.757
44720W        W11788  27.059  12.302  11.942
44721W        W11789  32.549  22.705  13.909
44722W        W11790  31.549  29.445  12.575
44723W        W11791  10.657  37.926  12.924
44724W        W11792  38.893   2.270  11.462
44725W        W11793  19.183  44.860  10.915
44726W        W11794  16.316  11.354  11.555
44727W        W11795  39.383  33.456  13.842
44728W        W11796  40.942  24.067   3.857
44729W        W11797  12.779  40.992  12.074
44730W        W11798   4.302   6.894   0.456
44731W        W11799   5.310  38.986   3.753
44732W        W11800   9.840  38.036   3.329
44733W        W11801   1.857  10.280  11.516
44734W        W11802  19.687  44.450  11.970
44735W        W11803  31.127  39.902  13.916
44736W        W11804  28.504   0.257  11.403
44737W        W11805  39.471  22.124   2.733
44738W        W11806  19.219   1.250   1.800
44739W        W11807  42.412  44.886  10.436
44740W        W11808  13.822  23.035   4.783
44741W        W11809   9.367  11.359   0.431
44742W        W11810  32.920  29.656   3.815
44743W        W11811  32.455  30.470   3.751
44744W        W11812   9.787   8.174   4.204
44745W        W11813  11.273  22.698   4.328
44746W        W11814  16.694  17.729   1.419
44747W        W11815  26.088  36.038  10.461
44748W        W11816  43.366  23.191   2.787
44749W        W11817  33.094  29.438   1.815
44750W        W11818  17.203   5.420   3.251
44751W        W11819  10.737  32.537  10.572
44752W        W11820  40.386   8.391  12.877
44753W        W11821  34.418   9.272  11.561
44754W        W11822  39.981  30.021   2.240
44755W        W11823  15.250   6.879   0.741
44756W        W11824  23.224  30.082   4.825
44757W        W11825  32.905   0.937  13.390
44758W        W11826  40.835   6.342  14.912
44759W        W11827   0.476  14.791   4.676
44760W        W11828   1.847  12.128  12.891
44761W        W11829  26.564  36.921   1.334
44762W        W11830  25.479  43.829   2.212
44763W        W11831  26.504  12.754   3.155
44764W        W11832  39.540  26.553  10.541
44765W        W11833  34.428  14.143  12.847
44766W        W11834   2.348  21.719  11.410
44767W        W11835   3.309   6.711   3.868
44768W        W11836  12.639  25.525   4.353
44769W        W11837   4.320  42.920  13.842
44770W        W11838  31.449  12.186  14.805
44771W        W11839  40.492  29.636   4.172
44772W        W11840  35.906  24.127   1.695
44773W        W11841  22.025   1.244  12.061
44774W        W11842  36.453   1.274  12.080
44775W        W11843  40.490  39.836  14.971
44776W        W11844  15.105  10.878   0.369
44777W        W11845  15.732  36.481   0.406
44778W        W11846  21.551  23.996  10.986
44779W        W11847  24.177  13.807  13.850
44780W        W11848  19.656  31.616   0.733
44781W        W11849  32.601  18.090  10.960
44782W        W11850  31.426   0.888  13.405
44783W        W11851  19.756  15.747  14.290
44784W        W11852  31.133   0.390  13.341
44785W        W11853   7.723  23.116   0.843
44786W        W11854  40.468  40.030   3.846
44787W        W11855  30.065   3.332   2.382
44788W        W11856  25.115  37.497   2.788
44789W        W11857  37.944  18.566   1.708
44790W        W11858   1.851  29.013   4.826
44791W        W11859   3.943  12.617   2.226
44792W        W11860   7.748  19.700  10.965
44793W        W11861  23.024  12.216   4.273
44794W        W11862  44.493  34.475  11.516
44795W        W11863  42.305  21.662   4.623
44796W        W11864   8.737  18.629   0.334
44797W        W11865  24.618  16.623  14.372
44798W        W11866  14.217  30.110  12.570
44799W        W11867  20.272  26.530   5.088
44800W        W11868  33.026   0.851  11.975
44801W        W11869   8.695  25.045   0.920
44802W        W11870   1.874  17.188   2.759
44803W        W11871  44.311  21.138   0.291
44804W        W11872   1.868  32.898  14.946
44805W        W11873  25.158  12.747  11.982
44806W        W11874  30.560   6.193   4.670
44807W        W11875  37.377  28.600   4.655
44808W        W11876   3.263   8.249  11.612
44809W        W11877  41.340  12.218  12.095
44810W        W11878  43.794  15.253  13.361
44811W        W11879  40.473   3.853   4.129
44812W        W11880  33.600  17.287  13.346
44813W        W11881  37.552  27.006  11.960
44814W        W11882   0.390  44.913  12.995
44815W        W11883   2.303   9.669  13.801
44816W        W11884  14.794  18.059   1.901
44817W        W11885  17.101  40.977  10.614
44818W        W11886  34.377  37.979  13.308
44819W        W11887  24.201  18.138  10.995
44820W        W11888  11.255  23.178  12.477
44821W        W11889  20.028  32.608   2.204
44822W        W11890  21.687  28.667  14.973
44823W        W11891  10.689  30.133   1.786
44824W        W11892  20.549  27.514   3.765
44825W        W11893  29.512  14.751   2.687
44826W        W11894  21.577   2.451  14.841
44827W        W11895  29.589  14.593  12.363
44828W        W11896  29.526  11.823   3.798
44829W        W11897  37.492  30.648   1.777
44830W        W11898   0.410  25.067   3.235
44831W        W11899  38.487  21.719  13.062
44832W        W11900  19.614  24.151   2.267
44833W        W11901  27.605  14.756  11.040
44834W        W11902  42.013   6.254  10.891
44835W        W11903   6.862   5.372  11.868
44836W        W11904  35.449  13.825   0.250
44837W        W11905  21.204   8.895  14.328
44838W        W11906  29.010  11.758   2.882
44839W        W11907  34.536  38.543  13.792
44840W        W11908  43.355  19.715  12.545
44841W        W11909  40.984  22.737   3.166
44842W        W11910  34.523   2.228   0.740
44843W        W11911  23.689  20.618  14.825
44844W        W11912   8.265  29.986  12.935
44845W        W11913  14.619  12.280  13.035
44846W        W11914   2.890  25.583   3.666
44847W        W11915  40.901  35.991  14.919
44848W        W11916  11.789  35.482   3.226
44849W        W11917   8.860  38.857  11.585
44850W        W11918  25.625   1.935  13.947
44851W        W11919   6.373  37.010  10.625
44852W        W11920  13.803  43.289   3.189
44853W        W11921  21.141   9.720  11.611
44854W        W11922  37.872  13.744  12.374
44855W        W11923  24.548  42.000  14.341
44856W        W11924  38.012  42.467   3.736
44857W        W11925  35.960  30.163  13.514
44858W        W11926  34.478  18.544  11.924
44859W        W11927  26.480  32.893  11.989
44860W        W11928   9.681  38.460   0.800
44861W        W11929  19.601  43.013  12.358
44862W        W11930  35.598   9.221   4.832
44863W        W11931   4.820  15.759  12.916
44864W        W11932   4.316  10.176  13.810
44865W        W11933  19.267  17.585   3.737
44866W        W11934  23.998  33.998  13.531
44867W        W11935  41.832  35.477  10.524
44868W        W11936  11.829  33.099   4.780
44869W        W11937  29.643  42.442   2.727
44870W        W11938  21.113  27.490   1.694
44871W        W11939  40.487  33.951   0.901
44872W        W11940  40.895  42.019  14.867
44873W        W11941  21.738  26.482  13.489
44874W        W11942  27.044  33.421  12.421
44875W        W11943   4.229   4.392   0.898
44876W        W11944  23.211  44.963  14.968
44877W        W11945   0.748   6.379   3.847
44878W        W11946  20.640  16.712  13.417
44879W        W11947  26.522  35.001  13.972
44880W        W11948  35.986  43.422  14.495
44881W        W11949  42.794  35.030  14.420
44882W        W11950  38.397  42.318   3.163
44883W        W11951  20.197  35.869  10.484
44884W        W11952  42.282  34.116   4.303
44885W        W11953  36.538   0.443  14.827
44886W        W11954  24.566  38.999  11.122
44887W        W11955  39.062  18.746   1.927
44888W        W11956   3.277  23.511  11.610
44889W        W11957   3.218   6.897  13.911
44890W        W11958  28.075  16.750   0.335
44891W        W11959  31.978   7.706  10.505
44892W        W11960  13.746  10.871  11.425
44893W        W11961  13.329   0.855  13.033
44894W        W11962  12.124  37.557  12.941
44895W        W11963  23.641  28.596   2.825
44896W        W11964   4.774  21.022   1.895
44897W        W11965  17.799  36.917  14.436
44898W        W11966  31.927  39.892   1.711
44899W        W11967   9.716  33.514   3.232
44900W        W11968  14.287  17.129  13.975
44901W        W11969  37.916  32.454  14.920
44902W        W11970   5.304  17.302   1.821
44903W        W11971  17.713  33.571   4.182
44904W        W11972  44.851  21.711  14.923
44905W        W11973  36.062   6.366   0.951
44906W        W11974  22.560   7.874  10.580
44907W        W11975  17.665  37.931   1.224
44908W        W11976  33.085  18.680   0.821
44909W        W11977  12.323  25.571   3.296
44910W        W11978   6.253   0.342   3.641
44911W        W11979  42.480  11.755   3.811
44912W        W11980  29.551  40.502   3.150
44913W        W11981  17.675  33.614  10.979
44914W        W11982  23.224  12.683  12.058
44915W        W11983   6.319  19.143  14.418
44916W        W11984  20.651   6.795   4.145
44917W        W11985   7.756  12.834   0.848
44918W        W11986  16.760  18.757   1.833
44919W        W11987  38.469   9.843   2.666
44920W        W11988   6.891  41.470  13.397
44921W        W11989  42.522  12.669   2.714
44922W        W11990  34.019  17.200  14.891
44923W        W11991  36.459  16.748  10.588
44924W        W11992  27.150   0.361  11.506
44925W        W11993  36.991  22.128  14.385
44926W        W11994  14.822  31.022   4.776
44927W        W11995  10.649   2.894   3.719
44928W        W11996  35.984  44.902   0.860
44929W        W11997  19.160  14.276   3.332
44930W        W11998  25.578   4.812   1.419
44931W        W11999  10.738  44.891   3.148
44932W        W12000   6.388  25.095  11.876
44933W        W12001  23.060  15.103   1.213
44934W        W12002  23.987  35.944   0.297
44935W        W12003  41.833  32.513  12.983
44936W        W12004  14.606   7.892   3.283
44937W        W12005  28.628  12.199  12.090
44938W        W12006   3.247  20.250  14.279
44939W        W12007  25.027   7.378  14.965
44940W        W12008  13.645  27.058   1.922
44941W        W12009  14.158  29.087   0.459
44942W        W12010  44.448  29.921   3.852
44943W        W12011  18.790  23.624  13.951
44944W        W12012  22.528   7.842   1.878
44945W        W12013  41.986  23.587   3.803
44946W        W12014  37.934   0.792   2.417
44947W        W12015   1.954  17.696   3.386
44948W        W12016  38.947  19.666   3.743
44949W        W12017   5.427  19.599  14.317
44950W        W12018  44.916   4.419   0.268
44951W        W12019  34.916  31.494   2.234
44952W        W12020   3.729  34.114   4.828
44953W        W12021   2.911  38.523  13.416
44954W        W12022  12.342  19.060  12.960
44955W        W12023  14.820  11.833  14.769
44956W        W12024  37.550   9.694   0.761
44957W        W12025  33.437  29.030  11.974
44958W        W12026   5.229  35.879   1.888
44959W        W12027   1.302  12.721   3.160
44960W        W12028  20.719  38.417   5.786
44961W        W12029  17.222  36.005  11.492
44962W        W12030   9.835  14.673  13.837
44963W        W12031  21.675  30.959  10.955
44964W        W12032  21.033  21.184   4.642
44965W        W12033  31.586  28.442  11.515
44966W        W12034  39.901  17.729   3.181
44967W        W12035  43.515   1.275   0.890
44968W        W12036  40.999  33.083  13.360
44969W        W12037  19.082  39.020  14.314
44970W        W12038  22.178  15.180   1.803
44971W        W12039  31.457  21.029  11.065
44972W        W12040  33.486   5.866   2.178
44973W        W12041  30.116   6.328   1.827
44974W        W12042  17.063   5.803   1.698
44975W        W12043  40.882  16.576  12.041
44976W        W12044   3.897  23.197  13.015
44977W        W12045  27.074  36.377  12.061
44978W        W12046  16.683  26.638   4.624
44979W        W12047  17.791  22.192  14.981
44980W        W12048  11.677   6.775  12.828
44981W        W12049   8.839  38.503  12.086
44982W        W12050  38.571  31.430   2.795
44983W        W12051  12.822  33.020  12.988
44984W        W12052  34.548  44.861  14.799
44985W        W12053   5.825  15.256   4.131
44986W        W12054  29.432   9.726  11.001
44987W        W12055  23.696  15.228  11.080
44988W        W12056  38.477  23.159   3.207
44989W        W12057  12.777  17.557   2.824
44990W        W12058  20.528  24.993   2.282
44991W        W12059  12.851  41.439   2.765
44992W        W12060  12.804  30.144   2.375
44993W        W12061  24.132  42.945  12.544
44994W        W12062   8.173   3.293   0.397
44995W        W12063  30.936  35.091   4.189
44996W        W12064  18.250  44.978   2.312
44997W        W12065  27.010  32.534   2.751
44998W        W12066  26.032  38.876   0.252
44999W        W12067  34.878  14.172   4.668
45000W        W12068  13.731  31.554  13.484
45001W        W12069  33.947  33.462  14.020
45002W        W12070   6.694  16.294  13.012
45003W        W12071  28.548  32.014   5.309
45004W        W12072  38.565  14.815  14.297
45005W        W12073  30.008  17.597   1.887
45006W        W12074  24.063   2.814  11.934
45007W        W12075   9.221  15.661   2.889
45008W        W12076   0.973  23.575   0.946
45009W        W12077  43.398  30.079   4.803
45010W        W12078  38.874  14.289   4.825
45011W        W12079  24.035  23.042   2.254
45012W        W12080  10.642  41.863   4.620
45013W        W12081  30.052  30.461  14.487
45014W        W12082  26.512  16.609   4.738
45015W        W12083  33.105  29.630   0.317
45016W        W12084   9.361  44.297   1.371
45017W        W12085  42.937  15.322  14.878
45018W        W12086  20.196  19.211  11.399
45019W        W12087   7.843   2.942  10.908
45020W        W12088  43.957  33.943  11.473
45021W        W12089  10.166  18.152  13.921
45022W        W12090  37.998  23.208  10.472
45023W        W12091   9.653  38.001   3.638
45024W        W12092  19.194  32.116  14.819
45025W        W12093  38.057   5.262   1.821
45026W        W12094   8.328  27.069   4.650
45027W        W12095  13.814  31.631  14.020
45028W        W12096  14.658  28.950  10.477
45029W        W12097  10.267  30.543   5.321
45030W        W12098  28.095  36.419   1.772
45031W        W12099  30.042  39.350  12.027
45032W        W12100  41.495  31.936   3.336
45033W        W12101  10.801  11.664  13.943
45034W        W12102   5.353  40.972   3.790
45035W        W12103  18.159  44.991   0.253
45036W        W12104  25.496  31.086  13.036
45037W        W12105  20.214  26.669  12.861
45038W        W12106   3.901   5.378   3.791
45039W        W12107  41.420   8.834   0.936
45040W        W12108   2.885  28.507  12.967
45041W        W12109  38.854  15.823  10.141
45042W        W12110   1.423   4.254  10.490
45043W        W12111   5.787  22.580   3.832
45044W        W12112  30.595  36.467  10.475
45045W        W12113  16.144   1.862   0.356
45046W        W12114  10.717   1.794  13.881
45047W        W12115   2.387   8.801   1.880
45048W        W12116  21.230  29.096  14.810
45049W        W12117  21.107  12.341   4.240
45050W        W12118  25.561  35.911  11.552
45051W        W12119  33.414  42.477   2.286
45052W        W12120   5.791  30.917  11.491
45053W        W12121   7.831   7.691  14.435
45054W        W12122  30.634  38.955  11.559
45055W        W12123   9.369   1.766   0.945
45056W        W12124   7.709  18.073   2.786
45057W        W12125  27.638  18.074   3.183
45058W        W12126   2.459  13.657  11.578
45059W        W12127  37.086  27.018  12.374
45060W        W12128  41.398  31.582   4.141
45061W        W12129   3.954  40.904  12.897
45062W        W12130  36.887  15.736  12.577
45063W        W12131  29.146  11.729   4.195
45064W        W12132  15.312  25.978   0.346
45065W        W12133  16.210  23.077   0.415
45066W        W12134  14.094  20.744  10.549
45067W        W12135  24.111   6.879   1.246
45068W        W12136  10.366  34.411   4.251
45069W        W12137  32.534  12.167   3.289
45070W        W12138  40.823   4.835  11.033
45071W        W12139  29.619  12.325  13.501
45072W        W12140  14.178  18.679   0.939
45073W        W12141  12.256  41.342   0.457
45074W        W12142  42.848  32.998  11.072
45075W        W12143  32.513  34.907  10.412
45076W        W12144   1.425   0.886   2.213
45077W        W12145  24.005  19.280   0.460
45078W        W12146  20.220  44.299  12.869
45079W        W12147  43.316   2.271  13.928
45080W        W12148  23.530  27.975   1.284
45081W        W12149   8.339  36.492  14.792
45082W        W12150   6.333  11.234   2.762
45083W        W12151   7.188  10.731   0.421
45084W        W12152  14.336  30.954   0.957
45085W        W12153  25.101  42.497   4.304
45086W        W12154   0.353  10.745   2.750
45087W        W12155  12.719   7.223  10.976
45088W        W12156  41.488  14.169   1.723
45089W        W12157  36.413   2.866   2.698
45090W        W12158  19.717  28.032  12.483
45091W        W12159   1.467   0.844   4.793
45092W        W12160  32.565   5.747   3.757
45093W        W12161  18.659  37.355   2.865
45094W        W12162  31.454  35.090   5.091
45095W        W12163  19.262   7.775   2.269
45096W        W12164  22.021  40.912   4.737
45097W        W12165  20.191  33.131  11.011
45098W        W12166  34.033   4.283  13.380
45099W        W12167  43.901  41.309   2.187
45100W        W12168   8.892  37.447  12.477
45101W        W12169   6.895  42.439   0.395
45102W        W12170  25.696   2.296  11.084
45103W        W12171  10.281  12.187  13.403
45104W        W12172  34.376  30.097   2.762
45105W        W12173  39.020  11.866   0.272
45106W        W12174  10.707   3.227  13.958
45107W        W12175  23.035  24.695   1.893
45108W        W12176  33.494  35.938  10.956
45109W        W12177  22.008  16.232   1.350
45110W        W12178  13.344  22.200  14.500
45111W        W12179  23.524  44.355   3.815
45112W        W12180  28.490  44.854   2.307
45113W        W12181  12.186   1.827  11.475
45114W        W12182   7.908   8.872  14.982
45115W        W12183   7.851  10.763  14.463
45116W        W12184  21.716  26.069  11.461
45117W        W12185   5.694  30.520   4.803
45118W        W12186  29.924  41.921  11.602
45119W        W12187  14.590  38.971  13.458
45120W        W12188  16.277  28.074   2.849
45121W        W12189  42.392  29.604  14.766
45122W        W12190   5.834   1.337   3.343
45123W        W12191   1.441   7.751  11.081
45124W        W12192   0.453   5.842  11.025
45125W        W12193  39.461  18.689  14.012
45126W        W12194  11.207  41.949  10.930
45127W        W12195  12.258  28.973   1.362
45128W        W12196   1.949  22.645  11.424
45129W        W12197  36.023  10.371   1.735
45130W        W12198  21.654  23.109   1.423
45131W        W12199  20.575  30.153  12.872
45132W        W12200  37.880   6.277  10.616
45133W        W12201  10.775  37.021   3.368
45134W        W12202  20.698  40.016   4.183
45135W        W12203  34.051  41.043  13.008
45136W        W12204   9.356  30.936   0.826
45137W        W12205  31.908  26.188  14.419
45138W        W12206  39.864   0.309  14.979
45139W        W12207  25.043  37.876  11.095
45140W        W12208  34.992  20.766   0.869
45141W        W12209   8.202  28.054   2.220
45142W        W12210  31.146   3.858   4.833
45143W        W12211   8.692   9.684  14.292
45144W        W12212  12.181  20.274  14.383
45145W        W12213  15.812  30.967  12.918
45146W        W12214  22.616   7.176   2.322
45147W        W12215   1.236  40.876  14.410
45148W        W12216  10.249  38.372  14.857
45149W        W12217   4.743  39.883   3.151
45150W        W12218  30.012  11.151   3.756
45151W        W12219  30.544  28.500   3.848
45152W        W12220   5.839   5.248  14.904
45153W        W12221  10.276  37.382  14.828
45154W        W12222   3.293  25.081   2.369
45155W        W12223  30.135  10.184  11.997
45156W        W12224  35.558  29.938   4.194
45157W        W12225   6.368  40.997   3.732
45158W        W12226   5.202  17.788   1.770
45159W        W12227   2.400  33.086   2.270
45160W        W12228  34.053   7.899  13.542
45161W        W12229  22.538  21.540   0.266
45162W        W12230  41.885   4.758   0.892
45163W        W12231   8.794  12.713   2.858
45164W        W12232  24.535  11.712   2.734
45165W        W12233  32.051  36.376   2.771
45166W        W12234  42.859  16.662   3.862
45167W        W12235   9.338  34.483  12.088
45168W        W12236  31.089   8.709  10.491
45169W        W12237  23.135  11.667   1.278
45170W        W12238  25.201  10.762  12.488
45171W        W12239  21.030  21.562  13.451
45172W        W12240   6.355   0.269   4.251
45173W        W12241   7.818  12.338   4.232
45174W        W12242  23.582  36.869  13.972
45175W        W12243   8.858  29.558   0.386
45176W        W12244  10.209  35.388  13.901
45177W        W12245   2.945  32.512   0.425
45178W        W12246  33.940  18.140   2.217
45179W        W12247  28.945  30.003  14.951
45180W        W12248  27.635  37.002  12.422
45181W        W12249  24.539  37.510   2.866
45182W        W12250  38.871  40.035   4.777
45183W        W12251  16.599  15.146  14.353
45184W        W12252   0.369  43.976   3.236
45185W        W12253  18.133  31.023  14.347
45186W        W12254   7.209  24.979  11.977
45187W        W12255  16.620   0.293   3.727
45188W        W12256  18.237  20.640   1.871
45189W        W12257  11.622  33.116   0.478
45190W        W12258  31.420   6.858   2.874
45191W        W12259  13.154   6.294  12.943
45192W        W12260  14.748  37.385  10.409
45193W        W12261  33.951   6.326   3.807
45194W        W12262  37.032  39.049  13.423
45195W        W12263  24.520  32.472   1.289
45196W        W12264  27.094  16.110  13.524
45197W        W12265   4.917   2.737   2.827
45198W        W12266  30.638  42.796  11.052
45199W        W12267   7.730  12.822  14.515
45200W        W12268  35.101  28.020  14.958
45201W        W12269  11.690  16.120   2.393
45202W        W12270  43.890  38.493   4.220
45203W        W12271  22.547  25.137  13.342
45204W        W12272   9.325  39.322   1.265
45205W        W12273  18.549  21.255   2.250
45206W        W12274  42.926  23.656   1.708
45207W        W12275  35.108  20.168  13.368
45208W        W12276  19.078  44.324   1.851
45209W        W12277  23.602   4.276  13.510
45210W        W12278  19.234  40.964  13.313
45211W        W12279  35.933  10.362   4.329
45212W        W12280  42.854  42.871  12.352
45213W        W12281  26.037  25.474  12.868
45214W        W12282  25.578  10.659   2.399
45215W        W12283  25.200  11.169  10.536
45216W        W12284  37.078  42.480   3.327
45217W        W12285   7.680  32.010   1.834
45218W        W12286   9.808   0.850   1.703
45219W        W12287  17.066  27.026   0.964
45220W        W12288  21.101  21.743   0.337
45221W        W12289  28.467  23.726   2.685
45222W        W12290  41.909  38.435  11.951
45223W        W12291  23.149  31.461  14.495
45224W        W12292  30.930  19.551   3.652
45225W        W12293  23.562  23.615   4.311
45226W        W12294  21.707  34.990   0.836
45227W        W12295  26.974  43.868   2.243
45228W        W12296   8.169   5.840  13.875
45229W        W12297  21.560  11.310   2.401
45230W        W12298   6.917  43.927   2.856
45231W        W12299  35.569  40.929   2.335
45232W        W12300  14.802   5.808  12.047
45233W        W12301   1.388   2.902   0.776
45234W        W12302  26.617  39.884  14.983
45235W        W12303  24.979  38.846   4.318
45236W        W12304   3.894   5.254   4.709
45237W        W12305  11.779   5.255   4.667
45238W        W12306  17.274   4.356   0.447
45239W        W12307   5.220  40.921  13.824
45240W        W12308   9.788  12.126   0.779
45241W        W12309  13.305   2.802   1.255
45242W        W12310  10.792   4.437   3.782
45243W        W12311  25.697  22.666   0.347
45244W        W12312  39.986   0.385  10.986
45245W        W12313  18.687   7.244   2.755
45246W        W12314  44.473  10.717   4.629
45247W        W12315  18.683  43.010   2.829
45248W        W12316  39.465  17.290   1.233
45249W        W12317  36.387  34.458   0.257
45250W        W12318  35.070  35.880  14.758
45251W        W12319   7.769  30.605   0.807
45252W        W12320  38.036   6.716  14.411
45253W        W12321  44.347  19.105  12.859
45254W        W12322  26.652  13.268   2.809
45255W        W12323  40.903  41.824  14.012
45256W        W12324  20.168  22.560   4.120
45257W        W12325  24.487  24.692  11.463
45258W        W12326   0.432  33.594  13.470
45259W        W12327  40.961  31.142   0.865
45260W        W12328  43.408  29.963  13.841
45261W        W12329  14.322  41.363  12.046
45262W        W12330  21.536   1.414   2.787
45263W        W12331  25.167  40.049  14.990
45264W        W12332   5.735  25.986   2.815
45265W        W12333  24.555  39.432   4.816
45266W        W12334  34.868  22.194   4.707
45267W        W12335  12.636  27.608   2.871
45268W        W12336  26.002  14.259  12.402
45269W        W12337  12.219  32.616   1.322
45270W        W12338  11.762  17.189   0.941
45271W        W12339  43.380  18.201  13.808
45272W        W12340   8.258   5.415  10.495
45273W        W12341   2.764   9.658  13.360
45274W        W12342  12.841  32.113  13.382
45275W        W12343  21.255  38.066  10.426
45276W        W12344  15.312  21.132   0.412
45277W        W12345  11.844  32.128   3.852
45278W        W12346  38.921  30.582  10.997
45279W        W12347  27.020  42.293   1.912
45280W        W12348  19.147  35.503   4.327
45281W        W12349  42.389  20.760  10.492
45282W        W12350  27.605  25.486  10.410
45283W        W12351  35.428   1.771  10.529
45284W        W12352  13.637   7.252   4.293
45285W        W12353  39.982   8.361   1.313
45286W        W12354  33.070  36.367   4.796
45287W        W12355  15.214  34.515   0.786
45288W        W12356   5.818  20.629  10.927
45289W        W12357  34.442  13.758  12.046
45290W        W12358  30.534   4.235   1.249
45291W        W12359  42.456  22.093   0.771
45292W        W12360  16.703  38.072   4.150
45293W        W12361  16.229   2.745  12.475
45294W        W12362  14.679  10.248  12.003
45295W        W12363   3.883  11.778  10.015
45296W        W12364   8.880  24.193  10.965
45297W        W12365  31.942  21.674   1.228
45298W        W12366  14.209  13.157  10.564
45299W        W12367  39.494  19.147   0.803
45300W        W12368   3.217  31.447  10.121
45301W        W12369   7.787  40.358  14.348
45302W        W12370  40.451  19.601  13.055
45303W        W12371  11.333   7.686  10.612
45304W        W12372  32.920  42.376  11.439
45305W        W12373  14.812  26.964   4.636
45306W        W12374  36.903  12.772  11.029
45307W        W12375  34.578  21.699  13.951
45308W        W12376  18.284   4.708  11.388
45309W        W12377   9.239  38.867  13.886
45310W        W12378  29.663  15.660   3.835
45311W        W12379  10.159  21.723  14.924
45312W        W12380  24.501  15.599   2.772
45313W        W12381   8.290  35.890  13.846
45314W        W12382   3.436   6.820   1.375
45315W        W12383  26.985  12.856   0.857
45316W        W12384  32.486  16.296   2.284
45317W        W12385  37.893  35.030  14.895
45318W        W12386   5.789  11.723   4.719
45319W        W12387  29.488  19.081   0.915
45320W        W12388  18.223  27.482   9.524
45321W        W12389   8.356  39.442  14.326
45322W        W12390  23.035   7.907   4.829
45323W        W12391  11.854   1.945  12.989
45324W        W12392   3.709  21.155  12.964
45325W        W12393  41.302   0.902   0.290
45326W        W12394   1.834  44.909   2.665
45327W        W12395  13.713  18.175   0.732
45328W        W12396  15.669  25.056  11.575
45329W        W12397  15.318  27.099  11.084
45330W        W12398  31.415  15.644   4.731
45331W        W12399  34.539  15.188   0.271
45332W        W12400  12.666   7.227  12.849
45333W        W12401  19.148   6.850  14.425
45334W        W12402  14.610  22.091   1.276
45335W        W12403  19.639  36.971   1.262
45336W        W12404  23.594  32.033   5.201
45337W        W12405  13.290  25.618   4.304
45338W        W12406  14.701  36.566  13.960
45339W        W12407  35.895  29.931   2.199
45340W        W12408  34.049  37.855  10.414
45341W        W12409  17.692  17.098  14.355
45342W        W12410   0.945   5.200   4.116
45343W        W12411  31.576  21.200   9.947
45344W        W12412  44.275  23.051   2.688
45345W        W12413  31.946  15.091  13.538
45346W        W12414  17.646  37.529   4.612
45347W        W12415  33.068  34.537   4.288
45348W        W12416  17.094  11.174   1.421
45349W        W12417   4.822  31.102  11.985
45350W        W12418   6.321  22.218  13.015
45351W        W12419   3.907  21.211   3.738
45352W        W12420  28.932  10.857  11.596
45353W        W12421  40.543   2.441  10.501
45354W        W12422   5.832  39.838  12.948
45355W        W12423   6.195  16.730   3.373
45356W        W12424  29.602  39.364   4.116
45357W        W12425  18.075  15.584  13.391
45358W        W12426   4.308  29.495   3.629
45359W        W12427  25.207   1.956   4.229
45360W        W12428  34.907  20.106  11.454
45361W        W12429  19.241  11.826  13.920
45362W        W12430  33.934   1.421  11.509
45363W        W12431  43.422  15.612   3.331
45364W        W12432  27.593   5.695   0.808
45365W        W12433  43.841  27.645   0.881
45366W        W12434   1.416  26.136  14.301
45367W        W12435   0.911  28.050   0.376
45368W        W12436  41.521  40.503  11.902
45369W        W12437   1.405  33.108  11.553
45370W        W12438  24.010   5.817  13.867
45371W        W12439  25.640   7.835  14.003
45372W        W12440  41.831  32.905  14.456
45373W        W12441  37.378  23.570   3.229
45374W        W12442  17.564  33.585   3.827
45375W        W12443   8.750   5.207   4.208
45376W        W12444  14.667  24.561   2.347
45377W        W12445  20.601  18.145   4.700
45378W        W12446   9.301   4.248   0.453
45379W        W12447  23.139  17.095  11.020
45380W        W12448  29.918  42.412   1.778
45381W        W12449  26.690  28.680   0.790
45382W        W12450   7.735  37.022   1.303
45383W        W12451   4.250  32.507  14.424
45384W        W12452   1.384  27.592   0.439
45385W        W12453   0.337  19.602   2.272
45386W        W12454  13.821   1.789  14.396
45387W        W12455  26.697  39.515   2.774
45388W        W12456  13.793   2.915  12.853
45389W        W12457   0.386   0.878  14.984
45390W        W12458  13.751   7.222   1.720
45391W        W12459  18.546  33.877  12.892
45392W        W12460  12.282  44.939  13.524
45393W        W12461  34.943  16.130  13.834
45394W        W12462  25.074  26.522  13.019
45395W        W12463  38.559  32.896   3.199
45396W        W12464  35.960  16.738   3.163
45397W        W12465  35.936  20.124  10.593
45398W        W12466  24.990   8.720   0.748
45399W        W12467   0.972  44.477  10.980
45400W        W12468  18.736  40.544  10.637
45401W        W12469  25.608  31.136   2.383
45402W        W12470   0.753   7.179   3.811
45403W        W12471   8.404  11.684   2.340
45404W        W12472  33.403  15.241  10.406
45405W        W12473  26.565  36.499   2.194
45406W        W12474   0.820  40.919   4.254
45407W        W12475  11.152  38.910  11.891
45408W        W12476  23.020   5.439   0.776
45409W        W12477  18.596  32.492   2.846
45410W        W12478   5.917  32.950  13.012
45411W        W12479  44.929   3.920  12.932
45412W        W12480  27.640  10.837  14.908
45413W        W12481  29.995  19.581   3.326
45414W        W12482  30.991   5.283   1.804
45415W        W12483  14.798   0.903  14.955
45416W        W12484  21.666  16.684  10.644
45417W        W12485  26.575  19.668  11.526
45418W        W12486   0.486  37.390   1.416
45419W        W12487   4.814   2.872  11.029
45420W        W12488  23.533  31.117   3.287
45421W        W12489   6.764  32.069  14.854
45422W        W12490  29.630  27.123  10.512
45423W        W12491  15.604  19.224  14.880
45424W        W12492  34.052   1.480   0.368
45425W        W12493  34.383  19.568  10.961
45426W        W12494  24.175  33.528   1.294
45427W        W12495  17.077  35.492   4.813
45428W        W12496  32.395  34.023   3.178
45429W        W12497  13.621   5.302  11.381
45430W        W12498  43.847  35.546   2.758
45431W        W12499  34.607  34.439  11.588
45432W        W12500  13.729   7.844  14.372
45433W        W12501  27.061   6.717   2.694
45434W        W12502  36.374   8.226  12.964
45435W        W12503  40.338  39.514   0.959
45436W        W12504   2.938  32.910   9.949
45437W        W12505   4.303  42.400  12.914
45438W        W12506   3.796  18.163  12.892
45439W        W12507   5.367   9.159   3.265
45440W        W12508  18.779   5.268   2.750
45441W        W12509  13.617  20.638   0.386
45442W        W12510  31.544   3.283  12.867
45443W        W12511  25.606  16.758  10.611
45444W        W12512   3.728   3.839   3.650
45445W        W12513  39.415  31.989   1.763
45446W        W12514  20.229  43.835   2.348
45447W        W12515  12.722  33.966  12.907
45448W        W12516  10.140  37.475   2.774
45449W        W12517  43.833  21.116   2.327
45450W        W12518  15.280  17.691  12.945
45451W        W12519  31.596  33.898   4.606
45452W        W12520  15.717  16.233   2.209
45453W        W12521  26.680   0.776  14.284
45454W        W12522   7.312  37.424  14.998
45455W        W12523  44.451  23.110   1.710
45456W        W12524  11.187  28.981   0.464
45457W        W12525  43.802  29.172  13.463
45458W        W12526  36.393   2.382  13.531
45459W        W12527  14.212  10.636  10.626
45460W        W12528   8.689   1.373  13.824
45461W        W12529   3.277  15.709   5.101
45462W        W12530   3.765   8.836   1.839
45463W        W12531  21.694   9.352   4.159
45464W        W12532  31.564  41.979  14.319
45465W        W12533  17.148  11.683   0.263
45466W        W12534  27.566   2.416  10.923
45467W        W12535  40.431  34.959   3.215
45468W        W12536  32.933  33.622   2.252
45469W        W12537  17.685  36.531  12.992
45470W        W12538  26.138  43.293  13.826
45471W        W12539  22.059   4.747  12.526
45472W        W12540  30.108  43.280   4.234
45473W        W12541   0.923  21.616   4.297
45474W        W12542  40.473  35.946  14.983
45475W        W12543  14.156  10.333  13.882
45476W        W12544  15.773   7.790  13.439
45477W        W12545  13.655  42.926  11.518
45478W        W12546  11.861  14.743  11.098
45479W        W12547   0.888  42.824   1.867
45480W        W12548  34.482  14.124   3.152
45481W        W12549  37.066  38.335   2.685
45482W        W12550  25.582  18.080  14.928
45483W        W12551  32.622   1.393   4.741
45484W        W12552  15.246  27.054  11.428
45485W        W12553  19.186  42.978  11.603
45486W        W12554  19.088  18.679   2.359
45487W        W12555  14.213  21.751   0.286
45488W        W12556  34.370  31.530   4.120
45489W        W12557  23.714  21.686   2.877
45490W        W12558  11.783   3.447   1.785
45491W        W12559  30.942  14.099  14.457
45492W        W12560  39.496  14.305   3.689
45493W        W12561  40.342  20.096  13.511
45494W        W12562  18.546  33.941  13.944
45495W        W12563  23.713  17.129   0.258
45496W        W12564  27.632  41.829  11.503
45497W        W12565  13.297  23.500  13.939
45498W        W12566   8.205  40.544   1.359
45499W        W12567  29.921   1.469  14.952
45500W        W12568   1.283   9.858   3.721
45501W        W12569  42.939   3.716   0.307
45502W        W12570  18.279  13.182   4.260
45503W        W12571  35.514  43.316   1.318
45504W        W12572  16.122  28.575   4.249
45505W        W12573  30.065  34.881  11.380
45506W        W12574  42.322  22.736  14.320
45507W        W12575   1.950  40.392   2.689
45508W        W12576  11.357  35.476   4.242
45509W        W12577   6.300  20.693   2.284
45510W        W12578  16.715  30.418  12.520
45511W        W12579  26.653  27.133   0.434
45512W        W12580  26.582  17.696  13.948
45513W        W12581   3.372   2.333  13.368
45514W        W12582   0.400   0.305   1.755
45515W        W12583  22.204  38.854   2.416
45516W        W12584  14.154  13.815   2.234
45517W        W12585  26.654   9.366   1.729
45518W        W12586  28.488   2.422  11.002
45519W        W12587   5.774  41.979   1.367
45520W        W12588  18.788  22.145   4.317
45521W        W12589   4.809  30.583  11.010
45522W        W12590  40.052   0.753   2.288
45523W        W12591   0.248   2.936   4.601
45524W        W12592   8.302  12.658  12.527
45525W        W12593  32.055  10.645   3.668
45526W        W12594  21.706  20.600   1.823
45527W        W12595   6.834  18.620  14.350
45528W        W12596  17.104  13.173  12.010
45529W        W12597  34.492  35.448  12.036
45530W        W12598  25.516  31.644  14.819
45531W        W12599  29.511  24.720   3.229
45532W        W12600  17.089  44.417   3.293
45533W        W12601  33.535  28.084   4.338
45534W        W12602  16.580  18.581   4.290
45535W        W12603  41.381  39.874   1.774
45536W        W12604   8.693  36.506   3.364
45537W        W12605   9.871   8.778   3.314
45538W        W12606  11.182  25.552  12.553
45539W        W12607  44.920  28.153   1.766
45540W        W12608  44.425   1.368  10.571
45541W        W12609   2.372  25.003  13.434
45542W        W12610   6.329  43.470   3.840
45543W        W12611  17.133  18.097   3.749
45544W        W12612  40.829  31.024  10.423
45545W        W12613  18.172  28.444  13.918
45546W        W12614  38.344  22.199  14.886
45547W        W12615   0.948  42.507   4.615
45548W        W12616  35.372  17.175  11.087
45549W        W12617  42.847  20.736   3.807
45550W        W12618  19.141  35.072  12.556
45551W        W12619  16.722  22.069  12.967
45552W        W12620  19.205  16.076   1.730
45553W        W12621  41.874  15.176   3.234
45554W        W12622  31.407  14.194  13.005
45555W        W12623   6.359  25.509  13.850
45556W        W12624  19.284  23.147  14.341
45557W        W12625  30.471  44.334  12.391
45558W        W12626  14.103  37.088   0.803
45559W        W12627   5.265  13.303  13.451
45560W        W12628  37.575  34.550   4.210
45561W        W12629  44.311  11.735   3.775
45562W        W12630   0.337  13.750  11.407
45563W        W12631  40.946  31.940   0.383
45564W        W12632  39.409  26.113  10.440
45565W        W12633  26.607   1.968   4.781
45566W        W12634  26.697  25.155   3.162
45567W        W12635  28.628  25.193  11.598
45568W        W12636  39.031  27.109   1.920
45569W        W12637  33.502  31.009   3.784
45570W        W12638   6.776  23.112   0.320
45571W        W12639  44.333   5.357  12.351
45572W        W12640  11.713  39.818   3.214
45573W        W12641  44.419  22.709  13.883
45574W        W12642  15.772  34.920   2.340
45575W        W12643  39.436   4.277   1.762
45576W        W12644  17.671  29.946  14.869
45577W        W12645  35.391   1.434  12.025
45578W        W12646   1.820  37.389   4.670
45579W        W12647  29.946  35.360   1.800
45580W        W12648  42.912  26.685   3.717
45581W        W12649  28.049  22.582   2.186
45582W        W12650  33.429  35.078   4.147
45583W        W12651  12.834  37.343  13.542
45584W        W12652  24.693  21.728  14.963
45585W        W12653  32.510  27.963  10.140
45586W        W12654   4.304  20.549  11.911
45587W        W12655  11.266  34.459  13.424
45588W        W12656  21.091   7.222   1.808
45589W        W12657  24.557  23.580   1.356
45590W        W12658  36.501  13.105   1.747
45591W        W12659  37.564  23.553   1.410
45592W        W12660  26.997  22.677   4.620
45593W        W12661  23.612  38.916   0.273
45594W        W12662   6.195  30.923   4.721
45595W        W12663  21.603  39.321  11.451
45596W        W12664  29.569   4.290  11.110
45597W        W12665  39.376  43.008   0.283
45598W        W12666  20.055  23.009   4.306
45599W        W12667   5.918  19.691  10.141
45600W        W12668  40.834  41.809  13.356
45601W        W12669  41.818  11.162  11.417
45602W        W12670  16.783  38.380  11.520
45603W        W12671  18.732  26.458   2.319
45604W        W12672  31.461  37.565  11.953
45605W        W12673  19.151  27.614   9.980
45606W        W12674  17.295  36.875   2.788
45607W        W12675  39.843  16.706   3.341
45608W        W12676  23.559   8.834  12.534
45609W        W12677  10.855  44.475   2.410
45610W        W12678  11.318  12.717  11.422
45611W        W12679  12.617   8.850  13.533
45612W        W12680  17.175   1.826  13.014
45613W        W12681  29.950  20.110  11.534
45614W        W12682  15.599  12.655   1.863
45615W        W12683   8.163  32.046   1.873
45616W        W12684  44.369  38.046  10.521
45617W        W12685  34.100  21.727   1.378
45618W        W12686   3.889  33.454   4.769
45619W        W12687  32.484  27.983  11.026
45620W        W12688  24.202  22.082  11.476
45621W        W12689  21.527  44.373   0.424
45622W        W12690   4.427  26.985  14.458
45623W        W12691  39.391   2.312   3.272
45624W        W12692  33.960  43.956   0.400
45625W        W12693  27.452  26.573   0.369
45626W        W12694  43.923  13.766   0.284
45627W        W12695  42.399  25.620  13.017
45628W        W12696   1.894   4.796  12.010
45629W        W12697  20.726   3.247  13.026
45630W        W12698  43.383  28.501  14.454
45631W        W12699  44.821   2.294  12.535
45632W        W12700  14.196  33.432   2.404
45633W        W12701  43.332  34.385  12.061
45634W        W12702  19.569  13.215   2.374
45635W        W12703  37.892  19.666  13.987
45636W        W12704  26.967  41.486  10.606
45637W        W12705  12.689   5.319   1.264
45638W        W12706  11.363  22.513   1.218
45639W        W12707   2.841  37.551   3.655
45640W        W12708  42.007   8.796   3.191
45641W        W12709  13.672  35.856   3.357
45642W        W12710  14.594   2.348   1.868
45643W        W12711   1.881   1.758  10.514
45644W        W12712  25.152  41.484  14.896
45645W        W12713  22.071  17.208   4.792
45646W        W12714   2.740  10.262  14.994
45647W        W12715   2.330   4.846   9.943
45648W        W12716  15.129  23.029  13.062
45649W        W12717   2.309  42.901   3.374
45650W        W12718  31.636  39.060  14.011
45651W        W12719  43.407  30.531  12.501
45652W        W12720  16.576  24.692   0.371
45653W        W12721  32.104  29.645  10.457
45654W        W12722   3.772  35.594   1.823
45655W        W12723  41.458  33.531  13.879
45656W        W12724  12.611  26.161  11.948
45657W        W12725  23.222  32.391   1.389
45658W        W12726   3.727  15.117  13.029
45659W        W12727  27.644  26.589  11.527
45660W        W12728   4.223  24.706  12.879
45661W        W12729   9.248  41.313  10.549
45662W        W12730   8.239  39.331  13.495
45663W        W12731   6.278  12.770  13.985
45664W        W12732   5.274   0.418   4.140
45665W        W12733   8.203  22.542  13.944
45666W        W12734   6.883  21.181   3.695
45667W        W12735  28.673   1.254   3.199
45668W        W12736   3.754  21.749  14.769
45669W        W12737   3.353  43.421   3.279
45670W        W12738   3.306   3.835  10.942
45671W        W12739  38.895  12.679   2.781
45672W        W12740  44.454  22.117  14.793
45673W        W12741  41.815  14.835   4.256
45674W        W12742   7.722  30.475  13.393
45675W        W12743  20.589   3.754  10.907
45676W        W12744  33.617  39.815   4.240
45677W        W12745  40.817   1.255  12.836
45678W        W12746   7.390  27.172   1.248
45679W        W12747  43.890  13.745   4.305
45680W        W12748   1.436  32.118  11.593
45681W        W12749  25.019  28.049   4.711
45682W        W12750  24.206   6.310  14.503
45683W        W12751  12.649  32.957   2.862
45684W        W12752   5.227  19.739   1.242
45685W        W12753   3.909  22.703  12.447
45686W        W12754  27.652  13.774  11.994
45687W        W12755   4.236  15.258   0.413
45688W        W12756  31.915   7.699   4.674
45689W        W12757  26.685  34.505   0.759
45690W        W12758  38.854  10.806   0.819
45691W        W12759   2.260   5.911  12.442
45692W        W12760  29.034  26.084   0.780
45693W        W12761   7.405  43.370   0.799
45694W        W12762  20.546  22.012   1.932
45695W        W12763  24.204  32.079  14.430
45696W        W12764   0.363  15.275  11.100
45697W        W12765  37.877  29.510   1.367
45698W        W12766  25.574   5.410  14.323
45699W        W12767  23.612  14.319  12.829
45700W        W12768   2.743  37.451  13.315
45701W        W12769  29.647   7.407   2.272
45702W        W12770  13.628   7.717  10.493
45703W        W12771  31.585  17.189  10.559
45704W        W12772   8.718  31.548  11.963
45705W        W12773   6.292   1.479   0.796
45706W        W12774  32.909   2.777  11.521
45707W        W12775   2.930  42.848  10.911
45708W        W12776  44.340  38.534  13.412
45709W        W12777  20.034  26.618   4.132
45710W        W12778  19.203  30.910   1.365
45711W        W12779  35.880  33.439   2.837
45712W        W12780   5.848  33.447  14.374
45713W        W12781  38.009  34.595   1.783
45714W        W12782  27.192  25.494  13.919
45715W        W12783  27.525  25.993   0.939
45716W        W12784  17.586   5.262   3.758
45717W        W12785  35.419   3.259   2.892
45718W        W12786   8.794  20.636   2.202
45719W        W12787  30.000  44.815   4.723
45720W        W12788  11.725  18.190  11.563
45721W        W12789  25.140  26.523  11.073
45722W        W12790   3.348  33.534   2.877
45723W        W12791   3.890   2.431  13.320
45724W        W12792  34.908  21.174  10.547
45725W        W12793   6.797  17.298  11.928
45726W        W12794  41.016  14.266   2.321
45727W        W12795  29.522   6.404  12.897
45728W        W12796   7.898  37.024  13.817
45729W        W12797  40.994  36.544   0.756
45730W        W12798  42.907   1.393   3.778
45731W        W12799  31.898  44.479  10.946
45732W        W12800  36.045   5.309   4.307
45733W        W12801  12.689  31.529   4.645
45734W        W12802  35.576  14.242  14.918
45735W        W12803  16.227   6.253   4.273
45736W        W12804   1.785  11.854   3.768
45737W        W12805  11.866  24.996   2.285
45738W        W12806  17.145  36.871   3.150
45739W        W12807  33.920  41.029   2.400
45740W        W12808  15.591  29.003  14.899
45741W        W12809   8.328   6.693  13.533
45742W        W12810   0.830  35.952   3.799
45743W        W12811  26.025  28.487  13.523
45744W        W12812  28.665  40.814   0.877
45745W        W12813  10.327  40.813   4.123
45746W        W12814  39.493  13.195   3.662
45747W        W12815   5.274  21.583  11.408
45748W        W12816  33.022  26.118   5.575
45749W        W12817   7.706  14.256  10.927
45750W        W12818   4.381  20.088   2.753
45751W        W12819  10.376  13.314   3.710
45752W        W12820  24.574   6.374   1.846
45753W        W12821   4.933  42.439  13.462
45754W        W12822  11.239  14.641   4.293
45755W        W12823  13.653  38.325  14.435
45756W        W12824  18.666   4.403  11.930
45757W        W12825  25.079  31.628  11.940
45758W        W12826   6.791  10.265  13.797
45759W        W12827  14.751   2.816   0.300
45760W        W12828  32.125  19.039  13.506
45761W        W12829  25.588  16.582  14.286
45762W        W12830  19.163  25.172  10.949
45763W        W12831   7.846   6.204  11.494
45764W        W12832   2.942  21.173   0.776
45765W        W12833  36.380  41.323  14.931
45766W        W12834  29.990  15.194   0.417
45767W        W12835  41.792  22.689  12.345
45768W        W12836  35.576  14.280   1.291
45769W        W12837  34.037  21.575  14.951
45770W        W12838   8.746  34.873   0.399
45771W        W12839  23.037   2.802   1.761
45772W        W12840  34.495  27.956  14.923
45773W        W12841  31.457  36.874   4.175
45774W        W12842  20.733  39.035  10.958
45775W        W12843  14.256   7.273  13.394
45776W        W12844  13.721   8.726  10.891
45777W        W12845   4.232  39.856   4.351
45778W        W12846  14.182  35.563  14.920
45779W        W12847   3.829  21.086  10.075
45780W        W12848  24.638  10.170   3.227
45781W        W12849  27.512   1.400  13.351
45782W        W12850  30.599  36.938  14.849
45783W        W12851  22.156  29.943  13.837
45784W        W12852  34.913  34.070  12.010
45785W        W12853  42.906  16.607   1.914
45786W        W12854  12.292  24.720   2.211
45787W        W12855  38.399  32.487  13.542
45788W        W12856  28.649  11.742  11.373
45789W        W12857  27.190  29.140  12.457
45790W        W12858  18.179   5.377   2.350
45791W        W12859  32.572   6.241   2.202
45792W        W12860  16.786   9.329  13.823
45793W        W12861  27.506   9.311   2.731
45794W        W12862  33.108  43.408  11.476
45795W        W12863  31.577  25.486  13.056
45796W        W12864  38.567  30.569   1.420
45797W        W12865  40.471  35.359   1.720
45798W        W12866   2.833  19.621   3.743
45799W        W12867  43.400  39.062   2.329
45800W        W12868  24.016  44.495  11.872
45801W        W12869  28.044  13.612  10.890
45802W        W12870  35.883  42.428   4.639
45803W        W12871  43.452  26.666  12.951
45804W        W12872  29.486   2.740   3.182
45805W        W12873  27.108  26.606  13.393
45806W        W12874   2.231  24.558   4.228
45807W        W12875  20.729  41.911   3.739
45808W        W12876  24.684  24.113  12.406
45809W        W12877   6.413  26.664   3.286
45810W        W12878  10.745  21.248  11.907
45811W        W12879  32.105  29.939   0.376
45812W        W12880  26.541   0.800   2.873
45813W        W12881  14.150   7.404   0.795
45814W        W12882  33.917  33.970   2.316
45815W        W12883  38.006   3.346  11.578
45816W        W12884  21.755  13.331   2.829
45817W        W12885  41.042  28.505   0.840
45818W        W12886  34.064  21.685  13.916
45819W        W12887  16.743  36.505   1.427
45820W        W12888   2.407   9.189   2.876
45821W        W12889  38.981  26.583   4.804
45822W        W12890  18.624  39.931   4.665
45823W        W12891  19.721  38.408  14.822
45824W        W12892  44.755  20.159   4.197
45825W        W12893  24.692  25.026  10.524
45826W        W12894  42.481   7.258  10.582
45827W        W12895  27.055  28.061  11.002
45828W        W12896  12.302  42.355   1.383
45829W        W12897  30.606  43.901  10.616
45830W        W12898  39.381  43.835   2.863
45831W        W12899  23.238  12.683   1.830
45832W        W12900   9.848  33.439   2.712
45833W        W12901  21.732  21.177  11.915
45834W        W12902   0.478  31.969   0.415
45835W        W12903  42.885  35.571   3.810
45836W        W12904  14.236   4.878  10.463
45837W        W12905  37.375  16.636   4.778
45838W        W12906  30.933  30.153   1.836
45839W        W12907   3.764  29.479   9.934
45840W        W12908  35.999  25.658   1.739
45841W        W12909   0.885  41.970  13.422
45842W        W12910  31.972  30.144  10.926
45843W        W12911  39.399  26.065  12.034
45844W        W12912  26.173  15.680  11.428
45845W        W12913  18.575  19.213   4.801
45846W        W12914  27.664  32.983   2.761
45847W        W12915  44.935  19.185  13.050
45848W        W12916  15.297  15.251  11.520
45849W        W12917  19.086  44.008   3.157
45850W        W12918  11.858  43.452   0.911
45851W        W12919  19.712  41.900  12.027
45852W        W12920  13.654  40.341  11.457
45853W        W12921  16.694  33.538   4.659
45854W        W12922  24.637  21.035   4.116
45855W        W12923  14.157  29.631   4.791
45856W        W12924   8.268  19.041   2.725
45857W        W12925  41.530  38.390   0.737
45858W        W12926  11.824  20.148  12.506
45859W        W12927   4.892  14.200  12.372
45860W        W12928  38.998  28.452   4.815
45861W        W12929   3.900  22.711   3.275
45862W        W12930  18.610   0.973  13.373
45863W        W12931  31.583  22.638   3.710
45864W        W12932  22.200  23.643  12.835
45865W        W12933  16.665  38.901   2.262
45866W        W12934  28.013  19.655  13.809
45867W        W12935  33.970  40.828  10.577
45868W        W12936  32.048  22.589  12.958
45869W        W12937  10.314  28.655   2.354
45870W        W12938  13.171  36.926   4.115
45871W        W12939  32.964  41.955  12.874
45872W        W12940  33.497  26.955  12.532
45873W        W12941  12.796  35.537   1.251
45874W        W12942  20.557  42.362  11.603
45875W        W12943  14.654  41.409  12.567
45876W        W12944  31.104   5.812  12.027
45877W        W12945  11.827  28.160  12.050
45878W        W12946  26.506  16.162  11.947
45879W        W12947  24.637  31.999  12.341
45880W        W12948  12.710   8.285   0.886
45881W        W12949  14.172   8.736   3.345
45882W        W12950  14.276  24.033   3.847
45883W        W12951   0.408  12.707  10.424
45884W        W12952  25.001  37.889  11.981
45885W        W12953  44.375  18.289  12.487
45886W        W12954   2.354  39.952   4.765
45887W        W12955  23.166  34.484  12.910
45888W        W12956  28.071  18.168   2.287
45889W        W12957  25.149  27.589  14.321
45890W        W12958  38.013  14.196   2.378
45891W        W12959   7.675  11.807  13.984
45892W        W12960   9.327  13.135  10.409
45893W        W12961  20.160  30.923  13.389
45894W        W12962   8.817   3.713  13.016
45895W        W12963  42.370   9.294  14.764
45896W        W12964  38.820   5.816  13.017
45897W        W12965  13.642  43.863  12.892
45898W        W12966  27.524   1.349   0.251
45899W        W12967  36.497   9.844   1.832
45900W        W12968  19.061  39.031  13.913
45901W        W12969  40.983   7.171   4.162
45902W        W12970  29.128   8.276  10.433
45903W        W12971  30.509  42.889  12.910
45904W        W12972  27.085   0.951  11.124
45905W        W12973  29.584  19.735  11.075
45906W        W12974  44.925   9.223  12.368
45907W        W12975  34.378  20.600   0.358
45908W        W12976   9.682  31.988  11.047
45909W        W12977  35.926  18.764  13.863
45910W        W12978  32.976  11.336   0.367
45911W        W12979  21.713   8.258   0.479
45912W        W12980  21.672  44.423  13.832
45913W        W12981  23.229  14.259   2.845
45914W        W12982  14.711   3.241   2.255
45915W        W12983  31.030  11.305   2.762
45916W        W12984  20.671  10.778  12.400
45917W        W12985  27.666  22.583  13.943
45918W        W12986   8.676  22.244   2.892
45919W        W12987  34.488  14.296   4.163
45920W        W12988   9.307  10.281  13.496
45921W        W12989   0.892  35.981  13.041
45922W        W12990  21.629  30.415  12.903
45923W        W12991  30.012  25.215  12.968
45924W        W12992  15.687  14.835  13.021
45925W        W12993   0.978  18.565   2.873
45926W        W12994  19.098   6.185  11.987
45927W        W12995  24.504  21.213   1.708
45928W        W12996  22.162  33.489  11.861
45929W        W12997  30.484  38.985  11.091
45930W        W12998  12.212   2.457  12.502
45931W        W12999  36.561  37.444  10.904
45932W        W13000  13.202  37.920   0.781
45933W        W13001  27.447  42.462   0.934
45934W        W13002  22.040  22.706   3.703
45935W        W13003  10.301  13.278  13.509
45936W        W13004  27.962  28.586   2.827
45937W        W13005  27.470  34.978   5.112
45938W        W13006  43.784  28.967  14.286
45939W        W13007  32.594  10.293  11.573
45940W        W13008  34.373  18.778   3.351
45941W        W13009  29.608  38.344  11.033
45942W        W13010   7.389   8.801   0.853
45943W        W13011  13.765  20.769   9.513
45944W        W13012  28.137  38.341  12.476
45945W        W13013  29.171  32.542   3.661
45946W        W13014  11.303   3.866  14.455
45947W        W13015  44.408  41.407   3.779
45948W        W13016  21.182  21.209  14.445
45949W        W13017   5.294   1.332   3.845
45950W        W13018  37.986  36.903   1.444
45951W        W13019  37.337  16.283  10.482
45952W        W13020  13.736  42.828  11.871
45953W        W13021  40.474   2.767  11.591
45954W        W13022  20.229  12.344  11.607
45955W        W13023  35.599  13.216   2.267
45956W        W13024  19.055  21.561   9.561
45957W        W13025  31.430  34.977  14.844
45958W        W13026  26.461  37.883   0.398
45959W        W13027  42.368  40.327  12.368
45960W        W13028   9.241  22.009  14.021
45961W        W13029   3.425  35.912   0.770
45962W        W13030  43.790   6.252  14.977
45963W        W13031  27.073  35.360   0.314
45964W        W13032   7.718  11.254  13.379
45965W        W13033  24.710  34.881   2.275
45966W        W13034   0.833  17.259   3.697
45967W        W13035   2.445  27.493  10.587
45968W        W13036  19.168  26.616   3.752
45969W        W13037   1.424  14.741   2.212
45970W        W13038  24.132  43.448   1.911
45971W        W13039  17.141  35.372  14.423
45972W        W13040  35.453   8.796   2.692
45973W        W13041  13.729  30.959   3.227
45974W        W13042  34.407  44.807   1.425
45975W        W13043  34.894  41.444  13.950
45976W        W13044   3.726   6.921   0.417
45977W        W13045  14.172   9.357   3.366
45978W        W13046  24.120  37.047  10.547
45979W        W13047  30.475   2.755   4.178
45980W        W13048  15.665  36.952   0.846
45981W        W13049  25.559  29.515   3.681
45982W        W13050  28.156  21.030   4.294
45983W        W13051   1.972  10.661   1.297
45984W        W13052  30.035   6.744  14.015
45985W        W13053  32.607  43.954   2.805
45986W        W13054  44.385  24.164   0.865
45987W        W13055  37.867  18.781   4.732
45988W        W13056  31.426  20.126   3.708
45989W        W13057  16.112   0.940   4.776
45990W        W13058   0.303   1.782   4.779
45991W        W13059  28.067  10.789  10.013
45992W        W13060  11.136  29.073  12.868
45993W        W13061  17.763  28.622  12.568
45994W        W13062  25.017  42.506  14.326
45995W        W13063   3.900  42.517  13.860
45996W        W13064  40.364  43.389  11.525
45997W        W13065  37.054  36.963   3.350
45998W        W13066   7.786  13.232   0.833
45999W        W13067  29.038  28.542  12.365
46000W        W13068  16.241  41.832  14.768
46001W        W13069  38.949  28.958   2.795
46002W        W13070  36.006  29.174  11.527
46003W        W13071  31.576  43.942   3.318
46004W        W13072  30.504  20.529   1.905
46005W        W13073   5.398   9.860   3.193
46006W        W13074  44.852  21.093   0.328
46007W        W13075  22.589  35.924   5.164
46008W        W13076  32.513   0.778  14.884
46009W        W13077  20.064  43.792  13.324
46010W        W13078  13.722  12.857   2.191
46011W        W13079  21.116  38.362  12.379
46012W        W13080  32.084  40.853  13.923
46013W        W13081  40.858  35.547   0.332
46014W        W13082  14.684  29.455   0.274
46015W        W13083   8.349  23.539  11.895
46016W        W13084   1.853   6.845   2.902
46017W        W13085  19.185  32.425  12.402
46018W        W13086  10.647  37.063   4.738
46019W        W13087   5.205  27.110  13.929
46020W        W13088  29.032  44.950  10.492
46021W        W13089  29.521  19.688   0.730
46022W        W13090  39.842  32.606   0.826
46023W        W13091   0.346   5.813  12.513
46024W        W13092   6.207  26.611  10.585
46025W        W13093   6.683  23.526  11.866
46026W        W13094  35.419  25.565  11.572
46027W        W13095   8.218   9.709  13.801
46028W        W13096  20.584  35.891   2.264
46029W        W13097   6.742  37.945   3.825
46030W        W13098   2.940   7.693  14.432
46031W        W13099   9.800  19.090   1.847
46032W        W13100  17.159  41.385   1.276
46033W        W13101   9.386  44.298   3.806
46034W        W13102  12.127  13.607   2.709
46035W        W13103   4.283   8.325   0.363
46036W        W13104  38.843  35.497   3.228
46037W        W13105  38.928  20.575  13.793
46038W        W13106  34.056  24.545  10.982
46039W        W13107  17.676  29.135  12.982
46040W        W13108  27.618  12.726   4.228
46041W        W13109   0.914  25.639  14.370
46042W        W13110   4.737  34.371  10.506
46043W        W13111  17.781  31.916  12.565
46044W        W13112  13.146  21.239  14.010
46045W        W13113  24.564  12.291  13.016
46046W        W13114  41.897  14.693  10.417
46047W        W13115   0.290  15.129   3.649
46048W        W13116  21.148  27.134  12.866
46049W        W13117  27.067  37.992  13.497
46050W        W13118  29.150  37.005   3.853
46051W        W13119  10.202  18.671   2.898
46052W        W13120   2.230  32.506   1.919
46053W        W13121  42.812  18.158   1.224
46054W        W13122  14.694   4.414   3.239
46055W        W13123  39.337  26.546   0.321
46056W        W13124  20.030  36.896  14.975
46057W        W13125  43.943  15.646  14.764
46058W        W13126  32.400  32.931   4.728
46059W        W13127   3.813  16.569   3.173
46060W        W13128   9.301   9.791  13.529
46061W        W13129   6.840   6.922  14.866
46062W        W13130   3.843  26.518   4.216
46063W        W13131  32.580  12.165   4.115
46064W        W13132  41.847   6.728  11.069
46065W        W13133  41.360  17.789  11.570
46066W        W13134  44.009  33.423   1.450
46067W        W13135  37.403  26.118   1.344
46068W        W13136   9.884  24.622  11.571
46069W        W13137  16.636  33.102  12.434
46070W        W13138  41.818   0.980   4.825
46071W        W13139  18.652  41.387  10.002
46072W        W13140   2.363  21.062  14.781
46073W        W13141  13.303   4.708   4.811
46074W        W13142  39.407  37.054   3.797
46075W        W13143  29.528  11.343   2.258
46076W        W13144  32.967  13.308  14.411
46077W        W13145   6.297   6.725  13.457
46078W        W13146  36.517  25.064  11.043
46079W        W13147  20.060   9.691   1.406
46080W        W13148  26.541  26.465   1.843
46081W        W13149   1.338  37.354   0.953
46082W        W13150  13.843   9.273   0.308
46083W        W13151  41.490   8.878  11.032
46084W        W13152  26.637  35.865  11.464
46085W        W13153   6.289  23.732  10.116
46086W        W13154  15.585  13.254  11.578
46087W        W13155  36.082  26.566   1.439
46088W        W13156  21.040   2.246   2.340
46089W        W13157  10.648  29.476  10.521
46090W        W13158   1.395  37.367  14.834
46091W        W13159  23.234  31.010  12.558
46092W        W13160   0.876  40.827   3.345
46093W        W13161   9.862  33.549  11.114
46094W        W13162  14.284   8.752  12.454
46095W        W13163  18.605  40.905   3.809
46096W        W13164  40.852   8.781   4.208
46097W        W13165  12.117  32.895   2.272
46098W        W13166  40.849  38.840  14.450
46099W        W13167   6.276  12.843   4.334
46100W        W13168  16.139   1.444  11.022
46101W        W13169  31.123  25.201   3.334
46102W        W13170  24.635  16.089  14.777
46103W        W13171   9.232  30.617   0.937
46104W        W13172  24.618  34.065  13.826
46105W        W13173   9.323  39.342  10.425
46106W        W13174   8.207  30.982  10.630
46107W        W13175   5.863  31.030   4.829
46108W        W13176  44.982  42.359  14.964
46109W        W13177   0.471  25.624   1.866
46110W        W13178  12.271  32.125   2.256
46111W        W13179   0.460  31.913  10.053
46112W        W13180  31.465  23.038  10.089
46113W        W13181  11.694  18.677   2.788
46114W        W13182  38.978   6.211  11.516
46115W        W13183   6.339  40.915   2.337
46116W        W13184  37.461  36.443   4.615
46117W        W13185  25.121   0.843   3.800
46118W        W13186   9.247  41.001  13.807
46119W        W13187  25.521  42.511  12.852
46120W        W13188  21.220   7.732   0.395
46121W        W13189  40.917  18.065   2.884
46122W        W13190  39.426   3.401  14.814
46123W        W13191  34.863  10.872  11.006
46124W        W13192   8.369   1.785   1.379
46125W        W13193  27.197  31.971  10.510
46126W        W13194  21.682  15.209   0.277
46127W        W13195  24.167  41.042  10.005
46128W        W13196  17.282   9.854  13.431
46129W        W13197  20.122   0.332   3.656
46130W        W13198  37.959  38.873  10.916
46131W        W13199  25.077  38.445  11.493
46132W        W13200  42.785  10.865  12.848
46133W        W13201  23.159  43.885   3.832
46134W        W13202  12.838   6.422   3.718
46135W        W13203  38.005  11.667   1.347
46136W        W13204  20.692  10.351   0.726
46137W        W13205  28.602  35.484  14.921
46138W        W13206   6.795  24.497   0.454
46139W        W13207  11.785  33.946   4.667
46140W        W13208  23.596  41.450   3.171
46141W        W13209  25.492  19.735   1.733
46142W        W13210  41.359  42.922  13.037
46143W        W13211  25.481  16.204   2.807
46144W        W13212  17.147   5.361   2.673
46145W        W13213  43.435   6.714   1.294
46146W        W13214   1.812  25.495   0.822
46147W        W13215  23.541  44.335  12.483
46148W        W13216  13.766  38.863   1.734
46149W        W13217  34.875  41.485  14.876
46150W        W13218  38.921   6.703   4.740
46151W        W13219  35.600  41.491  14.408
46152W        W13220  16.218   8.797  11.454
46153W        W13221  19.647  33.423  14.359
46154W        W13222  39.976  33.920   0.796
46155W        W13223  29.555  18.108   1.441
46156W        W13224   1.767  38.432   3.344
46157W        W13225  24.674   0.250  11.886
46158W        W13226   0.819  43.489  11.888
46159W        W13227  23.059  26.664  14.439
46160W        W13228  33.440  39.397  11.879
46161W        W13229   5.881  35.055  14.468
46162W        W13230  39.844   1.285  14.417
46163W        W13231  24.101   2.296   5.114
46164W        W13232  39.018  14.145   0.956
46165W        W13233  23.659  42.346  11.021
46166W        W13234   2.923   5.194   2.894
46167W        W13235  23.600  26.134   2.830
46168W        W13236  19.117  37.353  13.496
46169W        W13237  24.500   1.840   2.293
46170W        W13238  40.044  16.667   2.371
46171W        W13239  11.161  23.722   0.243
46172W        W13240  21.726  36.911   2.815
46173W        W13241  44.760  14.596   0.874
46174W        W13242  22.066  16.779  12.574
46175W        W13243  33.885  26.062   1.863
46176W        W13244  37.014  33.989   0.942
46177W        W13245  16.228  23.004   3.843
46178W        W13246  29.932  27.575   0.380
46179W        W13247  36.471  24.716  11.488
46180W        W13248  30.444  20.135  13.388
46181W        W13249  22.615  10.680  11.432
46182W        W13250  40.367  20.726  13.338
46183W        W13251   4.707  35.533   3.239
46184W        W13252   4.725  23.583   3.278
46185W        W13253  15.290  20.645  11.380
46186W        W13254  20.546  28.981   0.339
46187W        W13255  32.527  12.313   2.766
46188W        W13256  40.501  39.319  12.541
46189W        W13257   6.232  26.043   1.446
46190W        W13258   0.352  21.032   2.377
46191W        W13259  20.190  11.166   1.226
46192W        W13260  20.744  10.311   2.670
46193W        W13261  16.705  25.627   2.810
46194W        W13262  10.207  40.362   2.417
46195W        W13263  30.006  19.202   4.347
46196W        W13264   0.831  30.949   2.776
46197W        W13265   0.966   1.962  14.468
46198W        W13266  17.102   2.825  14.323
46199W        W13267  44.355  32.023   1.415
46200W        W13268  28.085  36.563  13.407
46201W        W13269  12.623  21.548   0.256
46202W        W13270  19.748  43.345  11.498
46203W        W13271  20.156   0.945   2.703
46204W        W13272  18.051   0.957   2.878
46205W        W13273  24.685  16.752  11.071
46206W        W13274  34.514  10.173  14.876
46207W        W13275  16.650  29.930   2.330
46208W        W13276  39.977  20.256  13.895
46209W        W13277   5.335   5.755   0.918
46210W        W13278  33.462  42.866  13.355
46211W        W13279   2.924  12.661  12.993
46212W        W13280  35.479   1.838  11.118
46213W        W13281   2.342  15.588  11.610
46214W        W13282   1.282  37.991   4.629
46215W        W13283  36.527  43.358   3.253
46216W        W13284  23.069  43.285  13.794
46217W        W13285  27.077  18.233   2.349
46218W        W13286  43.456  23.077  10.975
46219W        W13287  44.503  28.990  12.490
46220W        W13288   7.345  24.509  11.882
46221W        W13289  28.618   9.238  13.883
46222W        W13290   7.897  31.049  10.532
46223W        W13291  10.217  26.963  11.080
46224W        W13292  24.710  11.684  12.886
46225W        W13293  21.212  25.105   1.444
46226W        W13294   3.461   1.445  14.467
46227W        W13295   2.230   6.712  14.983
46228W        W13296  11.762  25.160   9.977
46229W        W13297  42.834   4.928   1.848
46230W        W13298  42.815   0.303  12.846
46231W        W13299  20.709  26.142  12.848
46232W        W13300  13.288  35.082  13.918
46233W        W13301   5.820  16.284   5.761
46234W        W13302  14.722  11.770   4.746
46235W        W13303   3.275   2.348   3.309
46236W        W13304   1.929  15.810   1.408
46237W        W13305  10.646  10.378   0.321
46238W        W13306  40.435  16.602   1.435
46239W        W13307  35.945  14.647  10.573
46240W        W13308  41.965  32.519   0.257
46241W        W13309  35.936  16.810  12.034
46242W        W13310  25.043  10.784   1.775
46243W        W13311  27.954  12.625  11.916
46244W        W13312  18.127  13.246   2.864
46245W        W13313  37.477  19.183   2.822
46246W        W13314   5.737   5.706   2.803
46247W        W13315   4.848   4.442   4.273
46248W        W13316  17.221  19.159   3.222
46249W        W13317  32.581  25.569   0.313
46250W        W13318  16.318  16.764  11.035
46251W        W13319  14.262  10.823   2.853
46252W        W13320  35.892   8.170   0.275
46253W        W13321   4.876   6.258   1.795
46254W        W13322  17.130  28.016  10.009
46255W        W13323  28.653  37.544   4.784
46256W        W13324  13.344  40.949  14.452
46257W        W13325   7.380  38.446  14.031
46258W        W13326  17.263  25.965   4.266
46259W        W13327  12.281  42.873  13.021
46260W        W13328  21.246  19.217   4.733
46261W        W13329  28.547  44.353  12.907
46262W        W13330   2.291  36.362  12.832
46263W        W13331   6.201   1.414   4.727
46264W        W13332  14.594  37.910   1.398
46265W        W13333   8.165  38.501   3.364
46266W        W13334  29.013  32.929  10.601
46267W        W13335  29.543   9.386  13.816
46268W        W13336  27.969  33.942   0.283
46269W        W13337  35.861  13.149  13.896
46270W        W13338   8.868  24.676   2.389
46271W        W13339  15.593   7.381  12.381
46272W        W13340  27.571  24.561   0.305
46273W        W13341   8.358  33.942   3.153
46274W        W13342   7.810  23.111   2.339
46275W        W13343  25.527   3.404   2.674
46276W        W13344  24.595  31.481  13.939
46277W        W13345  18.778  20.253  11.991
46278W        W13346  18.646  28.071   0.294
46279W        W13347  28.084   1.376   4.779
46280W        W13348  10.877   2.346  14.407
46281W        W13349  31.915  36.553  10.994
46282W        W13350  14.685  39.876   3.312
46283W        W13351  35.936  28.540  10.577
46284W        W13352  43.962  23.668  13.805
46285W        W13353  42.871  42.996   5.140
46286W        W13354   5.859   1.481  10.971
46287W        W13355  29.437   8.828   4.787
46288W        W13356  34.420  41.830   3.815
46289W        W13357   4.784  20.262  14.874
46290W        W13358  40.853  26.642  11.079
46291W        W13359  40.026  29.514   3.292
46292W        W13360  35.108  16.733   2.874
46293W        W13361  21.166   9.770  12.442
46294W        W13362  38.067  19.115   3.157
46295W        W13363  14.817  18.593   0.413
46296W        W13364   9.288  32.100   2.862
46297W        W13365  35.546  11.282   4.787
46298W        W13366  26.462   1.301  12.020
46299W        W13367  32.006  35.438  13.471
46300W        W13368   3.418   7.345   4.144
46301W        W13369  31.467  12.789   1.328
46302W        W13370  40.428  34.586   3.202
46303W        W13371  27.093  32.894  12.426
46304W        W13372  15.271  15.115  12.565
46305W        W13373  40.340  22.179  11.959
46306W        W13374  18.075  44.479   2.223
46307W        W13375  16.701  31.541   4.272
46308W        W13376  11.721  14.257  11.917
46309W        W13377  10.377  15.084  14.406
46310W        W13378  29.022  19.060  11.593
46311W        W13379  24.674  30.070   1.833
46312W        W13380  41.458  32.135   2.848
46313W        W13381   4.932  23.526   0.453
46314W        W13382  19.209  24.145  11.975
46315W        W13383  20.590  12.300  11.988
46316W        W13384  35.573  42.379  11.504
46317W        W13385   8.253  14.273  11.089
46318W        W13386  30.923  38.515   1.782
46319W        W13387  19.681  15.794  12.509
46320W        W13388  32.014  41.897  10.461
46321W        W13389  28.184  16.646  11.549
46322W        W13390  25.580  26.971  11.604
46323W        W13391  26.068   9.683  11.980
46324W        W13392  41.990  40.411   0.348
46325W        W13393   0.803  22.121  13.406
46326W        W13394  27.508  23.572   1.721
46327W        W13395  31.489  36.996   1.704
46328W        W13396  37.420  19.059   1.261
46329W        W13397  37.991  11.798   2.848
46330W        W13398  31.982  10.173  11.109
46331W        W13399  21.543   3.741  12.473
46332W        W13400  31.110  13.638  14.926
46333W        W13401   5.845  26.664  12.566
46334W        W13402  11.203   4.262   0.472
46335W        W13403  14.264  27.505   2.872
46336W        W13404  44.001  17.232  11.467
46337W        W13405  39.471  21.653   0.734
46338W        W13406   2.462  41.406   2.832
46339W        W13407  41.986  28.136   1.762
46340W        W13408  16.316  22.591   1.371
46341W        W13409  20.178   8.242  12.063
46342W        W13410  11.297   5.816  14.358
46343W        W13411   5.275  33.114  10.910
46344W        W13412   6.748  12.231  12.461
46345W        W13413  19.112  32.568   2.876
46346W        W13414  19.095  12.165  14.930
46347W        W13415  39.021  24.027  13.407
46348W        W13416  23.050  38.377  13.311
46349W        W13417  16.260  42.775   3.213
46350W        W13418  16.142  44.764  10.610
46351W        W13419  11.231  30.056   1.763
46352W        W13420   2.787  23.692   4.253
46353W        W13421  43.378  29.928   2.897
46354W        W13422  29.646  30.448  10.535
46355W        W13423  36.577  40.909  14.352
46356W        W13424  12.332  31.920   4.341
46357W        W13425  33.527  11.313   2.778
46358W        W13426  24.718   6.753  12.826
46359W        W13427   3.300  34.109  11.871
46360W        W13428  20.634  15.241  14.456
46361W        W13429  22.648  17.193  11.039
46362W        W13430  14.632  19.608  10.053
46363W        W13431   1.745  12.305  12.025
46364W        W13432  28.437  43.463  14.289
46365W        W13433   5.397  18.101   2.693
46366W        W13434   9.740  11.790   0.874
46367W        W13435  40.922   3.256   5.186
46368W        W13436   0.767  21.181  11.058
46369W        W13437  10.851  18.616  12.465
46370W        W13438  42.866   8.238   3.267
46371W        W13439  17.167   1.744   4.151
46372W        W13440  37.539  23.074  10.508
46373W        W13441  28.032  35.061   3.354
46374W        W13442  11.667  22.114  11.525
46375W        W13443  44.362  21.656   2.839
46376W        W13444   6.832  13.832   3.294
46377W        W13445  29.643  34.601  11.038
46378W        W13446   1.443  32.421   2.181
46379W        W13447  24.684   7.303   0.753
46380W        W13448  31.151  19.095  13.909
46381W        W13449   4.285  16.654  12.855
46382W        W13450  44.815  14.638  11.906
46383W        W13451   3.430  36.902  14.294
46384W        W13452  17.208  27.984   0.965
46385W        W13453  29.955  39.065   1.249
46386W        W13454   6.243  28.625  12.413
46387W        W13455   9.794  43.966  13.386
46388W        W13456  39.352  34.086  10.566
46389W        W13457  35.048  38.339   3.657
46390W        W13458  33.424  21.208  11.420
46391W        W13459   8.728  21.231  14.406
46392W        W13460  34.440  22.581  11.917
46393W        W13461  25.675  38.402   2.799
46394W        W13462  23.636  29.003   3.256
46395W        W13463  27.012  30.589  12.453
46396W        W13464   4.859  21.017   0.267
46397W        W13465  44.328  31.427  13.441
46398W        W13466   1.772  25.998   0.278
46399W        W13467  44.760  25.703  12.403
46400W        W13468  42.359  35.101   2.692
46401W        W13469   4.303   7.302  11.026
46402W        W13470   2.911  19.694  11.982
46403W        W13471  24.213  27.651   2.850
46404W        W13472  15.314  40.989   2.787
46405W        W13473  15.621  11.182   1.376
46406W        W13474  43.471  18.113  14.418
46407W        W13475  34.973  23.236  11.528
46408W        W13476  42.031  33.048  13.541
46409W        W13477   6.334  34.580  12.962
46410W        W13478  21.719  40.997  12.001
46411W        W13479   4.216  26.128   0.892
46412W        W13480  17.173   9.802  11.399
46413W        W13481  42.986  35.871  10.945
46414W        W13482   9.221  35.378  10.928
46415W        W13483  30.011  31.941   1.233
46416W        W13484  25.066   7.172   4.671
46417W        W13485  13.599  38.974  12.541
46418W        W13486  20.577  15.641   1.727
46419W        W13487   4.927   4.302  14.500
46420W        W13488  36.040  17.734  12.508
46421W        W13489  31.536  25.056   0.290
46422W        W13490  40.378  18.064   0.892
46423W        W13491  19.224  36.568   1.926
46424W        W13492  13.323  28.972   0.736
46425W        W13493  18.282  35.997  10.918
46426W        W13494   3.458  14.187  14.348
46427W        W13495  21.036  24.029  10.511
46428W        W13496  16.259  26.570   1.713
46429W        W13497  26.110  29.014  11.495
46430W        W13498   1.824  13.651   0.457
46431W        W13499  11.777  29.562  14.946
46432W        W13500  41.415  14.238   0.826
46433W        W13501  11.659  14.824   1.908
46434W        W13502  33.045  37.405  13.846
46435W        W13503   6.185  31.908   4.636
46436W        W13504  35.493  12.147  14.399
46437W        W13505  33.481  31.101   0.923
46438W        W13506  33.523   9.168   2.711
46439W        W13507  37.053  38.921   4.672
46440W        W13508  13.246  25.031  10.102
46441W        W13509  14.255  36.054  12.946
46442W        W13510  24.489   3.836  12.080
46443W        W13511  17.579  16.185  13.895
46444W        W13512   4.347  28.039   0.376
46445W        W13513  44.474  15.286  14.796
46446W        W13514  13.846  32.951   0.326
46447W        W13515  14.633  30.526  12.361
46448W        W13516   4.442  42.011   1.697
46449W        W13517  31.405   6.420   4.331
46450W        W13518   4.784  40.045  13.884
46451W        W13519  35.986  22.185  11.441
46452W        W13520  39.534  37.064   2.869
46453W        W13521  36.452  40.808   3.214
46454W        W13522  30.516  20.040   0.920
46455W        W13523  41.988  38.453   1.390
46456W        W13524  13.233  28.436  12.865
46457W        W13525  25.044  34.444   4.699
46458W        W13526  29.090   1.783   0.375
46459W        W13527  13.350  13.826   1.870
46460W        W13528  22.691  36.912   0.951
46461W        W13529  38.357  22.561  12.918
46462W        W13530  10.816  38.965   0.283
46463W        W13531  26.477   6.284   4.271
46464W        W13532   0.262  21.696   3.379
46465W        W13533  25.627  22.681  11.870
46466W        W13534   9.666   6.286   4.697
46467W        W13535  30.430  14.232  11.606
46468W        W13536  27.078  38.432  12.518
46469W        W13537  31.930  14.810  11.480
46470W        W13538  25.147  42.954   2.404
46471W        W13539  19.277   8.368   0.374
46472W        W13540  26.627  31.026  13.428
46473W        W13541  32.112  30.657   3.803
46474W        W13542  33.994  37.541  11.430
46475W        W13543  44.444  21.516  14.358
46476W        W13544  41.418  38.483  11.880
46477W        W13545  35.557   4.449   3.806
46478W        W13546  33.426  29.436  14.999
46479W        W13547  33.915  28.963  10.933
46480W        W13548   7.227  25.161  10.930
46481W        W13549  39.926  29.164   1.442
46482W        W13550  12.184  20.726   4.191
46483W        W13551  24.127  18.287   4.119
46484W        W13552  33.067  27.976   2.757
46485W        W13553  36.467   8.700  11.599
46486W        W13554  24.527  28.620  11.021
46487W        W13555  30.576   4.439   4.351
46488W        W13556  10.370   4.315  12.929
46489W        W13557  40.798   9.252  11.608
46490W        W13558  17.205  43.919   3.692
46491W        W13559  11.669  35.058   2.693
46492W        W13560   6.843  26.643   0.356
46493W        W13561  42.298   8.803   4.347
46494W        W13562  32.487  36.912   3.364
46495W        W13563  11.817  19.117  12.456
46496W        W13564  20.696  32.929  11.094
46497W        W13565   8.317   2.812   2.282
46498W        W13566  21.538  33.595  11.602
46499W        W13567   4.750  43.922   1.806
46500W        W13568   2.737  20.137  11.902
46501W        W13569  17.802  11.766  14.423
46502W        W13570  36.880  24.510  12.539
46503W        W13571  21.612  35.453  11.995
46504W        W13572  37.845  43.966   1.724
46505W        W13573  15.127   0.323  10.486
46506W        W13574  32.401   5.276   1.363
46507W        W13575  27.678  11.682   1.422
46508W        W13576  37.465  35.457  13.319
46509W        W13577  37.941  21.548  14.374
46510W        W13578  29.004  40.500  12.923
46511W        W13579  18.692   8.221   3.702
46512W        W13580   9.748  36.558   3.258
46513W        W13581  24.180  14.176  12.571
46514W        W13582  12.304  30.533   2.412
46515W        W13583  43.459   1.825  12.983
46516W        W13584  12.303  34.961  10.908
46517W        W13585  23.705  43.323  13.464
46518W        W13586  36.352  30.033   3.308
46519W        W13587  14.801   2.808  11.859
46520W        W13588  35.935   0.299  13.842
46521W        W13589  15.708  30.913  11.112
46522W        W13590  43.327  15.274   0.384
46523W        W13591  15.808  19.113   9.965
46524W        W13592  37.452  36.976   4.235
46525W        W13593  25.651  26.975   4.788
46526W        W13594  22.081  18.608   3.213
46527W        W13595  14.201  24.123   2.206
46528W        W13596  27.970  27.978   5.227
46529W        W13597   5.340  36.978  14.949
46530W        W13598  16.318  20.235  13.814
46531W        W13599  15.680   1.763   1.232
46532W        W13600   9.226  31.986   4.739
46533W        W13601  44.415  41.441  10.132
46534W        W13602  23.996   9.170  13.909
46535W        W13603  36.458  21.047   3.846
46536W        W13604   2.472  44.495   2.245
46537W        W13605  20.747  41.395   0.791
46538W        W13606  44.332  18.172   1.794
46539W        W13607  16.745   8.246   3.807
46540W        W13608  39.327  44.814   3.697
46541W        W13609  21.178  28.031  12.081
46542W        W13610  17.579  22.653  10.961
46543W        W13611   8.230  11.303   2.228
46544W        W13612  42.421  12.685   2.380
46545W        W13613  41.533  13.724   0.397
46546W        W13614   8.683  40.982   1.716
46547W        W13615  21.103  35.511   4.754
46548W        W13616   8.365  36.966  14.298
46549W        W13617  24.651  22.179   1.413
46550W        W13618  29.936  13.266  11.541
46551W        W13619   8.182   8.307  11.536
46552W        W13620  35.044  27.526  12.408
46553W        W13621  30.624  17.612  12.399
46554W        W13622   3.318  11.358   1.244
46555W        W13623  13.629  36.382  11.039
46556W        W13624   3.321   8.281  11.016
46557W        W13625   6.688  42.414  12.526
46558W        W13626  12.666  10.645  13.974
46559W        W13627  13.804  19.240   3.748
46560W        W13628  27.635   7.398  13.798
46561W        W13629  17.213  19.102   2.274
46562W        W13630  23.060  30.554   4.179
46563W        W13631  33.554  22.107  13.523
46564W        W13632  29.439  13.684   2.382
46565W        W13633  37.565  42.805  14.507
46566W        W13634  35.570  40.823   1.811
46567W        W13635  34.463   8.261  13.840
46568W        W13636  19.579  27.562  12.087
46569W        W13637   1.757   4.266  10.900
46570W        W13638  36.040   3.937   4.818
46571W        W13639   4.342  34.507  12.487
46572W        W13640   4.260  37.409  12.942
46573W        W13641  23.512  22.141   3.721
46574W        W13642   4.873  26.006  14.313
46575W        W13643  20.688  39.957  13.525
46576W        W13644  24.696  41.033   0.366
46577W        W13645  16.607  44.436  14.989
46578W        W13646  36.054  28.605  13.420
46579W        W13647  28.591   1.243   0.339
46580W        W13648  36.429  11.657  10.928
46581W        W13649  32.549  40.834  13.431
46582W        W13650  26.606   6.223  13.438
46583W        W13651  29.454  11.653   1.912
46584W        W13652  41.958  24.655  12.356
46585W        W13653  19.098  12.231   2.282
46586W        W13654  30.580  27.566   3.787
46587W        W13655  32.067  18.146  10.455
46588W        W13656   7.732  19.152  11.481
46589W        W13657  12.839  21.049   1.334
46590W        W13658  33.434  25.152  13.481
46591W        W13659   2.457  33.113  10.406
46592W        W13660  19.587  29.569  12.012
46593W        W13661  34.429  37.568  12.516
46594W        W13662   9.348  17.787   0.482
46595W        W13663  27.599  20.084  10.501
46596W        W13664  44.442  28.484   3.683
46597W        W13665  22.996  38.955  12.946
46598W        W13666  18.722  22.686  14.460
46599W        W13667  12.161  33.414  10.507
46600W        W13668  32.531  39.011  12.473
46601W        W13669  43.801   4.382   1.242
46602W        W13670   9.206  20.270   1.440
46603W        W13671  33.530  11.144  10.976
46604W        W13672  42.318  18.055  14.393
46605W        W13673  38.872  23.678   0.882
46606W        W13674  31.440  41.434   1.390
46607W        W13675  25.088  38.403   3.663
46608W        W13676  21.031   2.364  14.307
46609W        W13677  30.481  33.562  12.532
46610W        W13678  34.413  12.614  12.529
46611W        W13679  42.284  38.342  11.867
46612W        W13680  22.652  12.720  13.869
46613W        W13681  44.270  22.682  12.940
46614W        W13682  25.656  32.456   1.250
46615W        W13683  38.355   3.915  11.892
46616W        W13684   8.254  42.497  10.528
46617W        W13685  13.279   6.334   0.884
46618W        W13686  37.375   0.442  13.378
46619W        W13687  39.552  13.793  14.479
46620W        W13688  37.936   9.654   4.687
46621W        W13689  36.430  36.969   3.328
46622W        W13690  19.763  38.554   2.903
46623W        W13691  15.752  43.287  13.482
46624W        W13692  30.606  10.227   1.792
46625W        W13693  24.638  12.145   3.814
46626W        W13694  44.825  14.203   3.832
46627W        W13695   7.200  44.422  14.006
46628W        W13696   7.904  12.269  10.944
46629W        W13697   8.797  30.154  11.429
46630W        W13698  31.970  33.494   2.382
46631W        W13699  23.504  10.292  14.950
46632W        W13700   7.712   7.360   5.158
46633W        W13701  13.330  44.978   0.900
46634W        W13702  19.195  34.434  12.549
46635W        W13703  17.136  32.401  11.100
46636W        W13704  15.716  20.605  12.040
46637W        W13705  13.727  29.130  10.972
46638W        W13706  33.590  13.788  12.575
46639W        W13707   8.204   2.771   4.165
46640W        W13708  25.653   9.276  11.506
46641W        W13709  34.487   4.364   0.835
46642W        W13710   7.285  10.861  14.336
46643W        W13711  20.040  41.494   4.224
46644W        W13712   7.374  32.067   0.250
46645W        W13713  17.582  17.271  11.550
46646W        W13714  16.224  21.556  11.944
46647W        W13715  20.527  23.498  12.017
46648W        W13716  44.973  11.340   1.722
46649W        W13717  17.067  21.069   2.871
46650W        W13718   3.350   1.352   4.795
46651W        W13719   2.329  44.455   3.712
46652W        W13720  35.984  22.571  13.030
46653W        W13721  19.629  37.967   1.791
46654W        W13722  21.555   7.277   2.303
46655W        W13723   6.790  10.299  12.449
46656W        W13724   6.215   7.378  10.596
46657W        W13725   3.340  42.996   4.680
46658W        W13726   9.281  15.235  12.896
46659W        W13727  12.153  17.276   3.641
46660W        W13728  25.083   5.919   0.398
46661W        W13729  35.057  19.620   2.717
46662W        W13730  12.846  38.345  11.123
46663W        W13731  35.464  26.111   3.200
46664W        W13732   8.381  26.486   2.889
46665W        W13733  24.094  38.963  13.456
46666W        W13734  25.007   2.932   1.897
46667W        W13735  43.399  12.844  12.831
46668W        W13736  15.293  38.451   4.323
46669W        W13737  37.910  29.150   0.321
46670W        W13738  39.993  31.599   2.277
46671W        W13739  10.316  34.086  10.910
46672W        W13740   9.772   2.751  12.488
46673W        W13741   2.914  12.303   4.352
46674W        W13742  20.627  40.970   3.815
46675W        W13743  21.056  20.163   1.880
46676W        W13744  29.996  34.534  13.996
46677W        W13745  26.559  38.949  14.495
46678W        W13746  44.364   9.178  14.407
46679W        W13747  13.805  23.018  10.559
46680W        W13748   4.300  12.232  13.033
46681W        W13749  13.734  42.323   2.414
46682W        W13750  21.241   7.795   4.254
46683W        W13751  35.980  44.762   3.176
46684W        W13752   2.736  29.509   0.410
46685W        W13753   4.342  13.181  14.946
46686W        W13754  41.854  23.581   4.705
46687W        W13755  29.561  25.186  14.782
46688W        W13756  30.116  22.020   3.201
46689W        W13757  16.283  33.490  10.554
46690W        W13758   8.228  29.551  10.474
46691W        W13759  35.861  28.974  13.372
46692W        W13760   6.221  34.119   3.834
46693W        W13761  28.024  14.823  11.037
46694W        W13762   3.292  24.119  14.419
46695W        W13763  27.061  23.533   4.335
46696W        W13764  15.606  29.428   2.787
46697W        W13765  25.170  15.777  14.791
46698W        W13766  41.442   2.335   1.404
46699W        W13767  12.808  16.156  13.407
46700W        W13768   6.712  27.494   2.682
46701W        W13769  10.226  32.402  12.520
46702W        W13770  29.566  16.703   0.915
46703W        W13771   6.297  12.743  11.479
46704W        W13772  22.573  34.981   2.804
46705W        W13773  36.849   9.868   4.694
46706W        W13774  44.301  22.727   1.870
46707W        W13775  12.728  16.077  13.895
46708W        W13776  10.358   0.802   0.817
46709W        W13777  37.554   0.327   2.677
46710W        W13778   8.814  37.863  14.970
46711W        W13779  14.623  34.054  14.015
46712W        W13780  19.144  33.109  11.050
46713W        W13781  28.490  15.800  12.393
46714W        W13782  37.580  38.900   0.317
46715W        W13783   3.942  38.414   0.849
46716W        W13784  44.480  11.351   4.623
46717W        W13785   3.848  41.295  11.393
46718W        W13786  40.314   3.828   3.345
46719W        W13787  44.444  16.194  13.331
46720W        W13788  14.189   4.859   2.809
46721W        W13789   0.474   1.792  12.012
46722W        W13790   3.251  17.666  11.515
46723W        W13791  21.666  43.990  11.103
46724W        W13792  36.930  41.893   4.162
46725W        W13793  22.214  19.557   1.709
46726W        W13794  41.516  44.279   3.822
46727W        W13795  43.386  23.634   9.943
46728W        W13796  33.063  26.074   0.313
46729W        W13797  37.013   2.857  12.340
46730W        W13798   7.731  30.489  14.479
46731W        W13799   3.370  11.796  13.864
46732W        W13800  10.649  36.510  12.879
46733W        W13801   4.753  10.798  10.559
46734W        W13802  21.631  17.722   0.927
46735W        W13803  31.101  18.200   2.876
46736W        W13804   6.184  16.197   2.297
46737W        W13805   5.328   8.713   2.227
46738W        W13806  26.952  27.955  14.477
46739W        W13807  42.401   4.325   2.285
46740W        W13808   1.263  39.343   4.788
46741W        W13809  22.529   8.349   4.168
46742W        W13810   2.467  21.623  12.493
46743W        W13811  28.172  30.938   1.298
46744W        W13812  35.436  24.981   1.299
46745W        W13813  12.721   6.887  11.093
46746W        W13814  39.331  10.724   3.188
46747W        W13815  40.430  43.320  10.447
46748W        W13816  34.538  11.633   3.663
46749W        W13817  18.571   4.737   1.382
46750W        W13818   6.293  17.232   4.231
46751W        W13819  22.605  19.179  14.940
46752W        W13820  43.007  28.542  11.582
46753W        W13821  25.480  23.620  10.581
46754W        W13822  17.286  25.020   4.706
46755W        W13823  30.474   4.326   4.752
46756W        W13824  28.648  44.354   0.432
46757W        W13825  37.482   2.443  10.520
46758W        W13826  36.851  11.210  13.004
46759W        W13827   3.870  27.002  14.953
46760W        W13828  38.513   2.228  10.936
46761W        W13829  16.787  20.579   3.825
46762W        W13830  35.496  15.095   3.370
46763W        W13831  10.285  39.044   4.199
46764W        W13832  27.152  14.705   3.383
46765W        W13833  33.435  34.525   1.712
46766W        W13834  19.757  44.886  10.641
46767W        W13835  28.071  24.198  13.915
46768W        W13836   4.426   4.787   2.204
46769W        W13837   5.328   2.734  13.919
46770W        W13838   7.801  11.804  14.891
46771W        W13839  12.834  43.274  14.980
46772W        W13840  19.214  28.647   0.254
46773W        W13841  21.723  43.975   4.173
46774W        W13842  27.055  24.706  14.809
46775W        W13843  18.236  35.935   3.863
46776W        W13844  16.139  11.745  13.056
46777W        W13845  14.710  20.197  13.044
46778W        W13846  11.132  30.501  12.094
46779W        W13847  28.158   7.275  14.798
46780W        W13848  37.037   3.914  14.981
46781W        W13849  30.414  38.047   0.289
46782W        W13850  39.005  14.255  12.945
46783W        W13851  36.423  11.850   2.334
46784W        W13852  11.247   3.890  13.466
46785W        W13853  41.429  23.232   2.188
46786W        W13854  34.557  34.566   0.355
46787W        W13855   3.784   6.334   1.874
46788W        W13856  41.801  39.468   1.801
46789W        W13857  34.954   8.750   4.672
46790W        W13858   6.886  21.517  11.377
46791W        W13859  24.131  24.061   4.156
46792W        W13860  38.564   5.826  11.088
46793W        W13861  36.538   0.829  10.015
46794W        W13862   4.399  41.295   1.865
46795W        W13863   4.420  22.524   4.663
46796W        W13864  19.694   2.811   3.194
46797W        W13865  14.175  30.469   2.249
46798W        W13866  15.790  32.019   0.356
46799W        W13867   8.737  20.689  14.857
46800W        W13868   4.885  21.610   4.224
46801W        W13869  10.822  16.783  12.451
46802W        W13870  27.495  44.835   1.330
46803W        W13871   8.727  19.063  11.861
46804W        W13872  14.820  26.192   3.384
46805W        W13873  44.769  38.495  14.863
46806W        W13874  44.447  24.536   3.154
46807W        W13875  12.758   4.869   3.694
46808W        W13876  37.946  28.028  11.063
46809W        W13877  10.778  10.372   2.331
46810W        W13878  18.742  19.757   4.672
46811W        W13879   8.336  44.422  11.113
46812W        W13880  44.273  21.702  11.448
46813W        W13881  13.794  17.565  11.047
46814W        W13882  16.640  11.669   4.620
46815W        W13883  26.637  20.685   4.667
46816W        W13884  18.696  40.806   4.624
46817W        W13885  32.535  17.289   2.713
46818W        W13886  14.199  41.358   3.751
46819W        W13887  16.123  11.170  14.462
46820W        W13888   5.312   2.234  13.994
46821W        W13889  27.625  20.084  12.828
46822W        W13890  16.079  39.954   3.231
46823W        W13891  26.139  26.060  14.371
46824W        W13892  12.231  11.304   3.183
46825W        W13893  40.907   8.281   4.217
46826W        W13894   2.286  22.137   0.942
46827W        W13895  25.520  20.125   2.338
46828W        W13896  34.871  34.963  12.938
46829W        W13897  10.289  20.194  10.517
46830W        W13898  44.829  33.394  12.088
46831W        W13899  19.579  30.647  12.051
46832W        W13900  27.142  10.220   2.239
46833W        W13901  31.938  23.135  12.996
46834W        W13902  39.853  10.814  13.009
46835W        W13903  25.984   2.924   0.247
46836W        W13904   2.760  16.128   3.679
46837W        W13905  23.648  21.151  14.503
46838W        W13906   7.691   5.331  12.877
46839W        W13907  15.657  25.656   5.111
46840W        W13908  12.787   0.473  12.989
46841W        W13909  18.602   6.330   2.730
46842W        W13910  42.829  12.812   4.626
46843W        W13911  27.956  31.407  13.471
46844W        W13912  18.703  31.925   2.792
46845W        W13913   9.646  27.118   4.798
46846W        W13914  36.547   4.377  14.438
46847W        W13915  23.154   9.342  11.604
46848W        W13916   6.760  34.983  12.044
46849W        W13917  14.719   5.930   4.829
46850W        W13918  11.700   5.862  14.324
46851W        W13919  13.630  24.166   3.663
46852W        W13920   8.849   5.903   0.935
46853W        W13921   0.292  19.588   1.789
46854W        W13922  11.625   5.261   1.268
46855W        W13923  20.222   8.251   0.767
46856W        W13924  13.195  44.851   3.820
46857W        W13925   1.738  26.466   3.758
46858W        W13926   9.366  38.555   4.623
46859W        W13927  14.604  29.065   2.211
46860W        W13928  35.452  35.596   1.789
46861W        W13929  13.156  22.559  14.985
46862W        W13930   2.287   2.254   1.877
46863W        W13931  20.067   4.719  13.461
46864W        W13932  30.111  30.590   0.284
46865W        W13933  17.576  24.169   2.240
46866W        W13934  29.938   4.340  10.983
46867W        W13935  27.128  10.167  11.062
46868W        W13936  13.243  42.323   1.414
46869W        W13937  28.026  17.249   0.767
46870W        W13938  40.954  42.915   3.380
46871W        W13939  20.711  43.382  12.546
46872W        W13940  38.975   4.344  14.785
46873W        W13941  39.947  25.588   4.191
46874W        W13942   6.749  17.212  14.469
46875W        W13943  37.066  25.994   1.761
46876W        W13944  24.173   7.701   1.225
46877W        W13945   1.241  18.107   4.253
46878W        W13946  12.830   3.224  14.353
46879W        W13947  17.284  39.935  10.976
46880W        W13948  18.112  42.467   4.177
46881W        W13949  31.029  10.312  11.405
46882W        W13950   6.424   5.286  13.976
46883W        W13951   5.831   8.210   4.312
46884W        W13952  12.838   7.728  11.070
46885W        W13953  38.885   1.960   2.366
46886W        W13954  15.292  23.082   0.864
46887W        W13955  21.524  32.636   1.747
46888W        W13956   6.695  12.280   4.636
46889W        W13957  10.657  35.940  12.848
46890W        W13958  39.368  34.513   1.318
46891W        W13959  26.592  34.588  10.642
46892W        W13960  35.056   1.836   4.292
46893W        W13961  22.077  25.976   3.839
46894W        W13962  37.083  22.187  10.536
46895W        W13963  38.914  35.384   3.642
46896W        W13964  39.462  21.590  12.562
46897W        W13965  18.054  32.917   1.362
46898W        W13966   0.312  38.509   0.380
46899W        W13967  15.196  30.645  13.016
46900W        W13968   4.259   4.915  11.486
46901W        W13969  17.692  35.075  14.328
46902W        W13970  16.294   5.206   3.673
46903W        W13971   7.759  18.685  14.463
46904W        W13972  39.479  30.642   2.754
46905W        W13973  40.850  34.954   3.838
46906W        W13974  29.467  16.718  10.098
46907W        W13975  44.298  40.305   4.257
46908W        W13976   8.766  20.114   4.766
46909W        W13977  16.663  41.875  10.983
46910W        W13978   2.437   8.808  10.944
46911W        W13979  24.544   2.866   0.248
46912W        W13980  19.773  24.060   1.349
46913W        W13981  13.630  31.923  13.826
46914W        W13982  42.891  29.492  10.508
46915W        W13983   9.815  35.499  12.871
46916W        W13984   4.770  44.999   2.903
46917W        W13985  30.554  25.557  10.992
46918W        W13986  37.543  15.174   3.227
46919W        W13987  39.948  44.820  14.366
46920W        W13988  21.545  23.216   4.687
46921W        W13989   5.736  19.181  14.400
46922W        W13990  21.119  36.549   0.845
46923W        W13991   0.256  36.889  13.420
46924W        W13992  44.845  15.094   4.798
46925W        W13993  39.418  28.976   4.834
46926W        W13994   9.349   7.892  11.392
46927W        W13995  13.117  28.104  14.864
46928W        W13996   3.289  29.153  12.554
46929W        W13997  28.637  20.030  13.479
46930W        W13998   8.803  35.003   0.906
46931W        W13999  26.469  39.969  11.982
46932W        W14000  35.975  42.784  10.565
46933W        W14001  25.468  24.154   1.246
46934W        W14002   7.377  26.563   3.650
46935W        W14003   4.260  15.788   1.293
46936W        W14004  33.610  42.377   0.344
46937W        W14005   8.757  40.473  11.095
46938W        W14006  24.045   9.387   4.188
46939W        W14007  40.528  15.144  12.830
46940W        W14008   0.770   1.458   1.745
46941W        W14009  17.139  17.663   1.927
46942W        W14010  37.988   1.945  10.500
46943W        W14011  36.526  42.302  12.079
46944W        W14012  19.760  11.265   2.178
46945W        W14013  15.085  14.141   2.685
46946W        W14014  34.103  44.897  11.124
46947W        W14015  11.240  34.890  14.338
46948W        W14016  34.088  15.286  13.853
46949W        W14017  43.886  37.437   5.146
46950W        W14018   2.890   6.401  11.430
46951W        W14019  27.117  32.579  11.392
46952W        W14020   6.200   0.965   3.317
46953W        W14021  31.947  19.252   3.821
46954W        W14022   2.902   9.662   0.907
46955W        W14023   1.462  41.858   2.702
46956W        W14024  44.362  30.541   0.816
46957W        W14025  18.601  19.205  12.525
46958W        W14026  15.601  28.441  14.878
46959W        W14027   7.293  10.289  14.498
46960W        W14028  43.459  15.119   0.750
46961W        W14029  35.977  42.317  11.952
46962W        W14030  35.899  27.109   4.759
46963W        W14031  12.748  28.087  14.943
46964W        W14032  44.805   9.715   1.234
46965W        W14033  42.298  14.285  13.335
46966W        W14034  43.318  42.293   4.225
46967W        W14035  11.152  17.231  10.576
46968W        W14036  10.643  24.627   4.598
46969W        W14037  10.846   0.759   0.737
46970W        W14038  17.787   7.303  11.600
46971W        W14039  43.802  33.057   0.951
46972W        W14040  30.438   1.380   0.877
46973W        W14041  25.076   4.406  11.425
46974W        W14042  32.963   2.874   0.919
46975W        W14043  27.454  35.560  13.052
46976W        W14044  35.464   8.177  11.055
46977W        W14045  17.146   2.415  13.965
46978W        W14046  40.324  11.203   0.424
46979W        W14047  19.660  40.820  13.479
46980W        W14048   5.827  23.682  10.932
46981W        W14049  10.735  35.405   3.729
46982W        W14050  41.807  24.543   0.884
46983W        W14051  21.150  27.543   0.304
46984W        W14052  11.828  31.994  13.856
46985W        W14053  28.558   1.913  11.407
46986W        W14054  33.883   3.774   3.699
46987W        W14055  20.562  27.074   2.195
46988W        W14056  24.712   3.772   0.432
46989W        W14057  31.932  43.905  14.996
46990W        W14058  25.598  27.031  10.950
46991W        W14059  26.565  11.334   2.722
46992W        W14060   7.841   1.937  12.850
46993W        W14061  37.063  39.005  14.000
46994W        W14062   2.466  10.202  14.853
46995W        W14063  44.950  29.964  10.411
46996W        W14064  42.812  13.199  11.590
46997W        W14065  18.692  36.532   1.755
46998W        W14066  41.356  20.275  10.588
46999W        W14067  25.066  33.608   3.850
47000W        W14068   7.904  30.487  10.092
47001W        W14069  19.644  21.696   2.331
47002W        W14070  41.339  13.724  13.473
47003W        W14071  12.317  33.950  13.025
47004W        W14072  37.867  44.841  12.498
47005W        W14073  16.159  35.922  10.517
47006W        W14074   0.319  41.408  10.979
47007W        W14075  25.493  32.630  10.438
47008W        W14076   7.698  41.946   4.783
47009W        W14077  39.346  22.677  14.819
47010W        W14078  10.692  44.818   1.778
47011W        W14079  41.809  23.230  11.429
47012W        W14080  28.118  36.354  11.875
47013W        W14081  11.304  12.748  10.595
47014W        W14082  37.515  31.927   0.770
47015W        W14083  42.464   8.723  14.835
47016W        W14084  39.354  42.957   2.206
47017W        W14085   2.787  27.974  12.497
47018W        W14086  35.888  15.654  12.988
47019W        W14087  22.590   2.726  10.908
47020W        W14088   4.881  44.286  13.472
47021W        W14089  34.406   0.429   4.226
47022W        W14090  11.229  26.684   3.202
47023W        W14091  44.885  42.968  12.438
47024W        W14092  25.552   3.404  11.437
47025W        W14093  20.144  29.945  14.396
47026W        W14094  19.776  14.790   4.128
47027W        W14095  42.390  28.628   2.270
47028W        W14096  11.344  15.672   1.408
47029W        W14097   0.437  39.341   0.304
47030W        W14098  32.569  42.017  13.342
47031W        W14099   3.751  23.187  13.904
47032W        W14100  44.876  27.647  13.336
47033W        W14101   5.253  27.666   3.802
47034W        W14102  25.093  19.721   2.871
47035W        W14103  19.079  27.029  12.358
47036W        W14104  28.065   5.781  12.558
47037W        W14105  14.729  20.698   1.224
47038W        W14106   1.384  22.109  14.963
47039W        W14107  13.205  30.433  11.436
47040W        W14108  10.384  37.019  13.915
47041W        W14109  26.678  41.327  14.419
47042W        W14110  18.723  19.717  10.911
47043W        W14111  29.551  20.708  14.907
47044W        W14112   0.815  32.564  13.548
47045W        W14113  27.574  32.456   4.279
47046W        W14114  14.656  33.536   0.791
47047W        W14115  34.460  43.852  11.974
47048W        W14116  38.968  25.529  13.813
47049W        W14117   8.658  36.531   0.430
47050W        W14118  15.653   0.393  12.540
47051W        W14119  36.589  42.979  10.974
47052W        W14120   2.931  19.755   2.332
47053W        W14121  28.513  23.608  11.464
47054W        W14122  12.689  27.524   0.426
47055W        W14123   9.281  10.333  10.456
47056W        W14124  32.569  36.576  14.984
47057W        W14125   1.968  34.924   4.345
47058W        W14126  15.748  38.936   4.735
47059W        W14127  42.007  18.617  13.461
47060W        W14128  10.311  23.667   1.907
47061W        W14129  15.777   3.296   3.667
47062W        W14130  43.952  13.640   0.854
47063W        W14131   7.875  13.291   3.306
47064W        W14132  41.499  34.090  11.074
47065W        W14133  36.462  16.723   3.822
47066W        W14134  20.123  21.548  12.900
47067W        W14135  26.576  15.656   1.437
47068W        W14136  18.183  33.111   3.696
47069W        W14137  11.804  43.472   3.850
47070W        W14138  20.540   1.398  14.287
47071W        W14139  42.996  14.654   5.103
47072W        W14140  23.174  13.759   2.823
47073W        W14141  30.610  15.657  14.316
47074W        W14142  30.507  19.231   2.862
47075W        W14143  41.527   1.736   1.360
47076W        W14144  42.342  32.891  12.527
47077W        W14145  17.155  11.678   4.315
47078W        W14146  15.204  30.088  12.075
47079W        W14147   6.680  31.132  14.319
47080W        W14148   0.430  17.613   4.682
47081W        W14149  27.145  12.649   2.243
47082W        W14150  18.707  20.241   0.453
47083W        W14151   3.940   1.880  10.048
47084W        W14152  41.536  38.832  12.392
47085W        W14153  21.520   5.893   2.191
47086W        W14154   3.267   9.297   3.221
47087W        W14155   2.728  40.039  12.453
47088W        W14156  18.268  29.988  12.479
47089W        W14157  21.064  15.265   2.345
47090W        W14158  39.879  35.385   0.470
47091W        W14159  37.065  40.046   4.704
47092W        W14160  41.815  41.501  12.348
47093W        W14161  42.376  26.526  13.425
47094W        W14162  41.954  30.040   3.217
47095W        W14163  36.013  10.370  10.098
47096W        W14164  39.874  31.971   4.215
47097W        W14165  11.146   4.797  11.458
47098W        W14166  20.159  44.285  11.411
47099W        W14167  27.623  22.573   2.770
47100W        W14168  27.943  30.115   2.282
47101W        W14169  17.754  37.023   1.263
47102W        W14170  31.119   2.468   0.249
47103W        W14171  32.427  13.203  10.145
47104W        W14172  16.729  14.812  14.836
47105W        W14173  37.003  12.715   1.400
47106W        W14174  43.465   4.732   2.664
47107W        W14175  16.131   5.283  14.996
47108W        W14176  15.670  40.039  12.015
47109W        W14177  17.245  14.201  10.497
47110W        W14178  44.952  28.455   3.189
47111W        W14179  42.996  17.267  13.322
47112W        W14180  27.997   4.227  11.868
47113W        W14181  14.722   9.647   1.771
47114W        W14182  43.787  32.922   5.209
47115W        W14183  29.047  41.322  13.050
47116W        W14184  27.961  13.806   2.198
47117W        W14185  25.183  26.960  12.366
47118W        W14186  27.179  41.985  11.960
47119W        W14187  34.937  36.852  13.938
47120W        W14188  31.560   5.879  11.903
47121W        W14189  37.025   3.937   4.214
47122W        W14190  34.993   9.298  11.457
47123W        W14191  28.556   3.335   3.814
47124W        W14192  26.140  11.257  11.380
47125W        W14193  18.106  36.449   0.923
47126W        W14194  20.749   8.764   4.604
47127W        W14195  31.009   4.854   1.324
47128W        W14196  13.180   3.380  12.382
47129W        W14197   3.390  35.490  13.376
47130W        W14198   4.262   8.864  14.821
47131W        W14199  12.634   2.383   1.312
47132W        W14200  18.270  21.111   3.630
47133W        W14201  16.252  15.153   0.245
47134W        W14202  40.938  16.217   2.194
47135W        W14203  28.442  35.473   4.760
47136W        W14204   5.770  37.887   1.704
47137W        W14205  36.974   7.838  11.957
47138W        W14206  43.825  34.571  11.540
47139W        W14207   5.780   5.411  13.030
47140W        W14208  28.004  18.735  14.339
47141W        W14209  39.852   7.903  11.925
47142W        W14210  14.223  15.672  13.791
47143W        W14211  29.587  23.080   1.394
47144W        W14212  27.463  40.313  12.851
47145W        W14213  17.681  39.910  11.495
47146W        W14214  33.576  29.660  13.025
47147W        W14215   0.336  21.022   2.761
47148W        W14216  22.551  10.680  13.058
47149W        W14217  24.208  28.177   1.923
47150W        W14218  20.146   2.929  11.063
47151W        W14219   2.815   9.285  13.993
47152W        W14220  40.912  19.544   3.666
47153W        W14221   6.839  25.605   4.117
47154W        W14222  36.864  33.451   3.799
47155W        W14223  29.630   6.777  11.386
47156W        W14224  26.005  39.499  14.847
47157W        W14225  21.571  10.651   1.218
47158W        W14226   5.337   4.289   2.397
47159W        W14227  18.091  24.078   4.784
47160W        W14228  15.747   7.750   9.643
47161W        W14229  24.028   8.858  11.565
47162W        W14230  39.878  31.962   2.881
47163W        W14231  37.904  37.494   0.358
47164W        W14232  29.997  39.516   4.645
47165W        W14233  20.730  32.127   0.743
47166W        W14234  26.591   3.312   1.228
47167W        W14235  11.326  11.262  11.522
47168W        W14236  44.465  25.468   0.898
47169W        W14237  22.688  33.881  12.946
47170W        W14238   2.910  34.894  13.528
47171W        W14239  13.617   7.250   0.259
47172W        W14240  44.337   3.275  11.579
47173W        W14241   3.438  23.663   0.380
47174W        W14242   3.921  43.888  14.400
47175W        W14243  11.255  13.830   4.646
47176W        W14244  39.817  12.272   4.798
47177W        W14245   6.357  39.888  11.422
47178W        W14246  12.290  37.854  14.957
47179W        W14247  34.092  16.625  10.980
47180W        W14248  30.572  23.041   2.271
47181W        W14249  22.200  29.985   2.729
47182W        W14250  10.755   2.882  10.052
47183W        W14251  33.921  40.371   0.407
47184W        W14252  18.719  21.200   3.252
47185W        W14253   3.362  17.290  10.600
47186W        W14254  29.994   3.424  12.946
47187W        W14255  16.753  41.317   4.244
47188W        W14256  44.263   9.827  12.937
47189W        W14257  15.824  19.127   0.391
47190W        W14258  17.731  31.043  12.026
47191W        W14259  13.699  14.747  12.549
47192W        W14260   7.685   4.228   1.736
47193W        W14261  29.618  13.615   2.782
47194W        W14262  26.158  29.929   1.312
47195W        W14263  16.103  28.484   2.753
47196W        W14264  15.664  34.058  12.386
47197W        W14265   8.802  26.967  11.967
47198W        W14266  35.032  27.035  14.907
47199W        W14267   0.845  42.907   4.833
47200W        W14268  24.004  44.914   1.432
47201W        W14269  24.701  44.279   4.626
47202W        W14270  40.864   0.458   0.445
47203W        W14271  41.922   5.231   3.228
47204W        W14272  14.306  11.624  13.834
47205W        W14273  27.686  17.745  14.785
47206W        W14274  10.825  20.631   2.756
47207W        W14275  31.045  19.592  10.104
47208W        W14276  31.439   0.416  13.348
47209W        W14277  18.772  37.847   2.186
47210W        W14278  12.206  19.762   4.332
47211W        W14279  42.019  13.329   3.823
47212W        W14280   8.683  14.137  12.420
47213W        W14281   4.290  34.434   0.390
47214W        W14282   3.951  25.198   0.801
47215W        W14283  41.850  32.526   2.410
47216W        W14284  31.407  31.403  12.875
47217W        W14285  16.646  28.007   2.256
47218W        W14286   8.369  37.411   2.302
47219W        W14287  25.966  11.139   1.918
47220W        W14288  22.146   4.944   2.248
47221W        W14289  26.142  22.724   2.758
47222W        W14290  22.598  21.743   3.769
47223W        W14291  27.116   6.886   3.775
47224W        W14292   2.382  23.705  13.481
47225W        W14293  22.227  38.986  13.052
47226W        W14294   2.378   0.989  13.983
47227W        W14295  40.312  21.741  12.377
47228W        W14296  42.333  44.942  12.467
47229W        W14297   3.342  37.968   0.452
47230W        W14298   7.718  25.672   1.707
47231W        W14299  24.490  42.014  12.976
47232W        W14300  11.246  38.525  10.428
47233W        W14301   7.769  38.514  13.910
47234W        W14302  15.254   0.371   1.292
47235W        W14303  23.513   1.846   0.929
47236W        W14304  32.430  41.346  11.005
47237W        W14305  33.959  16.071  13.826
47238W        W14306   6.371  23.160   2.682
47239W        W14307  22.019  20.613  14.426
47240W        W14308  12.750  38.555  10.450
47241W        W14309  28.075  37.857  12.906
47242W        W14310  32.018  26.184  13.038
47243W        W14311  29.920  16.114   5.714
47244W        W14312  17.303  20.261   0.770
47245W        W14313  14.141  27.194   4.633
47246W        W14314  12.257  32.461  10.550
47247W        W14315  18.082  37.418  11.987
47248W        W14316  17.137  10.299   5.237
47249W        W14317  40.904  23.711   2.875
47250W        W14318  42.886   5.701   4.159
47251W        W14319  14.618   4.873  11.471
47252W        W14320  13.340  39.004  12.518
47253W        W14321  19.625  28.530   3.848
47254W        W14322  29.440  33.502   3.368
47255W        W14323  28.079  39.466  11.374
47256W        W14324  15.755  28.069   2.724
47257W        W14325  30.455  12.682  14.441
47258W        W14326  26.968  43.790   0.309
47259W        W14327  30.981  12.653  10.587
47260W        W14328  19.192  31.444   3.844
47261W        W14329  20.763  41.387   3.275
47262W        W14330  24.985  31.462  12.492
47263W        W14331  41.305  19.127   1.925
47264W        W14332  10.784  22.091  12.559
47265W        W14333  33.101   4.231  11.033
47266W        W14334  37.012  33.994  13.358
47267W        W14335  29.652  29.626  11.965
47268W        W14336  20.183  44.953   1.736
47269W        W14337   5.208  30.034   4.805
47270W        W14338   9.728  44.866  12.551
47271W        W14339  26.601  11.713   1.930
47272W        W14340   9.738  12.290   4.172
47273W        W14341  31.049  31.487  13.498
47274W        W14342  36.488  17.605  12.913
47275W        W14343  16.208   7.271   4.622
47276W        W14344   3.808  30.467   4.749
47277W        W14345  43.382   6.407  14.493
47278W        W14346  36.551  26.080   1.754
47279W        W14347  14.231  34.522   2.218
47280W        W14348  28.510  10.733   3.291
47281W        W14349  34.071  13.292  12.949
47282W        W14350  15.578  28.468   0.466
47283W        W14351   9.387  30.565   0.376
47284W        W14352  18.560  15.233   2.338
47285W        W14353  33.014  30.469   1.271
47286W        W14354  10.712  14.329   4.339
47287W        W14355  11.721  25.527   2.677
47288W        W14356  33.459  44.789   4.271
47289W        W14357   9.372  20.651  12.339
47290W        W14358  29.497  20.187   0.854
47291W        W14359   2.362  36.423  11.863
47292W        W14360   4.818  43.281   4.266
47293W        W14361   9.869  40.359   2.663
47294W        W14362  24.674   9.760   1.707
47295W        W14363  36.480  29.059  10.992
47296W        W14364   3.319  40.969  13.011
47297W        W14365  36.032  20.042   0.345
47298W        W14366  16.079  29.063  14.979
47299W        W14367  44.363  36.931   2.333
47300W        W14368   8.836  42.879   3.279
47301W        W14369  15.175   3.274  12.870
47302W        W14370  26.550  22.647   0.887
47303W        W14371   5.228  25.587   1.865
47304W        W14372  25.974  31.151  12.415
47305W        W14373   7.911   3.883   0.748
47306W        W14374  15.785   6.211  11.396
47307W        W14375   4.892  11.833  14.821
47308W        W14376   6.916  28.584  13.339
47309W        W14377  35.440  16.585  12.448
47310W        W14378   6.905  19.226   0.266
47311W        W14379  41.863  39.550   4.252
47312W        W14380   9.376  12.320   0.266
47313W        W14381  35.377  19.046  14.447
47314W        W14382  36.926   6.353  14.853
47315W        W14383  12.625  24.513  12.393
47316W        W14384   6.271  10.654  11.897
47317W        W14385  33.883  19.275  13.358
47318W        W14386  11.191  33.103   2.686
47319W        W14387  30.930   6.222   3.801
47320W        W14388  41.888  22.740   0.379
47321W        W14389  31.565  34.532   3.741
47322W        W14390   5.868  11.828  11.406
47323W        W14391  36.876  40.824   1.228
47324W        W14392  22.569  35.409  12.839
47325W        W14393   6.780  40.015  11.564
47326W        W14394   9.342   0.462   0.737
47327W        W14395  32.456   3.270   0.312
47328W        W14396  15.714  18.771   1.231
47329W        W14397  15.171  36.006   0.395
47330W        W14398  43.433  38.551  12.560
47331W        W14399  10.312  25.607   3.718
47332W        W14400  39.978  12.313  10.487
47333W        W14401  14.143   6.736   0.254
47334W        W14402  21.571  16.148   4.833
47335W        W14403  16.605  23.598   0.447
47336W        W14404  42.295  39.958  14.908
47337W        W14405   4.723  36.489   2.702
47338W        W14406   5.782   9.733  11.488
47339W        W14407  35.563  15.186   3.864
47340W        W14408  15.761  14.296   0.338
47341W        W14409  36.547  30.490  13.887
47342W        W14410  31.619  10.688   2.277
47343W        W14411  11.640  39.989  11.537
47344W        W14412  40.327  26.115   3.182
47345W        W14413  44.780  27.491   2.185
47346W        W14414  31.434  31.515  14.897
47347W        W14415  19.615  38.409   9.961
47348W        W14416  41.358  40.443   5.228
47349W        W14417  23.214   2.235  13.890
47350W        W14418  18.206   1.900   3.183
47351W        W14419   5.305   4.844   4.809
47352W        W14420  16.197  25.526   4.300
47353W        W14421  12.274   9.849  12.385
47354W        W14422   3.944  18.775   4.221
47355W        W14423  22.734  39.457  13.519
47356W        W14424  33.407  35.888  14.953
47357W        W14425  10.828   7.795   2.684
47358W        W14426   0.826  17.290  13.327
47359W        W14427  33.109  19.740   0.789
47360W        W14428  36.865  19.635   0.887
47361W        W14429   1.355   2.960  10.897
47362W        W14430   2.901  42.417  10.605
47363W        W14431  26.638   5.749  11.106
47364W        W14432   7.770  33.474  14.006
47365W        W14433  44.423  19.758  13.438
47366W        W14434  29.034  37.853  14.841
47367W        W14435  36.434   8.803  12.556
47368W        W14436  10.282  43.287  11.523
47369W        W14437  41.382  12.679  10.926
47370W        W14438  40.991  40.008  12.996
47371W        W14439  31.474  13.658  12.826
47372W        W14440  16.100   7.896   1.412
47373W        W14441   5.751  24.528   0.471
47374W        W14442  16.125   6.220  13.504
47375W        W14443  30.109  21.617   3.175
47376W        W14444  31.059   7.827   1.447
47377W        W14445  31.531  38.069  11.406
47378W        W14446  30.952  44.913  11.391
47379W        W14447  13.215  41.408   0.348
47380W        W14448  27.951   6.290   0.951
47381W        W14449  20.693  15.318  11.580
47382W        W14450  37.913  40.346  10.463
47383W        W14451  18.263   9.237   4.778
47384W        W14452  23.208  22.576   3.188
47385W        W14453  24.174  15.635  12.469
47386W        W14454  44.402  18.669   4.737
47387W        W14455  37.441  27.677   4.253
47388W        W14456  33.011   6.354  14.293
47389W        W14457  35.970  43.410  13.009
47390W        W14458  35.106  42.466  13.996
47391W        W14459  24.682  31.641   3.635
47392W        W14460  32.548  23.168  11.501
47393W        W14461  34.870  30.031  14.984
47394W        W14462  23.656  44.484  13.826
47395W        W14463  26.050  38.065  10.950
47396W        W14464  16.314  14.783  11.407
47397W        W14465  26.648  31.991  13.966
47398W        W14466   1.916  36.098   3.840
47399W        W14467  32.626  29.035  11.610
47400W        W14468  21.170  13.814   2.733
47401W        W14469  40.862  39.531  13.536
47402W        W14470  21.654   4.710  11.383
47403W        W14471  41.984  16.614   0.893
47404W        W14472  22.655  35.901   0.333
47405W        W14473  16.146  16.675  11.997
47406W        W14474   3.876  33.609  11.993
47407W        W14475  38.927   3.748   2.763
47408W        W14476  24.601  17.782   0.864
47409W        W14477   1.761  15.594   0.330
47410W        W14478  28.098  38.966  13.027
47411W        W14479  38.844  39.815  14.462
47412W        W14480  16.254   8.808   2.389
47413W        W14481  21.758  14.220   0.263
47414W        W14482  33.882  19.688   3.704
47415W        W14483  16.247  28.023  13.050
47416W        W14484  12.829   9.782   1.752
47417W        W14485   8.738  22.046   1.420
47418W        W14486  13.710  33.544  14.767
47419W        W14487  22.699  36.397   1.252
47420W        W14488   0.818  30.611  12.826
47421W        W14489  25.013  18.552   3.799
47422W        W14490  11.328  31.111   2.308
47423W        W14491  40.337  33.034   2.849
47424W        W14492  30.095   5.704  11.569
47425W        W14493  35.094  35.079  10.933
47426W        W14494   7.257  12.848   3.683
47427W        W14495  19.579   7.840  10.991
47428W        W14496  17.163  44.487  14.993
47429W        W14497  37.500  10.805  12.080
47430W        W14498   7.405  41.972   3.363
47431W        W14499  16.652  32.578  13.929
47432W        W14500  35.426  24.518   1.329
47433W        W14501  43.941   2.819   1.245
47434W        W14502  14.634  41.828  14.468
47435W        W14503   6.831  22.190  12.458
47436W        W14504  10.745   6.279  12.976
47437W        W14505  12.796  42.332  12.406
47438W        W14506  37.502   5.833   4.141
47439W        W14507   6.247  11.689  14.453
47440W        W14508  12.332  21.066   1.811
47441W        W14509  16.672  24.542   4.168
47442W        W14510  26.964   7.239   2.688
47443W        W14511  19.247  35.039  14.805
47444W        W14512  34.523  42.895  13.511
47445W        W14513  30.934  13.782   1.734
47446W        W14514  23.612  42.456  10.634
47447W        W14515  38.901  12.205   3.328
47448W        W14516  26.997  35.990   5.162
47449W        W14517  43.769  40.514  13.790
47450W        W14518   8.748  35.997   4.340
47451W        W14519  11.645  41.863  12.962
47452W        W14520  31.562  16.730   1.929
47453W        W14521   2.357  33.453   0.401
47454W        W14522  16.118  40.323   2.851
47455W        W14523  32.947   1.306   0.336
47456W        W14524  12.180  23.693  14.929
47457W        W14525   3.342   6.187  14.918
47458W        W14526  22.610  14.157  11.004
47459W        W14527  36.490  31.905   2.882
47460W        W14528   1.254  15.786   4.597
47461W        W14529  34.002  36.495   3.297
47462W        W14530  28.545  30.446  11.959
47463W        W14531  11.663   3.941   1.882
47464W        W14532  20.044  26.459  14.305
47465W        W14533  21.246  14.122   1.755
47466W        W14534   3.854  25.174  12.939
47467W        W14535  25.713  32.932   2.830
47468W        W14536  33.024   3.297   0.459
47469W        W14537  19.678  17.602  13.961
47470W        W14538   8.806  27.061   0.855
47471W        W14539  30.113   0.804   4.815
47472W        W14540  33.043   5.794  14.804
47473W        W14541  21.748  18.661  10.993
47474W        W14542  38.833  41.916   1.849
47475W        W14543  38.529  16.113   2.898
47476W        W14544   6.744  29.462  13.397
47477W        W14545  14.599  15.232   2.683
47478W        W14546  43.005  42.395   2.322
47479W        W14547  12.195  31.534   1.215
47480W        W14548  19.718  17.734   1.917
47481W        W14549   5.315   3.460  14.983
47482W        W14550   2.785  28.482   2.882
47483W        W14551  33.589  44.839   0.876
47484W        W14552   1.846  40.355   3.834
47485W        W14553  18.247  34.880   3.380
47486W        W14554  10.810  14.615   3.156
47487W        W14555  34.503  14.208  13.422
47488W        W14556  15.309   3.883  13.524
47489W        W14557   6.785  15.658   2.760
47490W        W14558  12.211  27.194   4.676
47491W        W14559  41.821  32.138  10.422
47492W        W14560   4.796   8.875   5.222
47493W        W14561  37.553  11.727   0.833
47494W        W14562  10.309   9.381   1.239
47495W        W14563  36.034  28.132   0.415
47496W        W14564  19.628  44.991  14.919
47497W        W14565  44.817   1.745   3.656
47498W        W14566  10.376   0.312   2.706
47499W        W14567  14.304  10.769   4.211
47500W        W14568  31.418  39.060  11.529
47501W        W14569  44.492  26.083   4.667
47502W        W14570  29.151  30.131  13.410
47503W        W14571  16.709   3.325   0.425
47504W        W14572  26.518  10.737   4.698
47505W        W14573  41.498  15.805   2.741
47506W        W14574  34.398   4.760   3.650
47507W        W14575  41.037  28.067   3.762
47508W        W14576  11.793  13.183   3.380
47509W        W14577  16.275  30.080  10.571
47510W        W14578  14.714  42.500  14.908
47511W        W14579   2.894  12.159  13.366
47512W        W14580   8.262  13.193   2.389
47513W        W14581  10.663   8.897   1.860
47514W        W14582  21.644  19.245   1.738
47515W        W14583  28.647  29.616  12.919
47516W        W14584  33.548  24.987  11.085
47517W        W14585  16.672  40.908   2.766
47518W        W14586  27.118  32.522  12.826
47519W        W14587  15.290  10.730   1.889
47520W        W14588  13.752  21.595   0.946
47521W        W14589  41.006  38.494  11.445
47522W        W14590  37.873  26.673  11.389
47523W        W14591  11.642  10.653  11.976
47524W        W14592  19.148  16.220  13.002
47525W        W14593  26.558  42.895  14.968
47526W        W14594  20.721  11.318  11.055
47527W        W14595   0.446  22.040  12.887
47528W        W14596   7.708  40.321  14.878
47529W        W14597  14.118   3.385   2.863
47530W        W14598   3.402  37.566   4.797
47531W        W14599  32.979  15.266   4.180
47532W        W14600  18.093  29.537  11.544
47533W        W14601  27.969  21.699   1.263
47534W        W14602  17.169   0.839  11.934
47535W        W14603  19.053  42.941  12.962
47536W        W14604  31.153  13.156   3.282
47537W        W14605   8.329  19.148   4.705
47538W        W14606   0.772  25.974   1.387
47539W        W14607   5.250   5.322   0.885
47540W        W14608  20.697  37.050  13.341
47541W        W14609  28.671  11.645   3.182
47542W        W14610  14.735  12.749  12.959
47543W        W14611   6.721  35.544   0.951
47544W        W14612   1.903  28.494  10.942
47545W        W14613  41.531  36.841  11.527
47546W        W14614  21.616  15.258  12.830
47547W        W14615   6.897  23.535   2.832
47548W        W14616   7.414  30.147  14.016
47549W        W14617  40.947  22.660  11.410
47550W        W14618  21.694  38.383   2.759
47551W        W14619   8.388  22.170   3.190
47552W        W14620   6.387  32.993   2.308
47553W        W14621  42.804   4.937  11.858
47554W        W14622  27.142  29.017   3.842
47555W        W14623  10.211  18.767  14.018
47556W        W14624  35.601  36.405   0.417
47557W        W14625   4.936  12.181  14.391
47558W        W14626  21.035  15.593   4.134
47559W        W14627  33.131   9.204   1.777
47560W        W14628  18.773  32.541  14.512
47561W        W14629  28.130   8.686  10.910
47562W        W14630  36.438  29.985   3.813
47563W        W14631   9.850  28.023   1.766
47564W        W14632   1.387  21.033   3.164
47565W        W14633   8.792  33.014   1.427
47566W        W14634  34.506  24.108  14.310
47567W        W14635   6.747  36.528   4.659
47568W        W14636   4.264  42.984  11.500
47569W        W14637   5.377   9.390  10.588
47570W        W14638  12.300  13.229   1.304
47571W        W14639   1.455  10.179   3.271
47572W        W14640   0.785  13.791   4.773
47573W        W14641  18.586  36.490  12.960
47574W        W14642  36.528  43.392   1.865
47575W        W14643  30.657  31.634   1.848
47576W        W14644  15.090  23.032  14.845
47577W        W14645  31.014  24.515  11.913
47578W        W14646  38.439  20.569   3.796
47579W        W14647  28.157  10.720  13.463
47580W        W14648   8.178   2.282   1.255
47581W        W14649  18.782   0.884  11.601
47582W        W14650   6.736  41.373   2.295
47583W        W14651   5.289   6.207  14.290
47584W        W14652   6.827  42.430   1.359
47585W        W14653  22.201  18.178   1.856
47586W        W14654  29.574  25.985   4.644
47587W        W14655  26.962  21.558   4.603
47588W        W14656  42.859  10.301  13.525
47589W        W14657  30.087  37.939  11.957
47590W        W14658  37.071  33.472   1.290
47591W        W14659  44.769  24.500   3.358
47592W        W14660  12.275  25.604  13.386
47593W        W14661   6.749  21.641  12.029
47594W        W14662  28.638  29.926   1.231
47595W        W14663  29.125  30.486  12.533
47596W        W14664  43.449  37.504   0.837
47597W        W14665  15.285  10.384   4.782
47598W        W14666  15.257  35.480  13.818
47599W        W14667  37.057  33.966  12.547
47600W        W14668   2.448   4.341   1.451
47601W        W14669  38.861   1.802  10.028
47602W        W14670  21.513   7.732  12.376
47603W        W14671   2.467  37.880  12.980
47604W        W14672   1.477  27.034  14.470
47605W        W14673  40.491  22.677  11.123
47606W        W14674  17.204  29.618  13.474
47607W        W14675   7.775  10.365  11.435
47608W        W14676  17.796   3.800   3.174
47609W        W14677  21.605  22.642  10.038
47610W        W14678  34.374  43.011  14.981
47611W        W14679   6.249  42.403  10.045
47612W        W14680  40.405  41.316  13.878
47613W        W14681  42.351  23.240  12.573
47614W        W14682   7.365  33.131  13.880
47615W        W14683  44.806   7.182  14.443
47616W        W14684  41.831  35.887   9.992
47617W        W14685   9.820  26.522  12.437
47618W        W14686  35.869  11.646   4.799
47619W        W14687  16.304  20.706   1.722
47620W        W14688   1.861  19.261   3.749
47621W        W14689  27.604  32.411  13.443
47622W        W14690   2.396  43.427  13.032
47623W        W14691  18.051  36.999   0.872
47624W        W14692  30.130  24.226   0.360
47625W        W14693  26.493  43.867  10.637
47626W        W14694   8.678   3.355  13.050
47627W        W14695  24.228  14.656   3.631
47628W        W14696  41.502   7.355  11.922
47629W        W14697  25.121   5.744   3.809
47630W        W14698   8.692  17.183  11.434
47631W        W14699  40.836  36.030   1.289
47632W        W14700  19.750  40.039   3.780
47633W        W14701  32.103  36.910  13.489
47634W        W14702  14.597  39.028  12.877
47635W        W14703  33.603  44.364   5.280
47636W        W14704   4.407  37.371   3.298
47637W        W14705  32.612  18.653  11.929
47638W        W14706  21.251  41.008  11.894
47639W        W14707  37.948  12.755   5.169
47640W        W14708  17.158  28.992   1.811
47641W        W14709   6.215  17.772   3.250
47642W        W14710   3.283  42.457   3.296
47643W        W14711  17.289  29.608  14.450
47644W        W14712  15.118  43.946  13.397
47645W        W14713  43.830   0.380  13.996
47646W        W14714   1.781  15.776  14.002
47647W        W14715  35.056  12.850  13.466
47648W        W14716  35.915  27.189  13.827
47649W        W14717  41.919   1.265  12.414
47650W        W14718  16.604   0.814   3.316
47651W        W14719  42.404   1.745   1.889
47652W        W14720  28.083  42.849  10.924
47653W        W14721  41.334  31.449  13.910
47654W        W14722  31.010  14.186   1.217
47655W        W14723  15.740   7.300  13.998
47656W        W14724  36.375  38.564  12.494
47657W        W14725  23.111   5.735   2.326
47658W        W14726  44.946   6.379  11.046
47659W        W14727   8.834  18.642   4.805
47660W        W14728   2.849  14.113  10.962
47661W        W14729  43.482   1.869  12.477
47662W        W14730  41.315   0.380  12.466
47663W        W14731  24.040  27.034   2.344
47664W        W14732  22.719  44.457  10.491
47665W        W14733  17.108  34.923   3.649
47666W        W14734  15.272   7.766   0.373
47667W        W14735  16.715  31.899   4.174
47668W        W14736  23.015  17.782  10.537
47669W        W14737  40.820   4.832   4.615
47670W        W14738  15.103  33.454  14.393
47671W        W14739  20.579  29.487   4.311
47672W        W14740  18.622   5.710  14.305
47673W        W14741  41.465  31.614  11.977
47674W        W14742  16.674   4.445  11.458
47675W        W14743  40.438  44.363   4.131
47676W        W14744  39.853  43.825   0.416
47677W        W14745  33.606  13.674  13.928
47678W        W14746  12.168   2.408  11.434
47679W        W14747  44.776   8.279   1.447
47680W        W14748  31.940  20.546   4.296
47681W        W14749   4.832  28.033   2.288
47682W        W14750  12.853  17.068   0.955
47683W        W14751  26.032  21.561   0.402
47684W        W14752   5.842  44.853  10.441
47685W        W14753  44.886  34.508   9.475
47686W        W14754  31.902  13.645   3.190
47687W        W14755  11.787   3.835  11.940
47688W        W14756  44.811  33.110   2.238
47689W        W14757  26.682  34.085   0.341
47690W        W14758  13.320  12.811  12.088
47691W        W14759  27.625  24.975   4.239
47692W        W14760  10.762  13.702  13.457
47693W        W14761   4.794  13.330  13.359
47694W        W14762   5.705  43.868   4.186
47695W        W14763   6.253  26.683  12.523
47696W        W14764  31.570  34.590   2.878
47697W        W14765  40.541   8.360   3.773
47698W        W14766  28.639  19.282   2.801
47699W        W14767  38.043   2.782   1.785
47700W        W14768  19.165   9.869  11.450
47701W        W14769  16.774  13.747   2.708
47702W        W14770   6.253  32.498   3.224
47703W        W14771  10.857   9.201  10.962
47704W        W14772   9.843  24.027   0.959
47705W        W14773  42.506  20.700  11.447
47706W        W14774  44.266  43.805  14.002
47707W        W14775  32.021  42.951  10.929
47708W        W14776  23.063  32.604  14.361
47709W        W14777  32.040  20.207   1.390
47710W        W14778   6.869  24.698  11.601
47711W        W14779   3.858  10.376   4.353
47712W        W14780  42.988  25.131   1.733
47713W        W14781  43.386   0.805  14.319
47714W        W14782  28.665   5.364  11.568
47715W        W14783   7.286  22.033  10.975
47716W        W14784  19.161  33.510  14.960
47717W        W14785  25.091  24.536   1.737
47718W        W14786   1.436  40.426  13.965
47719W        W14787  26.005  26.629  11.581
47720W        W14788  22.167  23.031  11.960
47721W        W14789  25.003  17.167   4.826
47722W        W14790  37.951  22.569  11.540
47723W        W14791  24.105  39.423   2.194
47724W        W14792  12.821   7.708   3.679
47725W        W14793  10.741  31.589   4.791
47726W        W14794  17.721  34.910  11.067
47727W        W14795  42.799  12.798  13.921
47728W        W14796  12.833  15.791  12.843
47729W        W14797   0.896  38.478  13.363
47730W        W14798   7.369  19.713   3.760
47731W        W14799  17.771  36.424   3.216
47732W        W14800  37.923  43.473  11.542
47733W        W14801   7.203  29.009  11.086
47734W        W14802  20.601  43.335  13.896
47735W        W14803  34.989   2.900   0.362
47736W        W14804  30.548  16.582   4.657
47737W        W14805  10.213   6.387   3.868
47738W        W14806  24.022  42.292   0.471
47739W        W14807   1.318  44.408  14.429
47740W        W14808   5.833  22.068  10.440
47741W        W14809   2.865  43.977   1.696
47742W        W14810  41.375  21.175  13.870
47743W        W14811   1.856   0.267   3.167
47744W        W14812  35.398  31.000  13.325
47745W        W14813  31.148  26.622   2.685
47746W        W14814  28.937   9.350  13.335
47747W        W14815   3.894   8.843   1.256
47748W        W14816  16.804  24.592  11.999
47749W        W14817  14.697  30.070  14.303
47750W        W14818  10.740  33.069  12.407
47751W        W14819  23.011  39.380   2.746
47752W        W14820   5.897  43.910   3.723
47753W        W14821  20.081  27.177  10.640
47754W        W14822  33.883  20.102   3.868
47755W        W14823  31.648  27.983   4.215
47756W        W14824  23.559  17.596  12.378
47757W        W14825   0.960  42.300  13.986
47758W        W14826  23.498   7.740   3.334
47759W        W14827   7.416   1.383  11.052
47760W        W14828  22.598   2.843   4.275
47761W        W14829   0.307  18.059  11.567
47762W        W14830  28.657  18.678   0.289
47763W        W14831  13.312   6.324   3.816
47764W        W14832  15.297  22.145  14.776
47765W        W14833   6.905  40.496  12.370
47766W        W14834  28.645  31.920   9.593
47767W        W14835  25.079  28.052  11.542
47768W        W14836   5.343  33.411  11.560
47769W        W14837  25.653  30.425  14.992
47770W        W14838  18.071  34.961   4.755
47771W        W14839   5.352  18.680   1.443
47772W        W14840  23.068   6.268  10.589
47773W        W14841  34.027  19.279   1.414
47774W        W14842  12.821   2.273  11.074
47775W        W14843  22.098  27.529  12.364
47776W        W14844   1.822   4.758   0.898
47777W        W14845  33.961   4.378   4.158
47778W        W14846  36.379  23.663  13.016
47779W        W14847  35.448  41.367   4.346
47780W        W14848  38.428  40.854  13.531
47781W        W14849  44.492  20.247   3.299
47782W        W14850  28.964  42.803  14.867
47783W        W14851   7.861   4.224   2.206
47784W        W14852   2.370  18.103  10.615
47785W        W14853  27.096  25.066   1.300
47786W        W14854  21.096  23.611  13.951
47787W        W14855  39.012   2.411  13.434
47788W        W14856  36.407  10.684  13.008
47789W        W14857  42.312  17.568   1.282
47790W        W14858  31.448  38.843   0.833
47791W        W14859  41.506  26.578  13.856
47792W        W14860  37.927  31.480  11.446
47793W        W14861   5.268  28.998   1.759
47794W        W14862  39.316  36.400   2.762
47795W        W14863   1.274  27.517  11.075
47796W        W14864  44.306  33.617   3.822
47797W        W14865  39.951  25.123  12.914
47798W        W14866  34.101  17.631  13.462
47799W        W14867  20.731  26.612   0.331
47800W        W14868  18.225  25.084   1.431
47801W        W14869  43.876  12.268  11.418
47802W        W14870   6.225  33.894  14.421
47803W        W14871  40.834  10.321   3.365
47804W        W14872  21.150  40.981   1.703
47805W        W14873   6.693  17.280  12.949
47806W        W14874  41.890  29.441   2.829
47807W        W14875  25.642  40.342   1.928
47808W        W14876   2.356  40.006   0.959
47809W        W14877  42.019  42.936   0.921
47810W        W14878   5.740  17.068   1.837
47811W        W14879  25.057   0.742   2.264
47812W        W14880  27.646  15.800   0.253
47813W        W14881  26.645  12.751  14.420
47814W        W14882  19.207  28.571   0.942
47815W        W14883  13.338   8.724  12.037
47816W        W14884  16.257  25.697  14.999
47817W        W14885  14.132   3.336   0.414
47818W        W14886  29.971  34.025   0.450
47819W        W14887  27.574   6.919   3.202
47820W        W14888   8.877  14.592   1.829
47821W        W14889  35.920   7.206  13.823
47822W        W14890   5.755   3.269  10.432
47823W        W14891  21.227  29.064   3.846
47824W        W14892  28.623  24.072   0.413
47825W        W14893  18.194  25.142   0.250
47826W        W14894   3.293  11.845  11.051
47827W        W14895  18.133  10.361  12.526
47828W        W14896  36.931  11.762  11.121
47829W        W14897  13.656  37.338   1.861
47830W        W14898  13.786  32.104   0.365
47831W        W14899  10.287  27.120   0.336
47832W        W14900  35.988   7.383   2.725
47833W        W14901  12.348  34.004  11.501
47834W        W14902  35.960  32.914   1.304
47835W        W14903  26.076  36.980   2.237
47836W        W14904  29.965   9.249   0.885
47837W        W14905   1.435   3.861  13.362
47838W        W14906  30.586  44.975   3.777
47839W        W14907  41.818  43.992  10.911
47840W        W14908  20.767  34.084   1.233
47841W        W14909  15.321  29.468   4.752
47842W        W14910   4.400  32.594  12.077
47843W        W14911   3.388  41.409   3.251
47844W        W14912  23.121  14.157  14.391
47845W        W14913  16.651  21.237  12.419
47846W        W14914  42.876   5.273  12.024
47847W        W14915  42.898  39.813  12.078
47848W        W14916  36.477  10.674  14.877
47849W        W14917   3.255  38.966   3.857
47850W        W14918  30.568  17.150   1.808
47851W        W14919  44.339  26.617  10.002
47852W        W14920  28.611  12.698  10.631
47853W        W14921  27.127  31.543  13.044
47854W        W14922   7.397   7.830   3.218
47855W        W14923  13.708  29.566   0.378
47856W        W14924  17.064  13.651  11.104
47857W        W14925   4.874  32.461   4.795
47858W        W14926  42.431  29.919   4.171
47859W        W14927  10.237   1.918   4.668
47860W        W14928   1.808   6.242   1.389
47861W        W14929   6.799  19.698  11.071
47862W        W14930  14.188   6.416   4.278
47863W        W14931  43.426   3.441  13.506
47864W        W14932  34.401  17.140   0.809
47865W        W14933  11.134  36.096   0.963
47866W        W14934  30.561  39.529  12.044
47867W        W14935  43.323  38.373   2.787
47868W        W14936  37.570  32.899  14.957
47869W        W14937  37.429  34.023  11.890
47870W        W14938  28.643  38.918  11.096
47871W        W14939  33.883   6.780  10.423
47872W        W14940  26.533  25.044   0.731
47873W        W14941  11.858  19.697   1.232
47874W        W14942  44.889  22.504   4.812
47875W        W14943  33.895  17.082  13.847
47876W        W14944  33.574  43.353   1.392
47877W        W14945   2.762  38.356  10.943
47878W        W14946   0.985  32.637   3.383
47879W        W14947  14.689  29.427  14.969
47880W        W14948  35.008  43.513   0.795
47881W        W14949   6.902  35.061   4.788
47882W        W14950   1.421  13.300   0.889
47883W        W14951  24.716   2.263  14.965
47884W        W14952  25.540  32.064  14.483
47885W        W14953  19.167  27.116  14.017
47886W        W14954  34.029   9.273   4.170
47887W        W14955   1.341   6.426  14.301
47888W        W14956  43.449  20.648   2.849
47889W        W14957   1.381  40.997  13.330
47890W        W14958  34.929  28.522   4.717
47891W        W14959  13.648  26.007   4.600
47892W        W14960  42.449   0.309  12.549
47893W        W14961  27.110   4.820  13.497
47894W        W14962  22.545  33.602  13.469
47895W        W14963   3.841  36.081   2.829
47896W        W14964   4.356  32.598   3.257
47897W        W14965  39.377  11.185   2.670
47898W        W14966   2.848  13.677  10.923
47899W        W14967  24.122  40.475  12.825
47900W        W14968  31.127  42.952   4.250
47901W        W14969  33.547  33.586  11.025
47902W        W14970  28.474  38.836   3.651
47903W        W14971  17.071  24.633   3.809
47904W        W14972  39.367  29.559   2.178
47905W        W14973  32.967   4.943  10.963
47906W        W14974  21.127   5.208  10.630
47907W        W14975  19.143  36.946   3.193
47908W        W14976  17.800  33.398  14.020
47909W        W14977  40.370  15.621  10.062
47910W        W14978  36.889   1.390  13.435
47911W        W14979  41.999  41.837   1.230
47912W        W14980  14.693  40.346   3.214
47913W        W14981  40.479  44.260  11.432
47914W        W14982  18.551   0.459  12.349
47915W        W14983   7.364  17.619  11.099
47916W        W14984  10.724   8.788  10.524
47917W        W14985  39.458   2.277   0.256
47918W        W14986  40.432  26.022  12.550
47919W        W14987   9.152   7.725  13.009
47920W        W14988  10.203  38.535   0.779
47921W        W14989  12.335  42.357  13.468
47922W        W14990   3.779   4.928  13.025
47923W        W14991  17.561  43.995  14.856
47924W        W14992  13.293   9.178   2.901
47925W        W14993  35.392  31.028   1.923
47926W        W14994  38.896  44.307   2.738
47927W        W14995  29.527   5.842  12.074
47928W        W14996  44.402   9.689  14.313
47929W        W14997  22.666  35.102   2.354
47930W        W14998  43.960  25.112   4.143
47931W        W14999  13.812  11.152   2.341
47932W        W15000  40.032  23.137   2.721
47933W        W15001  20.173  30.137  12.864
47934W        W15002  41.038   7.373   1.326
47935W        W15003   6.333  10.767  14.887
47936W        W15004  15.234  19.632   0.315
47937W        W15005  32.448   1.909   3.191
47938W        W15006  30.050  33.583   3.779
47939W        W15007   5.224  24.213  13.030
47940W        W15008  25.633  26.956  11.922
47941W        W15009  23.570   6.737   3.758
47942W        W15010   0.871  36.977  13.409
47943W        W15011   5.217  25.127  10.901
47944W        W15012   7.855  15.628   0.389
47945W        W15013  39.479  25.026   0.734
47946W        W15014  11.235  36.422   3.234
47947W        W15015  40.387   1.970   2.413
47948W        W15016  41.037  12.839  10.624
47949W        W15017  34.081   1.426  14.014
47950W        W15018  30.075   1.930  10.968
47951W        W15019  43.293  18.747   3.630
47952W        W15020  26.108  34.926   4.239
47953W        W15021  31.146  23.178   2.306
47954W        W15022  38.907   6.396  14.911
47955W        W15023  44.795   3.423  13.493
47956W        W15024   3.911  35.009  14.285
47957W        W15025  19.261  29.107   0.941
47958W        W15026  18.200  15.165  12.410
47959W        W15027  39.993  17.593   4.837
47960W        W15028   7.866   0.874   5.235
47961W        W15029  23.103  38.411   2.220
47962W        W15030  13.713  11.144   0.315
47963W        W15031  10.829  39.849  12.908
47964W        W15032  15.677   9.886   2.239
47965W        W15033  30.027  32.000  14.017
47966W        W15034  21.167  26.512   4.324
47967W        W15035  29.145  26.503   1.793
47968W        W15036   9.656  32.557  12.077
47969W        W15037   0.944  29.032   4.276
47970W        W15038  13.259  19.730   2.721
47971W        W15039  12.785  34.395  10.520
47972W        W15040  30.494   3.917  13.058
47973W        W15041   4.227   9.668   2.820
47974W        W15042  34.481  12.123   0.852
47975W        W15043   2.281  36.917  14.498
47976W        W15044  22.646   2.420  12.515
47977W        W15045  16.669  44.956   1.787
47978W        W15046  36.086  27.971  11.475
47979W        W15047  23.555   4.795  12.836
47980W        W15048  36.926  18.558   1.432
47981W        W15049  13.736  44.770  10.409
47982W        W15050   1.439   4.768  10.407
47983W        W15051  15.322   8.714   1.313
47984W        W15052  17.268   3.314  14.774
47985W        W15053  40.864  21.647   1.291
47986W        W15054  12.796  36.516  12.971
47987W        W15055  28.520  11.671  12.878
47988W        W15056  27.097  16.246  12.064
47989W        W15057   4.432  15.120   2.880
47990W        W15058   6.875  30.095   2.843
47991W        W15059  41.339  36.871  14.442
47992W        W15060   9.766  23.637  10.639
47993W        W15061   1.758  35.996   4.794
47994W        W15062  13.630  33.460   0.844
47995W        W15063  42.900  18.228   1.726
47996W        W15064  10.346   4.921  14.396
47997W        W15065  41.807   5.859  10.124
47998W        W15066   5.241  24.713   2.899
47999W        W15067  28.940   9.847  13.807
48000W        W15068  39.863  17.666   1.423
48001W        W15069  35.040  40.900   1.272
48002W        W15070   2.937  12.727   0.938
48003W        W15071  23.112   2.842  13.021
48004W        W15072  17.071   9.285  11.944
48005W        W15073   4.303   7.794  13.872
48006W        W15074  38.047  18.285  13.873
48007W        W15075  32.086   7.812   2.329
48008W        W15076   2.887   7.849   3.753
48009W        W15077  28.001  11.231   2.887
48010W        W15078  19.763  39.850   4.131
48011W        W15079  36.584  11.693   4.744
48012W        W15080  37.343   9.757   0.362
48013W        W15081   0.939   6.382   2.682
48014W        W15082  28.089  37.998   1.262
48015W        W15083   9.307  23.495  11.394
48016W        W15084  16.309  36.881  12.342
48017W        W15085   6.764  33.513  12.982
48018W        W15086  35.926  35.971  14.900
48019W        W15087   5.813  17.097   4.666
48020W        W15088   3.718  40.907   1.900
48021W        W15089  11.658  25.643   4.188
48022W        W15090  11.677  10.785   1.797
48023W        W15091   6.683  13.721  10.911
48024W        W15092  36.391  29.631   4.665
48025W        W15093  25.153   1.877   2.298
48026W        W15094   1.448  13.812  10.542
48027W        W15095  38.917  28.956  10.141
48028W        W15096   6.795  28.175   3.235
48029W        W15097   0.870   5.358   1.695
48030W        W15098   7.321  34.984  12.085
48031W        W15099  33.507   1.848  13.317
48032W        W15100  21.750   5.430  12.981
48033W        W15101  37.425  37.071  12.575
48034W        W15102  29.455  30.044  11.439
48035W        W15103  33.562   6.215  14.477
48036W        W15104   5.733  12.267   3.367
48037W        W15105  10.711   8.201   2.759
48038W        W15106  22.710  16.724   2.778
48039W        W15107  15.131   0.800   1.226
48040W        W15108  41.464  24.723  14.027
48041W        W15109   8.713  23.499   1.273
48042W        W15110   0.256   0.951  12.580
48043W        W15111  33.405  22.064   1.750
48044W        W15112  43.401  42.901   1.343
48045W        W15113   0.821   7.287   0.912
48046W        W15114  25.169  35.100   1.277
48047W        W15115  39.029  13.627  11.419
48048W        W15116   0.475  31.925  11.471
48049W        W15117  30.954   0.755   1.720
48050W        W15118  30.539  14.801   2.289
48051W        W15119  16.136  44.889  13.398
48052W        W15120  24.111  20.705  12.448
48053W        W15121  31.058  13.131   3.636
48054W        W15122  32.047  23.202   4.686
48055W        W15123   6.235  29.639  14.384
48056W        W15124  43.776  25.216  11.119
48057W        W15125  28.621  16.293  11.071
48058W        W15126   1.419  25.671   1.757
48059W        W15127  43.335  33.981  14.482
48060W        W15128   3.378  10.669  14.979
48061W        W15129  28.123  10.243  13.939
48062W        W15130  34.418  23.127  10.899
48063W        W15131  29.453  16.211  14.024
48064W        W15132  20.083  30.598   1.865
48065W        W15133  30.094  15.116  14.491
48066W        W15134  37.042  44.953  12.903
48067W        W15135  27.461  19.260   3.211
48068W        W15136  26.149  29.074   3.829
48069W        W15137  35.400   8.761   0.278
48070W        W15138  31.101  21.567   2.324
48071W        W15139  34.577  32.631  14.470
48072W        W15140  44.455   8.286   0.843
48073W        W15141  21.231  25.599   4.629
48074W        W15142   4.712  32.988   1.803
48075W        W15143  27.186  15.316  13.476
48076W        W15144  24.539  38.473   3.672
48077W        W15145  24.093  16.591  14.332
48078W        W15146  42.984  44.395  14.809
48079W        W15147  44.363  26.073  13.341
48080W        W15148  37.007  12.306  10.957
48081W        W15149  15.684  39.883  11.075
48082W        W15150   8.769  32.425   3.820
48083W        W15151   3.307  10.873  10.895
48084W        W15152  41.027   0.373   4.153
48085W        W15153  35.096  30.618   1.296
48086W        W15154   5.299  23.180  12.399
48087W        W15155   9.846  14.282   1.745
48088W        W15156   0.382   9.740   3.840
48089W        W15157  18.195  25.028   3.181
48090W        W15158  22.147  33.432   2.792
48091W        W15159   7.320  12.684  12.471
48092W        W15160  28.492  38.418   0.420
48093W        W15161  15.286  37.478  12.402
48094W        W15162   8.319  42.347  14.948
48095W        W15163  42.869   0.867  10.620
48096W        W15164  21.540  33.448   1.878
48097W        W15165  40.910  31.470  12.963
48098W        W15166   3.321   6.181   3.801
48099W        W15167  17.760  10.847   4.662
48100W        W15168  32.547   1.927   2.407
48101W        W15169   8.406  17.585  10.943
48102W        W15170  41.535  23.023  11.526
48103W        W15171  23.636   4.440   2.888
48104W        W15172   3.280   4.239   3.862
48105W        W15173  41.987  37.866  11.860
48106W        W15174  26.594   7.708  12.444
48107W        W15175  39.845  28.118  11.883
48108W        W15176  32.476   8.896   4.756
48109W        W15177  18.112   0.888  14.973
48110W        W15178  13.227   5.199   2.782
48111W        W15179  25.202   0.747   1.738
48112W        W15180   3.796  37.893  13.064
48113W        W15181  19.594  40.367  14.987
48114W        W15182  19.271  39.498  14.311
48115W        W15183  14.606  29.667  12.035
48116W        W15184  15.135  39.811   4.801
48117W        W15185  28.994  35.476  12.861
48118W        W15186  38.457  15.234  13.023
48119W        W15187  26.127  16.277  12.883
48120W        W15188  19.776  42.920   4.633
48121W        W15189   5.372  20.658  12.839
48122W        W15190  20.679  13.205   0.955
48123W        W15191   2.782   6.702   0.773
48124W        W15192  36.405   0.376   1.414
48125W        W15193  18.187  26.964   0.947
48126W        W15194   5.267  14.154   3.340
48127W        W15195  25.628  32.129   4.821
48128W        W15196   2.766  44.925  14.032
48129W        W15197  20.125   4.902  10.139
48130W        W15198   8.828  43.766   1.929
48131W        W15199   1.292  12.724   2.878
48132W        W15200  35.857  28.082   0.742
48133W        W15201  26.084  36.458   4.177
48134W        W15202  40.473  42.431   0.328
48135W        W15203   7.409   4.275  13.455
48136W        W15204   5.876  20.669  13.923
48137W        W15205  31.594  26.652   3.761
48138W        W15206  33.430  39.316  12.894
48139W        W15207  43.343   3.950  11.948
48140W        W15208  31.477   1.857  11.551
48141W        W15209   4.794  31.004  13.336
48142W        W15210  15.672  41.817   2.847
48143W        W15211  39.989   0.757   3.866
48144W        W15212  18.205  39.057   1.891
48145W        W15213  24.981  31.466   4.187
48146W        W15214  21.538  12.750  11.074
48147W        W15215  36.427  13.350  13.500
48148W        W15216  32.627  22.743   3.647
48149W        W15217   2.933   5.215  13.000
48150W        W15218   9.871  44.278   0.927
48151W        W15219  14.686  30.066  12.959
48152W        W15220  21.655  20.611   2.803
48153W        W15221  44.327  39.364  11.392
48154W        W15222  42.422   7.251  13.027
48155W        W15223  38.470   1.279  11.022
48156W        W15224  36.911   7.845   2.830
48157W        W15225  24.523  26.635   0.374
48158W        W15226  35.408  21.083   4.800
48159W        W15227  19.548   1.320   3.262
48160W        W15228  25.500  14.704  12.942
48161W        W15229  30.128   1.817  11.463
48162W        W15230   9.372  38.467  12.065
48163W        W15231   0.352  24.531   4.127
48164W        W15232   0.827  10.384   1.246
48165W        W15233  31.559  16.654  14.337
48166W        W15234   4.242  20.719  12.550
48167W        W15235  36.087  17.604   4.210
48168W        W15236  40.898   4.318   3.764
48169W        W15237  10.650   6.389  14.359
48170W        W15238  40.030  14.307  11.958
48171W        W15239  31.112   1.833   1.216
48172W        W15240  36.014  32.569  11.398
48173W        W15241   6.409  31.918   3.866
48174W        W15242  41.306   6.820   1.819
48175W        W15243  16.187   5.857  12.921
48176W        W15244  34.438  12.823  13.803
48177W        W15245  44.382   3.841  10.156
48178W        W15246  30.957  24.577   2.728
48179W        W15247  28.061  36.450  10.479
48180W        W15248   0.484  18.624  10.553
48181W        W15249   7.183  33.391  10.967
48182W        W15250  24.567   4.765  12.402
48183W        W15251   7.802  18.115  13.003
48184W        W15252  41.896  29.568   3.836
48185W        W15253  19.687  26.000  11.557
48186W        W15254   1.905  20.250   1.824
48187W        W15255  22.113  23.207  13.042
48188W        W15256  29.637   6.769   1.231
48189W        W15257  11.255  31.568   4.354
48190W        W15258  20.056  32.001  13.989
48191W        W15259  10.705  27.960  13.985
48192W        W15260  18.748  16.173  12.971
48193W        W15261   0.944   1.762  12.894
48194W        W15262  20.144  37.845  14.024
48195W        W15263   4.281  22.241   1.793
48196W        W15264  13.181  33.875   2.285
48197W        W15265  39.495   3.916   4.332
48198W        W15266  16.808  13.264   4.634
48199W        W15267   7.224  19.279  12.976
48200W        W15268  44.413  41.473  14.915
48201W        W15269   8.175  20.044  14.995
48202W        W15270  19.558  10.763   3.680
48203W        W15271  36.498  28.135   2.331
48204W        W15272   7.282  13.276   0.830
48205W        W15273  42.802  23.050   4.651
48206W        W15274  26.473  33.923  12.036
48207W        W15275  14.801  31.596  12.849
48208W        W15276  25.978   8.369  11.857
48209W        W15277  26.503  20.542  13.018
48210W        W15278  23.061  42.856   1.429
48211W        W15279   9.661   1.327  12.075
48212W        W15280  34.951   8.351  13.444
48213W        W15281  35.383  36.847   3.734
48214W        W15282  24.185  11.242  12.839
48215W        W15283  22.604  26.583  11.006
48216W        W15284  30.415   2.772   3.813
48217W        W15285  26.119  42.359   3.759
48218W        W15286  40.439   6.732  10.515
48219W        W15287  44.803  33.068  11.054
48220W        W15288   6.776   2.254  13.911
48221W        W15289  38.061  27.972   4.243
48222W        W15290  39.045  26.514  12.442
48223W        W15291  29.171  41.534   4.350
48224W        W15292   1.358  11.800   0.944
48225W        W15293  18.562  15.713  10.981
48226W        W15294  21.220   9.822  12.991
48227W        W15295  32.003  18.746   2.779
48228W        W15296  36.356  14.211  14.821
48229W        W15297  20.178  13.607  13.888
48230W        W15298   9.822   0.299  11.886
48231W        W15299   7.279  29.008   2.412
48232W        W15300  12.647  36.958   3.714
48233W        W15301  43.803  24.506   0.472
48234W        W15302  21.187  16.629  13.439
48235W        W15303  16.154  11.179  13.016
48236W        W15304  36.386  16.230  11.969
48237W        W15305   0.801   7.310   4.646
48238W        W15306  16.577  38.456   3.800
48239W        W15307  39.387  43.776   4.314
48240W        W15308  20.697  43.948   4.237
48241W        W15309  37.037  41.908   2.807
48242W        W15310   5.897  33.015   0.792
48243W        W15311   8.782  27.628  12.548
48244W        W15312   0.886  15.788   3.784
48245W        W15313   3.234  21.715   2.740
48246W        W15314  18.268   3.849   3.303
48247W        W15315  27.689  10.704   0.877
48248W        W15316  31.632  38.526   4.619
48249W        W15317  30.516   7.409  13.052
48250W        W15318  26.515  44.352   4.114
48251W        W15319  34.584  41.954  12.096
48252W        W15320  11.778  11.182  10.073
48253W        W15321  20.058   2.867   0.484
48254W        W15322  19.245  28.664   3.801
48255W        W15323   5.796   5.786   1.929
48256W        W15324  37.520   1.909  10.957
48257W        W15325   8.682  42.976   3.850
48258W        W15326  37.490  25.673  13.804
48259W        W15327  14.141   9.818  11.095
48260W        W15328  35.947   1.414  14.507
48261W        W15329  32.432  13.155  13.515
48262W        W15330  21.041  33.540   1.402
48263W        W15331  35.092  31.403   0.797
48264W        W15332  14.303  11.286   3.818
48265W        W15333   9.286  42.001  11.492
48266W        W15334  11.751   2.333   5.316
48267W        W15335  11.687  39.499   2.751
48268W        W15336  34.612   5.435  14.011
48269W        W15337   3.836  14.811  13.972
48270W        W15338  20.599   5.309   1.797
48271W        W15339   6.919   7.389  12.936
48272W        W15340  24.026   9.175  14.401
48273W        W15341  16.595  11.767  13.338
48274W        W15342  34.061  40.860   1.224
48275W        W15343  25.965  27.962   0.946
48276W        W15344  44.918  34.578  10.987
48277W        W15345  30.039  40.381   4.143
48278W        W15346   8.848  29.553   2.394
48279W        W15347  13.809  22.105   2.317
48280W        W15348  29.018  13.675   2.341
48281W        W15349   6.326  20.585  13.392
48282W        W15350  24.519  28.983  13.458
48283W        W15351  39.457  23.113   0.859
48284W        W15352  15.812  42.288  14.384
48285W        W15353  30.026   7.837  12.480
48286W        W15354  25.972  36.363   4.598
48287W        W15355   5.756  21.560   3.668
48288W        W15356  36.384  43.787  14.957
48289W        W15357  35.413  20.729   4.226
48290W        W15358  40.509  38.955  13.918
48291W        W15359  15.673  42.024   3.857
48292W        W15360  23.010  11.300   1.869
48293W        W15361  25.968  25.124   2.896
48294W        W15362  26.519   6.772   0.460
48295W        W15363  17.141   4.812  14.911
48296W        W15364  26.681   8.383   5.101
48297W        W15365   0.261  30.106  12.848
48298W        W15366  26.626  25.534  12.448
48299W        W15367  28.046  36.483  14.958
48300W        W15368   3.237  40.818  12.379
48301W        W15369  27.965  32.070   2.406
48302W        W15370   7.744  24.025   2.835
48303W        W15371  26.554  33.427   4.809
48304W        W15372  28.472  39.990  12.925
48305W        W15373  42.404  15.103   2.193
48306W        W15374   1.418  31.125   3.783
48307W        W15375   8.279  41.463  13.454
48308W        W15376  18.098  19.154   2.845
48309W        W15377  31.909  28.141   0.461
48310W        W15378  22.575  37.380   1.309
48311W        W15379  25.506  31.581   2.253
48312W        W15380  28.451  40.832  14.367
48313W        W15381  40.396  26.546   5.260
48314W        W15382  21.666  37.847   1.294
48315W        W15383  16.648  32.523   4.162
48316W        W15384   3.925   9.837   1.378
48317W        W15385  38.879  35.518  13.466
48318W        W15386  39.918  26.071   3.850
48319W        W15387  21.217  18.774   1.402
48320W        W15388  16.279  18.658   4.636
48321W        W15389  35.397  10.789   4.346
48322W        W15390  13.157  39.530   0.949
48323W        W15391  16.727  14.235   3.310
48324W        W15392  15.593  33.047  14.514
48325W        W15393  30.910  30.004   1.293
48326W        W15394   9.174  20.234   3.761
48327W        W15395   4.713  11.316  12.448
48328W        W15396  37.379  32.134   3.175
48329W        W15397  21.642   0.393  13.990
48330W        W15398  11.276  37.925   4.161
48331W        W15399  34.442  34.094   3.745
48332W        W15400  22.715  15.734  11.589
48333W        W15401   3.929   5.418  13.428
48334W        W15402  30.156  29.655  10.937
48335W        W15403  39.015  36.080  11.978
48336W        W15404   2.408  40.415  10.607
48337W        W15405   4.435  39.518   3.211
48338W        W15406  28.645  27.188  11.406
48339W        W15407  37.987  31.985   2.265
48340W        W15408  38.526  17.105   1.297
48341W        W15409  11.859  26.558   1.287
48342W        W15410  14.822   8.797  14.017
48343W        W15411  39.545  27.445   1.733
48344W        W15412  28.650  25.468  12.903
48345W        W15413   2.848  11.147   1.697
48346W        W15414  27.988  24.216  11.565
48347W        W15415  30.509  17.573   0.428
48348W        W15416  11.697  36.024   2.791
48349W        W15417  21.225  21.621   2.744
48350W        W15418  19.755  40.316   4.639
48351W        W15419   8.211  44.985   0.767
48352W        W15420   9.859  21.242   3.220
48353W        W15421   1.455  24.997  10.534
48354W        W15422  12.670  44.917   2.824
48355W        W15423  34.022  20.090   1.385
48356W        W15424  28.525   9.815   3.804
48357W        W15425  32.444  16.148  14.835
48358W        W15426  19.648   7.705   2.185
48359W        W15427  22.605  31.141   0.905
48360W        W15428  25.610  39.341  12.466
48361W        W15429  40.467  22.581   2.769
48362W        W15430  21.735  41.359   0.730
48363W        W15431  42.372  24.503   4.270
48364W        W15432  12.629   5.347   4.168
48365W        W15433  22.079  30.935   2.851
48366W        W15434  31.026  41.369   9.998
48367W        W15435  34.966  21.070   2.771
48368W        W15436  35.436  22.051  13.928
48369W        W15437  41.862  16.180   2.254
48370W        W15438  40.368   7.894  13.468
48371W        W15439  22.999   1.316  14.464
48372W        W15440  42.382  41.851  12.049
48373W        W15441  23.161  18.172  12.941
48374W        W15442  23.124  33.511  14.963
48375W        W15443  25.546  37.071   0.824
48376W        W15444  26.984  35.401   3.250
48377W        W15445  37.393  31.004  12.565
48378W        W15446   0.899   4.438   4.644
48379W        W15447  26.616  10.156   2.662
48380W        W15448  31.072  38.953   9.949
48381W        W15449  28.452   2.769   0.880
48382W        W15450  42.841  23.517  11.547
48383W        W15451  34.602  34.587  12.535
48384W        W15452  11.151   4.257  14.993
48385W        W15453  37.044   6.726   4.198
48386W        W15454  38.887   5.433   1.299
48387W        W15455   3.721  36.349  12.919
48388W        W15456   1.761  34.614  14.964
48389W        W15457  40.528  27.052   3.220
48390W        W15458  28.186  14.748   3.859
48391W        W15459  11.658  17.775  13.334
48392W        W15460  30.491  20.703   2.205
48393W        W15461  17.740  41.409  12.426
48394W        W15462  44.957  36.001  13.800
48395W        W15463   8.768  19.607  13.355
48396W        W15464   5.897  41.919   4.812
48397W        W15465  17.693  19.153   4.191
48398W        W15466  16.729  35.927   4.215
48399W        W15467  38.965  36.416  10.441
48400W        W15468  21.587  21.090   3.810
48401W        W15469  11.344  43.770   1.364
48402W        W15470  42.513  34.609   4.836
48403W        W15471   1.238  18.071   1.865
48404W        W15472  10.335  22.225   2.254
48405W        W15473  18.124  11.146  14.775
48406W        W15474  21.639  13.259   3.263
48407W        W15475  40.818   1.326  14.862
48408W        W15476  13.283  34.916  12.580
48409W        W15477   9.695  42.450  13.812
48410W        W15478  23.069  41.826  10.006
48411W        W15479  35.992  32.414  13.531
48412W        W15480  23.515  12.822  13.345
48413W        W15481  43.336  21.061   0.936
48414W        W15482  34.463  11.321   1.926
48415W        W15483  21.199   9.880  10.416
48416W        W15484  34.428  26.521   3.262
48417W        W15485   1.944  43.502  11.118
48418W        W15486  14.661  38.053  13.830
48419W        W15487  26.977   7.378   1.359
48420W        W15488  24.499  12.146   0.883
48421W        W15489  27.086  44.833  12.028
48422W        W15490   8.192   0.826   1.717
48423W        W15491  29.014  11.193   4.316
48424W        W15492  24.157  30.576   4.179
48425W        W15493  31.461   8.195  11.092
48426W        W15494  31.079  40.875  12.863
48427W        W15495   0.855  38.066   4.794
48428W        W15496  36.528  11.309   4.608
48429W        W15497  38.508  40.032   2.380
48430W        W15498  34.516   6.842  13.343
48431W        W15499  19.124  17.088  14.911
48432W        W15500  25.037  23.665  12.039
48433W        W15501  24.630  33.890   1.372
48434W        W15502   6.885  13.205   1.338
48435W        W15503  27.654  23.183  14.992
48436W        W15504  17.250   4.728   1.304
48437W        W15505  36.016  25.145   4.656
48438W        W15506  15.600  32.970  10.082
48439W        W15507  21.055  22.035  14.425
48440W        W15508  32.421   0.389   0.362
48441W        W15509  13.206  20.725   1.413
48442W        W15510  26.039   9.791  13.458
48443W        W15511   3.866   7.343   0.289
48444W        W15512  30.424  34.888   1.436
48445W        W15513  40.466   5.896   3.797
48446W        W15514   3.400  41.420   1.357
48447W        W15515  17.129  13.791   3.154
48448W        W15516  10.138   8.358  12.975
48449W        W15517  15.149   5.764   4.256
48450W        W15518   9.879  10.138   2.775
48451W        W15519  21.106   5.423  14.896
48452W        W15520  36.960  15.313  13.021
48453W        W15521   3.387   6.219  13.516
48454W        W15522  25.134  41.932  13.028
48455W        W15523  10.206  39.947  14.380
48456W        W15524  36.566  34.890  13.417
48457W        W15525  28.108  26.688  13.360
48458W        W15526  29.661   2.308   0.881
48459W        W15527  37.960  15.288  14.484
48460W        W15528  39.817   4.844   0.328
48461W        W15529   7.319  14.797   0.292
48462W        W15530  13.718  36.480  12.047
48463W        W15531   4.936  27.526   2.183
48464W        W15532  36.359  24.490   2.672
48465W        W15533  30.941  34.392  13.009
48466W        W15534   0.812  39.832  12.469
48467W        W15535  41.431   8.180   0.843
48468W        W15536  12.201  10.325  10.951
48469W        W15537  18.759  42.933  10.467
48470W        W15538  37.472  16.724  11.401
48471W        W15539  15.306  24.695  12.093
48472W        W15540  41.003  14.155  14.850
48473W        W15541  29.475  13.272   3.744
48474W        W15542   0.398  40.017   1.349
48475W        W15543  16.156  35.926  13.347
48476W        W15544  32.487  40.047   2.280
48477W        W15545  23.133  36.467   0.244
48478W        W15546  12.322  30.427   0.297
48479W        W15547  43.874  43.414  13.014
48480W        W15548  44.287  30.982  11.429
48481W        W15549  31.943  28.148   2.685
48482W        W15550  25.535  12.705   4.327
48483W        W15551  15.601  33.946   2.181
48484W        W15552   1.862  10.707  12.520
48485W        W15553   5.345  41.298   0.758
48486W        W15554  22.126  23.010   3.854
48487W        W15555  27.946  22.675  11.094
48488W        W15556   9.180  11.230  14.367
48489W        W15557  33.567   7.759   2.897
48490W        W15558  41.795  31.089   1.745
48491W        W15559  37.866   0.840  14.864
48492W        W15560   5.367   4.710   0.443
48493W        W15561  40.021  34.542   4.747
48494W        W15562   5.913  30.127  12.021
48495W        W15563  39.862  28.007  11.432
48496W        W15564  23.719  28.521   4.167
48497W        W15565  20.663  17.227   0.328
48498W        W15566  11.863  32.036   0.748
48499W        W15567  30.952  18.153  14.362
48500W        W15568  30.151  31.538  12.903
48501W        W15569  29.073   7.718   3.709
48502W        W15570  29.550  32.985   2.365
48503W        W15571   5.324  20.141  13.422
48504W        W15572  17.613  33.424   0.839
48505W        W15573  30.155  32.609   4.161
48506W        W15574  29.505  28.574  14.968
48507W        W15575  18.113   7.768   1.256
48508W        W15576   3.766  42.966  11.944
48509W        W15577  33.020  36.002  14.364
48510W        W15578  21.128  19.163   3.203
48511W        W15579  21.686   5.855  11.970
48512W        W15580  24.051  32.479   1.253
48513W        W15581  32.025  44.901  14.368
48514W        W15582  31.953  33.100   3.277
48515W        W15583   4.733  17.150  13.934
48516W        W15584  17.579  38.898  11.090
48517W        W15585   6.900  29.462   4.209
48518W        W15586  37.538  36.470   0.434
48519W        W15587   9.366   5.821  12.511
48520W        W15588   6.841  25.708  13.483
48521W        W15589  24.702  23.728   2.761
48522W        W15590  35.595  20.741  11.129
48523W        W15591  16.177  41.498  11.437
48524W        W15592  36.891   5.218   4.137
48525W        W15593  14.291  39.540  14.884
48526W        W15594   7.895  14.193  11.959
48527W        W15595  32.624  27.164   1.338
48528W        W15596  42.406  41.039  13.331
48529W        W15597  37.860  39.326   3.289
48530W        W15598  21.248  35.485   3.692
48531W        W15599  39.015  36.407   4.312
48532W        W15600  21.205  36.846   3.736
48533W        W15601  44.787  37.446  11.019
48534W        W15602  26.693  15.625   3.757
48535W        W15603   4.259  25.062   4.210
48536W        W15604  40.039  29.663   0.824
48537W        W15605  33.399   8.336   0.373
48538W        W15606  39.474  25.045   3.713
48539W        W15607  12.236  17.676   3.725
48540W        W15608  26.128  44.374  10.577
48541W        W15609  10.777  31.536   1.242
48542W        W15610  24.715   6.801   1.912
48543W        W15611  27.682  28.177   4.131
48544W        W15612  26.489   2.458  11.421
48545W        W15613  38.949   2.812  14.008
48546W        W15614  20.564  17.573  12.887
48547W        W15615  36.540  36.416   1.284
48548W        W15616  25.573   3.355  12.580
48549W        W15617   2.280   5.711   0.829
48550W        W15618  10.271  10.227   2.319
48551W        W15619  17.292  14.328   0.810
48552W        W15620  34.551  42.441  13.313
48553W        W15621   6.307  43.008  10.473
48554W        W15622  17.153   2.290  12.858
48555W        W15623  11.199  29.962  14.964
48556W        W15624  37.006  24.494   4.788
48557W        W15625  37.961  13.812  11.964
48558W        W15626  18.636  31.577  11.069
48559W        W15627  20.666  13.331  10.457
48560W        W15628  37.461  19.654   0.761
48561W        W15629  37.890   7.802  13.862
48562W        W15630  25.144  22.510   0.367
48563W        W15631  28.657  10.649  13.318
48564W        W15632  43.806  19.068  14.824
48565W        W15633  10.644  20.244   2.751
48566W        W15634  12.135   8.232  12.525
48567W        W15635  23.129  42.991  12.093
48568W        W15636  38.481  12.223   4.130
48569W        W15637  43.453   0.319  13.058
48570W        W15638   8.364  12.262  13.402
48571W        W15639  12.252  24.230  11.951
48572W        W15640  34.081  24.140  11.487
48573W        W15641  16.720  31.054   1.935
48574W        W15642  16.195  24.007  12.427
48575W        W15643  21.230  31.105  13.366
48576W        W15644  34.573   6.387   3.767
48577W        W15645  19.264  20.052  10.560
48578W        W15646   8.209  20.227   9.925
48579W        W15647  22.018  24.506  10.600
48580W        W15648   9.351  24.714  10.573
48581W        W15649  25.673  23.137   0.810
48582W        W15650  36.083  24.113   2.190
48583W        W15651  28.980  34.118  11.089
48584W        W15652  21.526   6.392   4.260
48585W        W15653  38.037  43.300  10.942
48586W        W15654  29.130  31.144  13.335
48587W        W15655   1.284   1.761   4.700
48588W        W15656  20.148   4.703  11.008
48589W        W15657  24.626  32.409   4.247
48590W        W15658   4.794  32.523  14.987
48591W        W15659  12.641  30.003   4.149
48592W        W15660  31.983  24.506  11.877
48593W        W15661  32.105  30.123  12.046
48594W        W15662  34.570  10.323  12.889
48595W        W15663  38.463  20.747  12.868
48596W        W15664  13.318  42.903  12.070
48597W        W15665  19.673  14.168  10.023
48598W        W15666  12.643  19.724  13.868
48599W        W15667  19.757  41.401   3.791
48600W        W15668  23.673  38.541  14.364
48601W        W15669  25.629  37.907  11.039
48602W        W15670   7.903  20.614   0.247
48603W        W15671  14.814   5.722   3.722
48604W        W15672  14.817  30.923   0.808
48605W        W15673  29.614  11.371  14.913
48606W        W15674  44.305   7.185  10.510
48607W        W15675  30.635  34.479  11.450
48608W        W15676  18.135  15.115   4.146
48609W        W15677  26.048  15.198   0.967
48610W        W15678  31.116  24.559  12.923
48611W        W15679   2.249  20.132   1.873
48612W        W15680  32.598  26.603   5.235
48613W        W15681  33.574  30.495  11.373
48614W        W15682  10.759  38.881  11.111
48615W        W15683  25.025   6.233   0.249
48616W        W15684  42.942   3.914   4.650
48617W        W15685  15.181  43.477   2.209
48618W        W15686   5.788  26.097   2.225
48619W        W15687   9.295  11.294   3.828
48620W        W15688  27.129  12.307   2.666
48621W        W15689  13.690  10.751   2.862
48622W        W15690  20.092  29.160   2.270
48623W        W15691  14.309  16.197  11.029
48624W        W15692  22.511  42.383   4.824
48625W        W15693  25.618   4.856  10.966
48626W        W15694  34.945  12.258  10.442
48627W        W15695  40.951   8.880  11.016
48628W        W15696  34.431  38.034   2.393
48629W        W15697   7.188   6.772   4.235
48630W        W15698  36.012  41.860  13.802
48631W        W15699  34.106   0.398  14.988
48632W        W15700  42.468  40.351  13.047
48633W        W15701  23.677  18.068   2.370
48634W        W15702   5.240   4.898  10.633
48635W        W15703   9.222  21.726  13.545
48636W        W15704  34.933  37.568   9.977
48637W        W15705  43.415  34.120  14.868
48638W        W15706   0.956  32.549   0.290
48639W        W15707  30.928  41.337   1.730
48640W        W15708  16.803   6.850   0.424
48641W        W15709   3.883   0.818   1.705
48642W        W15710  20.550  39.363   0.311
48643W        W15711  13.178  39.867  13.331
48644W        W15712  28.543  37.830   2.722
48645W        W15713  12.640  31.520  11.898
48646W        W15714  25.478   3.224  10.100
48647W        W15715   0.840  17.245  11.998
48648W        W15716  16.111  24.020   4.247
48649W        W15717  37.984  19.729   3.744
48650W        W15718  24.547  16.607  13.517
48651W        W15719  13.172   5.700  10.621
48652W        W15720  33.970  34.956  12.560
48653W        W15721   8.176   4.888   2.217
48654W        W15722   4.758  39.866  11.576
48655W        W15723  11.677  24.646  10.537
48656W        W15724  30.463  26.473   4.706
48657W        W15725  24.625  15.808  10.570
48658W        W15726  44.327  37.963  12.049
48659W        W15727  33.981   1.430   1.921
48660W        W15728  18.134  42.349   0.746
48661W        W15729  39.397   9.211   0.327
48662W        W15730  35.430  36.369  12.035
48663W        W15731  24.046   7.192  11.455
48664W        W15732  31.583  15.755  14.487
48665W        W15733  24.651  23.532  12.889
48666W        W15734  42.890  24.132   0.876
48667W        W15735  27.504  32.050  13.354
48668W        W15736   5.335  36.401  13.048
48669W        W15737  37.546   8.366   4.735
48670W        W15738  44.325   9.149   1.698
48671W        W15739  12.286  20.675   0.805
48672W        W15740  39.997  19.112  14.423
48673W        W15741   8.258  37.545   2.888
48674W        W15742  40.376  18.158   4.614
48675W        W15743  11.231  36.525   0.480
48676W        W15744  26.987  19.673   2.279
48677W        W15745   2.827   2.858   1.899
48678W        W15746   3.931  22.737   0.875
48679W        W15747  19.129  25.154   1.752
48680W        W15748  43.429   0.360  13.392
48681W        W15749   7.734  34.015  11.603
48682W        W15750  22.142  21.689  12.831
48683W        W15751   9.700  22.191   1.221
48684W        W15752   6.882  20.126  12.451
48685W        W15753  32.131  14.711   0.815
48686W        W15754  12.313  30.159  10.950
48687W        W15755   2.450   2.253   3.300
48688W        W15756  32.110  17.177   3.707
48689W        W15757  37.345  14.094  13.511
48690W        W15758   6.418  39.509   4.758
48691W        W15759  12.132  23.079   0.467
48692W        W15760  27.949  29.104   4.307
48693W        W15761   9.217  28.621   4.171
48694W        W15762  17.286  27.197   4.691
48695W        W15763   3.225  17.771   1.752
48696W        W15764  35.580  39.449   1.343
48697W        W15765  31.003  32.391  10.924
48698W        W15766   6.854   7.824   0.309
48699W        W15767  32.625  32.982   0.254
48700W        W15768  20.660  13.732  12.038
48701W        W15769  29.957  27.036  10.433
48702W        W15770  34.557  32.403  11.396
48703W        W15771   9.747  32.055  13.063
48704W        W15772  15.151  12.772  12.854
48705W        W15773  24.628   6.760  11.995
48706W        W15774  11.814  40.860   2.742
48707W        W15775  10.204   1.338   3.721
48708W        W15776  10.249  24.178   3.159
48709W        W15777  39.508  29.646  13.906
48710W        W15778  17.672  15.329  13.022
48711W        W15779  22.135   1.406   0.930
48712W        W15780  11.808  36.974  10.969
48713W        W15781   6.334  36.428  13.840
48714W        W15782  41.375  43.970   3.633
48715W        W15783  22.656  39.921   0.851
48716W        W15784  10.807  18.135  13.488
48717W        W15785  40.348  20.715   0.730
48718W        W15786  14.270  25.179   4.285
48719W        W15787  17.133  23.683   1.697
48720W        W15788  36.490  42.321   3.650
48721W        W15789  28.930  15.161   3.671
48722W        W15790   4.830  32.139   0.887
48723W        W15791  42.408  20.177   2.354
48724W        W15792  44.909  11.663  10.523
48725W        W15793   1.876  13.265   4.235
48726W        W15794  27.007  36.561   4.307
48727W        W15795  42.355  23.232   4.221
48728W        W15796  38.980  22.025  12.043
48729W        W15797  15.605  33.480  12.967
48730W        W15798  32.140   9.828   0.791
48731W        W15799  35.493  41.995   1.353
48732W        W15800  39.505  19.249  12.890
48733W        W15801  38.909   9.169  11.444
48734W        W15802  11.190  26.001   3.368
48735W        W15803  12.636  11.243   0.441
48736W        W15804   9.260   8.744   4.720
48737W        W15805  20.088   1.442   2.408
48738W        W15806  37.430  20.581   1.746
48739W        W15807  14.340  20.563   4.279
48740W        W15808  26.956  31.072   3.738
48741W        W15809  11.728  16.717   0.789
48742W        W15810  31.913  31.544   2.805
48743W        W15811  11.299  24.164   2.202
48744W        W15812  39.514   0.357  11.594
48745W        W15813  18.122  35.486   4.281
48746W        W15814  10.162   9.361   4.778
48747W        W15815  13.225  32.990  12.406
48748W        W15816   0.837  23.504   0.402
48749W        W15817  15.725  35.423   4.821
48750W        W15818  36.092  16.756   4.217
48751W        W15819  38.396  25.614   2.183
48752W        W15820  13.751  24.230  11.033
48753W        W15821  40.413  10.147  13.060
48754W        W15822  28.137  21.639  11.392
48755W        W15823  16.236  44.914  12.369
48756W        W15824  34.960  12.176   0.858
48757W        W15825   6.350  25.662  14.887
48758W        W15826  28.614  23.002   0.421
48759W        W15827  15.681  20.693  13.438
48760W        W15828  39.866   7.826   2.275
48761W        W15829  38.480  15.731   0.257
48762W        W15830  20.065  42.946   2.884
48763W        W15831  17.073   0.393  11.603
48764W        W15832  14.322  41.997   0.435
48765W        W15833  39.352  33.474  14.939
48766W        W15834  20.134  24.531  10.570
48767W        W15835  26.966  16.608   2.399
48768W        W15836   9.182   5.907   1.768
48769W        W15837  27.533  17.795   1.383
48770W        W15838  14.689  30.421  14.312
48771W        W15839   4.302  43.921   2.803
48772W        W15840  34.872   8.171   4.655
48773W        W15841  15.294  36.590   2.248
48774W        W15842  30.555  33.458   2.269
48775W        W15843  19.701  42.788   3.342
48776W        W15844  32.458   9.214  13.346
48777W        W15845  23.640   0.370  12.526
48778W        W15846   2.926   0.455  14.989
48779W        W15847  34.942  27.198   3.219
48780W        W15848  37.439  15.283  10.980
48781W        W15849  32.551  27.082   1.865
48782W        W15850  30.005  16.296   0.771
48783W        W15851  10.708   2.888  12.089
48784W        W15852  14.306  37.866   2.792
48785W        W15853  28.673  35.966   0.736
48786W        W15854   1.458   9.193  10.569
48787W        W15855  34.074  40.946   3.210
48788W        W15856  37.045   8.717   1.884
48789W        W15857  10.234  38.889  13.447
48790W        W15858   9.798  17.183  11.407
48791W        W15859  28.130   7.278  14.397
48792W        W15860  26.019  32.409  11.998
48793W        W15861  13.734   0.890  13.868
48794W        W15862  15.604  14.691  11.421
48795W        W15863  10.783  43.410  14.027
48796W        W15864  32.123  23.128   0.384
48797W        W15865  44.766   0.874   2.883
48798W        W15866   8.677  30.514   1.322
48799W        W15867  23.709  37.959   1.262
48800W        W15868  38.489   0.486  13.998
48801W        W15869  41.010  40.995  12.573
48802W        W15870  30.547  42.407   3.200
48803W        W15871   2.431  10.780  11.888
48804W        W15872  38.003  42.810  13.890
48805W        W15873  28.659   4.252  13.364
48806W        W15874  37.566  12.754  13.899
48807W        W15875  25.011  38.915  14.437
48808W        W15876  41.510  12.178   0.849
48809W        W15877  35.889   3.822   3.845
48810W        W15878  16.082  33.034  12.973
48811W        W15879  21.260  26.109   0.900
48812W        W15880   8.845  25.686   1.358
48813W        W15881  38.071  22.222  11.542
48814W        W15882  29.549   2.866   2.308
48815W        W15883  15.124   0.928   0.342
48816W        W15884  18.615  44.906  13.446
48817W        W15885  25.685  19.550   2.188
48818W        W15886  37.050  19.092  10.608
48819W        W15887  17.195  30.919   4.337
48820W        W15888  26.155  41.043   0.856
48821W        W15889  39.539  17.285   2.259
48822W        W15890  44.500  42.029   1.318
48823W        W15891  29.485  44.873  12.977
48824W        W15892  43.283  19.598   1.916
48825W        W15893  35.471  38.912  14.435
48826W        W15894  19.644  18.598   0.805
48827W        W15895  15.205  21.734  10.974
48828W        W15896   1.780   2.464   0.853
48829W        W15897  43.856  38.907  10.626
48830W        W15898   7.395   2.322  13.456
48831W        W15899   6.254  28.987  10.484
48832W        W15900  21.660  31.528  13.025
48833W        W15901  28.934  38.484  10.510
48834W        W15902   8.358   0.270   0.388
48835W        W15903  38.347  41.936   1.268
48836W        W15904   9.187  23.028  10.451
48837W        W15905  13.754  28.509  12.082
48838W        W15906  42.445  12.804  12.838
48839W        W15907   8.404  37.015  10.601
48840W        W15908  16.306  12.627   3.197
48841W        W15909  28.110  26.639  14.343
48842W        W15910  38.014  37.923   4.813
48843W        W15911  12.168  19.134   0.933
48844W        W15912  21.209  26.002  13.448
48845W        W15913  34.922   7.851   1.849
48846W        W15914  31.950  23.536  13.312
48847W        W15915  17.239  37.837  13.944
48848W        W15916  43.363  31.524   3.786
48849W        W15917  20.624  26.207   0.261
48850W        W15918  44.354  11.691   2.718
48851W        W15919   5.203  35.893  14.953
48852W        W15920  26.673  22.211   4.179
48853W        W15921  16.083  18.268  14.975
48854W        W15922  20.578  24.704   1.849
48855W        W15923  26.062   3.250  14.861
48856W        W15924  32.080  19.729   2.811
48857W        W15925   4.370  15.811   2.696
48858W        W15926  28.525  44.805  10.631
48859W        W15927   6.403  20.092   5.771
48860W        W15928  32.460  21.576   0.474
48861W        W15929   0.949  27.124  11.106
48862W        W15930   1.793  18.608   0.316
48863W        W15931  23.539  19.708   3.760
48864W        W15932  32.499   4.205   0.332
48865W        W15933  11.150  34.925   1.397
48866W        W15934  32.961  40.347   4.307
48867W        W15935  37.566  32.623  10.983
48868W        W15936   5.367  15.304   4.619
48869W        W15937   5.252  36.548  11.038
48870W        W15938  29.537  17.706  12.984
48871W        W15939  16.782   8.817  11.475
48872W        W15940  15.744  22.650  12.578
48873W        W15941  37.930  39.403   4.174
48874W        W15942   4.356  22.716   2.264
48875W        W15943  21.191   2.839   3.791
48876W        W15944  30.005  22.536   1.224
48877W        W15945  37.029   9.737   2.267
48878W        W15946  24.143  37.400  12.498
48879W        W15947  41.895  10.741  14.340
48880W        W15948  37.982   7.359  10.948
48881W        W15949   0.350  20.730   2.190
48882W        W15950   0.351  38.355   4.757
48883W        W15951   8.217   3.812   2.858
48884W        W15952  41.486   9.231  11.483
48885W        W15953   5.387  21.550   3.152
48886W        W15954  26.046  33.919   3.713
48887W        W15955   0.890  15.250  11.567
48888W        W15956  27.669  14.253   5.270
48889W        W15957   1.883  23.165  11.958
48890W        W15958   0.869  32.610   5.143
48891W        W15959  27.545  42.849  14.409
48892W        W15960  14.706  28.174  14.910
48893W        W15961  21.129   0.434  12.366
48894W        W15962  19.151  39.976  13.933
48895W        W15963  44.806  42.406   3.238
48896W        W15964   8.401  25.607   1.318
48897W        W15965  11.782  42.284  10.486
48898W        W15966  11.341  30.018   0.781
48899W        W15967  41.825  18.636   0.258
48900W        W15968  37.450  43.314   3.319
48901W        W15969  32.435   3.916   3.146
48902W        W15970   0.811  30.082  12.530
48903W        W15971  11.343  43.505   2.694
48904W        W15972  40.855  36.094   2.216
48905W        W15973  39.956   1.765  13.842
48906W        W15974  29.525  15.642   1.822
48907W        W15975  15.228  43.305  14.807
48908W        W15976  11.633  22.670   0.874
48909W        W15977   0.950   1.891   2.869
48910W        W15978  18.135  34.398  14.866
48911W        W15979  40.030  14.816  12.868
48912W        W15980  26.603  37.506  12.093
48913W        W15981   7.187  41.525   2.187
48914W        W15982  39.898  36.069   4.338
48915W        W15983  35.991  22.240   4.202
48916W        W15984   3.374  36.875  11.492
48917W        W15985   5.720  16.704   1.441
48918W        W15986  36.534  39.952   1.833
48919W        W15987  36.029  40.512   2.293
48920W        W15988   9.350  27.680   3.156
48921W        W15989   4.393   8.678   4.158
48922W        W15990  10.684  26.041   4.608
48923W        W15991   5.205  23.653   2.725
48924W        W15992   4.739  34.978   1.412
48925W        W15993  21.600  43.281  11.082
48926W        W15994  38.910  42.951  11.437
48927W        W15995   3.795  36.366  13.907
48928W        W15996  38.382  13.119  11.972
48929W        W15997  31.145  14.096  14.971
48930W        W15998  34.866   2.918   1.794
48931W        W15999  22.660  22.729  14.760
48932W        W16000  10.217   8.233  14.890
48933W        W16001   8.183  19.273   3.854
48934W        W16002   6.427  30.625  11.949
48935W        W16003  16.607  18.187  11.866
48936W        W16004  36.488  22.744  11.916
48937W        W16005  39.560  41.018  10.627
48938W        W16006   5.813  13.199   4.795
48939W        W16007  40.834  35.543   1.221
48940W        W16008  19.284  36.439  11.124
48941W        W16009  38.846  27.456   3.727
48942W        W16010  11.202  15.250  11.509
48943W        W16011  29.008  22.617  13.887
48944W        W16012  42.360  21.237   3.831
48945W        W16013  35.966   5.711  12.498
48946W        W16014  35.008  28.073  13.339
48947W        W16015  38.061  21.214  13.540
48948W        W16016  43.443  20.688   4.625
48949W        W16017  20.138  20.707  13.463
48950W        W16018  44.809  38.985  12.988
48951W        W16019  42.879  31.598  12.068
48952W        W16020  16.624  11.862   2.350
48953W        W16021  29.056   2.397   2.401
48954W        W16022  39.358  43.954  12.026
48955W        W16023   3.832  41.422  12.492
48956W        W16024  14.263   4.293   1.310
48957W        W16025  33.005  22.237  11.856
48958W        W16026  22.643  41.815   2.227
48959W        W16027  13.813  39.484  11.116
48960W        W16028  24.122  10.808   2.337
48961W        W16029  34.883   0.886   4.719
48962W        W16030  14.820   9.715   0.333
48963W        W16031  22.545  23.504  13.308
48964W        W16032  18.076   7.394  14.412
48965W        W16033  43.466   7.747  13.394
48966W        W16034   6.338  19.129  13.007
48967W        W16035  32.987  28.668  11.053
48968W        W16036  26.118   2.410   4.616
48969W        W16037  35.897  19.603  12.881
48970W        W16038  26.569   4.362   2.358
48971W        W16039  38.826  26.144   1.891
48972W        W16040   9.837  18.161  14.966
48973W        W16041  28.063  35.992  12.885
48974W        W16042  19.190  12.630  12.543
48975W        W16043  33.607  28.651   1.722
48976W        W16044   7.203   9.861  14.422
48977W        W16045  20.627   3.318  11.438
48978W        W16046   4.327  24.134   0.339
48979W        W16047  35.374  27.642  12.001
48980W        W16048  42.978   8.865   0.841
48981W        W16049  13.807   4.375  13.399
48982W        W16050  31.932  22.229   4.194
48983W        W16051  27.132  36.571   4.659
48984W        W16052  32.133  22.101   4.773
48985W        W16053   7.905  33.893   4.164
48986W        W16054  19.589  27.994  10.999
48987W        W16055   0.419   0.841   1.763
48988W        W16056   2.851  26.981   0.747
48989W        W16057  31.019  37.899  13.417
48990W        W16058  27.117  13.311  13.967
48991W        W16059   9.295  38.888  11.543
48992W        W16060  41.403  31.097  13.953
48993W        W16061  11.316   5.439  12.840
48994W        W16062  38.384   8.675   2.361
48995W        W16063  19.103   8.344   4.315
48996W        W16064  41.805   7.205   3.732
48997W        W16065   7.754  36.071   9.972
48998W        W16066   2.915  34.943   0.836
48999W        W16067  39.559  14.158  11.463
49000W        W16068  41.914   7.888   4.234
49001W        W16069  30.940  35.981  10.145
49002W        W16070  38.823  34.520   4.756
49003W        W16071  19.695   7.184  10.923
49004W        W16072   2.399  31.643  13.045
49005W        W16073  25.057   3.257   4.625
49006W        W16074  22.561  24.661   4.693
49007W        W16075  10.298  41.796   4.721
49008W        W16076  19.630  21.078   0.866
49009W        W16077  34.111  43.279  11.593
49010W        W16078  18.062   1.952  13.982
49011W        W16079  31.022  19.536   3.309
49012W        W16080   5.233  20.224   0.895
49013W        W16081   7.187  44.829   4.728
49014W        W16082  42.992  29.533   1.272
49015W        W16083  25.472  21.187  13.971
49016W        W16084  29.972  27.993  13.809
49017W        W16085  20.220  44.958  11.415
49018W        W16086   7.229  16.584  12.508
49019W        W16087   5.316  13.129   1.916
49020W        W16088  37.577  37.480   0.379
49021W        W16089  17.665  12.649  11.387
49022W        W16090   7.405  31.550   4.160
49023W        W16091  23.039  28.563  11.910
49024W        W16092  38.826  12.129   4.292
49025W        W16093  21.077   8.674  14.999
49026W        W16094  36.858  35.569   2.757
49027W        W16095   3.735  23.237   0.466
49028W        W16096  44.820  16.653   3.355
49029W        W16097  44.417  39.899  14.871
49030W        W16098  17.174  43.475  14.020
49031W        W16099  26.684  25.652  11.959
49032W        W16100  28.058  12.281   1.718
49033W        W16101  38.516  23.637  11.951
49034W        W16102  40.422  40.520   0.435
49035W        W16103  24.526  19.229  13.863
49036W        W16104   8.761   4.431  12.087
49037W        W16105  28.146  13.644   4.797
49038W        W16106  37.055   6.873  12.351
49039W        W16107  27.142   7.780  13.384
49040W        W16108  17.780  28.649  11.934
49041W        W16109  19.274   3.922   4.256
49042W        W16110   7.256  33.905   2.800
49043W        W16111  20.542   4.821  11.871
49044W        W16112  29.430  40.424   4.626
49045W        W16113   6.909   3.451  12.059
49046W        W16114   6.874  27.125   3.725
49047W        W16115  14.755  20.717   0.949
49048W        W16116  37.373  28.099   4.351
49049W        W16117  44.944   2.286  10.943
49050W        W16118  35.399   3.292   1.705
49051W        W16119  22.013  36.973   4.186
49052W        W16120  42.526  37.064  10.516
49053W        W16121  14.696   6.676   1.745
49054W        W16122  40.931  40.340   0.898
49055W        W16123  23.502  24.184   0.431
49056W        W16124  27.455  39.514   3.380
49057W        W16125  23.006  10.737  14.846
49058W        W16126  13.248  44.775   9.964
49059W        W16127  25.475  28.571   4.619
49060W        W16128  19.656  18.754   3.765
49061W        W16129   3.247  35.900   1.873
49062W        W16130  16.638  27.196  12.943
49063W        W16131  30.620  16.696   2.802
49064W        W16132  21.625  28.451  13.971
49065W        W16133  16.166   1.736  12.405
49066W        W16134   5.859  22.217   0.890
49067W        W16135   3.945  44.322  13.795
49068W        W16136  24.213  21.120   1.362
49069W        W16137  20.096  19.649  12.030
49070W        W16138  30.516   0.257   0.894
49071W        W16139   4.252  25.709  14.336
49072W        W16140  43.810  20.740   3.677
49073W        W16141  25.693   0.854  14.343
49074W        W16142  25.028  41.925  11.046
49075W        W16143  20.135  13.650  12.039
49076W        W16144  21.257  22.509  14.970
49077W        W16145  37.048  29.539   2.759
49078W        W16146  31.118  22.701  11.386
49079W        W16147  43.887  44.898  11.524
49080W        W16148  35.927  13.239   2.835
49081W        W16149  10.234  40.312   3.369
49082W        W16150   7.412  27.135  13.901
49083W        W16151   3.831  21.228   4.187
49084W        W16152  11.779  44.990   0.442
49085W        W16153  18.181   2.851  14.385
49086W        W16154  12.841  29.498   1.321
49087W        W16155  37.475  44.838  12.974
49088W        W16156  10.770  29.442  14.803
49089W        W16157  32.411  24.170   3.705
49090W        W16158  42.846   7.730  12.843
49091W        W16159  33.936  43.864   1.406
49092W        W16160  30.492  21.592  14.276
49093W        W16161  44.303  28.566  12.485
49094W        W16162   3.864  43.435  11.066
49095W        W16163  10.663  22.075  14.917
49096W        W16164  25.663  13.687  12.972
49097W        W16165  17.189  18.708  11.923
49098W        W16166  35.460  41.890   1.778
49099W        W16167  39.971  18.200  14.340
49100W        W16168  40.306  34.869   2.370
49101W        W16169   5.315  11.699  14.804
49102W        W16170  29.631  20.029  10.575
49103W        W16171   9.305  21.752   1.361
49104W        W16172  28.494  30.937   0.919
49105W        W16173   9.251  39.874   3.836
49106W        W16174  41.789   5.223  12.522
49107W        W16175  19.110  29.568  12.455
49108W        W16176  27.447  29.636   4.159
49109W        W16177   6.919  10.830  14.019
49110W        W16178  20.676   8.839  11.428
49111W        W16179  21.711  38.492  13.988
49112W        W16180  23.151  16.575  13.373
49113W        W16181  22.086  29.626  12.389
49114W        W16182  12.238  33.436   4.264
49115W        W16183  17.577  25.012   2.886
49116W        W16184  37.522   6.428   5.126
49117W        W16185   3.228  17.080  13.479
49118W        W16186  26.539  23.033   2.406
49119W        W16187   6.378  21.138  12.372
49120W        W16188   1.311  18.584   3.852
49121W        W16189   3.301  28.950   0.894
49122W        W16190   8.732   1.956   0.456
49123W        W16191   4.223  37.920  12.855
49124W        W16192   6.356  36.541   0.776
49125W        W16193  18.271  12.615  13.423
49126W        W16194  39.523  44.805   2.363
49127W        W16195  11.263  36.548   1.303
49128W        W16196   3.753  33.971  13.445
49129W        W16197  40.901  26.677  14.904
49130W        W16198  16.104   3.815  12.887
49131W        W16199  23.648  18.628  13.451
49132W        W16200  24.061   6.265   5.101
49133W        W16201  18.230  14.173   2.896
49134W        W16202  31.407   5.241   4.201
49135W        W16203   5.866   9.225  12.981
49136W        W16204  28.116  13.240   1.387
49137W        W16205  38.382   4.266   4.189
49138W        W16206  32.060   4.338   1.324
49139W        W16207  20.050  13.229   0.828
49140W        W16208   3.889  34.407   2.403
49141W        W16209   6.253  25.133  12.532
49142W        W16210   2.813  12.686  12.402
49143W        W16211  13.278  12.792   4.784
49144W        W16212  20.563  18.099  13.922
49145W        W16213  36.981  39.524  13.510
49146W        W16214  14.157  24.030   0.850
49147W        W16215  38.540   2.838   2.288
49148W        W16216  43.831   4.775  12.866
49149W        W16217   3.245   7.699   2.410
49150W        W16218  35.863  27.181  12.974
49151W        W16219  21.127   6.214   5.256
49152W        W16220   6.891  20.249   4.728
49153W        W16221  29.616  28.637  12.372
49154W        W16222  16.573  44.902   2.237
49155W        W16223   7.692  37.921  14.361
49156W        W16224   3.255  36.533  11.956
49157W        W16225  26.982  39.923  13.932
49158W        W16226   0.756  30.637  10.526
49159W        W16227  40.897  10.865  14.840
49160W        W16228  13.192  30.559   4.731
49161W        W16229   3.754  34.561  14.815
49162W        W16230  14.273  39.969   0.397
49163W        W16231  12.148   5.713  12.011
49164W        W16232  15.169  23.239  14.324
49165W        W16233  31.413  30.521  10.985
49166W        W16234   5.741  31.003   4.242
49167W        W16235  26.008  23.542   4.313
49168W        W16236  10.140  25.056  12.398
49169W        W16237  42.827  39.920  13.913
49170W        W16238   1.304  23.985  11.429
49171W        W16239  17.644  17.245   2.710
49172W        W16240  21.162   6.736   1.344
49173W        W16241  25.694  21.257   3.374
49174W        W16242  33.058  19.220  12.380
49175W        W16243  32.619  26.652  14.776
49176W        W16244   7.807  35.457  10.623
49177W        W16245  36.995   8.362   1.449
49178W        W16246   8.826  10.836   2.364
49179W        W16247  26.114  20.614   0.457
49180W        W16248   2.432   5.715  11.534
49181W        W16249  17.714  14.819  12.891
49182W        W16250  44.942  29.469   1.341
49183W        W16251   2.289   1.392  13.429
49184W        W16252  22.638  33.033  11.957
49185W        W16253  23.550  30.101   3.151
49186W        W16254   3.273  36.858   2.380
49187W        W16255   0.372  41.850  10.540
49188W        W16256  37.003  13.834  10.459
49189W        W16257  37.860  31.496  14.933
49190W        W16258   2.416  18.547   1.934
49191W        W16259  10.213  22.512   4.608
49192W        W16260  25.592   3.895  10.451
49193W        W16261   5.844  23.539  13.980
49194W        W16262   4.336  37.441  11.450
49195W        W16263   0.486  15.719   2.402
49196W        W16264  18.291  23.615  12.074
49197W        W16265  38.324  42.461   4.207
49198W        W16266  26.697  24.652   0.409
49199W        W16267   8.244  40.334  12.469
49200W        W16268  25.609  27.667   0.384
49201W        W16269   6.264  11.163   4.731
49202W        W16270  44.427  19.552  11.421
49203W        W16271  33.621  39.386   4.286
49204W        W16272  37.878  39.894   4.296
49205W        W16273  12.318  26.671  12.038
49206W        W16274   4.754  11.787   0.416
49207W        W16275  31.983   5.702  13.055
49208W        W16276  35.509  13.810  13.380
49209W        W16277  24.640   5.261   0.737
49210W        W16278  40.519  11.194   2.308
49211W        W16279  13.193  22.625  13.061
49212W        W16280  41.797  28.162   3.243
49213W        W16281  18.582  38.887  11.464
49214W        W16282  25.512  37.411  10.035
49215W        W16283  20.131  23.501   3.332
49216W        W16284  29.126  20.692  12.042
49217W        W16285   1.922  33.095   3.837
49218W        W16286  37.348  24.136  12.453
49219W        W16287  25.666  29.478   2.196
49220W        W16288  26.648  27.499   9.972
49221W        W16289  20.183  24.107  11.942
49222W        W16290  41.043  28.136  14.491
49223W        W16291   5.427   7.195   3.229
49224W        W16292  25.575   0.747   4.758
49225W        W16293  36.003   3.765  14.835
49226W        W16294   7.769  36.510  12.925
49227W        W16295  42.523  39.330  12.535
49228W        W16296  30.566  13.776   0.953
49229W        W16297  20.074  43.365  11.931
49230W        W16298  13.651  28.156  13.835
49231W        W16299  30.655  34.870   3.263
49232W        W16300  18.609  25.041   1.852
49233W        W16301  32.907  23.044  11.444
49234W        W16302  41.875  14.107   3.249
49235W        W16303   1.943  24.512  12.569
49236W        W16304  28.144  14.180  12.347
49237W        W16305  33.568  44.772   0.434
49238W        W16306  37.832   9.882   3.803
49239W        W16307   6.854  30.907  11.412
49240W        W16308  42.854   8.321  14.326
49241W        W16309  34.881   5.306  13.031
49242W        W16310  17.110  43.781   4.355
49243W        W16311   7.741  28.616   1.415
49244W        W16312  42.893  30.635  14.001
49245W        W16313  11.330  44.786  11.460
49246W        W16314  37.548   5.232   0.897
49247W        W16315  23.170  23.108  14.007
49248W        W16316  16.101  14.102   2.759
49249W        W16317  18.785  25.197   4.776
49250W        W16318  18.784  35.544  11.891
49251W        W16319   9.794  31.497   1.720
49252W        W16320  37.355  10.322   3.284
49253W        W16321  36.863  31.446  10.890
49254W        W16322  37.496  28.599   2.752
49255W        W16323  28.586  16.585   4.173
49256W        W16324  22.724  26.491   0.310
49257W        W16325  27.185  18.609  13.463
49258W        W16326  21.180  21.610   1.836
49259W        W16327  27.662  43.944  14.837
49260W        W16328   2.736  27.551   3.190
49261W        W16329  39.463  27.473   4.335
49262W        W16330  34.375  19.049  11.612
49263W        W16331  41.906  43.922  10.485
49264W        W16332  10.335  26.123  13.518
49265W        W16333  35.889  42.517   2.264
49266W        W16334  26.566   1.835  11.973
49267W        W16335   2.876   3.418  13.410
49268W        W16336  10.359   5.933  12.955
49269W        W16337  36.375  31.104  11.963
49270W        W16338  32.135  32.483   0.757
49271W        W16339  43.878  15.268   3.301
49272W        W16340  32.037   3.874  11.971
49273W        W16341  26.641  37.953   3.635
49274W        W16342  13.182  37.964  11.551
49275W        W16343  13.329   2.815   0.946
49276W        W16344  23.206  37.831   2.892
49277W        W16345   9.151  39.451  13.508
49278W        W16346  32.947  41.509   0.349
49279W        W16347   3.267  26.996  14.837
49280W        W16348   6.355  42.380  12.521
49281W        W16349  26.957  24.104  12.569
49282W        W16350  18.257  11.332  14.489
49283W        W16351  37.559  21.102   4.679
49284W        W16352   4.722  20.743  10.477
49285W        W16353  33.494   2.844   1.907
49286W        W16354  11.267  11.630   4.787
49287W        W16355   8.670  33.054  12.379
49288W        W16356  42.523  38.876   2.838
49289W        W16357  37.008  37.464   2.786
49290W        W16358  31.422  27.033   1.857
49291W        W16359  21.131   3.758  12.918
49292W        W16360   6.188  32.592  13.955
49293W        W16361  16.121  31.468   4.779
49294W        W16362  36.070  19.192   2.715
49295W        W16363  14.747  27.561   4.322
49296W        W16364   5.905  36.392  11.099
49297W        W16365  43.846  17.762   4.323
49298W        W16366  16.126  39.378  12.470
49299W        W16367  22.538  36.414   3.867
49300W        W16368   1.891  21.593  14.319
49301W        W16369  39.353  43.348  14.794
49302W        W16370   5.343  39.327   4.185
49303W        W16371  40.983  35.584   0.918
49304W        W16372  33.957  21.540   2.369
49305W        W16373  32.434   9.645  12.566
49306W        W16374  17.167   5.898   2.202
49307W        W16375  41.975  15.694  12.843
49308W        W16376   3.936  20.069  10.952
49309W        W16377  19.197  23.590  12.081
49310W        W16378  16.135   6.863   2.226
49311W        W16379  25.052   7.329   1.322
49312W        W16380   8.271  30.925  13.878
49313W        W16381   6.231  39.006  12.962
49314W        W16382  37.575  11.725   2.677
49315W        W16383  36.911  42.492   3.655
49316W        W16384  16.700  24.705   4.651
49317W        W16385  33.878  35.105   2.747
49318W        W16386  13.176  37.072   0.875
49319W        W16387  42.377  29.933   3.785
49320W        W16388  15.144  36.569   4.614
49321W        W16389  14.692   1.884   3.298
49322W        W16390  21.023  10.230   4.286
49323W        W16391  38.349  26.001  10.947
49324W        W16392  30.043  17.625  11.900
49325W        W16393  10.873  22.148   1.410
49326W        W16394   2.275  41.359   1.353
49327W        W16395  31.436  38.886  12.912
49328W        W16396  18.665  31.494  14.329
49329W        W16397   0.758  15.312  13.319
49330W        W16398  28.166  11.808  10.472
49331W        W16399  44.281  24.675  13.891
49332W        W16400  31.577   1.463   1.837
49333W        W16401  27.070  22.243   0.880
49334W        W16402  29.488  31.070  13.346
49335W        W16403  30.141  37.036  13.919
49336W        W16404   2.920   8.802  14.879
49337W        W16405  26.495  39.340   4.262
49338W        W16406  24.049  13.293  10.479
49339W        W16407  21.661  36.865  13.548
49340W        W16408   5.706  44.313   4.242
49341W        W16409   4.834  12.189   2.216
49342W        W16410  10.817   2.433   1.881
49343W        W16411  17.281  37.061  14.512
49344W        W16412  43.902  15.774  11.386
49345W        W16413  19.741  26.579   4.790
49346W        W16414  30.910  28.675   1.694
49347W        W16415  13.835  11.834  10.537
49348W        W16416   8.385  10.327  12.958
49349W        W16417  44.008   2.386   2.277
49350W        W16418  17.177  35.560   3.205
49351W        W16419   2.421  22.223  11.450
49352W        W16420  15.655  15.189  12.498
49353W        W16421  23.143  42.976   1.850
49354W        W16422   3.315  10.254  10.906
49355W        W16423   0.297  43.354   2.195
49356W        W16424   3.920  10.643   1.908
49357W        W16425  28.657  16.758   1.928
49358W        W16426  40.970  17.250   2.374
49359W        W16427  41.851  28.152   0.248
49360W        W16428  16.107  12.357   4.230
49361W        W16429  21.582   5.699   3.275
49362W        W16430  43.880  29.982   1.230
49363W        W16431   1.759  35.404  10.951
49364W        W16432  10.223  40.854   2.221
49365W        W16433   1.742  35.102   0.798
49366W        W16434   9.207  42.357   3.706
49367W        W16435  30.641  29.112  11.514
49368W        W16436  27.087   2.253   4.628
49369W        W16437  14.159  15.129   2.374
49370W        W16438   9.173   9.230   2.732
49371W        W16439  20.073  17.202  12.023
49372W        W16440  25.624  38.862   3.297
49373W        W16441  31.561  15.812   0.414
49374W        W16442  26.516  41.373   5.293
49375W        W16443  40.393  34.901   0.849
49376W        W16444  39.035  28.581  10.609
49377W        W16445  35.065  36.016   3.715
49378W        W16446  35.011  22.238   2.294
49379W        W16447   9.726  27.509   1.702
49380W        W16448   8.719  24.667  11.564
49381W        W16449  17.686  15.209  12.568
49382W        W16450  16.801  18.064   1.879
49383W        W16451  14.635  26.531   0.755
49384W        W16452   2.380   5.278  14.831
49385W        W16453  34.880   2.346  13.851
49386W        W16454  21.052  32.901   2.719
49387W        W16455  16.771  14.333  14.426
49388W        W16456  41.468  33.974  13.889
49389W        W16457  23.626  24.170   0.855
49390W        W16458   6.877  40.305  11.095
49391W        W16459  24.045  35.556   3.677
49392W        W16460  30.501  41.899  11.093
49393W        W16461  37.397   1.468  13.908
49394W        W16462   5.873  32.007  12.357
49395W        W16463  21.647  32.889   1.842
49396W        W16464  18.769   2.405  14.015
49397W        W16465  37.446  25.681   2.876
49398W        W16466   3.867  20.590  13.397
49399W        W16467  31.507  19.144   3.268
49400W        W16468  18.164  17.606   1.297
49401W        W16469   3.363  15.725  10.430
49402W        W16470  10.199  40.943  12.548
49403W        W16471   5.406  11.266   4.277
49404W        W16472  18.290  44.976  11.509
49405W        W16473  17.723  22.693  14.435
49406W        W16474  44.424  38.543  11.042
49407W        W16475   9.311  39.383   4.676
49408W        W16476  39.353  32.110  12.351
49409W        W16477   5.894  26.059   4.122
49410W        W16478  43.963   1.894  11.489
49411W        W16479  15.755  25.013  12.965
49412W        W16480  40.860  10.177   0.927
49413W        W16481  38.064  19.100  13.407
49414W        W16482   3.727  20.675   4.820
49415W        W16483   2.418  41.504   3.657
49416W        W16484  36.588   0.318  14.438
49417W        W16485   7.303  20.201  14.885
49418W        W16486  39.543  32.068   2.764
49419W        W16487  32.542  15.622   4.148
49420W        W16488  41.962   8.813   5.126
49421W        W16489  26.619  21.039   4.239
49422W        W16490  18.609  24.186  11.475
49423W        W16491  20.134  10.385   2.348
49424W        W16492  40.904  40.842   1.382
49425W        W16493   1.892  31.436  12.019
49426W        W16494  33.447  32.022   3.237
49427W        W16495   3.858  34.101  11.465
49428W        W16496  36.901   5.802   3.336
49429W        W16497  17.108  37.994  11.927
49430W        W16498  41.846  39.981   0.865
49431W        W16499  27.008  37.413   0.881
49432W        W16500  39.436  29.066  10.533
49433W        W16501  32.408  36.097  11.557
49434W        W16502  17.768  26.995   3.173
49435W        W16503  42.443  18.080   0.797
49436W        W16504  18.170   2.457   2.256
49437W        W16505   4.326  40.329  12.520
49438W        W16506   2.925  23.565  13.847
49439W        W16507   5.254  44.841   3.689
49440W        W16508  33.043  41.832   4.307
49441W        W16509  28.112  30.951  11.518
49442W        W16510  42.479  22.103   1.730
49443W        W16511  12.136   2.893  11.480
49444W        W16512  40.309  10.669  13.011
49445W        W16513  33.614  22.199  12.876
49446W        W16514  14.226  29.009   3.847
49447W        W16515  16.742  41.914   1.742
49448W        W16516  34.495   7.325   4.771
49449W        W16517  44.814  31.538  14.948
49450W        W16518  20.573   5.708   0.348
49451W        W16519  32.523  44.875   0.889
49452W        W16520   1.370   4.253  14.971
49453W        W16521   0.375   2.353  11.955
49454W        W16522   4.739  25.024   5.249
49455W        W16523  20.214  43.464  14.280
49456W        W16524  28.589  29.521   2.667
49457W        W16525  23.045  43.869   0.263
49458W        W16526   1.319  32.510   0.922
49459W        W16527  37.077  11.863   0.306
49460W        W16528   1.462   1.858   0.745
49461W        W16529  34.046  20.074   0.764
49462W        W16530  42.950  11.679   2.805
49463W        W16531  35.475   4.912   0.847
49464W        W16532   1.788  24.588  13.906
49465W        W16533  41.487   1.873  13.855
49466W        W16534  19.094  24.036  10.612
49467W        W16535  44.267   8.241  13.916
49468W        W16536  28.630  42.827   5.235
49469W        W16537   1.916  10.198   3.204
49470W        W16538   4.717  31.998  10.430
49471W        W16539  43.426  25.617  13.323
49472W        W16540  27.485  44.297   1.924
49473W        W16541  22.579  20.653  13.865
49474W        W16542  13.181  31.630  14.481
49475W        W16543   7.317  42.518  11.941
49476W        W16544  19.270  16.752  12.995
49477W        W16545  25.205  10.815  14.485
49478W        W16546  28.113   2.397  14.004
49479W        W16547  24.493  43.905   0.436
49480W        W16548  18.162  26.042   3.870
49481W        W16549   1.422  28.650  13.811
49482W        W16550   8.261  36.498   2.232
49483W        W16551   8.238  37.063  12.837
49484W        W16552  19.093  28.030   0.397
49485W        W16553  39.998   9.363   2.227
49486W        W16554  29.957  41.944   1.373
49487W        W16555   4.208   3.456   2.838
49488W        W16556  29.127  17.645  14.333
49489W        W16557   1.256  35.448  11.587
49490W        W16558  13.153  17.147   0.822
49491W        W16559  19.780  36.582  10.599
49492W        W16560   3.942  11.749  12.963
49493W        W16561  20.598  41.386  14.433
49494W        W16562  15.683  37.351   4.154
49495W        W16563  27.096  41.508   4.710
49496W        W16564   4.411  22.609  11.901
49497W        W16565  28.096  20.753  13.847
49498W        W16566  30.018  17.131  14.870
49499W        W16567  35.895   7.854  13.818
49500W        W16568  24.125  17.272   1.215
49501W        W16569  13.828  35.887  11.001
49502W        W16570  20.650   1.351  11.484
49503W        W16571  14.174   2.274   4.836
49504W        W16572   2.266  31.918   2.401
49505W        W16573   1.745   2.933   4.720
49506W        W16574  29.576  39.518   0.838
49507W        W16575   6.303   3.903   2.726
49508W        W16576   4.437  44.831   0.257
49509W        W16577  30.590   2.420  12.082
49510W        W16578  38.428   2.269  11.607
49511W        W16579   2.722  22.019  11.406
49512W        W16580  22.184  11.326   3.156
49513W        W16581  24.019   9.757  12.477
49514W        W16582  24.134  28.055  13.924
49515W        W16583  31.914  26.501   3.314
49516W        W16584  26.041  32.944  12.953
49517W        W16585  27.143  36.592  13.313
49518W        W16586  23.101  29.432  14.887
49519W        W16587  33.588  44.483  14.414
49520W        W16588  10.263   0.460   3.384
49521W        W16589  13.349   4.740  14.017
49522W        W16590   7.190  13.618  13.388
49523W        W16591   6.340  32.120  10.149
49524W        W16592  20.075  28.614  14.389
49525W        W16593   2.232  26.120  11.950
49526W        W16594  25.979   2.384   3.641
49527W        W16595   4.755  19.257   0.368
49528W        W16596  32.516  19.575   2.205
49529W        W16597  11.765   4.365  13.957
49530W        W16598  30.975   2.751  12.427
49531W        W16599  34.024  19.150   4.168
49532W        W16600  32.142  34.026   2.838
49533W        W16601  13.666   3.331   4.712
49534W        W16602  11.700  26.697   0.405
49535W        W16603  30.597  13.258  14.486
49536W        W16604  14.596  25.596  13.952
49537W        W16605   5.345  21.112  11.120
49538W        W16606  12.321  42.804  14.759
49539W        W16607  36.062   8.173  14.359
49540W        W16608   1.371  42.313   3.383
49541W        W16609  15.578  23.713  12.954
49542W        W16610  14.101   7.184  13.055
49543W        W16611  20.652  12.821   3.327
49544W        W16612  23.143  43.962   2.197
49545W        W16613  17.576  27.957   4.332
49546W        W16614   1.758  36.522   1.901
49547W        W16615  12.251  14.712  11.125
49548W        W16616  19.143   9.861  14.512
49549W        W16617  10.797  30.653   2.359
49550W        W16618  33.573   4.334   1.842
49551W        W16619  24.534   5.222   4.668
49552W        W16620   9.822  30.048  12.496
49553W        W16621   7.693  25.110  10.442
49554W        W16622  39.017   9.852   3.281
49555W        W16623  31.628  42.962   3.757
49556W        W16624  10.678  39.890   1.806
49557W        W16625  30.157  24.535  12.369
49558W        W16626   9.197  15.617   0.781
49559W        W16627  22.747   3.384  13.914
49560W        W16628  39.026   6.758  14.806
49561W        W16629  36.350  41.380   1.348
49562W        W16630  30.425  41.415   0.906
49563W        W16631  17.650   0.886   3.261
49564W        W16632  43.782  39.981  13.961
49565W        W16633   9.223  33.882  13.409
49566W        W16634   8.273  14.722  13.925
49567W        W16635   7.282  42.287   4.669
49568W        W16636  43.904  44.295   2.805
49569W        W16637   8.889  17.167   3.642
49570W        W16638  42.806   5.910  12.523
49571W        W16639   2.753  30.543  13.442
49572W        W16640  21.137  32.527   0.936
49573W        W16641  38.957  25.531   2.229
49574W        W16642  44.479  10.877  14.794
49575W        W16643   4.428  34.098  11.914
49576W        W16644  44.999   7.406  10.565
49577W        W16645   5.367   1.828   3.813
49578W        W16646  43.407  18.058   0.267
49579W        W16647  28.109  38.494  14.501
49580W        W16648  14.188  32.972   2.899
49581W        W16649   2.310  44.474   2.717
49582W        W16650  33.488  17.299   3.651
49583W        W16651  23.672   5.699   3.365
49584W        W16652  13.150  42.410  12.511
49585W        W16653   0.778  17.160   4.712
49586W        W16654   9.200  21.151   1.325
49587W        W16655  44.999  32.047  11.593
49588W        W16656  40.973   7.293   0.925
49589W        W16657  44.883  13.250  13.509
49590W        W16658   4.888  19.111   3.207
49591W        W16659  38.443   1.939   1.792
49592W        W16660  15.579   2.733  13.534
49593W        W16661  44.981  24.142   1.859
49594W        W16662  37.831  31.072  14.364
49595W        W16663  34.471   2.465   1.855
49596W        W16664  40.516  35.956   0.425
49597W        W16665  16.761   1.276   0.379
49598W        W16666  33.047  16.298   3.862
49599W        W16667  23.736   3.876  11.015
49600W        W16668  35.854   8.761  10.599
49601W        W16669  20.089  33.396   0.916
49602W        W16670  26.598  11.158  13.334
49603W        W16671   8.316  13.671  13.494
49604W        W16672  28.040  35.927  13.858
49605W        W16673  23.098  18.785   4.633
49606W        W16674  36.037  36.561   4.630
49607W        W16675  15.295  24.069   4.196
49608W        W16676   6.728  13.172   1.911
49609W        W16677  32.491  41.898   4.784
49610W        W16678   6.815   8.856   1.424
49611W        W16679   6.679  18.776   2.183
49612W        W16680  19.154  31.612   0.842
49613W        W16681  34.552   4.232   1.398
49614W        W16682  31.460   5.408  11.452
49615W        W16683  26.062  15.672  10.984
49616W        W16684   9.382  21.095   2.688
49617W        W16685  35.389  16.299  11.611
49618W        W16686  10.151  23.985  11.521
49619W        W16687   5.764  13.714  11.423
49620W        W16688  35.948   7.824   0.441
49621W        W16689  16.610   0.889  13.943
49622W        W16690  22.220  27.612   4.635
49623W        W16691  35.551  14.225   0.408
49624W        W16692  42.520   8.161  11.030
49625W        W16693  28.108  15.093  13.526
49626W        W16694  43.817  14.163  13.986
49627W        W16695  16.810   3.763  10.441
49628W        W16696  38.064   4.296   3.220
49629W        W16697  26.081  30.575  13.868
49630W        W16698  10.243  20.065   1.238
49631W        W16699  44.981  23.129  11.042
49632W        W16700   9.647  33.500   0.340
49633W        W16701   0.794  30.585   2.748
49634W        W16702  13.759  16.197  14.300
49635W        W16703  42.973  34.005  13.311
49636W        W16704   5.880  33.917   0.869
49637W        W16705  20.053  20.738   0.846
49638W        W16706   0.401  44.837   1.224
49639W        W16707   8.209   3.268  14.908
49640W        W16708   8.705   0.423  14.297
49641W        W16709   4.332  35.032   0.352
49642W        W16710  10.351   4.402   3.368
49643W        W16711  35.436   1.852  13.529
49644W        W16712  39.498  16.205  11.916
49645W        W16713  12.811  35.552  14.509
49646W        W16714   7.810  30.516   1.844
49647W        W16715   0.828   4.792  12.453
49648W        W16716  41.423  18.277   3.162
49649W        W16717  36.559   4.372   2.809
49650W        W16718  35.025   8.767   4.199
49651W        W16719  33.884  13.133   3.829
49652W        W16720  17.578  27.062  11.902
49653W        W16721  21.104  18.128  10.501
49654W        W16722  21.599  21.529  13.907
49655W        W16723  13.317  23.619  10.481
49656W        W16724   0.875  27.539  11.912
49657W        W16725  43.846  26.170  12.936
49658W        W16726  25.473  28.012   3.683
49659W        W16727   2.807  38.338  14.897
49660W        W16728  44.916  41.861  13.345
49661W        W16729  16.581   5.801   0.745
49662W        W16730  11.648  29.644  12.383
49663W        W16731  29.081  42.419   3.379
49664W        W16732  19.657  11.848   3.657
49665W        W16733  15.202   0.319   4.655
49666W        W16734  11.317  14.733  12.009
49667W        W16735  34.435  36.358   3.691
49668W        W16736  17.791  30.498  10.447
49669W        W16737  20.578  19.595  11.492
49670W        W16738   6.204   8.804  12.465
49671W        W16739  16.751  29.472   3.165
49672W        W16740  36.842  20.110  11.074
49673W        W16741  18.083  21.033  12.445
49674W        W16742   0.487  43.411  13.809
49675W        W16743  22.225  25.494  13.335
49676W        W16744  17.152  28.435   0.810
49677W        W16745  42.962  41.011  12.842
49678W        W16746   7.737  33.061   1.319
49679W        W16747   2.872  38.988   4.617
49680W        W16748  26.070  13.726   0.828
49681W        W16749   3.854  35.475  14.954
49682W        W16750   9.771  29.014  12.461
49683W        W16751   7.318  19.149   0.874
49684W        W16752  18.637   3.881   0.911
49685W        W16753  18.683  35.931  11.485
49686W        W16754  32.997  30.490  14.416
49687W        W16755  16.629   5.297   3.802
49688W        W16756   6.912   5.861   1.923
49689W        W16757   8.343   8.209  14.404
49690W        W16758   7.240  40.391   0.336
49691W        W16759  43.931  42.931  10.619
49692W        W16760  37.950   7.872  12.970
49693W        W16761  26.038  18.261   2.261
49694W        W16762   3.902  41.413  14.916
49695W        W16763  44.772   8.373   4.336
49696W        W16764  10.265  31.453   3.364
49697W        W16765  13.763  36.474  13.015
49698W        W16766  32.549  20.564   0.430
49699W        W16767  30.163   3.228  13.502
49700W        W16768  38.926  43.956   1.822
49701W        W16769  41.903  38.354   3.267
49702W        W16770   9.842   3.364  12.367
49703W        W16771  10.268  30.135  13.887
49704W        W16772   6.699  10.196   2.726
49705W        W16773  25.534   0.272   3.853
49706W        W16774  21.220   6.684  11.427
49707W        W16775   4.418  12.668  12.083
49708W        W16776  15.104  29.529  14.474
49709W        W16777   4.929  29.485  11.916
49710W        W16778   6.888  44.453  13.369
49711W        W16779  19.102  11.264   4.708
49712W        W16780  36.490   8.362  11.862
49713W        W16781  39.560  18.124  14.983
49714W        W16782  21.144  36.044   3.690
49715W        W16783  19.693   6.315  12.460
49716W        W16784  18.635  25.128   2.217
49717W        W16785  36.444   7.249   1.216
49718W        W16786  24.489  36.923  10.941
49719W        W16787  42.354  26.691  14.918
49720W        W16788   0.924  41.389   1.258
49721W        W16789  22.124   4.928   0.405
49722W        W16790  21.560  31.933  12.861
49723W        W16791  41.350  44.900  14.450
49724W        W16792  39.322  14.716  12.870
49725W        W16793  22.223  35.549  12.490
49726W        W16794  42.917  35.361  11.103
49727W        W16795   7.879   1.289   2.286
49728W        W16796  24.154  35.992   2.190
49729W        W16797  37.073  13.246   2.780
49730W        W16798  26.144  38.471  11.931
49731W        W16799  35.986  26.027   3.631
49732W        W16800  29.512   6.329   5.134
49733W        W16801  40.029  20.552   4.651
49734W        W16802  14.722  22.156  13.975
49735W        W16803  43.883  35.589   4.712
49736W        W16804  26.628  40.496  11.077
49737W        W16805  25.106  37.418   2.339
49738W        W16806  17.679  30.050   3.871
49739W        W16807  20.692   7.841  11.419
49740W        W16808  11.246  23.692   0.882
49741W        W16809  19.685  44.436  14.455
49742W        W16810  44.331  31.041  13.943
49743W        W16811  19.597  42.405  10.621
49744W        W16812   3.367  43.390  12.348
49745W        W16813  44.371   1.385   4.650
49746W        W16814  31.971  25.092   2.373
49747W        W16815  35.070  32.422  13.810
49748W        W16816  10.377  36.432  13.001
49749W        W16817   0.930   1.843  14.019
49750W        W16818  10.805  22.058  11.120
49751W        W16819  38.969   5.207  11.592
49752W        W16820  31.562  43.850  14.459
49753W        W16821   1.798  41.487   1.796
49754W        W16822   1.782  43.506   3.720
49755W        W16823  40.798  10.788  14.347
49756W        W16824  36.059   4.854  14.853
49757W        W16825  44.778  18.153  10.438
49758W        W16826  33.611  16.277   3.344
49759W        W16827  43.910  26.502  12.417
49760W        W16828  22.208  13.309   4.263
49761W        W16829  33.056   3.314  12.093
49762W        W16830  22.737  38.851   2.691
49763W        W16831  14.615  11.190   3.707
49764W        W16832  31.580  23.638   5.654
49765W        W16833   2.852  30.545   1.236
49766W        W16834  38.983   0.966  10.606
49767W        W16835  11.722   5.257  13.863
49768W        W16836  23.709  17.238   1.853
49769W        W16837   7.672  32.105   1.430
49770W        W16838   1.885  14.661   1.296
49771W        W16839  31.567  29.649  13.323
49772W        W16840   7.887  44.283  13.468
49773W        W16841  20.641  21.202   3.725
49774W        W16842   8.386  42.415  11.080
49775W        W16843  45.000   5.202   1.927
49776W        W16844   5.255  17.122   0.772
49777W        W16845   0.371  35.408  14.348
49778W        W16846   1.307   1.385  12.436
49779W        W16847   8.660  39.044  12.036
49780W        W16848   3.352  29.960  12.055
49781W        W16849  11.706  21.116   2.331
49782W        W16850  30.975  20.523   0.353
49783W        W16851   8.295  11.860   3.712
49784W        W16852  43.825  38.560   0.453
49785W        W16853  42.019   8.686   4.678
49786W        W16854  18.670  38.340   3.196
49787W        W16855  24.168  38.025  13.368
49788W        W16856   2.363   2.402  13.050
49789W        W16857  19.138  22.147  14.865
49790W        W16858  19.100  13.262   4.676
49791W        W16859  36.998  18.551  14.827
49792W        W16860  24.068  14.323  10.626
49793W        W16861  18.730  14.316  10.109
49794W        W16862  38.033   5.739  14.817
49795W        W16863  22.507   5.908   3.779
49796W        W16864  29.122  16.151  11.996
49797W        W16865  35.988  19.652   2.676
49798W        W16866  27.178  40.393  11.958
49799W        W16867   8.276   3.318  10.582
49800W        W16868  10.815  43.965  13.444
49801W        W16869  39.838  14.776   2.381
49802W        W16870  16.727  42.879  13.845
49803W        W16871  33.888   4.757  13.516
49804W        W16872  37.444  19.569   2.781
49805W        W16873  11.809  31.109   2.852
49806W        W16874  25.980   1.419   2.214
49807W        W16875  27.013  20.613   4.801
49808W        W16876   2.836   8.832  10.487
49809W        W16877   1.885  37.035  13.520
49810W        W16878  38.418  33.946   0.477
49811W        W16879   0.758  39.828   3.238
49812W        W16880  20.061  16.793  14.511
49813W        W16881  18.611  14.311  10.599
49814W        W16882  22.669   6.703  11.924
49815W        W16883  30.499  13.266  12.968
49816W        W16884  36.933   3.825  14.005
49817W        W16885  33.951   9.190   3.281
49818W        W16886  25.973  41.307  12.513
49819W        W16887  30.111  19.739  14.496
49820W        W16888  32.918   7.291   3.804
49821W        W16889  25.655  36.911   3.665
49822W        W16890   6.188  16.159  11.602
49823W        W16891   8.291  36.090  10.890
49824W        W16892  36.984   7.791  14.362
49825W        W16893   4.230  20.766   4.683
49826W        W16894  18.571  20.079   1.825
49827W        W16895  13.838  28.971  11.533
49828W        W16896  28.630  38.362  12.834
49829W        W16897   5.278   2.257   1.322
49830W        W16898  22.508   5.239  12.910
49831W        W16899  37.420  43.447  11.860
49832W        W16900  44.381  41.989   2.726
49833W        W16901  11.712  15.758  14.467
49834W        W16902  11.201  37.921  11.984
49835W        W16903   4.389  17.558  12.381
49836W        W16904  10.161  15.104  14.812
49837W        W16905  38.466   5.856  13.896
49838W        W16906  17.145  25.502   1.713
49839W        W16907  11.214  17.171  11.985
49840W        W16908  40.382  31.120   0.248
49841W        W16909   4.352  35.949   2.231
49842W        W16910  36.459  32.956   0.883
49843W        W16911  15.138  12.143   0.859
49844W        W16912  14.718  37.394  12.363
49845W        W16913  24.656  13.721   4.600
49846W        W16914  21.077   4.911   0.739
49847W        W16915  31.543  12.856  14.358
49848W        W16916  10.152  29.936   0.918
49849W        W16917  26.202  18.167  12.433
49850W        W16918  21.234  18.717  10.903
49851W        W16919  32.040  11.643   1.312
49852W        W16920   2.825  41.915   4.186
49853W        W16921   2.839  35.556  11.941
49854W        W16922  12.226   4.365  13.472
49855W        W16923  29.920  22.590  12.036
49856W        W16924  28.663  27.991   3.358
49857W        W16925  23.239  22.102   4.756
49858W        W16926  21.631  28.562  13.038
49859W        W16927   8.210  41.962   3.328
49860W        W16928  16.268  23.564   1.929
49861W        W16929  23.012  38.386   9.993
49862W        W16930  28.020  16.637  14.025
49863W        W16931  24.112  36.475   0.761
49864W        W16932   9.295  37.986  11.376
49865W        W16933  41.865  13.748  11.053
49866W        W16934  36.433  25.081  11.952
49867W        W16935  29.110   4.756   2.200
49868W        W16936  35.429  31.925   3.178
49869W        W16937  11.779  31.959  12.953
49870W        W16938  36.530  27.118   2.675
49871W        W16939  40.963   4.725  12.962
49872W        W16940   8.797   9.154   2.305
49873W        W16941  34.105   4.249   2.731
49874W        W16942  19.083  27.540  11.016
49875W        W16943   2.926  30.584  13.841
49876W        W16944   9.674  23.091  12.443
49877W        W16945  15.201  40.514  12.836
49878W        W16946  39.865  11.327   3.254
49879W        W16947  12.189  31.004  13.383
49880W        W16948  20.745  29.142  14.298
49881W        W16949  32.552  28.481   9.932
49882W        W16950   1.879  25.220  14.761
49883W        W16951  23.140  25.703  13.513
49884W        W16952  13.227  41.444   1.703
49885W        W16953  37.528  14.209   2.773
49886W        W16954   6.382  29.082   0.853
49887W        W16955  28.598  23.150   2.282
49888W        W16956  16.245  42.443   3.265
49889W        W16957  38.989  18.096  11.011
49890W        W16958  44.865  44.863   2.770
49891W        W16959  19.543  15.235  11.530
49892W        W16960   0.317   2.955   0.313
49893W        W16961  26.987  14.324  11.510
49894W        W16962  25.549  19.059  12.917
49895W        W16963  34.055  34.976  14.798
49896W        W16964  33.118  38.027   3.652
49897W        W16965  41.996  21.615   0.391
49898W        W16966  28.114  36.973   0.734
49899W        W16967  15.223  30.121  13.415
49900W        W16968   2.290   8.691  14.343
49901W        W16969  33.438  17.092   4.787
49902W        W16970  33.495  35.572   0.441
49903W        W16971  17.088  12.785   3.762
49904W        W16972  21.713  31.638  13.513
49905W        W16973  35.471  37.532  13.399
49906W        W16974  23.637   6.345  12.368
49907W        W16975  11.848   5.236   2.334
49908W        W16976  37.014  30.417  13.861
49909W        W16977  28.603   4.246  11.081
49910W        W16978  30.652   6.752  12.960
49911W        W16979  23.198  18.120  14.505
49912W        W16980  13.113  15.783  10.477
49913W        W16981  34.090  26.170   0.245
49914W        W16982  42.298  26.555  13.007
49915W        W16983   2.306   4.313  10.589
49916W        W16984  12.326   4.925   4.614
49917W        W16985  25.107  25.042  14.313
49918W        W16986  44.861  38.552   1.408
49919W        W16987  41.504   0.953  11.921
49920W        W16988   9.860  41.395  12.882
49921W        W16989  24.586  19.054  11.599
49922W        W16990  16.746  25.601   1.389
49923W        W16991  37.345  41.001  13.870
49924W        W16992  10.361  25.040  10.630
49925W        W16993  40.959   7.834   1.873
49926W        W16994  10.162  21.090  11.372
49927W        W16995  12.316  38.379   0.901
49928W        W16996  24.006  40.808   0.422
49929W        W16997  40.881  23.228   2.322
49930W        W16998  31.569  12.120   1.269
49931W        W16999  31.057  24.613   5.674
49932W        W17000   4.898  19.683  11.607
49933W        W17001  32.477  24.584   1.355
49934W        W17002  19.174   5.790  14.439
49935W        W17003  12.631  25.160  14.284
49936W        W17004  26.541  29.008  11.955
49937W        W17005  15.124  23.600   4.204
49938W        W17006  33.584  20.651   2.187
49939W        W17007   8.280  18.602  13.883
49940W        W17008   8.279   9.390   1.771
49941W        W17009   2.802   8.182  11.427
49942W        W17010   7.213  11.761   3.195
49943W        W17011  24.510   1.850   3.281
49944W        W17012  27.671  28.944   4.710
49945W        W17013  42.380  31.490  14.797
49946W        W17014  39.828  30.154  11.390
49947W        W17015   5.365  27.074  13.526
49948W        W17016  37.529  28.160   3.354
49949W        W17017  24.635  34.395  11.028
49950W        W17018  15.255   4.885  14.493
49951W        W17019   7.888  12.308  10.555
49952W        W17020  41.436   1.821   2.295
49953W        W17021  42.991  37.852  11.046
49954W        W17022  18.755  37.866   1.271
49955W        W17023  35.359  21.209   0.299
49956W        W17024   2.733  28.072   0.772
49957W        W17025  26.018  17.732  12.919
49958W        W17026  39.507  26.131   2.857
49959W        W17027   3.854  10.326   2.666
49960W        W17028  30.053  28.440  10.446
49961W        W17029  24.053  22.123   1.336
49962W        W17030  24.207  22.090   0.894
49963W        W17031  14.300   6.360   4.716
49964W        W17032  21.682  36.426   2.703
49965W        W17033  30.553  26.165   4.123
49966W        W17034   7.220  21.024   3.777
49967W        W17035  16.145  37.860   2.688
49968W        W17036  15.714  37.045   3.726
49969W        W17037  24.616   0.292   0.738
49970W        W17038  30.482  12.645  10.454
49971W        W17039  34.919  44.935  13.849
49972W        W17040   3.438  33.038   2.777
49973W        W17041  32.923  31.599   1.798
49974W        W17042  33.941  15.771   3.167
49975W        W17043  18.708  29.521  11.474
49976W        W17044  37.844   5.221   2.796
49977W        W17045  31.088  42.408   0.420
49978W        W17046  28.480  18.262  10.542
49979W        W17047   9.362  16.234   3.259
49980W        W17048  19.204  16.292  10.934
49981W        W17049  29.502  38.930   0.441
49982W        W17050  29.961  14.138  14.467
49983W        W17051  38.982  12.835  14.378
49984W        W17052  28.672  29.626  14.323
49985W        W17053  43.008  21.616   3.781
49986W        W17054  21.660  36.373   0.828
49987W        W17055  36.933  37.951  13.928
49988W        W17056  31.996  32.413   4.821
49989W        W17057  40.013  36.564   0.332
49990W        W17058  43.878  34.906   0.932
49991W        W17059  36.984  10.215   3.349
49992W        W17060  43.013  30.644   0.768
49993W        W17061  37.400  10.222  11.118
49994W        W17062   2.914  14.276   1.723
49995W        W17063  17.204  26.194  12.467
49996W        W17064   9.265   2.904  12.417
49997W        W17065  15.090  15.697   5.243
49998W        W17066  38.060  33.016   1.859
49999W        W17067  38.908   2.419  14.007
50000W        W17068  16.094   2.791   1.727
50001W        W17069  26.003  34.974   1.811
50002W        W17070   3.362  23.560  10.420
50003W        W17071  20.631  39.371   4.200
50004W        W17072   0.282  36.486  12.055
50005W        W17073  21.718  32.483  12.050
50006W        W17074  44.420   4.871  12.872
50007W        W17075  26.479  44.370   1.866
50008W        W17076  15.163  12.666  11.922
50009W        W17077  29.130  27.557  14.282
50010W        W17078  34.940   5.818   9.981
50011W        W17079  14.825  25.525   0.964
50012W        W17080  30.522  11.642   2.844
50013W        W17081  10.771  39.463   2.371
50014W        W17082  22.159   2.940  10.468
50015W        W17083  27.004   4.263  11.049
50016W        W17084  15.121  30.931   4.148
50017W        W17085  16.697   5.711   4.708
50018W        W17086  20.264   0.803   4.775
50019W        W17087   6.868   1.465  11.416
50020W        W17088  15.709   6.724  13.429
50021W        W17089  17.659  13.648  11.930
50022W        W17090  26.523   3.306   0.803
50023W        W17091  12.711  26.511  13.944
50024W        W17092  43.329  15.790  10.418
50025W        W17093  30.162   7.180   0.943
50026W        W17094  20.602  24.110  14.934
50027W        W17095   9.220  22.594  10.539
50028W        W17096  38.386   3.812   2.720
50029W        W17097  39.902  37.993  13.471
50030W        W17098  33.559  39.433   2.770
50031W        W17099  23.041  44.386   3.231
50032W        W17100  37.963   1.779   2.838
50033W        W17101  23.007  41.040   2.716
50034W        W17102  26.008  41.428   2.809
50035W        W17103   6.879   8.826   4.712
50036W        W17104   3.799  20.564  12.541
50037W        W17105  40.926  11.213  14.488
50038W        W17106  15.151   7.200   5.265
50039W        W17107  19.085   9.154  14.503
50040W        W17108  35.591  40.328   1.319
50041W        W17109  27.118   7.336  13.004
50042W        W17110   3.888  21.632   4.339
50043W        W17111  21.645  15.610   4.699
50044W        W17112  22.569  40.846  12.894
50045W        W17113  43.993   0.347  11.527
50046W        W17114  15.647   4.387   3.736
50047W        W17115   7.903  15.270   3.169
50048W        W17116  18.577   7.264   4.834
50049W        W17117  16.153  36.493   2.691
50050W        W17118  17.586   2.296  12.980
50051W        W17119  16.782  16.190  14.930
50052W        W17120  17.194   4.834   3.273
50053W        W17121  39.854  33.399  10.943
50054W        W17122   9.196   1.447   2.199
50055W        W17123  34.524   9.208   0.474
50056W        W17124  28.607  43.822  13.792
50057W        W17125  28.639  16.246  14.452
50058W        W17126   4.941  23.676  12.940
50059W        W17127  22.175   9.793  12.391
50060W        W17128  23.731  24.493   1.885
50061W        W17129  44.333  18.738  14.023
50062W        W17130  13.769  33.085  10.596
50063W        W17131   3.280  24.644  13.896
50064W        W17132  25.012  23.144  11.973
50065W        W17133  25.205  15.665   4.647
50066W        W17134  40.980   3.835   3.321
50067W        W17135  36.579  34.469  12.553
50068W        W17136  35.017  21.068   1.932
50069W        W17137  17.678  23.545  14.426
50070W        W17138  38.523  17.122   2.253
50071W        W17139  38.435  21.653  12.469
50072W        W17140  30.050  25.996  10.993
50073W        W17141  20.233  34.590   0.312
50074W        W17142  38.453  20.165   4.730
50075W        W17143  11.167  17.178   2.867
50076W        W17144  13.277   6.814   3.331
50077W        W17145   9.187  18.648   4.307
50078W        W17146  12.201  44.325   0.932
50079W        W17147  19.580  31.085   2.180
50080W        W17148  28.551  35.518   1.300
50081W        W17149  32.902  38.394  14.879
50082W        W17150  19.103  13.345  14.283
50083W        W17151  21.130   7.717  11.426
50084W        W17152  35.046   5.896   4.709
50085W        W17153  17.611  22.209  10.413
50086W        W17154  15.714  10.762  10.972
50087W        W17155  25.478  16.685  14.792
50088W        W17156  24.517   2.787  13.499
50089W        W17157  12.203  15.664  14.302
50090W        W17158   0.774  41.877  11.585
50091W        W17159  10.254  13.315  12.544
50092W        W17160  34.925  41.834  12.417
50093W        W17161  21.582  29.456  11.440
50094W        W17162  24.047   1.755  12.860
50095W        W17163  22.730  43.962   0.880
50096W        W17164  11.165  17.583  14.399
50097W        W17165  36.448  17.241  11.446
50098W        W17166  42.462  39.357   0.430
50099W        W17167  12.116  14.719   0.329
50100W        W17168  41.906  21.053  14.511
50101W        W17169  10.304   7.762  10.472
50102W        W17170  32.994  40.503  14.969
50103W        W17171  43.805  30.914  11.895
50104W        W17172   4.911   1.940   1.739
50105W        W17173  37.884  31.485  12.070
50106W        W17174   9.269  32.025  12.548
50107W        W17175   9.832  15.097   0.841
50108W        W17176  24.102  35.373   2.365
50109W        W17177  28.628  23.002   3.742
50110W        W17178   9.303  42.518   2.292
50111W        W17179   6.741  36.923   3.253
50112W        W17180  40.933   4.828  14.802
50113W        W17181   8.302  39.390  11.593
50114W        W17182  19.067  27.462   4.633
50115W        W17183  22.107   6.800   4.631
50116W        W17184  13.233  29.141   1.813
50117W        W17185   5.337  38.542  12.556
50118W        W17186  40.870  27.588   2.888
50119W        W17187  10.246  32.094   5.307
50120W        W17188  21.101  21.254  13.814
50121W        W17189  22.159  41.323  11.522
50122W        W17190   6.375  25.206  14.786
50123W        W17191  10.358  43.462   4.619
50124W        W17192  44.276  40.535  12.883
50125W        W17193  31.912  25.061  13.459
50126W        W17194  35.453  36.986  13.864
50127W        W17195  44.011  39.500  14.912
50128W        W17196  17.213   3.947   3.165
50129W        W17197   7.685  43.792   2.732
50130W        W17198  41.466   3.273  13.516
50131W        W17199  40.390  44.839   0.778
50132W        W17200  22.742  31.056  13.971
50133W        W17201   2.446   8.391  14.968
50134W        W17202  28.646  21.656  12.454
50135W        W17203  24.725  34.899   4.662
50136W        W17204   7.667   4.344   3.213
50137W        W17205  10.838   0.402  13.909
50138W        W17206  12.776  34.416  14.805
50139W        W17207   7.245  33.485   4.262
50140W        W17208  25.659  23.500   3.790
50141W        W17209  26.077  18.782  11.389
50142W        W17210   5.916  25.619   4.351
50143W        W17211   5.744  36.481   3.268
50144W        W17212  10.149  21.635   1.293
50145W        W17213  35.965  40.339  13.488
50146W        W17214  22.147  14.106  14.969
50147W        W17215  36.882  44.784   3.160
50148W        W17216  37.425  40.892   0.293
50149W        W17217  35.107  42.980  13.349
50150W        W17218  36.931  26.181   2.334
50151W        W17219  24.008   6.182  11.122
50152W        W17220  44.887  34.087  13.014
50153W        W17221  16.239  37.559   4.301
50154W        W17222  16.720  34.006   3.783
50155W        W17223  21.523  14.147  13.872
50156W        W17224  38.535  16.139  11.009
50157W        W17225  37.027  18.068   4.350
50158W        W17226  19.698  29.157  11.427
50159W        W17227  19.132  18.150  12.415
50160W        W17228  10.240  34.943   0.965
50161W        W17229  19.619  28.678  14.032
50162W        W17230   2.448   0.319  11.908
50163W        W17231   8.752  39.032   4.280
50164W        W17232  22.560  16.644   1.295
50165W        W17233  38.393  29.134  11.871
50166W        W17234  14.115  22.619   4.808
50167W        W17235   0.327  22.154   3.260
50168W        W17236  20.547   3.926  14.888
50169W        W17237  25.115  43.300  11.613
50170W        W17238  33.006   1.815  13.996
50171W        W17239  12.273  18.185  10.604
50172W        W17240  15.243  32.975  11.487
50173W        W17241  35.877   4.320   0.315
50174W        W17242  43.995  20.108  13.026
50175W        W17243  26.583  38.331   2.328
50176W        W17244  25.067   2.226  13.855
50177W        W17245  43.000  28.092   2.801
50178W        W17246  24.482   7.249  10.963
50179W        W17247  18.759  25.506   0.730
50180W        W17248  24.603  22.011  13.972
50181W        W17249  27.025  40.889  10.520
50182W        W17250  39.822   0.845  11.124
50183W        W17251  30.084  10.329  13.528
50184W        W17252  41.424   1.459  13.945
50185W        W17253  22.017  18.733  11.911
50186W        W17254   5.711  16.239  14.322
50187W        W17255  25.695   7.746   3.806
50188W        W17256  35.881  31.478  11.592
50189W        W17257  15.296   9.276  11.398
50190W        W17258   8.686  11.750   5.239
50191W        W17259   4.372  42.013  12.436
50192W        W17260   5.301   4.910  11.506
50193W        W17261  33.382  35.580  14.912
50194W        W17262   0.464  22.679  13.965
50195W        W17263  35.586  38.438  13.417
50196W        W17264   5.702  27.633  13.014
50197W        W17265  10.748  40.867   1.306
50198W        W17266  16.283   1.467  14.948
50199W        W17267   6.800   3.745   4.599
50200W        W17268  17.713  10.196   1.287
50201W        W17269   0.341  11.688   4.743
50202W        W17270  25.089  17.678  13.858
50203W        W17271   6.764  37.543   2.689
50204W        W17272   9.148  27.190  14.424
50205W        W17273   3.331   9.159  12.058
50206W        W17274  32.110  19.128  14.008
50207W        W17275  32.971  25.544  14.965
50208W        W17276   5.412  40.429  12.993
50209W        W17277  26.615  14.631   0.962
50210W        W17278  12.330   9.806   1.361
50211W        W17279  33.111  33.973  14.509
50212W        W17280  10.288  34.402   3.640
50213W        W17281  40.539   4.751   2.313
50214W        W17282  22.530  34.036   2.355
50215W        W17283  11.726   5.282  12.873
50216W        W17284   4.876  24.047   0.467
50217W        W17285   1.333  32.072  13.359
50218W        W17286  31.444  18.607  11.557
50219W        W17287   5.358   8.306  13.373
50220W        W17288  34.445  30.490  14.368
50221W        W17289  41.029  35.394   1.927
50222W        W17290  25.179  36.396  14.476
50223W        W17291   7.265  32.958   1.919
50224W        W17292  18.590  29.932   2.736
50225W        W17293   0.913   4.861   5.205
50226W        W17294  19.617  43.501  14.313
50227W        W17295  17.289  31.151  11.519
50228W        W17296  26.129   3.460   0.794
50229W        W17297  41.471  13.125   4.198
50230W        W17298   8.712   6.754  12.358
50231W        W17299  42.509  44.473  10.963
50232W        W17300  26.133  44.269  13.385
50233W        W17301  40.455  19.136   0.319
50234W        W17302  37.955   2.770   1.447
50235W        W17303  32.125  25.986   3.816
50236W        W17304  14.632   3.263  13.915
50237W        W17305  41.422   9.153  14.456
50238W        W17306   0.314  43.388  13.380
50239W        W17307  27.606  12.201   4.297
50240W        W17308   3.431  12.241  10.635
50241W        W17309   7.394  25.475  14.437
50242W        W17310  14.654  23.192  14.310
50243W        W17311   2.925  34.050   0.817
50244W        W17312  17.590  21.565  10.123
50245W        W17313  40.309   0.939   4.129
50246W        W17314  11.297  27.079   3.698
50247W        W17315  16.130   9.827  12.507
50248W        W17316  13.116  39.356   1.874
50249W        W17317   2.820  17.152  11.953
50250W        W17318  28.444  25.086   2.379
50251W        W17319  27.950  43.962   0.286
50252W        W17320  19.618  37.403  10.491
50253W        W17321  40.018  27.563  10.617
50254W        W17322  33.947   5.714  14.293
50255W        W17323  31.412  41.518  13.887
50256W        W17324  10.848   8.390  10.503
50257W        W17325  14.314  35.882  13.883
50258W        W17326  23.705  18.144  10.994
50259W        W17327   1.323  12.831  14.895
50260W        W17328  38.840  15.171   9.947
50261W        W17329  21.650  36.568   2.373
50262W        W17330  23.497  15.684   1.695
50263W        W17331  22.527  12.216  14.970
50264W        W17332  11.702  44.348  11.895
50265W        W17333  13.303  16.727  11.859
50266W        W17334  29.012  13.639  12.064
50267W        W17335  31.639  16.186  13.385
50268W        W17336   2.818   6.198  14.445
50269W        W17337   5.715  13.298  13.945
50270W        W17338   0.256  18.281  11.084
50271W        W17339  43.502  21.569  13.371
50272W        W17340  11.813  21.571   0.732
50273W        W17341  29.430  29.435  13.470
50274W        W17342  42.797  43.832  11.019
50275W        W17343  25.186   9.742   3.770
50276W        W17344  23.562  21.062  10.404
50277W        W17345  15.135   3.956   4.822
50278W        W17346  39.897  31.012  13.323
50279W        W17347   1.237   5.250   4.205
50280W        W17348   2.253  29.109  10.152
50281W        W17349  32.565  14.590   4.831
50282W        W17350  18.216  29.473   2.295
50283W        W17351  25.708  34.425   2.305
50284W        W17352  38.043  42.825   5.181
50285W        W17353  30.456   2.471  13.873
50286W        W17354  26.592  21.113   3.863
50287W        W17355   2.924  16.286  13.020
50288W        W17356   2.725  23.118  11.070
50289W        W17357  10.210  43.983   0.348
50290W        W17358  10.714  33.385  13.940
50291W        W17359  36.884  22.570   1.307
50292W        W17360  10.665  33.050   3.717
50293W        W17361  30.476  32.589   0.729
50294W        W17362  11.331  18.181  13.906
50295W        W17363   9.164  14.185   2.399
50296W        W17364   9.692  35.545   3.159
50297W        W17365   8.177   8.316   4.329
50298W        W17366  10.751   5.399  13.921
50299W        W17367  30.087  16.804   0.848
50300W        W17368   5.772  20.272  12.453
50301W        W17369   7.178  23.707   2.264
50302W        W17370  10.854   8.767   5.270
50303W        W17371   1.798  21.549   3.679
50304W        W17372  29.564  23.080   3.147
50305W        W17373   7.249  43.382  13.033
50306W        W17374  18.726  29.020  11.601
50307W        W17375   4.336   1.282  12.515
50308W        W17376  17.611  29.088   2.777
50309W        W17377  29.926   5.867   2.193
50310W        W17378  38.883   9.855  11.856
50311W        W17379   7.712   6.702   4.824
50312W        W17380  31.906  44.995  10.509
50313W        W17381  31.485   8.185  11.470
50314W        W17382   6.406  27.107   3.712
50315W        W17383  37.961  32.439   3.832
50316W        W17384  35.939  24.561  11.971
50317W        W17385  42.893  43.987   0.377
50318W        W17386  37.557  24.976   1.819
50319W        W17387  26.519  24.045  14.830
50320W        W17388  44.809  38.388  14.302
50321W        W17389   0.487  32.927  13.453
50322W        W17390   2.773  17.091  14.389
50323W        W17391   5.933   8.746   3.379
50324W        W17392   2.853  28.567   0.821
50325W        W17393  18.077  18.688   2.213
50326W        W17394  27.595  10.828  11.082
50327W        W17395   3.263  25.683   0.834
50328W        W17396  26.185  24.675   3.245
50329W        W17397  35.975  24.607  14.475
50330W        W17398  32.489  14.220   2.335
50331W        W17399  36.012  28.621   2.703
50332W        W17400  34.492  32.107  13.894
50333W        W17401  40.929  22.201  11.505
50334W        W17402   0.760   1.411   2.416
50335W        W17403  40.452  30.114  14.330
50336W        W17404   2.863  12.129  14.465
50337W        W17405  31.637  30.071  11.121
50338W        W17406   8.851  16.624  11.464
50339W        W17407  10.788   9.356  13.864
50340W        W17408   8.334  44.354  12.832
50341W        W17409   6.769  16.117  11.535
50342W        W17410   3.790  40.372  13.823
50343W        W17411  10.636  22.034   2.724
50344W        W17412  44.917  34.869  13.390
50345W        W17413  34.404  37.410   5.099
50346W        W17414  41.889  14.637  13.864
50347W        W17415  19.237  26.629   5.243
50348W        W17416   9.366  30.003  11.492
50349W        W17417  40.816  26.172  10.442
50350W        W17418   6.728  37.562  13.505
50351W        W17419  20.224   7.842   4.704
50352W        W17420  37.484  17.301  10.495
50353W        W17421  17.258  37.505   0.263
50354W        W17422  43.781  32.102  10.919
50355W        W17423  28.552  29.015   0.958
50356W        W17424  42.968  26.028  13.435
50357W        W17425  27.498  36.966   0.808
50358W        W17426  43.409  12.227   4.740
50359W        W17427  23.144   0.913   0.878
50360W        W17428  37.470  31.923  11.023
50361W        W17429  24.550  12.648  12.373
50362W        W17430  39.361  44.481  11.562
50363W        W17431   9.275  31.561   0.917
50364W        W17432  15.260  36.960   2.395
50365W        W17433  38.011  16.135  11.422
50366W        W17434  31.419  42.313  14.970
50367W        W17435   5.347   0.891  13.005
50368W        W17436  44.826  36.399   5.276
50369W        W17437  25.505  32.949   3.289
50370W        W17438  36.848  15.286  14.408
50371W        W17439  44.364  36.006   3.775
50372W        W17440  19.147  13.630  13.861
50373W        W17441  29.478   4.437   4.624
50374W        W17442  11.195  24.599   1.237
50375W        W17443  25.099   8.375   2.718
50376W        W17444   1.380   4.421   0.400
50377W        W17445  12.734  38.947  10.461
50378W        W17446   8.733   3.252  13.858
50379W        W17447   5.817  28.996   2.245
50380W        W17448  29.067  10.279  10.064
50381W        W17449  12.811   1.453   2.757
50382W        W17450  41.042   5.401  13.988
50383W        W17451  30.581   6.389  14.010
50384W        W17452   3.398  26.505   3.356
50385W        W17453  39.383  44.985  10.624
50386W        W17454  12.767   4.438   0.252
50387W        W17455   7.399  14.682   3.233
50388W        W17456  34.372  41.039  13.473
50389W        W17457   1.305  39.427   0.277
50390W        W17458  41.903  27.586   2.387
50391W        W17459  22.577  43.924   0.483
50392W        W17460   9.361   0.329   1.373
50393W        W17461  31.970  11.628  13.978
50394W        W17462  17.222  21.549   0.466
50395W        W17463  44.388   0.453  10.633
50396W        W17464  10.294  44.004   5.250
50397W        W17465   8.186  17.080  11.946
50398W        W17466   2.832  43.937  12.467
50399W        W17467  20.158  17.191  10.092
50400W        W17468  22.614  20.264  12.430
50401W        W17469  25.584  32.551   2.419
50402W        W17470  26.168  36.030  13.326
50403W        W17471  16.799  10.153   4.811
50404W        W17472  37.338  42.942  12.369
50405W        W17473  30.558  40.937  12.411
50406W        W17474  17.151  40.975  14.908
50407W        W17475  21.550  35.543   2.344
50408W        W17476  40.319  36.398  11.886
50409W        W17477   9.213  19.072  11.036
50410W        W17478  38.867  16.163   0.258
50411W        W17479   7.272  41.456  11.930
50412W        W17480   5.805   6.760  13.487
50413W        W17481   8.348  26.208   1.255
50414W        W17482   2.905  35.917   1.213
50415W        W17483   7.357  16.296   4.631
50416W        W17484  31.023  39.880  13.389
50417W        W17485  21.649  29.577  11.970
50418W        W17486  20.108  43.269   4.267
50419W        W17487  21.654   3.747   3.373
50420W        W17488   1.959   6.703   1.773
50421W        W17489  36.951  14.109  13.800
50422W        W17490  36.353  25.203  13.864
50423W        W17491  32.589  42.788  10.481
50424W        W17492  28.631  25.090   1.822
50425W        W17493  24.691  15.805  13.494
50426W        W17494  43.411   0.317   2.710
50427W        W17495   6.774  40.869  13.823
50428W        W17496  22.032  34.931   0.965
50429W        W17497  24.022   4.875  10.950
50430W        W17498  18.279  36.992  10.961
50431W        W17499  34.928  26.509  14.506
50432W        W17500   1.859   2.888   3.328
50433W        W17501  25.170  44.450   4.618
50434W        W17502   4.438  33.022   4.262
50435W        W17503   4.336   7.406   1.351
50436W        W17504  11.144  31.986  11.078
50437W        W17505  18.784  10.821  13.961
50438W        W17506  24.000  39.923  14.505
50439W        W17507  44.878  23.005   4.174
50440W        W17508  43.499  12.169   0.452
50441W        W17509  39.529  10.284  11.560
50442W        W17510  38.993  32.086  13.031
50443W        W17511  22.565  26.003  10.512
50444W        W17512   5.813  25.972   3.856
50445W        W17513  40.370  36.062   0.889
50446W        W17514   7.299  35.059  13.374
50447W        W17515  10.184  28.670   0.262
50448W        W17516  10.770   6.800  14.386
50449W        W17517  24.525  44.994  13.793
50450W        W17518  27.028  11.805   2.695
50451W        W17519  21.672  18.156  14.873
50452W        W17520   0.965  18.280   0.941
50453W        W17521  36.960  12.770  14.428
50454W        W17522  12.812  13.293  10.527
50455W        W17523  36.566  28.555   3.183
50456W        W17524  25.134  20.595   3.320
50457W        W17525  14.303   4.726   0.886
50458W        W17526  17.174  17.297  14.422
50459W        W17527  24.124  29.443   3.862
50460W        W17528   4.881   4.446  10.977
50461W        W17529  26.570  14.685  11.012
50462W        W17530  41.987  30.523   1.346
50463W        W17531  29.052  10.840  11.018
50464W        W17532  21.679  23.679  10.951
50465W        W17533  31.097  22.115   4.261
50466W        W17534  44.792   2.452  10.524
50467W        W17535  22.202  31.616  13.501
50468W        W17536   3.299  15.221  10.611
50469W        W17537   5.194  28.945  14.499
50470W        W17538  26.149  34.051  14.825
50471W        W17539  22.221   6.900   1.880
50472W        W17540  36.035  40.862  13.852
50473W        W17541  33.523   2.854   0.478
50474W        W17542  24.034  18.596   2.250
50475W        W17543   4.364  25.177   0.826
50476W        W17544  39.954  37.340   0.747
50477W        W17545  30.134  40.898   1.859
50478W        W17546   0.380  26.203  11.919
50479W        W17547  29.574   0.960   3.198
50480W        W17548  34.019  15.167   2.732
50481W        W17549  14.211  44.945   4.198
50482W        W17550  23.085  27.958   4.353
50483W        W17551  41.325  34.942  11.907
50484W        W17552  38.895  32.409  13.841
50485W        W17553  37.873   1.432   2.780
50486W        W17554  32.021  25.492   4.119
50487W        W17555  18.120   2.468  10.898
50488W        W17556   2.263  21.138   0.894
50489W        W17557  18.224   1.414  14.311
50490W        W17558  21.020  43.425  10.573
50491W        W17559   0.811  17.160   1.884
50492W        W17560  33.107  34.443   1.875
50493W        W17561   1.326  12.650   0.876
50494W        W17562  11.283   3.782  10.910
50495W        W17563  27.177  32.426  12.513
50496W        W17564   1.442   5.884   2.202
50497W        W17565  19.095  37.900   0.842
50498W        W17566  27.470  34.474  13.457
50499W        W17567   3.828  18.718   0.335
50500W        W17568  25.075  29.058   3.274
50501W        W17569  36.947   2.798   2.749
50502W        W17570  14.198  40.833   4.606
50503W        W17571  31.052  40.850  14.285
50504W        W17572  30.530   7.373   3.658
50505W        W17573   5.862  26.203  12.461
50506W        W17574  42.014  21.204  13.052
50507W        W17575  15.095  23.574  11.090
50508W        W17576  29.121   0.249  10.512
50509W        W17577  37.866  40.541   1.248
50510W        W17578  13.789  37.379  13.062
50511W        W17579   9.365  13.156   0.858
50512W        W17580  31.485  33.072   4.736
50513W        W17581  38.568  18.771  13.033
50514W        W17582  24.528   0.946   0.306
50515W        W17583  43.328  12.276  12.452
50516W        W17584  17.792  25.080   4.639
50517W        W17585  43.345  37.540   2.417
50518W        W17586  29.658   7.259   0.768
50519W        W17587  11.642  21.053   1.755
50520W        W17588  32.428  20.272  11.861
50521W        W17589   4.797  30.142  10.532
50522W        W17590  29.445   4.788   0.418
50523W        W17591  19.608  38.821  14.312
50524W        W17592  27.469  31.004   3.380
50525W        W17593  13.619  14.289   3.637
50526W        W17594  39.910  10.686  14.440
50527W        W17595  19.685  26.125   2.726
50528W        W17596  25.191  40.038   2.884
50529W        W17597   5.927  27.599  14.461
50530W        W17598  13.267  37.885  13.796
50531W        W17599  19.070  34.892   0.810
50532W        W17600  32.449  14.670   0.472
50533W        W17601   6.851   7.237   4.311
50534W        W17602  28.035  19.641  12.958
50535W        W17603  17.589   9.729   1.877
50536W        W17604   7.840  39.458  12.514
50537W        W17605  21.650   0.470   4.290
50538W        W17606  30.503  30.910   2.799
50539W        W17607   5.390  20.531  12.497
50540W        W17608  27.112  40.049  12.919
50541W        W17609   3.304  31.546   1.815
50542W        W17610   9.795   0.893  14.991
50543W        W17611  21.179  29.051   2.893
50544W        W17612  11.669  32.401   2.804
50545W        W17613  40.927   7.732   0.368
50546W        W17614  13.822  14.606  10.492
50547W        W17615  16.678  36.044   2.283
50548W        W17616  27.004  13.117  12.074
50549W        W17617  13.310  43.333   2.823
50550W        W17618  26.088  18.055  10.996
50551W        W17619   9.368  32.039  14.783
50552W        W17620  39.042  34.108  13.508
50553W        W17621  11.723  20.178  11.564
50554W        W17622  21.064   9.759   4.837
50555W        W17623   5.759  21.059  14.336
50556W        W17624  31.087  39.021   5.229
50557W        W17625  38.925  12.211   0.325
50558W        W17626  29.640   7.857   3.631
50559W        W17627  12.170  21.145   2.737
50560W        W17628  10.140  29.656   3.760
50561W        W17629  39.416  36.979   0.275
50562W        W17630  24.192   1.238   4.622
50563W        W17631  13.256  41.292  13.842
50564W        W17632  43.506  12.643   2.215
50565W        W17633  28.672  19.061   0.397
50566W        W17634  39.474   7.352  13.909
50567W        W17635  22.617   0.426   4.181
50568W        W17636   7.884  15.645  11.477
50569W        W17637  37.016  16.140  12.340
50570W        W17638   7.763  19.054  10.542
50571W        W17639   3.413  40.535   0.367
50572W        W17640   0.486  25.185   2.844
50573W        W17641  39.512  30.150   0.761
50574W        W17642  25.705  30.431  12.341
50575W        W17643  10.873  28.630   4.301
50576W        W17644  24.570  18.790   3.757
50577W        W17645  21.038  36.094   2.876
50578W        W17646  33.126  23.546  11.598
50579W        W17647  40.429  43.946   0.393
50580W        W17648  10.711  43.430  10.626
50581W        W17649  19.752  21.098   2.277
50582W        W17650  12.614  14.136  11.001
50583W        W17651  30.565   3.894  14.327
50584W        W17652  18.754  24.571  12.960
50585W        W17653   1.435  11.329  11.100
50586W        W17654  22.569  32.049  11.375
50587W        W17655   8.319  11.713  14.377
50588W        W17656  16.173   8.791  14.340
50589W        W17657   2.227  15.824  10.075
50590W        W17658   2.263  35.520   3.653
50591W        W17659  23.714  42.908  12.577
50592W        W17660  24.144   4.407   0.788
50593W        W17661  43.882  40.327   3.251
50594W        W17662  10.797  37.875  10.618
50595W        W17663  44.285  41.902   0.780
50596W        W17664  15.151  19.658   0.866
50597W        W17665  26.186   6.210   0.830
50598W        W17666   2.382  15.600   2.848
50599W        W17667   1.297  41.297  11.399
50600W        W17668   9.691   4.781  14.385
50601W        W17669  44.809  38.904  11.861
50602W        W17670  31.499  14.132   1.806
50603W        W17671  24.977  32.449  14.834
50604W        W17672  39.930  36.548  11.418
50605W        W17673   6.752  36.062   1.779
50606W        W17674  18.214  22.232   2.854
50607W        W17675   3.859  40.507   2.713
50608W        W17676   7.367  14.189  12.022
50609W        W17677   9.206  14.300   0.347
50610W        W17678  26.159   0.965  11.864
50611W        W17679  33.590  32.003   0.807
50612W        W17680   3.796  26.570   2.847
50613W        W17681  33.611  33.979   2.671
50614W        W17682  13.329   1.896  10.638
50615W        W17683   6.723  40.497   2.833
50616W        W17684  29.569  17.663   0.849
50617W        W17685   7.887  39.961   9.959
50618W        W17686  25.660  25.523  12.374
50619W        W17687   6.209  10.277   3.775
50620W        W17688  31.528  26.078  13.499
50621W        W17689  28.052  40.460   3.673
50622W        W17690  27.077  27.614   2.337
50623W        W17691  39.964  33.129  12.439
50624W        W17692  25.576  33.583  10.492
50625W        W17693  28.601  42.958   3.651
50626W        W17694  22.051  25.195   1.712
50627W        W17695  13.658  18.730   0.925
50628W        W17696  32.562  31.473   4.146
50629W        W17697  24.697  15.112  14.759
50630W        W17698  15.619  25.087  10.906
50631W        W17699  24.670  33.420   1.885
50632W        W17700  20.255  17.785  14.305
50633W        W17701  21.703  14.707   0.859
50634W        W17702   8.775  15.686   2.726
50635W        W17703  37.021  10.312  14.397
50636W        W17704  29.025  34.957  13.457
50637W        W17705  10.750  41.399  12.426
50638W        W17706  22.746  34.937  14.355
50639W        W17707  13.243  40.986  12.364
50640W        W17708  19.116   5.906   0.784
50641W        W17709   8.832  38.870  14.303
50642W        W17710  23.198  42.875  14.285
50643W        W17711  36.092  42.483  14.978
50644W        W17712  33.883   5.761   3.674
50645W        W17713  31.048  22.029   0.853
50646W        W17714   8.175  26.660  10.124
50647W        W17715  32.076  28.999  13.386
50648W        W17716  35.416   0.447   4.308
50649W        W17717  10.355  12.326   4.816
50650W        W17718  16.102  25.533  11.461
50651W        W17719  40.886   5.932  14.979
50652W        W17720  11.711  31.616   4.156
50653W        W17721   8.203  14.715  14.896
50654W        W17722   2.927  23.236   3.733
50655W        W17723  25.581   9.312   2.194
50656W        W17724  44.424  31.100   2.739
50657W        W17725  18.267  29.991   4.705
50658W        W17726   8.243  38.992  12.388
50659W        W17727  20.711  26.624  12.043
50660W        W17728  16.627  38.074   4.628
50661W        W17729  39.983  13.789   4.274
50662W        W17730   2.818   5.376  11.926
50663W        W17731  17.093  40.521  11.414
50664W        W17732  13.735  27.483   2.676
50665W        W17733  13.280  27.571  12.052
50666W        W17734  40.046  29.616  11.947
50667W        W17735  32.044  13.142  14.792
50668W        W17736   0.342  16.703   3.780
50669W        W17737  16.741   6.340  14.317
50670W        W17738   1.850   4.379  13.973
50671W        W17739  30.994  34.522   4.645
50672W        W17740  28.954  30.503  14.878
50673W        W17741   4.771   0.801  11.432
50674W        W17742  34.104  24.164  12.543
50675W        W17743   8.875  22.183  13.546
50676W        W17744  26.019  20.728   3.851
50677W        W17745  19.585   8.373  12.514
50678W        W17746   1.870  38.567  11.525
50679W        W17747  35.453   8.896  10.937
50680W        W17748  12.677  10.362   4.293
50681W        W17749  14.317  44.941   3.813
50682W        W17750  18.130  18.148  11.098
50683W        W17751  22.173   9.367   3.871
50684W        W17752  42.941  24.480   3.843
50685W        W17753  30.438  29.928  14.393
50686W        W17754  38.832   2.349  10.144
50687W        W17755  31.520  32.975   0.812
50688W        W17756  20.228  44.315  14.292
50689W        W17757  31.587  24.036   0.878
50690W        W17758   1.818  23.142  13.935
50691W        W17759  44.484  12.177   2.346
50692W        W17760  33.571  10.691  10.902
50693W        W17761  11.680  35.470   1.848
50694W        W17762  40.875  40.412   2.738
50695W        W17763   1.804  42.869  11.984
50696W        W17764  10.826  42.435  10.933
50697W        W17765   8.178  27.105  10.565
50698W        W17766  34.484  24.209   0.797
50699W        W17767  27.601  33.504   1.714
50700W        W17768  18.226  15.275   3.816
50701W        W17769   9.847  27.170  11.520
50702W        W17770   3.896   1.903  10.410
50703W        W17771  43.845  25.496   1.427
50704W        W17772  21.044  23.084   4.791
50705W        W17773  38.843  37.851  11.453
50706W        W17774  41.015  42.959  12.414
50707W        W17775  37.559  14.814   0.856
50708W        W17776  42.841  19.634   2.264
50709W        W17777  34.028   7.735  10.406
50710W        W17778   9.868  35.567   1.810
50711W        W17779  40.947  27.632  13.503
50712W        W17780  20.755  26.598   4.653
50713W        W17781  27.596  41.433  11.125
50714W        W17782  22.129   6.752   3.805
50715W        W17783  41.805  27.586   1.798
50716W        W17784  36.573  11.359  14.862
50717W        W17785  32.481  10.333  13.862
50718W        W17786  34.377  13.109   3.189
50719W        W17787  11.229  12.720   2.783
50720W        W17788  22.105  43.344  12.028
50721W        W17789   8.269  42.869   1.419
50722W        W17790  25.031   9.246  13.910
50723W        W17791  44.987  36.512  12.056
50724W        W17792  43.441  42.347  11.856
50725W        W17793  42.287   3.815  14.492
50726W        W17794  37.452   5.285  11.589
50727W        W17795  30.128  10.166  10.071
50728W        W17796  29.545   2.261  12.346
50729W        W17797  42.794  44.331   4.272
50730W        W17798  16.618  16.121   4.271
50731W        W17799  24.708   2.963   4.177
50732W        W17800  36.035  15.685  10.515
50733W        W17801  16.705  18.168   2.780
50734W        W17802  21.184  27.633  14.356
50735W        W17803  24.619  16.085   4.331
50736W        W17804  18.580  19.607  12.463
50737W        W17805  29.466  31.604  11.002
50738W        W17806  15.257  38.965  14.370
50739W        W17807   2.924  38.463  10.610
50740W        W17808  17.797  38.428  14.376
50741W        W17809  13.699  42.435   3.197
50742W        W17810  16.590  38.048   3.257
50743W        W17811  38.448  18.556  12.488
50744W        W17812   5.377  10.816   4.174
50745W        W17813  34.934  19.133   2.361
50746W        W17814  33.960  15.161  14.814
50747W        W17815  44.759  41.497   3.733
50748W        W17816  33.086  36.007   1.730
50749W        W17817  14.264  27.509  11.453
50750W        W17818  42.519  14.662  10.461
50751W        W17819   5.384  19.766  10.888
50752W        W17820  42.438   6.756  14.906
50753W        W17821  13.302  29.639   0.911
50754W        W17822   2.935   0.797   1.290
50755W        W17823  18.779  20.588  12.048
50756W        W17824  35.857  33.541   2.404
50757W        W17825   6.317  27.195   2.717
50758W        W17826  33.932  29.629  12.344
50759W        W17827  37.938  33.482   0.888
50760W        W17828  10.701  32.121  11.874
50761W        W17829  19.195  23.520  12.955
50762W        W17830  16.785  28.484  13.874
50763W        W17831  38.019  34.470   9.975
50764W        W17832   5.237   2.868   3.277
50765W        W17833   3.330  31.549  12.899
50766W        W17834  28.161  16.315  10.456
50767W        W17835  19.576  28.020   3.751
50768W        W17836  18.788  34.506  13.469
50769W        W17837  18.283  41.904  11.576
50770W        W17838  37.473  17.772  11.569
50771W        W17839  13.322   2.366   3.823
50772W        W17840  28.644   8.804  11.425
50773W        W17841  36.958  34.541  11.117
50774W        W17842  27.558  42.414  10.514
50775W        W17843  43.468  37.834  11.489
50776W        W17844  44.919  38.048   1.346
50777W        W17845  20.216  44.946  14.388
50778W        W17846  32.931   2.908  12.853
50779W        W17847  22.189   7.678   3.367
50780W        W17848   6.402  15.243   2.226
50781W        W17849  14.222  33.546  10.625
50782W        W17850  37.902  44.799   2.293
50783W        W17851  34.485  16.743  14.400
50784W        W17852  16.679   8.359  10.987
50785W        W17853  11.255  23.230   4.201
50786W        W17854  44.926   7.669  10.940
50787W        W17855  17.692   1.321  14.282
50788W        W17856   2.311  19.228  10.552
50789W        W17857  21.156  11.151  12.957
50790W        W17858  36.900  39.909  14.985
50791W        W17859  10.861   7.835  11.061
50792W        W17860  23.085   1.754   3.783
50793W        W17861   4.886   2.827   1.825
50794W        W17862  18.758  24.605   2.219
50795W        W17863   3.223   3.233  13.493
50796W        W17864  31.599  44.794   4.704
50797W        W17865  37.045  32.476   3.652
50798W        W17866  20.056  33.404   2.367
50799W        W17867  38.037   6.369  10.975
50800W        W17868  34.075  32.554  12.824
50801W        W17869  27.660  43.461  11.087
50802W        W17870   7.306   3.727  12.488
50803W        W17871   3.340  25.009  14.797
50804W        W17872  39.990  27.568   1.712
50805W        W17873  22.541   3.398   9.992
50806W        W17874   3.750   1.284   1.718
50807W        W17875   3.373  33.527   0.954
50808W        W17876   5.890   5.332   2.328
50809W        W17877   3.775  25.216  13.327
50810W        W17878  28.987   0.299   3.335
50811W        W17879   5.863   1.278  13.890
50812W        W17880  24.065  15.102   4.604
50813W        W17881   7.767   6.372  12.017
50814W        W17882  27.505  26.951  13.984
50815W        W17883  44.308  34.389  14.316
50816W        W17884  23.179  29.504   1.725
50817W        W17885   4.921  21.213  14.839
50818W        W17886  36.492  16.090  14.004
50819W        W17887  22.516   5.282   1.780
50820W        W17888  20.166  13.609  13.047
50821W        W17889   1.343  42.892   4.740
50822W        W17890  22.007   9.332  11.459
50823W        W17891  15.215  11.239   2.297
50824W        W17892  10.778  24.652   0.874
50825W        W17893   3.444   2.420  14.377
50826W        W17894  33.947  35.585   3.281
50827W        W17895  13.769  17.611   0.356
50828W        W17896  25.073  30.081  11.969
50829W        W17897   5.800  29.523   0.469
50830W        W17898  38.446   4.807  13.321
50831W        W17899   8.665  10.240  10.117
50832W        W17900  43.475  36.487  11.961
50833W        W17901  38.002  13.140  14.983
50834W        W17902  40.992  38.863  10.487
50835W        W17903  24.067  41.936  13.040
50836W        W17904   9.328   0.326  14.478
50837W        W17905  37.839  36.399  11.592
50838W        W17906  31.402  16.112  14.884
50839W        W17907  37.381  13.757  12.945
50840W        W17908  27.108  30.079  13.402
50841W        W17909  14.207  26.166   3.830
50842W        W17910  35.537  17.245  11.594
50843W        W17911  38.502  22.546  12.376
50844W        W17912  23.729   2.777   0.825
50845W        W17913  41.968  28.608  13.961
50846W        W17914  27.075   5.839  12.383
50847W        W17915  33.099   4.326   4.249
50848W        W17916  44.384  15.283  11.000
50849W        W17917   0.289   6.908   2.784
50850W        W17918  43.958  19.569   0.389
50851W        W17919  36.505  15.118  11.094
50852W        W17920  27.012  18.683  10.466
50853W        W17921  38.526  37.398   0.860
50854W        W17922  17.689  19.081   0.320
50855W        W17923  21.219  27.042   1.772
50856W        W17924   9.222  44.499   4.247
50857W        W17925   7.306   0.946  14.436
50858W        W17926  44.391   3.441  10.413
50859W        W17927   2.869  26.103   1.404
50860W        W17928  24.186  25.181  13.472
50861W        W17929  36.016  22.559   4.686
50862W        W17930   6.680   1.388   2.364
50863W        W17931  34.879  12.244   3.234
50864W        W17932  21.727  44.347  12.433
50865W        W17933   2.411  14.216  10.584
50866W        W17934   8.366  12.802  13.374
50867W        W17935  36.532   6.245  12.892
50868W        W17936  16.734  41.533  12.451
50869W        W17937  19.733   7.254  14.387
50870W        W17938   7.756   7.383  12.993
50871W        W17939  31.459  44.489   4.144
50872W        W17940   8.269  12.174   3.799
50873W        W17941  22.739  16.810   3.639
50874W        W17942  13.122  20.054   3.817
50875W        W17943  30.985  14.193  11.966
50876W        W17944  34.988  30.908   2.298
50877W        W17945  17.167  20.764   1.770
50878W        W17946  15.211  41.946  13.827
50879W        W17947   3.374  44.861   2.685
50880W        W17948  15.156  35.914  14.320
50881W        W17949  24.178  20.141   4.128
50882W        W17950  23.994   5.887   4.144
50883W        W17951  32.045  39.433   0.896
50884W        W17952  44.264  31.131  11.915
50885W        W17953  26.984  15.732  14.889
50886W        W17954   8.798   3.855   1.319
50887W        W17955   0.820  36.464   3.334
50888W        W17956  31.137  40.828   3.281
50889W        W17957  23.018  16.720   2.227
50890W        W17958  38.044  27.985   2.262
50891W        W17959  37.344   2.723   4.713
50892W        W17960  21.613  25.630   3.794
50893W        W17961  29.438  25.545  14.372
50894W        W17962  36.071  33.594   5.245
50895W        W17963   1.425  16.207   3.753
50896W        W17964  27.944  44.425  13.385
50897W        W17965  14.695  36.879  14.351
50898W        W17966  20.558  20.058  14.469
50899W        W17967  11.826  10.664  11.426
50900W        W17968  40.866  43.449   3.385
50901W        W17969  10.814  43.013  12.861
50902W        W17970  31.411  42.870  10.085
50903W        W17971   2.232   8.218  12.027
50904W        W17972  24.986   0.772  10.939
50905W        W17973  41.506  37.005  14.886
50906W        W17974  31.567  32.614  14.995
50907W        W17975  12.844  15.616   0.792
50908W        W17976   3.454  41.924  11.952
50909W        W17977   6.800  12.279  12.992
50910W        W17978  15.672  40.802  11.037
50911W        W17979   6.802  43.914   1.907
50912W        W17980  44.938  30.585  13.459
50913W        W17981  13.321  30.562  14.993
50914W        W17982  12.201   6.798  14.022
50915W        W17983  11.622  22.077   1.836
50916W        W17984   5.722  44.314   4.764
50917W        W17985  44.882  14.248   4.613
50918W        W17986  34.981  33.943   1.313
50919W        W17987   6.810  14.619   2.302
50920W        W17988  18.746  37.051   3.340
50921W        W17989  11.320  32.957  10.954
50922W        W17990   4.872  31.524  14.925
50923W        W17991   7.231  39.064   0.915
50924W        W17992   1.789   0.831  11.932
50925W        W17993   5.843  36.976   2.820
50926W        W17994  21.517  24.984  11.587
50927W        W17995  30.985  35.994  12.080
50928W        W17996  16.251  40.829  11.459
50929W        W17997   7.294   1.853  11.069
50930W        W17998   3.231  13.171   0.908
50931W        W17999  36.868  37.055  10.579
50932W        W18000  38.442  13.202   0.900
50933W        W18001  43.295  20.617  12.355
50934W        W18002  25.544  29.048   3.152
50935W        W18003  41.320   9.190   1.709
50936W        W18004   2.259  10.268   5.124
50937W        W18005   3.340  10.335  13.892
50938W        W18006  43.908  30.601  10.473
50939W        W18007  16.713  23.721  10.605
50940W        W18008  42.990  30.636  14.284
50941W        W18009  27.476   2.732   3.313
50942W        W18010  22.238  41.405  10.618
50943W        W18011  23.525   5.734  14.022
50944W        W18012   3.917  37.549  14.434
50945W        W18013   8.392   0.811  11.407
50946W        W18014  35.385   8.211  11.532
50947W        W18015  13.298  35.020   2.865
50948W        W18016  32.976  29.627  11.020
50949W        W18017  33.128   2.284  10.450
50950W        W18018   0.960  23.206  12.830
50951W        W18019  39.467  34.944   0.823
50952W        W18020  13.751  41.859  12.988
50953W        W18021  36.935  43.293   4.621
50954W        W18022  43.829  12.722  14.978
50955W        W18023  10.781  16.288  12.905
50956W        W18024  17.727  37.482  12.505
50957W        W18025  21.544  37.916  12.934
50958W        W18026  23.006   5.909   1.387
50959W        W18027  16.255  33.409  14.422
50960W        W18028  28.114   2.757   0.894
50961W        W18029  14.146  26.017   0.739
50962W        W18030   9.806  43.423  14.348
50963W        W18031   2.736  41.900   4.796
50964W        W18032   0.318  33.433   0.780
50965W        W18033   3.272  27.478  10.523
50966W        W18034  44.319  13.616  10.547
50967W        W18035  44.912  38.965  12.374
50968W        W18036  28.629  36.982   4.664
50969W        W18037  18.233  36.440   3.221
50970W        W18038  24.115  33.957   0.421
50971W        W18039  28.480   0.414  11.971
50972W        W18040  38.006   4.885  14.495
50973W        W18041   1.342  43.396  14.952
50974W        W18042  20.708  44.418  14.438
50975W        W18043   5.827  40.043   0.283
50976W        W18044   9.252  26.639  10.514
50977W        W18045  28.481   8.338  12.438
50978W        W18046  42.367   1.766  12.959
50979W        W18047  40.375  17.656   3.349
50980W        W18048  26.682  34.546   4.804
50981W        W18049  39.392  17.237   3.666
50982W        W18050  42.297  12.619  10.516
50983W        W18051   5.426   7.840   3.173
50984W        W18052   5.316   1.974  13.374
50985W        W18053  34.408  36.008   4.641
50986W        W18054  15.097  23.699   3.207
50987W        W18055  20.178  24.674   4.222
50988W        W18056  23.585  13.204  11.436
50989W        W18057  16.665  15.142   1.253
50990W        W18058  18.641  21.751  14.957
50991W        W18059  15.213  35.397   3.796
50992W        W18060   9.747  11.158   4.321
50993W        W18061   8.344  16.754   4.134
50994W        W18062  13.633  29.947  13.039
50995W        W18063   2.882  30.161   1.916
50996W        W18064  16.798   7.378   2.288
50997W        W18065  27.644   9.774   1.786
50998W        W18066  29.661  42.843  13.966
50999W        W18067  15.313   3.840  12.051
51000W        W18068  29.450  10.342   5.184
51001W        W18069   3.220  41.943   4.217
51002W        W18070  18.095  14.656  12.566
51003W        W18071  22.090  24.070   2.339
51004W        W18072  31.530   8.860   3.298
51005W        W18073   9.330  22.584   1.921
51006W        W18074  23.662  18.755   1.796
51007W        W18075  40.016  37.382  13.994
51008W        W18076  14.227   6.208   1.819
51009W        W18077  20.558  31.573  11.053
51010W        W18078  38.842  33.073  11.093
51011W        W18079  13.225  37.453  11.511
51012W        W18080  41.382  44.849   0.964
51013W        W18081  39.486  28.009  12.933
51014W        W18082   0.483  44.894   0.391
51015W        W18083  14.674   4.806   1.215
51016W        W18084  27.673  42.376  11.086
51017W        W18085  33.582  18.235  14.304
51018W        W18086  44.299  27.517   2.675
51019W        W18087  10.223  23.679  10.000
51020W        W18088  33.070  19.595  10.449
51021W        W18089  14.811  19.182   1.727
51022W        W18090  12.796  13.636   4.291
51023W        W18091   3.862  10.830  12.533
51024W        W18092  25.567  17.668  11.463
51025W        W18093  27.619  42.522  11.857
51026W        W18094  35.370  10.287   1.921
51027W        W18095   9.883  34.909   0.459
51028W        W18096  40.516  36.360   2.367
51029W        W18097  29.038  21.527  14.940
51030W        W18098  43.286   9.750  13.035
51031W        W18099   9.334   7.389  13.343
51032W        W18100  16.767  26.151  13.904
51033W        W18101  19.542  34.461   0.748
51034W        W18102  42.922  23.191   0.936
51035W        W18103  16.318  35.590   3.304
51036W        W18104  44.300  32.106   4.700
51037W        W18105   4.906   9.337   3.781
51038W        W18106  31.918   9.340  10.464
51039W        W18107  41.337  17.693  14.942
51040W        W18108  33.417  20.640   4.767
51041W        W18109  27.517   7.264   0.835
51042W        W18110   1.787  27.093  12.343
51043W        W18111  14.795   5.840  11.426
51044W        W18112  42.879   0.278   4.337
51045W        W18113  37.864  10.212  14.870
51046W        W18114  42.854  38.046   4.733
51047W        W18115  19.193   4.738   2.259
51048W        W18116  31.006  30.468  12.935
51049W        W18117   1.370   1.875  13.344
51050W        W18118   1.417  38.537   0.867
51051W        W18119  29.505  23.984  11.879
51052W        W18120  35.511  44.754  12.968
51053W        W18121  31.964   5.757   9.995
51054W        W18122  14.298  25.193   0.315
51055W        W18123  28.498   0.895   1.820
51056W        W18124  37.348  19.626   0.311
51057W        W18125  29.959   3.282   3.641
51058W        W18126  42.943  13.107  10.517
51059W        W18127  25.623  29.536  14.333
51060W        W18128  25.970  34.429   4.827
51061W        W18129  39.455  24.491   4.350
51062W        W18130  28.445  26.151  12.981
51063W        W18131  23.590  44.776   3.153
51064W        W18132  15.265  24.048  11.529
51065W        W18133  28.644   2.878  11.957
51066W        W18134  38.880  21.724   3.638
51067W        W18135  12.834   6.708  11.517
51068W        W18136   6.252  29.036   1.736
51069W        W18137  43.472  22.675  10.920
51070W        W18138  30.953  29.071   0.758
51071W        W18139  16.282  41.966  12.414
51072W        W18140   6.382  37.515  10.076
51073W        W18141  28.440  40.326  10.531
51074W        W18142  30.011  11.692   1.284
51075W        W18143  30.049   9.175   0.362
51076W        W18144  13.600  19.059   0.762
51077W        W18145  32.100   9.249  12.976
51078W        W18146  10.381  22.020   3.805
51079W        W18147  20.147  41.914  11.881
51080W        W18148  15.210  12.723   4.236
51081W        W18149  28.967  36.056   5.255
51082W        W18150  22.727  21.243   4.838
51083W        W18151  41.504   0.303   3.145
51084W        W18152  27.179   4.768  11.122
51085W        W18153  33.976  41.394  10.622
51086W        W18154  25.106  11.178   2.241
51087W        W18155   2.915  31.590  12.434
51088W        W18156  44.891  31.582  14.359
51089W        W18157  30.559  44.430  13.977
51090W        W18158  30.013  12.322  10.460
51091W        W18159   4.716  29.568   4.789
51092W        W18160  43.902  19.729   0.931
51093W        W18161  14.642   8.701  12.070
51094W        W18162  36.911  32.092  12.411
51095W        W18163  22.640  31.002  12.398
51096W        W18164   2.939  33.588   2.851
51097W        W18165  29.963  34.370   0.380
51098W        W18166  15.193   2.820   0.913
51099W        W18167  35.503  19.064   3.165
51100W        W18168  29.057   4.800  12.361
51101W        W18169  40.018  24.631  12.053
51102W        W18170  34.947  37.967  11.530
51103W        W18171  13.719  16.794  12.949
51104W        W18172   7.903  38.912  14.792
51105W        W18173  17.666  15.644  14.472
51106W        W18174   2.453   7.308   5.123
51107W        W18175  33.875  36.370   0.438
51108W        W18176   4.749   7.823  12.367
51109W        W18177   7.680   7.898   4.629
51110W        W18178   7.869  26.959   1.395
51111W        W18179  16.663  35.483   0.808
51112W        W18180  17.684   2.325   3.705
51113W        W18181  43.274  29.933  12.371
51114W        W18182  26.688  26.169   3.243
51115W        W18183   0.839  31.557   3.688
51116W        W18184  12.156  14.637  14.288
51117W        W18185  35.450  42.957   2.396
51118W        W18186  35.954  16.616  11.511
51119W        W18187  22.550  24.220   4.300
51120W        W18188   9.873  31.484   2.820
51121W        W18189  18.617   0.978   0.778
51122W        W18190  13.669   0.294   4.641
51123W        W18191  38.441   3.840   0.950
51124W        W18192   6.203  42.968   0.852
51125W        W18193  37.979  44.879   2.671
51126W        W18194  32.619  40.797  11.073
51127W        W18195  44.302   3.718   1.905
51128W        W18196  34.955   3.408   2.351
51129W        W18197  27.965   3.403  10.432
51130W        W18198   5.422   6.702  11.939
51131W        W18199  33.488   9.230   0.366
51132W        W18200  21.149  33.891  14.501
51133W        W18201  40.035  27.179   4.213
51134W        W18202  15.182   9.687  14.996
51135W        W18203  14.219   1.383  10.466
51136W        W18204   6.762  17.674  12.506
51137W        W18205  28.656   0.923  11.084
51138W        W18206  39.813  36.388   4.719
51139W        W18207  11.265  42.367  14.453
51140W        W18208   9.376   4.331  14.312
51141W        W18209  29.577  41.478   0.837
51142W        W18210   5.823   4.898   4.600
51143W        W18211  24.100  11.702   3.661
51144W        W18212   5.735  44.289  10.592
51145W        W18213  35.472  36.383   1.246
51146W        W18214  19.061  16.277   0.859
51147W        W18215  12.176  28.610   4.245
51148W        W18216  10.655  23.012   0.358
51149W        W18217  26.610  21.613   2.716
51150W        W18218  10.274  17.606   1.423
51151W        W18219  35.516  23.001  10.461
51152W        W18220  38.388  13.819  14.302
51153W        W18221  43.473  34.958   2.216
51154W        W18222  21.702  27.623  10.569
51155W        W18223  14.722  39.818  11.960
51156W        W18224   8.269   4.228  10.947
51157W        W18225  30.952  35.546  10.470
51158W        W18226  14.672  12.751   0.789
51159W        W18227   0.388  36.038  14.381
51160W        W18228  33.065   9.643   1.398
51161W        W18229   9.332   4.886  13.042
51162W        W18230   6.747   7.723  10.460
51163W        W18231   6.884  38.420  12.508
51164W        W18232  38.482  18.576   0.922
51165W        W18233   9.677  28.538   3.653
51166W        W18234  44.785  24.096   2.208
51167W        W18235  40.380  19.150   1.859
51168W        W18236   7.394  22.506  11.471
51169W        W18237  26.170   2.843   1.295
51170W        W18238  14.113  10.192  11.405
51171W        W18239  36.441  31.430   3.780
51172W        W18240  44.785  38.925   3.815
51173W        W18241  15.721   7.762  14.776
51174W        W18242   7.414   7.775   1.723
51175W        W18243  27.691   5.794   1.715
51176W        W18244   1.769  14.196   1.739
51177W        W18245  15.322  34.596  14.501
51178W        W18246   2.795  37.562   0.367
51179W        W18247  44.758  38.396   2.851
51180W        W18248   8.161  44.783  11.920
51181W        W18249  43.343  28.963   1.800
51182W        W18250  29.641  35.409  12.528
51183W        W18251  44.477   6.206   4.730
51184W        W18252  37.832  20.540   1.733
51185W        W18253  13.619  10.356  13.931
51186W        W18254  43.885   8.852  14.321
51187W        W18255  22.585   8.384  10.111
51188W        W18256   8.674  39.013  13.498
51189W        W18257  13.223  41.528   1.413
51190W        W18258  38.383  21.205  11.495
51191W        W18259  13.186  44.873   4.819
51192W        W18260  28.043  42.412  12.341
51193W        W18261  31.995  19.137   2.828
51194W        W18262   3.813  34.470  12.883
51195W        W18263   8.344  26.547  12.541
51196W        W18264  37.084  41.308   3.217
51197W        W18265  35.090  24.116   3.803
51198W        W18266  12.758   8.402  13.897
51199W        W18267  38.963  35.465   2.418
51200W        W18268  30.976  15.682   3.321
51201W        W18269  20.554  43.863  11.089
51202W        W18270  11.685  27.017  12.877
51203W        W18271  20.660  23.629  11.076
51204W        W18272   4.435  18.142   2.784
51205W        W18273  15.625  25.489   1.393
51206W        W18274  21.564  17.193   0.437
51207W        W18275  17.105   3.752  13.917
51208W        W18276  25.197  25.154  10.545
51209W        W18277  13.207  36.378   2.225
51210W        W18278  32.956  30.562   0.463
51211W        W18279  38.837  41.296  12.948
51212W        W18280  32.592  23.002  11.045
51213W        W18281  43.956  21.236  14.317
51214W        W18282  29.961  39.324  10.425
51215W        W18283  40.476  18.061   3.273
51216W        W18284  42.823   0.315   3.292
51217W        W18285  12.244  17.280   0.435
51218W        W18286   3.295   2.872   2.794
51219W        W18287   9.739  17.785  12.434
51220W        W18288  39.881  17.639   0.950
51221W        W18289  16.166  41.031  10.503
51222W        W18290  44.488  30.942  13.343
51223W        W18291  23.549  15.812   0.437
51224W        W18292  28.539   2.859   4.236
51225W        W18293  21.658  25.152   1.736
51226W        W18294  22.239  20.633   3.156
51227W        W18295   3.900   4.349   4.215
51228W        W18296  29.066  44.269   0.349
51229W        W18297  18.574  12.682   4.703
51230W        W18298  10.253  20.705   3.320
51231W        W18299  34.111  19.085   0.943
51232W        W18300  30.989  23.702  12.957
51233W        W18301  12.691   6.887   0.464
51234W        W18302   4.268  22.053  11.438
51235W        W18303  33.908   0.895  12.935
51236W        W18304  31.976  30.100  14.918
51237W        W18305   8.778   1.348   1.285
51238W        W18306  19.092  44.868  14.848
51239W        W18307  37.935  15.084  10.411
51240W        W18308  43.973   0.415   1.880
51241W        W18309  11.736  31.950   0.445
51242W        W18310  27.551  15.245   3.146
51243W        W18311  11.718  11.149  12.939
51244W        W18312  30.452  28.506   1.216
51245W        W18313  27.659   1.756   3.344
51246W        W18314  34.905  35.402   3.201
51247W        W18315   1.465  38.928   3.866
51248W        W18316  28.063  44.413   3.148
51249W        W18317  12.125  30.622  14.283
51250W        W18318  13.704   2.245  11.075
51251W        W18319  22.575  42.327   0.778
51252W        W18320   3.841  17.796  14.346
51253W        W18321  15.148  35.911   2.232
51254W        W18322  25.681  13.233  11.498
51255W        W18323  28.052   6.416   2.292
51256W        W18324  31.147  26.524  12.445
51257W        W18325  41.460  14.315  14.769
51258W        W18326  19.697   4.801   0.938
51259W        W18327  21.620  40.475   4.146
51260W        W18328  24.545  36.981   4.733
51261W        W18329  29.467   2.307   4.796
51262W        W18330  12.659   0.985   4.118
51263W        W18331  39.419  40.323  14.362
51264W        W18332   5.700  31.070  12.083
51265W        W18333  17.096  39.510  14.505
51266W        W18334  29.666  23.642  13.013
51267W        W18335  11.735  33.976  13.918
51268W        W18336  33.116  10.145   4.316
51269W        W18337  25.566   9.157   4.755
51270W        W18338  43.297  13.179  11.423
51271W        W18339  33.899  32.021   4.631
51272W        W18340  12.663  23.705   3.778
51273W        W18341  38.548  23.659  11.560
51274W        W18342  29.659  22.746   3.164
51275W        W18343  27.610  13.623  14.419
51276W        W18344  11.323  42.814   5.257
51277W        W18345  42.332  16.170   2.746
51278W        W18346  23.701  38.927   3.758
51279W        W18347  43.772  11.695   3.731
51280W        W18348  24.009  26.527  14.313
51281W        W18349   4.906   4.830   0.324
51282W        W18350  22.116  43.352   0.807
51283W        W18351  40.978  32.955  12.016
51284W        W18352   4.767  36.080  12.448
51285W        W18353  32.960  24.543   3.745
51286W        W18354  22.613  12.648   0.356
51287W        W18355  38.946  40.373  14.768
51288W        W18356  31.412  35.489  10.640
51289W        W18357  24.114  27.022   0.856
51290W        W18358   3.740  22.115  11.930
51291W        W18359  26.040   5.406   4.700
51292W        W18360  35.942   0.476  10.903
51293W        W18361  13.322  19.652  14.974
51294W        W18362  11.702  19.565   4.241
51295W        W18363  22.022  35.435  14.024
51296W        W18364  10.323  25.685   0.470
51297W        W18365  33.540  14.703   4.291
51298W        W18366  23.723  29.927  11.571
51299W        W18367  17.180  37.515  14.972
51300W        W18368   5.860   6.804  14.455
51301W        W18369  33.052  15.206   2.732
51302W        W18370  12.361   7.852  13.803
51303W        W18371  43.480   8.235  14.494
51304W        W18372  38.444  11.185  14.948
51305W        W18373  43.275  28.007  10.618
51306W        W18374   6.695  44.949  10.472
51307W        W18375  11.191  35.867  12.836
51308W        W18376   5.777  28.977  12.951
51309W        W18377  19.538  42.813  14.418
51310W        W18378   4.724   8.728   3.733
51311W        W18379  38.013  17.068  14.792
51312W        W18380  12.299  20.258  11.375
51313W        W18381  32.442  23.992  11.898
51314W        W18382  38.514  27.053   4.648
51315W        W18383  23.656  39.476  14.334
51316W        W18384  12.242  10.642   3.869
51317W        W18385   0.877  38.071   1.283
51318W        W18386  40.052  33.447   1.349
51319W        W18387  17.583   6.755   2.718
51320W        W18388  13.217  26.027  10.910
51321W        W18389  29.620  18.780   2.296
51322W        W18390  15.235  12.144  13.884
51323W        W18391  25.154  42.485   2.691
51324W        W18392  34.380  24.179   4.137
51325W        W18393  12.856  20.743   2.707
51326W        W18394  15.148  12.162   3.208
51327W        W18395  31.572  11.847  11.587
51328W        W18396  43.446  42.920  13.421
51329W        W18397  27.104   0.348   9.987
51330W        W18398  39.558  31.539  13.912
51331W        W18399   6.255   2.966  10.529
51332W        W18400  24.152   8.358   1.888
51333W        W18401  36.992  31.609   2.895
51334W        W18402  44.924  18.782   0.257
51335W        W18403  25.559  16.132   3.271
51336W        W18404   7.338  42.828  10.556
51337W        W18405  25.681   0.800  11.471
51338W        W18406  24.570  37.018   0.875
51339W        W18407  22.666   1.788   2.359
51340W        W18408  36.361   4.206  13.876
51341W        W18409  38.557   3.844  11.028
51342W        W18410  42.888  15.805   4.745
51343W        W18411  40.337  27.168  12.377
51344W        W18412  24.214  34.567  10.407
51345W        W18413  26.142  18.787   1.451
51346W        W18414  23.502  11.696  14.307
51347W        W18415  36.557   1.253  10.618
51348W        W18416  14.107  44.994  11.963
51349W        W18417  37.869  36.441   2.822
51350W        W18418  16.162  19.640   4.213
51351W        W18419  12.123  22.059  14.275
51352W        W18420  12.348   3.803   1.924
51353W        W18421   8.240  30.497  13.938
51354W        W18422  20.738   2.294  14.341
51355W        W18423  42.448  40.921   2.249
51356W        W18424  11.233  37.923   0.395
51357W        W18425  42.874  29.974  11.103
51358W        W18426  37.360  17.689  12.892
51359W        W18427   2.281   8.175  11.427
51360W        W18428  18.776   5.206  12.390
51361W        W18429  29.593   8.700  12.992
51362W        W18430  21.263  31.150  12.377
51363W        W18431  24.204  44.921   3.652
51364W        W18432   1.331   2.303  10.633
51365W        W18433  29.031   3.871  11.396
51366W        W18434  28.034  41.944  13.020
51367W        W18435  44.355  10.360  11.078
51368W        W18436   3.955  32.974  13.333
51369W        W18437   9.822  23.663  12.394
51370W        W18438   8.748   6.373  10.418
51371W        W18439  23.603  37.892   0.902
51372W        W18440  32.958   9.681  11.959
51373W        W18441  43.394  38.895  14.332
51374W        W18442   9.720  38.042  12.480
51375W        W18443  12.274  26.498   5.099
51376W        W18444  33.503  30.612   3.246
51377W        W18445  18.757  17.239   2.707
51378W        W18446  35.962  33.448   3.821
51379W        W18447  19.257  38.911   0.422
51380W        W18448  15.084  30.152   3.816
51381W        W18449   6.307   8.826  13.061
51382W        W18450  40.430   7.205   3.788
51383W        W18451  13.323  33.409   0.306
51384W        W18452  43.999  34.091   1.281
51385W        W18453  29.962  43.918   4.601
51386W        W18454  29.072  17.582  11.580
51387W        W18455  37.946  41.403   0.414
51388W        W18456  23.601  43.470   0.243
51389W        W18457   4.382  26.649  14.298
51390W        W18458  11.216   0.388   2.178
51391W        W18459   2.837   5.732   0.907
51392W        W18460  42.407   5.796  14.782
51393W        W18461  37.413  44.874   1.796
51394W        W18462   5.821   2.251  14.438
51395W        W18463  28.640   9.269  10.971
51396W        W18464  33.494   7.836   5.201
51397W        W18465  35.513  40.040  14.354
51398W        W18466   4.425  27.057  10.948
51399W        W18467  30.540  15.324   4.183
51400W        W18468  41.322  21.106  13.396
51401W        W18469  20.232  37.849  14.838
51402W        W18470  44.489  35.533  14.931
51403W        W18471  43.904  16.687  10.414
51404W        W18472  11.238  37.017  12.568
51405W        W18473  28.081  43.277   0.337
51406W        W18474  14.808  17.624  10.912
51407W        W18475   3.414  23.053   4.813
51408W        W18476  34.554  33.999   4.641
51409W        W18477  30.984  24.180   3.768
51410W        W18478  34.537   4.753   4.256
51411W        W18479  36.008   1.441  12.019
51412W        W18480   2.833   3.429  10.568
51413W        W18481  35.451  44.312  11.448
51414W        W18482  32.915  31.592   2.761
51415W        W18483  38.426   1.295  12.448
51416W        W18484  15.167  24.629   0.287
51417W        W18485   6.308   8.710   4.608
51418W        W18486  32.139  37.385   4.278
51419W        W18487  43.780   1.365   1.922
51420W        W18488  21.753  13.293  11.530
51421W        W18489  38.900  34.482  14.489
51422W        W18490  19.588  41.846  14.861
51423W        W18491  35.370  19.676   1.331
51424W        W18492  18.144  21.746  11.446
51425W        W18493  16.133  41.481   4.781
51426W        W18494  24.549  25.202   1.874
51427W        W18495  31.041   1.454   2.407
51428W        W18496  23.048   0.429   4.668
51429W        W18497  12.147  15.735  10.992
51430W        W18498  44.407  29.085  14.905
51431W        W18499  37.912  32.580   4.312
51432W        W18500   8.239  26.186   4.734
51433W        W18501  19.199  39.355   1.791
51434W        W18502  14.333  35.364  13.513
51435W        W18503  13.717  26.083  12.435
51436W        W18504  39.497  23.734  13.959
51437W        W18505  28.579  38.483   3.353
51438W        W18506  14.799  21.590  13.441
51439W        W18507  17.180  28.998  11.884
51440W        W18508  15.307  20.569   1.441
51441W        W18509  28.562  28.565   0.884
51442W        W18510  15.823  22.726  11.598
51443W        W18511  18.633  11.212  12.471
51444W        W18512  39.350  21.186   0.947
51445W        W18513  22.235  25.137  12.957
51446W        W18514  14.200  42.897  10.984
51447W        W18515  17.088  41.829   1.388
51448W        W18516  42.031  27.479  12.048
51449W        W18517  43.994   0.802  10.938
51450W        W18518   8.301  13.157  14.461
51451W        W18519  27.478  35.408  11.049
51452W        W18520   1.297  26.456   4.314
51453W        W18521  14.604  40.460  12.078
51454W        W18522  43.503  31.472  14.343
51455W        W18523   0.842  27.028  14.985
51456W        W18524   0.902  43.929   2.791
51457W        W18525  23.680  12.259   1.896
51458W        W18526  43.408  42.302  12.880
51459W        W18527  44.444  42.865   5.311
51460W        W18528  44.890   9.800   1.785
51461W        W18529  28.929  25.636   5.318
51462W        W18530  11.151  44.484   3.294
51463W        W18531  10.199   7.702  12.852
51464W        W18532  38.413   6.893   2.395
51465W        W18533  30.147  23.195   1.252
51466W        W18534  36.371  43.889   1.298
51467W        W18535  22.248  42.405   2.686
51468W        W18536   6.263  39.818  12.486
51469W        W18537  11.357  25.968  13.372
51470W        W18538  22.149  32.946   2.757
51471W        W18539  44.885  33.588  13.436
51472W        W18540  42.018  29.163   0.745
51473W        W18541  28.611   4.252   0.793
51474W        W18542  18.187  30.628  10.408
51475W        W18543  37.863   4.906  11.862
51476W        W18544  33.607   7.398   4.129
51477W        W18545  21.619   2.422  13.059
51478W        W18546   6.781  43.967  10.575
51479W        W18547  17.168  15.629   1.809
51480W        W18548  33.411  37.538  12.396
51481W        W18549   0.971  30.122  13.849
51482W        W18550  40.971  13.182  11.373
51483W        W18551  11.312   0.879  13.910
51484W        W18552  32.096  10.256   4.686
51485W        W18553  10.754  27.984   0.284
51486W        W18554  13.297  40.508   2.680
51487W        W18555  39.514   4.318  13.364
51488W        W18556  23.133  11.696   1.930
51489W        W18557  42.524  14.645  14.370
51490W        W18558  19.638  35.048   1.705
51491W        W18559  25.109  36.098  10.917
51492W        W18560  11.750   6.726   4.755
51493W        W18561  39.035   1.321   0.361
51494W        W18562  19.114  37.833  11.516
51495W        W18563  26.549  27.124   4.809
51496W        W18564  23.651  21.730   4.335
51497W        W18565  44.325  37.341  13.368
51498W        W18566  24.128  41.885  13.332
51499W        W18567  34.558  20.665   4.780
51500W        W18568   1.974  16.290  11.000
51501W        W18569  30.030  32.016   4.721
51502W        W18570   9.671  31.520  14.376
51503W        W18571  29.609   4.792  10.628
51504W        W18572  23.599  14.822  10.466
51505W        W18573  13.248  42.784  12.950
51506W        W18574   3.296   7.375  14.776
51507W        W18575  34.072   0.373   4.128
51508W        W18576  22.635  28.619   1.224
51509W        W18577  40.910  39.973  12.379
51510W        W18578  24.005   7.790  11.987
51511W        W18579  44.853  38.908  13.929
51512W        W18580  29.541  13.203  12.350
51513W        W18581   3.897   6.847  14.759
51514W        W18582   0.768  19.107  12.879
51515W        W18583   1.965   5.373   1.848
51516W        W18584  35.424  18.598  10.530
51517W        W18585  20.197  40.999   0.850
51518W        W18586  14.163  23.064   2.737
51519W        W18587  34.592  16.205   3.860
51520W        W18588  41.334  14.790   3.737
51521W        W18589  28.107  19.156   0.790
51522W        W18590  12.199   0.771  13.846
51523W        W18591   1.246  10.794   2.207
51524W        W18592   0.275  28.645  12.942
51525W        W18593  19.267  34.919   0.333
51526W        W18594  32.043  10.689   3.163
51527W        W18595  28.652  38.005  12.574
51528W        W18596   2.340   6.805   2.230
51529W        W18597  10.360  17.228   0.738
51530W        W18598  36.861  13.703  13.037
51531W        W18599   9.378  37.071   3.665
51532W        W18600  11.268   1.387  13.476
51533W        W18601  33.474   5.354  11.108
51534W        W18602   9.317  22.142  10.547
51535W        W18603  12.294  16.304  14.426
51536W        W18604   5.860  14.730   2.858
51537W        W18605  35.492  14.667   0.324
51538W        W18606  12.176  10.160  13.828
51539W        W18607  32.041  42.360   0.299
51540W        W18608  28.132   4.228   0.785
51541W        W18609  14.303   3.798   0.441
51542W        W18610  22.179   5.220   4.305
51543W        W18611  35.090  13.715  12.540
51544W        W18612  22.103  22.579  10.408
51545W        W18613  44.431  18.759  10.522
51546W        W18614  43.872  44.888   2.876
51547W        W18615  28.638   7.241   4.828
51548W        W18616  31.915   3.380   0.315
51549W        W18617  16.258   3.296   4.671
51550W        W18618   0.898  19.543   2.749
51551W        W18619  43.422  11.788  12.470
51552W        W18620  32.007  44.932  13.440
51553W        W18621   6.725  10.315   0.749
51554W        W18622  34.013  33.508   0.852
51555W        W18623  28.057  32.595   0.776
51556W        W18624  26.021  36.373   3.207
51557W        W18625  18.107   0.427  14.345
51558W        W18626  27.194  34.490  10.895
51559W        W18627   8.178   7.896   1.803
51560W        W18628  33.985  27.024  13.405
51561W        W18629   1.265  10.864   2.785
51562W        W18630   1.443  37.980   3.711
51563W        W18631  28.155   1.931   1.888
51564W        W18632  34.487   2.827   3.836
51565W        W18633  38.846  39.427   0.746
51566W        W18634  40.345  26.638   0.472
51567W        W18635  43.924   4.450  14.437
51568W        W18636   8.211   7.251  14.482
51569W        W18637  19.138  18.106   4.218
51570W        W18638  10.753  17.688   2.266
51571W        W18639  25.645  13.812   0.773
51572W        W18640  17.591   5.348   3.162
51573W        W18641  20.750  28.627   3.373
51574W        W18642  30.937  19.617  14.955
51575W        W18643  23.511  29.591  12.440
51576W        W18644  29.423  30.914   1.355
51577W        W18645   6.868  21.108   0.270
51578W        W18646  10.813  17.802  10.463
51579W        W18647  17.701  30.968  14.932
51580W        W18648  44.947  20.165  12.486
51581W        W18649  12.338  13.177  14.819
51582W        W18650   3.863   4.357  14.997
51583W        W18651  37.338  42.024   1.327
51584W        W18652  39.013  39.874  14.999
51585W        W18653  27.010  13.221  12.404
51586W        W18654  11.636   4.206   4.635
51587W        W18655  43.831  19.147   1.696
51588W        W18656  31.492   3.258   4.773
51589W        W18657   8.218  20.638   2.341
51590W        W18658  19.759   0.959  14.842
51591W        W18659   2.814  33.997  12.571
51592W        W18660   2.305  23.659   2.300
51593W        W18661  23.235   3.846   4.310
51594W        W18662   8.368  25.061  13.359
51595W        W18663  32.407  39.334  14.504
51596W        W18664  20.066  25.522   3.200
51597W        W18665  42.904  29.120   1.923
51598W        W18666  30.415  26.537   5.256
51599W        W18667  25.023  41.511  11.048
51600W        W18668   5.733  15.178  12.416
51601W        W18669  10.664  41.850  12.005
51602W        W18670   1.859   1.434   1.705
51603W        W18671   6.855   0.440  12.891
51604W        W18672   3.892   7.397   1.717
51605W        W18673  39.985  15.149  14.331
51606W        W18674  31.423   1.905   0.277
51607W        W18675  13.813   6.272  13.800
51608W        W18676  31.534  26.625  14.397
51609W        W18677  30.990  33.420   2.670
51610W        W18678   0.828  35.874   0.736
51611W        W18679  43.896  12.232   1.400
51612W        W18680  18.666   7.230   0.344
51613W        W18681  20.757  38.014   3.666
51614W        W18682   6.265  37.376   2.754
51615W        W18683  29.107   5.925   3.771
51616W        W18684  32.626  42.434   1.426
51617W        W18685  11.196   6.808   2.839
51618W        W18686  29.537  40.962  14.505
51619W        W18687  23.653  27.585   4.124
51620W        W18688   1.439  30.911   1.262
51621W        W18689  38.555  33.977  11.010
51622W        W18690  21.059  22.586   1.428
51623W        W18691  23.073  31.633  10.928
51624W        W18692   4.233  22.729   0.307
51625W        W18693  13.609  32.424   2.669
51626W        W18694  25.550  22.572   3.659
51627W        W18695  10.326  20.201  11.599
51628W        W18696  14.702  30.107   4.650
51629W        W18697  26.962  27.064   1.819
51630W        W18698  24.105   3.835  14.389
51631W        W18699  11.771  21.704  12.063
51632W        W18700   9.353   2.323   1.853
51633W        W18701   7.408   2.757   2.203
51634W        W18702  44.948   5.752   3.373
51635W        W18703  31.544  20.048   2.849
51636W        W18704  16.111  19.262  13.016
51637W        W18705  33.445  43.482  12.503
51638W        W18706  31.917  42.510   0.795
51639W        W18707   8.175  33.468  13.340
51640W        W18708  38.338   1.432  13.384
51641W        W18709   2.812  23.633   3.843
51642W        W18710  18.749  12.354   0.915
51643W        W18711  36.469  26.183   3.168
51644W        W18712  22.546  10.161  12.411
51645W        W18713   6.268  22.632   1.697
51646W        W18714  42.800  33.427  13.012
51647W        W18715  39.554  27.983  14.508
51648W        W18716  24.044   7.776   3.835
51649W        W18717  36.562  15.679   3.299
51650W        W18718  39.958  32.413   3.316
51651W        W18719  41.298  23.736   0.726
51652W        W18720  23.082  43.773  13.495
51653W        W18721  26.615  39.351  13.836
51654W        W18722  31.538  28.540   3.760
51655W        W18723  22.580   9.197  11.953
51656W        W18724  24.562  39.524   1.340
51657W        W18725  21.103  13.222  11.092
51658W        W18726  32.424   1.974  11.862
51659W        W18727  32.394  27.591   2.197
51660W        W18728  37.915  25.016   1.401
51661W        W18729   1.889  16.138  14.361
51662W        W18730   6.318  22.130   2.872
51663W        W18731  39.351  32.917  14.490
51664W        W18732  27.531  43.454  12.428
51665W        W18733  30.588  28.151   4.196
51666W        W18734  42.397   3.253  12.848
51667W        W18735  37.532  14.133  13.896
51668W        W18736  12.717  32.523  12.858
51669W        W18737  15.650   5.263  12.471
51670W        W18738  18.156  26.522  14.431
51671W        W18739  43.875  33.435   3.278
51672W        W18740  43.879  44.344  13.377
51673W        W18741  43.004  17.221   0.841
51674W        W18742  26.550  40.488   5.238
51675W        W18743  18.168  40.955   1.768
51676W        W18744  13.734  38.848  12.079
51677W        W18745  27.637  34.096   1.317
51678W        W18746  23.731  29.110   0.318
51679W        W18747  19.229  41.399   3.847
51680W        W18748   0.833  41.042  11.418
51681W        W18749   5.385  39.890  12.847
51682W        W18750  31.614  22.667   2.254
51683W        W18751  30.038  40.999  12.573
51684W        W18752   3.405   1.840  13.331
51685W        W18753  21.055  31.912  11.931
51686W        W18754  40.425  25.683  14.783
51687W        W18755   6.308  33.129  14.492
51688W        W18756  19.773  17.271  14.970
51689W        W18757  24.079  32.554   2.414
51690W        W18758  30.651   9.314   3.308
51691W        W18759   1.854  28.093  13.946
51692W        W18760   7.416  19.695  12.918
51693W        W18761  39.478   3.924  14.022
51694W        W18762  23.194   2.415  14.881
51695W        W18763   2.909  40.433   2.687
51696W        W18764  31.454   7.404  12.069
51697W        W18765   0.762  19.582   1.923
51698W        W18766  31.907  17.615   2.395
51699W        W18767  13.239  43.943   3.797
51700W        W18768  17.107  33.396  10.532
51701W        W18769  17.742  21.207   0.461
51702W        W18770   2.417   6.855  13.544
51703W        W18771  35.872   8.836   2.810
51704W        W18772   3.359  19.040   3.342
51705W        W18773   6.268  14.094  13.872
51706W        W18774  27.157   8.744   1.741
51707W        W18775  18.177  36.504  13.320
51708W        W18776  34.111   0.458  13.340
51709W        W18777   2.293  38.959   4.806
51710W        W18778  44.355  28.100  13.948
51711W        W18779  15.083  19.726   2.901
51712W        W18780  22.644  44.910   2.194
51713W        W18781  11.859  27.093   3.722
51714W        W18782  17.081  42.019   2.347
51715W        W18783  35.989  28.145  11.011
51716W        W18784  41.474  21.697   2.710
51717W        W18785   2.397   1.875   0.826
51718W        W18786   9.807  32.422  11.010
51719W        W18787   1.936  32.552  12.974
51720W        W18788  11.741  41.429  12.859
51721W        W18789   1.899  12.288   2.711
51722W        W18790  18.773  42.912   0.836
51723W        W18791  31.423  18.121  13.508
51724W        W18792  21.525  36.973   5.699
51725W        W18793  21.249  20.584  12.358
51726W        W18794   3.283  11.337  12.836
51727W        W18795   5.767  34.606  14.972
51728W        W18796  30.636  44.856   1.449
51729W        W18797   9.209  44.907   0.754
51730W        W18798  43.490   1.291   1.248
51731W        W18799   5.226  39.909   0.733
51732W        W18800  18.290  28.586   2.236
51733W        W18801  14.668   7.781   4.695
51734W        W18802  41.433  11.204  14.844
51735W        W18803  36.955   9.211   2.370
51736W        W18804  17.678  24.192  13.507
51737W        W18805   9.824   0.746  11.057
51738W        W18806  39.535   0.454  14.947
51739W        W18807  36.043  10.759   4.324
51740W        W18808  27.459  12.352  14.765
51741W        W18809  18.134  39.986  13.522
51742W        W18810  19.214  21.545   2.393
51743W        W18811  31.933  25.681   1.328
51744W        W18812  35.998  33.533   3.289
51745W        W18813  18.549  11.325   2.704
51746W        W18814   6.844  41.863   2.760
51747W        W18815  12.160  15.089   2.689
51748W        W18816  16.252  31.497  11.582
51749W        W18817  16.669  20.545   4.290
51750W        W18818  30.500  18.790  11.607
51751W        W18819  23.212  39.475   2.192
51752W        W18820  10.260   9.779   4.139
51753W        W18821   1.388  11.372   4.632
51754W        W18822  20.230  35.502   1.252
51755W        W18823  29.615  30.976   3.351
51756W        W18824  13.696   8.220  11.906
51757W        W18825   0.430  22.091  12.361
51758W        W18826   8.665  36.445  14.422
51759W        W18827  44.830  28.464   1.312
51760W        W18828  13.653  25.699   1.442
51761W        W18829  27.664  41.968   2.273
51762W        W18830  34.454   5.261   2.741
51763W        W18831  29.019  13.810  14.422
51764W        W18832  19.547  16.149   4.149
51765W        W18833  19.553  27.487   4.675
51766W        W18834  31.992  13.185   2.315
51767W        W18835  29.966   1.418   0.967
51768W        W18836   0.291  28.659   4.810
51769W        W18837   2.304   9.784   1.244
51770W        W18838  11.164  10.652   1.345
51771W        W18839  39.348   4.214  11.610
51772W        W18840  41.326  35.422   4.259
51773W        W18841  39.536   9.377  13.503
51774W        W18842  19.693   7.216  13.936
51775W        W18843  41.018  14.204  14.376
51776W        W18844   0.911  22.745   3.330
51777W        W18845   5.767  44.010  13.331
51778W        W18846  25.671  19.607  12.028
51779W        W18847  18.050   9.783  12.027
51780W        W18848  27.637  32.985   3.233
51781W        W18849  43.779  33.920   3.808
51782W        W18850  20.698  27.943  12.565
51783W        W18851  18.069  33.402  14.815
51784W        W18852  25.994  22.133  12.902
51785W        W18853   7.307   5.366   4.251
51786W        W18854  11.216   9.200  14.905
51787W        W18855   4.389   0.820  14.990
51788W        W18856  18.081  22.740  13.450
51789W        W18857   0.451  19.070  12.859
51790W        W18858  24.061  25.706  12.378
51791W        W18859  38.910   7.308  10.435
51792W        W18860   1.884  35.922  10.099
51793W        W18861  12.694   1.393  11.422
51794W        W18862  14.683   9.373  11.863
51795W        W18863  40.523   1.976   3.372
51796W        W18864   8.870   7.364   0.885
51797W        W18865   7.192   9.205   2.828
51798W        W18866   2.755  34.003  11.406
51799W        W18867  37.418  31.646  13.399
51800W        W18868  18.066  12.155  12.084
51801W        W18869  42.780  19.251   1.442
51802W        W18870  25.037   7.247   2.665
51803W        W18871  27.579  38.902   3.715
51804W        W18872  24.161  43.368   2.778
51805W        W18873  15.694  39.514   1.398
51806W        W18874  36.558  35.501   0.243
51807W        W18875  37.013  24.501   1.759
51808W        W18876  23.072  18.699  11.389
51809W        W18877  33.971  20.682   0.450
51810W        W18878  12.629  36.068   0.914
51811W        W18879  12.149  40.966   4.602
51812W        W18880   1.417  32.458  10.576
51813W        W18881   6.710   7.736   2.227
51814W        W18882  15.624  27.967  11.055
51815W        W18883  11.249   6.826  12.997
51816W        W18884  11.802  12.644  10.468
51817W        W18885  27.446  29.932  14.806
51818W        W18886  23.128   4.699  14.473
51819W        W18887  15.612   4.286   1.258
51820W        W18888  31.015  34.994   0.952
51821W        W18889  11.653  44.754  12.075
51822W        W18890  32.427  39.985   4.790
51823W        W18891   1.751  30.957  14.329
51824W        W18892  10.647  34.600  10.585
51825W        W18893  40.539  39.966   1.242
51826W        W18894  19.552  35.952   2.822
51827W        W18895  43.972  39.957   3.746
51828W        W18896  20.762  15.721   3.287
51829W        W18897  36.591   6.231  11.950
51830W        W18898  18.609  41.524  13.038
51831W        W18899  32.596   9.867   1.864
51832W        W18900  18.197  24.629  14.786
51833W        W18901  28.185   0.841  12.979
51834W        W18902  17.657   9.674   3.771
51835W        W18903  23.141  21.652   1.931
51836W        W18904  30.570  15.309  12.351
51837W        W18905  33.605   3.904   4.163
51838W        W18906   1.800  42.905   2.854
51839W        W18907  20.110  23.139   2.755
51840W        W18908   3.836   4.366  11.919
51841W        W18909  21.091  44.290   4.602
51842W        W18910   2.721  22.210  14.480
51843W        W18911   6.724  38.373   1.426
51844W        W18912  15.175  26.180  10.471
51845W        W18913  39.064  21.649   4.804
51846W        W18914  31.123  29.555   2.300
51847W        W18915  18.777  18.618   5.085
51848W        W18916  22.522  33.027  14.026
51849W        W18917   5.900   5.778  13.451
51850W        W18918  42.507  42.477  10.985
51851W        W18919  31.995  30.002   3.343
51852W        W18920  29.146  17.246   4.683
51853W        W18921  39.542  37.868  12.970
51854W        W18922  10.858   7.769  13.452
51855W        W18923  30.943  17.283   3.714
51856W        W18924  14.806  21.249  12.896
51857W        W18925  38.867  16.742   4.236
51858W        W18926  23.024  33.547   4.618
51859W        W18927  24.164  38.034  10.607
51860W        W18928  33.405  26.556   4.821
51861W        W18929   4.366  32.016   1.361
51862W        W18930  36.036  22.670  11.548
51863W        W18931  39.841  32.930  10.528
51864W        W18932  36.897  21.231  14.987
51865W        W18933  24.209  17.145   4.318
51866W        W18934  39.915   8.732   3.266
51867W        W18935  21.587  13.239   0.387
51868W        W18936  22.106  26.516   4.760
51869W        W18937  39.438   0.921   0.259
51870W        W18938  25.133  15.234  12.905
51871W        W18939  32.060  19.574  11.432
51872W        W18940   4.270   2.920  12.452
51873W        W18941  41.786  33.543   3.784
51874W        W18942  29.158  18.563  13.019
51875W        W18943  27.993   6.274  13.849
51876W        W18944   1.379  13.287  11.489
51877W        W18945  10.778  21.160   4.206
51878W        W18946   7.846  18.060  14.491
51879W        W18947  22.575  36.030  13.821
51880W        W18948  22.148  16.771   4.334
51881W        W18949  32.973  43.983  13.366
51882W        W18950  32.540   1.894   1.399
51883W        W18951   9.683  21.149  12.959
51884W        W18952  35.988  36.443  14.318
51885W        W18953  28.676  44.441  11.035
51886W        W18954  26.534  29.634  12.849
51887W        W18955  41.528  24.008   0.893
51888W        W18956   8.723   7.691   0.948
51889W        W18957   6.758  31.980   4.738
51890W        W18958  29.464   0.285   3.867
51891W        W18959   3.392  39.480   0.918
51892W        W18960  39.974  40.914  12.901
51893W        W18961  30.160  11.832  10.915
51894W        W18962  11.630  12.794   1.896
51895W        W18963  32.947  24.136   3.160
51896W        W18964  13.682  35.456  14.889
51897W        W18965   8.777   2.835   1.927
51898W        W18966  13.352  24.666   0.741
51899W        W18967  38.843  42.360  10.901
51900W        W18968   2.749   4.239  11.382
51901W        W18969  15.245  29.525  10.425
51902W        W18970  30.522  30.025   0.398
51903W        W18971  31.593  38.996   0.482
51904W        W18972  25.127   7.775  13.504
51905W        W18973  30.554  14.688  10.618
51906W        W18974  16.674  34.009   2.373
51907W        W18975  33.432  23.500   3.280
51908W        W18976  21.680  35.092  11.480
51909W        W18977  44.492   3.801  12.509
51910W        W18978  34.941  41.427  10.461
51911W        W18979  21.655   4.445   1.351
51912W        W18980  33.953  37.517   0.821
51913W        W18981  19.045  14.268  13.488
51914W        W18982  28.165  41.501  12.552
51915W        W18983  19.039   1.243  11.405
51916W        W18984  38.507  18.723   1.276
51917W        W18985  29.437   8.705   4.150
51918W        W18986  30.021  35.991   2.738
51919W        W18987   4.886  10.254   2.395
51920W        W18988  38.547  33.473  11.013
51921W        W18989  43.866  35.589  12.852
51922W        W18990  14.602  24.993   1.357
51923W        W18991   3.892  22.094  14.894
51924W        W18992  11.676  32.423  12.995
51925W        W18993  29.117  26.989   5.192
51926W        W18994  27.544  18.701   0.958
51927W        W18995   6.364  41.997   3.706
51928W        W18996   5.774  40.331  11.378
51929W        W18997   9.258  31.484   2.892
51930W        W18998  20.609  18.067  14.366
51931W        W18999  37.056  44.436  12.943
51932W        W19000  22.214   9.819   0.790
51933W        W19001  44.912  42.822   4.703
51934W        W19002   9.735  34.570   0.873
51935W        W19003  11.816  37.013  11.896
51936W        W19004   3.816  32.000  14.928
51937W        W19005  44.919  35.414   4.255
51938W        W19006   3.901  29.937  12.435
51939W        W19007  27.049  40.971   1.421
51940W        W19008  30.517  15.130  11.390
51941W        W19009  18.787   9.285   0.380
51942W        W19010   4.820  42.799   2.719
51943W        W19011  21.135   4.275  13.331
51944W        W19012  13.108   6.376  12.030
51945W        W19013  36.555  16.207   0.252
51946W        W19014   7.885   7.886  10.571
51947W        W19015  25.127  20.176   4.784
51948W        W19016   1.821  40.349  11.099
51949W        W19017  34.508  25.161   4.761
51950W        W19018   0.856  37.980   1.754
51951W        W19019   4.334  32.397   2.334
51952W        W19020   2.333  29.569   3.325
51953W        W19021  19.555  30.563  13.004
51954W        W19022  41.418   9.871  10.413
51955W        W19023  24.010  27.067  14.911
51956W        W19024  29.011   0.419   2.257
51957W        W19025  30.450  35.929  12.417
51958W        W19026  37.892  40.940   3.639
51959W        W19027  26.090  25.689   3.298
51960W        W19028  40.919   7.236  11.561
51961W        W19029  30.949  17.640  12.380
51962W        W19030  42.445  22.169  14.366
51963W        W19031  38.959   4.394   0.873
51964W        W19032  31.624  29.459  11.959
51965W        W19033  12.610  31.103   1.361
51966W        W19034  40.985  11.291  12.551
51967W        W19035  10.315   0.969  12.013
51968W        W19036   4.287  21.533  10.956
51969W        W19037  34.930  34.524  11.893
51970W        W19038  39.927  15.291  10.589
51971W        W19039   7.706  25.084  13.386
51972W        W19040   1.286  12.349   3.832
51973W        W19041  34.378   1.329   1.236
51974W        W19042   9.769   1.468  11.449
51975W        W19043   9.735  16.596   0.472
51976W        W19044  28.971  24.516   1.746
51977W        W19045  14.703  35.389  14.808
51978W        W19046  28.933  25.166  11.072
51979W        W19047   6.220  30.004  12.905
51980W        W19048  17.245  26.045  10.972
51981W        W19049   0.311   5.255  11.957
51982W        W19050  31.012  38.042   2.810
51983W        W19051   6.686  44.348   4.290
51984W        W19052  16.287   6.809  11.855
51985W        W19053  33.562  14.595  13.931
51986W        W19054  18.082  23.048  10.630
51987W        W19055   2.770  18.258   4.271
51988W        W19056  35.966  43.999  14.406
51989W        W19057   5.253  17.197   3.316
51990W        W19058  24.566  24.080   2.885
51991W        W19059  37.467  34.445  10.904
51992W        W19060  14.650  39.894   1.428
51993W        W19061  31.954  33.010  11.530
51994W        W19062  25.211  13.140  14.448
51995W        W19063  27.028   9.833  11.083
51996W        W19064  26.143   7.278   4.173
51997W        W19065  26.111  10.208  13.482
51998W        W19066  18.785  27.959   4.285
51999W        W19067  41.008  28.124  10.542
52000W        W19068  23.134  21.213  13.018
52001W        W19069   0.318  35.097   2.761
52002W        W19070   9.199  36.858   4.277
52003W        W19071   4.831  36.958   1.343
52004W        W19072  19.536  42.976   1.740
52005W        W19073   2.738  37.457  10.538
52006W        W19074  39.914  39.346   1.315
52007W        W19075  10.167  38.410   3.854
52008W        W19076  11.739  27.948   0.895
52009W        W19077  31.049  38.914   4.762
52010W        W19078  39.855  19.162  11.373
52011W        W19079  25.590   6.201   0.783
52012W        W19080   0.318  31.504   9.557
52013W        W19081  24.490  43.811  14.310
52014W        W19082   9.880  14.306   1.405
52015W        W19083  43.020   9.230   0.755
52016W        W19084  23.128  43.876  14.969
52017W        W19085   2.834  34.885   0.392
52018W        W19086  22.665  38.843  11.118
52019W        W19087  27.968  34.950   2.706
52020W        W19088  34.410  29.601   4.632
52021W        W19089  31.112  31.115  14.470
52022W        W19090  39.391  26.699  14.934
52023W        W19091  36.439  10.272  11.070
52024W        W19092  32.578  22.115   0.905
52025W        W19093   2.903  36.040   3.373
52026W        W19094  44.352  30.486   0.245
52027W        W19095  37.946   3.344  11.064
52028W        W19096  10.693  20.034  14.967
52029W        W19097  30.985  22.708   5.295
52030W        W19098  12.305  27.022   0.765
52031W        W19099  16.797  32.504  12.050
52032W        W19100  14.644  14.190  10.452
52033W        W19101  32.460  21.557   0.951
52034W        W19102  22.732  19.627  11.039
52035W        W19103  43.475  43.889   4.183
52036W        W19104   4.436  30.446  12.077
52037W        W19105  36.873  27.488  14.496
52038W        W19106  18.573   7.736  13.418
52039W        W19107   8.277  12.729  14.873
52040W        W19108  24.999  30.645  10.457
52041W        W19109  24.071   4.423  12.003
52042W        W19110  32.954  10.292   0.755
52043W        W19111   6.204  40.048  12.029
52044W        W19112   0.360  13.670  12.509
52045W        W19113   9.372  26.672  11.890
52046W        W19114  35.587  21.595  13.970
52047W        W19115  27.970  17.786   1.358
52048W        W19116  13.724  32.446   0.966
52049W        W19117  35.447  14.648  14.779
52050W        W19118  23.503   1.786   1.336
52051W        W19119   5.928  41.429  12.853
52052W        W19120  36.458  29.613  10.984
52053W        W19121   9.377  30.558   2.203
52054W        W19122  40.012  28.632   0.732
52055W        W19123  15.234  39.455   1.705
52056W        W19124  21.601  31.064  12.507
52057W        W19125  28.463  15.734   0.253
52058W        W19126  41.012  17.691   1.828
52059W        W19127  28.018  35.559  11.909
52060W        W19128  21.135  33.464   4.803
52061W        W19129  17.656   3.935  10.404
52062W        W19130  32.983  13.810  12.526
52063W        W19131  38.060  32.621   4.658
52064W        W19132  12.149   9.861  14.942
52065W        W19133   3.277  14.291   0.765
52066W        W19134  41.891   5.866   4.145
52067W        W19135  39.348  40.048  10.459
52068W        W19136  32.925  35.966   4.782
52069W        W19137  16.697  22.640  10.906
52070W        W19138  32.438  13.693   1.262
52071W        W19139  43.511  43.886   3.271
52072W        W19140   9.354   3.738  10.620
52073W        W19141  21.640   8.264   0.743
52074W        W19142  38.994  43.765  13.341
52075W        W19143  36.908  18.752   2.815
52076W        W19144  36.467  25.506  14.302
52077W        W19145  19.180   9.270   4.331
52078W        W19146  23.594   7.229   4.799
52079W        W19147  15.169   4.904  13.419
52080W        W19148  27.025  11.827   2.318
52081W        W19149  34.005   9.260   1.916
52082W        W19150  24.152   4.249  14.870
52083W        W19151  17.169  31.114   0.411
52084W        W19152  25.072   4.727  10.508
52085W        W19153   5.217   4.288  14.816
52086W        W19154  38.839  28.951  10.544
52087W        W19155   6.325  38.461  13.999
52088W        W19156  18.183  27.052  14.829
52089W        W19157  23.495  23.617   2.179
52090W        W19158  27.692  12.151  13.372
52091W        W19159  39.501  15.816   3.852
52092W        W19160  38.362  20.244  12.889
52093W        W19161  34.561  37.005   4.739
52094W        W19162  14.143  32.547  14.295
52095W        W19163  22.030  18.122   4.652
52096W        W19164  43.385  34.589  12.447
52097W        W19165  27.616  23.055   0.956
52098W        W19166   7.342  43.016   0.340
52099W        W19167  19.273  18.137   4.653
52100W        W19168  24.180  11.333  11.467
52101W        W19169   0.375  10.231  10.571
52102W        W19170  29.645  15.615  11.589
52103W        W19171   8.856  21.130  11.055
52104W        W19172   4.938  34.938   2.359
52105W        W19173  39.395  29.099  11.035
52106W        W19174  32.125  12.333  12.858
52107W        W19175  17.258  20.556  14.362
52108W        W19176   6.261   7.785  12.538
52109W        W19177  32.919  14.096  10.464
52110W        W19178  22.527  40.314  14.405
52111W        W19179  20.247  37.471   0.317
52112W        W19180  43.402  37.411  13.376
52113W        W19181   5.716  24.089  14.005
52114W        W19182  13.118  37.376   2.331
52115W        W19183  22.603  37.968  13.523
52116W        W19184  11.212  23.996  13.881
52117W        W19185  17.063  25.005   3.266
52118W        W19186  36.457   5.291  11.559
52119W        W19187  12.210  36.854   1.920
52120W        W19188  16.648  33.428   2.890
52121W        W19189  33.609  12.138  10.970
52122W        W19190   7.243  38.501   1.239
52123W        W19191  28.938  44.972   2.763
52124W        W19192  25.524  24.988   9.948
52125W        W19193   9.322   2.765   3.253
52126W        W19194  28.485  28.962  11.892
52127W        W19195  20.034  40.318  13.506
52128W        W19196   6.883  25.974  10.598
52129W        W19197   4.940  36.531   3.772
52130W        W19198  23.015   9.324  10.623
52131W        W19199  11.641   4.212   3.812
52132W        W19200  40.408  42.498  11.013
52133W        W19201  19.595  38.368   4.773
52134W        W19202  44.805  24.098  14.765
52135W        W19203  24.169  11.290  10.973
52136W        W19204  19.551  24.987   2.840
52137W        W19205   1.321  42.286   2.778
52138W        W19206  12.335  22.243   4.220
52139W        W19207  19.625  33.385   1.264
52140W        W19208   2.238  41.011   4.642
52141W        W19209  39.039   9.738   3.841
52142W        W19210   5.923   2.771  10.486
52143W        W19211   2.368  28.543   0.823
52144W        W19212  43.289   2.867  11.479
52145W        W19213  27.509  44.834   3.244
52146W        W19214   4.229   2.897   3.240
52147W        W19215  39.929   8.374  14.768
52148W        W19216   5.359  16.240  10.617
52149W        W19217  22.115  16.614   3.348
52150W        W19218  42.866  31.009   1.291
52151W        W19219  21.080  22.125  10.442
52152W        W19220  20.603  28.628   3.732
52153W        W19221  27.965  44.455   0.892
52154W        W19222   6.237   9.686   4.281
52155W        W19223  14.808   6.893  11.597
52156W        W19224   2.410   8.722  14.796
52157W        W19225   8.709  41.814   3.183
52158W        W19226  21.248   6.910   1.886
52159W        W19227  19.595  19.697   3.345
52160W        W19228   1.971  24.701  11.536
52161W        W19229   7.861  23.078   3.255
52162W        W19230  11.801  32.926  14.351
52163W        W19231  38.408  19.077  11.115
52164W        W19232  23.985   0.326  11.100
52165W        W19233  16.103  43.844  14.502
52166W        W19234   2.920   2.248   0.464
52167W        W19235  14.141  40.521   4.600
52168W        W19236  10.233  39.340  14.805
52169W        W19237  12.756  31.944   0.396
52170W        W19238  26.690  16.755  12.062
52171W        W19239  10.238  37.969  12.079
52172W        W19240  15.792  31.920  11.053
52173W        W19241  12.259  29.945  12.382
52174W        W19242   7.204  29.975  11.544
52175W        W19243  40.321  17.284  10.557
52176W        W19244  19.543  34.459   1.836
52177W        W19245  36.454   5.218  12.562
52178W        W19246  36.541  26.045   0.768
52179W        W19247  33.880   2.440  12.465
52180W        W19248  41.941   0.965  13.051
52181W        W19249  22.222  14.604   1.848
52182W        W19250  12.851   9.171  13.461
52183W        W19251  15.300  20.609  12.342
52184W        W19252  24.222  26.563   0.399
52185W        W19253  38.382  26.161   3.253
52186W        W19254  27.993  29.521  14.441
52187W        W19255  41.820  32.086   4.699
52188W        W19256  22.522  30.126   0.763
52189W        W19257  25.643  32.574  13.317
52190W        W19258   3.948   2.420   2.885
52191W        W19259  19.729  11.257  14.365
52192W        W19260   4.431   1.803   0.333
52193W        W19261   5.928  43.510  11.084
52194W        W19262   9.797  34.499   2.668
52195W        W19263  34.103  35.965  13.400
52196W        W19264  41.895  19.565  12.939
52197W        W19265  16.754   4.891  12.426
52198W        W19266  41.830  34.945   1.773
52199W        W19267  37.020  34.456   0.311
52200W        W19268   2.966  19.148   1.225
52201W        W19269  20.039   0.313   1.713
52202W        W19270   7.868   1.406  14.973
52203W        W19271  13.111  33.427  11.433
52204W        W19272  33.923  22.174  13.900
52205W        W19273  15.099  37.520  11.903
52206W        W19274  32.893  31.145   3.366
52207W        W19275  15.226  41.789   1.873
52208W        W19276  30.550  17.094  11.573
52209W        W19277  10.869  39.063  14.393
52210W        W19278  13.290   2.949  11.939
52211W        W19279  24.144  24.205  11.515
52212W        W19280  16.260  36.567  14.963
52213W        W19281  28.588  37.545  12.451
52214W        W19282  32.565  17.719   0.409
52215W        W19283  16.121  12.620  14.413
52216W        W19284  15.620  41.437   2.760
52217W        W19285  14.732  34.114   0.886
52218W        W19286  23.526  19.148  12.433
52219W        W19287  13.133  42.438  12.901
52220W        W19288  26.162  43.843  14.310
52221W        W19289  41.025  40.314   1.394
52222W        W19290  39.887  10.176   2.317
52223W        W19291  26.069  38.338   4.132
52224W        W19292  30.564   5.767   1.744
52225W        W19293  42.346  43.921   1.376
52226W        W19294  13.621  17.603  12.441
52227W        W19295  38.933   3.840   4.207
52228W        W19296  15.163  13.160   2.298
52229W        W19297  22.164   6.348   2.776
52230W        W19298   4.309  41.846   4.167
52231W        W19299  10.633  15.279  11.075
52232W        W19300  35.361  41.846  10.896
52233W        W19301  24.583   8.745  12.448
52234W        W19302  15.263  25.628  12.040
52235W        W19303  38.868  13.336  12.521
52236W        W19304  25.080  19.111   1.292
52237W        W19305   7.249   8.864   3.332
52238W        W19306  26.570   7.247  11.949
52239W        W19307  17.707   9.185  14.925
52240W        W19308  43.314  14.339   5.099
52241W        W19309  34.437  38.977   4.172
52242W        W19310   9.306   3.811   4.176
52243W        W19311  11.132  11.780  13.955
52244W        W19312  15.294  28.613   0.466
52245W        W19313  32.952  42.285  12.403
52246W        W19314  35.400  27.458   2.418
52247W        W19315  36.585  26.494  10.042
52248W        W19316  36.474  36.413   0.798
52249W        W19317  33.596  27.485  11.088
52250W        W19318   3.850  19.660  10.003
52251W        W19319   6.876  32.582   3.219
52252W        W19320   9.748  36.984  10.464
52253W        W19321   8.680  32.557  13.040
52254W        W19322  31.423  29.071   1.351
52255W        W19323   8.362  10.828  12.535
52256W        W19324  13.311  41.972  10.984
52257W        W19325  16.283  32.972  13.356
52258W        W19326   3.892  22.234   2.271
52259W        W19327  34.980  25.045  11.604
52260W        W19328  13.340   9.765  13.970
52261W        W19329  28.041  41.374   4.823
52262W        W19330   3.454  39.397  14.929
52263W        W19331  13.177  18.148  13.312
52264W        W19332   0.837  34.481  14.391
52265W        W19333  36.378  24.060  10.630
52266W        W19334  42.363  28.174   0.275
52267W        W19335  11.269  42.488  12.025
52268W        W19336  44.001  25.503   2.341
52269W        W19337   3.262  42.866   0.875
52270W        W19338  43.381  19.083  14.304
52271W        W19339  17.780  29.514  12.866
52272W        W19340  20.179  15.777   0.792
52273W        W19341  44.271  43.516  13.430
52274W        W19342  32.105  42.374   4.217
52275W        W19343   3.721  17.743  10.899
52276W        W19344  38.325  28.485  14.760
52277W        W19345  43.809  24.579  13.973
52278W        W19346  30.119   0.833   4.293
52279W        W19347   6.752   4.877   1.279
52280W        W19348  34.419  24.188   1.323
52281W        W19349  35.984  26.614   4.344
52282W        W19350  42.980   9.848   2.349
52283W        W19351  10.264  19.721  14.765
52284W        W19352  19.738   3.821  12.573
52285W        W19353   9.699  35.450   0.279
52286W        W19354  28.952  35.062  11.517
52287W        W19355  15.175  30.497   0.299
52288W        W19356  30.157  27.126   3.713
52289W        W19357   9.231  10.246  12.497
52290W        W19358  28.038  25.618   0.733
52291W        W19359  26.628   7.814  13.022
52292W        W19360   4.368  32.982  13.447
52293W        W19361  35.447  40.991   1.243
52294W        W19362   6.230  30.962  14.840
52295W        W19363  34.518  13.671  10.604
52296W        W19364  11.337  24.646  13.795
52297W        W19365  40.846  27.478  10.918
52298W        W19366  12.244   1.450   3.350
52299W        W19367  22.069  10.794  13.883
52300W        W19368   4.361  31.521   4.270
52301W        W19369  24.669  26.113  13.941
52302W        W19370  19.169   3.916   4.696
52303W        W19371   6.280  17.745  13.840
52304W        W19372  35.383  34.984   0.447
52305W        W19373  11.662   9.317   1.842
52306W        W19374   2.904  13.787  13.028
52307W        W19375   8.787  40.424   3.795
52308W        W19376   4.731  37.879  13.856
52309W        W19377  43.851  39.478  13.354
52310W        W19378   4.316  42.859   2.222
52311W        W19379   3.770  16.686  11.051
52312W        W19380   7.786  32.612   3.851
52313W        W19381  34.052  10.165  11.011
52314W        W19382  35.882  35.601   3.384
52315W        W19383  14.144  28.610  12.979
52316W        W19384  21.091  42.900   4.765
52317W        W19385  24.011  33.385  14.486
52318W        W19386  28.979  42.389   2.741
52319W        W19387  10.828  11.194   4.131
52320W        W19388   2.446  17.264  11.067
52321W        W19389  11.349  43.935   0.759
52322W        W19390   9.849  22.514  10.442
52323W        W19391   6.882  18.182   0.928
52324W        W19392  27.159  10.328  11.896
52325W        W19393  25.650  42.321  11.091
52326W        W19394  33.519  41.312   4.308
52327W        W19395   9.312  17.717  14.910
52328W        W19396  33.021  20.707   2.365
52329W        W19397   1.975   3.855  14.926
52330W        W19398   3.281  21.113   5.218
52331W        W19399  35.529  22.648   3.206
52332W        W19400  43.808  40.896   0.283
52333W        W19401  34.614  37.571  11.019
52334W        W19402  19.543  10.675  12.039
52335W        W19403   2.380  42.836  12.943
52336W        W19404   0.955  31.084  12.512
52337W        W19405  27.558  28.488   0.857
52338W        W19406  36.854  38.517  11.453
52339W        W19407  28.046  24.644  11.415
52340W        W19408  37.077  19.685  14.853
52341W        W19409  38.429  26.525   2.237
52342W        W19410  36.374  21.122   1.847
52343W        W19411  28.646  41.462   3.308
52344W        W19412  30.131  15.191  14.933
52345W        W19413  18.231  27.489  12.092
52346W        W19414  10.795   7.199  14.821
52347W        W19415  28.679  36.523   0.764
52348W        W19416   7.785  34.444   0.282
52349W        W19417  18.677  40.954   2.342
52350W        W19418  28.036  22.744  13.852
52351W        W19419  16.249  33.420   3.840
52352W        W19420  37.367  36.032   9.924
52353W        W19421  44.499  31.923   2.885
52354W        W19422  42.836  30.958  12.579
52355W        W19423   7.892  20.539  10.946
52356W        W19424  16.119  25.671   0.269
52357W        W19425  16.796   2.412   0.927
52358W        W19426   5.420   8.759  13.520
52359W        W19427  13.737  36.028   2.752
52360W        W19428   1.895  32.471  14.015
52361W        W19429  13.149  36.031   0.730
52362W        W19430   8.190  42.467   0.253
52363W        W19431   6.296  18.083  14.774
52364W        W19432   9.355   8.734  14.911
52365W        W19433  31.638  34.110   1.707
52366W        W19434  17.711  37.888   3.146
52367W        W19435   9.806  11.636  11.501
52368W        W19436   2.331  42.385   2.794
52369W        W19437   0.947  43.901   1.698
52370W        W19438  38.044  36.399  13.506
52371W        W19439  25.207  10.875   2.242
52372W        W19440  16.156  23.655   3.730
52373W        W19441   4.298  15.269  14.991
52374W        W19442  18.764  24.984  12.419
52375W        W19443  32.508  43.993  11.914
52376W        W19444  43.958  27.169   4.174
52377W        W19445   2.421  21.713   0.919
52378W        W19446   0.379  28.537  13.321
52379W        W19447  20.075  25.672   2.382
52380W        W19448  25.523  27.583  12.946
52381W        W19449  22.637  17.134   5.098
52382W        W19450  20.109  30.432  14.774
52383W        W19451  28.450  32.394  10.017
52384W        W19452  29.979  31.150  13.374
52385W        W19453   4.299  38.997  11.918
52386W        W19454  14.130  30.513   2.832
52387W        W19455  28.132   6.702  14.488
52388W        W19456   7.801   7.300  11.577
52389W        W19457  43.903   6.904  14.783
52390W        W19458  21.626  20.767   2.246
52391W        W19459  21.176  32.014   1.897
52392W        W19460  29.954   4.851  12.412
52393W        W19461  17.657  34.605  12.861
52394W        W19462  29.515  12.815  12.572
52395W        W19463  37.446  33.930  10.404
52396W        W19464  42.378  37.499  12.567
52397W        W19465  19.542  44.850   2.875
52398W        W19466   9.746  28.527   1.214
52399W        W19467  24.639  18.623  13.907
52400W        W19468  40.480  12.854  10.067
52401W        W19469  40.039  43.470  13.357
52402W        W19470  12.662   2.340   2.188
52403W        W19471   8.730   4.839   2.848
52404W        W19472  16.641  24.111  12.509
52405W        W19473  10.750   1.971  12.545
52406W        W19474  14.789  17.574  11.868
52407W        W19475   0.806  31.991   0.484
52408W        W19476  12.185   9.341   4.718
52409W        W19477  13.717  27.065  12.373
52410W        W19478  19.750   7.676  14.758
52411W        W19479  43.304  27.458  11.127
52412W        W19480   3.895  23.562  14.446
52413W        W19481  17.266   3.257  12.831
52414W        W19482   3.766  29.069   3.798
52415W        W19483  39.326  24.208   1.805
52416W        W19484  27.177  23.068  12.548
52417W        W19485  19.765   5.343   3.779
52418W        W19486   4.944  38.962   2.326
52419W        W19487  34.000   3.737   2.191
52420W        W19488   6.319   1.747  11.112
52421W        W19489  33.015   1.892  13.064
52422W        W19490  39.049   8.180   0.845
52423W        W19491  23.161  20.689   0.881
52424W        W19492  40.544  28.033  10.027
52425W        W19493  21.068  42.843  14.277
52426W        W19494  40.864  36.415   2.703
52427W        W19495  28.546  27.156   3.374
52428W        W19496  11.139  39.437  12.093
52429W        W19497   8.814  20.101  12.367
52430W        W19498  18.588  16.134  13.912
52431W        W19499  18.628  24.652   0.359
52432W        W19500   8.386   3.891   4.210
52433W        W19501  23.226  29.134  14.005
52434W        W19502  35.035  29.044   2.413
52435W        W19503  31.624  38.537  13.316
52436W        W19504  26.681  39.858  10.017
52437W        W19505  41.424  27.670   4.662
52438W        W19506   1.256  18.768  14.505
52439W        W19507  25.966  17.577  10.998
52440W        W19508  18.256  30.912   4.244
52441W        W19509  39.542   9.174  11.409
52442W        W19510  22.165  19.229   2.321
52443W        W19511   7.281  44.986   1.211
52444W        W19512  11.711  13.608   4.125
52445W        W19513  18.247   1.744  12.073
52446W        W19514  15.108   9.241  10.992
52447W        W19515  36.957  13.122  13.985
52448W        W19516   3.244  15.808  14.763
52449W        W19517  44.288  19.689   2.378
52450W        W19518   0.482  37.942  12.825
52451W        W19519  18.090  32.967   4.692
52452W        W19520  27.651  39.841   4.763
52453W        W19521  31.587   2.270   1.322
52454W        W19522  30.510  34.485   0.251
52455W        W19523   5.838  10.683  12.044
52456W        W19524  36.378   8.847  14.981
52457W        W19525  32.072  40.327   4.759
52458W        W19526  27.676  16.632  14.006
52459W        W19527  26.473  26.487   2.765
52460W        W19528  26.657  35.588  14.870
52461W        W19529  11.260  33.626  11.599
52462W        W19530  13.730  25.624  13.385
52463W        W19531  43.363   5.725   3.711
52464W        W19532  26.504  18.209  13.063
52465W        W19533  26.979  33.403   1.361
52466W        W19534  27.526   2.930  14.961
52467W        W19535   1.442  11.240   1.360
52468W        W19536  30.469  43.009   9.939
52469W        W19537  10.222  35.520   0.823
52470W        W19538   2.301  19.702  11.925
52471W        W19539  13.230  39.876  11.094
52472W        W19540  26.644  19.159   4.602
52473W        W19541  30.998  30.023   3.317
52474W        W19542  24.090  27.687   3.162
52475W        W19543   8.349  30.009  11.563
52476W        W19544   6.735   1.946   1.791
52477W        W19545  13.761  10.257   4.346
52478W        W19546  37.453  28.474   2.392
52479W        W19547  28.022  17.221   2.195
52480W        W19548  24.976  31.938  11.084
52481W        W19549  11.784  40.502   9.981
52482W        W19550  29.541  16.275  12.537
52483W        W19551  42.993  36.864  11.029
52484W        W19552  44.491   9.220   3.816
52485W        W19553   2.802  33.044   5.148
52486W        W19554  11.272  44.900  12.390
52487W        W19555  38.464  10.694  11.106
52488W        W19556  23.205  30.105  14.009
52489W        W19557  43.346  11.274  14.809
52490W        W19558  24.084  20.743  13.993
52491W        W19559  31.579  41.848  14.904
52492W        W19560  16.627  44.808   1.251
52493W        W19561  21.227  36.502  13.450
52494W        W19562  14.189   2.803  12.442
52495W        W19563  21.245  25.119   4.215
52496W        W19564  38.440  15.166   0.927
52497W        W19565   9.730  21.139   1.921
52498W        W19566   9.378   1.793   2.884
52499W        W19567  41.849  34.913   4.749
52500W        W19568  33.082  29.433   3.253
52501W        W19569   3.940  37.541  12.982
52502W        W19570  36.484  15.648   2.723
52503W        W19571  18.257  16.745   0.477
52504W        W19572   3.720  30.907   0.355
52505W        W19573  44.279  23.705  11.599
52506W        W19574  15.689  19.725   5.197
52507W        W19575  43.867  11.747  11.603
52508W        W19576  25.099  12.189  12.823
52509W        W19577  35.960   1.388  10.527
52510W        W19578  42.445  24.622  12.952
52511W        W19579  25.700  29.067   0.910
52512W        W19580  16.762   8.187   2.406
52513W        W19581   6.209   8.198  10.038
52514W        W19582   5.291   9.376   0.465
52515W        W19583  39.432  12.797   3.164
52516W        W19584  29.429  13.739  12.007
52517W        W19585  44.340  39.856   2.664
52518W        W19586  32.537   8.269   0.757
52519W        W19587  20.240  34.982  11.584
52520W        W19588  27.185   2.922   3.325
52521W        W19589  12.791  12.268  12.466
52522W        W19590  20.534  25.533   1.909
52523W        W19591  17.668  42.504  13.335
52524W        W19592   0.805  25.139  14.356
52525W        W19593  32.415  43.893   0.330
52526W        W19594  18.195  20.570  13.379
52527W        W19595  19.538  35.939   4.223
52528W        W19596  43.390  30.575  14.382
52529W        W19597  11.797  10.781   3.641
52530W        W19598  31.561  44.504  11.391
52531W        W19599  15.741   3.349  11.467
52532W        W19600  31.941  13.196   0.815
52533W        W19601  34.992   7.274   3.830
52534W        W19602   8.759  12.625   3.809
52535W        W19603  37.376  40.466   1.329
52536W        W19604  30.128  35.958  11.604
52537W        W19605   6.738  23.182  12.398
52538W        W19606  39.408  28.106  13.519
52539W        W19607   3.746   0.763  12.011
52540W        W19608  35.920  27.063   4.214
52541W        W19609  31.134   8.805   4.703
52542W        W19610  26.680  32.982   3.812
52543W        W19611   3.217  19.776  11.987
52544W        W19612  17.574   2.893  13.052
52545W        W19613  21.595  44.884   1.839
52546W        W19614  33.439  12.826  13.505
52547W        W19615  38.819  33.448   0.282
52548W        W19616  43.826  34.087   9.975
52549W        W19617  33.109   8.872  13.798
52550W        W19618  18.237  21.699   2.749
52551W        W19619   0.984  39.437  11.099
52552W        W19620  17.117  26.983  14.903
52553W        W19621  29.547   9.346  14.962
52554W        W19622  43.445  20.104   1.442
52555W        W19623  43.295   9.766  14.012
52556W        W19624  34.921  42.355  12.855
52557W        W19625  20.580  11.356   1.247
52558W        W19626  34.506  37.338   2.788
52559W        W19627  29.667  23.021  13.428
52560W        W19628  37.400   8.725  11.078
52561W        W19629  32.537  36.068   5.307
52562W        W19630   3.357   8.883   1.832
52563W        W19631   7.809  39.990   4.146
52564W        W19632   8.231  34.014  11.563
52565W        W19633   0.830  38.956  14.337
52566W        W19634  20.556   2.819  14.453
52567W        W19635   4.409  12.120   1.391
52568W        W19636  12.362   3.834   0.861
52569W        W19637  34.980  25.136   5.204
52570W        W19638  24.020  18.061  14.967
52571W        W19639   2.272  20.530  13.886
52572W        W19640  31.620  31.114  11.065
52573W        W19641  39.440   6.702   1.710
52574W        W19642  40.949  17.196   4.122
52575W        W19643  44.406  11.364   1.399
52576W        W19644  34.523  43.990   2.395
52577W        W19645  10.371  26.503   3.839
52578W        W19646   7.274  43.998  11.585
52579W        W19647  30.512   6.807   4.635
52580W        W19648  40.314  38.481   4.338
52581W        W19649  30.074   5.383  14.405
52582W        W19650   7.905  23.013  13.982
52583W        W19651  42.312  38.906   0.927
52584W        W19652  26.629  40.352   3.242
52585W        W19653  34.523  18.560  12.961
52586W        W19654   6.247  37.855  12.467
52587W        W19655  36.397   0.492   1.889
52588W        W19656  28.626   6.194  10.943
52589W        W19657   7.773  22.998   1.914
52590W        W19658  24.635  34.614  14.952
52591W        W19659  44.504   9.262  11.923
52592W        W19660  13.281  12.799  10.005
52593W        W19661  13.340  19.108  12.491
52594W        W19662  27.458   4.322   4.347
52595W        W19663  19.751  20.671  14.496
52596W        W19664  11.324  29.485  13.326
52597W        W19665  12.693  38.995   3.841
52598W        W19666  18.781  11.689  10.949
52599W        W19667  28.970  33.925   0.909
52600W        W19668  38.503   6.253  12.563
52601W        W19669  15.731  39.970   4.694
52602W        W19670  43.303  10.646   2.384
52603W        W19671  18.637  18.105   4.286
52604W        W19672  29.143   1.924  12.391
52605W        W19673  26.562  35.463   5.216
52606W        W19674  11.354  40.825   3.178
52607W        W19675  24.185   2.407   0.297
52608W        W19676  13.261   5.242  12.578
52609W        W19677  41.515  30.599  11.461
52610W        W19678   2.339  29.099   2.823
52611W        W19679   9.878   9.256   2.386
52612W        W19680  37.920  16.783   3.830
52613W        W19681  30.547  21.068  11.524
52614W        W19682  15.303   7.856   4.282
52615W        W19683   4.757  11.140  11.884
52616W        W19684   5.335   9.700  12.871
52617W        W19685   7.318  32.450  11.080
52618W        W19686  37.025  12.333  13.046
52619W        W19687  44.786  11.725   2.892
52620W        W19688   0.397   4.237  10.923
52621W        W19689  12.329  24.046  12.396
52622W        W19690  40.916  29.968   0.758
52623W        W19691  17.676   2.370   0.361
52624W        W19692  14.267  23.723   3.253
52625W        W19693  14.296  20.582   4.729
52626W        W19694   7.671   5.703  14.828
52627W        W19695  39.897  30.540  10.974
52628W        W19696   6.753  37.067  10.506
52629W        W19697  11.718  15.765   4.647
52630W        W19698  44.505   2.447  10.947
52631W        W19699   9.867  37.975   0.726
52632W        W19700  43.924  30.969   4.131
52633W        W19701  36.397   9.274  14.416
52634W        W19702  19.545  26.181   2.382
52635W        W19703   7.369  29.486  11.949
52636W        W19704  21.672  44.459  12.006
52637W        W19705  11.366  37.955   2.208
52638W        W19706  36.886  24.507  12.013
52639W        W19707  11.368  24.137   0.898
52640W        W19708  28.106  11.729   3.376
52641W        W19709  30.103  44.496  14.831
52642W        W19710   4.895   7.390   4.278
52643W        W19711  34.426  25.500   3.657
52644W        W19712   5.798  27.044   1.714
52645W        W19713  14.244  33.029  14.339
52646W        W19714  20.125  29.928  10.906
52647W        W19715   8.165   7.352   1.747
52648W        W19716  14.672  13.694   4.781
52649W        W19717  40.800  22.087  10.633
52650W        W19718   2.288  37.466   1.437
52651W        W19719  23.989   2.346   2.757
52652W        W19720  16.190  13.139  12.443
52653W        W19721  23.240  26.038   1.711
52654W        W19722  24.537  36.049   2.877
52655W        W19723  25.654  14.735   1.868
52656W        W19724  43.442   4.851   4.205
52657W        W19725   9.710  12.756   4.778
52658W        W19726  32.027  41.808  10.975
52659W        W19727  27.948   3.217   0.308
52660W        W19728  31.991   5.931  11.405
52661W        W19729   8.710  18.059  14.463
52662W        W19730  23.557   6.688   2.851
52663W        W19731  37.931  33.032  11.387
52664W        W19732  36.389  10.821  10.903
52665W        W19733   7.251   4.892  11.502
52666W        W19734  36.082  41.417  11.962
52667W        W19735  27.501  26.964  14.953
52668W        W19736  25.966  22.556   0.813
52669W        W19737   3.902  30.908   3.148
52670W        W19738  35.422  28.946  10.457
52671W        W19739  21.129  38.036  14.002
52672W        W19740  15.765   4.887   0.375
52673W        W19741  19.137  27.690   1.416
52674W        W19742  17.640   9.199   1.243
52675W        W19743  14.654  16.625   4.117
52676W        W19744  22.079   5.747  13.928
52677W        W19745  38.345  38.495   2.196
52678W        W19746  25.624  11.849   4.207
52679W        W19747   2.779  13.820   3.186
52680W        W19748  27.584  33.096  13.387
52681W        W19749  21.576  35.020  14.512
52682W        W19750   5.302   6.902  12.565
52683W        W19751  39.977  14.301  12.914
52684W        W19752   6.821  13.307  13.795
52685W        W19753  27.626  13.648   0.281
52686W        W19754  15.207  27.007  13.456
52687W        W19755  34.036  38.028   1.426
52688W        W19756   6.382  43.889  13.436
52689W        W19757  11.328  30.575   4.343
52690W        W19758  24.213  25.514   4.829
52691W        W19759  18.193  30.104   1.290
52692W        W19760  15.138  32.601   1.349
52693W        W19761  40.808  22.145   2.778
52694W        W19762  18.676  19.095  12.934
52695W        W19763   8.659  12.131   3.229
52696W        W19764   6.780  11.781  14.838
52697W        W19765   8.271  39.359   4.314
52698W        W19766   5.780   5.344   0.819
52699W        W19767  21.018  29.991  13.872
52700W        W19768  28.681   5.819  11.582
52701W        W19769   2.424   1.327   2.862
52702W        W19770  14.113  24.660   3.733
52703W        W19771  35.402  44.818   4.735
52704W        W19772  29.640  43.374  12.848
52705W        W19773  19.210  12.793   3.688
52706W        W19774  32.440  25.707   2.364
52707W        W19775  28.943  19.563  14.494
52708W        W19776  15.671  10.715  13.349
52709W        W19777  31.560  19.123   0.839
52710W        W19778  17.129  17.724  12.968
52711W        W19779  10.653  19.568   1.285
52712W        W19780  31.998  41.400  10.088
52713W        W19781  13.766  38.062   2.758
52714W        W19782   7.680   5.343   0.303
52715W        W19783  33.468  36.542   0.859
52716W        W19784  18.753  36.518  14.479
52717W        W19785   2.957  16.171   4.254
52718W        W19786  16.609  14.306   1.323
52719W        W19787  43.271  13.268  10.599
52720W        W19788  20.124   1.881  11.078
52721W        W19789  11.761  14.249  10.418
52722W        W19790  27.671  35.010   4.678
52723W        W19791  29.536  29.054  14.934
52724W        W19792  42.008   8.748  10.035
52725W        W19793   2.733  44.792  14.324
52726W        W19794  34.985  26.602   3.308
52727W        W19795  28.955  31.525   0.782
52728W        W19796  44.945  12.688   3.742
52729W        W19797   0.274  41.834  13.857
52730W        W19798  12.752  21.598  14.958
52731W        W19799   1.365   9.321   3.797
52732W        W19800  33.597  16.185   4.644
52733W        W19801  36.907  34.056   1.338
52734W        W19802   9.249  16.706   1.707
52735W        W19803  31.145  19.249   0.380
52736W        W19804  23.153  17.599   2.896
52737W        W19805  12.636  22.151   1.917
52738W        W19806  11.672  24.627   2.798
52739W        W19807  42.005  19.111  12.915
52740W        W19808  12.144   0.936  10.928
52741W        W19809  19.238  22.554   1.848
52742W        W19810  40.815   0.252   4.696
52743W        W19811  26.521  12.703   4.296
52744W        W19812  23.533  10.666   3.348
52745W        W19813  32.577   8.757  11.082
52746W        W19814   4.212  10.163   1.365
52747W        W19815  15.301   5.400  11.546
52748W        W19816   3.224  40.367  13.946
52749W        W19817  24.013   3.918  13.846
52750W        W19818   7.733  30.536   2.338
52751W        W19819   1.800   9.764  12.979
52752W        W19820  42.969  41.527  10.066
52753W        W19821  11.335  44.272   0.825
52754W        W19822  12.260  32.889  13.903
52755W        W19823  13.344  28.537   3.650
52756W        W19824  24.481  12.677   0.895
52757W        W19825  14.726  23.702  11.018
52758W        W19826   4.399   2.269   0.917
52759W        W19827  28.113  23.513  14.891
52760W        W19828  39.970   8.680  10.643
52761W        W19829  14.209  26.043  11.951
52762W        W19830   5.415  15.127  12.380
52763W        W19831   0.483   3.954   1.330
52764W        W19832  14.617  20.137  14.845
52765W        W19833  39.923  44.927   3.702
52766W        W19834  34.612   7.311  12.959
52767W        W19835  39.001  40.391   3.158
52768W        W19836   4.290  23.092  12.507
52769W        W19837   7.336  18.157  13.509
52770W        W19838   8.785  30.953  11.105
52771W        W19839  20.612  25.519   0.947
52772W        W19840  14.204  17.622  12.966
52773W        W19841  20.123   7.192  12.473
52774W        W19842   7.207  29.542  14.015
52775W        W19843   2.819  40.311   0.298
52776W        W19844  23.572   0.767   2.876
52777W        W19845   4.862  25.609  12.874
52778W        W19846  13.257   3.251  12.859
52779W        W19847  35.924  11.224   2.798
52780W        W19848  23.720   9.369   2.670
52781W        W19849  26.631  24.212   0.927
52782W        W19850  44.467  10.187   1.395
52783W        W19851  37.931  23.646   0.929
52784W        W19852  42.940  40.464  14.352
52785W        W19853  22.048   2.750   2.208
52786W        W19854  29.101  11.689  14.429
52787W        W19855   4.211  30.121  10.507
52788W        W19856   7.216  34.425   2.783
52789W        W19857  38.327   4.908   3.689
52790W        W19858  36.886  30.068   1.363
52791W        W19859  41.369  11.690   3.215
52792W        W19860  13.786  19.616  10.529
52793W        W19861  38.534  42.390  11.393
52794W        W19862  28.574   1.415   1.716
52795W        W19863   6.343  18.232   1.333
52796W        W19864   1.904  31.131  13.481
52797W        W19865   6.719  40.328  11.564
52798W        W19866  31.557   9.187   3.163
52799W        W19867  24.222  31.490   3.213
52800W        W19868  21.192  12.791   0.275
52801W        W19869  13.116  14.291   1.915
52802W        W19870   8.244   7.191  12.053
52803W        W19871   8.809  26.051   1.704
52804W        W19872  37.423  32.070  14.339
52805W        W19873  19.589  33.968  13.983
52806W        W19874  16.681   2.450   4.114
52807W        W19875  32.098  29.541  11.397
52808W        W19876   9.381  40.960  13.012
52809W        W19877  22.083  42.980  13.439
52810W        W19878  15.110   6.700  10.486
52811W        W19879  13.633  33.054  14.287
52812W        W19880  29.138  28.581  14.495
52813W        W19881   1.778  40.890  10.545
52814W        W19882   7.854  31.915   3.731
52815W        W19883  34.102  12.829   0.432
52816W        W19884  40.436   5.827  14.304
52817W        W19885  34.489   3.304  12.006
52818W        W19886   5.348  37.409   1.242
52819W        W19887  36.915  28.552  14.809
52820W        W19888  39.489  22.184   3.737
52821W        W19889  28.094   5.779   2.878
52822W        W19890   1.762  27.129   1.348
52823W        W19891   1.795  25.082  12.466
52824W        W19892  29.488  30.028  13.958
52825W        W19893  21.715  18.216  11.503
52826W        W19894  37.438  14.238   0.409
52827W        W19895  15.324   0.784  12.870
52828W        W19896   8.163  15.626  14.419
52829W        W19897  31.995   5.339   3.293
52830W        W19898  13.603  40.359  10.489
52831W        W19899  34.047  10.244  14.480
52832W        W19900   5.218   7.902  10.996
52833W        W19901  12.238  12.849  12.014
52834W        W19902  15.214  39.365  10.560
52835W        W19903  12.612   9.813  11.426
52836W        W19904  14.294   7.734   3.240
52837W        W19905  41.044   0.298   3.181
52838W        W19906   2.439  22.547  14.021
52839W        W19907  28.556  30.006  11.942
52840W        W19908  15.799  43.846  14.866
52841W        W19909  19.540   8.755   3.857
52842W        W19910  17.073  20.038   0.459
52843W        W19911  22.110  24.561  13.988
52844W        W19912  30.451  44.382   3.163
52845W        W19913  16.807  41.305   2.726
52846W        W19914  42.446  27.983  10.458
52847W        W19915   8.323   5.237  13.476
52848W        W19916  24.091   4.220   0.242
52849W        W19917  36.941   7.205   4.810
52850W        W19918  43.826  32.410   4.660
52851W        W19919  23.558   7.847  12.003
52852W        W19920   7.775  20.028  14.777
52853W        W19921  35.103  36.873   0.946
52854W        W19922  15.603  19.098   5.307
52855W        W19923  20.254  18.281   0.248
52856W        W19924   3.731  37.891   1.279
52857W        W19925  11.662  24.022   0.838
52858W        W19926   3.842  29.041   5.242
52859W        W19927  17.657  21.133   0.826
52860W        W19928  22.187  24.494   0.937
52861W        W19929  17.255   3.284  14.372
52862W        W19930  20.267   2.768  14.863
52863W        W19931   7.887  11.296   4.229
52864W        W19932  11.343  34.502   0.257
52865W        W19933   9.221   8.771  10.641
52866W        W19934  27.618  21.521   4.129
52867W        W19935  17.211   6.334   2.874
52868W        W19936   6.894  15.639   4.745
52869W        W19937  16.146  11.645  11.446
52870W        W19938   3.219  10.364   1.926
52871W        W19939  15.100   7.908   0.846
52872W        W19940  32.038   8.671  14.769
52873W        W19941  21.741  34.096   1.289
52874W        W19942  28.020   0.473  11.402
52875W        W19943  12.613   6.309   4.717
52876W        W19944  32.948  31.984   3.273
52877W        W19945   8.824  29.158  12.578
52878W        W19946  33.453   7.231  11.448
52879W        W19947  23.715  44.825  10.524
52880W        W19948  35.414  19.612   4.755
52881W        W19949   9.877   1.752  12.895
52882W        W19950  27.562  31.122  11.900
52883W        W19951  22.531  21.116  14.401
52884W        W19952  11.738  34.036  11.534
52885W        W19953  19.085  24.485   1.727
52886W        W19954  22.574  38.831   1.846
52887W        W19955   2.255  35.009   3.151
52888W        W19956  23.193   6.771   1.225
52889W        W19957  28.569  25.635   2.364
52890W        W19958  14.173  41.021   2.892
52891W        W19959  27.066   8.670   2.870
52892W        W19960   2.871  11.853   1.921
52893W        W19961  44.974  25.044   4.743
52894W        W19962  21.757  32.886   3.177
52895W        W19963  44.801  17.608  14.872
52896W        W19964  39.450  18.275  13.376
52897W        W19965  25.049   9.341   0.335
52898W        W19966  15.634  30.433   1.774
52899W        W19967  16.151   2.310   4.617
52900W        W19968   7.683  28.174  11.100
52901W        W19969  20.760  16.736   2.717
52902W        W19970  21.690   0.493   0.856
52903W        W19971   4.928  30.492   2.297
52904W        W19972  38.991  12.788  14.784
52905W        W19973  33.102  42.291   2.209
52906W        W19974  32.139  31.010   0.397
52907W        W19975  42.937  14.682   0.737
52908W        W19976  15.583   8.217  12.380
52909W        W19977   6.272  23.577   2.712
52910W        W19978   1.469   9.764  14.909
52911W        W19979  44.837  13.604  14.898
52912W        W19980  11.295  24.083   4.829
52913W        W19981  27.037  23.523   3.222
52914W        W19982   7.692   8.713   2.707
52915W        W19983  30.017   3.902  10.577
52916W        W19984  11.171  25.528  13.948
52917W        W19985  36.490  28.601   2.417
52918W        W19986   8.368  28.959   3.239
52919W        W19987   4.408  37.395   4.125
52920W        W19988  41.002  16.126  13.927
52921W        W19989  24.602   9.174  14.997
52922W        W19990  11.192  43.897   4.736
52923W        W19991  37.909  41.042  11.086
52924W        W19992  31.083  42.892   0.315
52925W        W19993  19.579  24.101  14.939
52926W        W19994  21.630  41.353  12.065
52927W        W19995  44.300  33.913   1.338
52928W        W19996   0.850  10.325   5.104
52929W        W19997  16.089  42.293   4.211
52930W        W19998   3.331   0.257   3.683
52931W        W19999  10.341   8.354  10.931
52932W        W20000  41.796  24.636  14.326
52933W        W20001  21.655  15.126  11.899
52934W        W20002  40.512  20.109   1.918
52935W        W20003  16.187  36.005   0.378
52936W        W20004  16.169  43.874   1.776
52937W        W20005  32.533   8.214   4.773
52938W        W20006   1.399  37.518   1.340
52939W        W20007  34.427  35.041  13.420
52940W        W20008   7.358   3.764   4.128
52941W        W20009   4.767  38.054   4.116
52942W        W20010  18.684  37.915   4.699
52943W        W20011  15.744  31.449   4.807
52944W        W20012   9.674  14.670  11.906
52945W        W20013   4.245  43.794  11.507
52946W        W20014  43.858   3.743  13.453
52947W        W20015   8.877  12.325  13.049
52948W        W20016  43.873  22.205   0.772
52949W        W20017  20.095  22.206   2.210
52950W        W20018   1.382  17.586  12.504
52951W        W20019  18.060  20.059  10.039
52952W        W20020  16.180  35.930   3.219
52953W        W20021  34.987  30.047  10.924
52954W        W20022  23.595  25.161  13.043
52955W        W20023  23.992  31.927   1.868
52956W        W20024  26.659  32.436   4.154
52957W        W20025  37.078  39.433   4.138
52958W        W20026   5.421  16.241  13.422
52959W        W20027  24.048   4.929  14.486
52960W        W20028  43.941  20.093   4.256
52961W        W20029   4.347  11.814  12.537
52962W        W20030  23.004  37.085  12.092
52963W        W20031   9.733   2.790   2.835
52964W        W20032  12.615  43.406   1.911
52965W        W20033   5.823  36.564   0.387
52966W        W20034  23.093  12.839   3.801
52967W        W20035   5.849  37.896   0.426
52968W        W20036  11.805  44.957   0.736
52969W        W20037  26.199   2.743   1.894
52970W        W20038   2.230  15.725  13.975
52971W        W20039  10.838  18.704  13.006
52972W        W20040   2.373  23.142   4.644
52973W        W20041  26.658   4.749   4.800
52974W        W20042  15.302  39.486   3.633
52975W        W20043  23.174   4.800  10.476
52976W        W20044  44.423   7.357   4.157
52977W        W20045  27.666  33.389   0.894
52978W        W20046  31.608  30.942  11.950
52979W        W20047  24.047  29.973   4.302
52980W        W20048  44.007  34.067   1.720
52981W        W20049  34.542  15.153   1.900
52982W        W20050  19.108   7.877  11.014
52983W        W20051  28.095  15.221   3.214
52984W        W20052  22.609  39.987  12.908
52985W        W20053  14.788   7.216   0.839
52986W        W20054   4.218  12.802   2.825
52987W        W20055  16.312   2.836   0.797
52988W        W20056   4.261   9.874  10.553
52989W        W20057  16.091   8.365   2.212
52990W        W20058  36.554   2.785  11.050
52991W        W20059   6.229  31.546  10.626
52992W        W20060  12.656  34.923  10.416
52993W        W20061  23.006  42.966   0.394
52994W        W20062  23.631  37.567   1.908
52995W        W20063  27.495  11.642  14.919
52996W        W20064  13.185  24.219   0.395
52997W        W20065  40.902  27.094  11.511
52998W        W20066  15.283  28.953  13.865
52999W        W20067   4.901   2.816   4.727
53000W        W20068  23.238  11.317  11.570
53001W        W20069  39.824  28.525   2.840
53002W        W20070   0.362  25.634   4.629
53003W        W20071  23.698  14.648  13.528
53004W        W20072  31.017   3.275  12.484
53005W        W20073  19.634  31.559   2.238
53006W        W20074   2.740  33.454  11.967
53007W        W20075  20.102  11.176  10.994
53008W        W20076  15.695  26.033  14.903
53009W        W20077  22.210  24.541  13.464
53010W        W20078  43.360  17.158   1.252
53011W        W20079  42.401  18.198   0.280
53012W        W20080   2.901  22.629   2.711
53013W        W20081  44.987  13.727  12.992
53014W        W20082   4.304  15.595   3.647
53015W        W20083  18.716  41.853   3.770
53016W        W20084   3.911   2.941  13.350
53017W        W20085  40.506  37.519  12.435
53018W        W20086  20.082  21.177   9.936
53019W        W20087   6.861  19.107  11.857
53020W        W20088  39.482   0.808  11.497
53021W        W20089   7.375  30.438  10.633
53022W        W20090  36.953  27.975  10.963
53023W        W20091  11.725   2.345  14.319
53024W        W20092  44.865  14.738  14.501
53025W        W20093  27.600  38.549   1.712
53026W        W20094  20.209  12.837  10.910
53027W        W20095  14.597  20.049  13.524
53028W        W20096  21.713  33.916  11.525
53029W        W20097  30.417  41.998   3.287
53030W        W20098  37.399  16.604  10.951
53031W        W20099   7.278  28.635   1.773
53032W        W20100  40.964  14.230   0.356
53033W        W20101   4.849   3.927   3.312
53034W        W20102   7.176  42.929  11.060
53035W        W20103  25.482  36.850   0.352
53036W        W20104  35.944   9.168  13.911
53037W        W20105  31.466  16.631  14.841
53038W        W20106  15.793  19.678   9.637
53039W        W20107  41.939  14.829   2.415
53040W        W20108  17.740  32.952  11.904
53041W        W20109   2.815  43.425   3.276
53042W        W20110  11.643  26.060  11.963
53043W        W20111  41.921  42.414   2.788
53044W        W20112  13.617  30.568   4.182
53045W        W20113  26.538  41.427  13.339
53046W        W20114   5.358  35.357   1.250
53047W        W20115   3.859  27.969   2.349
53048W        W20116  34.393  28.143  10.505
53049W        W20117  31.999  43.316  11.544
53050W        W20118  19.551  11.625   4.829
53051W        W20119  40.942   2.308  13.054
53052W        W20120  35.896  34.876   1.850
53053W        W20121  28.621  27.106  12.353
53054W        W20122  41.787  28.648   4.668
53055W        W20123  13.684  36.463   4.696
53056W        W20124  15.145   5.732   0.455
53057W        W20125  14.206  26.559   2.259
53058W        W20126  44.347  23.165   4.649
53059W        W20127  14.748  11.715   0.399
53060W        W20128  32.048  33.446   2.845
53061W        W20129  38.005  23.136   1.859
53062W        W20130  34.081  33.493   3.290
53063W        W20131  21.729  24.115   1.757
53064W        W20132  42.404  25.644   4.195
53065W        W20133  25.092  12.332   2.179
53066W        W20134  35.975  32.957  11.044
53067W        W20135  35.861  31.112   1.321
53068W        W20136  19.620  17.797   0.367
53069W        W20137  43.020  20.104  11.445
53070W        W20138  40.049  13.350  13.463
53071W        W20139  12.323  26.992  13.865
53072W        W20140  38.395   1.311   1.249
53073W        W20141  28.025  39.466   1.906
53074W        W20142  25.697   8.185  12.828
53075W        W20143  13.728   9.684   0.414
53076W        W20144  14.188  40.864  12.049
53077W        W20145  42.029  35.992   1.906
53078W        W20146  11.287  37.080  13.451
53079W        W20147  14.722   6.338   0.859
53080W        W20148  44.379  25.186   1.932
53081W        W20149  43.486  11.219  13.960
53082W        W20150   1.475  40.360  14.801
53083W        W20151  13.807   1.975  11.110
53084W        W20152   8.196   0.957  14.385
53085W        W20153   3.397  29.145   1.909
53086W        W20154  20.545  12.168   4.692
53087W        W20155  35.493  37.453  11.480
53088W        W20156  41.944  30.623  12.918
53089W        W20157   8.372   4.221  13.367
53090W        W20158  15.166  40.434   1.410
53091W        W20159   9.838  36.029   2.251
53092W        W20160   2.272  16.166  11.012
53093W        W20161   6.680   7.354   2.739
53094W        W20162  11.286  19.663  12.954
53095W        W20163  33.516  10.717  14.355
53096W        W20164  37.419  42.413   4.663
53097W        W20165  17.183  11.173   0.272
53098W        W20166  36.969  23.231   4.242
53099W        W20167  32.436  31.137   4.735
53100W        W20168  20.094  24.188   3.687
53101W        W20169  20.258   3.369  13.015
53102W        W20170   9.277  35.900   3.226
53103W        W20171  28.993  24.719   4.703
53104W        W20172  24.162  31.443   4.824
53105W        W20173  19.095  27.081  10.465
53106W        W20174  17.064   9.321   0.423
53107W        W20175  42.498  35.096   1.346
53108W        W20176   8.338  42.794  11.011
53109W        W20177  44.848   6.806  12.888
53110W        W20178  35.919  34.593  10.471
53111W        W20179   5.769  32.591  11.557
53112W        W20180  12.623  36.454  10.909
53113W        W20181  19.228  13.323   2.715
53114W        W20182  22.095  42.005   4.342
53115W        W20183  16.641  17.578   4.653
53116W        W20184   6.338   0.278  13.336
53117W        W20185  25.066   2.416   4.152
53118W        W20186  25.064  15.667   4.154
53119W        W20187  31.102  40.858   2.360
53120W        W20188  41.428   7.749  14.865
53121W        W20189  30.913  30.628  14.942
53122W        W20190  28.948  35.033   5.760
53123W        W20191  37.904  13.717   2.668
53124W        W20192   9.238  10.850  14.804
53125W        W20193  42.504  29.992  13.334
53126W        W20194  36.515  22.063  14.866
53127W        W20195  16.304  42.945   0.479
53128W        W20196  34.872  29.979   0.785
53129W        W20197  37.973   0.756  14.481
53130W        W20198  28.171  20.118  11.112
53131W        W20199  20.268  44.265  14.006
53132W        W20200  43.768  20.730   1.421
53133W        W20201  43.354   9.888  11.118
53134W        W20202   9.705  28.938  14.803
53135W        W20203  28.085  19.044   2.711
53136W        W20204   5.839  38.992  13.974
53137W        W20205  43.990  37.839  12.546
53138W        W20206  10.672  41.467  12.953
53139W        W20207  34.032  42.361   2.815
53140W        W20208   2.794  19.165  13.325
53141W        W20209  33.937   9.757  12.340
53142W        W20210  31.050   5.292  12.480
53143W        W20211   0.827  39.549   3.864
53144W        W20212  32.034  23.098   5.227
53145W        W20213   6.914  11.706  12.487
53146W        W20214   8.212  27.982  14.779
53147W        W20215  17.694  28.089   5.319
53148W        W20216   0.917  34.036  10.917
53149W        W20217  19.162  12.142   1.862
53150W        W20218  36.507  38.894   0.442
53151W        W20219  42.482   6.381   4.601
53152W        W20220  43.779   3.840  12.987
53153W        W20221  16.153   5.289  14.511
53154W        W20222   6.188  32.142  13.008
53155W        W20223   2.882  11.298  12.527
53156W        W20224  37.437  20.139   3.154
53157W        W20225   2.800  19.770   4.767
53158W        W20226   3.299  43.849  13.310
53159W        W20227   0.953  38.474  12.507
53160W        W20228  22.117  16.767  12.956
53161W        W20229  26.131  21.146   4.826
53162W        W20230  36.043   3.288  12.076
53163W        W20231  40.824  11.333   4.664
53164W        W20232  25.559  36.585  11.112
53165W        W20233   3.457  34.110   1.926
53166W        W20234  23.518  33.483   3.654
53167W        W20235  39.024  41.807  14.922
53168W        W20236  29.495   8.319   1.710
53169W        W20237  21.052  17.762  11.931
53170W        W20238   8.792  24.536   2.706
53171W        W20239  25.193  41.399   2.251
53172W        W20240  33.112   3.228  10.934
53173W        W20241  18.067  33.924  11.407
53174W        W20242   4.739  18.545   2.355
53175W        W20243   2.955  41.310  13.965
53176W        W20244  39.812  24.229  13.007
53177W        W20245  40.396  13.325  14.833
53178W        W20246  44.499  17.563   0.304
53179W        W20247   0.965  33.130   0.422
53180W        W20248  32.010   9.235  13.972
53181W        W20249  28.583  21.209   1.410
53182W        W20250  36.522   8.286   0.464
53183W        W20251  20.249  41.874  12.868
53184W        W20252  22.564   5.715   4.642
53185W        W20253   4.798  27.076  14.972
53186W        W20254  21.129  30.003   1.407
53187W        W20255  19.229  34.919   4.820
53188W        W20256  42.990   9.714  14.859
53189W        W20257  19.756   8.660   3.382
53190W        W20258  17.750  24.182   1.700
53191W        W20259  24.163   2.913   1.861
53192W        W20260  30.618  40.532   0.432
53193W        W20261  41.510   8.305   2.800
53194W        W20262   8.198  44.426  14.382
53195W        W20263  38.556  25.557   0.829
53196W        W20264   4.780  31.576  11.495
53197W        W20265  26.519  37.922   4.629
53198W        W20266  33.563   1.455   2.781
53199W        W20267  35.912  41.877   2.305
53200W        W20268  37.918  19.048  10.625
53201W        W20269  40.835  13.643   4.127
53202W        W20270   6.293  13.282  11.019
53203W        W20271  31.560  43.492   4.648
53204W        W20272  29.630  32.044   1.432
53205W        W20273  10.765  20.545   1.424
53206W        W20274  29.119  33.614  14.786
53207W        W20275  44.407  27.623   2.266
53208W        W20276  40.513  40.044  13.329
53209W        W20277   9.238  32.055   0.751
53210W        W20278  24.062   6.257   9.988
53211W        W20279  28.065  26.480   4.173
53212W        W20280   2.782  40.799  12.424
53213W        W20281  42.889  18.083  11.918
53214W        W20282  11.353  17.678  11.389
53215W        W20283   3.237  21.744   0.320
53216W        W20284  28.019  26.080  10.424
53217W        W20285  17.737   0.969   0.787
53218W        W20286  44.993  32.009  12.500
53219W        W20287   8.728   5.202   2.266
53220W        W20288   0.855  17.117   1.311
53221W        W20289   1.782   2.804  10.422
53222W        W20290  19.279  15.107  14.368
53223W        W20291  13.642  37.485   0.963
53224W        W20292  12.627  19.071   0.879
53225W        W20293  43.374  38.881   1.330
53226W        W20294  11.163  20.055  12.423
53227W        W20295  42.328  22.180  10.901
53228W        W20296  13.738   2.281  12.856
53229W        W20297  41.473  18.785  12.828
53230W        W20298  23.669  20.251   1.862
53231W        W20299  18.052   5.258  11.960
53232W        W20300  12.737  40.486  12.477
53233W        W20301   7.699  32.887  11.128
53234W        W20302  32.070  12.826   1.286
53235W        W20303   1.742   3.837  11.961
53236W        W20304  21.210  22.747   2.360
53237W        W20305  36.466  20.752  14.441
53238W        W20306  27.666  21.175   2.195
53239W        W20307   9.783   5.337  13.857
53240W        W20308  38.062  14.208   4.301
53241W        W20309  33.083   8.699  14.513
53242W        W20310   1.251  12.610   3.658
53243W        W20311  43.947  15.711  14.445
53244W        W20312   4.230  40.835  12.926
53245W        W20313  30.451  28.967  12.382
53246W        W20314  17.159   7.297   3.249
53247W        W20315  26.125  21.181   2.381
53248W        W20316  13.335  26.060  11.458
53249W        W20317  32.994  31.487   3.815
53250W        W20318  28.003  25.139  12.574
53251W        W20319   4.450  35.442  14.365
53252W        W20320  10.652  10.382   0.784
53253W        W20321   9.730  41.465   4.174
53254W        W20322   6.717  10.354   3.383
53255W        W20323   4.253  25.081  12.454
53256W        W20324  13.717  17.797   4.205
53257W        W20325   2.289  12.727   3.358
53258W        W20326  28.532   9.163   1.912
53259W        W20327   0.402   6.848  12.996
53260W        W20328  26.997  24.492  14.471
53261W        W20329  25.980  25.687  12.558
53262W        W20330  33.605  44.921   3.656
53263W        W20331   3.406   1.410  12.833
53264W        W20332  29.574  17.627  12.442
53265W        W20333  25.630  31.986   1.446
53266W        W20334   4.356  10.264  13.483
53267W        W20335  44.403  35.064  14.511
53268W        W20336  33.548  37.581   3.761
53269W        W20337  12.686  29.499   3.219
53270W        W20338   2.817  34.118  13.832
53271W        W20339   4.928  36.482  14.500
53272W        W20340  38.354   5.296  12.395
53273W        W20341  35.956   0.925  14.855
53274W        W20342  11.133  37.492  11.861
53275W        W20343  14.104  12.217   2.708
53276W        W20344  34.614  25.685   1.268
53277W        W20345  30.442   2.334  14.307
53278W        W20346  36.591  22.531   0.277
53279W        W20347  42.312  34.926  14.390
53280W        W20348  13.675  28.486  12.571
53281W        W20349  38.968  32.522   1.705
53282W        W20350   7.713  22.737  10.567
53283W        W20351   6.228  32.978   3.324
53284W        W20352  32.496  40.388  13.806
53285W        W20353  32.087  33.380   4.308
53286W        W20354  44.876   1.850   0.316
53287W        W20355  32.120  33.480   3.233
53288W        W20356  41.385   3.801  12.528
53289W        W20357   7.748  25.045  14.432
53290W        W20358  31.983   0.474   4.277
53291W        W20359  17.610   5.703   0.739
53292W        W20360  10.716  19.158   2.877
53293W        W20361  23.651  32.932   4.692
53294W        W20362  33.942  27.084  11.926
53295W        W20363  25.123   4.935   0.763
53296W        W20364  36.434  24.646   3.692
53297W        W20365  43.820  28.029   3.294
53298W        W20366  18.774  38.927  13.457
53299W        W20367  42.372  34.426   1.695
53300W        W20368  38.823   9.194   2.387
53301W        W20369  23.650  39.407   2.673
53302W        W20370  40.423  20.705  11.910
53303W        W20371  20.060  41.472   3.800
53304W        W20372   3.889  31.100  10.956
53305W        W20373  30.984  13.318  11.879
53306W        W20374  33.896   0.266   1.695
53307W        W20375  11.321   2.774  11.036
53308W        W20376  17.688   6.405   1.320
53309W        W20377  33.397  35.978   2.810
53310W        W20378  13.130  38.445   3.223
53311W        W20379   3.829   5.239   4.317
53312W        W20380  20.275  41.840   4.720
53313W        W20381  36.384  21.064   4.191
53314W        W20382   0.330  18.240  14.955
53315W        W20383  13.235  42.304   2.884
53316W        W20384  29.974  27.179  12.550
53317W        W20385  10.726  11.225  14.419
53318W        W20386  21.533  34.372   3.752
53319W        W20387  21.513  35.587  14.864
53320W        W20388   0.411  35.106  12.833
53321W        W20389  37.373  36.467  12.974
53322W        W20390  28.117  26.466   4.608
53323W        W20391   6.825   0.764  12.376
53324W        W20392  17.622   6.739   1.225
53325W        W20393   8.659  36.914   1.271
53326W        W20394  41.043  33.520   2.191
53327W        W20395  17.564  30.060   0.866
53328W        W20396  34.448  42.855   4.735
53329W        W20397  15.615  17.304   5.199
53330W        W20398  20.638  30.072   2.713
53331W        W20399  27.604  26.513   2.376
53332W        W20400   0.949   5.720  13.016
53333W        W20401  15.097  31.986  11.947
53334W        W20402   7.229  30.562  13.863
53335W        W20403  27.632  44.267   3.250
53336W        W20404   9.863  28.002   3.849
53337W        W20405  15.593  15.755   2.838
53338W        W20406  15.758  41.375   0.278
53339W        W20407  30.963  25.121  13.328
53340W        W20408   6.681   4.337   1.761
53341W        W20409  23.036  40.865  14.946
53342W        W20410  21.620  40.427   3.351
53343W        W20411   6.249  23.142  11.552
53344W        W20412  44.317  10.766  12.901
53345W        W20413  32.427  39.853  14.980
53346W        W20414   4.387  29.087   3.164
53347W        W20415  43.907  39.484  14.019
53348W        W20416  39.347  13.766  14.776
53349W        W20417  26.132  14.291  13.012
53350W        W20418  25.167  27.463  11.507
53351W        W20419  27.191  24.481  11.032
53352W        W20420  16.661  26.120  13.389
53353W        W20421  30.122   2.746  14.984
53354W        W20422  12.255   5.360   2.273
53355W        W20423  33.523  28.142  13.975
53356W        W20424   1.876   4.806   0.351
53357W        W20425  10.384  28.536  12.579
53358W        W20426  18.613  40.447  11.107
53359W        W20427  32.110  30.917   2.246
53360W        W20428  43.452  38.046   3.227
53361W        W20429  25.131   8.274   4.761
53362W        W20430   5.352   1.970   2.858
53363W        W20431  19.096  13.648   0.301
53364W        W20432  43.460  11.836   9.954
53365W        W20433  15.296  11.858   1.784
53366W        W20434  43.808  33.020   4.214
53367W        W20435   9.678   3.459   4.338
53368W        W20436  33.623  36.540   2.810
53369W        W20437  37.863  32.927   0.843
53370W        W20438   5.801  35.420   1.290
53371W        W20439  35.400   0.857  14.797
53372W        W20440  31.014   9.270  12.019
53373W        W20441  27.181  40.378  11.395
53374W        W20442  18.666  21.225   4.320
53375W        W20443  20.071  28.176  11.935
53376W        W20444   8.251  28.114   1.229
53377W        W20445  29.438  39.455   4.779
53378W        W20446  18.142  36.083   3.153
53379W        W20447   4.768  38.986   2.663
53380W        W20448  39.043  31.119   4.713
53381W        W20449   6.384  29.454  11.521
53382W        W20450   0.330  28.658  11.554
53383W        W20451  28.517  32.594   2.831
53384W        W20452  16.160   3.454  13.401
53385W        W20453   3.909  44.265   1.322
53386W        W20454  22.615  22.505   3.674
53387W        W20455  40.432  44.773  10.998
53388W        W20456  22.065  16.639   0.906
53389W        W20457  41.337  29.660  14.759
53390W        W20458  17.674  36.006  14.955
53391W        W20459  14.341  38.947   4.680
53392W        W20460   9.860  10.288  10.456
53393W        W20461  29.169  30.058  10.483
53394W        W20462  21.725  23.632   2.731
53395W        W20463  20.045   2.367  14.800
53396W        W20464   7.880  19.046   0.949
53397W        W20465   3.308  44.882  11.515
53398W        W20466  14.751  28.124  12.861
53399W        W20467  35.889   9.271  12.085
53400W        W20468   1.310  21.710   3.629
53401W        W20469  44.267  40.373   2.742
53402W        W20470  35.553  16.170  10.900
53403W        W20471   1.871  41.036   2.294
53404W        W20472   5.303  12.273   2.781
53405W        W20473  20.686   9.808   1.265
53406W        W20474  29.115  23.024   0.764
53407W        W20475  37.934   2.398  12.956
53408W        W20476  20.536   4.750  12.531
53409W        W20477  24.624  13.265  14.769
53410W        W20478  17.608   1.463   4.178
53411W        W20479  35.103  22.712  11.373
53412W        W20480  34.523  40.883  11.886
53413W        W20481  21.039  27.548  12.847
53414W        W20482  25.176  14.722   2.217
53415W        W20483  12.699  38.002  14.399
53416W        W20484  28.543  22.509   2.820
53417W        W20485  28.034  18.142   3.760
53418W        W20486  22.554  42.884   5.271
53419W        W20487  41.955  39.860   2.883
53420W        W20488  42.492   7.284  13.902
53421W        W20489  33.506  17.568   1.876
53422W        W20490  43.913  28.488  10.986
53423W        W20491  22.198  24.151   3.753
53424W        W20492  41.354  29.663  11.433
53425W        W20493  36.579  30.459   3.248
53426W        W20494  13.642  15.776  14.001
53427W        W20495  24.485  20.610   1.270
53428W        W20496  36.359  26.141  14.986
53429W        W20497  34.399  16.798  11.083
53430W        W20498  43.929  12.200   2.824
53431W        W20499  20.174  26.516  12.453
53432W        W20500  20.602  13.171  10.921
53433W        W20501   0.329  33.077  14.870
53434W        W20502  34.073  44.904  13.055
53435W        W20503  29.082  10.151  13.985
53436W        W20504   8.852   1.840  11.104
53437W        W20505  33.936  38.902  11.540
53438W        W20506   9.723   8.184   1.893
53439W        W20507  15.213   5.419   2.712
53440W        W20508  37.004  31.546  11.578
53441W        W20509  14.828  41.035   2.181
53442W        W20510  39.943  40.384   0.826
53443W        W20511  39.371  28.507   0.317
53444W        W20512  42.304  41.305   4.761
53445W        W20513  24.482   6.696  14.786
53446W        W20514  43.848   5.318   3.863
53447W        W20515  34.556  23.204  13.887
53448W        W20516   0.278  29.554  12.958
53449W        W20517  27.995  36.526   2.332
53450W        W20518  32.928  39.828  13.985
53451W        W20519  32.529  14.268  13.419
53452W        W20520  10.297  16.220   1.729
53453W        W20521  31.119  19.627  12.849
53454W        W20522   8.358  25.015   1.225
53455W        W20523  24.490   3.421   1.370
53456W        W20524  41.823  36.473   4.327
53457W        W20525  31.616  17.176  11.528
53458W        W20526   7.250  18.716  12.346
53459W        W20527   4.293  30.475  10.524
53460W        W20528   9.841  40.310   4.598
53461W        W20529   9.372  14.300  13.953
53462W        W20530  14.179  38.502  13.451
53463W        W20531  11.627  39.537   4.314
53464W        W20532  21.636  40.906   4.794
53465W        W20533   9.832  28.505   4.633
53466W        W20534  30.622  29.611   1.907
53467W        W20535  20.198  18.133   4.704
53468W        W20536  20.607   4.279  13.447
53469W        W20537  14.630  36.472  14.319
53470W        W20538   0.283  21.077  14.910
53471W        W20539   1.444  15.774   3.292
53472W        W20540  20.048   3.389   2.243
53473W        W20541  16.201   8.341  12.489
53474W        W20542  35.956  14.588   2.890
53475W        W20543  19.580  32.962   2.287
53476W        W20544  30.079  16.720  14.987
53477W        W20545  35.468   9.754  13.384
53478W        W20546  15.675  29.447  10.945
53479W        W20547   3.329   7.860   4.793
53480W        W20548  23.199  13.350   1.218
53481W        W20549  24.051  17.306   5.222
53482W        W20550   0.904  10.651   4.835
53483W        W20551   2.419  28.606   3.825
53484W        W20552   0.404   3.394   1.769
53485W        W20553  14.723  14.590  12.374
53486W        W20554  25.488   0.888   0.855
53487W        W20555  39.840  43.967  14.779
53488W        W20556  25.066   8.381  14.402
53489W        W20557   7.700  15.707   9.998
53490W        W20558  29.065  24.541  14.310
53491W        W20559  15.303  29.940   2.376
53492W        W20560   0.328  26.208   1.912
53493W        W20561  27.169   9.698   3.268
53494W        W20562  41.465  17.110  11.462
53495W        W20563  40.932  28.489  11.077
53496W        W20564  31.052  25.089   1.694
53497W        W20565  11.856  13.709  13.915
53498W        W20566  29.472  38.960   2.737
53499W        W20567  40.956  32.551   3.284
53500W        W20568  34.907  34.471   1.412
53501W        W20569   3.422   3.245   0.814
53502W        W20570   5.876  40.917  12.568
53503W        W20571  38.465  20.694   1.718
53504W        W20572  25.713  28.596  14.347
53505W        W20573  22.205  16.672  10.630
53506W        W20574   6.755  22.125   2.230
53507W        W20575  44.431   9.814   0.765
53508W        W20576  27.944  11.708   4.144
53509W        W20577  28.929  23.715  12.855
53510W        W20578  27.676  22.238  14.939
53511W        W20579  11.642  30.132   4.302
53512W        W20580  20.668  38.894   0.459
53513W        W20581  38.888  15.756  13.988
53514W        W20582  30.548  19.677   0.380
53515W        W20583  41.972   6.284   1.714
53516W        W20584  37.997   7.709   0.399
53517W        W20585  13.673  42.524  12.509
53518W        W20586   7.277  31.152   4.320
53519W        W20587  27.107  39.444   2.887
53520W        W20588  25.094  24.719  14.865
53521W        W20589  39.556  27.166   1.853
53522W        W20590  42.512  37.051   4.811
53523W        W20591   2.413  42.929  11.592
53524W        W20592  16.596  33.982  13.989
53525W        W20593   0.259  12.146   2.236
53526W        W20594  24.669   8.187  10.903
53527W        W20595  32.529  10.845   4.773
53528W        W20596  23.696  17.752  11.585
53529W        W20597   5.395  37.872   4.230
53530W        W20598   1.971   0.875  13.950
53531W        W20599  41.323  40.004   0.467
53532W        W20600  24.045  10.736  11.485
53533W        W20601   5.345  14.706   4.763
53534W        W20602  23.708  34.056   4.659
53535W        W20603  43.847  10.705  11.539
53536W        W20604  32.627  44.960   0.322
53537W        W20605  44.263   6.297  11.109
53538W        W20606  38.386  19.119  12.851
53539W        W20607   2.319   3.276   5.191
53540W        W20608  23.184  32.562   0.328
53541W        W20609  25.651  10.728   3.859
53542W        W20610  11.736   0.402  11.415
53543W        W20611  43.802  14.728   2.316
53544W        W20612  30.066  35.872  12.368
53545W        W20613   7.857   5.303  13.924
53546W        W20614  30.449  36.562  11.416
53547W        W20615  28.094  18.167  11.086
53548W        W20616  40.352   4.789   4.245
53549W        W20617   7.790   2.783  13.891
53550W        W20618  20.546  41.483  11.985
53551W        W20619  27.515   5.400   0.764
53552W        W20620   0.436  18.760   2.318
53553W        W20621   1.868  17.065   0.964
53554W        W20622  29.559  38.538  10.438
53555W        W20623   6.913  18.757   2.738
53556W        W20624  26.130  10.743  14.503
53557W        W20625  19.774   2.228  11.610
53558W        W20626  33.895  22.615   1.220
53559W        W20627   0.758  15.737  11.904
53560W        W20628  33.474  42.804   1.385
53561W        W20629  37.423  40.052   4.290
53562W        W20630  27.151  27.023  13.014
53563W        W20631   0.293   9.282   1.924
53564W        W20632  33.474  10.834  13.017
53565W        W20633  35.582  37.473   3.837
53566W        W20634  44.277  34.423  13.014
53567W        W20635  25.150  20.146   3.703
53568W        W20636  13.220  28.934  14.953
53569W        W20637  31.150   7.834   3.783
53570W        W20638  16.261  28.622  14.821
53571W        W20639  40.381  22.522   3.189
53572W        W20640  36.096  22.738  12.558
53573W        W20641  36.519  40.827  10.610
53574W        W20642  29.975   1.843   3.750
53575W        W20643   6.776  23.988   0.262
53576W        W20644   5.229  41.486  11.581
53577W        W20645  37.571  37.013   1.792
53578W        W20646  33.898  11.179   4.348
53579W        W20647   4.704  13.630   3.642
53580W        W20648  22.558  38.059  13.836
53581W        W20649   1.434  38.874   3.382
53582W        W20650  26.985  39.959  14.942
53583W        W20651  20.626  38.887   3.805
53584W        W20652  43.362   2.733   0.852
53585W        W20653  38.850  34.891   3.194
53586W        W20654  30.615  21.037   1.701
53587W        W20655  34.912  21.079   0.446
53588W        W20656  14.276  24.546   4.786
53589W        W20657  31.504  32.996  11.558
53590W        W20658  37.529  21.680  11.952
53591W        W20659   7.302   5.688   4.720
53592W        W20660  27.992  44.435  10.961
53593W        W20661   1.886  15.303  12.932
53594W        W20662  38.411  15.768   2.663
53595W        W20663   4.364  11.268   1.269
53596W        W20664  11.707  28.153   3.736
53597W        W20665  24.211  11.750  11.429
53598W        W20666  27.171  29.976  14.391
53599W        W20667  44.798  43.334  12.436
53600W        W20668  43.302  36.888  14.848
53601W        W20669  37.016  15.599  13.468
53602W        W20670  24.094  37.070   2.362
53603W        W20671   2.457  40.446  11.882
53604W        W20672  13.808  40.863  10.591
53605W        W20673  39.327   1.407   3.806
53606W        W20674  29.949  14.760   1.924
53607W        W20675  43.290  11.751  13.839
53608W        W20676  16.315  17.282   1.827
53609W        W20677  21.690  34.528   0.390
53610W        W20678  34.927  44.785   2.822
53611W        W20679  25.165  24.516  11.373
53612W        W20680   5.711  32.917  14.437
53613W        W20681  22.703   3.934  12.039
53614W        W20682  18.610  16.319  12.547
53615W        W20683   3.231  39.029  12.960
53616W        W20684  19.136  23.109   1.846
53617W        W20685  28.578  25.543  14.351
53618W        W20686  27.567  41.873   1.737
53619W        W20687  10.378  29.121  13.936
53620W        W20688  39.349  31.528  10.896
53621W        W20689  17.629  25.519  13.990
53622W        W20690  43.953   2.389  12.832
53623W        W20691  24.218  15.290  13.979
53624W        W20692  16.195   5.850   4.745
53625W        W20693  31.110  30.064   4.642
53626W        W20694   2.958  43.300   4.651
53627W        W20695  38.458  19.219   1.365
53628W        W20696  24.721  44.385  12.095
53629W        W20697  24.567  31.897  11.962
53630W        W20698  22.607  39.554  12.540
53631W        W20699  31.555  15.698  11.032
53632W        W20700   5.711  14.151   1.845
53633W        W20701  32.919   2.738   4.240
53634W        W20702  44.835   1.751   5.134
53635W        W20703  44.412  44.873   3.835
53636W        W20704  28.985  32.903  11.985
53637W        W20705  23.081  23.552  13.984
53638W        W20706   0.978  38.843   2.210
53639W        W20707  24.702  26.174  12.550
53640W        W20708  19.261  27.043   1.325
53641W        W20709   6.211  15.313   4.624
53642W        W20710  14.280   5.234   2.245
53643W        W20711   8.683  42.483   0.967
53644W        W20712  38.467  36.585   4.666
53645W        W20713  42.369  11.256  10.966
53646W        W20714  21.163  26.520  13.061
53647W        W20715  36.421  22.548  10.063
53648W        W20716  25.512   2.434   4.676
53649W        W20717  22.178  44.371  14.462
53650W        W20718  29.101   4.920  11.535
53651W        W20719  30.101  35.094  13.938
53652W        W20720  44.278  12.332   3.384
53653W        W20721  41.458  11.640  11.979
53654W        W20722  39.530  30.089   4.716
53655W        W20723  27.013  39.402  14.883
53656W        W20724  35.959  25.209  10.422
53657W        W20725  15.327  15.174   0.344
53658W        W20726   4.850   2.863  12.925
53659W        W20727  27.967  23.060   1.754
53660W        W20728   7.783  34.047   2.360
53661W        W20729  41.995   2.840  12.411
53662W        W20730  33.984  30.943   3.315
53663W        W20731  40.042  25.165   3.333
53664W        W20732  40.350  39.906  13.018
53665W        W20733  29.929  26.456   3.695
53666W        W20734   0.785  18.562   1.831
53667W        W20735  37.011  38.408  13.505
53668W        W20736  26.984  13.147   2.774
53669W        W20737  32.402  44.390  11.032
53670W        W20738  30.506   9.706   0.912
53671W        W20739  24.163   5.232   0.279
53672W        W20740   8.811  40.400   5.174
53673W        W20741   7.712  14.638  11.893
53674W        W20742  12.266  31.127  14.787
53675W        W20743  38.554  36.409  12.868
53676W        W20744  42.822  27.546  11.095
53677W        W20745  40.355  25.199  12.406
53678W        W20746  38.862  25.202   1.875
53679W        W20747   4.705  15.692  10.635
53680W        W20748  33.533   2.293   3.670
53681W        W20749  39.319  35.364   2.664
53682W        W20750  11.217  11.703  13.416
53683W        W20751  43.417  40.829   0.793
53684W        W20752   9.823   2.461  14.446
53685W        W20753   9.167  25.120   3.752
53686W        W20754  29.661  25.971   1.819
53687W        W20755  19.284  30.052   2.292
53688W        W20756   2.449  23.629  11.402
53689W        W20757  33.615  28.049  14.923
53690W        W20758  28.654  23.152   3.350
53691W        W20759  11.790  37.993   3.696
53692W        W20760   6.202  14.590   1.431
53693W        W20761  30.542   8.359   4.735
53694W        W20762  25.993  32.134   4.274
53695W        W20763   5.316  35.386   2.870
53696W        W20764  34.077  26.125  14.297
53697W        W20765   7.820   5.751   3.314
53698W        W20766  14.594  14.302  14.372
53699W        W20767  19.615  16.303   2.419
53700W        W20768  26.968  15.230   3.769
53701W        W20769  42.326  26.049   2.211
53702W        W20770  42.866  36.961  14.771
53703W        W20771  19.556   4.754   5.257
53704W        W20772  40.868   1.273   4.661
53705W        W20773  18.751  44.805  12.484
53706W        W20774  32.975  10.314   4.655
53707W        W20775  28.929  14.730   1.240
53708W        W20776  14.294  37.081   3.310
53709W        W20777  18.095  44.928  14.967
53710W        W20778  24.508  22.733   3.807
53711W        W20779   2.243  23.002   0.730
53712W        W20780   8.844  43.391  14.354
53713W        W20781  21.541  33.524   3.837
53714W        W20782  24.012  35.360  13.544
53715W        W20783   2.329  13.748  14.023
53716W        W20784  11.318  21.732  12.032
53717W        W20785  37.562  11.291   2.339
53718W        W20786  17.793   9.375  14.459
53719W        W20787  16.789  18.743   0.339
53720W        W20788   0.248  32.027   5.727
53721W        W20789  43.313  31.607   4.211
53722W        W20790  17.700  18.743  14.852
53723W        W20791  21.569   8.768  14.941
53724W        W20792   9.348  42.828  12.491
53725W        W20793   4.435  18.266   3.308
53726W        W20794   4.210  12.836  14.994
53727W        W20795  28.958  35.553   5.135
53728W        W20796   6.680  27.623   4.835
53729W        W20797  16.256  25.173  13.044
53730W        W20798  16.751  12.362   0.343
53731W        W20799  42.901   4.799   0.843
53732W        W20800  15.205  34.612   4.295
53733W        W20801  34.950   3.432  13.547
53734W        W20802   0.348   6.696   4.616
53735W        W20803  26.039  21.733  11.949
53736W        W20804  32.535  14.769  11.909
53737W        W20805  16.794  16.212  13.400
53738W        W20806  18.761   3.445  10.906
53739W        W20807  39.391  21.262   4.163
53740W        W20808  42.830  36.357  10.921
53741W        W20809  30.939  15.633  11.959
53742W        W20810  13.178  43.502   4.215
53743W        W20811  28.983  28.614  11.029
53744W        W20812  23.037   4.314   4.320
53745W        W20813  32.413  15.231   2.369
53746W        W20814   1.243  37.575  11.472
53747W        W20815  43.417  39.350   3.311
53748W        W20816  33.875  35.027   0.930
53749W        W20817  29.135  15.602   4.119
53750W        W20818  28.089  33.540  12.890
53751W        W20819  22.527   9.181  13.830
53752W        W20820  28.477  24.218  14.904
53753W        W20821  30.105  20.149   3.247
53754W        W20822  39.037  15.306  10.892
53755W        W20823  40.360  18.092   3.708
53756W        W20824  34.405  44.433   2.182
53757W        W20825  36.474  30.553   4.768
53758W        W20826   8.371  27.121   0.292
53759W        W20827  12.252  41.453  13.831
53760W        W20828   8.764   0.829  12.463
53761W        W20829  44.947  36.459  12.901
53762W        W20830  43.467  41.497   0.367
53763W        W20831  21.171  15.600   5.094
53764W        W20832  44.365  16.769  11.573
53765W        W20833  39.495  38.513  13.449
53766W        W20834  42.998  16.179   3.266
53767W        W20835  42.475  33.596  10.918
53768W        W20836  17.196  32.635  12.578
53769W        W20837  23.035  24.008  13.941
53770W        W20838  23.994  18.279  12.838
53771W        W20839  43.402  39.363  11.915
53772W        W20840  38.971   6.915   2.710
53773W        W20841  35.449  29.495   2.337
53774W        W20842   2.304  41.436   3.239
53775W        W20843  26.981  18.290   3.802
53776W        W20844   3.783  41.300  13.421
53777W        W20845  32.491  35.560  13.490
53778W        W20846  16.632  30.427   4.806
53779W        W20847  38.929  29.008   3.322
53780W        W20848  41.806  11.230   1.744
53781W        W20849  34.043   3.779  11.381
53782W        W20850   8.211  28.977   4.657
53783W        W20851  15.819  32.001   1.426
53784W        W20852  33.900  37.378   1.862
53785W        W20853  41.403  11.367   1.845
53786W        W20854  15.793  31.939  11.452
53787W        W20855   1.871  10.813   0.894
53788W        W20856  26.504  14.699   4.164
53789W        W20857   3.298  34.462  12.870
53790W        W20858  31.959  17.216   4.121
53791W        W20859   6.709   3.845  14.493
53792W        W20860  35.888  30.550  11.563
53793W        W20861  16.657  38.030   0.772
53794W        W20862   0.779  32.453  12.476
53795W        W20863  41.026  20.616   2.722
53796W        W20864   3.233  40.904   1.762
53797W        W20865  31.910   9.645   3.780
53798W        W20866  17.295  19.188  13.030
53799W        W20867   5.344  10.235   1.694
53800W        W20868   9.287  33.407   1.777
53801W        W20869  23.122   1.828   0.853
53802W        W20870  17.685  40.539   1.908
53803W        W20871  31.916  29.552   3.857
53804W        W20872  21.707  38.368   4.285
53805W        W20873   4.273   6.743   2.418
53806W        W20874  44.450  15.782  10.573
53807W        W20875  26.488   0.933  11.462
53808W        W20876  32.963  38.553  13.490
53809W        W20877  25.156  24.186  13.462
53810W        W20878   4.252  26.572  12.967
53811W        W20879  22.223  17.714  14.838
53812W        W20880  16.717   3.389  14.290
53813W        W20881   7.231  31.611  12.017
53814W        W20882  14.712  13.313  12.580
53815W        W20883   5.324  30.095  11.549
53816W        W20884   1.958  32.485   1.444
53817W        W20885  15.738  41.366   1.297
53818W        W20886   4.305  11.813   0.290
53819W        W20887   7.293  18.067   3.384
53820W        W20888  36.347  26.155   3.792
53821W        W20889   3.320   6.685  10.510
53822W        W20890  12.148  31.477   4.764
53823W        W20891   7.399  18.759  14.817
53824W        W20892  41.032  15.754  13.858
53825W        W20893  32.103   2.437   1.440
53826W        W20894   2.933  22.537  11.933
53827W        W20895  34.524  29.104   3.711
53828W        W20896   2.248  39.482  13.897
53829W        W20897  35.551  44.481   3.244
53830W        W20898   0.375  42.792  11.054
53831W        W20899  29.963  32.089   2.725
53832W        W20900  40.464  14.612  14.497
53833W        W20901  18.559  30.928   3.367
53834W        W20902  12.333  24.120  13.875
53835W        W20903   5.220  30.955  10.978
53836W        W20904   6.244  38.430   3.691
53837W        W20905  16.294  16.143   0.361
53838W        W20906  35.385  28.010  10.952
53839W        W20907  40.868  27.514  11.892
53840W        W20908  13.124  13.730  14.343
53841W        W20909  37.848   9.718   1.854
53842W        W20910   8.203  31.420  14.850
53843W        W20911  21.682  30.640   1.257
53844W        W20912   8.287  37.075  11.063
53845W        W20913  40.446  18.741  13.486
53846W        W20914  29.664  42.490  13.863
53847W        W20915  20.208   2.228   2.321
53848W        W20916  16.240  13.655   0.483
53849W        W20917  12.671  44.958  14.386
53850W        W20918  40.466  27.569   0.249
53851W        W20919  27.074  22.218  13.372
53852W        W20920   5.339  18.246   3.642
53853W        W20921  23.033  23.092  12.422
53854W        W20922  29.103  11.721  13.507
53855W        W20923  21.134   9.190   1.266
53856W        W20924  18.721  32.406   0.893
53857W        W20925  43.508  25.165  14.507
53858W        W20926  38.928  40.915   1.933
53859W        W20927  20.234   2.309   4.758
53860W        W20928  27.601   6.256  11.404
53861W        W20929  43.767   8.373  11.507
53862W        W20930  16.170   8.282  10.964
53863W        W20931   1.306   3.220  13.953
53864W        W20932  18.757  30.434  14.793
53865W        W20933  21.052  10.692  14.890
53866W        W20934  11.132   8.267  13.023
53867W        W20935   3.833   3.717   0.396
53868W        W20936  16.191   7.326   0.286
53869W        W20937  21.682  36.091   2.886
53870W        W20938  35.511  16.128  13.043
53871W        W20939  19.067   6.188   4.120
53872W        W20940  36.526  26.197   2.766
53873W        W20941  18.586   5.856   3.205
53874W        W20942  26.962  13.271  13.504
53875W        W20943  14.711  22.746  10.625
53876W        W20944   1.290  26.118  12.431
53877W        W20945  33.011  22.573   4.777
53878W        W20946  35.562  10.331  11.099
53879W        W20947  27.563  26.682   3.320
53880W        W20948  43.474  24.632  13.000
53881W        W20949  18.760   5.691   1.899
53882W        W20950  16.684  37.349  14.855
53883W        W20951  38.567   5.702   1.786
53884W        W20952   1.266  21.243   1.761
53885W        W20953  23.119  31.633  14.906
53886W        W20954  28.947  24.703  14.935
53887W        W20955  42.319  30.427  14.482
53888W        W20956  30.041  38.393   3.704
53889W        W20957  20.672  25.671  13.978
53890W        W20958  11.825  39.479   1.210
53891W        W20959   1.831   4.450   2.238
53892W        W20960  13.234  25.002  12.392
53893W        W20961  16.625  29.942   9.968
53894W        W20962  12.619   8.805   2.707
53895W        W20963  28.629  12.220   1.798
53896W        W20964  10.783  39.485  11.475
53897W        W20965  30.930  19.239   0.948
53898W        W20966   6.184  38.962  12.087
53899W        W20967  33.441   4.713   5.279
53900W        W20968  34.863   8.774   9.980
53901W        W20969  12.790   3.926   4.634
53902W        W20970   2.963  11.289  12.968
53903W        W20971  20.145  10.223  13.320
53904W        W20972  38.539  19.147   3.239
53905W        W20973  28.015  27.478  12.378
53906W        W20974  39.054  16.250  14.467
53907W        W20975  32.109  27.076   5.755
53908W        W20976  36.559  21.597   0.394
53909W        W20977  22.656   9.886   3.816
53910W        W20978   9.366  29.656  14.292
53911W        W20979  30.968  43.346   3.702
53912W        W20980  38.493  13.661   0.918
53913W        W20981  14.593  33.927  14.803
53914W        W20982  16.283  20.572  14.930
53915W        W20983  22.711  42.810   2.688
53916W        W20984  32.983  17.613   0.929
53917W        W20985   0.877   6.822  13.366
53918W        W20986  16.659  42.888   2.271
53919W        W20987  43.491  14.272  13.970
53920W        W20988  17.063  24.596  10.994
53921W        W20989  19.703  26.542   4.178
53922W        W20990   6.252  13.288   3.271
53923W        W20991  14.324  20.739   0.335
53924W        W20992  34.062  27.177   3.666
53925W        W20993  16.202  43.925   3.799
53926W        W20994  16.312  15.739   3.208
53927W        W20995  22.712   3.745   1.215
53928W        W20996  14.636  36.077   0.891
53929W        W20997  30.473  31.440  13.315
53930W        W20998  10.869  21.616  13.504
53931W        W20999   3.803  30.112   0.789
53932W        W21000   9.774  16.099   0.825
53933W        W21001   3.939   6.198  13.827
53934W        W21002  14.831  37.049   1.919
53935W        W21003   6.920  13.632   2.870
53936W        W21004   9.208   2.363  14.387
53937W        W21005   8.805  36.854  14.435
53938W        W21006  42.002   6.196   0.468
53939W        W21007   9.730   5.874   0.955
53940W        W21008  17.159   0.770  12.520
53941W        W21009   1.929   2.773   1.850
53942W        W21010  17.577  24.598  12.950
53943W        W21011  29.133  41.026  13.343
53944W        W21012  22.997  13.224  13.983
53945W        W21013  31.647  30.062  12.354
53946W        W21014  43.343  40.413  12.454
53947W        W21015  38.544  27.140   2.894
53948W        W21016  13.692  17.306   4.602
53949W        W21017   0.310  22.682   3.180
53950W        W21018  13.652  38.547  14.899
53951W        W21019   4.269  22.058  10.562
53952W        W21020   5.889  14.267  12.504
53953W        W21021  28.652  11.771   0.903
53954W        W21022  36.565  41.329  12.005
53955W        W21023  32.449  13.191  14.469
53956W        W21024  39.349   7.281  13.000
53957W        W21025  37.403  25.055   4.678
53958W        W21026  22.543  35.110   4.628
53959W        W21027  15.193  44.756  10.644
53960W        W21028  19.275   2.337   0.329
53961W        W21029  36.461  37.928  11.870
53962W        W21030  20.655  38.405  14.295
53963W        W21031   9.735  23.512   4.211
53964W        W21032  22.671  17.103   2.204
53965W        W21033  21.643   2.805  11.103
53966W        W21034  29.092  28.932  11.576
53967W        W21035   2.862  38.852  10.467
53968W        W21036  35.445  38.485  11.607
53969W        W21037  26.063   6.393  11.992
53970W        W21038  23.211   2.333   0.428
53971W        W21039  22.234  10.211  12.490
53972W        W21040  31.941  44.350  14.770
53973W        W21041  33.589  13.170  14.830
53974W        W21042   6.195  26.126  14.429
53975W        W21043  32.584  44.480   2.292
53976W        W21044  26.688  35.897   3.206
53977W        W21045  18.620  17.156   1.381
53978W        W21046  43.778  34.451   4.190
53979W        W21047  36.887  24.553  13.446
53980W        W21048  42.316  36.881  14.449
53981W        W21049   7.200  18.567  13.968
53982W        W21050  38.869  27.606  12.500
53983W        W21051  28.500  41.930  14.931
53984W        W21052  26.107  19.646   2.887
53985W        W21053  20.109  12.184   1.292
53986W        W21054  10.270  31.446  14.784
53987W        W21055   4.419  30.552   4.598
53988W        W21056  32.442   7.170   1.758
53989W        W21057  37.497  27.186  12.848
53990W        W21058  26.163  26.126   4.122
53991W        W21059  31.017  17.662   1.702
53992W        W21060   3.442  16.105   4.714
53993W        W21061  28.961  41.392  11.521
53994W        W21062  41.987   1.839  13.978
53995W        W21063  34.009  33.920  12.486
53996W        W21064  23.649  35.034  13.995
53997W        W21065  13.754  32.138  14.348
53998W        W21066   9.378   9.305   3.157
53999W        W21067   9.885   3.876  13.920
54000W        W21068  36.936   4.892   2.736
54001W        W21069   8.234  21.672  12.922
54002W        W21070   4.872  17.605  14.299
54003W        W21071  14.252  10.824  11.611
54004W        W21072  32.421  38.343   1.232
54005W        W21073  42.523  29.482   3.213
54006W        W21074  41.820  17.613   2.214
54007W        W21075  42.517  26.963   0.412
54008W        W21076   4.905  35.072  13.546
54009W        W21077  17.124  10.677   4.343
54010W        W21078  35.592   5.251  14.945
54011W        W21079  17.266   2.406  14.851
54012W        W21080   8.815  41.468   2.896
54013W        W21081  41.804  43.487   1.268
54014W        W21082  23.034   1.814   4.330
54015W        W21083  42.878  34.049  14.855
54016W        W21084  44.991   5.249   1.294
54017W        W21085  11.292  40.542  11.460
54018W        W21086   4.885   2.965  12.361
54019W        W21087  27.033  11.658   3.178
54020W        W21088  20.116   3.382  14.882
54021W        W21089  28.568  32.016  11.605
54022W        W21090  38.859  20.635   4.197
54023W        W21091  29.574  35.030   1.729
54024W        W21092  30.009  17.736   3.189
54025W        W21093  35.985  21.084   4.345
54026W        W21094  33.104  21.606   4.317
54027W        W21095   8.198  12.810   2.295
54028W        W21096  15.162  22.209  10.437
54029W        W21097  32.444  19.092   4.323
54030W        W21098  28.118   8.286  13.017
54031W        W21099  10.825  34.549   1.288
54032W        W21100   3.327  32.428   1.400
54033W        W21101  22.685  29.120   3.835
54034W        W21102   2.907  15.607  14.914
54035W        W21103  32.502  29.947  12.926
54036W        W21104  31.445  25.687   3.162
54037W        W21105   9.362  20.088  12.518
54038W        W21106  12.293  10.174   0.757
54039W        W21107  40.464  11.322  11.540
54040W        W21108   4.902   5.753  13.817
54041W        W21109  12.850  10.783  12.009
54042W        W21110  37.425  37.853  14.899
54043W        W21111   2.298  40.435  14.998
54044W        W21112  36.040  27.486  12.980
54045W        W21113   6.189  13.331   4.151
54046W        W21114   2.360  34.975   5.258
54047W        W21115  33.997  22.641   3.301
54048W        W21116   9.246  12.325   3.815
54049W        W21117  18.261   4.441   1.735
54050W        W21118   3.832  11.766  13.924
54051W        W21119  30.941  12.757  12.523
54052W        W21120  23.544  40.457   2.745
54053W        W21121   2.423   8.666  11.478
54054W        W21122  34.418  15.301  12.852
54055W        W21123  21.595  27.682  11.480
54056W        W21124   7.841   6.280  14.938
54057W        W21125  31.939  17.066  12.441
54058W        W21126  18.165  18.264  12.057
54059W        W21127  14.671   4.850  11.112
54060W        W21128  21.173   0.862   1.770
54061W        W21129  44.946  30.062   3.658
54062W        W21130  19.672  36.534   2.291
54063W        W21131  30.541  43.777  12.003
54064W        W21132  29.997  10.306  12.451
54065W        W21133  29.653   9.171   3.209
54066W        W21134  39.371  40.039  12.002
54067W        W21135   6.688  12.705  12.018
54068W        W21136   3.883   3.767   2.235
54069W        W21137  22.202  42.833   2.867
54070W        W21138  27.675  28.528  12.447
54071W        W21139   1.734  43.812  13.926
54072W        W21140  34.453  28.548   0.262
54073W        W21141  39.455  17.579   0.887
54074W        W21142  40.999  31.956   4.126
54075W        W21143  31.609  26.643  10.582
54076W        W21144   1.263   0.343  11.990
54077W        W21145  20.580  40.485  13.797
54078W        W21146  10.699  16.721  12.875
54079W        W21147  44.454  20.535   1.400
54080W        W21148  38.527  35.088   0.809
54081W        W21149   4.724  44.349   2.317
54082W        W21150  23.520  35.095   4.639
54083W        W21151   2.294  17.716  11.455
54084W        W21152   8.404  13.192  11.461
54085W        W21153  18.684  29.049   3.676
54086W        W21154   2.966  16.158  13.894
54087W        W21155   5.728  40.894  12.082
54088W        W21156   7.191  42.017   1.777
54089W        W21157   7.191  44.262   3.853
54090W        W21158   5.247  24.052   3.844
54091W        W21159  27.085  22.590   0.355
54092W        W21160  29.621  27.558   0.334
54093W        W21161  39.931   5.824   2.806
54094W        W21162  37.539  16.088  12.868
54095W        W21163  25.641  37.084   3.318
54096W        W21164  34.608  44.987   0.417
54097W        W21165   5.404  14.694   2.346
54098W        W21166  35.871  32.136   2.693
54099W        W21167  16.104   4.271   2.790
54100W        W21168  15.191  25.967  14.308
54101W        W21169  20.061  42.445   0.261
54102W        W21170  29.933  39.549   2.209
54103W        W21171  10.310   3.952  14.341
54104W        W21172  30.541  38.440   0.961
54105W        W21173   8.786  27.010  14.387
54106W        W21174  36.858  29.616  11.579
54107W        W21175   9.333  28.586   1.808
54108W        W21176  26.198   2.743  14.395
54109W        W21177  24.995   4.354  11.094
54110W        W21178   0.341  21.752   0.443
54111W        W21179  40.351  15.210  10.990
54112W        W21180  42.968  24.482   4.734
54113W        W21181  29.927  19.128  10.904
54114W        W21182   3.262  30.973  13.437
54115W        W21183  24.621  10.333   2.274
54116W        W21184  41.326  24.214  11.453
54117W        W21185  33.927  19.278  11.098
54118W        W21186  13.728  31.466   1.428
54119W        W21187  21.160   3.419  11.071
54120W        W21188   5.882  42.411  13.351
54121W        W21189  33.944  19.111   3.365
54122W        W21190  42.365  37.567  10.944
54123W        W21191  16.305  40.336   0.420
54124W        W21192   0.339  20.766  12.991
54125W        W21193   3.881  30.432   9.951
54126W        W21194  37.463  33.886   0.279
54127W        W21195  25.666  31.978  13.000
54128W        W21196  14.338  11.255   0.388
54129W        W21197  33.614  25.562  14.417
54130W        W21198  23.700  12.290  11.573
54131W        W21199  41.453  41.895   1.406
54132W        W21200  25.191   9.206  14.409
54133W        W21201   0.276   1.245   3.277
54134W        W21202  17.705  41.832  13.970
54135W        W21203  23.999   3.364   4.695
54136W        W21204  15.307   6.922   0.277
54137W        W21205   1.287  43.402   2.235
54138W        W21206  29.627  36.547   3.349
54139W        W21207  44.502  13.309   4.165
54140W        W21208  40.858   5.302  13.009
54141W        W21209   8.324  43.888  12.844
54142W        W21210  19.277  43.401  13.441
54143W        W21211   2.349  31.979   0.811
54144W        W21212   4.816  24.714   3.816
54145W        W21213  20.270  30.656   2.196
54146W        W21214  21.525  22.717   3.220
54147W        W21215   8.769  28.092   5.274
54148W        W21216  20.049  14.241   4.345
54149W        W21217   3.323  16.589  11.385
54150W        W21218  39.423  43.418   1.417
54151W        W21219  40.814  26.055   1.392
54152W        W21220  37.417  24.641   2.411
54153W        W21221  11.728  39.393  11.967
54154W        W21222  24.091  30.045  11.442
54155W        W21223   3.891  32.564   1.744
54156W        W21224   6.701  30.478   0.369
54157W        W21225  37.952  34.902   0.965
54158W        W21226   2.842   2.786   1.281
54159W        W21227  11.339  22.594  14.294
54160W        W21228  27.161  29.024   4.776
54161W        W21229  17.678  35.566   3.801
54162W        W21230   3.385  33.125   5.144
54163W        W21231  30.511  29.496  13.886
54164W        W21232  38.560  35.898  10.919
54165W        W21233  10.233   9.298  13.523
54166W        W21234  40.359  10.830   0.854
54167W        W21235  14.130  34.435   4.354
54168W        W21236   3.370  10.370   3.359
54169W        W21237  36.961  26.540   9.984
54170W        W21238  18.643  37.943   0.730
54171W        W21239  44.419  12.118   0.260
54172W        W21240  37.944   3.444  13.326
54173W        W21241   7.321   2.413  10.437
54174W        W21242   1.974  19.642  11.876
54175W        W21243  43.802   4.853  14.368
54176W        W21244  41.516  24.030  13.975
54177W        W21245   3.759  18.133   2.336
54178W        W21246  44.910  41.479  10.478
54179W        W21247  41.838  43.352  12.945
54180W        W21248   7.833  28.168   1.694
54181W        W21249  11.276   5.320   3.183
54182W        W21250  26.022  33.952   0.868
54183W        W21251   8.893   7.892  14.277
54184W        W21252   1.738  41.497  12.350
54185W        W21253  35.434  12.703  12.092
54186W        W21254   2.729  32.905   1.726
54187W        W21255  41.331  12.643   1.850
54188W        W21256  27.978  27.537   1.791
54189W        W21257  23.088  13.658  12.924
54190W        W21258  14.285   1.765   2.901
54191W        W21259  37.542  42.946  10.430
54192W        W21260  26.998  15.729   3.294
54193W        W21261   5.396  35.995   2.339
54194W        W21262   2.442   0.926  12.374
54195W        W21263  24.576  40.406   2.264
54196W        W21264  32.409  34.928   3.372
54197W        W21265  28.183  20.131  11.863
54198W        W21266  33.126  10.239  13.876
54199W        W21267   0.877  31.435   5.224
54200W        W21268  43.473  44.910  11.882
54201W        W21269   9.347   2.341  13.381
54202W        W21270  11.745  32.425  14.290
54203W        W21271  28.493   8.227  13.837
54204W        W21272  42.914  16.702   4.780
54205W        W21273  24.671  28.120  11.421
54206W        W21274  18.580  24.645   1.359
54207W        W21275  19.275  15.740   2.786
54208W        W21276  19.614  36.508  14.914
54209W        W21277  34.472  36.020   4.271
54210W        W21278  19.741  14.121   0.729
54211W        W21279  13.328  27.149  14.966
54212W        W21280  32.030   9.285   2.828
54213W        W21281  10.294  10.329  11.115
54214W        W21282  17.209  14.638  11.940
54215W        W21283  15.219  18.246   4.227
54216W        W21284  41.321  31.917   1.443
54217W        W21285  31.488  28.096  13.813
54218W        W21286  39.059  38.967  13.998
54219W        W21287  38.904   2.292   5.141
54220W        W21288  13.178  21.546   1.783
54221W        W21289   5.366  43.487  10.892
54222W        W21290   4.238   2.760  12.090
54223W        W21291  35.517  13.308   1.255
54224W        W21292   3.934  28.445   1.733
54225W        W21293  44.757   5.334  10.945
54226W        W21294   0.422  13.751  13.945
54227W        W21295   1.800  29.565   3.171
54228W        W21296  16.217  31.048   2.813
54229W        W21297   8.881   2.238  12.915
54230W        W21298  16.298  11.783   0.352
54231W        W21299  39.449  35.870   1.770
54232W        W21300   8.209  31.113   0.402
54233W        W21301  10.734   7.201  13.348
54234W        W21302  38.983  33.457  13.050
54235W        W21303  40.478   1.321  14.989
54236W        W21304  22.122  33.514  13.470
54237W        W21305   0.766  33.982   4.192
54238W        W21306  33.593  39.907   0.469
54239W        W21307   2.315   0.316   0.326
54240W        W21308   8.290  11.312   4.299
54241W        W21309  30.985   1.327  12.962
54242W        W21310   6.291  19.237   5.139
54243W        W21311  39.491   6.888   2.222
54244W        W21312  29.475  29.040   0.851
54245W        W21313  24.489   3.834   2.739
54246W        W21314  42.995  18.668   1.267
54247W        W21315  32.517  18.766   1.356
54248W        W21316  27.043  19.097   2.346
54249W        W21317   0.875  30.939   1.890
54250W        W21318  28.936  21.715   2.413
54251W        W21319  32.450  28.173   0.807
54252W        W21320  12.178  36.432  13.411
54253W        W21321  34.064  16.317  11.375
54254W        W21322   7.824  17.166   0.865
54255W        W21323   5.897   2.233  11.591
54256W        W21324  17.692  33.586   4.793
54257W        W21325  38.470   3.947  12.387
54258W        W21326  18.161  22.228   2.331
54259W        W21327  43.308   0.971   2.705
54260W        W21328  16.221  40.375   4.837
54261W        W21329  16.309   5.743  12.072
54262W        W21330  25.707  12.361   3.193
54263W        W21331  22.741  27.980   3.265
54264W        W21332  21.685  21.022  13.312
54265W        W21333  12.131  33.578  14.828
54266W        W21334  31.904  22.180  10.047
54267W        W21335  16.073  42.437   1.729
54268W        W21336  13.670  27.571   4.754
54269W        W21337   2.850  10.321   2.855
54270W        W21338  15.791  34.949  10.907
54271W        W21339  33.542   9.654   1.869
54272W        W21340  43.363  24.018   1.291
54273W        W21341  28.972   0.274  11.440
54274W        W21342  22.703  22.107   4.175
54275W        W21343  28.643  13.324  14.504
54276W        W21344   9.879  29.972   0.814
54277W        W21345   5.907   8.367  12.534
54278W        W21346  44.807   2.341   0.449
54279W        W21347  41.342  14.794  10.501
54280W        W21348  38.957   7.775  11.464
54281W        W21349  11.370  21.233   3.159
54282W        W21350  34.477  10.823   3.783
54283W        W21351   5.405  31.566  14.803
54284W        W21352  43.398  22.519   3.796
54285W        W21353  15.781  20.609   3.850
54286W        W21354   5.380  12.818   1.826
54287W        W21355  13.822  44.911  11.870
54288W        W21356  20.727  29.975   2.277
54289W        W21357  18.119  40.994   2.810
54290W        W21358  25.207   2.329   1.446
54291W        W21359  23.656  40.331  11.536
54292W        W21360  43.002  13.186   4.624
54293W        W21361  33.626  21.100  14.993
54294W        W21362   2.462  13.834   2.721
54295W        W21363   5.379  14.699  10.910
54296W        W21364  28.467  33.077   2.189
54297W        W21365  27.143  29.107  10.602
54298W        W21366  41.402  42.291   4.315
54299W        W21367  27.509  39.936  12.007
54300W        W21368  23.128  25.003   3.633
54301W        W21369  22.659  34.902  13.049
54302W        W21370  11.320  27.635   4.149
54303W        W21371   0.885  42.885   3.305
54304W        W21372   8.386   0.490   1.800
54305W        W21373   3.219  15.800  12.575
54306W        W21374  13.677  11.786   1.891
54307W        W21375  13.289  22.074   1.758
54308W        W21376  38.466   5.205  14.433
54309W        W21377   0.368  39.058  14.291
54310W        W21378  43.455  18.791   3.199
54311W        W21379   4.315   9.682  12.369
54312W        W21380   7.324  40.512  12.576
54313W        W21381  32.902  14.192  12.461
54314W        W21382  23.155  41.344   4.716
54315W        W21383  15.158  20.760  14.982
54316W        W21384  12.702  32.897   3.229
54317W        W21385  20.596  35.901   0.938
54318W        W21386  21.562  16.151   1.333
54319W        W21387  18.704   3.360   2.315
54320W        W21388  15.230  31.530   3.866
54321W        W21389  39.337  40.893   1.261
54322W        W21390  20.102  24.147   4.761
54323W        W21391   3.837  23.570   2.846
54324W        W21392  44.274  14.604  10.091
54325W        W21393  39.413  38.421   2.257
54326W        W21394   8.797  26.687   1.699
54327W        W21395   5.857  16.794   2.867
54328W        W21396  23.554  17.684  11.031
54329W        W21397  24.604  12.821   1.234
54330W        W21398   3.911  42.447   1.393
54331W        W21399  35.541  11.778  11.068
54332W        W21400  12.743  36.997   4.282
54333W        W21401   5.296  14.253  11.396
54334W        W21402  14.226   5.851  14.430
54335W        W21403  15.235   4.796   2.376
54336W        W21404   6.392  16.681  14.983
54337W        W21405  14.783  20.219  12.375
54338W        W21406  20.109   4.359   1.348
54339W        W21407  31.128  16.643   4.283
54340W        W21408  11.673   9.694  13.864
54341W        W21409   2.423  44.353  13.351
54342W        W21410  41.880  26.558  12.850
54343W        W21411  37.399  22.015  13.338
54344W        W21412  37.877   5.821  10.603
54345W        W21413  19.587  16.242  14.502
54346W        W21414  44.441  10.190  14.955
54347W        W21415  44.259  14.608   1.932
54348W        W21416  24.137  20.199   0.866
54349W        W21417   0.833  11.301  14.432
54350W        W21418   5.714  26.483  11.012
54351W        W21419  43.324  42.452  14.844
54352W        W21420  18.280  26.993  13.425
54353W        W21421   9.723   0.804   1.400
54354W        W21422  21.168   6.298   3.186
54355W        W21423  29.106  29.623  11.127
54356W        W21424  43.430  12.118   3.305
54357W        W21425   2.949  36.372   3.799
54358W        W21426  32.047  10.146  10.640
54359W        W21427  15.135   5.220   0.930
54360W        W21428  21.149  10.859   2.181
54361W        W21429   5.708   3.313  12.478
54362W        W21430  30.115  18.282   2.371
54363W        W21431  25.135  25.165  12.890
54364W        W21432  14.794   9.700  14.298
54365W        W21433   5.897   0.344   3.807
54366W        W21434   0.920  22.510   0.339
54367W        W21435  12.194  14.830   4.599
54368W        W21436  11.246  20.249   1.361
54369W        W21437   8.665   5.730  14.919
54370W        W21438  29.484  16.657   3.279
54371W        W21439  17.696  18.598  11.419
54372W        W21440  37.463   8.820  10.106
54373W        W21441  11.269  29.966  13.448
54374W        W21442  17.091  37.509  14.367
54375W        W21443  42.362  17.747  12.852
54376W        W21444  43.863  37.078   2.289
54377W        W21445  28.004   5.763  10.109
54378W        W21446  35.556  25.488   0.898
54379W        W21447  36.554  40.353   4.345
54380W        W21448  33.891  18.185  12.375
54381W        W21449   4.204  31.988   4.179
54382W        W21450   9.686  21.727  12.993
54383W        W21451   4.398  19.108   1.280
54384W        W21452  36.923  13.775   1.347
54385W        W21453  14.094  19.189  14.845
54386W        W21454   9.728  43.321   3.696
54387W        W21455   4.366   1.268  10.590
54388W        W21456  27.131   7.342   3.792
54389W        W21457  10.153  41.972   3.659
54390W        W21458   1.408  21.200   0.296
54391W        W21459  43.950  25.524  12.433
54392W        W21460  38.854  31.008   2.346
54393W        W21461  30.457  35.040   2.859
54394W        W21462   8.187  16.707  13.910
54395W        W21463  34.933  31.642   4.627
54396W        W21464  14.233  14.781  13.422
54397W        W21465  39.363   0.816  12.041
54398W        W21466  14.105   9.813  13.501
54399W        W21467  42.522  38.065  14.965
54400W        W21468   2.822  39.858   1.881
54401W        W21469  31.427   8.814  12.939
54402W        W21470  13.238  37.397   1.701
54403W        W21471  13.170  43.486   3.179
54404W        W21472  43.414   5.412  11.028
54405W        W21473   5.317  33.015  13.935
54406W        W21474  17.609  23.674   3.630
54407W        W21475  18.620   6.775   4.178
54408W        W21476  20.193  25.567  10.892
54409W        W21477  42.963  15.594   4.199
54410W        W21478  26.052  44.939   2.679
54411W        W21479  10.243  34.011  12.052
54412W        W21480  36.062  10.677   2.841
54413W        W21481  13.229  11.704  12.830
54414W        W21482  12.701   6.419  14.808
54415W        W21483  44.441  23.032   0.474
54416W        W21484  12.286  16.097   4.353
54417W        W21485  13.682  17.272  12.856
54418W        W21486   9.228   5.344  13.878
54419W        W21487  27.560   6.756  11.412
54420W        W21488   2.959   5.910   3.356
54421W        W21489  14.309  38.526   3.847
54422W        W21490   2.847  29.003  12.858
54423W        W21491  24.580   7.404   1.839
54424W        W21492  28.624  33.552  14.994
54425W        W21493   5.219  13.709  12.092
54426W        W21494   4.372  36.915   0.849
54427W        W21495  30.562   7.230   4.653
54428W        W21496   3.264  39.339   3.202
54429W        W21497  30.412  20.144  10.540
54430W        W21498  35.088  40.520   0.274
54431W        W21499  20.702  11.193  11.409
54432W        W21500  36.862   6.797  14.349
54433W        W21501  31.018  18.652   1.847
54434W        W21502  17.158  25.563   4.187
54435W        W21503  16.171  29.939   2.705
54436W        W21504  10.649   9.379   0.946
54437W        W21505  38.945  25.122  11.918
54438W        W21506   8.291  31.608   3.631
54439W        W21507   2.253  34.009  11.894
54440W        W21508  26.522  23.186  14.438
54441W        W21509  27.603   6.728  11.990
54442W        W21510  17.559  44.870   1.430
54443W        W21511   4.934  38.361   4.215
54444W        W21512  28.622  36.375  13.835
54445W        W21513  27.510  40.909  11.928
54446W        W21514  43.966  13.613  11.994
54447W        W21515  35.524  10.660   4.708
54448W        W21516  16.134  16.146  13.404
54449W        W21517  37.444  43.779   1.311
54450W        W21518   5.915  25.536   3.786
54451W        W21519  32.078  28.142  13.444
54452W        W21520   7.361  37.393  12.573
54453W        W21521   8.667  28.004  11.958
54454W        W21522  38.844   5.261  10.032
54455W        W21523  11.856  37.078  12.867
54456W        W21524  42.362  12.643  11.423
54457W        W21525  28.511  33.384  12.946
54458W        W21526   9.867  35.460   0.954
54459W        W21527  38.944  30.555   5.106
54460W        W21528  43.970  18.751   4.628
54461W        W21529  29.023  31.455  14.351
54462W        W21530  42.898  24.094   1.283
54463W        W21531  20.212  44.008  14.796
54464W        W21532  27.543  12.172   3.676
54465W        W21533  41.318  20.627   4.820
54466W        W21534  16.272  32.089   2.188
54467W        W21535  32.606  29.040   1.715
54468W        W21536  36.524  39.485  11.033
54469W        W21537  15.704  16.093   3.682
54470W        W21538  37.945   5.828  14.367
54471W        W21539  24.682  25.012   2.347
54472W        W21540  35.450  19.179   1.211
54473W        W21541  12.723  19.100  14.811
54474W        W21542  21.571  16.665  14.793
54475W        W21543  17.564  18.584  10.636
54476W        W21544  36.853  31.973  11.403
54477W        W21545  41.383  13.112  11.375
54478W        W21546  39.000  22.679   1.258
54479W        W21547  16.135  33.889  13.389
54480W        W21548   2.770  13.168   4.217
54481W        W21549  40.387  29.078   2.380
54482W        W21550  44.762  32.900   5.162
54483W        W21551  22.600  26.457  13.446
54484W        W21552  36.077   2.804  13.943
54485W        W21553  13.134   9.162   1.245
54486W        W21554  17.633  16.128  11.896
54487W        W21555   9.172  28.048   3.852
54488W        W21556  23.540  38.820  13.063
54489W        W21557   6.214   2.891   1.930
54490W        W21558  11.810   8.338  11.936
54491W        W21559  38.356  37.434  13.485
54492W        W21560  17.064  35.414   1.758
54493W        W21561  16.164   3.742   4.297
54494W        W21562  13.260   4.904  13.370
54495W        W21563  41.479  34.107  11.379
54496W        W21564  23.031   5.742   4.782
54497W        W21565   4.906  37.833  12.506
54498W        W21566  17.209  16.310  13.872
54499W        W21567   1.915  22.732   3.781
54500W        W21568   5.200   8.245   2.217
54501W        W21569  13.806  16.223  11.904
54502W        W21570  19.268  13.328   1.773
54503W        W21571   3.829  44.467   2.867
54504W        W21572  23.508   3.787   4.325
54505W        W21573   2.238   0.319   9.982
54506W        W21574  34.445  13.734   4.798
54507W        W21575  18.614  28.678  13.411
54508W        W21576   0.370   5.922   0.938
54509W        W21577  14.267  38.847   5.223
54510W        W21578   3.271  20.523  10.451
54511W        W21579   8.227  36.522  13.502
54512W        W21580  25.521  22.714   2.887
54513W        W21581   8.863  32.508  13.506
54514W        W21582   1.291  19.720   4.254
54515W        W21583  39.363  16.745   3.793
54516W        W21584  30.453  18.238  12.404
54517W        W21585  14.174   3.927   3.234
54518W        W21586  37.057  21.218  11.019
54519W        W21587  10.839  22.251  11.381
54520W        W21588  17.635  30.438   3.349
54521W        W21589   9.673  38.849   1.249
54522W        W21590  39.352   2.277  13.511
54523W        W21591  17.592   9.800  11.019
54524W        W21592  15.190  13.724  11.972
54525W        W21593   2.408  24.218   5.286
54526W        W21594  40.305  20.054  14.004
54527W        W21595  27.965   0.492  10.903
54528W        W21596   7.748  22.192  12.355
54529W        W21597  17.718  40.974  11.384
54530W        W21598  14.178  32.623   1.793
54531W        W21599  29.653  16.208   1.414
54532W        W21600  27.151   4.796   4.252
54533W        W21601   9.213  11.638   2.328
54534W        W21602  21.696  34.438   4.614
54535W        W21603  25.077  22.188  13.536
54536W        W21604  14.686  10.809   4.658
54537W        W21605   7.694  37.942  10.891
54538W        W21606  38.511  29.651  14.339
54539W        W21607  27.178  40.920   2.300
54540W        W21608  15.680  32.061  12.046
54541W        W21609  21.518  40.004  13.906
54542W        W21610   5.847  28.673  14.895
54543W        W21611  14.731  44.352   0.268
54544W        W21612   5.817  40.948  13.996
54545W        W21613  13.823  37.416  10.998
54546W        W21614  36.541  20.682  10.589
54547W        W21615   2.736   6.295  13.981
54548W        W21616  37.057  14.119  13.060
54549W        W21617  35.558  16.114   2.898
54550W        W21618  36.468  11.289  13.422
54551W        W21619  40.952  30.576  12.418
54552W        W21620  18.160  27.575   1.309
54553W        W21621  27.455  42.862  13.914
54554W        W21622  30.077  26.541  13.903
54555W        W21623  36.589  21.521   1.920
54556W        W21624  29.533  40.984  13.418
54557W        W21625  21.707  17.167   3.753
54558W        W21626   6.190  38.869   0.829
54559W        W21627  13.322   5.396   2.187
54560W        W21628  20.257  16.794   3.267
54561W        W21629  10.352  18.547   1.848
54562W        W21630   8.371  21.128   3.666
54563W        W21631  39.552  40.435   2.369
54564W        W21632  24.071  19.082  13.925
54565W        W21633  33.903  44.440   0.367
54566W        W21634  43.864  29.536   3.284
54567W        W21635  31.524  42.396  13.434
54568W        W21636   5.195   6.680  10.974
54569W        W21637  43.829  32.590   3.261
54570W        W21638   8.369   3.944   0.385
54571W        W21639  28.632  41.363   3.713
54572W        W21640  11.229  18.183   3.152
54573W        W21641  38.918  42.505   1.242
54574W        W21642  30.936   6.247   2.214
54575W        W21643  22.724  32.921  13.412
54576W        W21644  18.764  25.148   0.928
54577W        W21645   0.911  36.938  12.862
54578W        W21646  34.495   1.778  13.811
54579W        W21647  21.241  12.230  14.948
54580W        W21648   6.274  23.231  13.983
54581W        W21649  16.805   1.378   3.741
54582W        W21650  40.397  25.169  11.544
54583W        W21651  35.467  24.131  10.494
54584W        W21652  19.693  30.114   1.906
54585W        W21653  37.346  19.074  14.372
54586W        W21654  28.983  42.344   0.878
54587W        W21655  41.298  27.605  12.532
54588W        W21656  23.736  26.992  11.870
54589W        W21657  33.125  23.083  11.950
54590W        W21658  35.024  41.835   1.838
54591W        W21659  27.992  26.464   1.238
54592W        W21660  10.272   5.230  14.448
54593W        W21661  29.037  40.391   0.395
54594W        W21662  39.950   3.403  12.451
54595W        W21663  36.478  30.526   1.829
54596W        W21664  12.209  44.928  13.954
54597W        W21665  36.984   2.873  11.987
54598W        W21666  19.739  10.227  11.015
54599W        W21667  37.071  19.090  11.923
54600W        W21668  31.074  24.502   2.270
54601W        W21669  24.098  23.709  14.808
54602W        W21670  26.690  38.559  11.961
54603W        W21671  41.489   6.276   3.290
54604W        W21672   4.880  28.577  14.294
54605W        W21673  26.631  44.007   1.439
54606W        W21674   5.380   3.371   1.260
54607W        W21675  26.564  11.199   0.256
54608W        W21676  39.534  20.178   4.749
54609W        W21677  15.228  11.188   5.758
54610W        W21678   1.294  20.161   4.175
54611W        W21679   9.701   8.737   3.724
54612W        W21680  42.438  13.815   2.252
54613W        W21681  40.934   9.836  14.814
54614W        W21682  44.795  20.264   3.738
54615W        W21683  40.496  28.651  13.847
54616W        W21684  39.345  37.993  11.586
54617W        W21685  20.077  35.373   3.165
54618W        W21686  10.310  20.034   2.323
54619W        W21687  18.647  28.088   1.227
54620W        W21688   4.905   6.800   4.296
54621W        W21689   8.831   9.874  13.360
54622W        W21690  14.790  34.519   1.365
54623W        W21691  23.167  21.635  13.422
54624W        W21692  24.547  38.896   1.419
54625W        W21693  24.056  31.937  14.788
54626W        W21694  30.631  19.096  13.057
54627W        W21695  21.237  33.998   2.384
54628W        W21696  36.530  33.504   0.963
54629W        W21697  34.946  36.931   2.754
54630W        W21698   1.404  38.437  14.813
54631W        W21699  32.052  11.675   2.271
54632W        W21700  37.838  25.976   4.328
54633W        W21701  13.263  39.957  12.421
54634W        W21702  24.630   0.389  12.446
54635W        W21703  23.536  24.619  13.905
54636W        W21704  29.114  19.100  14.512
54637W        W21705  20.221   8.216   3.820
54638W        W21706  43.422  18.264  12.507
54639W        W21707  26.564  25.572   3.166
54640W        W21708  27.013  32.065  14.424
54641W        W21709  19.637   2.888  11.402
54642W        W21710  26.122  18.633  14.334
54643W        W21711   0.814  44.942  13.403
54644W        W21712  24.531  33.906   3.356
54645W        W21713  39.385  24.180  11.494
54646W        W21714  20.199  18.610   0.835
54647W        W21715  34.395  41.799  13.971
54648W        W21716   2.765  30.644   2.787
54649W        W21717  17.733  11.649  14.769
54650W        W21718   2.746   4.436   0.759
54651W        W21719  34.492  14.761   4.777
54652W        W21720  21.603  13.811  13.518
54653W        W21721  39.968  11.811   3.673
54654W        W21722  36.481  41.336  13.331
54655W        W21723   9.244  44.841  14.989
54656W        W21724   1.265  16.706   2.818
54657W        W21725  21.755  20.086   4.600
54658W        W21726  22.131  25.998   0.449
54659W        W21727  24.073  44.293  13.483
54660W        W21728  41.992  20.241   1.764
54661W        W21729  35.445  31.606  14.760
54662W        W21730  22.599  17.155   4.681
54663W        W21731  42.323  28.620   0.362
54664W        W21732  13.167  41.852   3.869
54665W        W21733  10.737  10.863  13.509
54666W        W21734   8.726   7.311  11.035
54667W        W21735  42.800   1.955   1.736
54668W        W21736  18.623  30.973  10.946
54669W        W21737  39.317  33.018   2.292
54670W        W21738  11.153  37.434   1.749
54671W        W21739  33.997  15.807   4.213
54672W        W21740   1.785  31.468  14.408
54673W        W21741  32.909   3.918  11.919
54674W        W21742  44.351  25.583   1.891
54675W        W21743  44.268  31.912   9.978
54676W        W21744  24.184  10.863   4.625
54677W        W21745   5.843  29.943   1.879
54678W        W21746  37.957   5.357   2.335
54679W        W21747  40.910  33.130   2.268
54680W        W21748  21.254  32.506  14.987
54681W        W21749   5.338  42.923   3.148
54682W        W21750  32.500  13.167  11.906
54683W        W21751  23.130  35.424  10.640
54684W        W21752  38.887  29.013  13.977
54685W        W21753  22.143  27.165   4.810
54686W        W21754  43.408  25.090   1.408
54687W        W21755  26.649   6.393  13.003
54688W        W21756  35.981  24.003   4.610
54689W        W21757  15.087  37.513   0.242
54690W        W21758  13.796  32.425  13.930
54691W        W21759  10.361  11.766   5.257
54692W        W21760  10.679  39.339  11.096
54693W        W21761  17.228  33.436   9.951
54694W        W21762  42.967  35.012  13.856
54695W        W21763  28.480  18.086   0.275
54696W        W21764  24.184  28.655  12.500
54697W        W21765  41.794   7.342  14.458
54698W        W21766  29.641  41.850   3.645
54699W        W21767  39.835  21.515  14.892
54700W        W21768   2.856  13.710  14.915
54701W        W21769  17.724  14.119  13.374
54702W        W21770  40.320  33.393  10.511
54703W        W21771  37.055  44.400   4.142
54704W        W21772  35.367  31.615   1.710
54705W        W21773  42.386  38.366  10.467
54706W        W21774  15.204  11.203  14.933
54707W        W21775  25.530  44.861  10.413
54708W        W21776   1.342  11.855   1.446
54709W        W21777  27.672  17.241   2.204
54710W        W21778  34.932  24.578   0.415
54711W        W21779  20.531   0.790  14.516
54712W        W21780  39.474  13.189  14.994
54713W        W21781  38.355  16.316  11.939
54714W        W21782  34.081  40.540   4.605
54715W        W21783  32.009  18.057   2.189
54716W        W21784  39.317   1.383  11.904
54717W        W21785  20.274  24.068  11.527
54718W        W21786  10.750  39.444   3.286
54719W        W21787  23.103  39.530   0.945
54720W        W21788  10.337   3.733  13.468
54721W        W21789  29.010  30.609   1.416
54722W        W21790   2.937  44.798  14.955
54723W        W21791  25.591  18.064   9.929
54724W        W21792  17.277  33.533   1.893
54725W        W21793  25.646  32.139  10.552
54726W        W21794  12.195  14.673   1.388
54727W        W21795   0.297   9.236  10.459
54728W        W21796   3.221  12.299  11.002
54729W        W21797  18.731  24.056   5.201
54730W        W21798  18.156   3.780   4.809
54731W        W21799  12.816  42.951  12.476
54732W        W21800   4.417  18.181  14.416
54733W        W21801  44.287  25.169  10.017
54734W        W21802   0.812  11.729  11.587
54735W        W21803  33.031  23.197   2.735
54736W        W21804  26.079   3.934   2.875
54737W        W21805   2.457  16.182   4.222
54738W        W21806  13.231  35.536  10.921
54739W        W21807  11.725  30.460   2.291
54740W        W21808   5.258  32.129   2.180
54741W        W21809   7.237   5.885  13.977
54742W        W21810   8.751  35.074   4.633
54743W        W21811  30.562   9.188  11.375
54744W        W21812   0.788  41.927   0.938
54745W        W21813  27.961  36.558  11.609
54746W        W21814  30.036   1.354  12.944
54747W        W21815  21.180   6.355  10.556
54748W        W21816   0.485  36.006  10.424
54749W        W21817   4.919  24.122  11.397
54750W        W21818  23.194   8.331  10.593
54751W        W21819  34.033  36.011  14.333
54752W        W21820  28.539  28.966   1.289
54753W        W21821  19.087  20.526   0.335
54754W        W21822  44.443   6.310   2.229
54755W        W21823   5.240  35.425  13.514
54756W        W21824  35.892  19.280   1.729
54757W        W21825  16.204  15.320   4.175
54758W        W21826   5.799  40.889  11.084
54759W        W21827  20.744   1.740   3.791
54760W        W21828  34.006  28.564  11.432
54761W        W21829   0.957  33.023  12.357
54762W        W21830  36.932  35.359   1.730
54763W        W21831  26.599  30.921  14.864
54764W        W21832  35.009   4.415  13.862
54765W        W21833  29.529  14.812   3.238
54766W        W21834  10.328  15.780   0.358
54767W        W21835  36.970  20.149  12.426
54768W        W21836  44.399  18.681   1.247
54769W        W21837   3.238  44.348   1.212
54770W        W21838  11.857  36.472  11.908
54771W        W21839  44.863   8.345   0.347
54772W        W21840  27.458  44.306  12.083
54773W        W21841  43.986  39.851   3.274
54774W        W21842  29.502  16.792   1.865
54775W        W21843  10.371  35.098   1.364
54776W        W21844   2.241   2.720   1.718
54777W        W21845  23.044  15.713   1.823
54778W        W21846  34.960  35.952  10.439
54779W        W21847  15.309   7.839   5.275
54780W        W21848  40.373   0.886  11.468
54781W        W21849  15.646  43.817  13.533
54782W        W21850  18.629  27.641   0.390
54783W        W21851  39.955  13.241  12.546
54784W        W21852  14.140  31.052  12.872
54785W        W21853   7.843  32.541   0.937
54786W        W21854  20.644  38.345  14.872
54787W        W21855  10.636  29.088  14.031
54788W        W21856  40.399  33.424   4.698
54789W        W21857  23.596  25.570   0.833
54790W        W21858  41.968   2.830   3.703
54791W        W21859  41.919   6.909   1.801
54792W        W21860   6.768   6.779  11.397
54793W        W21861  44.883  18.757  11.377
54794W        W21862  11.245  44.827  11.120
54795W        W21863   0.401  42.361   3.267
54796W        W21864  30.447   4.910  13.425
54797W        W21865  14.665  43.997   1.708
54798W        W21866  30.981  22.690  12.430
54799W        W21867  34.577  39.048   0.469
54800W        W21868  22.130  23.713   4.801
54801W        W21869  44.436  27.054  10.613
54802W        W21870   6.396  14.718  12.088
54803W        W21871   6.836  17.766   4.350
54804W        W21872   2.833  27.509  11.040
54805W        W21873  20.103  29.560   4.240
54806W        W21874  41.471   5.801  13.848
54807W        W21875  26.556  10.329  11.020
54808W        W21876  42.371  28.157  12.042
54809W        W21877  28.128   0.836  13.353
54810W        W21878  32.521   0.803   0.901
54811W        W21879  34.615  38.894  12.016
54812W        W21880   5.848  43.344  12.400
54813W        W21881  36.547  31.638  13.310
54814W        W21882  27.155  28.111  10.510
54815W        W21883  31.929  22.532   3.694
54816W        W21884  39.946  14.153  11.100
54817W        W21885   6.856  37.044  14.362
54818W        W21886  39.973  20.522  11.125
54819W        W21887  33.033  38.832   2.742
54820W        W21888  10.144  38.064   4.198
54821W        W21889  20.537  25.988   2.723
54822W        W21890  32.952  21.189   4.153
54823W        W21891   1.974   1.814   2.407
54824W        W21892  40.312   2.828  13.478
54825W        W21893  36.939   4.775   4.658
54826W        W21894  41.347   7.800  13.312
54827W        W21895  17.569  20.217   5.749
54828W        W21896   0.331  11.133   2.331
54829W        W21897  38.854  43.858  11.969
54830W        W21898  19.624  31.915  14.769
54831W        W21899  17.163  23.667   5.218
54832W        W21900   7.319  37.506   1.701
54833W        W21901  38.455   7.871   3.698
54834W        W21902  41.501   4.839  14.009
54835W        W21903  36.447  44.763  12.517
54836W        W21904  10.254  14.753  12.526
54837W        W21905  17.242   8.859  14.834
54838W        W21906   3.773  31.461   2.859
54839W        W21907   2.377  27.607  12.468
54840W        W21908  31.406   6.781   0.745
54841W        W21909   1.863   4.860   1.255
54842W        W21910   8.333  19.231   5.109
54843W        W21911  37.987   7.204   2.202
54844W        W21912   3.305  15.200  11.452
54845W        W21913  24.041  37.908   2.388
54846W        W21914  24.987  12.158  11.924
54847W        W21915  27.111   7.667   2.867
54848W        W21916  14.687  32.899   4.697
54849W        W21917   0.333  19.610  12.036
54850W        W21918  10.376  17.271   3.870
54851W        W21919  20.766  16.624   2.295
54852W        W21920  39.346  17.194   4.703
54853W        W21921   0.335  33.624  12.568
54854W        W21922  44.836  11.241  13.876
54855W        W21923  33.038  30.109   1.785
54856W        W21924  10.188  28.561   1.261
54857W        W21925  35.582  16.801   1.378
54858W        W21926  26.526  12.281   1.233
54859W        W21927  43.489  22.216   1.724
54860W        W21928  13.146  28.056   0.350
54861W        W21929  35.378   0.302  13.537
54862W        W21930  37.861  25.675  12.357
54863W        W21931  32.450  16.799   0.309
54864W        W21932  10.648   9.330   2.232
54865W        W21933  33.124  39.989   3.248
54866W        W21934  10.145  39.992   2.747
54867W        W21935  21.666  20.652  13.529
54868W        W21936  21.082   1.370  13.033
54869W        W21937  25.597  37.907   2.682
54870W        W21938   5.836   9.356   4.149
54871W        W21939  22.234  41.919  14.359
54872W        W21940  31.105  30.143  14.438
54873W        W21941  24.631  10.210  14.864
54874W        W21942  26.700  40.863  11.037
54875W        W21943  41.352  24.088   4.704
54876W        W21944  18.258  44.282  13.949
54877W        W21945  35.937   2.299   4.677
54878W        W21946  35.594   5.298   4.176
54879W        W21947  22.601  15.185  10.538
54880W        W21948  21.024  23.652  12.910
54881W        W21949  14.145   9.320  10.976
54882W        W21950  13.140  20.729   0.318
54883W        W21951  11.660  37.380   1.210
54884W        W21952  14.212  40.531  11.603
54885W        W21953   3.950  24.991   4.605
54886W        W21954  23.095  32.606   4.792
54887W        W21955  23.649  29.029   3.711
54888W        W21956   6.354   0.886   0.324
54889W        W21957  30.087  36.348   3.659
54890W        W21958  32.025   5.359  12.463
54891W        W21959  21.223  14.149  11.999
54892W        W21960  16.728   0.320  13.833
54893W        W21961  19.718  30.928  10.950
54894W        W21962  39.989  26.663   4.656
54895W        W21963  29.040  15.315   5.291
54896W        W21964  27.493  12.805  13.050
54897W        W21965  34.424  42.497  10.994
54898W        W21966   2.265   7.301  13.940
54899W        W21967  33.619   0.907  14.810
54900W        W21968  35.059  42.969   3.230
54901W        W21969  29.145  16.722  10.574
54902W        W21970   5.202  37.906  13.445
54903W        W21971  13.300  13.702  11.865
54904W        W21972   3.956   0.988  14.428
54905W        W21973  28.673   5.370  10.420
54906W        W21974  16.689  24.636  12.912
54907W        W21975  27.447  40.309   0.415
54908W        W21976   5.318  37.055  14.494
54909W        W21977  27.989   7.896   1.918
54910W        W21978  21.149  43.444  13.413
54911W        W21979  36.471  23.211  11.434
54912W        W21980  37.049   7.248  13.518
54913W        W21981  38.457   9.845  14.963
54914W        W21982  24.014  22.159  11.088
54915W        W21983   5.211  30.033   2.818
54916W        W21984  23.091   7.839  13.894
54917W        W21985  22.546  28.457  12.364
54918W        W21986  26.976   3.226   3.736
54919W        W21987  30.429  10.730  10.626
54920W        W21988  24.992  25.681  10.991
54921W        W21989  26.973  18.160   2.815
54922W        W21990  30.471  11.316   0.448
54923W        W21991  15.621  28.127  13.835
54924W        W21992  14.759  37.372  10.096
54925W        W21993  44.371   5.311   2.823
54926W        W21994  13.123  20.687   4.316
54927W        W21995  15.232  20.190  10.043
54928W        W21996   2.899  26.204   4.211
54929W        W21997  13.219   9.723   2.214
54930W        W21998  12.848  25.584  13.977
54931W        W21999  13.742   2.798   0.474
54932W        W22000   7.388  32.530   1.282
54933W        W22001  23.036  31.431   2.728
54934W        W22002  12.220   8.842   0.337
54935W        W22003  35.013  36.358   2.742
54936W        W22004  20.246  33.911   0.447
54937W        W22005  24.096  21.600   0.338
54938W        W22006  33.393  11.169  13.521
54939W        W22007   4.834  16.178  12.048
54940W        W22008  10.244  40.377  11.605
54941W        W22009  10.312  13.299   2.801
54942W        W22010  34.550  35.060   4.638
54943W        W22011   3.370  26.599   3.676
54944W        W22012   6.909  15.753   3.759
54945W        W22013  44.417   0.490   2.418
54946W        W22014   2.434   3.261  14.476
54947W        W22015  28.623   0.369   1.905
54948W        W22016  24.566  11.261   2.719
54949W        W22017  19.184  33.521   3.348
54950W        W22018  41.039   2.931  14.443
54951W        W22019  33.975   7.691   2.661
54952W        W22020   8.173  10.839  12.896
54953W        W22021  27.058  22.142   4.743
54954W        W22022  30.134  27.503   9.597
54955W        W22023   2.757   2.469   1.873
54956W        W22024  27.037  20.245  11.110
54957W        W22025  28.162   4.894   5.310
54958W        W22026  14.260  22.096   2.679
54959W        W22027  30.597  43.976   0.897
54960W        W22028  20.203  15.667   3.646
54961W        W22029  34.943  15.221   3.692
54962W        W22030  27.495  17.757   2.859
54963W        W22031  34.008   8.385  13.062
54964W        W22032   1.874  13.746  12.885
54965W        W22033  29.547   6.898   4.814
54966W        W22034  24.604  23.636  13.482
54967W        W22035  42.923   2.810  14.286
54968W        W22036  38.974  15.091  12.897
54969W        W22037   6.372   0.894  12.405
54970W        W22038  29.012  16.148  14.285
54971W        W22039  30.651  39.877  14.904
54972W        W22040   5.865  18.069   4.278
54973W        W22041  35.603  24.590  14.796
54974W        W22042  13.292   0.494   5.218
54975W        W22043  39.935  31.089   1.830
54976W        W22044  29.606  40.519  10.957
54977W        W22045  43.861  30.591  14.400
54978W        W22046  43.998   8.311   1.834
54979W        W22047   6.872   4.212   2.682
54980W        W22048  23.200  32.079   3.694
54981W        W22049   3.848  27.607  14.850
54982W        W22050  44.918  22.719  14.426
54983W        W22051  34.103  25.986   2.291
54984W        W22052  36.409  12.625  10.406
54985W        W22053  14.291  33.051  13.828
54986W        W22054   8.370   6.402   3.350
54987W        W22055  13.175   3.711   1.210
54988W        W22056  35.081  19.643   3.154
54989W        W22057  13.144  33.457   4.230
54990W        W22058  11.312  29.651  14.858
54991W        W22059   5.300  25.044  10.494
54992W        W22060  23.679  16.283   0.274
54993W        W22061   1.735   7.398   3.732
54994W        W22062  32.472  16.615  11.500
54995W        W22063  38.058  21.202  11.433
54996W        W22064  39.049  10.139   0.401
54997W        W22065  28.625   9.197  14.793
54998W        W22066  14.698  13.345  11.544
54999W        W22067  23.511  39.954   4.750
55000W        W22068   5.389  39.505   0.771
55001W        W22069  26.609  17.702   3.738
55002W        W22070  27.502  34.579  10.603
55003W        W22071  28.637  35.035  12.367
55004W        W22072  20.715  17.671  14.391
55005W        W22073  32.997  32.137   1.367
55006W        W22074   0.924  41.863  14.987
55007W        W22075  22.611  36.019  10.130
55008W        W22076  25.080  29.519  12.915
55009W        W22077  37.070  21.028   2.705
55010W        W22078  18.095  35.024   0.946
55011W        W22079  25.033  20.665   1.728
55012W        W22080  16.783  32.945   3.668
55013W        W22081  10.664  36.513   3.869
55014W        W22082  40.831   4.428   4.314
55015W        W22083   5.919  23.729  11.489
55016W        W22084  42.966  41.423  14.892
55017W        W22085  39.393  42.392   4.753
55018W        W22086  12.807  39.385   3.793
55019W        W22087  25.579  26.001   4.641
55020W        W22088  26.474  38.853   3.216
55021W        W22089   7.342  32.894   0.338
55022W        W22090  23.681  19.229  11.929
55023W        W22091   4.753  39.007  14.503
55024W        W22092  38.537   5.263  14.914
55025W        W22093  19.233  11.758  12.900
55026W        W22094  29.477  30.099  11.007
55027W        W22095  17.278  34.480   0.424
55028W        W22096  36.403   4.843  12.839
55029W        W22097  41.901  31.632   4.639
55030W        W22098   1.860  23.509   0.823
55031W        W22099   0.744   5.860  11.964
55032W        W22100  42.415  11.748  11.611
55033W        W22101  27.688  32.419  11.875
55034W        W22102  26.142   7.747   2.197
55035W        W22103   2.264  38.917   0.880
55036W        W22104  26.982  13.205   0.788
55037W        W22105  43.433   1.351  14.849
55038W        W22106  28.653  15.297  13.335
55039W        W22107  23.596  14.150  13.496
55040W        W22108  41.446  41.422   4.776
55041W        W22109  26.653  21.614  11.580
55042W        W22110  11.175   8.262  12.397
55043W        W22111   4.440  16.755   1.819
55044W        W22112   6.403  22.689  14.870
55045W        W22113  27.176  12.652  14.953
55046W        W22114  11.631  21.617   1.700
55047W        W22115  15.111   2.420  13.836
55048W        W22116  35.420  37.427   0.346
55049W        W22117  29.070   0.761  10.535
55050W        W22118  33.441  23.719  13.535
55051W        W22119  33.087  37.848  13.025
55052W        W22120   4.392  42.786  13.326
55053W        W22121  25.128  33.602   1.210
55054W        W22122  13.617  19.082  12.554
55055W        W22123  35.519   1.789   4.156
55056W        W22124  15.660  16.691   0.425
55057W        W22125  36.992  40.837   2.212
55058W        W22126  41.367  26.698   5.278
55059W        W22127  30.499  34.547   1.233
55060W        W22128  22.517  34.440  11.102
55061W        W22129  27.624  37.060  10.986
55062W        W22130  37.040  39.929  11.514
55063W        W22131  17.100  18.735  11.520
55064W        W22132  17.250  30.608   2.802
55065W        W22133   6.297   0.843  11.535
55066W        W22134  41.994  44.998   2.407
55067W        W22135  43.886  34.972  14.906
55068W        W22136   0.822  23.993  11.977
55069W        W22137  33.428  35.100   3.340
55070W        W22138  25.184   5.700  13.458
55071W        W22139  16.089   4.232   1.695
55072W        W22140  16.633  14.621  11.052
55073W        W22141  13.247  13.657   4.730
55074W        W22142  30.058   1.853   4.155
55075W        W22143  35.436  43.428  13.804
55076W        W22144  26.537  24.214  13.932
55077W        W22145   7.904  30.024  14.767
55078W        W22146  26.586  30.553  10.939
55079W        W22147   1.808   7.687  13.402
55080W        W22148  18.159   6.862  12.477
55081W        W22149  18.168  18.774   1.441
55082W        W22150  23.140  30.073  10.598
55083W        W22151   2.786  15.124   1.903
55084W        W22152  21.177   4.293   3.843
55085W        W22153  27.611  16.598   1.426
55086W        W22154  10.831  19.143  12.928
55087W        W22155  10.827   3.782   4.119
55088W        W22156  42.956   4.235  11.122
55089W        W22157  44.301  18.751   0.965
55090W        W22158  41.974   5.917   3.342
55091W        W22159  25.701  10.871  11.604
55092W        W22160  25.629  32.100  10.016
55093W        W22161  41.037  26.019   3.371
55094W        W22162   0.795  21.049   1.701
55095W        W22163  30.658  41.464   2.407
55096W        W22164  14.833  24.598   4.634
55097W        W22165   1.765  13.675   1.407
55098W        W22166  16.238  10.164  12.835
55099W        W22167  16.229  30.110   1.828
55100W        W22168  23.081  34.953  10.460
55101W        W22169   8.782   3.432   4.194
55102W        W22170   4.712  12.680  14.994
55103W        W22171  29.062   7.888   2.313
55104W        W22172   0.897  19.555   0.414
55105W        W22173  43.890  34.893   5.180
55106W        W22174  12.717  34.059   1.390
55107W        W22175   7.216  39.930   3.796
55108W        W22176   6.208  40.464   1.256
55109W        W22177  37.037  30.980  12.994
55110W        W22178  32.454   6.273   4.796
55111W        W22179   3.845  40.995   4.828
55112W        W22180  20.523  20.707  14.358
55113W        W22181  37.997  36.008   0.389
55114W        W22182  17.168   7.349   2.841
55115W        W22183  41.032   0.838   1.701
55116W        W22184   9.211   7.296   4.219
55117W        W22185  32.453   2.342   1.223
55118W        W22186  21.125  13.311  10.581
55119W        W22187  16.092  43.774  12.482
55120W        W22188  36.362   7.226   5.110
55121W        W22189  32.087  44.320   2.254
55122W        W22190  25.215  19.210   3.814
55123W        W22191  34.513  22.250   1.808
55124W        W22192  40.803   1.275   4.250
55125W        W22193  18.063  20.542   0.273
55126W        W22194  10.188  16.695   1.782
55127W        W22195  41.017  12.218  11.572
55128W        W22196  11.325  40.434  14.770
55129W        W22197   1.814  25.062   0.843
55130W        W22198   5.269  41.842   0.247
55131W        W22199  24.223  19.567   1.451
55132W        W22200  44.286  35.044   4.637
55133W        W22201   7.356  28.555  12.482
55134W        W22202  23.239  30.464   1.831
55135W        W22203   1.432  22.177  13.946
55136W        W22204  27.514   9.806  10.519
55137W        W22205   3.808  16.132   4.749
55138W        W22206   4.783  41.374  12.567
55139W        W22207  11.805  39.319  13.389
55140W        W22208  27.159  29.953   4.346
55141W        W22209  14.201  11.725  11.048
55142W        W22210  43.869  34.419  13.912
55143W        W22211  21.130  13.214   1.226
55144W        W22212   3.277   2.954  11.464
55145W        W22213  41.821  12.698   4.140
55146W        W22214  16.168  15.782  11.970
55147W        W22215  26.600  13.239  12.442
55148W        W22216   7.307  39.941   1.436
55149W        W22217  30.592  36.891  13.438
55150W        W22218  35.914   6.213  14.989
55151W        W22219   5.195  16.207  11.965
55152W        W22220  24.561   1.306  14.466
55153W        W22221  23.634  17.680  10.428
55154W        W22222  25.051  28.990  14.793
55155W        W22223   4.833   8.758   4.194
55156W        W22224  15.087  40.008   2.407
55157W        W22225   0.841  25.609   3.851
55158W        W22226   0.466  16.713  13.511
55159W        W22227  17.198   4.297  14.284
55160W        W22228   0.976  21.105   2.384
55161W        W22229  10.877  24.513  11.490
55162W        W22230  25.056  28.101   0.406
55163W        W22231  13.308  21.583  14.006
55164W        W22232  34.995   6.244   4.281
55165W        W22233   3.714  31.441   4.651
55166W        W22234  32.909   5.720  14.496
55167W        W22235  38.832  11.210   3.387
55168W        W22236  29.015  34.473  12.075
55169W        W22237  32.565  32.571  11.480
55170W        W22238  43.798  42.850  12.956
55171W        W22239   9.392   3.275   0.421
55172W        W22240  25.571  42.468   1.301
55173W        W22241  38.536  22.997  11.602
55174W        W22242  16.709  30.461  11.101
55175W        W22243  17.632  38.841  12.360
55176W        W22244   5.885   0.810  11.507
55177W        W22245  19.696  18.129   3.177
55178W        W22246  14.761  21.029  11.939
55179W        W22247  11.847  11.626  11.570
55180W        W22248  14.098  21.109   0.944
55181W        W22249  13.333  19.779   1.252
55182W        W22250  41.293   6.773  12.437
55183W        W22251  15.126  43.410  11.867
55184W        W22252  40.802  14.273  11.039
55185W        W22253  41.845  16.683   2.880
55186W        W22254  10.643   4.936  10.418
55187W        W22255  15.257  23.220  12.378
55188W        W22256  44.263  26.632   0.922
55189W        W22257  33.877  43.963  12.441
55190W        W22258  22.059  12.172   2.225
55191W        W22259  20.150  40.848   3.213
55192W        W22260   1.909  35.555  13.361
55193W        W22261  35.979  36.518   0.347
55194W        W22262  27.095  44.328  13.509
55195W        W22263   6.692   1.804  14.952
55196W        W22264  26.186  11.334  13.016
55197W        W22265  30.467  37.013   1.920
55198W        W22266  15.586  39.842   1.357
55199W        W22267   3.234   7.903  14.893
55200W        W22268  10.245  39.844   0.457
55201W        W22269  19.252  37.444   3.822
55202W        W22270  16.110  16.221   1.862
55203W        W22271   2.467   5.818   3.705
55204W        W22272  22.124  33.106   1.288
55205W        W22273  39.519  37.008   0.789
55206W        W22274  41.399  28.950   3.373
55207W        W22275   3.709  17.677   3.249
55208W        W22276  30.593   8.395  13.503
55209W        W22277  37.909  38.458  10.434
55210W        W22278   7.302  41.851   1.384
55211W        W22279  40.827   9.842   2.875
55212W        W22280  12.710  37.973   4.229
55213W        W22281  14.689  37.566  14.856
55214W        W22282  31.643  23.143  11.963
55215W        W22283  39.913  34.928   4.740
55216W        W22284  39.884  27.075   1.262
55217W        W22285  11.178   6.275  10.945
55218W        W22286  35.018  22.143  10.110
55219W        W22287   1.376   8.322   0.372
55220W        W22288   3.851   8.668  12.062
55221W        W22289  40.937  15.722   0.298
55222W        W22290  41.917  10.643  14.926
55223W        W22291  29.133  26.604   0.765
55224W        W22292  30.142   6.245  13.542
55225W        W22293  38.403  16.295  12.385
55226W        W22294  19.722   2.407  10.888
55227W        W22295  23.153  13.646   3.677
55228W        W22296  25.599  19.053   4.215
55229W        W22297  16.767   1.251   4.824
55230W        W22298  26.145  26.562  13.004
55231W        W22299  15.122  10.273  12.472
55232W        W22300  42.997  29.154  14.989
55233W        W22301  21.124   4.324   1.408
55234W        W22302   2.434  27.100  13.883
55235W        W22303  24.197  29.062   4.661
55236W        W22304  12.186  24.127  13.383
55237W        W22305  26.639  39.989  13.512
55238W        W22306  39.903  22.514   2.779
55239W        W22307  29.023  33.509   2.392
55240W        W22308  30.512   5.318   0.437
55241W        W22309  29.523  39.921   0.390
55242W        W22310   8.164  23.644  13.823
55243W        W22311  23.543  25.670  11.470
55244W        W22312  10.264  20.267   3.210
55245W        W22313   7.893  40.882   0.777
55246W        W22314  28.632  28.044   2.879
55247W        W22315  28.949  34.381  11.562
55248W        W22316  33.428  14.595   3.178
55249W        W22317  41.896  14.601   1.890
55250W        W22318  35.503   2.380   4.676
55251W        W22319  18.253   7.862  12.976
55252W        W22320   3.218  35.460   3.317
55253W        W22321  26.140  18.128   0.404
55254W        W22322  20.079  44.793   3.813
55255W        W22323  27.185  34.490  14.431
55256W        W22324  14.654  13.190   4.675
55257W        W22325  34.498   4.341  11.915
55258W        W22326  29.532   5.709  11.068
55259W        W22327   0.793   9.749  11.551
55260W        W22328  13.178  41.807  11.412
55261W        W22329  37.904  30.122  13.334
55262W        W22330  34.594   0.361   3.358
55263W        W22331  20.226  25.089   0.920
55264W        W22332   4.253  38.929  11.022
55265W        W22333  26.632  36.922   2.854
55266W        W22334  40.893  39.557   3.707
55267W        W22335   3.863   8.251  13.815
55268W        W22336   8.886  26.024  10.606
55269W        W22337   4.936  25.978   1.765
55270W        W22338   4.838  35.383  13.405
55271W        W22339  23.139  19.188  11.531
55272W        W22340  36.894  10.200  11.585
55273W        W22341  24.656  22.148   0.397
55274W        W22342   4.923  25.534   3.869
55275W        W22343   4.203  26.611  12.446
55276W        W22344  38.527  24.699   1.325
55277W        W22345  44.476  10.262   2.332
55278W        W22346   5.408  19.226  11.863
55279W        W22347  35.037  43.498  13.335
55280W        W22348  20.104  36.012  13.814
55281W        W22349  13.837  30.455  14.943
55282W        W22350   7.781   8.273  11.531
55283W        W22351  31.534  30.542  13.366
55284W        W22352  16.262  16.658   4.818
55285W        W22353  34.532  28.492  10.996
55286W        W22354  43.440  26.194  14.793
55287W        W22355  27.006  34.110  11.573
55288W        W22356  38.386  13.139   0.338
55289W        W22357  29.125  44.866  14.890
55290W        W22358  42.415  12.838   4.285
55291W        W22359  16.177  31.611   0.922
55292W        W22360  15.781  43.799  12.913
55293W        W22361   9.242  35.908   0.860
55294W        W22362   6.681   0.305   1.867
55295W        W22363  44.389  26.200   4.264
55296W        W22364   2.943  17.702   4.674
55297W        W22365  28.158   4.923  11.390
55298W        W22366  31.000  38.018   2.217
55299W        W22367  31.432   4.437  13.465
55300W        W22368   0.488  31.947  14.944
55301W        W22369  38.417   2.382  14.304
55302W        W22370  25.635  28.033  12.909
55303W        W22371  37.038  40.417  11.485
55304W        W22372  38.843   5.316   2.902
55305W        W22373  40.967   7.674  10.522
55306W        W22374  14.294  26.564   3.179
55307W        W22375  35.102  32.500   0.462
55308W        W22376  28.128  17.784  10.913
55309W        W22377  14.166  24.572   2.337
55310W        W22378  21.262  38.991   1.832
55311W        W22379  13.293  28.011   2.327
55312W        W22380  29.558  43.485  10.960
55313W        W22381  37.580  32.558  11.423
55314W        W22382  42.888  27.490   0.396
55315W        W22383   6.389  40.477  13.473
55316W        W22384  42.962  15.719  13.480
55317W        W22385   7.222   8.320   1.293
55318W        W22386   2.415  44.474  10.436
55319W        W22387   1.239  15.815  13.383
55320W        W22388  12.221  18.141   0.459
55321W        W22389  23.168  32.630  10.544
55322W        W22390  18.250   0.931  11.496
55323W        W22391  39.351  21.195  14.991
55324W        W22392   5.893   4.730   0.772
55325W        W22393  10.633   4.706  13.952
55326W        W22394  13.608  35.402   3.676
55327W        W22395   7.406  14.619   2.889
55328W        W22396  32.005  43.935   3.660
55329W        W22397  25.547  31.605   2.685
55330W        W22398   8.762  23.630   4.636
55331W        W22399   7.262  29.047  13.353
55332W        W22400  16.667   9.228   0.734
55333W        W22401  29.136   5.288   1.256
55334W        W22402  30.578  39.022   1.212
55335W        W22403  26.621  22.134  12.524
55336W        W22404  40.976  10.739   0.830
55337W        W22405  16.289  15.810   2.412
55338W        W22406  33.548  38.968   2.665
55339W        W22407   9.232  42.482   1.381
55340W        W22408  13.755   8.851  12.830
55341W        W22409   4.264  44.917   4.140
55342W        W22410  22.560  19.709   2.380
55343W        W22411  13.272  22.729   2.778
55344W        W22412   0.377   8.178  14.364
55345W        W22413  41.360  26.501  14.484
55346W        W22414  23.607  22.161   2.308
55347W        W22415   9.309   2.422   0.266
55348W        W22416  22.050  32.499  11.499
55349W        W22417   8.297  20.659   0.422
55350W        W22418  10.729  39.956   0.805
55351W        W22419  25.115  15.596  14.500
55352W        W22420  40.326  25.170  11.004
55353W        W22421   0.961  21.592  12.350
55354W        W22422  44.436  28.960  10.002
55355W        W22423   1.819  13.309  14.920
55356W        W22424  10.712  41.000  13.345
55357W        W22425  22.038  14.193   4.682
55358W        W22426   7.666  11.326  13.034
55359W        W22427   0.365   3.925   4.132
55360W        W22428  33.388  16.631   0.268
55361W        W22429  28.454  31.478   1.857
55362W        W22430  40.009  29.544  11.548
55363W        W22431   9.890   5.382  14.937
55364W        W22432   4.706  38.329  12.062
55365W        W22433   6.781  21.071   4.775
55366W        W22434   3.856  43.295   3.312
55367W        W22435  23.600  23.599   0.284
55368W        W22436  13.270  20.714   0.817
55369W        W22437   2.315  44.261   4.198
55370W        W22438   7.355   0.347  11.557
55371W        W22439  26.510   8.806  10.486
55372W        W22440  16.110  13.255   3.721
55373W        W22441   0.952  36.587   3.722
55374W        W22442  23.574  17.085  14.819
55375W        W22443  39.011  29.164  13.387
55376W        W22444  26.620  44.455   0.805
55377W        W22445  25.977  34.449  12.987
55378W        W22446  37.343  29.927  11.906
55379W        W22447  13.190  30.920  11.492
55380W        W22448  14.811  41.484  10.987
55381W        W22449   5.329  35.587  11.514
55382W        W22450  20.706  31.486   1.914
55383W        W22451  13.282  32.567   1.768
55384W        W22452  28.600  28.474   1.827
55385W        W22453  19.109  38.979  10.015
55386W        W22454   8.370   5.349  11.889
55387W        W22455  33.002   3.722   4.692
55388W        W22456  26.053  22.682   4.723
55389W        W22457  41.414  33.518  14.783
55390W        W22458  37.510   8.347   3.255
55391W        W22459  14.225  43.398   4.680
55392W        W22460  44.427   7.177  11.432
55393W        W22461  43.860   3.871   2.853
55394W        W22462   0.820  14.117  13.806
55395W        W22463  41.538   8.349  13.402
55396W        W22464  39.377  27.633  11.566
55397W        W22465  32.480  40.839   3.315
55398W        W22466  21.247  27.614  13.318
55399W        W22467  37.989  33.429  13.477
55400W        W22468  20.720  40.914   1.751
55401W        W22469  15.644  43.391   3.764
55402W        W22470  26.170  44.990   3.808
55403W        W22471  25.577  28.020   0.767
55404W        W22472   4.206  15.821  12.528
55405W        W22473  19.266  43.319  10.636
55406W        W22474  30.946   4.717   3.786
55407W        W22475  26.983  15.799  12.915
55408W        W22476  41.319  19.611   3.669
55409W        W22477  35.108   3.819  14.895
55410W        W22478  20.101  34.393  12.431
55411W        W22479   9.665  25.156  14.342
55412W        W22480  10.183  44.769   3.845
55413W        W22481   3.240  27.137   3.300
55414W        W22482  15.773  12.613  11.899
55415W        W22483  30.658  36.847   3.269
55416W        W22484   5.239  14.757  11.501
55417W        W22485  13.173  21.662   3.250
55418W        W22486  19.117   4.876   1.261
55419W        W22487  40.541  38.064  13.488
55420W        W22488   5.928  33.044  11.537
55421W        W22489   5.733  20.751   3.863
55422W        W22490  19.227  22.638  10.515
55423W        W22491  25.182   3.812   3.317
55424W        W22492  26.668  26.473  11.543
55425W        W22493  20.067  38.379   0.297
55426W        W22494  44.314  39.554   0.857
55427W        W22495  17.787  18.720   1.384
55428W        W22496  41.936  17.624  13.485
55429W        W22497  31.055  26.173   3.846
55430W        W22498  33.034  24.049   3.867
55431W        W22499  21.189  37.059  10.129
55432W        W22500   5.798  38.495  13.946
55433W        W22501   7.879  29.121   5.082
55434W        W22502  23.994  31.416  10.508
55435W        W22503  41.881  32.595  10.637
55436W        W22504  11.148  17.697  10.457
55437W        W22505   9.669  27.476  10.976
55438W        W22506  42.291  29.610   0.888
55439W        W22507  29.938  20.612   2.797
55440W        W22508   2.454  31.405   2.349
55441W        W22509  26.522  10.831  11.605
55442W        W22510  32.506  29.616   9.979
55443W        W22511  17.253   2.446   1.329
55444W        W22512  14.222   5.734  11.427
55445W        W22513  20.700  24.185  13.453
55446W        W22514  32.000  13.258  11.586
55447W        W22515  34.116  44.376  12.400
55448W        W22516  39.041  34.929  13.813
55449W        W22517  25.995  23.173  11.925
55450W        W22518  16.697   8.817  14.859
55451W        W22519  29.022  19.049  11.856
55452W        W22520  35.098  44.917  11.122
55453W        W22521  17.571  44.831  14.909
55454W        W22522  39.344  38.950  12.044
55455W        W22523   1.805  14.644   1.877
55456W        W22524  40.519  24.092  13.939
55457W        W22525   7.736  41.507  12.481
55458W        W22526  20.575  10.813   4.776
55459W        W22527   5.330  40.029  11.495
55460W        W22528  18.226  39.458   1.411
55461W        W22529  12.315  20.574  12.062
55462W        W22530  29.164  12.786  14.790
55463W        W22531  44.346  33.593  11.446
55464W        W22532  44.450  36.983  13.923
55465W        W22533  18.581  29.487   1.261
55466W        W22534  39.827   1.354  13.417
55467W        W22535   2.959  13.297  10.505
55468W        W22536  26.068  17.129  10.557
55469W        W22537  18.561  22.695  12.390
55470W        W22538  16.628  21.112  11.058
55471W        W22539   4.281   8.262  11.957
55472W        W22540  41.788  17.199  13.028
55473W        W22541  25.569   7.689   0.468
55474W        W22542  22.159  37.410   0.406
55475W        W22543   0.895  36.485   4.820
55476W        W22544  16.245  31.079  14.829
55477W        W22545  26.961  20.096   0.754
55478W        W22546  28.031  20.729  11.979
55479W        W22547   3.379  22.111  14.359
55480W        W22548  44.278  23.506   2.203
55481W        W22549  31.067  22.154   0.270
55482W        W22550  44.349  25.007   0.435
55483W        W22551  13.162   5.262  12.980
55484W        W22552  20.246  38.437   3.198
55485W        W22553  24.176  35.457  14.834
55486W        W22554   7.681  39.551   2.390
55487W        W22555  11.747   4.804  13.317
55488W        W22556  11.665  39.503   3.773
55489W        W22557  37.886  20.150  12.522
55490W        W22558  38.957  17.725  12.423
55491W        W22559  36.933  24.975  13.045
55492W        W22560   7.816  17.089  13.899
55493W        W22561  36.997  32.485   3.170
55494W        W22562  33.590  28.459  11.563
55495W        W22563  28.456  18.258   1.865
55496W        W22564   4.920  11.158   9.942
55497W        W22565   9.260  10.831  11.563
55498W        W22566  38.848  30.049  10.116
55499W        W22567  23.510  11.642  11.099
55500W        W22568  30.026  33.880  10.918
55501W        W22569  27.179  42.877   2.285
55502W        W22570   3.343  21.201  11.887
55503W        W22571  14.631  28.546  14.931
55504W        W22572   3.839  26.685   0.878
55505W        W22573  34.607   3.932  11.903
55506W        W22574  35.977  14.713   0.830
55507W        W22575  17.576  37.456  13.370
55508W        W22576  40.009   9.247  13.360
55509W        W22577  40.461  36.508  11.503
55510W        W22578  30.980  18.134   3.176
55511W        W22579  35.540   4.762   3.371
55512W        W22580  35.480   5.260  10.955
55513W        W22581  44.412  27.690   1.265
55514W        W22582  29.591  35.432  12.857
55515W        W22583   3.328   6.323  14.449
55516W        W22584  39.334  33.058  11.985
55517W        W22585   6.891  39.844  14.322
55518W        W22586  26.628  30.984   4.326
55519W        W22587  10.800   2.442   0.835
55520W        W22588  25.122  35.952  14.813
55521W        W22589  23.229   6.351  13.828
55522W        W22590  11.840  18.729   1.735
55523W        W22591  27.458  44.862  11.984
55524W        W22592   3.335  38.003   2.827
55525W        W22593  37.539  43.841   2.401
55526W        W22594  13.149   0.973   1.350
55527W        W22595  31.631  10.361   2.809
55528W        W22596  37.550  37.861  12.501
55529W        W22597  38.860  24.572  11.491
55530W        W22598  44.769   9.199  12.917
55531W        W22599  44.294  35.431  12.001
55532W        W22600  25.539  28.062   4.145
55533W        W22601  28.057  30.146   1.816
55534W        W22602   4.877  36.947   1.861
55535W        W22603  24.538   2.398  14.460
55536W        W22604   6.713  29.080  14.329
55537W        W22605  26.567  31.120  12.423
55538W        W22606  17.737  23.112  10.530
55539W        W22607  25.114   2.436   1.822
55540W        W22608  26.989  36.539   2.362
55541W        W22609   2.805  37.057   1.818
55542W        W22610   4.288  13.287  13.875
55543W        W22611   9.168  23.692   2.706
55544W        W22612  30.473  36.001  10.557
55545W        W22613   8.246  26.600  10.991
55546W        W22614  11.723  23.504   4.237
55547W        W22615  41.342  42.492  13.361
55548W        W22616  36.350  43.346   2.878
55549W        W22617  44.370  17.727  13.448
55550W        W22618  36.554  40.495   3.354
55551W        W22619  24.005   7.345  13.502
55552W        W22620  32.414  37.522   0.456
55553W        W22621  22.071  27.608   4.186
55554W        W22622  33.994  41.883  11.046
55555W        W22623  13.333   9.848  10.404
55556W        W22624  17.725  36.509   1.314
55557W        W22625  25.521  20.245  11.447
55558W        W22626  38.905   4.838   4.213
55559W        W22627  13.835  19.197   1.856
55560W        W22628   5.218  40.429  10.497
55561W        W22629  44.802   2.324   1.715
55562W        W22630  28.035  38.916   3.262
55563W        W22631   9.837   5.692   3.346
55564W        W22632  31.497   2.933   1.703
55565W        W22633  15.695   8.161   4.669
55566W        W22634  21.199  25.002  11.413
55567W        W22635  34.435  22.605  14.760
55568W        W22636  41.967  15.225  10.518
55569W        W22637   5.374  34.913  11.065
55570W        W22638   2.754  40.943  10.556
55571W        W22639  37.362  20.600  12.859
55572W        W22640  37.085  27.654  10.581
55573W        W22641  31.122  11.283  13.903
55574W        W22642  24.016  27.982   3.151
55575W        W22643  41.408   0.345  14.768
55576W        W22644  26.545   0.966  14.802
55577W        W22645  13.206  38.832  11.562
55578W        W22646  22.684   8.234  14.376
55579W        W22647  26.174  40.025  10.437
55580W        W22648  33.382  28.553  10.584
55581W        W22649   8.665  39.397   2.206
55582W        W22650   4.231  28.038   4.643
55583W        W22651   4.760  31.442  11.109
55584W        W22652  22.068  42.986   4.165
55585W        W22653   2.303   7.217   1.888
55586W        W22654  30.131   9.713   2.743
55587W        W22655  29.662  36.473  13.437
55588W        W22656  15.221   8.654   0.817
55589W        W22657  23.521   3.785  11.864
55590W        W22658  34.893  38.826  10.419
55591W        W22659  32.938   5.247   4.202
55592W        W22660  10.299  21.615  12.030
55593W        W22661   4.889  44.793   0.898
55594W        W22662  42.330  21.239  14.515
55595W        W22663  33.899   7.333  14.391
55596W        W22664   7.861  37.047   2.371
55597W        W22665  11.749  41.819  14.468
55598W        W22666   7.171  14.149  12.841
55599W        W22667   2.795  39.838   0.901
55600W        W22668  31.431   7.730  14.936
55601W        W22669  33.425  21.237   5.141
55602W        W22670  43.285  23.694   2.866
55603W        W22671  15.589  29.134  10.947
55604W        W22672  14.761  27.038  11.992
55605W        W22673  27.453   9.704   4.742
55606W        W22674  33.466  12.204   2.662
55607W        W22675  34.989  34.006   2.341
55608W        W22676  42.415  36.573   4.289
55609W        W22677  22.530  31.555   3.367
55610W        W22678  40.375  33.039   4.815
55611W        W22679  39.968  39.828  12.442
55612W        W22680  17.760  19.240  13.895
55613W        W22681  19.101   3.299  14.286
55614W        W22682  20.720  32.537  12.046
55615W        W22683   3.789   9.379  12.464
55616W        W22684  42.487  21.067  13.891
55617W        W22685  22.096  11.253   2.337
55618W        W22686  15.713  12.313  14.412
55619W        W22687  43.402  17.251  11.084
55620W        W22688  11.867  40.904  12.366
55621W        W22689  13.286  31.966  10.479
55622W        W22690  14.249  32.130  14.395
55623W        W22691  31.465  15.809  11.388
55624W        W22692  31.593  27.508   4.255
55625W        W22693   9.370  13.265  12.519
55626W        W22694  18.081  24.592   0.744
55627W        W22695  25.473  17.093   4.254
55628W        W22696  27.592  22.037  14.400
55629W        W22697  34.090   1.900  12.005
55630W        W22698   6.247  27.986   4.727
55631W        W22699  24.108   6.722  13.428
55632W        W22700  36.467  43.871   3.159
55633W        W22701  36.398  32.558  10.406
55634W        W22702  34.441   2.777   4.768
55635W        W22703  39.520  37.519   2.799
55636W        W22704  44.983   2.921   3.322
55637W        W22705  25.565  23.614   2.361
55638W        W22706  23.515  31.457  14.010
55639W        W22707   6.785   6.187   1.794
55640W        W22708  37.418  31.413   2.360
55641W        W22709  29.083  39.056  14.450
55642W        W22710  24.170   1.292  12.849
55643W        W22711  44.294  15.084   4.662
55644W        W22712  30.649  32.571  14.391
55645W        W22713  25.572   1.334   1.697
55646W        W22714  30.640  36.994  11.505
55647W        W22715  22.080  21.213  11.048
55648W        W22716  34.577  24.019   3.364
55649W        W22717  28.162  18.179  14.841
55650W        W22718  40.358   7.396   1.840
55651W        W22719  44.296   4.267   3.326
55652W        W22720  23.671  21.672  13.308
55653W        W22721  22.214   1.275   2.355
55654W        W22722  39.488  41.917   4.634
55655W        W22723  42.448  19.258   4.835
55656W        W22724  14.245   4.840  13.499
55657W        W22725  31.414  40.411   3.690
55658W        W22726  20.609   7.355  10.593
55659W        W22727  19.044   6.708  11.442
55660W        W22728  25.052  44.790  13.319
55661W        W22729  13.651  31.617  12.854
55662W        W22730  29.423  12.785   1.769
55663W        W22731  43.300  32.043   4.694
55664W        W22732   7.277   4.723   0.958
55665W        W22733  40.479  34.003  14.774
55666W        W22734  37.052  13.162  11.978
55667W        W22735  37.861  28.951   0.819
55668W        W22736   3.393  39.528  12.884
55669W        W22737  14.246  24.506  10.574
55670W        W22738  36.472  22.510   0.843
55671W        W22739   8.263  13.660   4.239
55672W        W22740  30.022   5.813  13.429
55673W        W22741  29.006   5.248   2.666
55674W        W22742  41.380  17.103  13.953
55675W        W22743  22.697   2.766   0.437
55676W        W22744  40.530  35.561   2.397
55677W        W22745   2.755  25.989   4.633
55678W        W22746  19.195  30.626   4.161
55679W        W22747  39.533  13.321  13.354
55680W        W22748  25.986  12.116   3.370
55681W        W22749  26.490  34.888  10.619
55682W        W22750  14.616   7.199   2.228
55683W        W22751   4.324   5.299  13.842
55684W        W22752  26.027   5.762   1.772
55685W        W22753  35.013  22.164   0.457
55686W        W22754  40.923  42.474  12.073
55687W        W22755  33.034  29.991   2.678
55688W        W22756  12.736  20.065  14.816
55689W        W22757  15.598  25.546   0.433
55690W        W22758  28.556  21.234   2.674
55691W        W22759  29.942  13.145  10.967
55692W        W22760  42.864  29.136   1.326
55693W        W22761  16.707  25.088  13.896
55694W        W22762  25.598  41.938  10.557
55695W        W22763  39.001   9.238   4.744
55696W        W22764  13.163  16.661   2.805
55697W        W22765  31.558   6.280   2.315
55698W        W22766  34.035   0.883   2.881
55699W        W22767  35.935  13.195   3.709
55700W        W22768  22.054  37.511   3.834
55701W        W22769  34.934   7.856   4.808
55702W        W22770  15.792  14.183   4.708
55703W        W22771  16.679  21.108   2.878
55704W        W22772  34.048  42.438   1.314
55705W        W22773   0.421  24.680  12.967
55706W        W22774  43.502   6.249   2.711
55707W        W22775  19.750  21.081   4.200
55708W        W22776  15.165  28.553   3.166
55709W        W22777  23.607  23.079   0.836
55710W        W22778  36.098  15.592   3.327
55711W        W22779  18.203  11.843   3.708
55712W        W22780  31.087  44.271   2.803
55713W        W22781   2.942   1.276  10.496
55714W        W22782  35.589   0.341  10.419
55715W        W22783  39.412  33.097   1.216
55716W        W22784   2.852  30.045  14.846
55717W        W22785  27.564  11.345  10.922
55718W        W22786   7.252   3.344  10.439
55719W        W22787   8.710  27.049  14.025
55720W        W22788  35.957  25.475   2.214
55721W        W22789  21.232  30.119  12.873
55722W        W22790  32.091  28.564   3.333
55723W        W22791  42.478  17.231  10.480
55724W        W22792  39.063  25.676  10.434
55725W        W22793  35.458  42.498  11.944
55726W        W22794  34.592  20.760  10.411
55727W        W22795   2.761  20.204  13.536
55728W        W22796  16.275  25.166  12.400
55729W        W22797  35.476   2.308   2.228
55730W        W22798  44.272  37.926   4.294
55731W        W22799  14.253  44.265  13.940
55732W        W22800  29.528  26.987   5.087
55733W        W22801  35.601  26.624  14.813
55734W        W22802  17.762  32.582  14.419
55735W        W22803  44.754  25.600   3.868
55736W        W22804  31.040   4.291  13.824
55737W        W22805  13.773   9.210   1.862
55738W        W22806  26.038  35.010  11.557
55739W        W22807  37.900  16.197  14.339
55740W        W22808  11.738   0.411   3.754
55741W        W22809  15.314  22.122   3.864
55742W        W22810  44.970  27.126   4.712
55743W        W22811   1.856  14.803  10.894
55744W        W22812  43.273   4.295  12.872
55745W        W22813  10.203  17.761  10.025
55746W        W22814  28.178   6.352  13.315
55747W        W22815  28.523  30.610   1.930
55748W        W22816  30.005  38.044  11.083
55749W        W22817  15.325  19.670  12.345
55750W        W22818  15.167   8.203  14.941
55751W        W22819  12.627  12.139   0.770
55752W        W22820  28.476  26.663   4.827
55753W        W22821  26.973  25.026  11.101
55754W        W22822  38.826  36.926   4.182
55755W        W22823  30.441  16.587  14.902
55756W        W22824  13.130   0.792  13.924
55757W        W22825  32.508  21.687   2.868
55758W        W22826  35.467  22.219  14.767
55759W        W22827   8.706   9.887  11.508
55760W        W22828  35.856   3.409   3.166
55761W        W22829  39.449  26.619  12.919
55762W        W22830  15.624   5.715   1.440
55763W        W22831  39.487  14.268   2.390
55764W        W22832  12.207  42.482  13.883
55765W        W22833  14.831   4.759   2.825
55766W        W22834  14.174  35.934  12.360
55767W        W22835  25.505  33.931  14.297
55768W        W22836  31.430  22.186  12.994
55769W        W22837  17.090  27.588  12.923
55770W        W22838  37.480  30.916  13.479
55771W        W22839  29.497  40.538  12.506
55772W        W22840  44.875  18.745  13.530
55773W        W22841  31.403  42.952   4.242
55774W        W22842   8.268  23.721  14.359
55775W        W22843   5.435  38.039   2.672
55776W        W22844  18.062  43.505  11.470
55777W        W22845  41.823  25.117  14.357
55778W        W22846  44.376  31.962  13.445
55779W        W22847  10.362  10.253   0.791
55780W        W22848  28.087  27.137   0.783
55781W        W22849   1.864  40.003  10.555
55782W        W22850  28.673  35.935   1.899
55783W        W22851  12.349   5.252  13.341
55784W        W22852  11.826  12.685   5.142
55785W        W22853  19.676  14.316  12.483
55786W        W22854  14.729  41.853  11.921
55787W        W22855  41.529  23.664  11.909
55788W        W22856  43.826   1.418  14.287
55789W        W22857   8.272  21.028   1.346
55790W        W22858  28.057  33.070   0.380
55791W        W22859   4.357  40.813   0.832
55792W        W22860  13.294  23.083   0.476
55793W        W22861  21.116   3.349   3.757
55794W        W22862  13.238   3.328  11.065
55795W        W22863  22.093  25.030   4.698
55796W        W22864  38.430  44.788  10.641
55797W        W22865   9.391   5.901  10.554
55798W        W22866  34.055  36.850  10.598
55799W        W22867  30.122  29.451   4.153
55800W        W22868  10.337  31.405   4.702
55801W        W22869  24.107  36.857   4.287
55802W        W22870   9.232  25.140  13.806
55803W        W22871  37.972  39.907  12.900
55804W        W22872  34.086  26.996  11.549
55805W        W22873  24.167  32.587  13.448
55806W        W22874  23.008   9.759  14.825
55807W        W22875  26.697  24.723   4.795
55808W        W22876  40.840   8.323  13.885
55809W        W22877  20.739  31.926  13.865
55810W        W22878  12.761  22.700  13.427
55811W        W22879  31.422  35.890   2.774
55812W        W22880  22.720  24.607  12.387
55813W        W22881  22.070  40.837  12.874
55814W        W22882  20.702  25.518  14.314
55815W        W22883  24.629  29.478   0.247
55816W        W22884  32.455  38.556   4.239
55817W        W22885   8.243  34.112  14.778
55818W        W22886  39.836  40.373   2.278
55819W        W22887  11.189   8.343   0.270
55820W        W22888  14.715  12.298   4.302
55821W        W22889  25.962  14.200  11.554
55822W        W22890  16.588   5.225  13.819
55823W        W22891  24.673  32.542  14.907
55824W        W22892  13.288  17.563   3.755
55825W        W22893   1.456  13.749  13.036
55826W        W22894  30.100  24.665   3.648
55827W        W22895  19.679  39.525  10.973
55828W        W22896  32.394  31.589   4.616
55829W        W22897  33.878  32.492   4.732
55830W        W22898   0.837   8.729   1.222
55831W        W22899  37.436  36.522  14.890
55832W        W22900  14.139  26.683  11.987
55833W        W22901  42.362   5.887   3.798
55834W        W22902  24.230  16.736  12.047
55835W        W22903   0.932  40.825  11.055
55836W        W22904  44.291  17.220  13.357
55837W        W22905  34.428  12.835  11.063
55838W        W22906   1.889  30.448  11.100
55839W        W22907   3.394  35.508  11.006
55840W        W22908  15.269  19.234   3.750
55841W        W22909  28.970   3.879  11.857
55842W        W22910  31.615  18.166  14.374
55843W        W22911  13.727  30.574  13.366
55844W        W22912   1.731  21.203  13.458
55845W        W22913   8.797  43.831   4.793
55846W        W22914  30.485  31.149  13.916
55847W        W22915   4.752  15.146  14.470
55848W        W22916  12.787  17.190   3.342
55849W        W22917  29.942  41.881   2.833
55850W        W22918  30.508  41.031   1.844
55851W        W22919  27.519  21.233  14.395
55852W        W22920  21.237  36.010  14.428
55853W        W22921  25.568  22.062   4.685
55854W        W22922   2.300   9.291   0.271
55855W        W22923  10.636  25.092   4.176
55856W        W22924  16.697  17.625  13.453
55857W        W22925   3.718  15.811   1.791
55858W        W22926   1.391  24.128   3.339
55859W        W22927  16.099  12.270  13.310
55860W        W22928   7.260  12.773   1.724
55861W        W22929  14.322  21.749  11.485
55862W        W22930   5.263  11.861   0.386
55863W        W22931   3.891  16.765  14.828
55864W        W22932  13.109  32.924  14.512
55865W        W22933  43.831  22.534   1.440
55866W        W22934  33.046  31.531  10.970
55867W        W22935  20.199  42.305   2.837
55868W        W22936  25.160  17.602   4.648
55869W        W22937  22.190   1.251  14.987
55870W        W22938  12.359  17.579  11.399
55871W        W22939  19.603  24.191   1.811
55872W        W22940  22.668  27.946   2.287
55873W        W22941  42.916  30.062   2.296
55874W        W22942  30.085   8.801  12.418
55875W        W22943   6.263  31.046   1.320
55876W        W22944  37.508  40.525  13.418
55877W        W22945   7.342   8.344   0.784
55878W        W22946  11.825  23.553  12.846
55879W        W22947  29.020  44.423   3.720
55880W        W22948  32.955  40.004   1.273
55881W        W22949  36.561  32.061  10.645
55882W        W22950   5.295  33.070   3.224
55883W        W22951  38.049  22.160  13.958
55884W        W22952  25.687  24.210  11.542
55885W        W22953   2.790   2.877  13.423
55886W        W22954   8.783  36.587  13.403
55887W        W22955  26.561  30.420  11.519
55888W        W22956   0.271   2.736  13.022
55889W        W22957  15.782  25.172   2.180
55890W        W22958  22.594  22.110  14.897
55891W        W22959  22.668  31.148   0.466
55892W        W22960   1.891  34.019  12.021
55893W        W22961  39.321   4.742   3.287
55894W        W22962  41.980  17.726  12.499
55895W        W22963  40.960  20.636   2.284
55896W        W22964   2.471   4.229   4.293
55897W        W22965  12.173  25.667   1.909
55898W        W22966  15.731  38.044   3.264
55899W        W22967  16.297  36.934   2.307
55900W        W22968  10.239  16.108   2.856
55901W        W22969  24.574  32.571  12.049
55902W        W22970  38.471  32.098   4.294
55903W        W22971  30.130  41.363  12.923
55904W        W22972  21.651   6.219  11.524
55905W        W22973   1.876  18.218   4.636
55906W        W22974  32.443  34.608  12.514
55907W        W22975  36.953  26.547   2.831
55908W        W22976   6.236   2.422  13.824
55909W        W22977  42.900  22.072  10.084
55910W        W22978  19.755   5.728   3.757
55911W        W22979  15.301  19.753  13.863
55912W        W22980  17.212  33.526  12.432
55913W        W22981  32.482   8.857   2.795
55914W        W22982   3.946  30.645  11.558
55915W        W22983   9.866   1.296   2.794
55916W        W22984  18.550   0.361   3.312
55917W        W22985  24.701  21.590   4.692
55918W        W22986  27.999  18.149  12.502
55919W        W22987  11.693  43.508  13.471
55920W        W22988   9.160  42.015  12.497
55921W        W22989  20.071  14.103  14.920
55922W        W22990  21.720  33.392   0.810
55923W        W22991  37.508  31.959   2.837
55924W        W22992  26.692  33.532  14.305
55925W        W22993  18.056  42.912  12.390
55926W        W22994  41.908  14.132  13.983
55927W        W22995  29.048  15.201  11.502
55928W        W22996   3.859  28.523   1.328
55929W        W22997  27.949   9.857  12.414
55930W        W22998  24.708  12.818   0.422
55931W        W22999  32.515  10.710  11.947
55932W        W23000  18.192  18.624   3.160
55933W        W23001   2.448   0.856   3.290
55934W        W23002  38.075  23.560   2.388
55935W        W23003  39.507  42.875  14.937
55936W        W23004  35.009  28.551  11.964
55937W        W23005  23.516  34.600  12.035
55938W        W23006   6.698  14.263   4.715
55939W        W23007  18.598  40.021  10.060
55940W        W23008  34.499  26.525  11.080
55941W        W23009  19.573   7.673   3.800
55942W        W23010  44.411  13.144  13.897
55943W        W23011  22.694  44.400  14.492
55944W        W23012   1.754  19.643  11.574
55945W        W23013  18.740  38.337  13.382
55946W        W23014  25.097   4.851  13.325
55947W        W23015  33.470  29.971   4.347
55948W        W23016  34.575  15.662  14.440
55949W        W23017  43.961  40.448  12.397
55950W        W23018   4.821  17.082   4.767
55951W        W23019  34.517   5.297   1.839
55952W        W23020  21.681  25.023  10.022
55953W        W23021   3.262  11.802   1.771
55954W        W23022  40.315  12.730  14.434
55955W        W23023  28.029  14.239   1.264
55956W        W23024  25.586  34.614   1.310
55957W        W23025  32.514  41.951   2.194
55958W        W23026  13.211  39.024  13.536
55959W        W23027  38.405   4.371   3.712
55960W        W23028  44.271  10.347  12.515
55961W        W23029   6.414   8.228  13.508
55962W        W23030  25.712   6.231  10.977
55963W        W23031  32.136   0.252   4.656
55964W        W23032  16.186  22.159  12.831
55965W        W23033   8.845  29.014  11.061
55966W        W23034  42.803   4.207  10.022
55967W        W23035  15.716   7.264  10.559
55968W        W23036  27.187   3.837   2.840
55969W        W23037  35.580  26.071  11.126
55970W        W23038  37.477  14.684  12.883
55971W        W23039  39.909  26.193  11.983
55972W        W23040  44.797  15.160   0.473
55973W        W23041   5.289  37.924  11.038
55974W        W23042  17.196  33.984   2.274
55975W        W23043  20.676  26.198   1.889
55976W        W23044  19.078  20.631  10.951
55977W        W23045  30.129  10.769  11.393
55978W        W23046  11.818  18.789  12.065
55979W        W23047  35.458  40.923  13.885
55980W        W23048  12.655  13.787   1.228
55981W        W23049  14.204  25.185   3.832
55982W        W23050  34.611  10.645  11.575
55983W        W23051  30.937  24.586   1.718
55984W        W23052  37.354  17.796   2.289
55985W        W23053  31.637  42.520  14.009
55986W        W23054  20.244  38.385   5.091
55987W        W23055  27.487  42.461   1.276
55988W        W23056  36.429  11.823   4.343
55989W        W23057  11.215  19.677   2.244
55990W        W23058  29.475  13.335  14.977
55991W        W23059  11.754  17.757  12.959
55992W        W23060  40.497   5.206   0.446
55993W        W23061  39.480  21.118   3.156
55994W        W23062  13.186  19.052   2.703
55995W        W23063  35.526  20.768  14.429
55996W        W23064   6.394  14.598   2.382
55997W        W23065  36.852   4.906  12.502
55998W        W23066  44.757  40.457   1.322
55999W        W23067  30.658  43.800   3.808
56000W        W23068  14.799  38.543  13.315
56001W        W23069  24.038  42.796   0.929
56002W        W23070  22.220   2.958   1.719
56003W        W23071  14.266  14.649  11.401
56004W        W23072  26.485  33.379   1.433
56005W        W23073  44.379   3.453   0.396
56006W        W23074  19.088  40.328   2.781
56007W        W23075  25.491  32.409   2.745
56008W        W23076  37.028  32.940   2.189
56009W        W23077  30.914  17.144  11.406
56010W        W23078  18.783  40.411  13.327
56011W        W23079  18.154  26.462   2.327
56012W        W23080  40.310  34.546  12.912
56013W        W23081   0.293  24.048  11.430
56014W        W23082  10.280  19.078  10.630
56015W        W23083   3.918  18.671   4.801
56016W        W23084  32.079  41.017  12.552
56017W        W23085  37.473  30.980   2.356
56018W        W23086  44.425  31.991  12.072
56019W        W23087   3.286  22.523   0.882
56020W        W23088  42.816  18.244  11.501
56021W        W23089  12.187  21.515  11.377
56022W        W23090  36.577  27.991   0.316
56023W        W23091  43.945  34.068   5.290
56024W        W23092   1.331  43.516  11.372
56025W        W23093  31.919  12.633  10.626
56026W        W23094   9.831   7.217   1.819
56027W        W23095  24.048  38.977  11.509
56028W        W23096  42.393  36.961  12.351
56029W        W23097  27.498  41.976   4.165
56030W        W23098   2.782  26.202   2.847
56031W        W23099  43.378  10.683   2.887
56032W        W23100   7.285  43.318   2.352
56033W        W23101  20.056  11.652   1.223
56034W        W23102   8.801  26.129   3.710
56035W        W23103  34.966  39.019   4.183
56036W        W23104  14.752  21.123  13.420
56037W        W23105  20.526  12.855  13.489
56038W        W23106  21.511   8.317  11.976
56039W        W23107  32.137  27.556   9.949
56040W        W23108  40.002  28.574  13.983
56041W        W23109  40.887  20.094   3.773
56042W        W23110  16.269   2.787  13.544
56043W        W23111  27.014  24.094  10.939
56044W        W23112   5.370  13.271   1.447
56045W        W23113   5.756  26.592   4.142
56046W        W23114  12.214  28.955  10.525
56047W        W23115   5.223   4.205   4.266
56048W        W23116  17.581  25.570   4.649
56049W        W23117   3.725  19.089  11.076
56050W        W23118  23.190   8.399   3.168
56051W        W23119  43.995  44.428   0.462
56052W        W23120   9.321  25.680  11.991
56053W        W23121  32.531  23.053  13.816
56054W        W23122   3.354   8.774   2.204
56055W        W23123  31.933  35.906  12.359
56056W        W23124   8.671  11.738  10.478
56057W        W23125  23.043  19.701  13.059
56058W        W23126  26.131   1.413  10.529
56059W        W23127  42.450  43.311   0.293
56060W        W23128  19.188  18.683  12.416
56061W        W23129  39.476   0.322   4.157
56062W        W23130  32.503  35.018   0.813
56063W        W23131  12.185  25.044   1.353
56064W        W23132   0.268  30.007   0.737
56065W        W23133  16.158   8.328   1.392
56066W        W23134  28.501  11.787  14.281
56067W        W23135  15.301  37.866   1.437
56068W        W23136  30.141   9.261  10.545
56069W        W23137  41.524  15.258   2.285
56070W        W23138   6.402  26.178  12.563
56071W        W23139  44.388  34.879   3.375
56072W        W23140  35.954  32.614  10.609
56073W        W23141  18.185  30.991   0.252
56074W        W23142  12.761  22.196   3.218
56075W        W23143  39.027  23.575   0.314
56076W        W23144   7.783  31.090   3.271
56077W        W23145  38.383  40.988  13.930
56078W        W23146  42.786  25.573   1.261
56079W        W23147  33.609  30.539   1.347
56080W        W23148  44.805  44.330   1.775
56081W        W23149  23.641  41.320  14.808
56082W        W23150  34.069  20.118  14.394
56083W        W23151  34.875   3.445   0.414
56084W        W23152  15.668  16.241  14.459
56085W        W23153  21.595  11.138  14.020
56086W        W23154   8.338  17.734   3.657
56087W        W23155  26.532  25.488  14.823
56088W        W23156  21.512  14.156   1.818
56089W        W23157  43.011  35.456  10.561
56090W        W23158  22.060  35.950  14.007
56091W        W23159  26.951  43.966   3.668
56092W        W23160  12.153  39.827  14.468
56093W        W23161  29.560  41.386  12.950
56094W        W23162  20.128  35.496   2.733
56095W        W23163  18.050  12.199  14.483
56096W        W23164  41.040  38.334  14.452
56097W        W23165  20.591   8.806   1.911
56098W        W23166  30.103   6.787  10.622
56099W        W23167  28.079   4.239   4.632
56100W        W23168  13.270  27.104   4.297
56101W        W23169  22.046   7.809  13.018
56102W        W23170  19.212  26.129  11.957
56103W        W23171   5.381  36.015  12.086
56104W        W23172   6.428   7.883   3.795
56105W        W23173  12.272   0.939   4.301
56106W        W23174   7.877  14.797   4.682
56107W        W23175   2.813  27.517  13.006
56108W        W23176   3.278  31.443  13.982
56109W        W23177  13.130  33.544   3.327
56110W        W23178  11.160  37.893  10.449
56111W        W23179  20.238   6.201   2.832
56112W        W23180  18.578  18.603   4.625
56113W        W23181  33.445  10.700   0.892
56114W        W23182  42.930   2.930  10.505
56115W        W23183  43.005  28.990   4.219
56116W        W23184  29.000   4.400   3.190
56117W        W23185  39.423  35.406  13.528
56118W        W23186  29.484  36.590  11.389
56119W        W23187  21.116   8.766  13.920
56120W        W23188  40.894   2.421   0.894
56121W        W23189  21.055  40.495  10.934
56122W        W23190   1.929  39.398   1.786
56123W        W23191  28.438  41.375  10.995
56124W        W23192   3.762   5.699   4.302
56125W        W23193   8.343  13.609   0.425
56126W        W23194   3.896  24.675  11.052
56127W        W23195   5.266  21.682   2.684
56128W        W23196  25.204  28.051  12.963
56129W        W23197  42.401  12.276   0.466
56130W        W23198  29.645  42.958   4.838
56131W        W23199  14.607   1.766   1.699
56132W        W23200  43.432  21.037   9.992
56133W        W23201   4.346  26.637   2.776
56134W        W23202   5.370  26.654   1.395
56135W        W23203  35.932  38.422   2.205
56136W        W23204  11.755  28.435  13.945
56137W        W23205  37.867  39.325  14.904
56138W        W23206   7.774  26.629   3.218
56139W        W23207  38.867   8.250   1.911
56140W        W23208  32.513  17.115   1.284
56141W        W23209  17.274  20.089   2.881
56142W        W23210  34.615  24.664  11.457
56143W        W23211   2.237  16.080  11.856
56144W        W23212  27.539  30.534  11.551
56145W        W23213  37.529   5.864  12.531
56146W        W23214  22.081  13.330   3.229
56147W        W23215  38.372  25.626  12.426
56148W        W23216  35.994   5.842   3.671
56149W        W23217  26.621  24.198  10.502
56150W        W23218  33.080  29.127   2.268
56151W        W23219  43.953  41.811  11.590
56152W        W23220  20.763  12.808   1.715
56153W        W23221  23.026   1.774   3.266
56154W        W23222  12.813  43.904   4.726
56155W        W23223  14.184  26.139  10.427
56156W        W23224  15.698  36.502   0.917
56157W        W23225   6.217  15.639   0.744
56158W        W23226  44.495   1.429   1.904
56159W        W23227  22.252   4.865   4.726
56160W        W23228  21.563  19.761  11.580
56161W        W23229  33.474  30.611   4.646
56162W        W23230  43.775  40.453   2.769
56163W        W23231   7.766  35.602  13.402
56164W        W23232  10.839  10.871   3.215
56165W        W23233  30.548   5.310  12.999
56166W        W23234  44.435  42.493  11.430
56167W        W23235  24.479   0.895   1.387
56168W        W23236  35.439  31.114  11.494
56169W        W23237  31.429   2.895   4.765
56170W        W23238  37.445   6.701  10.560
56171W        W23239   1.454  33.943   2.748
56172W        W23240  32.016  28.028   3.353
56173W        W23241  41.921   3.278   3.231
56174W        W23242  38.382  16.670  10.464
56175W        W23243  38.863  43.500   2.278
56176W        W23244  23.081   7.225   3.382
56177W        W23245  20.090  34.008   0.765
56178W        W23246   9.873   6.326  11.576
56179W        W23247  42.786  28.494   4.264
56180W        W23248  41.009  24.072  12.565
56181W        W23249  34.874  33.979  14.897
56182W        W23250   6.266   7.255  13.310
56183W        W23251  30.422  40.025   2.303
56184W        W23252  37.918   6.373  11.456
56185W        W23253  37.992   4.267   3.804
56186W        W23254  33.001  15.092  14.819
56187W        W23255  17.710  21.204   3.860
56188W        W23256  34.024  44.303   1.868
56189W        W23257  43.825  14.775  13.460
56190W        W23258   4.743   2.435  11.544
56191W        W23259  20.764  19.754   2.785
56192W        W23260  39.376  34.508  11.916
56193W        W23261  29.510  35.014  13.830
56194W        W23262   8.702  16.256   1.219
56195W        W23263  19.582  32.040  10.942
56196W        W23264   3.324  10.677   1.793
56197W        W23265  31.144  24.510   0.758
56198W        W23266  30.125  30.457  11.996
56199W        W23267   4.866  44.330   3.279
56200W        W23268   5.819  23.609   0.730
56201W        W23269  15.708  26.009   2.896
56202W        W23270  25.119  22.066  12.835
56203W        W23271  32.007   5.340  13.995
56204W        W23272  31.102  39.952   2.310
56205W        W23273  30.005  39.441  14.876
56206W        W23274  28.105  44.783  10.491
56207W        W23275  14.167  36.842  12.530
56208W        W23276  18.560  21.203  11.990
56209W        W23277  14.664  39.543  12.872
56210W        W23278  32.979  19.273  14.357
56211W        W23279  44.449   0.876   5.152
56212W        W23280  34.538  36.393  13.899
56213W        W23281  13.179  16.077   3.851
56214W        W23282  36.434  34.601  12.994
56215W        W23283  39.471  28.987  14.012
56216W        W23284  11.343  26.057   0.377
56217W        W23285  34.525  44.934  12.356
56218W        W23286  39.832  14.273   0.468
56219W        W23287   5.786  21.743  12.943
56220W        W23288   2.286   2.332   2.360
56221W        W23289   8.378  43.482  12.363
56222W        W23290  41.357  32.044   0.825
56223W        W23291   8.403  26.205  10.905
56224W        W23292  35.427  34.493  11.464
56225W        W23293  17.658  11.329   1.307
56226W        W23294  37.514  26.467  14.875
56227W        W23295   8.869   0.902   5.170
56228W        W23296  25.549  37.554   2.750
56229W        W23297  23.607  15.788   4.620
56230W        W23298   3.318  26.458  12.049
56231W        W23299   9.263  11.686   2.889
56232W        W23300   7.360  44.913   0.838
56233W        W23301  33.889  32.557   3.751
56234W        W23302  44.833  34.420  14.413
56235W        W23303   9.193  31.598   1.746
56236W        W23304   0.893   6.401  12.059
56237W        W23305  32.422   0.381   3.809
56238W        W23306  43.795  25.183  10.454
56239W        W23307  26.534  16.804  11.438
56240W        W23308  21.565  22.226  12.549
56241W        W23309   3.372  31.521  13.361
56242W        W23310  26.984  10.226   2.859
56243W        W23311  26.614  26.195   1.389
56244W        W23312   0.743   2.440   2.180
56245W        W23313   8.284  14.118  14.315
56246W        W23314   6.738  16.276  13.529
56247W        W23315   6.802   4.838  11.020
56248W        W23316  35.917  37.074   0.433
56249W        W23317  39.540   8.213   3.210
56250W        W23318  13.279  25.143  11.554
56251W        W23319  25.053  40.835  11.925
56252W        W23320  12.724  12.232  12.972
56253W        W23321   4.805  37.404  11.574
56254W        W23322  28.613  41.344  12.883
56255W        W23323  41.899  15.725  11.000
56256W        W23324  44.791  18.693  13.883
56257W        W23325  37.972  28.544   4.252
56258W        W23326  15.726  26.638   3.660
56259W        W23327  24.706  21.711  13.792
56260W        W23328  44.846  14.657   4.316
56261W        W23329  16.166   3.241  11.552
56262W        W23330  25.673  28.451  11.948
56263W        W23331  37.526  18.199  11.495
56264W        W23332   2.877  18.271   3.820
56265W        W23333   3.449  44.305   5.174
56266W        W23334  38.357  37.360  13.007
56267W        W23335   4.241  40.871  10.642
56268W        W23336  18.214  37.894   4.669
56269W        W23337  24.025  28.992   0.795
56270W        W23338  44.910   6.681   2.755
56271W        W23339  31.477  24.052  14.294
56272W        W23340  43.407  36.401  14.964
56273W        W23341  15.184  34.911   2.235
56274W        W23342  36.354  31.640   4.123
56275W        W23343   6.358   5.883   2.408
56276W        W23344  44.776  22.594  12.015
56277W        W23345  37.999  31.970  14.825
56278W        W23346  43.288  24.593   0.384
56279W        W23347  25.539  42.978   0.254
56280W        W23348  14.160  39.407   3.361
56281W        W23349  11.859  26.624   0.809
56282W        W23350  22.510  43.947   4.602
56283W        W23351  15.092  41.871  14.397
56284W        W23352  25.557   8.837  11.060
56285W        W23353  35.984  39.897   1.288
56286W        W23354  20.756  13.836  14.474
56287W        W23355  36.561   5.863   3.289
56288W        W23356  20.745  37.998  11.050
56289W        W23357   8.203  36.545  10.932
56290W        W23358  19.221  23.608  14.833
56291W        W23359  11.307  16.186  11.068
56292W        W23360  40.317  23.170  12.490
56293W        W23361  22.609  30.109  11.931
56294W        W23362  40.804  29.566  12.422
56295W        W23363   8.360  26.147  12.947
56296W        W23364   8.753  39.326   3.827
56297W        W23365  34.530  31.967  10.034
56298W        W23366  43.842  24.180  10.585
56299W        W23367   3.858  38.353  11.574
56300W        W23368   1.421  12.141   1.346
56301W        W23369  32.142  13.710  11.125
56302W        W23370   4.378  36.884   2.348
56303W        W23371  24.481  41.038   4.729
56304W        W23372  11.634  37.942   4.724
56305W        W23373  19.636  40.459   5.271
56306W        W23374  36.894  42.450  11.093
56307W        W23375  16.131  22.649   9.930
56308W        W23376  35.030  11.734   0.276
56309W        W23377  27.029  39.424  13.920
56310W        W23378  26.503  29.453  13.404
56311W        W23379  38.504  41.463  14.936
56312W        W23380  35.398  42.411   4.619
56313W        W23381   2.902  21.138  10.094
56314W        W23382   5.734  15.210  11.531
56315W        W23383   5.854  16.293  11.910
56316W        W23384   8.680  29.054  14.336
56317W        W23385  22.171   3.299  14.785
56318W        W23386  42.814  39.449  13.794
56319W        W23387  14.701   6.231  12.566
56320W        W23388  29.509  42.355   4.683
56321W        W23389  16.595   6.689   4.654
56322W        W23390   0.843  23.183  10.636
56323W        W23391  43.809  36.391  12.964
56324W        W23392  21.586  43.412  11.532
56325W        W23393   1.253  15.286   4.269
56326W        W23394  19.256  36.901   1.323
56327W        W23395  42.017  31.520  14.966
56328W        W23396  14.606  20.188   4.337
56329W        W23397  14.679   8.785  14.468
56330W        W23398  17.610  25.696   1.253
56331W        W23399  19.279   5.812  11.558
56332W        W23400   6.205  42.455   4.728
56333W        W23401   5.253  34.102   1.935
56334W        W23402  30.152  27.170   1.922
56335W        W23403  33.389  36.365   0.285
56336W        W23404  22.198  18.265  13.964
56337W        W23405  22.596  13.314  12.432
56338W        W23406  31.030  28.161  14.936
56339W        W23407  35.073  37.852  11.051
56340W        W23408   7.358  30.938   3.784
56341W        W23409  39.448  25.045   2.737
56342W        W23410   3.950  37.565  14.854
56343W        W23411   9.882  29.954  10.403
56344W        W23412  18.715  17.119  10.523
56345W        W23413  30.646   3.215   4.699
56346W        W23414  31.470   2.241  10.893
56347W        W23415  15.613   7.411   4.634
56348W        W23416  42.963  21.592   0.728
56349W        W23417   9.316  43.504   2.181
56350W        W23418  33.048  28.040  11.079
56351W        W23419  42.809  23.025  12.076
56352W        W23420  20.232  16.246   0.446
56353W        W23421  36.462  11.208   2.695
56354W        W23422  17.757   0.796   4.752
56355W        W23423  17.146   5.889   4.176
56356W        W23424   6.920   7.345  11.376
56357W        W23425  14.678  10.681   2.818
56358W        W23426   9.682  22.508   3.215
56359W        W23427  10.354   5.333   3.637
56360W        W23428  33.561  24.085  10.900
56361W        W23429  32.473  42.498  11.466
56362W        W23430  26.493  44.263   3.243
56363W        W23431   4.919   6.795  13.838
56364W        W23432  14.663  42.883   2.767
56365W        W23433  11.723  40.970   1.389
56366W        W23434   4.735  32.982   2.368
56367W        W23435   3.773  28.485   0.312
56368W        W23436  39.960   4.216  14.017
56369W        W23437   3.795  38.355   4.173
56370W        W23438  43.500  10.219   1.695
56371W        W23439  43.774  28.978   0.267
56372W        W23440  27.490   5.891  11.393
56373W        W23441   9.720  22.213  12.043
56374W        W23442  25.217  37.912   0.446
56375W        W23443  19.765  40.990  13.874
56376W        W23444  33.422   2.942  13.371
56377W        W23445  40.499  22.558   1.407
56378W        W23446  32.020  26.071  10.629
56379W        W23447  35.878  20.622  11.094
56380W        W23448  43.842  34.598   2.804
56381W        W23449  27.643  10.836  10.467
56382W        W23450  30.007   5.876   3.833
56383W        W23451   8.869  22.625  10.574
56384W        W23452   6.264  27.630   1.276
56385W        W23453  35.954  20.205  10.971
56386W        W23454  38.847  22.097   4.635
56387W        W23455  21.230  11.141   3.683
56388W        W23456   2.451  14.200  13.404
56389W        W23457  12.318  16.621  13.538
56390W        W23458  22.537  13.605   2.320
56391W        W23459  21.221  17.165   2.704
56392W        W23460  24.499  19.071   1.782
56393W        W23461  27.951  19.596  10.629
56394W        W23462  34.109  29.448  14.882
56395W        W23463  44.395  40.007  12.875
56396W        W23464   0.938  36.964   2.407
56397W        W23465   7.311  19.043  12.028
56398W        W23466  33.555  39.012   0.837
56399W        W23467  29.446  21.233  13.029
56400W        W23468   7.873  38.329  10.639
56401W        W23469  14.181  25.555  14.312
56402W        W23470  17.275   1.851  10.073
56403W        W23471  17.075  19.080   1.885
56404W        W23472  40.457  13.837  14.808
56405W        W23473  37.563  15.659  13.390
56406W        W23474  26.516  28.969   2.310
56407W        W23475   8.388   5.230   2.669
56408W        W23476  25.602  30.141   3.175
56409W        W23477  13.160  28.066   1.860
56410W        W23478   5.731   3.455  14.424
56411W        W23479  11.259  19.755   0.940
56412W        W23480   1.408  30.116   4.620
56413W        W23481  29.170  30.418  10.940
56414W        W23482  22.697  34.947  14.995
56415W        W23483  15.811  17.111   4.126
56416W        W23484   1.954  34.530  11.076
56417W        W23485   5.794  42.473   3.746
56418W        W23486  13.113   8.675  11.072
56419W        W23487   0.332  35.956  13.924
56420W        W23488  36.408  33.473  11.505
56421W        W23489  21.694  23.598   3.844
56422W        W23490  39.927  40.488  13.942
56423W        W23491  36.535   8.744  10.988
56424W        W23492  20.033   4.921   2.200
56425W        W23493   4.775  35.500   2.720
56426W        W23494   5.930  40.907   3.230
56427W        W23495  35.957  17.159  11.482
56428W        W23496  16.801   9.839  13.347
56429W        W23497  36.550  14.213   3.636
56430W        W23498   2.752  23.057   3.379
56431W        W23499  19.060  33.052  11.546
56432W        W23500  28.113   0.747   3.707
56433W        W23501  34.969  43.307   2.703
56434W        W23502  12.621  28.526  11.991
56435W        W23503  30.603  12.259   0.787
56436W        W23504  24.997   1.452   4.623
56437W        W23505  17.563  12.141   4.238
56438W        W23506  19.653  43.498   2.267
56439W        W23507  32.594  17.779  13.858
56440W        W23508  21.576   3.233  10.500
56441W        W23509  41.369  17.202   2.780
56442W        W23510   1.389  44.467   3.378
56443W        W23511  41.324   7.730  12.450
56444W        W23512  20.180  37.918   0.381
56445W        W23513  40.051   6.427  11.393
56446W        W23514  18.791  35.413   2.686
56447W        W23515  13.185  11.704  11.041
56448W        W23516   6.407  25.183   4.204
56449W        W23517   6.747  17.691  12.989
56450W        W23518  36.044  25.014   3.798
56451W        W23519   7.774  43.898   4.773
56452W        W23520  36.066   8.257   4.216
56453W        W23521   7.386  13.618  13.051
56454W        W23522  37.036  22.527  14.946
56455W        W23523  13.722  12.825   4.195
56456W        W23524  41.852  33.116   4.698
56457W        W23525  28.606  16.185  14.932
56458W        W23526  44.805  42.379  10.482
56459W        W23527  23.208   5.844   3.644
56460W        W23528  33.578  37.387   4.327
56461W        W23529  27.489  23.708  12.980
56462W        W23530  10.765  41.789   0.928
56463W        W23531  28.182  15.164   9.583
56464W        W23532  37.936   1.388   4.680
56465W        W23533   4.304  40.976   0.288
56466W        W23534   5.340  28.623   3.777
56467W        W23535   9.203  36.353   3.681
56468W        W23536  33.942  16.761   3.869
56469W        W23537  39.542   2.366   4.689
56470W        W23538   2.293  17.774   4.220
56471W        W23539  25.115  12.148  13.381
56472W        W23540  13.681  10.198   1.711
56473W        W23541  10.756  25.208  10.593
56474W        W23542   7.825  13.188  11.415
56475W        W23543  22.508  27.948   1.406
56476W        W23544  14.148  43.951   0.922
56477W        W23545  21.537  37.899   2.844
56478W        W23546   0.887  21.018  14.001
56479W        W23547   1.409  31.581   0.362
56480W        W23548  10.291   7.695   2.299
56481W        W23549   4.209  21.239   2.414
56482W        W23550  42.316  36.095   3.739
56483W        W23551  24.157  10.687   2.808
56484W        W23552  44.823  44.937  12.385
56485W        W23553  36.896   7.360  10.952
56486W        W23554  25.660  40.034   2.742
56487W        W23555  10.723   2.825   3.159
56488W        W23556   7.207  33.430  12.418
56489W        W23557  37.552  44.334  13.812
56490W        W23558  15.120  15.694   2.300
56491W        W23559  33.396  31.446  13.060
56492W        W23560  37.849  22.630   3.841
56493W        W23561   2.875  22.067   4.760
56494W        W23562  36.375  10.140  10.525
56495W        W23563  35.049  36.000   2.277
56496W        W23564  14.781  40.947  14.939
56497W        W23565  25.046  36.924   0.316
56498W        W23566  21.740  16.108  13.849
56499W        W23567  14.649  34.024   0.457
56500W        W23568  15.292   7.402   5.720
56501W        W23569  29.006  34.397  14.314
56502W        W23570  29.950   6.773   0.366
56503W        W23571  40.903   2.248   3.770
56504W        W23572  12.750  39.342   0.342
56505W        W23573  21.570  41.873  10.045
56506W        W23574  37.899  34.537   3.226
56507W        W23575   5.807  14.135  11.570
56508W        W23576  20.116  22.668  11.904
56509W        W23577  37.343  23.715   4.329
56510W        W23578  16.297  24.202  11.057
56511W        W23579  12.330  18.267   0.895
56512W        W23580  14.178  33.585  11.952
56513W        W23581  30.440  34.070   3.782
56514W        W23582  18.546  17.250   1.700
56515W        W23583  19.616  22.641  11.551
56516W        W23584  43.996  29.562   4.279
56517W        W23585  11.741  29.530  10.570
56518W        W23586   5.858  14.130  14.489
56519W        W23587  38.020   9.677  10.645
56520W        W23588  40.854  32.112   3.206
56521W        W23589  14.234   4.830   4.210
56522W        W23590  25.103  37.462  12.914
56523W        W23591   3.806  36.981  14.999
56524W        W23592   0.808  33.564   4.171
56525W        W23593  11.681   1.435   1.446
56526W        W23594  28.507  35.873  14.286
56527W        W23595   8.680  13.737   4.198
56528W        W23596  40.990  32.102  13.459
56529W        W23597   6.921  14.181  13.814
56530W        W23598  26.048  34.070  13.507
56531W        W23599   9.772  11.686  12.841
56532W        W23600   7.812   4.933   2.893
56533W        W23601  42.411  25.566   0.838
56534W        W23602  13.639   2.382   4.339
56535W        W23603   6.246  22.026  14.491
56536W        W23604  37.884  42.855   0.355
56537W        W23605  31.934  15.797   0.246
56538W        W23606  28.162   5.692  13.443
56539W        W23607  40.397  29.521   3.284
56540W        W23608  31.041  44.344  14.761
56541W        W23609  19.046  43.409  11.006
56542W        W23610  28.144  17.555  13.951
56543W        W23611   4.363  42.880  14.348
56544W        W23612  29.129  22.665   2.807
56545W        W23613   9.372   0.858   1.933
56546W        W23614  27.611  31.081  12.841
56547W        W23615  27.972   3.823  12.879
56548W        W23616  11.133   4.861   3.301
56549W        W23617  39.813   4.334  13.313
56550W        W23618   9.848  36.561  12.997
56551W        W23619  16.651  43.290  11.490
56552W        W23620  43.499  21.516   3.757
56553W        W23621  41.845   4.759  14.913
56554W        W23622  15.645  43.870  13.846
56555W        W23623  19.691  15.299   0.367
56556W        W23624  20.091   5.756   4.658
56557W        W23625  33.916   8.887   0.769
56558W        W23626  17.115  16.789   2.392
56559W        W23627  24.703  42.281   1.286
56560W        W23628  16.574  24.526  13.477
56561W        W23629   7.316  43.425  10.889
56562W        W23630  21.723  32.114   1.340
56563W        W23631  19.160  22.090   2.374
56564W        W23632  38.506   8.764  14.343
56565W        W23633  28.122  44.456   3.866
56566W        W23634  16.621  25.054  11.972
56567W        W23635   7.218   0.491  12.008
56568W        W23636  36.422   1.773   0.916
56569W        W23637  35.964   9.232   4.195
56570W        W23638  27.172  42.936   1.404
56571W        W23639  21.220  40.992   2.256
56572W        W23640  37.341  13.123   2.705
56573W        W23641  13.628   3.748   4.301
56574W        W23642  42.856  13.750   4.765
56575W        W23643  25.216  15.263   4.203
56576W        W23644  20.188  35.991   4.256
56577W        W23645   7.260  19.736  13.538
56578W        W23646  21.672  26.536  12.076
56579W        W23647  20.533  18.759  10.419
56580W        W23648  24.512  21.107   2.200
56581W        W23649  11.822   1.408   4.159
56582W        W23650  30.446   2.467  10.428
56583W        W23651   9.236  34.472  14.882
56584W        W23652   2.456  39.831   1.432
56585W        W23653  10.138  15.296   4.655
56586W        W23654  24.652  14.681  13.433
56587W        W23655  24.619  35.510   2.856
56588W        W23656  25.101  19.541   1.772
56589W        W23657   5.218   3.309  13.350
56590W        W23658  13.211  21.054   4.821
56591W        W23659   1.791  36.501   5.595
56592W        W23660  20.551  26.998  10.915
56593W        W23661  32.944  42.864  13.852
56594W        W23662  15.763  16.176  13.423
56595W        W23663  11.756  20.669   0.469
56596W        W23664  12.144  29.429   0.380
56597W        W23665  31.029  18.259  10.118
56598W        W23666   3.790   1.969  11.000
56599W        W23667  18.724  24.227   0.967
56600W        W23668  35.937  33.991   0.765
56601W        W23669  16.166   7.719  12.055
56602W        W23670  34.988  27.169   0.822
56603W        W23671  14.239  33.429  14.477
56604W        W23672  10.191  41.343   4.701
56605W        W23673  43.498  42.887   5.243
56606W        W23674  42.428   5.263   3.770
56607W        W23675  44.849   6.832  10.631
56608W        W23676  22.523  15.611  13.027
56609W        W23677   5.921  17.189   9.588
56610W        W23678  21.656   6.740  10.622
56611W        W23679   7.904  12.740  11.121
56612W        W23680   4.943  11.800   3.234
56613W        W23681   6.408  31.637   0.801
56614W        W23682   4.378  35.909   3.649
56615W        W23683  17.715  39.484   3.684
56616W        W23684   5.392  20.109   2.374
56617W        W23685  37.966  36.952  13.514
56618W        W23686  16.582  36.593   1.765
56619W        W23687  38.844  24.099  14.345
56620W        W23688  19.200   8.727   2.743
56621W        W23689  14.614  30.636  13.033
56622W        W23690   1.841  24.073  12.847
56623W        W23691   2.892   6.881  13.434
56624W        W23692  16.311  21.698  11.557
56625W        W23693  15.593   6.868  14.807
56626W        W23694  27.449  34.928   1.262
56627W        W23695  18.748  29.167   2.191
56628W        W23696   5.249  15.094   4.336
56629W        W23697   5.758  13.227  14.439
56630W        W23698  13.345  19.180  12.949
56631W        W23699   6.280   1.419   3.156
56632W        W23700  24.703  27.079  13.530
56633W        W23701   6.198  12.797   3.678
56634W        W23702  33.925  34.879  10.621
56635W        W23703   8.386  31.116   4.713
56636W        W23704  11.270  39.428   0.435
56637W        W23705  37.903  33.922   4.170
56638W        W23706  22.138   8.820   0.728
56639W        W23707   1.927  44.906   4.793
56640W        W23708  31.648  15.177   2.679
56641W        W23709  37.061  15.236  11.520
56642W        W23710   4.344  23.549  13.806
56643W        W23711  39.005  16.074  12.388
56644W        W23712   5.900  22.593  13.321
56645W        W23713  41.856  29.656  12.525
56646W        W23714  23.162   0.908  12.424
56647W        W23715   5.425   9.849  14.906
56648W        W23716  11.263  29.149   0.801
56649W        W23717  18.785  23.516   2.233
56650W        W23718  12.822  44.374  11.022
56651W        W23719   6.250  16.292  12.560
56652W        W23720  28.038  18.239   2.838
56653W        W23721  25.207   5.405  12.983
56654W        W23722  11.253   3.423  14.489
56655W        W23723  35.499   3.809  12.414
56656W        W23724   2.910  19.597   1.298
56657W        W23725   6.880  44.315  12.032
56658W        W23726  11.270  43.375   0.846
56659W        W23727  40.421   6.712  12.043
56660W        W23728  20.193  30.056   2.364
56661W        W23729  36.877  18.119  12.551
56662W        W23730  25.569  40.992  12.410
56663W        W23731  14.293  39.490  13.391
56664W        W23732  35.096  30.581   4.268
56665W        W23733   3.286  19.232  13.987
56666W        W23734  26.479  30.552  12.024
56667W        W23735  26.521   2.235  11.053
56668W        W23736  25.686  10.192   2.242
56669W        W23737  30.069  24.685   0.474
56670W        W23738  42.433   0.920   0.910
56671W        W23739  21.033  41.920   2.780
56672W        W23740  34.938  10.862  13.438
56673W        W23741  44.449  10.834  12.087
56674W        W23742  30.646  41.030   3.742
56675W        W23743  32.910  37.497   3.159
56676W        W23744   5.229  27.022   2.721
56677W        W23745  37.909  17.681   3.770
56678W        W23746  10.276   0.910   1.864
56679W        W23747  44.262  34.065  13.802
56680W        W23748  24.180  42.471   2.786
56681W        W23749  16.613   8.268   5.801
56682W        W23750  28.621   0.258  10.561
56683W        W23751  24.079  39.884  14.981
56684W        W23752  42.876  40.417   1.698
56685W        W23753  11.354  15.152  12.069
56686W        W23754  32.972  35.108  13.436
56687W        W23755  33.491  39.028   4.191
56688W        W23756  10.156   3.928  12.512
56689W        W23757   7.677  36.983  14.898
56690W        W23758  35.950  33.985   4.668
56691W        W23759   4.781  21.609  14.878
56692W        W23760  22.012  20.122  13.830
56693W        W23761  31.631  29.574   2.194
56694W        W23762  28.965  31.153   0.740
56695W        W23763   7.777  35.855   3.196
56696W        W23764  31.560   7.195   1.273
56697W        W23765  14.174  18.680  14.998
56698W        W23766  32.410   1.940   0.373
56699W        W23767  31.043  37.904   1.913
56700W        W23768   4.356  14.690   0.738
56701W        W23769  31.562  40.912  10.907
56702W        W23770  10.139  36.354   4.677
56703W        W23771   1.386  34.042   2.384
56704W        W23772  20.534  20.716  10.598
56705W        W23773  34.549  12.809   3.148
56706W        W23774  12.220   9.260   0.751
56707W        W23775  17.716  11.255   1.702
56708W        W23776  36.043   6.705   2.298
56709W        W23777  17.644  17.205  13.813
56710W        W23778  30.464  32.078  12.467
56711W        W23779  25.612   7.758  14.949
56712W        W23780  20.610  29.146  13.959
56713W        W23781   8.671  37.846  14.362
56714W        W23782   7.891  13.628  10.476
56715W        W23783  26.133  13.606  12.569
56716W        W23784   4.383  22.023   3.869
56717W        W23785  34.379  44.385  12.567
56718W        W23786  18.260  19.590  12.511
56719W        W23787   3.765  13.712   0.347
56720W        W23788  40.998  30.097   4.142
56721W        W23789   0.905  29.988  12.059
56722W        W23790  26.076  14.786  14.845
56723W        W23791  14.802   3.273   5.280
56724W        W23792   1.307  44.505  14.905
56725W        W23793  23.519  23.639  14.962
56726W        W23794  37.086  18.059   4.774
56727W        W23795  43.315  15.110  14.882
56728W        W23796  35.955  43.925  12.536
56729W        W23797  24.563  11.663   1.861
56730W        W23798  11.268  13.257   2.679
56731W        W23799  40.908  25.147  14.788
56732W        W23800  21.675   3.433  13.046
56733W        W23801  33.058  10.368  10.613
56734W        W23802  18.583  19.777   1.378
56735W        W23803  41.306   3.367  10.947
56736W        W23804  37.348   5.755  10.482
56737W        W23805  20.134  39.508   1.748
56738W        W23806  32.426  39.945  11.487
56739W        W23807   4.370  21.588   0.250
56740W        W23808   5.809  37.885   1.236
56741W        W23809   2.821   5.269  13.795
56742W        W23810  20.743   4.714  11.509
56743W        W23811  26.524   6.807  12.911
56744W        W23812  37.350  36.385  13.318
56745W        W23813  13.605   0.329  14.433
56746W        W23814   2.472  11.160  13.811
56747W        W23815   0.346  40.844   4.821
56748W        W23816  42.527  15.738   1.226
56749W        W23817  40.965  43.957  12.831
56750W        W23818   3.458  42.298  14.958
56751W        W23819  22.096   6.706   1.432
56752W        W23820  19.578  10.176   1.223
56753W        W23821  43.346   4.260   1.824
56754W        W23822  36.561  34.007  11.029
56755W        W23823  37.394  18.189   0.829
56756W        W23824  20.201  29.980  10.471
56757W        W23825   4.245  32.081  14.777
56758W        W23826  43.900   1.944  10.962
56759W        W23827   4.230  35.923   3.276
56760W        W23828  36.569  13.722  12.472
56761W        W23829  42.971  12.812   2.891
56762W        W23830  33.496  17.691   2.825
56763W        W23831  11.763   5.729   2.681
56764W        W23832  21.120  42.459   4.236
56765W        W23833   6.908  23.729  10.610
56766W        W23834   0.922  26.195   2.888
56767W        W23835  26.116  15.648  13.526
56768W        W23836  20.137  40.345   2.893
56769W        W23837   4.766   5.909  10.440
56770W        W23838  29.105  40.416   2.353
56771W        W23839  18.548  43.995  10.532
56772W        W23840   9.236  28.548  14.364
56773W        W23841  21.722  43.511   4.726
56774W        W23842  11.794  32.524  13.967
56775W        W23843  31.910  10.778  11.498
56776W        W23844   1.261  10.351   0.295
56777W        W23845   1.831  21.528  13.982
56778W        W23846  12.822  17.294   0.346
56779W        W23847   4.709   3.446   1.780
56780W        W23848  27.564  31.018  12.425
56781W        W23849  27.606  43.401   2.724
56782W        W23850  15.654  15.782   1.247
56783W        W23851  41.974  12.165   4.181
56784W        W23852  34.420  23.002   1.335
56785W        W23853  22.998   5.222   2.247
56786W        W23854  28.938   9.819  13.524
56787W        W23855  28.676  30.962  10.931
56788W        W23856   6.902  27.055  13.477
56789W        W23857  38.038  39.335  10.549
56790W        W23858  32.581  17.099  11.084
56791W        W23859  31.529  12.674  12.400
56792W        W23860  16.129  38.874  11.897
56793W        W23861  29.563  14.182   0.397
56794W        W23862   1.244  14.829  10.934
56795W        W23863  34.098  38.378  14.008
56796W        W23864   9.244  37.895  12.896
56797W        W23865  22.229  28.076  12.375
56798W        W23866  26.586  13.225   3.718
56799W        W23867  11.834  17.192   3.309
56800W        W23868   0.869  43.311   3.288
56801W        W23869  13.135  32.558  10.580
56802W        W23870  25.141  27.981   2.866
56803W        W23871  27.995  42.298  10.630
56804W        W23872   4.209  36.991  13.512
56805W        W23873   8.360  26.170   2.367
56806W        W23874  23.051  30.589   3.299
56807W        W23875   4.917  26.046  12.952
56808W        W23876  28.602   7.295  12.485
56809W        W23877  34.078  43.464   0.407
56810W        W23878   7.886  29.935  14.285
56811W        W23879  42.376  29.477  12.959
56812W        W23880  40.386   7.200  12.347
56813W        W23881  26.632  30.949  12.016
56814W        W23882  43.808  25.196   1.369
56815W        W23883  20.726  12.723  11.894
56816W        W23884  22.196  19.195  14.457
56817W        W23885   7.708  29.553  14.318
56818W        W23886  25.698  44.925   2.387
56819W        W23887  20.043   4.823   4.749
56820W        W23888  41.383  11.688   4.274
56821W        W23889  25.036  11.673   0.484
56822W        W23890  44.295  40.971   3.189
56823W        W23891   9.688  29.538   3.746
56824W        W23892  13.279   6.412  13.529
56825W        W23893  37.366  19.068   3.270
56826W        W23894  13.148   5.765  14.319
56827W        W23895  18.721  39.854   1.929
56828W        W23896  25.179   9.768   0.897
56829W        W23897  29.010  39.021   1.283
56830W        W23898  16.685   2.795  11.429
56831W        W23899  30.079  38.926  13.013
56832W        W23900  38.424   2.228   2.387
56833W        W23901  11.728  41.334  12.533
56834W        W23902  10.855  12.244  13.984
56835W        W23903  33.900  18.690  12.974
56836W        W23904  10.178  32.000   2.291
56837W        W23905   7.262   9.201  14.013
56838W        W23906  18.650  44.463   9.946
56839W        W23907  26.462  29.075   1.879
56840W        W23908  38.439  23.670   4.170
56841W        W23909  11.807   4.726  12.459
56842W        W23910  37.496  21.071  14.854
56843W        W23911  18.170   3.836   2.256
56844W        W23912  27.649  34.085   3.685
56845W        W23913  37.511   2.434   4.737
56846W        W23914  18.201   4.268   4.732
56847W        W23915  11.287   6.842  13.889
56848W        W23916  30.572  38.847   3.309
56849W        W23917  41.888  13.315   1.759
56850W        W23918  21.642   8.771  11.534
56851W        W23919   7.854  12.191  13.371
56852W        W23920  36.919  31.411   4.618
56853W        W23921   6.269  24.482  12.368
56854W        W23922  37.874  16.778   4.601
56855W        W23923   1.411  39.433  10.960
56856W        W23924  32.085   5.212  13.333
56857W        W23925  24.975  15.602  11.553
56858W        W23926   9.259  40.942   4.618
56859W        W23927  39.533  39.911   2.862
56860W        W23928  12.257  40.856   1.744
56861W        W23929  12.752  24.134  14.874
56862W        W23930   3.253  19.570   1.852
56863W        W23931  44.394  34.489   2.857
56864W        W23932   4.347  11.199  14.937
56865W        W23933  34.895  29.516   1.862
56866W        W23934   1.269  25.546  14.790
56867W        W23935  44.892  12.832  14.955
56868W        W23936  14.740   3.744  11.128
56869W        W23937  40.538  20.204  11.531
56870W        W23938   0.766  39.827  10.062
56871W        W23939   3.277   3.726  12.421
56872W        W23940  14.290  36.929  13.904
56873W        W23941  40.857  19.149   0.756
56874W        W23942  43.398  31.040  14.943
56875W        W23943  42.890  30.924   5.219
56876W        W23944  40.840  44.374  14.778
56877W        W23945   8.815  23.516   3.381
56878W        W23946  13.607  14.750   2.244
56879W        W23947   7.237  26.179  13.981
56880W        W23948  20.174   3.718  10.456
56881W        W23949  28.037  42.415   2.353
56882W        W23950  23.565  15.718  10.519
56883W        W23951  30.078  23.195   3.758
56884W        W23952  25.213   1.369   2.383
56885W        W23953  40.965  12.681   1.281
56886W        W23954  22.528  43.816  10.612
56887W        W23955  31.517  16.315  10.610
56888W        W23956  41.963  34.419  11.006
56889W        W23957  25.141   6.813  14.293
56890W        W23958  31.538  21.689   0.358
56891W        W23959  20.537   8.354  12.032
56892W        W23960  41.796  40.358  10.642
56893W        W23961  25.128  29.571  12.517
56894W        W23962  17.727  13.196   2.202
56895W        W23963  18.766  24.488   4.213
56896W        W23964  15.768  43.386   4.163
56897W        W23965  42.921  39.025   1.302
56898W        W23966  23.501  33.572  11.126
56899W        W23967  38.983  41.806  12.032
56900W        W23968  36.445  39.355   3.800
56901W        W23969  15.086   7.798  11.574
56902W        W23970  44.940  17.114   4.671
56903W        W23971  22.183  21.157  13.949
56904W        W23972  32.122  15.697  13.956
56905W        W23973  27.637  20.766   2.359
56906W        W23974  22.157  29.083   0.284
56907W        W23975  23.592  30.449  14.280
56908W        W23976   1.331  14.254   0.830
56909W        W23977  29.064  22.241   4.710
56910W        W23978  34.994  19.738   4.186
56911W        W23979  32.603  42.418   2.782
56912W        W23980  24.155   4.771  12.047
56913W        W23981  27.579   0.481   1.859
56914W        W23982  38.523  28.679  11.080
56915W        W23983  22.547  13.681  14.502
56916W        W23984  19.538  17.245   3.379
56917W        W23985  36.040  44.281   4.118
56918W        W23986  20.156  20.709   4.148
56919W        W23987  38.435  43.920   1.349
56920W        W23988  34.027  42.362  13.498
56921W        W23989  16.703  12.795  13.401
56922W        W23990  14.672  35.357   4.819
56923W        W23991  34.953  36.994   4.152
56924W        W23992   1.803  12.137   1.794
56925W        W23993  33.484  15.278   2.817
56926W        W23994  16.100  24.614   3.310
56927W        W23995  35.971   7.739   2.768
56928W        W23996  19.121  39.813  10.908
56929W        W23997   2.955  38.940  11.051
56930W        W23998  32.943  30.490  14.797
56931W        W23999   9.757  19.585   3.178
56932W        W24000  33.898  31.424  14.807
56933W        W24001  27.954  40.005  13.436
56934W        W24002   4.868  44.406   1.819
56935W        W24003  43.303  44.796   2.377
56936W        W24004   8.812   8.764  14.445
56937W        W24005   5.210  42.342   2.233
56938W        W24006  37.366  13.149   4.284
56939W        W24007  16.755  30.021  10.616
56940W        W24008  15.240   7.367  11.415
56941W        W24009   7.299  18.693  10.934
56942W        W24010  43.407   2.375   0.801
56943W        W24011  31.583  34.070  14.770
56944W        W24012   5.752  39.397  10.414
56945W        W24013  29.931  15.103   2.864
56946W        W24014   7.857  21.730  12.869
56947W        W24015   7.823   0.748   0.291
56948W        W24016  32.491  41.496   2.376
56949W        W24017  24.638  17.131   4.614
56950W        W24018  31.468  24.708   3.193
56951W        W24019  32.980  33.402  13.474
56952W        W24020  44.903  20.043  12.907
56953W        W24021  40.043  36.015   4.818
56954W        W24022  33.526   4.728   0.785
56955W        W24023  18.210  27.175  12.925
56956W        W24024  27.189  21.233   2.825
56957W        W24025   2.912  18.237   0.807
56958W        W24026   3.884  25.969   0.930
56959W        W24027  35.384  18.170  11.868
56960W        W24028  17.218  30.517  14.941
56961W        W24029  24.215  34.390  10.971
56962W        W24030  26.532  13.601  14.291
56963W        W24031  11.256   6.211   1.897
56964W        W24032   3.858  10.242  12.051
56965W        W24033   8.707  29.490   3.657
56966W        W24034  24.159   1.429  11.553
56967W        W24035   0.408   7.866  13.871
56968W        W24036  37.039   0.916  13.008
56969W        W24037  31.982  32.494  12.441
56970W        W24038  18.093  27.533  10.535
56971W        W24039  28.469  31.434   0.394
56972W        W24040  29.140  11.742   3.681
56973W        W24041  44.363  12.190  13.447
56974W        W24042  30.050  21.048   0.910
56975W        W24043  37.965  26.172  13.378
56976W        W24044  18.704  12.205  12.825
56977W        W24045  37.949  42.975  11.423
56978W        W24046  29.569  15.799   1.232
56979W        W24047  44.453   1.259  11.541
56980W        W24048  37.901  26.669   0.733
56981W        W24049   5.715  23.066  14.763
56982W        W24050  42.341  39.505   4.816
56983W        W24051  16.776  32.097  11.567
56984W        W24052  24.166  43.927  11.939
56985W        W24053  44.356  20.071  10.038
56986W        W24054  35.407   6.767   2.725
56987W        W24055   4.212   5.728  14.354
56988W        W24056   0.914   3.767  13.523
56989W        W24057  44.264  38.459   3.326
56990W        W24058  43.435  31.900   0.774
56991W        W24059  19.046   2.446   0.958
56992W        W24060   6.424   5.271   0.256
56993W        W24061   5.300  39.368  12.507
56994W        W24062  11.138  36.867  14.805
56995W        W24063  34.498  15.118  12.004
56996W        W24064   4.239   2.790  11.523
56997W        W24065   9.241  28.929  11.935
56998W        W24066  38.997  26.633  13.422
56999W        W24067  41.810  42.419  10.467
57000W        W24068  24.030   8.895   0.300
57001W        W24069   5.211  30.074   0.872
57002W        W24070  35.529  32.981  11.034
57003W        W24071   4.379  15.762   2.260
57004W        W24072  39.449  36.847   3.186
57005W        W24073   5.915  14.296   0.303
57006W        W24074  33.515  27.688   0.736
57007W        W24075  32.082   0.335  14.322
57008W        W24076   9.332   6.846   4.742
57009W        W24077  23.542  10.371  13.431
57010W        W24078   3.368  21.592  14.017
57011W        W24079  20.271  29.589   3.744
57012W        W24080   8.209  37.476   0.728
57013W        W24081   6.815   3.352  14.444
57014W        W24082   0.433  17.606  14.325
57015W        W24083  11.644  18.191   4.774
57016W        W24084  29.110  35.581   1.804
57017W        W24085   4.755  40.343   3.783
57018W        W24086  27.139   5.281   1.409
57019W        W24087  39.839  20.249   0.843
57020W        W24088  24.147   9.680  11.900
57021W        W24089   0.351  14.630   3.361
57022W        W24090   4.920   9.847  11.955
57023W        W24091  13.324  20.710   1.799
57024W        W24092  13.846  39.965   0.447
57025W        W24093  19.575  33.560   4.838
57026W        W24094  15.790  41.887  12.824
57027W        W24095  29.945  18.596   1.403
57028W        W24096  35.867  28.568   2.236
57029W        W24097  10.835  37.571  13.465
57030W        W24098  36.987  35.519   0.756
57031W        W24099  15.755  40.416   3.685
57032W        W24100   9.199   4.311   3.747
57033W        W24101  29.645   4.854   4.174
57034W        W24102  27.540  22.060  10.907
57035W        W24103  16.161  44.337   0.257
57036W        W24104  16.110  32.533   3.842
57037W        W24105  25.645  26.057  14.769
57038W        W24106  42.404  25.641   1.358
57039W        W24107  32.053  44.980  14.996
57040W        W24108   9.186  18.112   0.368
57041W        W24109  31.484  15.729   1.328
57042W        W24110  33.605  27.571  10.609
57043W        W24111  14.330   4.754   1.909
57044W        W24112   6.263  31.916  14.316
57045W        W24113  14.720  33.911   4.600
57046W        W24114  37.830  29.987   2.690
57047W        W24115  19.692  14.249  12.038
57048W        W24116   3.829  26.642   0.270
57049W        W24117  31.426  10.845   4.159
57050W        W24118  42.995  34.485  14.930
57051W        W24119  39.376  23.989   4.657
57052W        W24120  28.023  25.630  12.871
57053W        W24121  16.107  32.531   4.257
57054W        W24122  44.414  38.538  11.581
57055W        W24123  41.384  27.497  14.305
57056W        W24124  32.114  21.169  13.894
57057W        W24125  36.542  27.642  14.884
57058W        W24126  26.464  12.285  11.923
57059W        W24127   4.777  44.936  10.904
57060W        W24128  36.571  32.093   0.862
57061W        W24129  33.550   6.677  12.095
57062W        W24130  12.671   8.221   1.431
57063W        W24131  29.490  39.881   2.272
57064W        W24132  10.182  25.206   5.115
57065W        W24133   8.787  17.232   0.732
57066W        W24134  29.959   0.927   3.308
57067W        W24135   3.822  35.604  14.343
57068W        W24136  11.640  13.174   3.870
57069W        W24137  16.626  23.502   3.151
57070W        W24138  12.297   0.391   3.275
57071W        W24139  31.559  30.589   4.672
57072W        W24140  27.539  36.462   0.835
57073W        W24141  38.449  39.058  14.421
57074W        W24142  35.883   5.387   3.337
57075W        W24143  36.861  41.415  12.874
57076W        W24144  16.583  31.027  10.108
57077W        W24145  40.337   8.716   0.395
57078W        W24146   5.333  41.860   2.859
57079W        W24147  42.310   7.782   1.805
57080W        W24148  35.898  21.099   0.421
57081W        W24149  28.468  32.940   3.853
57082W        W24150  11.854  11.256   2.354
57083W        W24151  44.454   4.245  10.145
57084W        W24152   4.407  15.126   4.114
57085W        W24153  41.983  23.129   1.825
57086W        W24154  39.017  41.009  10.503
57087W        W24155   6.740  29.578  14.392
57088W        W24156  29.051   6.834   2.689
57089W        W24157  28.030  44.875  13.324
57090W        W24158  35.063  39.385   1.757
57091W        W24159  25.599  10.183  14.988
57092W        W24160  23.676   9.311  11.429
57093W        W24161  27.630  39.983   2.294
57094W        W24162   5.342   5.317  12.940
57095W        W24163  26.150  23.179   3.213
57096W        W24164  26.595   1.328   2.196
57097W        W24165  34.022  19.052  14.354
57098W        W24166  41.533   1.812   3.783
57099W        W24167  32.603  25.512   0.808
57100W        W24168  23.033  36.582   4.223
57101W        W24169  14.813  12.849  12.084
57102W        W24170  13.330  37.045   3.313
57103W        W24171   7.250  41.850  10.417
57104W        W24172  30.051  43.010  11.874
57105W        W24173  11.213  41.914   0.892
57106W        W24174  33.048  35.560   3.166
57107W        W24175  30.101  14.621   3.695
57108W        W24176  28.511  43.452   4.663
57109W        W24177  40.434  30.646  10.081
57110W        W24178  38.834   6.363   4.161
57111W        W24179  42.405   9.227  13.530
57112W        W24180  21.698   7.801   1.934
57113W        W24181   5.320  17.294  14.936
57114W        W24182   5.298  22.641   4.727
57115W        W24183   2.964  41.313   3.862
57116W        W24184  41.389  33.411   3.374
57117W        W24185  43.407  26.179  12.043
57118W        W24186   6.185  35.522   4.141
57119W        W24187   1.846  18.170   2.227
57120W        W24188  19.560  17.661   3.243
57121W        W24189  25.538  40.995  12.941
57122W        W24190  37.412   3.329   2.271
57123W        W24191  31.054   9.643   1.254
57124W        W24192  43.510   0.814   2.208
57125W        W24193  39.407  20.583  13.449
57126W        W24194  38.472  40.938  11.941
57127W        W24195  44.767   6.692  14.864
57128W        W24196  19.693  16.140   0.276
57129W        W24197  36.960  19.203  12.449
57130W        W24198  38.395  29.606  10.505
57131W        W24199  29.169  30.059  11.577
57132W        W24200  19.569  40.998   3.675
57133W        W24201  27.521  36.440  12.564
57134W        W24202  41.821  44.947   3.212
57135W        W24203  24.204  30.519   2.291
57136W        W24204  29.031  17.697  11.964
57137W        W24205  34.085  41.358   2.818
57138W        W24206  41.966  14.310   0.403
57139W        W24207  31.424  25.158   3.302
57140W        W24208   3.410  36.452  13.053
57141W        W24209   4.895  44.415   0.922
57142W        W24210  29.608  17.155   0.748
57143W        W24211  23.522  40.352  13.356
57144W        W24212   8.165  36.588   0.418
57145W        W24213  28.515  17.098  12.525
57146W        W24214  14.140   3.879   1.822
57147W        W24215  35.596  19.690  10.525
57148W        W24216  19.657   5.401   2.405
57149W        W24217  16.302  31.129   0.281
57150W        W24218  43.470  26.164   1.418
57151W        W24219  42.319  15.766  13.904
57152W        W24220   2.951  39.931  13.353
57153W        W24221  22.012  24.531   3.242
57154W        W24222  26.952  22.154  10.508
57155W        W24223   3.262  10.212  13.415
57156W        W24224  16.202  29.663  10.409
57157W        W24225  25.576  44.500  11.392
57158W        W24226   9.807  12.799  11.522
57159W        W24227  36.383  39.423   3.287
57160W        W24228   1.465   7.833   2.851
57161W        W24229  37.378  29.038  12.555
57162W        W24230   9.273  32.906   2.271
57163W        W24231  13.139  19.107   1.821
57164W        W24232  23.575   4.741   3.820
57165W        W24233  15.276  25.692   3.859
57166W        W24234   6.704  31.609  12.853
57167W        W24235  27.641   3.330   0.825
57168W        W24236  22.590  32.481   2.399
57169W        W24237  15.274  33.418   4.833
57170W        W24238  30.503   1.946   0.428
57171W        W24239   4.754  35.936  14.813
57172W        W24240   0.899  41.956  14.376
57173W        W24241  37.941  33.601  11.440
57174W        W24242  32.978  12.352   1.848
57175W        W24243  31.151   0.265   4.283
57176W        W24244  44.356  35.591  12.578
57177W        W24245  37.547  37.433  13.917
57178W        W24246   5.243  42.796   2.291
57179W        W24247  25.111   1.396   3.328
57180W        W24248  12.647  27.587   4.794
57181W        W24249   4.209  42.459   2.793
57182W        W24250   8.875  38.536   4.244
57183W        W24251  28.021  43.893   3.375
57184W        W24252  41.348  42.012   0.298
57185W        W24253  41.923   4.371  12.932
57186W        W24254  26.509  30.424  14.800
57187W        W24255   0.334  22.659   1.389
57188W        W24256  17.200  35.090   0.853
57189W        W24257  29.619  27.622  13.024
57190W        W24258  38.424  17.067  12.933
57191W        W24259  44.501  44.452   1.413
57192W        W24260  43.276  21.134  14.396
57193W        W24261  41.825   1.246   3.745
57194W        W24262   1.322   1.830   2.694
57195W        W24263  11.328  41.855  14.508
57196W        W24264  38.065  25.682   3.818
57197W        W24265  39.537   5.751  12.085
57198W        W24266   7.676  42.030   1.819
57199W        W24267   8.282  11.148  14.019
57200W        W24268   8.255  41.360  11.547
57201W        W24269  44.875  36.578  14.841
57202W        W24270   6.903  18.164   1.767
57203W        W24271   3.836  43.778  12.863
57204W        W24272  15.702  40.360  11.432
57205W        W24273  14.326   7.758  10.954
57206W        W24274  29.457  44.344  12.965
57207W        W24275  26.689   3.734  13.388
57208W        W24276   6.838  24.183   0.817
57209W        W24277   2.752  14.830  10.585
57210W        W24278  27.683   3.404  12.423
57211W        W24279  36.490  44.807  14.434
57212W        W24280  22.611  43.971  13.870
57213W        W24281  32.909  15.312  11.025
57214W        W24282   3.280  35.004   2.687
57215W        W24283  11.227  26.170  12.889
57216W        W24284  31.031  34.966  13.513
57217W        W24285  11.848  10.382   2.830
57218W        W24286  24.587  31.406  13.462
57219W        W24287  30.478  34.599  11.102
57220W        W24288  36.090  24.194   4.329
57221W        W24289  36.487   5.870   9.921
57222W        W24290   7.415   1.282   4.734
57223W        W24291  11.849  15.817  11.402
57224W        W24292   2.771  17.212  10.493
57225W        W24293  14.643  31.142  11.019
57226W        W24294  20.221  35.590   4.747
57227W        W24295  27.079  14.642  10.593
57228W        W24296  33.412  38.475  12.045
57229W        W24297  34.091   7.197   4.682
57230W        W24298   5.255  38.905   1.398
57231W        W24299   6.908  21.554   1.786
57232W        W24300  17.110  31.551  11.579
57233W        W24301   3.459  32.400  14.283
57234W        W24302  29.552   4.233   1.341
57235W        W24303  33.978  40.345  11.052
57236W        W24304  40.477  31.518   1.413
57237W        W24305  26.595  29.963   3.235
57238W        W24306  26.523   3.452   3.295
57239W        W24307   6.223   4.333   4.787
57240W        W24308  21.114  11.230  11.563
57241W        W24309  27.108  31.628  14.509
57242W        W24310  24.095  17.106   3.378
57243W        W24311   4.829  42.934   4.159
57244W        W24312  39.996  33.619   3.369
57245W        W24313  12.355  26.466   2.799
57246W        W24314  36.026  27.496  13.939
57247W        W24315  11.761  18.791   5.312
57248W        W24316   0.413   6.679  13.874
57249W        W24317  38.860  24.211   1.260
57250W        W24318   0.984  31.926  13.363
57251W        W24319  26.119  29.004   1.444
57252W        W24320   9.271  24.048   2.722
57253W        W24321  17.587  24.998  12.070
57254W        W24322   6.402  21.601  11.494
57255W        W24323  10.341  18.242  13.434
57256W        W24324  42.833   7.828  13.837
57257W        W24325  40.346   1.909  11.380
57258W        W24326  34.935   7.357   4.281
57259W        W24327  11.699   7.809  12.841
57260W        W24328  29.955  34.879   2.715
57261W        W24329  35.883   4.352   2.397
57262W        W24330   9.686  29.017   4.201
57263W        W24331  42.303  12.638  14.902
57264W        W24332  33.494  31.051  12.901
57265W        W24333  38.944   9.264   1.451
57266W        W24334  22.110  44.453   4.334
57267W        W24335  37.413  14.315   4.610
57268W        W24336  10.852  43.803  13.016
57269W        W24337  18.610  20.174   5.250
57270W        W24338  12.701  33.954  13.464
57271W        W24339  33.024  12.279   3.657
57272W        W24340  17.741  23.083  14.822
57273W        W24341  18.614  11.185  13.053
57274W        W24342  25.990   8.261  13.798
57275W        W24343   0.251   5.842   4.606
57276W        W24344  25.160  37.040   1.846
57277W        W24345  37.473  39.412  13.912
57278W        W24346  42.396  33.981   1.426
57279W        W24347  41.812  15.154   1.822
57280W        W24348  36.959  40.885   0.266
57281W        W24349  41.840  39.446  12.429
57282W        W24350   0.988  37.414   2.358
57283W        W24351  33.057   9.225  13.497
57284W        W24352  35.937  12.804  13.537
57285W        W24353   7.254   9.214  11.485
57286W        W24354   5.815  24.172  13.031
57287W        W24355   1.976  25.071   2.247
57288W        W24356  38.364  39.485   2.254
57289W        W24357   0.842  43.342  13.465
57290W        W24358  20.537   6.756   1.714
57291W        W24359  15.271   2.367   4.194
57292W        W24360  34.476  23.123   0.275
57293W        W24361  15.645  13.780  14.373
57294W        W24362  33.536  19.074   4.206
57295W        W24363  32.551   2.754   1.808
57296W        W24364  23.578  15.182   0.324
57297W        W24365  13.688   0.819  13.310
57298W        W24366  27.162   5.894  14.288
57299W        W24367   9.195   1.312   4.775
57300W        W24368  42.311  28.952   4.186
57301W        W24369   2.463   1.811   2.254
57302W        W24370  23.730  14.233   0.790
57303W        W24371  16.767  39.340  14.836
57304W        W24372  32.909  18.147   1.233
57305W        W24373  22.719   0.886  11.004
57306W        W24374  40.836  41.499  10.437
57307W        W24375  34.532  33.009   3.338
57308W        W24376  44.995   6.857   3.753
57309W        W24377  12.290  36.443   4.209
57310W        W24378   7.397   3.416  11.519
57311W        W24379  44.296  11.262   2.201
57312W        W24380  18.283   0.394  10.921
57313W        W24381  38.884  24.077   0.408
57314W        W24382   2.419  39.451   0.266
57315W        W24383  35.511  41.466   3.250
57316W        W24384   6.319   8.186  14.340
57317W        W24385   3.891  39.051   3.191
57318W        W24386  24.069   4.786   1.269
57319W        W24387   8.279  18.789   0.785
57320W        W24388   7.729   1.889   1.934
57321W        W24389  31.459  42.444   1.278
57322W        W24390  10.709  33.400  14.512
57323W        W24391  24.652  24.658   0.837
57324W        W24392  39.382  13.217   4.671
57325W        W24393  16.674   1.453   2.795
57326W        W24394  32.940  23.564  14.970
57327W        W24395  31.519  39.894   3.753
57328W        W24396   7.399  10.635  13.830
57329W        W24397  17.196  32.526  14.826
57330W        W24398   8.813  32.084   1.308
57331W        W24399  27.539  12.825   1.788
57332W        W24400  40.512  20.244   2.219
57333W        W24401  31.598  34.987  13.426
57334W        W24402  23.616   8.668  14.955
57335W        W24403   8.718  37.886  10.511
57336W        W24404   3.290  40.504   0.805
57337W        W24405   6.324  26.164   1.695
57338W        W24406  38.985  22.158  10.122
57339W        W24407  42.340   8.208   3.155
57340W        W24408  23.042  15.606  13.338
57341W        W24409  22.100  11.655  13.986
57342W        W24410   0.754  12.202   1.321
57343W        W24411  18.092  10.367  14.871
57344W        W24412  32.610  26.083   3.305
57345W        W24413  24.995   6.417  11.589
57346W        W24414  40.430  15.729  11.868
57347W        W24415  38.470  41.959   3.776
57348W        W24416  27.008  27.943  10.055
57349W        W24417  44.974  39.896  11.046
57350W        W24418  33.036   4.756  12.972
57351W        W24419  15.781  24.208  13.054
57352W        W24420  35.587  38.056   0.264
57353W        W24421  24.142  12.159   1.826
57354W        W24422  34.546   6.210   3.226
57355W        W24423  31.486  36.843  13.448
57356W        W24424  22.586  32.585   3.832
57357W        W24425  19.575  36.458   3.841
57358W        W24426   8.896  37.513   3.154
57359W        W24427  33.478  39.484  10.475
57360W        W24428  20.563  15.822  14.327
57361W        W24429  20.173  40.446   3.382
57362W        W24430  31.023  18.113  12.954
57363W        W24431  37.046  15.179  10.445
57364W        W24432  26.039   8.659   0.773
57365W        W24433  15.231   6.383  10.461
57366W        W24434   7.857  41.444   5.259
57367W        W24435  22.033  42.332   5.787
57368W        W24436   2.445  34.528   1.433
57369W        W24437   3.307  15.102  12.964
57370W        W24438  33.496  39.918   3.705
57371W        W24439  33.916   1.278  14.301
57372W        W24440  17.638  14.333   0.452
57373W        W24441  19.640  38.859   5.766
57374W        W24442   8.878   4.439  11.375
57375W        W24443  16.167  18.175   3.248
57376W        W24444  23.998  28.527  12.915
57377W        W24445  14.284  38.445   0.357
57378W        W24446   7.713  40.321  12.043
57379W        W24447  28.975  17.113  13.985
57380W        W24448  14.305  16.249   0.743
57381W        W24449   0.963  11.761   0.749
57382W        W24450  34.401  41.800   0.328
57383W        W24451   5.786  44.314  14.476
57384W        W24452  41.394  39.956  10.634
57385W        W24453  10.659  15.267   1.437
57386W        W24454  35.094  26.655  11.580
57387W        W24455  20.525   0.494   0.880
57388W        W24456  43.425  10.673  13.361
57389W        W24457  16.236  33.006  10.990
57390W        W24458   6.250   7.667   1.842
57391W        W24459   3.409  16.675  14.979
57392W        W24460   4.943  26.467  12.538
57393W        W24461  34.464   6.283   0.464
57394W        W24462   0.421  14.257  12.413
57395W        W24463   9.811  29.558  11.900
57396W        W24464  25.192   1.284  12.442
57397W        W24465  43.807  14.799  10.465
57398W        W24466   8.263  30.153   0.402
57399W        W24467  24.609  25.621  10.558
57400W        W24468  21.233  10.177   4.603
57401W        W24469  23.604  34.015  11.030
57402W        W24470  38.848  18.703   0.776
57403W        W24471  32.069  22.512   2.698
57404W        W24472   6.859  12.722  10.596
57405W        W24473  14.607  16.650  10.914
57406W        W24474  44.424  23.533   1.276
57407W        W24475  43.872  17.174  11.940
57408W        W24476  40.396   3.301  10.642
57409W        W24477  34.400  24.664  13.353
57410W        W24478  20.236  10.385  12.988
57411W        W24479   6.385  19.200   4.301
57412W        W24480  21.566  19.739  13.946
57413W        W24481   9.280  26.475   1.928
57414W        W24482   8.874  39.870  10.924
57415W        W24483  42.827  19.596   0.728
57416W        W24484  44.980  23.041   1.736
57417W        W24485  10.854  21.225  11.466
57418W        W24486  18.099   0.375   1.806
57419W        W24487  25.579   5.879  13.049
57420W        W24488  32.906  12.170   2.721
57421W        W24489  11.716   1.401  12.870
57422W        W24490  14.763  27.668  14.974
57423W        W24491  31.456   4.229   2.311
57424W        W24492   8.267  36.962   0.302
57425W        W24493  30.472  32.990   3.633
57426W        W24494   3.745   3.375  13.956
57427W        W24495  20.627   9.281   2.319
57428W        W24496  10.808  31.016   2.221
57429W        W24497  39.352  35.564   1.419
57430W        W24498  33.569  18.170  14.022
57431W        W24499  37.506  25.505  12.553
57432W        W24500   4.896  42.943   3.317
57433W        W24501   0.932   4.266  12.020
57434W        W24502  34.369  12.703   0.345
57435W        W24503  32.997  34.459  13.536
57436W        W24504  16.212   6.727  12.492
57437W        W24505  36.012   5.713  14.940
57438W        W24506  37.847   6.262  11.891
57439W        W24507  41.534  43.912  14.456
57440W        W24508  33.479  24.139   1.696
57441W        W24509   9.739  31.471   1.415
57442W        W24510  34.040  10.731   3.747
57443W        W24511   6.218  39.883   2.261
57444W        W24512   5.409  30.939  12.930
57445W        W24513  22.117  27.489  10.534
57446W        W24514  28.535  24.134  10.406
57447W        W24515  35.955  10.678  14.936
57448W        W24516   0.842  37.868  14.810
57449W        W24517  43.816  23.158   3.189
57450W        W24518  13.645   2.757  11.384
57451W        W24519  10.653   8.398  14.282
57452W        W24520   3.306  41.012  10.594
57453W        W24521  33.463  32.446  12.926
57454W        W24522  12.733   9.707  12.383
57455W        W24523  14.331  38.366  12.986
57456W        W24524  16.253   4.815  12.952
57457W        W24525  26.997   8.747  10.623
57458W        W24526  38.437   7.799   0.262
57459W        W24527   4.794  19.728   5.200
57460W        W24528  29.070  18.103  13.881
57461W        W24529  43.874   9.351  12.974
57462W        W24530  16.764  42.962  12.419
57463W        W24531  12.782  25.135   2.684
57464W        W24532  27.142  43.450   2.678
57465W        W24533  31.018  31.648   4.255
57466W        W24534   0.298   1.936  12.390
57467W        W24535  28.559  29.110   3.834
57468W        W24536  41.451  12.760   1.227
57469W        W24537  40.352  31.573  11.504
57470W        W24538   3.943  33.534  12.520
57471W        W24539  16.790   2.450  12.576
57472W        W24540  17.090  30.026   4.279
57473W        W24541   7.221   0.813  12.058
57474W        W24542  31.003  13.244  11.026
57475W        W24543  31.627   3.717  11.880
57476W        W24544  14.126  23.993   4.637
57477W        W24545   6.330  13.806   1.701
57478W        W24546  35.531  21.046  13.324
57479W        W24547   7.175  37.955   1.853
57480W        W24548  17.558  34.381   4.816
57481W        W24549  27.523  15.804   5.189
57482W        W24550  11.766  32.885  12.002
57483W        W24551  39.932  33.512  12.089
57484W        W24552  39.327   7.731  12.436
57485W        W24553  26.970  17.666  11.509
57486W        W24554  26.160  39.876   1.849
57487W        W24555  32.030  35.966   0.939
57488W        W24556  16.073   9.662  14.922
57489W        W24557  23.706  40.929   0.872
57490W        W24558  34.900   6.292  12.904
57491W        W24559  39.514  34.024  14.945
57492W        W24560   8.727  12.619   1.242
57493W        W24561  32.008  23.732   0.897
57494W        W24562   8.731  15.687   1.800
57495W        W24563   8.847  12.203   3.734
57496W        W24564  38.852  26.187  11.088
57497W        W24565  26.703  19.703  10.599
57498W        W24566   9.882  16.274  12.931
57499W        W24567  19.118  22.663  13.314
57500W        W24568   4.367  28.162  13.359
57501W        W24569  14.223  37.492  11.006
57502W        W24570  15.118  17.136   2.217
57503W        W24571  33.526  43.485   5.314
57504W        W24572   7.387   4.732  13.448
57505W        W24573  36.500  29.136  13.395
57506W        W24574  34.071  23.005   0.890
57507W        W24575  32.399  14.225  13.011
57508W        W24576  22.512  18.286   3.647
57509W        W24577  15.133  42.029   0.851
57510W        W24578   3.833  28.967  14.347
57511W        W24579  19.765   6.189  13.054
57512W        W24580  22.161  14.189   2.392
57513W        W24581  37.947  29.468   4.299
57514W        W24582  15.284  37.877   4.249
57515W        W24583  21.076   7.809  13.924
57516W        W24584  11.159  24.551  10.929
57517W        W24585   6.771  41.934  11.590
57518W        W24586  10.194   3.371   3.804
57519W        W24587  30.651  40.830   0.430
57520W        W24588  10.171  22.209   2.674
57521W        W24589  10.339  30.128   4.207
57522W        W24590   7.777  39.870   0.472
57523W        W24591   1.328  28.442   4.698
57524W        W24592  17.075  13.627   4.639
57525W        W24593  38.524  19.667  12.982
57526W        W24594   0.776  42.424   0.830
57527W        W24595   0.347   6.291   1.804
57528W        W24596  23.082  11.325  14.398
57529W        W24597   7.675  12.244   0.885
57530W        W24598   0.819  10.735   3.758
57531W        W24599   5.821   1.401  14.983
57532W        W24600   1.825  28.056   4.217
57533W        W24601  23.602   7.199  14.508
57534W        W24602   3.270  16.607   1.451
57535W        W24603  14.702   1.377   2.854
57536W        W24604  29.520  27.635   2.320
57537W        W24605  43.809  41.370  11.607
57538W        W24606  42.912  10.657   1.257
57539W        W24607  23.523   9.764  13.914
57540W        W24608   2.245  32.627  11.407
57541W        W24609  36.473   5.690   4.597
57542W        W24610   7.300   4.786  10.457
57543W        W24611  33.551  11.636   3.655
57544W        W24612  30.627  38.517  14.825
57545W        W24613  18.173  25.066   3.837
57546W        W24614  31.640  22.550   4.729
57547W        W24615  12.357  27.597   3.244
57548W        W24616   6.847  22.653  11.391
57549W        W24617  43.834   8.324   1.225
57550W        W24618  20.562  21.565  11.078
57551W        W24619  39.892   2.379  13.972
57552W        W24620  38.857  30.021   0.835
57553W        W24621   4.204  35.914  13.835
57554W        W24622  37.862  31.519   3.796
57555W        W24623  30.108  16.219  14.780
57556W        W24624  32.125  38.372  11.518
57557W        W24625  17.697  30.158  14.511
57558W        W24626  35.404  15.672   4.202
57559W        W24627  22.501  13.171  11.519
57560W        W24628  38.990   6.388  10.476
57561W        W24629   6.344  23.626  11.877
57562W        W24630  21.080  21.686  12.348
57563W        W24631   8.402  27.127  13.805
57564W        W24632  29.602  34.612   3.644
57565W        W24633  14.659   8.192   0.364
57566W        W24634  18.625  10.296   4.178
57567W        W24635  31.464  11.646   2.676
57568W        W24636   3.855  24.006  14.366
57569W        W24637  28.161   5.885  10.910
57570W        W24638   9.782  20.663  12.866
57571W        W24639  11.808  26.570  14.022
57572W        W24640  31.439  30.547  12.843
57573W        W24641   5.716  22.097   3.228
57574W        W24642  34.087  39.977   3.712
57575W        W24643  33.124  42.829   0.313
57576W        W24644   6.850  44.437   0.407
57577W        W24645   0.863  31.559   1.776
57578W        W24646  40.395  31.906  13.458
57579W        W24647  31.512   3.831  12.362
57580W        W24648  43.369  30.992  10.518
57581W        W24649  39.033  28.993   0.422
57582W        W24650  12.731  20.075  10.924
57583W        W24651   4.762   1.415   5.253
57584W        W24652   3.812   0.435   3.828
57585W        W24653  16.171   3.829   4.780
57586W        W24654   9.790  26.632  11.432
57587W        W24655  29.432  22.712  10.421
57588W        W24656   0.892  30.592   5.180
57589W        W24657  22.116  40.334   2.700
57590W        W24658  19.744  35.950  13.490
57591W        W24659  21.632   0.451  11.541
57592W        W24660  13.222  35.040   5.148
57593W        W24661  42.392  42.952   4.740
57594W        W24662  10.151  14.744  14.368
57595W        W24663  16.221  29.645   3.800
57596W        W24664   9.314  33.106  13.933
57597W        W24665  28.102  16.105  10.905
57598W        W24666  31.567  42.987   5.307
57599W        W24667  10.842  32.469  14.321
57600W        W24668  17.228  42.821  12.032
57601W        W24669  39.032  20.192   0.848
57602W        W24670  33.566  17.227  11.100
57603W        W24671  20.111  31.457   3.288
57604W        W24672  19.542  30.451   3.272
57605W        W24673  25.535  33.918  10.412
57606W        W24674   7.172  35.091  12.465
57607W        W24675   4.436  29.444   1.218
57608W        W24676  20.057   8.701  10.611
57609W        W24677  33.489  33.075  10.453
57610W        W24678   6.318  19.675   2.339
57611W        W24679  38.394  30.560  14.928
57612W        W24680  20.714  32.612   0.464
57613W        W24681  25.580  39.504  11.901
57614W        W24682  21.720  44.467   4.804
57615W        W24683   5.783  27.119   2.275
57616W        W24684  16.290  44.322   1.428
57617W        W24685  35.008  31.417  14.935
57618W        W24686   4.875  37.541  12.421
57619W        W24687  18.560  41.946  11.125
57620W        W24688   5.859  28.440  12.509
57621W        W24689  12.208  41.859   4.149
57622W        W24690  42.491   5.722   0.381
57623W        W24691  13.765  35.961  12.891
57624W        W24692  20.554  40.937   2.896
57625W        W24693   5.313  14.158  10.561
57626W        W24694  22.132  44.856  10.895
57627W        W24695  33.939  16.712   2.310
57628W        W24696  20.189   4.232  14.865
57629W        W24697   2.938  41.538   4.251
57630W        W24698  30.644  30.146  11.388
57631W        W24699   8.302  32.635  14.928
57632W        W24700   5.279  32.496   3.146
57633W        W24701  34.956  36.467   3.849
57634W        W24702  41.525  34.446  13.526
57635W        W24703   2.893  19.283   1.728
57636W        W24704  43.843   9.646  12.055
57637W        W24705  26.558   3.927   4.798
57638W        W24706  38.377   2.245  13.836
57639W        W24707  41.956  16.809   1.306
57640W        W24708   3.859   9.728  10.922
57641W        W24709  35.855  35.853   1.390
57642W        W24710  19.170  43.334   3.264
57643W        W24711   8.893  16.760  10.024
57644W        W24712  38.020  23.176  14.901
57645W        W24713  13.162  10.144   9.946
57646W        W24714  33.063  21.031  14.495
57647W        W24715  14.269  29.623  13.863
57648W        W24716  39.869   5.329   0.857
57649W        W24717  28.510  30.544   3.709
57650W        W24718  32.452  20.116   4.810
57651W        W24719  10.873  22.153   0.945
57652W        W24720  11.719  33.016   1.930
57653W        W24721  25.570   6.688  12.048
57654W        W24722  21.641  26.520   4.645
57655W        W24723  40.480  10.851   3.702
57656W        W24724  27.026  24.665   1.872
57657W        W24725  38.530  28.133   2.287
57658W        W24726   2.449  38.940   1.257
57659W        W24727  35.592  19.068   3.763
57660W        W24728  38.960   9.724  10.052
57661W        W24729  17.564   7.896  10.075
57662W        W24730  14.678  12.174   2.289
57663W        W24731  15.703  36.928  14.952
57664W        W24732  34.038   7.321   3.779
57665W        W24733  36.845  40.875  11.494
57666W        W24734   2.863  40.512   0.766
57667W        W24735  27.599   9.351   4.124
57668W        W24736  30.436  17.138   2.223
57669W        W24737  44.793  33.905  14.366
57670W        W24738   5.268   7.379  14.927
57671W        W24739  28.502  25.646   3.201
57672W        W24740  31.101   7.857  13.494
57673W        W24741  11.253  22.653  12.003
57674W        W24742  12.737  34.450   0.345
57675W        W24743  18.569  39.026   5.203
57676W        W24744   8.791  36.938   3.295
57677W        W24745  39.537   0.332  12.576
57678W        W24746   5.849  36.960  13.914
57679W        W24747   0.873  25.646   4.718
57680W        W24748  28.549   6.869  13.963
57681W        W24749  36.481  29.466   3.689
57682W        W24750  28.501  17.154   1.241
57683W        W24751   0.326  29.566  14.028
57684W        W24752  21.218  29.550  14.300
57685W        W24753  43.779   7.692   4.774
57686W        W24754  20.144  26.666  13.937
57687W        W24755  22.506  16.095   1.218
57688W        W24756  19.671  26.536   0.340
57689W        W24757   3.716  31.410  10.952
57690W        W24758  13.825   5.427   4.731
57691W        W24759  22.245  28.503   2.676
57692W        W24760  31.640  22.995  13.842
57693W        W24761  33.383  32.035   4.234
57694W        W24762  24.580  17.783   2.824
57695W        W24763  43.868  24.096  14.771
57696W        W24764  30.434   8.259  13.039
57697W        W24765  38.907  18.740  14.412
57698W        W24766  42.386  14.140  12.007
57699W        W24767  33.035   3.421  12.471
57700W        W24768  29.463  16.657  10.898
57701W        W24769  21.666  26.018   3.286
57702W        W24770  16.292   2.937   3.862
57703W        W24771  12.810  19.558   4.702
57704W        W24772   1.962  40.939  12.986
57705W        W24773  11.778  17.605   0.817
57706W        W24774  23.496  35.073   3.307
57707W        W24775   4.865  10.786   3.245
57708W        W24776  34.376  42.896   1.422
57709W        W24777  36.979  36.548  11.013
57710W        W24778  13.131  17.763   2.191
57711W        W24779  37.890  26.588   3.196
57712W        W24780  41.345  39.060  11.471
57713W        W24781  35.858  39.999   0.327
57714W        W24782   7.811   5.690   4.667
57715W        W24783  24.600  23.030  11.377
57716W        W24784  39.021  31.006  14.791
57717W        W24785   3.817   2.334   3.332
57718W        W24786  10.306  21.078  12.096
57719W        W24787   8.361   0.814  10.902
57720W        W24788  39.418  12.228  10.433
57721W        W24789  18.225  40.337   4.605
57722W        W24790  25.025  41.008  12.391
57723W        W24791  19.157  32.550   2.393
57724W        W24792  18.751  13.623   2.893
57725W        W24793  16.231   1.759  11.922
57726W        W24794  33.458  37.580  13.873
57727W        W24795  39.988   9.663  12.948
57728W        W24796  32.601  22.645   4.202
57729W        W24797  12.327   0.855  11.392
57730W        W24798  26.641  15.780  14.407
57731W        W24799  12.317  20.655  13.989
57732W        W24800  14.257  20.721  13.316
57733W        W24801  24.102  38.444   4.326
57734W        W24802   7.409  24.036  12.346
57735W        W24803  42.350  23.720  11.906
57736W        W24804  43.402  30.446   1.841
57737W        W24805   1.313  42.929  10.428
57738W        W24806  20.577  11.211  12.088
57739W        W24807   8.815   7.771   3.311
57740W        W24808  29.135  22.168  12.917
57741W        W24809  31.524  25.711   0.785
57742W        W24810   5.858  31.911  12.918
57743W        W24811  40.541  11.648   0.476
57744W        W24812   8.843  44.981   0.833
57745W        W24813   4.430  38.422  14.503
57746W        W24814  25.515  28.591   3.858
57747W        W24815  42.441   5.223   4.342
57748W        W24816  35.887  19.048   0.385
57749W        W24817  39.832  21.520  10.558
57750W        W24818  25.991  23.068   2.365
57751W        W24819  42.424  27.485  12.981
57752W        W24820  20.706  27.156  11.994
57753W        W24821  43.008  12.357   1.769
57754W        W24822  37.075  26.181   2.837
57755W        W24823  21.110   5.775   3.816
57756W        W24824  24.524  34.945  10.968
57757W        W24825  24.121  39.518   0.760
57758W        W24826  10.232  20.685  14.934
57759W        W24827  20.041   5.424   2.385
57760W        W24828  25.684  37.495  12.348
57761W        W24829  11.822  30.565  13.341
57762W        W24830  16.602  42.381  11.426
57763W        W24831   5.396  44.505  11.903
57764W        W24832  19.761  25.521  10.896
57765W        W24833  40.919  29.436   3.666
57766W        W24834  10.671  31.080  12.895
57767W        W24835  20.137  14.112  10.946
57768W        W24836  15.214  27.144   3.833
57769W        W24837  28.183  18.676   1.807
57770W        W24838  32.900  14.643  12.053
57771W        W24839  43.365   9.812  11.998
57772W        W24840  10.250  41.955   1.393
57773W        W24841  35.020   7.355  12.996
57774W        W24842  14.247  26.108   0.455
57775W        W24843  23.215   3.372   0.802
57776W        W24844  17.765  21.616   0.877
57777W        W24845  35.540   0.363  11.373
57778W        W24846  22.594  21.672  14.875
57779W        W24847  26.497  31.557   1.416
57780W        W24848  39.824   9.681   4.312
57781W        W24849  23.687  19.126   2.300
57782W        W24850  17.069  10.288  14.785
57783W        W24851  32.033  28.665  10.005
57784W        W24852  34.976  38.019  14.808
57785W        W24853  34.471  27.499  14.793
57786W        W24854  34.871  44.431   3.282
57787W        W24855   7.755  18.705  12.935
57788W        W24856  20.626  34.990   1.331
57789W        W24857  27.135  19.195   0.447
57790W        W24858   0.491  31.474  10.961
57791W        W24859   4.889  13.753  10.584
57792W        W24860   4.256  29.049   1.389
57793W        W24861  34.585  16.620   1.408
57794W        W24862   9.659  36.970   2.356
57795W        W24863  36.042  33.880   4.229
57796W        W24864  24.210  15.155   1.405
57797W        W24865   5.827  35.569   2.374
57798W        W24866  35.537  16.610  11.937
57799W        W24867   4.258   1.733   4.325
57800W        W24868   3.332  32.908   4.198
57801W        W24869  42.409  33.506   3.314
57802W        W24870  44.939  29.120  13.792
57803W        W24871  11.335  35.055  11.437
57804W        W24872   9.715  19.749  12.390
57805W        W24873   7.805   3.710  10.529
57806W        W24874  11.139  23.223  11.541
57807W        W24875  12.239  43.020  14.352
57808W        W24876  34.602  23.051   0.755
57809W        W24877   5.766   2.830  13.392
57810W        W24878  40.504  13.641   4.694
57811W        W24879  23.042  10.191   1.425
57812W        W24880  23.559  23.588  10.895
57813W        W24881  15.147  24.119   1.318
57814W        W24882  32.396  15.817   1.858
57815W        W24883  18.076  15.200   1.217
57816W        W24884   6.830  27.111  14.761
57817W        W24885   4.848  30.575  13.828
57818W        W24886   6.721  21.020   5.208
57819W        W24887   4.830  23.101  11.045
57820W        W24888  27.506   4.380   4.642
57821W        W24889   0.745  39.538   2.319
57822W        W24890  41.970   8.173  11.397
57823W        W24891   1.960  29.961  11.993
57824W        W24892  38.545  17.755   3.169
57825W        W24893  17.201  19.547  10.479
57826W        W24894  38.905  18.605   0.250
57827W        W24895  42.998  43.388   1.780
57828W        W24896   9.785  26.594   4.321
57829W        W24897  32.621   9.742  11.919
57830W        W24898   2.238  19.570   5.168
57831W        W24899   3.246  40.462   4.797
57832W        W24900  22.242  34.012  12.544
57833W        W24901  29.113  20.725  13.062
57834W        W24902  38.325  43.904  14.918
57835W        W24903   5.702  37.075   1.782
57836W        W24904  16.599  31.518   1.737
57837W        W24905  20.105  30.924   2.879
57838W        W24906  34.479  10.279   2.839
57839W        W24907  30.034  15.798   0.369
57840W        W24908  33.008  35.575   0.264
57841W        W24909  21.049  39.507  13.386
57842W        W24910  43.884   0.378   2.241
57843W        W24911  12.759  15.806   3.728
57844W        W24912  31.403  24.161  11.595
57845W        W24913  42.330  33.387  12.400
57846W        W24914  17.271  14.743  12.477
57847W        W24915  27.106  44.375   1.429
57848W        W24916   1.945  28.151  11.113
57849W        W24917   7.853  17.712   2.856
57850W        W24918   5.792  20.089  10.144
57851W        W24919  39.525  42.922  10.078
57852W        W24920  36.939  18.264  11.035
57853W        W24921  13.283   7.257  12.415
57854W        W24922  21.642  41.792  14.314
57855W        W24923  28.045  13.753  10.594
57856W        W24924  34.972   0.869  13.364
57857W        W24925  41.477  33.418   2.282
57858W        W24926  27.110   8.293   0.484
57859W        W24927  22.024   5.366  12.481
57860W        W24928  19.263  39.063   3.743
57861W        W24929  41.007  16.740  13.410
57862W        W24930  25.567  11.630   3.204
57863W        W24931  31.500   1.870   3.241
57864W        W24932  37.055   5.202  14.310
57865W        W24933   9.845   9.808  12.030
57866W        W24934  41.955   7.290   4.218
57867W        W24935  23.231  21.658   3.331
57868W        W24936  21.247  32.636   3.330
57869W        W24937  37.931  10.284   0.810
57870W        W24938  34.004  21.532   2.729
57871W        W24939  38.358  21.525   2.736
57872W        W24940   0.987  30.570   3.349
57873W        W24941  10.229  25.129   0.289
57874W        W24942   3.801  35.109  14.776
57875W        W24943  36.544  24.679  13.831
57876W        W24944  40.971   2.381  10.973
57877W        W24945  14.738  16.648   3.157
57878W        W24946   3.282  10.728   4.826
57879W        W24947  31.913  30.014  11.610
57880W        W24948  26.531   8.729   4.178
57881W        W24949  12.668  42.908  10.966
57882W        W24950   3.772  31.423   2.315
57883W        W24951  18.619  22.183  11.045
57884W        W24952  40.961  23.086   3.668
57885W        W24953  44.844  30.109  11.127
57886W        W24954   6.916  42.794   3.293
57887W        W24955  32.961   8.315   2.891
57888W        W24956   9.746  23.691  14.493
57889W        W24957  38.859  41.981   4.198
57890W        W24958  36.530  33.519  10.137
57891W        W24959  21.089  30.540  14.464
57892W        W24960  41.514  31.582  12.467
57893W        W24961  42.324  44.469   4.130
57894W        W24962  20.134  27.965   0.261
57895W        W24963  30.443  31.126   1.914
57896W        W24964  42.443   3.446  13.359
57897W        W24965  18.551   2.362   4.620
57898W        W24966   1.739  13.652   2.829
57899W        W24967  42.499   9.250   3.795
57900W        W24968  43.509   1.826  13.901
57901W        W24969   1.815   2.895   4.238
57902W        W24970  22.547  13.703   0.811
57903W        W24971  10.375  25.197   1.343
57904W        W24972  42.825   2.471   4.342
57905W        W24973   5.347  44.315   0.270
57906W        W24974  44.450  11.740  10.902
57907W        W24975  23.000   7.200   0.257
57908W        W24976  12.351  18.631   0.322
57909W        W24977   7.218  22.187  14.016
57910W        W24978  40.315  40.942  14.502
57911W        W24979  13.249  23.641   0.285
57912W        W24980  26.509  38.856   1.718
57913W        W24981  15.322  40.838  12.503
57914W        W24982  34.870  21.624   1.395
57915W        W24983  38.059   9.263  10.436
57916W        W24984  43.401  10.759   4.805
57917W        W24985  43.931  33.991   5.717
57918W        W24986  21.139  35.048   5.194
57919W        W24987   7.394  23.712  14.439
57920W        W24988  35.887  44.461  11.942
57921W        W24989  41.938  21.594  12.421
57922W        W24990  32.620  38.488  11.964
57923W        W24991  39.940   1.350  11.461
57924W        W24992   0.430  26.147   0.843
57925W        W24993   5.413  15.707  12.966
57926W        W24994   8.405   1.906   1.930
57927W        W24995   6.749  25.714  12.940
57928W        W24996  43.353   2.447  12.852
57929W        W24997  21.163  25.675  14.308
57930W        W24998  34.865   3.316  13.007
57931W        W24999  31.028   3.718  10.569
57932W        W25000  16.790   5.226  14.915
57933W        W25001  28.960  35.097  12.887
57934W        W25002  24.140  14.234  14.358
57935W        W25003  24.568   2.903  12.439
57936W        W25004  18.714  30.994   0.854
57937W        W25005   1.481  29.601   0.270
57938W        W25006   1.409  16.141   3.369
57939W        W25007   7.400  24.080  13.792
57940W        W25008  30.480   2.389   1.336
57941W        W25009  35.407  25.188   3.746
57942W        W25010  28.066   7.802  12.451
57943W        W25011  43.275  29.102   0.784
57944W        W25012  10.659  20.251   3.689
57945W        W25013   3.332  39.332  11.027
57946W        W25014  41.422  33.530   1.238
57947W        W25015  11.337   3.878  11.879
57948W        W25016  16.207  31.922   3.278
57949W        W25017  27.612  39.824  14.401
57950W        W25018  32.400  11.740  12.024
57951W        W25019  17.069  23.601   4.224
57952W        W25020  25.004  40.861   0.961
57953W        W25021  11.672  22.569  14.833
57954W        W25022  18.756  15.291  11.521
57955W        W25023  27.053  17.704  14.306
57956W        W25024  33.096  19.555  11.884
57957W        W25025  37.899  43.314   3.216
57958W        W25026  37.044  11.203  11.909
57959W        W25027   0.443  11.313  13.034
57960W        W25028  44.371  21.251  13.312
57961W        W25029  20.734   7.305  11.412
57962W        W25030  43.320   8.368  13.834
57963W        W25031  33.926  28.186   1.737
57964W        W25032  43.305  38.973   2.874
57965W        W25033  36.035   6.804   4.739
57966W        W25034  20.546  41.847   0.734
57967W        W25035  10.358  10.232  11.452
57968W        W25036  30.061   6.678   4.305
57969W        W25037  35.020  43.784  13.413
57970W        W25038  21.188  26.975   4.303
57971W        W25039  13.840  21.071   4.339
57972W        W25040  35.454  15.292   4.639
57973W        W25041   6.344  37.862  10.444
57974W        W25042   7.194  40.318   1.895
57975W        W25043   2.321  17.679  13.468
57976W        W25044  24.063  33.123   1.425
57977W        W25045  28.039  12.237  12.377
57978W        W25046  28.164  41.797   4.284
57979W        W25047  15.744  44.922   3.358
57980W        W25048   2.434   3.767  11.375
57981W        W25049  22.187  34.984   3.787
57982W        W25050  10.293  10.632   4.737
57983W        W25051  35.441  23.231   2.196
57984W        W25052  36.499  37.471  10.478
57985W        W25053  12.302  40.435   1.319
57986W        W25054  31.959  40.501  10.507
57987W        W25055  12.207   5.275  10.931
57988W        W25056   4.287  37.974  14.280
57989W        W25057  36.412  16.771  12.048
57990W        W25058  26.962   6.371   3.236
57991W        W25059  12.723  37.878   3.177
57992W        W25060  33.542   8.770  12.416
57993W        W25061  36.854  24.007  10.530
57994W        W25062  12.348   6.711  11.081
57995W        W25063  28.076  29.638   2.832
57996W        W25064  25.518  20.566  10.452
57997W        W25065  33.385  12.818  14.911
57998W        W25066  37.473   1.255   3.832
57999W        W25067  15.157  14.619  13.852
58000W        W25068  21.658  15.753  14.337
58001W        W25069  10.870  32.968   0.315
58002W        W25070  17.204  31.960   4.343
58003W        W25071  17.133  16.231   2.193
58004W        W25072   8.673  17.743  14.365
58005W        W25073  21.738   9.830   0.482
58006W        W25074   2.468  41.845   4.698
58007W        W25075   7.252  10.260   3.858
58008W        W25076  35.086  37.443  11.455
58009W        W25077   7.346   4.420  13.002
58010W        W25078   3.455   2.808   1.261
58011W        W25079  37.499  16.721   3.225
58012W        W25080  10.751  27.163   4.139
58013W        W25081  29.121  25.713   0.920
58014W        W25082  17.760  28.678   1.327
58015W        W25083  32.120   4.862  14.814
58016W        W25084  36.583   6.231  13.985
58017W        W25085   4.434  41.306  12.479
58018W        W25086  30.494  11.727   5.316
58019W        W25087  29.483  41.517  12.531
58020W        W25088   6.850   4.798  13.056
58021W        W25089  31.900  37.350   1.907
58022W        W25090  15.259   9.320   1.370
58023W        W25091   9.329  18.686  10.472
58024W        W25092  42.485  33.525  14.015
58025W        W25093  28.991  17.749  13.879
58026W        W25094  36.522  32.092  13.990
58027W        W25095  20.099  10.843   0.328
58028W        W25096   7.670  40.373   5.296
58029W        W25097  38.534  13.734  13.398
58030W        W25098  28.458  15.172   1.793
58031W        W25099  33.477  32.058   5.208
58032W        W25100  27.468   5.200  14.837
58033W        W25101  13.690  32.575   4.827
58034W        W25102   6.735  18.727   3.859
58035W        W25103   9.279   4.714   2.311
58036W        W25104  12.612  18.234  12.081
58037W        W25105   5.342  44.284   2.396
58038W        W25106   4.792  35.530   1.919
58039W        W25107  15.744  24.513  11.897
58040W        W25108  38.061  30.131   0.869
58041W        W25109   4.898  34.930   4.621
58042W        W25110  16.085  18.252  13.819
58043W        W25111  35.507   4.714   0.309
58044W        W25112  25.987  29.536  13.860
58045W        W25113   7.675  26.487   3.797
58046W        W25114  14.257  39.975   3.231
58047W        W25115  16.182  39.448  13.010
58048W        W25116   8.836  44.262   2.669
58049W        W25117  15.679   2.256  14.306
58050W        W25118  16.146  17.219  13.977
58051W        W25119  19.739  20.694   2.746
58052W        W25120  43.979  33.557   0.912
58053W        W25121  41.832  39.921  12.473
58054W        W25122  19.756  27.085  10.541
58055W        W25123  23.989  20.604   1.778
58056W        W25124   8.848  31.102   2.750
58057W        W25125   5.828  11.798  12.012
58058W        W25126   7.292   0.372   0.353
58059W        W25127  32.964  30.494  10.994
58060W        W25128  19.228  39.355  13.928
58061W        W25129   2.293  37.048   4.830
58062W        W25130  31.616  25.000   2.703
58063W        W25131   5.286   6.897  13.891
58064W        W25132   9.878  10.168  11.609
58065W        W25133   2.321  37.924   2.863
58066W        W25134  18.065  27.965   2.788
58067W        W25135  22.184  16.726  13.815
58068W        W25136   8.348  22.216  14.404
58069W        W25137  38.034  29.633   1.915
58070W        W25138  14.106  44.484  10.051
58071W        W25139  41.018  33.507  10.493
58072W        W25140  32.112  28.485  12.016
58073W        W25141   5.779  13.617   2.329
58074W        W25142  34.104  13.698  13.872
58075W        W25143  25.192   8.230   1.269
58076W        W25144  43.978  32.493  11.533
58077W        W25145  28.626  23.036   0.847
58078W        W25146   6.886  13.826   1.805
58079W        W25147  10.718  39.353   4.623
58080W        W25148  43.483  21.175  10.425
58081W        W25149   8.833  40.357   4.663
58082W        W25150  30.907   3.954  12.966
58083W        W25151  42.868  22.050  11.585
58084W        W25152  11.752  38.054   3.351
58085W        W25153  36.458  39.332  10.549
58086W        W25154  42.356  20.069   4.833
58087W        W25155  35.420  18.554  13.003
58088W        W25156  28.611   4.218  11.409
58089W        W25157   6.858   4.443   4.743
58090W        W25158  26.959  43.848  12.429
58091W        W25159  16.240   3.766   1.928
58092W        W25160  28.514  26.959  12.913
58093W        W25161  11.634  32.119  11.527
58094W        W25162  18.073  40.030   2.416
58095W        W25163  15.328  30.496   2.807
58096W        W25164  29.438   6.304   4.609
58097W        W25165  12.812   3.270  12.933
58098W        W25166  13.795  17.133  10.561
58099W        W25167   1.329  31.482  14.471
58100W        W25168  11.139  12.144   1.725
58101W        W25169   2.760   5.926  12.864
58102W        W25170  28.056   7.849   4.678
58103W        W25171  29.664  38.060  11.410
58104W        W25172  25.709  41.408  14.410
58105W        W25173   2.376  20.247   2.711
58106W        W25174  32.982  42.850   3.685
58107W        W25175  29.518   3.332   5.148
58108W        W25176   6.345  21.733   4.283
58109W        W25177  24.048   0.984  13.404
58110W        W25178   6.861  18.255  14.331
58111W        W25179  40.386   6.782  11.597
58112W        W25180  17.171   3.436  13.913
58113W        W25181  10.762  37.946   3.341
58114W        W25182  25.480   5.689   0.458
58115W        W25183  23.676  22.591   4.114
58116W        W25184   6.276  20.167  10.445
58117W        W25185  28.149  16.113  12.369
58118W        W25186  31.486  14.645  12.420
58119W        W25187   1.908  39.339  12.469
58120W        W25188  13.630  29.095   4.274
58121W        W25189  37.398  43.835  10.977
58122W        W25190  16.134  43.766  10.988
58123W        W25191  23.592  33.380   0.923
58124W        W25192  29.481   2.282   0.345
58125W        W25193  36.096   9.244  13.336
58126W        W25194  37.056  35.929  11.410
58127W        W25195  27.559  19.090  14.328
58128W        W25196   4.884   0.399   2.216
58129W        W25197  31.435  34.571  11.892
58130W        W25198  16.655  38.359  14.836
58131W        W25199  27.081  13.281  10.533
58132W        W25200  15.143   3.929  10.441
58133W        W25201  17.752  34.411  11.093
58134W        W25202  44.322   4.870   4.337
58135W        W25203  11.172  23.607  12.349
58136W        W25204   3.290  19.620  14.907
58137W        W25205   9.869  37.578  12.365
58138W        W25206  42.952  31.462  10.954
58139W        W25207  44.296   1.773   3.219
58140W        W25208  29.947  32.897  12.881
58141W        W25209  40.466  33.497  13.477
58142W        W25210  10.300  25.521   5.269
58143W        W25211  33.565   3.729  11.491
58144W        W25212  42.971  29.623   0.792
58145W        W25213  17.092   0.361   2.741
58146W        W25214  26.963  12.207   0.332
58147W        W25215  14.673   8.227   1.327
58148W        W25216   1.790  13.259   2.272
58149W        W25217  21.031  30.030  10.412
58150W        W25218  32.397  27.624  11.890
58151W        W25219  16.190   3.354  12.497
58152W        W25220  30.542  21.525  11.430
58153W        W25221  40.026  19.759   1.825
58154W        W25222  24.131   9.798   4.784
58155W        W25223  37.495  31.452  10.485
58156W        W25224  19.621  18.277   0.337
58157W        W25225  43.473  39.540  10.485
58158W        W25226   2.866  40.448  14.823
58159W        W25227  33.387   4.734   4.653
58160W        W25228  13.246  16.201  12.848
58161W        W25229   6.785  16.243  10.576
58162W        W25230  40.859  33.594   0.381
58163W        W25231  39.027  12.828  12.577
58164W        W25232  24.993   2.421  13.337
58165W        W25233   2.432   5.303   2.892
58166W        W25234  32.446  23.516   0.404
58167W        W25235  43.364  24.512   3.166
58168W        W25236  36.059   2.828   3.285
58169W        W25237  16.077  13.159   0.370
58170W        W25238  20.676  26.683  12.343
58171W        W25239   7.263  40.880   2.693
58172W        W25240  18.692  18.552   3.341
58173W        W25241  38.407  37.848  11.966
58174W        W25242  43.366  41.860   0.438
58175W        W25243  31.913  44.447   2.662
58176W        W25244  42.435  39.842   4.654
58177W        W25245   4.710  11.818  10.559
58178W        W25246  31.108  41.997   2.324
58179W        W25247  22.042   4.440   4.675
58180W        W25248   9.647   8.798  12.471
58181W        W25249  28.185  39.832  14.311
58182W        W25250  43.989  42.463  12.454
58183W        W25251  17.267  36.870  13.043
58184W        W25252  29.580  30.035   3.223
58185W        W25253  11.372  44.387  12.091
58186W        W25254  19.652  43.355  10.509
58187W        W25255   0.331  36.059  13.352
58188W        W25256  36.540  38.329   1.331
58189W        W25257  19.046  42.365  14.897
58190W        W25258  16.288  41.302   3.705
58191W        W25259  32.990  16.787   3.678
58192W        W25260  21.132  44.897  12.833
58193W        W25261  24.651  43.274  11.420
58194W        W25262  31.972  42.782  13.971
58195W        W25263  36.411  42.518  10.599
58196W        W25264  43.375  25.072   3.694
58197W        W25265  34.030  18.665   2.722
58198W        W25266  17.131  23.636   1.263
58199W        W25267  10.261  39.335   2.238
58200W        W25268  41.859  42.922  10.454
58201W        W25269  36.097  18.094   3.272
58202W        W25270  25.082   6.351  13.842
58203W        W25271  21.563   1.355   3.189
58204W        W25272  37.357  30.118   2.722
58205W        W25273  38.856   5.393   1.779
58206W        W25274  11.685   8.223  13.793
58207W        W25275  32.474  23.032   4.815
58208W        W25276   0.351   5.837  14.999
58209W        W25277  42.391  24.108   4.192
58210W        W25278  36.000  34.442  14.902
58211W        W25279  27.591  40.393  11.441
58212W        W25280  18.282  30.612   0.890
58213W        W25281  43.501  18.790   1.880
58214W        W25282  20.199  14.609   1.326
58215W        W25283  34.546  22.029   2.668
58216W        W25284  11.218  30.051   2.291
58217W        W25285  24.046  35.399   4.708
58218W        W25286   0.777  26.637   0.739
58219W        W25287   0.984  30.420   4.738
58220W        W25288   0.837   6.739  11.050
58221W        W25289  23.169  27.446  12.932
58222W        W25290  24.645  28.064  11.887
58223W        W25291  28.176  27.987  13.389
58224W        W25292  12.303  19.224   1.721
58225W        W25293  10.265   4.897   3.185
58226W        W25294   6.908  10.762  12.398
58227W        W25295  30.142  43.881   2.718
58228W        W25296  44.862  15.702   0.247
58229W        W25297  37.859  24.634  11.388
58230W        W25298  31.612  14.628  11.077
58231W        W25299  28.002  41.349   1.370
58232W        W25300  28.050  41.299   1.852
58233W        W25301  13.232  37.418  14.969
58234W        W25302  25.712  30.515   1.387
58235W        W25303  11.327   5.734   1.836
58236W        W25304  26.535   2.879   2.189
58237W        W25305  17.683  20.260   2.866
58238W        W25306   5.268  14.661   2.827
58239W        W25307   7.799  34.929   0.750
58240W        W25308  32.071  42.965  14.355
58241W        W25309  15.208   1.817   3.313
58242W        W25310  36.948  43.899   2.303
58243W        W25311   7.803  12.824  10.601
58244W        W25312  36.590  36.467  11.906
58245W        W25313  33.977  36.947   4.132
58246W        W25314  26.951  40.881  13.912
58247W        W25315  39.337   1.965   2.326
58248W        W25316  30.909  33.555  13.352
58249W        W25317  19.581  12.663   4.812
58250W        W25318  32.935  18.663   2.724
58251W        W25319   6.698   7.218   0.839
58252W        W25320  29.060  30.045   3.831
58253W        W25321  16.233   9.305   2.254
58254W        W25322  32.984  40.449   3.809
58255W        W25323   9.261  16.764  10.998
58256W        W25324  43.021   8.855  14.302
58257W        W25325  37.393  14.797  13.828
58258W        W25326  17.103  17.761  13.438
58259W        W25327  26.528  18.580   5.132
58260W        W25328   8.178  31.901  13.005
58261W        W25329  23.663  33.464  13.985
58262W        W25330   0.455  12.292  11.945
58263W        W25331   8.287   6.235  10.915
58264W        W25332  26.142  23.019   4.732
58265W        W25333  22.515  12.783  13.392
58266W        W25334  35.437  15.743  14.485
58267W        W25335   2.896  16.207  10.520
58268W        W25336   8.345   4.321  14.946
58269W        W25337  24.553  28.547  14.774
58270W        W25338  37.933  39.342  12.575
58271W        W25339  10.819  18.260  14.013
58272W        W25340  41.015  29.042  14.392
58273W        W25341  18.774  34.950   3.159
58274W        W25342  26.507   4.942   4.120
58275W        W25343  26.978  22.504   2.863
58276W        W25344  41.964  43.795  13.483
58277W        W25345  39.551   0.806  12.401
58278W        W25346  14.767  36.981   2.269
58279W        W25347   6.698  40.401   2.402
58280W        W25348  21.518  33.482  10.406
58281W        W25349   2.777  13.320  12.828
58282W        W25350  36.505  11.841  14.300
58283W        W25351  33.083  12.705  11.970
58284W        W25352  38.437   0.786  11.430
58285W        W25353   1.914   8.211  10.534
58286W        W25354  27.537  21.620   0.301
58287W        W25355  31.446   3.754   1.333
58288W        W25356  20.525  30.533   1.286
58289W        W25357   7.309  42.314   2.309
58290W        W25358  37.877  35.886  14.943
58291W        W25359  31.470  27.500  14.992
58292W        W25360   3.409  15.235   0.283
58293W        W25361  42.305  24.203  11.987
58294W        W25362   1.357  20.745  14.023
58295W        W25363  26.498   3.279  12.456
58296W        W25364  39.325  10.809  13.840
58297W        W25365   2.392  32.945  12.093
58298W        W25366   7.394  29.136  13.794
58299W        W25367  31.116  39.346  13.407
58300W        W25368   6.352  20.722  11.114
58301W        W25369   1.737   3.370   4.687
58302W        W25370  27.049  20.761  14.377
58303W        W25371   8.804  13.626   3.868
58304W        W25372  29.587  13.212  11.544
58305W        W25373  16.657  40.970   2.275
58306W        W25374   5.198  37.477   0.807
58307W        W25375   2.874  17.703  10.602
58308W        W25376  41.994   9.838   1.291
58309W        W25377  33.512   8.218   2.854
58310W        W25378   6.904  29.463  11.389
58311W        W25379  30.122  10.200  11.386
58312W        W25380  24.492  41.953  11.029
58313W        W25381  39.054  20.265   4.339
58314W        W25382  16.670  26.030  11.448
58315W        W25383  12.726  39.981   1.810
58316W        W25384  20.616  34.421   2.688
58317W        W25385   7.401  31.071   2.404
58318W        W25386  35.529  36.095   2.284
58319W        W25387  17.584  15.684  12.919
58320W        W25388  34.410  20.031   0.284
58321W        W25389  10.641   4.810   4.342
58322W        W25390  20.239  26.575   0.363
58323W        W25391  36.352  19.654   3.800
58324W        W25392  11.171  20.697   4.175
58325W        W25393  20.132  28.650   5.693
58326W        W25394  22.138  32.050  13.800
58327W        W25395  16.116  44.428  11.029
58328W        W25396  39.840  30.073  14.914
58329W        W25397  23.222  14.740   3.833
58330W        W25398  19.691  39.482  11.491
58331W        W25399  11.840  17.158   3.647
58332W        W25400  38.570  39.024  11.928
58333W        W25401  12.802  27.984  11.417
58334W        W25402  31.462  43.907   3.730
58335W        W25403  17.763  35.403  13.424
58336W        W25404   6.397  13.306  13.536
58337W        W25405  30.010  36.447  13.936
58338W        W25406  33.040   2.347  11.545
58339W        W25407   5.268  16.160   3.218
58340W        W25408  27.191  22.999   1.869
58341W        W25409  26.588  17.062   1.875
58342W        W25410  27.646   0.828   3.270
58343W        W25411  22.037  44.881  13.501
58344W        W25412  29.549  10.772  14.446
58345W        W25413  18.736  41.507   4.354
58346W        W25414  28.091  19.573  14.958
58347W        W25415  16.591  32.541   1.312
58348W        W25416  38.076  15.631   1.298
58349W        W25417  21.072  37.402   2.715
58350W        W25418  19.772  31.910  13.323
58351W        W25419   7.278  21.125  11.927
58352W        W25420  22.132  39.043  14.309
58353W        W25421  43.467  35.550   1.802
58354W        W25422   5.297  23.550  10.905
58355W        W25423  15.221  21.673   4.176
58356W        W25424  13.199   4.353   3.674
58357W        W25425  27.023   4.846  12.958
58358W        W25426  11.353   9.223  13.002
58359W        W25427   6.268   8.232  14.987
58360W        W25428   3.859   0.476  11.420
58361W        W25429   4.449  29.016  13.356
58362W        W25430  11.798  14.829  13.980
58363W        W25431  42.348  32.002  12.018
58364W        W25432   7.734  43.809  12.400
58365W        W25433  17.747  16.658   3.257
58366W        W25434  38.469  41.843   3.176
58367W        W25435   0.932  24.649   1.232
58368W        W25436  13.201   5.270  11.464
58369W        W25437  44.310  40.866  14.858
58370W        W25438  37.443  34.990  10.442
58371W        W25439  14.320   3.810  12.395
58372W        W25440  26.019  20.115  11.371
58373W        W25441  44.784  13.715   1.845
58374W        W25442  12.849  40.048  14.994
58375W        W25443  43.379  27.567  13.400
58376W        W25444  22.547  32.480  11.585
58377W        W25445  24.647  15.612  12.893
58378W        W25446  19.719   7.269  13.014
58379W        W25447   2.917  38.533  11.494
58380W        W25448  30.484  24.200   3.184
58381W        W25449  26.174   5.881  14.908
58382W        W25450  41.885   5.880   1.413
58383W        W25451  32.579  18.079   3.387
58384W        W25452  21.037   1.407  14.324
58385W        W25453  33.457   6.342   3.845
58386W        W25454  25.170  20.235   1.839
58387W        W25455  40.548  30.625   3.216
58388W        W25456  20.266  28.655  11.498
58389W        W25457  34.043   4.721  11.567
58390W        W25458   8.233  43.769  11.054
58391W        W25459   7.793   4.878   0.830
58392W        W25460  23.719  41.502   1.426
58393W        W25461  34.892  29.116  14.930
58394W        W25462  15.823  16.600  14.454
58395W        W25463  41.456  26.596  11.000
58396W        W25464   9.880  19.172   4.126
58397W        W25465  12.639  44.937  12.501
58398W        W25466  12.118   7.833  10.465
58399W        W25467   5.244  28.083  13.046
58400W        W25468  19.728   2.835   4.283
58401W        W25469  28.608   9.258   0.482
58402W        W25470   6.348  36.881  14.001
58403W        W25471  25.586  31.449  10.991
58404W        W25472  38.544  42.925  12.378
58405W        W25473  11.282  14.590  12.546
58406W        W25474  38.377   8.188   2.356
58407W        W25475  42.919  37.070   0.757
58408W        W25476  21.075  12.210  10.919
58409W        W25477   5.877  28.435   4.753
58410W        W25478   1.417  16.659  13.824
58411W        W25479  37.529  16.217  14.883
58412W        W25480  14.132  37.074   3.653
58413W        W25481  23.640  24.108   4.170
58414W        W25482   3.790  30.598  10.913
58415W        W25483   7.801  34.380   3.819
58416W        W25484  44.974   8.165  14.978
58417W        W25485  24.604  18.282   4.239
58418W        W25486  41.817  32.133  14.470
58419W        W25487  17.705  30.540  13.940
58420W        W25488  35.382   8.315  14.374
58421W        W25489  32.441  19.112  13.870
58422W        W25490  10.359  15.220  11.453
58423W        W25491  14.653   1.753  13.920
58424W        W25492   3.374   4.881   1.258
58425W        W25493   9.757  14.281  13.520
58426W        W25494  29.061  22.122  12.361
58427W        W25495   7.414  30.604  11.396
58428W        W25496  27.633   4.256  14.901
58429W        W25497  18.254  27.607  13.832
58430W        W25498  33.071   5.410   3.732
58431W        W25499  37.966   4.377  14.012
58432W        W25500  35.395   9.759  11.000
58433W        W25501  42.860   0.279  11.865
58434W        W25502   9.736  37.980  13.902
58435W        W25503  42.922   2.244   0.913
58436W        W25504  25.712  36.017   0.394
58437W        W25505  33.589  10.368   4.740
58438W        W25506   7.210  39.825  12.082
58439W        W25507  37.533   6.421  12.015
58440W        W25508  17.747  44.872   4.708
58441W        W25509  25.560   5.785   1.921
58442W        W25510  18.224  39.357   2.683
58443W        W25511  33.503  19.084   3.375
58444W        W25512  14.716  13.158   1.710
58445W        W25513  10.219  19.180   3.642
58446W        W25514  18.677   2.859   3.376
58447W        W25515  31.007  27.134   2.684
58448W        W25516  23.232  34.951  13.842
58449W        W25517   1.406  25.631   1.307
58450W        W25518  17.679  20.539  13.023
58451W        W25519  11.779  43.393   4.181
58452W        W25520  10.146  24.015  13.898
58453W        W25521  10.830   1.847   2.395
58454W        W25522  22.645  29.138  14.371
58455W        W25523  39.449   6.792  14.426
58456W        W25524   8.319   7.246  12.417
58457W        W25525  29.614  25.677  12.894
58458W        W25526  31.557  10.382   4.223
58459W        W25527  25.498   4.283   4.641
58460W        W25528  23.208   3.827   0.343
58461W        W25529  16.744   7.710  14.506
58462W        W25530  27.126   7.718  11.944
58463W        W25531  35.040   6.744  12.869
58464W        W25532   5.932  30.459  13.377
58465W        W25533  11.239  15.619   4.772
58466W        W25534   1.858  29.076  10.621
58467W        W25535  15.773   6.683   1.271
58468W        W25536  13.268   1.462  10.570
58469W        W25537  34.420   3.804  12.983
58470W        W25538   6.822  21.519   4.252
58471W        W25539  10.295  41.355   0.967
58472W        W25540  38.533   2.458  13.330
58473W        W25541  32.045  41.498  12.094
58474W        W25542  28.615  12.178   4.783
58475W        W25543   8.208   4.768   3.769
58476W        W25544  14.123  21.608  14.464
58477W        W25545  32.539   7.259  10.618
58478W        W25546  20.044  13.172   3.814
58479W        W25547   3.279  29.937  10.451
58480W        W25548   6.813   9.394   2.288
58481W        W25549  19.716   4.246   2.203
58482W        W25550  15.740  42.841  13.847
58483W        W25551  27.170   2.722  10.470
58484W        W25552  20.172  30.421   2.662
58485W        W25553  19.199  26.137   1.874
58486W        W25554  38.973  34.453  10.903
58487W        W25555  43.818  21.148   4.271
58488W        W25556   3.217   2.791   3.270
58489W        W25557  18.219   6.712   2.728
58490W        W25558  33.560  21.603   3.263
58491W        W25559  33.407  33.052   1.409
58492W        W25560  39.027  33.579  10.934
58493W        W25561  42.862   3.770  12.041
58494W        W25562   2.354  38.391  13.494
58495W        W25563  33.933  31.540   3.214
58496W        W25564  15.128  16.281  12.983
58497W        W25565   4.712  25.707  11.381
58498W        W25566   7.376  43.926   0.908
58499W        W25567  31.615  31.496   2.221
58500W        W25568  44.943  43.412  13.418
58501W        W25569  11.234  41.349  14.323
58502W        W25570   9.378   1.764   4.655
58503W        W25571   9.839  13.703  14.965
58504W        W25572  33.042  15.803  14.861
58505W        W25573  22.646  18.753   2.355
58506W        W25574  35.963  32.050   0.468
58507W        W25575  18.732  29.647  11.868
58508W        W25576  36.887   1.789  12.848
58509W        W25577  26.060   7.302  11.048
58510W        W25578   5.854  17.130   0.963
58511W        W25579  30.553  32.004   4.213
58512W        W25580  16.147  29.127  12.570
58513W        W25581  31.055  15.722  13.449
58514W        W25582  10.290   2.740   4.256
58515W        W25583  44.946  27.467  10.486
58516W        W25584  33.097  42.968  10.518
58517W        W25585  35.511  42.482  14.373
58518W        W25586  39.558  31.577  12.339
58519W        W25587  20.133  10.793   2.308
58520W        W25588  31.536  10.235  14.857
58521W        W25589  43.904  35.931  13.433
58522W        W25590   9.387  39.062  10.439
58523W        W25591   6.204  43.394  10.452
58524W        W25592  44.321   8.726   1.887
58525W        W25593  28.508  33.942   3.674
58526W        W25594  25.204   3.933  10.611
58527W        W25595  20.261  43.827  12.022
58528W        W25596  14.736  35.975   3.840
58529W        W25597   2.824   4.257   3.647
58530W        W25598   0.924  34.376   1.313
58531W        W25599  33.889  41.951   1.243
58532W        W25600  32.536  28.591  12.389
58533W        W25601   4.225   6.678  14.830
58534W        W25602  34.098   3.443  10.937
58535W        W25603  36.490  22.544  11.592
58536W        W25604  29.007  10.336   3.733
58537W        W25605  32.470   6.336  14.502
58538W        W25606  37.424  38.531  12.532
58539W        W25607  23.162  16.295  11.544
58540W        W25608  15.709   9.215   4.162
58541W        W25609  31.459   7.389   0.806
58542W        W25610  43.471   8.892   0.392
58543W        W25611   0.864  40.488  14.363
58544W        W25612  41.334  12.841  12.077
58545W        W25613  20.713   7.683  10.456
58546W        W25614   5.900   5.402  11.877
58547W        W25615  31.465  15.775   2.870
58548W        W25616  33.092  22.022   2.718
58549W        W25617  17.226  17.293  10.605
58550W        W25618  17.581   2.741   2.891
58551W        W25619  23.176  21.681   4.156
58552W        W25620  24.655  35.101  10.414
58553W        W25621  22.112   0.410   2.795
58554W        W25622  29.488  32.610   1.234
58555W        W25623  32.521  24.104   2.700
58556W        W25624   4.433  22.204  12.048
58557W        W25625   2.813  23.167  14.365
58558W        W25626  24.614  20.165   2.264
58559W        W25627  26.543  25.096  14.382
58560W        W25628  33.092  39.541   2.797
58561W        W25629  12.652  26.204   0.477
58562W        W25630  26.113  28.657  10.417
58563W        W25631  29.097  22.116  14.907
58564W        W25632  10.190  17.123   4.183
58565W        W25633  26.035  34.972  13.529
58566W        W25634  30.114  21.226   3.693
58567W        W25635  43.002  38.074  10.562
58568W        W25636  10.730  12.783  11.443
58569W        W25637  16.113  10.838   9.653
58570W        W25638   3.841   5.251  14.918
58571W        W25639   6.903  24.147  12.026
58572W        W25640   0.400  44.391   0.775
58573W        W25641  22.236  36.944   0.945
58574W        W25642  44.400  44.340   3.182
58575W        W25643  40.889   6.198   4.714
58576W        W25644  25.127  42.922  13.883
58577W        W25645  28.935   5.201   4.700
58578W        W25646  25.161  39.811   3.735
58579W        W25647  35.099   8.220  11.871
58580W        W25648  10.794   0.889   1.740
58581W        W25649  25.631   1.748   9.952
58582W        W25650  27.540  39.002  13.032
58583W        W25651  20.707  21.739  12.579
58584W        W25652  21.710  43.970  14.811
58585W        W25653  23.581   4.447  12.423
58586W        W25654   9.277   1.435  12.827
58587W        W25655  40.326   3.737  13.815
58588W        W25656  34.544   3.879   0.893
58589W        W25657  40.542   2.310  14.407
58590W        W25658   2.897  19.662   4.320
58591W        W25659  11.177  30.625  12.423
58592W        W25660   9.746   6.363  14.511
58593W        W25661  12.709   3.776  11.038
58594W        W25662   5.268  35.062  11.475
58595W        W25663  16.666  19.677  12.401
58596W        W25664  43.436  29.117  11.029
58597W        W25665  10.662  13.827   0.953
58598W        W25666   6.770   7.690  11.075
58599W        W25667   7.176  11.192   0.883
58600W        W25668  29.493  17.221   4.830
58601W        W25669   3.905  13.328   3.175
58602W        W25670  20.061  15.241  11.581
58603W        W25671  29.015  36.496   5.183
58604W        W25672  29.667  12.268  14.007
58605W        W25673  21.650   3.937  12.965
58606W        W25674   8.875  39.516   0.304
58607W        W25675  32.399  22.666  13.336
58608W        W25676  14.634  14.261  10.102
58609W        W25677  21.255  26.059   4.316
58610W        W25678  12.137  40.326   2.751
58611W        W25679  38.965  10.272  14.514
58612W        W25680   8.309  31.489   0.356
58613W        W25681  17.716   3.306  10.893
58614W        W25682  40.535  21.627   0.810
58615W        W25683  26.062   7.898   0.901
58616W        W25684  16.671  35.000  11.123
58617W        W25685  42.483  40.921  12.406
58618W        W25686  36.529  39.928  10.095
58619W        W25687  18.601  23.228   2.751
58620W        W25688  34.953  20.194   4.133
58621W        W25689   6.338  28.027   5.134
58622W        W25690  19.248  41.814  12.473
58623W        W25691  22.515  17.307   1.919
58624W        W25692  12.117  40.920   4.162
58625W        W25693  33.418   8.288   2.329
58626W        W25694  20.628  25.015  10.444
58627W        W25695  42.329  19.644  11.095
58628W        W25696  15.087  21.672  13.948
58629W        W25697   7.791  35.410   3.827
58630W        W25698  17.131  28.637   3.150
58631W        W25699  37.427   0.432  14.812
58632W        W25700  34.053   1.310  10.552
58633W        W25701   9.272  23.146   0.762
58634W        W25702  28.009  20.209  12.967
58635W        W25703   1.924  10.140   2.254
58636W        W25704  38.820  35.969   0.426
58637W        W25705  34.972  20.191   0.795
58638W        W25706   2.885  20.233  14.925
58639W        W25707  23.110  20.739  13.507
58640W        W25708  24.189  40.006  11.059
58641W        W25709  18.592   4.422   2.760
58642W        W25710  11.175   3.710  13.035
58643W        W25711  15.327  18.691   2.356
58644W        W25712   3.778  30.944   1.341
58645W        W25713  33.891  28.961   2.358
58646W        W25714  37.438  44.805   3.676
58647W        W25715  16.689  41.902  13.829
58648W        W25716  19.666  18.558  14.439
58649W        W25717  36.885   6.695   0.473
58650W        W25718  19.263  27.001  13.341
58651W        W25719  11.260   7.369  12.072
58652W        W25720   8.248   7.775   1.332
58653W        W25721  31.528  27.124   5.268
58654W        W25722  18.614  22.625  11.406
58655W        W25723  14.825  17.173  14.955
58656W        W25724  38.071  31.917   3.838
58657W        W25725  42.875  43.452  13.798
58658W        W25726  10.874  42.804  14.790
58659W        W25727  27.979   8.171  10.949
58660W        W25728   4.823  36.442   2.250
58661W        W25729  21.126  41.035   5.151
58662W        W25730  28.169  22.538  14.379
58663W        W25731   4.813  30.583   4.680
58664W        W25732  32.031  30.429  14.018
58665W        W25733  35.083  39.010  12.457
58666W        W25734  13.224  22.229   2.706
58667W        W25735  18.586  14.596  11.092
58668W        W25736  28.075  25.586   3.643
58669W        W25737  30.482  22.237   2.828
58670W        W25738  24.181  14.101   3.350
58671W        W25739  12.267  17.130  13.993
58672W        W25740  38.041   2.728  14.795
58673W        W25741  23.096  44.961   1.904
58674W        W25742  16.595  38.057  10.969
58675W        W25743  29.044  18.752  14.343
58676W        W25744  39.535  17.093   4.220
58677W        W25745  30.059  35.107   2.230
58678W        W25746  41.376  44.959   4.156
58679W        W25747   9.723   1.310  12.560
58680W        W25748  23.555   6.220  13.401
58681W        W25749  31.583  11.229   0.913
58682W        W25750  17.580   0.458  11.010
58683W        W25751  27.660  35.000  11.521
58684W        W25752  42.380  38.361   0.953
58685W        W25753  34.951  28.477  10.487
58686W        W25754  44.972  32.497  13.824
58687W        W25755  22.565  25.622   0.471
58688W        W25756  40.302  34.995  10.513
58689W        W25757  36.074  20.225  11.940
58690W        W25758  19.643  25.523   5.298
58691W        W25759  32.939   2.763  14.919
58692W        W25760  13.654  35.972  12.503
58693W        W25761  12.727  19.543   0.813
58694W        W25762  39.387  44.770   4.122
58695W        W25763  12.148  28.054  13.547
58696W        W25764  34.537  28.043  11.998
58697W        W25765  39.372  44.489   1.717
58698W        W25766  36.892  44.002   2.670
58699W        W25767  25.138  24.224  13.050
58700W        W25768  30.612  42.923   3.839
58701W        W25769  18.199  24.228   1.322
58702W        W25770  10.659   7.704  12.900
58703W        W25771  18.595  22.130  10.598
58704W        W25772  42.356   7.216   4.313
58705W        W25773  23.619   7.267   0.256
58706W        W25774  32.083  34.418  13.539
58707W        W25775  16.178  27.972  14.965
58708W        W25776  34.587  42.437   1.911
58709W        W25777  44.849  37.523   3.291
58710W        W25778   9.845  32.079  12.090
58711W        W25779  29.049  34.974   0.867
58712W        W25780  29.974  27.446  10.957
58713W        W25781  21.603  38.479  12.977
58714W        W25782  21.639   5.352   3.660
58715W        W25783  14.798  26.136  10.978
58716W        W25784  14.787   4.220   0.813
58717W        W25785   0.825  34.520   0.885
58718W        W25786  37.865  13.351   0.378
58719W        W25787   5.759  38.374  10.523
58720W        W25788  20.123   1.765   2.803
58721W        W25789  39.862  19.063  12.091
58722W        W25790  27.679  33.610   3.806
58723W        W25791   2.318  23.514  10.916
58724W        W25792  19.148  40.803  13.880
58725W        W25793  31.046  16.657   0.846
58726W        W25794  23.205  17.601  11.525
58727W        W25795  31.479   8.784   1.236
58728W        W25796  27.584  13.631   9.439
58729W        W25797  21.246  10.315   1.911
58730W        W25798  23.577   7.715  12.824
58731W        W25799  11.863  18.245  11.045
58732W        W25800  12.260  26.504   1.865
58733W        W25801  29.113   0.269   2.889
58734W        W25802  19.574  25.179  14.374
58735W        W25803  34.928   8.312   3.861
58736W        W25804  34.016  24.647  12.838
58737W        W25805  16.591  13.658  13.538
58738W        W25806  37.048  26.127  12.475
58739W        W25807  43.998  36.397  10.550
58740W        W25808  11.249   2.247   5.136
58741W        W25809  37.344   2.333   3.196
58742W        W25810  16.230  26.985   3.330
58743W        W25811  21.673  15.625   1.874
58744W        W25812  10.280  37.076   0.469
58745W        W25813  20.116  18.191   3.206
58746W        W25814   9.152  42.950  13.437
58747W        W25815  22.709   3.890  13.027
58748W        W25816  22.713  31.475   0.860
58749W        W25817  38.842   7.896   1.876
58750W        W25818  42.820  20.577  12.843
58751W        W25819  12.116  43.280  12.450
58752W        W25820  14.655  28.955  12.458
58753W        W25821  24.572   8.720  12.848
58754W        W25822   8.823  11.181  10.437
58755W        W25823  38.950  32.496   4.725
58756W        W25824  43.323  29.458  13.336
58757W        W25825  31.566   7.849  11.990
58758W        W25826  27.484   4.752  13.383
58759W        W25827  17.081  39.542   4.699
58760W        W25828  26.684  28.015   4.801
58761W        W25829  24.192  13.325   0.822
58762W        W25830  25.595  13.733  10.981
58763W        W25831  33.123  27.511   1.406
58764W        W25832  15.801  27.103  12.451
58765W        W25833   4.245  35.565  10.983
58766W        W25834  29.477  22.720   1.413
58767W        W25835  43.845  20.533  14.958
58768W        W25836  44.925  22.684   3.870
58769W        W25837  29.160  41.526   1.326
58770W        W25838  28.941   2.786   3.320
58771W        W25839  30.533  10.240  13.379
58772W        W25840   4.316  41.969   0.942
58773W        W25841   9.876  24.980   2.413
58774W        W25842  32.118  14.730  12.370
58775W        W25843   1.256  42.875  12.881
58776W        W25844  11.810  35.999   0.768
58777W        W25845  44.353  33.104   2.702
58778W        W25846   5.386  15.214  14.854
58779W        W25847  15.668  26.508   0.250
58780W        W25848  33.966  31.415   3.839
58781W        W25849  12.833  13.623  14.512
58782W        W25850  44.378  12.705  14.962
58783W        W25851   0.925  39.011  14.815
58784W        W25852  40.545  34.473   4.237
58785W        W25853  11.635  43.821   2.399
58786W        W25854  20.536  29.628   3.219
58787W        W25855  12.805  15.790   2.755
58788W        W25856  24.229  43.792  10.489
58789W        W25857  31.091  35.524  14.326
58790W        W25858  24.509  24.710  11.946
58791W        W25859   5.435  11.735   0.834
58792W        W25860  40.872  29.433  14.872
58793W        W25861  24.053  12.631  12.866
58794W        W25862  40.511   3.220  10.084
58795W        W25863  22.244  34.495  10.577
58796W        W25864  39.839  22.133  13.492
58797W        W25865  40.328  25.659   3.729
58798W        W25866  34.506  32.410  10.502
58799W        W25867  15.186  27.505   3.866
58800W        W25868   3.933   9.221  14.361
58801W        W25869  29.120  42.988   0.748
58802W        W25870  10.647  31.427  12.369
58803W        W25871   7.689  25.550  12.574
58804W        W25872  40.975   2.944   4.308
58805W        W25873  24.978  16.656   2.217
58806W        W25874  16.639   9.183   2.389
58807W        W25875  28.122  16.230  12.891
58808W        W25876  41.904  18.716  10.546
58809W        W25877  42.993  35.522  12.093
58810W        W25878  37.961  38.470  11.374
58811W        W25879  24.568  37.887   0.333
58812W        W25880  12.148  37.510   0.808
58813W        W25881   1.893   5.765  13.335
58814W        W25882  34.483   3.918   0.470
58815W        W25883  10.844  10.816   1.850
58816W        W25884  38.862  28.511   2.252
58817W        W25885  43.832  41.035   3.773
58818W        W25886  11.818  44.354   2.303
58819W        W25887  33.901  20.230   2.670
58820W        W25888   0.941  14.136  13.359
58821W        W25889   5.409  16.256  12.559
58822W        W25890  24.648  36.380   2.869
58823W        W25891  21.678  30.087  10.980
58824W        W25892   5.820  23.658  10.611
58825W        W25893   8.333  33.096  10.498
58826W        W25894  29.587   6.712   2.823
58827W        W25895   1.833  23.090  12.391
58828W        W25896  23.079  27.116   3.820
58829W        W25897  17.796  18.565   0.957
58830W        W25898   1.755   4.393   0.904
58831W        W25899  34.395   5.266  11.890
58832W        W25900  41.830  39.940  11.549
58833W        W25901  24.209  17.240  11.859
58834W        W25902  20.206  38.928  11.086
58835W        W25903   5.777  17.790   3.204
58836W        W25904   5.911  41.463   0.464
58837W        W25905  22.998  34.416   0.921
58838W        W25906   8.890  22.106   4.313
58839W        W25907  35.403  36.953   1.214
58840W        W25908  28.963   7.337  12.012
58841W        W25909   9.696  16.234   2.384
58842W        W25910  19.212  39.340   3.210
58843W        W25911  30.635  11.189  13.538
58844W        W25912  14.338  21.171  13.464
58845W        W25913  30.022  26.146  12.560
58846W        W25914  43.451  41.043  14.397
58847W        W25915  17.788   1.417  14.832
58848W        W25916   6.268   1.240  12.862
58849W        W25917   3.347   3.888   0.780
58850W        W25918  39.445  27.490   1.329
58851W        W25919  39.013  34.910  10.582
58852W        W25920  31.044  42.321   1.305
58853W        W25921  10.644  44.262   0.430
58854W        W25922  20.058  39.897   0.905
58855W        W25923  39.526   0.868   4.653
58856W        W25924  20.125   9.388  10.557
58857W        W25925  30.590  35.913  13.374
58858W        W25926  22.721   2.788   1.322
58859W        W25927   0.284  29.068   4.611
58860W        W25928  44.483  11.357  10.424
58861W        W25929  29.598  40.999  12.056
58862W        W25930  22.552  44.979   4.155
58863W        W25931  31.616  44.914  13.875
58864W        W25932  18.139  43.997   4.661
58865W        W25933  28.489  41.869  13.500
58866W        W25934  44.000  34.484   1.313
58867W        W25935  39.558  42.496  10.941
58868W        W25936  15.113  16.263  10.888
58869W        W25937  18.106   5.811  14.792
58870W        W25938  23.634   8.337   2.734
58871W        W25939  42.298  29.476   4.754
58872W        W25940  21.749  26.166  14.450
58873W        W25941  25.094  35.363  13.930
58874W        W25942   9.370  17.233  10.955
58875W        W25943  32.460  25.472   3.702
58876W        W25944  30.459   1.774  11.924
58877W        W25945   9.816  10.647  10.918
58878W        W25946  28.543  18.154  11.016
58879W        W25947  12.288  15.280  14.292
58880W        W25948  27.966   0.869  14.327
58881W        W25949  33.559   3.882  14.982
58882W        W25950  43.898  39.375  14.344
58883W        W25951   6.683  30.606   4.800
58884W        W25952   7.897  43.401   1.852
58885W        W25953  37.488  23.038   0.377
58886W        W25954  29.979  42.431   2.327
58887W        W25955   8.704  24.059  12.552
58888W        W25956  33.925  17.737  14.478
58889W        W25957  44.294  10.838   2.871
58890W        W25958  32.560   5.255  12.466
58891W        W25959  21.180  34.898  13.502
58892W        W25960  21.034  37.018  14.443
58893W        W25961  30.651  12.360   3.216
58894W        W25962  36.058   3.818  11.383
58895W        W25963  19.629  13.268  14.876
58896W        W25964  20.192  30.907   0.764
58897W        W25965   7.372  43.985  14.788
58898W        W25966  32.605  32.462  13.359
58899W        W25967  19.227   1.437  12.995
58900W        W25968   0.313  37.533   4.760
58901W        W25969  42.493  16.688  11.566
58902W        W25970  32.592  14.657  11.491
58903W        W25971  19.048  42.956   4.828
58904W        W25972  26.665  24.518   0.817
58905W        W25973  22.106  21.742  14.897
58906W        W25974  31.084  40.457  13.975
58907W        W25975  18.715  20.685  12.461
58908W        W25976   1.324  21.065  13.823
58909W        W25977  14.756   5.783   0.859
58910W        W25978  37.848  28.565  11.464
58911W        W25979  34.496  41.355  11.998
58912W        W25980   8.242  38.031   4.764
58913W        W25981   0.265  42.345  12.485
58914W        W25982  39.984  16.218   1.928
58915W        W25983  37.449  39.407   4.735
58916W        W25984   1.877   0.250  11.029
58917W        W25985   2.755  41.406  11.489
58918W        W25986  29.091  24.489   2.712
58919W        W25987   7.403  43.448  13.964
58920W        W25988   6.257  41.805   0.735
58921W        W25989  39.455   5.408   2.674
58922W        W25990  31.092  21.067  13.361
58923W        W25991   4.239  38.826   1.785
58924W        W25992  18.259  40.425  11.388
58925W        W25993  15.757  30.110   2.680
58926W        W25994  32.560   2.242   3.819
58927W        W25995   5.380  24.601   4.294
58928W        W25996   2.790  14.743  12.031
58929W        W25997  39.844  24.141   2.820
58930W        W25998  35.430  28.179   4.200
58931W        W25999  19.701  40.417   0.780
58932W        W26000  14.817  17.142  13.837
58933W        W26001  37.500  27.153   0.744
58934W        W26002  13.146  11.752  13.385
58935W        W26003  37.518  33.610   2.241
58936W        W26004   5.874  15.104  10.588
58937W        W26005  42.304   3.455   1.225
58938W        W26006   4.892  19.714  14.458
58939W        W26007  25.509   1.449  13.853
58940W        W26008  40.811  41.499   0.410
58941W        W26009  44.934  23.550   2.230
58942W        W26010  23.160  32.453  11.086
58943W        W26011   9.862  11.778   1.746
58944W        W26012  38.567  41.337  13.991
58945W        W26013  44.778  41.340   2.814
58946W        W26014  33.985  16.199   2.365
58947W        W26015  41.950  33.919   3.793
58948W        W26016  25.194  18.213  11.568
58949W        W26017  31.616  38.433  11.918
58950W        W26018   0.841  35.449  13.914
58951W        W26019  40.042   8.306  10.998
58952W        W26020   2.812  18.604  13.484
58953W        W26021  36.498  18.209   5.287
58954W        W26022  38.892  22.120  10.985
58955W        W26023  41.330  30.535   4.256
58956W        W26024  20.674  31.478   0.901
58957W        W26025  40.032  20.608   1.797
58958W        W26026  19.543  34.490   3.164
58959W        W26027  43.380  43.895  11.957
58960W        W26028  19.044  29.511  12.063
58961W        W26029   0.810  39.918  11.098
58962W        W26030  26.664  33.984   3.198
58963W        W26031  37.928  18.055  11.560
58964W        W26032   6.698   9.376  10.922
58965W        W26033   5.844  13.781  12.481
58966W        W26034  24.048  10.336   0.428
58967W        W26035  21.604   3.749  14.838
58968W        W26036  40.435  23.142   4.725
58969W        W26037  10.744  20.769  14.859
58970W        W26038  33.960  43.310   3.152
58971W        W26039  29.606  26.184   0.286
58972W        W26040  13.310  12.153   4.274
58973W        W26041   9.295  10.178   2.878
58974W        W26042  29.144  20.161  12.877
58975W        W26043  26.470  28.988   2.731
58976W        W26044  24.146  29.548   2.392
58977W        W26045   9.280  10.780   4.211
58978W        W26046  32.002   2.401   3.273
58979W        W26047  44.444  10.207  11.530
58980W        W26048  32.595  12.266  13.040
58981W        W26049  41.005   2.841   0.343
58982W        W26050   7.225  12.838   2.711
58983W        W26051  44.370   6.186  10.451
58984W        W26052   7.282  38.983   1.862
58985W        W26053  16.282   5.299  12.081
58986W        W26054  21.132  20.745   3.796
58987W        W26055  44.275   3.364   5.260
58988W        W26056  36.067  24.704   0.286
58989W        W26057  25.656  11.795  13.399
58990W        W26058  34.535   4.812  13.988
58991W        W26059   1.263   7.248  12.570
58992W        W26060  35.032   3.897   3.747
58993W        W26061  26.576  10.264  14.444
58994W        W26062  18.670  25.641  13.472
58995W        W26063  26.981  26.652   0.262
58996W        W26064  10.169   5.902   4.345
58997W        W26065  17.703   1.352  10.980
58998W        W26066  23.998   4.705   5.146
58999W        W26067  35.525  26.617   1.852
59000W        W26068  34.418  19.570  10.582
59001W        W26069  43.838  26.614   2.322
59002W        W26070   2.891   8.898   4.775
59003W        W26071  25.525   0.396   1.708
59004W        W26072   3.223  18.131  12.496
59005W        W26073  28.578  33.440   2.711
59006W        W26074  16.618  43.939  14.961
59007W        W26075   3.363  13.154  14.449
59008W        W26076  29.004  31.402  11.117
59009W        W26077   9.661   6.234   1.367
59010W        W26078   4.273  33.538   3.366
59011W        W26079  32.051  17.165   4.824
59012W        W26080  37.995  41.791   2.891
59013W        W26081  33.883   3.417   4.736
59014W        W26082   1.274   3.448   2.875
59015W        W26083  40.987  25.602   2.664
59016W        W26084  17.118  18.235  13.056
59017W        W26085   3.319  26.198  14.923
59018W        W26086  21.141   4.251   1.868
59019W        W26087   9.220  11.686  13.420
59020W        W26088   1.740   0.942   1.320
59021W        W26089   3.903  23.042   1.443
59022W        W26090  36.390  15.604  11.012
59023W        W26091   3.444  26.116   3.813
59024W        W26092   0.299   8.687  12.909
59025W        W26093  31.613  20.536  11.427
59026W        W26094   2.267  34.558   3.858
59027W        W26095  14.174  10.860   3.218
59028W        W26096  15.152  30.145  10.587
59029W        W26097  30.008  18.054   4.768
59030W        W26098   3.808  31.012   2.665
59031W        W26099  11.257  43.314  11.891
59032W        W26100  35.907  17.236   4.816
59033W        W26101  28.104  44.458  12.444
59034W        W26102  33.054   4.846   3.179
59035W        W26103  31.536   6.370   3.299
59036W        W26104  29.553   6.400  10.443
59037W        W26105  32.918  17.709   4.618
59038W        W26106  21.083  18.156  11.461
59039W        W26107  14.160  30.995   2.878
59040W        W26108  39.941  36.921   1.835
59041W        W26109   7.182  40.387  13.375
59042W        W26110  32.955  25.030  12.534
59043W        W26111  18.085  41.814  10.641
59044W        W26112  31.537   7.750   2.789
59045W        W26113  17.069  18.079  10.061
59046W        W26114  18.061  20.183  12.009
59047W        W26115  18.262  24.537  14.412
59048W        W26116  15.660  29.042  12.859
59049W        W26117  30.594  42.411  14.906
59050W        W26118  13.220   4.800   3.857
59051W        W26119   0.953  30.538   3.826
59052W        W26120   8.275  29.434  11.091
59053W        W26121  21.673  12.246   4.293
59054W        W26122  14.189   7.842  11.567
59055W        W26123  25.523  24.191   0.827
59056W        W26124  37.073   3.782  14.288
59057W        W26125  25.066  37.386   4.674
59058W        W26126  37.413   3.795  10.467
59059W        W26127  13.695  37.032  13.988
59060W        W26128   4.715  40.907  13.448
59061W        W26129  22.185  43.907  13.938
59062W        W26130  24.671  19.570  13.362
59063W        W26131   7.857  18.724   2.285
59064W        W26132  36.950  15.278   1.213
59065W        W26133  16.280   2.440  12.848
59066W        W26134  40.414  16.604   3.215
59067W        W26135  24.195  20.621   0.951
59068W        W26136  25.606  33.544   2.358
59069W        W26137   1.934  10.222   1.904
59070W        W26138  44.353  37.086   5.095
59071W        W26139  18.717  12.640  10.534
59072W        W26140  35.377  28.003  13.534
59073W        W26141   5.227  18.066  11.566
59074W        W26142   8.750  36.461   3.776
59075W        W26143   9.883  10.382   2.251
59076W        W26144   1.848   7.678   4.177
59077W        W26145   6.390   2.820  12.860
59078W        W26146  19.658  38.076  13.343
59079W        W26147   6.792  17.134  11.396
59080W        W26148  43.488  23.153   4.708
59081W        W26149  31.438   0.396   3.376
59082W        W26150   9.683  16.789   0.953
59083W        W26151  41.859  27.111   4.820
59084W        W26152  13.748   3.322   1.373
59085W        W26153  42.298  15.813   4.283
59086W        W26154  33.381  31.517   2.335
59087W        W26155   3.449  33.574   4.290
59088W        W26156  38.063   1.252   2.178
59089W        W26157  23.025  43.331   1.312
59090W        W26158  14.103  10.713   0.440
59091W        W26159  18.142  32.603  11.551
59092W        W26160  35.072   5.778  11.472
59093W        W26161  39.929  32.620   0.262
59094W        W26162  16.655  44.378   4.164
59095W        W26163  29.037   6.261   2.804
59096W        W26164  12.819  27.618   3.753
59097W        W26165  42.841  20.070   0.946
59098W        W26166  21.586   3.426  14.819
59099W        W26167   5.210  21.646  11.862
59100W        W26168  23.077  28.993   3.162
59101W        W26169   0.423  17.726   3.227
59102W        W26170   2.264  13.168   1.255
59103W        W26171   4.815  16.076  12.542
59104W        W26172  43.011  23.023  14.878
59105W        W26173  15.241  34.895  14.880
59106W        W26174  23.079  10.749  10.449
59107W        W26175  41.885   3.799  13.976
59108W        W26176  24.693  24.493  11.017
59109W        W26177  12.195  16.145   4.795
59110W        W26178  17.158  23.198   2.853
59111W        W26179  26.696  38.359  14.433
59112W        W26180  39.500  22.156  14.855
59113W        W26181  26.096  36.494  14.326
59114W        W26182  11.313  22.036  12.934
59115W        W26183  36.413  34.991  12.475
59116W        W26184   8.752  15.106  13.445
59117W        W26185  36.022  32.910   1.910
59118W        W26186  14.168  29.937  14.466
59119W        W26187  38.996  42.001  12.568
59120W        W26188  15.755  11.767  14.821
59121W        W26189  29.967   6.182  10.595
59122W        W26190  14.219  44.285   0.403
59123W        W26191   0.757  11.672  13.916
59124W        W26192  36.559  10.749   2.415
59125W        W26193  20.083   2.250   4.324
59126W        W26194  20.599  40.431  13.369
59127W        W26195  41.407  14.828   4.289
59128W        W26196  41.414  39.844  11.379
59129W        W26197  24.194  32.984  10.989
59130W        W26198  43.454  18.611   0.958
59131W        W26199   5.313  29.109   2.249
59132W        W26200  41.407  38.476  10.554
59133W        W26201  32.393  28.660  12.839
59134W        W26202   5.900  40.377  11.098
59135W        W26203  38.327  44.462  11.512
59136W        W26204  28.586  26.104   3.841
59137W        W26205   8.169  37.838   4.237
59138W        W26206  20.549  17.300   3.227
59139W        W26207  24.186  11.301   0.845
59140W        W26208  26.981   0.855   1.332
59141W        W26209  38.967   9.213  14.005
59142W        W26210   5.739   8.160  10.408
59143W        W26211  42.306  41.014  11.885
59144W        W26212  33.556  20.180  13.041
59145W        W26213  38.905   5.873   2.207
59146W        W26214  43.794  23.140   0.251
59147W        W26215  31.578  39.461   2.844
59148W        W26216  31.431   8.355  12.867
59149W        W26217  40.332  15.657  10.951
59150W        W26218  28.076  11.248  11.942
59151W        W26219  16.268  33.474   3.355
59152W        W26220  23.548  19.212  14.002
59153W        W26221  26.199  14.740   1.705
59154W        W26222  25.029  13.721   2.759
59155W        W26223  24.483   8.794   5.192
59156W        W26224  40.310  12.638   1.871
59157W        W26225  41.995  15.220   0.804
59158W        W26226  10.746   3.279   3.729
59159W        W26227  37.376  15.770  13.846
59160W        W26228  35.050  34.472   4.603
59161W        W26229  12.265   6.884  12.052
59162W        W26230  17.096  21.136  14.495
59163W        W26231  36.965  28.475   1.363
59164W        W26232  32.958   5.702   1.253
59165W        W26233  10.684   4.837   1.764
59166W        W26234  29.049  34.435   3.834
59167W        W26235  17.601  13.791  12.883
59168W        W26236  15.289  23.098  11.952
59169W        W26237  26.190   4.769  11.603
59170W        W26238   5.755   4.205   3.711
59171W        W26239   8.774   5.877   4.652
59172W        W26240  12.757  41.031  11.597
59173W        W26241  25.137  28.646   0.842
59174W        W26242   6.707   0.934   3.865
59175W        W26243   7.665  18.757  14.941
59176W        W26244   8.312  43.459   0.396
59177W        W26245  34.605  42.305   0.744
59178W        W26246  28.454  10.368  14.007
59179W        W26247  19.112  37.356   4.792
59180W        W26248  15.720   9.737  12.836
59181W        W26249  26.594  11.726  11.101
59182W        W26250  27.552  35.388  13.939
59183W        W26251  40.924  19.267   2.779
59184W        W26252  21.107  40.049   1.736
59185W        W26253  26.063  42.941   2.883
59186W        W26254   6.842   5.932   1.228
59187W        W26255   8.858  23.990   1.234
59188W        W26256  40.513  28.579  13.373
59189W        W26257  33.492  29.598  10.161
59190W        W26258  27.620  10.158  12.443
59191W        W26259   9.290  31.004  14.477
59192W        W26260  36.983  15.106   1.753
59193W        W26261  23.705  13.692  12.426
59194W        W26262   1.394  11.127   3.331
59195W        W26263  37.850  12.751  11.526
59196W        W26264  42.910  34.077   3.708
59197W        W26265  30.937  23.195   3.355
59198W        W26266  38.910   8.887  12.058
59199W        W26267  39.534  21.079  10.935
59200W        W26268   2.238   1.806  13.037
59201W        W26269  12.835  14.715  11.023
59202W        W26270  22.023  27.010   2.710
59203W        W26271  33.553   7.890   1.321
59204W        W26272  25.122  32.632   3.869
59205W        W26273  22.594  23.023   4.619
59206W        W26274  30.532  28.948  14.909
59207W        W26275  19.152  33.939  14.344
59208W        W26276  31.068  39.500   1.235
59209W        W26277  38.382  33.444   1.754
59210W        W26278   1.938  20.721  12.505
59211W        W26279  21.085  33.466  14.403
59212W        W26280  22.239  41.512  14.374
59213W        W26281  36.876   2.761   1.319
59214W        W26282  34.947  32.500   1.902
59215W        W26283  14.322  39.384  11.499
59216W        W26284  25.966  13.817   2.743
59217W        W26285  36.008  32.450   2.400
59218W        W26286  11.306  26.616   0.409
59219W        W26287  16.157   0.361  11.115
59220W        W26288   2.282   5.423  14.024
59221W        W26289  44.291  30.027   3.244
59222W        W26290  25.612   3.293   4.353
59223W        W26291  30.050  26.689  14.356
59224W        W26292  41.910  23.004   0.821
59225W        W26293  34.036  17.304   0.846
59226W        W26294  28.608  41.801   4.721
59227W        W26295   3.345  31.972   2.182
59228W        W26296  38.434   1.335  11.541
59229W        W26297  36.916  27.005  10.519
59230W        W26298  42.989  39.357   2.351
59231W        W26299  40.869  41.854   2.419
59232W        W26300  26.553   3.743   0.380
59233W        W26301  24.657  19.271  11.036
59234W        W26302  34.375  20.214  14.275
59235W        W26303  44.946   6.895   0.950
59236W        W26304  11.221  12.680  13.995
59237W        W26305   6.340  24.994   0.743
59238W        W26306   4.322  29.132   2.728
59239W        W26307   4.750   2.331   4.308
59240W        W26308   2.418  12.617   4.333
59241W        W26309  31.950  25.062   4.608
59242W        W26310   0.745  41.315   4.636
59243W        W26311   7.311  16.135   0.295
59244W        W26312  11.297  30.457   4.754
59245W        W26313  37.021  17.634   4.701
59246W        W26314  35.021  33.035   4.768
59247W        W26315  26.037   2.795  11.402
59248W        W26316  36.395   1.256  12.562
59249W        W26317  43.010  27.654  14.931
59250W        W26318  34.904  19.047   3.386
59251W        W26319  29.928  23.679   3.359
59252W        W26320   9.385  19.259  10.136
59253W        W26321   4.834   0.987  13.985
59254W        W26322  18.143  32.630   3.177
59255W        W26323  42.286  42.331   3.160
59256W        W26324  16.586   0.356  13.350
59257W        W26325  17.620  29.051   1.706
59258W        W26326   2.894  30.522   1.867
59259W        W26327  14.658  26.698   4.689
59260W        W26328  27.053   3.387  11.423
59261W        W26329  16.118  14.807   3.666
59262W        W26330   3.258   0.750  11.465
59263W        W26331  10.271  11.764   1.254
59264W        W26332   1.329  37.853  14.928
59265W        W26333  13.812  10.832   0.391
59266W        W26334  11.229  36.477  11.063
59267W        W26335  27.110  25.525  13.000
59268W        W26336  24.066  36.390   2.705
59269W        W26337   5.299  21.513   4.301
59270W        W26338   2.423  44.496   4.771
59271W        W26339  24.621  39.978   0.301
59272W        W26340  23.607  16.268  13.940
59273W        W26341   9.205   8.862   4.174
59274W        W26342  29.542  11.777   3.201
59275W        W26343  33.545  24.018  14.956
59276W        W26344   3.322  33.559  12.519
59277W        W26345   1.777  17.704   3.870
59278W        W26346  41.408  34.596   0.367
59279W        W26347  34.390   8.867  11.986
59280W        W26348   2.270   3.918   3.186
59281W        W26349   7.345  27.583  10.609
59282W        W26350   3.813   3.928   4.256
59283W        W26351  38.013  24.992  13.453
59284W        W26352   8.806  16.699   3.819
59285W        W26353  14.118  32.970   4.209
59286W        W26354  32.101  27.092  13.397
59287W        W26355  13.599  19.237   4.146
59288W        W26356  38.565  28.568  12.577
59289W        W26357  32.134  11.265  12.984
59290W        W26358  34.969  33.050   1.730
59291W        W26359  39.380   3.316  11.884
59292W        W26360  35.975   2.764   2.321
59293W        W26361  24.535   7.730  10.605
59294W        W26362   7.400   1.394  13.831
59295W        W26363   2.852  18.168   4.808
59296W        W26364   6.691  23.159  13.416
59297W        W26365   8.257  28.101   0.354
59298W        W26366   4.724  22.663  14.009
59299W        W26367  28.969   0.492  11.052
59300W        W26368  33.107  25.664  13.387
59301W        W26369  32.416  35.470  14.979
59302W        W26370  41.987   3.727  10.450
59303W        W26371  39.359  34.587  11.017
59304W        W26372  40.428  17.591  11.876
59305W        W26373   2.904  24.092  10.963
59306W        W26374  21.528  16.661   4.696
59307W        W26375  25.129  12.741  10.981
59308W        W26376  34.063  32.432  13.468
59309W        W26377  38.365  11.328  11.018
59310W        W26378  16.804  21.745  14.499
59311W        W26379  30.486   5.860  13.875
59312W        W26380   9.668  27.463  11.555
59313W        W26381  19.724  41.979  10.518
59314W        W26382  24.676  14.787   2.306
59315W        W26383  11.289  38.526  11.008
59316W        W26384   3.816   6.878   2.672
59317W        W26385  11.362  27.027   2.764
59318W        W26386  23.606  12.210   2.861
59319W        W26387  18.059  23.729  14.950
59320W        W26388  39.459   1.880  11.863
59321W        W26389  40.443  37.991  12.480
59322W        W26390  26.688   1.937  14.878
59323W        W26391  13.725  14.796   3.823
59324W        W26392   9.869  28.028   4.280
59325W        W26393  42.881  38.467   4.641
59326W        W26394  14.798  39.945   1.764
59327W        W26395   3.885   4.794   4.224
59328W        W26396  41.344  21.209  14.866
59329W        W26397   6.697  12.650  13.858
59330W        W26398  32.948  13.154   4.213
59331W        W26399  30.473  31.544   1.320
59332W        W26400  22.557   8.337   1.215
59333W        W26401  36.491  24.036  10.024
59334W        W26402  26.105   9.733  14.955
59335W        W26403  19.646   8.329  14.367
59336W        W26404  40.319   1.866   1.414
59337W        W26405  13.666  15.268   1.696
59338W        W26406  17.089   0.292  13.455
59339W        W26407  27.540  33.098   5.204
59340W        W26408  20.238  12.301   4.311
59341W        W26409   7.318  16.582   3.709
59342W        W26410  30.033  25.509   1.384
59343W        W26411  40.870  21.164   4.687
59344W        W26412  24.619   4.792   0.258
59345W        W26413  34.400   4.270  12.832
59346W        W26414  14.786  10.877   2.354
59347W        W26415  23.036  23.068  10.954
59348W        W26416  32.012  19.056   1.749
59349W        W26417  34.101  14.145   1.863
59350W        W26418  31.600   0.815  14.792
59351W        W26419  12.691  31.112   0.786
59352W        W26420  28.613   9.200   2.713
59353W        W26421  20.571  35.405   2.692
59354W        W26422  12.775  34.002  11.413
59355W        W26423   2.418  12.772  13.997
59356W        W26424  11.184  36.533  14.887
59357W        W26425  17.731  24.070  12.343
59358W        W26426  39.428  24.707  13.826
59359W        W26427  13.756  11.838   2.885
59360W        W26428  17.775  13.776   2.783
59361W        W26429   0.300  22.238  12.094
59362W        W26430  26.060   8.405  13.501
59363W        W26431  22.522   7.215  11.991
59364W        W26432  14.120  34.526   0.456
59365W        W26433   1.427  10.813   3.857
59366W        W26434  14.221   0.267  11.034
59367W        W26435  23.493  10.872   1.795
59368W        W26436  21.022  15.300  13.058
59369W        W26437  41.427  22.164   4.318
59370W        W26438  44.785  29.436   3.201
59371W        W26439   8.866   4.807  10.542
59372W        W26440  17.141  25.976  12.076
59373W        W26441  36.356   6.193   1.805
59374W        W26442  29.619  19.101  10.936
59375W        W26443  41.391   5.322   1.794
59376W        W26444  31.993  43.818   0.386
59377W        W26445   1.773  17.240  14.513
59378W        W26446  10.767  23.733   4.617
59379W        W26447  28.631  26.702  11.036
59380W        W26448   8.897   7.791  13.354
59381W        W26449   5.205  20.653   2.801
59382W        W26450  40.863   9.217   0.942
59383W        W26451  38.868  16.276  13.925
59384W        W26452  16.712  19.560   4.649
59385W        W26453  12.291  12.276   2.721
59386W        W26454  37.023  37.352   1.934
59387W        W26455  11.839  29.116   4.196
59388W        W26456  13.209  43.861   1.847
59389W        W26457  24.041   1.863  12.526
59390W        W26458  38.474   8.675  13.406
59391W        W26459  23.637  23.651   1.808
59392W        W26460  25.070   5.725  14.031
59393W        W26461  33.063  28.057   3.364
59394W        W26462  32.042   7.319   3.337
59395W        W26463  10.193  44.791   1.424
59396W        W26464  35.448  42.456  11.048
59397W        W26465  42.287   9.871  13.482
59398W        W26466  25.587  25.032   0.770
59399W        W26467   3.257   2.437   2.777
59400W        W26468   5.825   9.791  14.512
59401W        W26469  15.105   7.701  13.472
59402W        W26470  13.337  29.163  10.931
59403W        W26471  29.022   7.248  14.959
59404W        W26472   7.366  38.877   2.866
59405W        W26473  40.506  30.071   3.152
59406W        W26474  26.655  32.596  10.899
59407W        W26475  27.564  13.143   3.355
59408W        W26476  19.056  39.908  12.016
59409W        W26477  44.993  38.342  10.938
59410W        W26478   7.394   2.302  14.430
59411W        W26479  21.172  40.842  13.495
59412W        W26480   2.343  41.458  14.762
59413W        W26481  39.827  31.433  11.462
59414W        W26482  22.662  26.194  11.442
59415W        W26483  23.177   5.905   0.325
59416W        W26484  39.958  37.883  11.097
59417W        W26485  42.520  42.030  10.509
59418W        W26486  26.981  28.551   4.281
59419W        W26487  13.290   2.802   2.255
59420W        W26488  27.554   5.899   4.314
59421W        W26489  36.890  30.446   1.891
59422W        W26490  39.819  34.552   2.271
59423W        W26491  24.544   9.358  10.901
59424W        W26492  34.985  33.929   1.739
59425W        W26493   6.778  38.929  14.765
59426W        W26494  29.606  29.172  10.418
59427W        W26495  32.125  40.837  14.405
59428W        W26496   5.911  40.341   3.375
59429W        W26497  18.580   4.812   2.706
59430W        W26498   9.884  23.998   2.396
59431W        W26499  30.657  34.585  14.314
59432W        W26500  32.586  35.585  13.906
59433W        W26501  11.710  40.489   0.363
59434W        W26502   2.455  20.747   3.867
59435W        W26503  17.259  44.838  13.937
59436W        W26504  32.039  41.981   4.795
59437W        W26505   8.851  41.005  10.960
59438W        W26506  37.912  43.949  14.910
59439W        W26507  16.110  37.486   3.283
59440W        W26508  23.058  37.536  11.437
59441W        W26509   5.846  18.198  12.007
59442W        W26510   0.281  19.601   3.775
59443W        W26511  40.882  19.154  13.547
59444W        W26512  14.318  17.158  13.385
59445W        W26513  11.180  25.195  12.461
59446W        W26514   7.364  25.532  12.477
59447W        W26515  31.968  25.057   3.329
59448W        W26516  25.558   5.748   4.697
59449W        W26517  38.900  36.949  11.556
59450W        W26518  16.081  13.681   2.233
59451W        W26519  25.711  38.537   4.327
59452W        W26520  39.490  40.468   3.258
59453W        W26521   3.347   2.419  14.910
59454W        W26522  29.160  18.763   1.296
59455W        W26523  23.188   3.348   5.299
59456W        W26524   6.241  10.814  14.442
59457W        W26525  13.796  22.592  13.881
59458W        W26526  34.003  28.934   4.128
59459W        W26527  44.812   2.424   2.708
59460W        W26528  36.090  43.959  11.608
59461W        W26529  22.127  13.283   2.393
59462W        W26530  22.680  36.059   4.636
59463W        W26531  21.614  41.527   3.318
59464W        W26532  21.637  36.851   1.725
59465W        W26533  12.184  38.445   3.839
59466W        W26534  15.669  19.205   1.749
59467W        W26535   6.299  13.190   1.882
59468W        W26536  30.545  30.912   4.807
59469W        W26537  13.676  33.119  11.535
59470W        W26538  27.164  15.728   3.789
59471W        W26539  37.898  13.262  12.419
59472W        W26540  19.272  26.186   3.729
59473W        W26541  23.512   7.692   0.821
59474W        W26542  21.247  19.265  11.435
59475W        W26543  23.201  27.028   2.750
59476W        W26544  24.088   9.722   2.309
59477W        W26545  10.725  17.644   1.776
59478W        W26546  34.565  10.210   1.228
59479W        W26547  19.701  14.767   1.705
59480W        W26548  44.944  30.078  14.387
59481W        W26549   7.707  26.164  12.535
59482W        W26550  16.221  16.082   4.826
59483W        W26551  39.063  38.454   9.986
59484W        W26552   6.212   3.953   3.808
59485W        W26553  33.536  40.312  14.917
59486W        W26554  15.219  44.360   4.313
59487W        W26555   1.919   3.424   0.895
59488W        W26556  18.192  16.251  14.965
59489W        W26557   2.829   9.664  14.362
59490W        W26558   9.274  39.420   0.431
59491W        W26559   8.162  29.590   0.834
59492W        W26560  29.538  22.553  12.469
59493W        W26561  43.387  26.585   3.794
59494W        W26562  35.525  23.634   1.436
59495W        W26563  32.600   3.261  14.984
59496W        W26564   0.361  43.481  11.005
59497W        W26565  14.174  33.513   1.695
59498W        W26566   1.843  43.773   0.444
59499W        W26567  40.800  11.275   2.695
59500W        W26568  10.875  11.642  12.922
59501W        W26569  34.393  30.132  12.388
59502W        W26570  39.968  30.160   3.679
59503W        W26571  21.230   7.869  11.983
59504W        W26572  41.483   8.213  12.031
59505W        W26573  36.496  22.730  13.909
59506W        W26574  32.917  12.121  12.383
59507W        W26575   9.182   2.784   4.637
59508W        W26576  27.595  42.489  14.022
59509W        W26577  34.948  16.195   4.808
59510W        W26578  38.034  30.026   1.725
59511W        W26579  37.896  44.371  10.112
59512W        W26580  12.835   5.742   2.395
59513W        W26581  11.171  18.685  12.943
59514W        W26582  14.634  31.478  10.474
59515W        W26583  15.089  26.018   1.898
59516W        W26584  41.494   2.298  11.099
59517W        W26585   6.332  12.332  13.849
59518W        W26586  22.709   3.391   3.196
59519W        W26587  33.441   9.867  14.458
59520W        W26588   3.285  14.334   2.405
59521W        W26589  33.551  22.243   3.209
59522W        W26590  44.374  39.518  14.918
59523W        W26591  37.421  10.268   0.742
59524W        W26592   6.392  16.722   1.251
59525W        W26593  24.052  41.395   4.350
59526W        W26594  32.444   0.757   4.193
59527W        W26595   6.789  42.786   0.378
59528W        W26596  15.145  23.692   2.756
59529W        W26597  34.918  11.839   3.332
59530W        W26598  26.204  28.174  11.913
59531W        W26599   1.346   8.731   0.932
59532W        W26600   3.903   9.339  13.424
59533W        W26601  20.675  36.898   2.851
59534W        W26602  38.547  24.507  10.509
59535W        W26603  20.270   8.677  13.498
59536W        W26604  11.736  25.502   3.347
59537W        W26605   4.334  16.241  11.490
59538W        W26606  30.491   6.215   0.408
59539W        W26607   4.280  43.793   1.242
59540W        W26608   8.393  31.493  13.792
59541W        W26609  33.963   9.240  14.404
59542W        W26610  27.139  21.672   1.753
59543W        W26611   3.942  11.253   2.262
59544W        W26612  17.672  31.981   4.157
59545W        W26613   9.265  43.345   1.226
59546W        W26614   3.435  31.478   0.323
59547W        W26615  37.947  36.079  13.939
59548W        W26616  40.383  33.552  13.840
59549W        W26617  11.135   2.273   2.417
59550W        W26618  18.566  37.839  13.900
59551W        W26619   4.344   4.236   4.731
59552W        W26620  17.771   8.181  13.506
59553W        W26621  30.034  40.016  11.115
59554W        W26622  20.154   0.249  13.433
59555W        W26623  40.375  32.535  14.468
59556W        W26624  35.079  16.762  10.431
59557W        W26625  43.973  26.601  13.830
59558W        W26626  24.636  18.771  12.498
59559W        W26627  12.689   6.280   2.704
59560W        W26628   1.940  41.793   3.308
59561W        W26629  16.290  17.065  11.001
59562W        W26630  10.350  36.401  14.421
59563W        W26631  16.233   2.425   1.279
59564W        W26632  25.579  32.976  13.506
59565W        W26633  19.545  32.904   2.817
59566W        W26634  32.634   1.732  13.381
59567W        W26635   4.869  35.484  13.878
59568W        W26636  26.651   3.910  12.061
59569W        W26637  10.338  22.046  15.000
59570W        W26638  37.924  25.195   1.913
59571W        W26639  34.474  26.580   4.250
59572W        W26640  42.356  10.738   3.853
59573W        W26641  28.069  21.082  10.060
59574W        W26642  15.758  10.640  12.504
59575W        W26643  30.989  26.105  12.003
59576W        W26644   8.770  28.562   0.833
59577W        W26645   7.375   6.799   2.383
59578W        W26646  32.548  31.073  14.980
59579W        W26647  12.849  33.025  10.540
59580W        W26648  36.077  44.297  10.931
59581W        W26649   0.768  39.931   0.781
59582W        W26650  36.417   7.833  11.566
59583W        W26651   1.958  12.208  10.563
59584W        W26652  26.621   6.681   1.935
59585W        W26653  32.960  11.329  12.385
59586W        W26654   3.335   1.940  13.809
59587W        W26655   7.698  44.961   4.687
59588W        W26656  24.111   3.737   2.209
59589W        W26657   5.852   2.921  12.070
59590W        W26658  36.901   7.405   1.392
59591W        W26659  27.479  43.764  11.533
59592W        W26660  43.494  34.932  11.446
59593W        W26661   5.277  22.710   0.774
59594W        W26662  28.569  21.056   1.887
59595W        W26663  22.703  16.728  12.546
59596W        W26664   3.450   7.876   0.297
59597W        W26665   7.747   8.735   4.684
59598W        W26666   0.898  22.562  11.581
59599W        W26667  18.081   6.349   0.273
59600W        W26668  17.278   6.353   3.238
59601W        W26669   4.833  20.591  14.455
59602W        W26670   5.931  23.202  13.877
59603W        W26671  33.575  40.497   3.324
59604W        W26672  41.857  36.556  12.348
59605W        W26673   4.865   1.290   3.653
59606W        W26674  24.499  39.991   2.315
59607W        W26675   9.226   7.831   2.344
59608W        W26676  18.237   6.762   4.348
59609W        W26677  27.473  32.631   0.280
59610W        W26678   2.325  24.490   1.924
59611W        W26679   2.904  33.609  13.333
59612W        W26680  32.408   1.329   3.338
59613W        W26681  14.792  26.092  11.878
59614W        W26682  38.003  17.098   2.280
59615W        W26683  12.610  42.868   3.792
59616W        W26684   7.281   5.839  11.524
59617W        W26685   8.860  35.594   4.736
59618W        W26686   7.205  33.411  11.372
59619W        W26687  33.540  38.410   0.860
59620W        W26688  34.005  10.756  11.520
59621W        W26689  22.692  10.316  13.064
59622W        W26690  32.448  29.984   2.752
59623W        W26691  10.327  11.210  13.330
59624W        W26692  25.569  31.529  11.984
59625W        W26693  16.705  29.151  11.932
59626W        W26694   8.833  32.526  13.832
59627W        W26695  23.006   1.462  13.977
59628W        W26696   3.827   1.852   2.179
59629W        W26697  23.563  35.094  11.455
59630W        W26698  20.235  17.781  10.638
59631W        W26699  19.622  21.624   4.144
59632W        W26700  18.639  34.553   2.187
59633W        W26701  31.930  21.236   0.959
59634W        W26702  32.635   7.805  13.450
59635W        W26703  37.363  40.976   0.939
59636W        W26704  35.371  43.293   0.466
59637W        W26705  19.537  30.988   0.250
59638W        W26706  30.996  20.752  11.107
59639W        W26707  35.452  11.843  10.490
59640W        W26708  11.128   5.713   4.168
59641W        W26709  18.294  23.139   2.760
59642W        W26710   4.304  42.343   4.736
59643W        W26711  22.676  10.805  13.373
59644W        W26712  27.547   2.370  13.519
59645W        W26713  31.062   1.401  11.101
59646W        W26714  24.140   5.344  13.516
59647W        W26715  13.750  27.042   2.274
59648W        W26716  35.087   1.404  10.932
59649W        W26717   9.785   3.266   0.319
59650W        W26718  13.179  17.257   4.183
59651W        W26719  15.616   4.777  13.865
59652W        W26720  34.536  38.834  13.832
59653W        W26721  16.789  17.612  12.918
59654W        W26722   2.790  22.572   0.308
59655W        W26723  23.734   5.860   1.747
59656W        W26724   0.780   4.877  13.346
59657W        W26725  32.952  25.583  12.058
59658W        W26726  16.731  42.934   1.450
59659W        W26727   0.844   4.943   2.201
59660W        W26728  30.101  15.748   0.748
59661W        W26729   9.273  14.173  14.507
59662W        W26730  43.847  33.614  14.468
59663W        W26731  28.168  30.512   5.244
59664W        W26732  39.391  18.712   1.418
59665W        W26733  18.643  35.881   5.151
59666W        W26734  35.556  23.597   4.125
59667W        W26735   9.796   4.932  10.586
59668W        W26736   7.667  14.821  13.350
59669W        W26737  35.961   0.804   2.865
59670W        W26738  17.188  14.340   4.834
59671W        W26739  17.570  17.173  10.908
59672W        W26740  35.869   4.328   4.154
59673W        W26741  38.541   2.871   4.157
59674W        W26742  14.593  14.156   0.941
59675W        W26743  24.224  41.509   3.642
59676W        W26744  11.195   7.200   0.392
59677W        W26745  27.576   4.353   3.790
59678W        W26746  38.977  13.798   2.305
59679W        W26747   4.830  24.077   2.861
59680W        W26748   0.868   3.834   1.228
59681W        W26749   4.712   0.927  13.048
59682W        W26750   7.893  15.178  12.420
59683W        W26751  15.146  43.281   4.217
59684W        W26752   7.316  35.515   2.342
59685W        W26753   2.243  32.919  10.038
59686W        W26754  24.133  10.378   2.668
59687W        W26755  43.347  31.983  11.978
59688W        W26756   4.204  30.150  11.523
59689W        W26757   8.187   1.738  11.077
59690W        W26758  35.019  40.950   4.231
59691W        W26759  29.071   6.846   1.933
59692W        W26760   9.238  11.131  11.415
59693W        W26761   4.404  29.580  14.951
59694W        W26762  43.896  31.014  13.853
59695W        W26763  40.475   3.904  11.403
59696W        W26764  32.505  27.972   1.914
59697W        W26765  17.750  26.083  11.598
59698W        W26766  10.860   1.365   9.544
59699W        W26767   0.829   7.902   3.172
59700W        W26768   5.728   1.292   0.462
59701W        W26769  20.537  24.725  10.938
59702W        W26770  36.537   5.271  13.364
59703W        W26771  18.640   5.769  13.456
59704W        W26772  41.422  13.668   1.376
59705W        W26773  21.108   4.874  13.548
59706W        W26774  35.525  26.029  11.609
59707W        W26775  26.179  16.767  12.866
59708W        W26776  21.541  29.481  12.996
59709W        W26777  31.421  34.098  13.470
59710W        W26778  21.603  24.993  11.959
59711W        W26779  24.190  39.899   1.832
59712W        W26780  13.221  25.469  14.953
59713W        W26781  31.436  20.035  12.425
59714W        W26782  40.383  10.371   3.822
59715W        W26783  39.411  21.562   1.768
59716W        W26784   2.960   1.246   4.301
59717W        W26785  14.834  19.272   0.262
59718W        W26786   1.828  42.787   0.900
59719W        W26787  31.472  27.472  14.285
59720W        W26788  38.550   8.657   1.246
59721W        W26789   1.300   0.372  10.905
59722W        W26790  25.155  15.271  13.510
59723W        W26791  27.541  10.833   4.604
59724W        W26792  32.454  38.880  12.962
59725W        W26793  31.037  27.451  13.379
59726W        W26794  36.922  16.648  12.525
59727W        W26795  24.685  43.482  10.560
59728W        W26796   0.361  35.092   1.820
59729W        W26797  17.751  31.121  12.845
59730W        W26798  35.492  13.176  12.476
59731W        W26799   0.798  28.130   2.214
59732W        W26800  43.800  12.314  13.866
59733W        W26801  36.888  39.463   0.734
59734W        W26802  37.533  40.518  13.004
59735W        W26803  30.965  26.542  13.883
59736W        W26804  43.860  26.461   0.962
59737W        W26805   6.373  39.534   0.406
59738W        W26806  40.977  29.536   0.795
59739W        W26807  16.772  31.549   3.346
59740W        W26808   3.800  13.338   2.827
59741W        W26809   2.274  27.482   4.627
59742W        W26810   5.828  23.045  12.081
59743W        W26811  18.745   2.943   3.637
59744W        W26812   3.314   2.469   0.414
59745W        W26813  19.604  44.485   1.810
59746W        W26814  29.491   2.771   1.423
59747W        W26815  11.133  31.114  13.918
59748W        W26816  41.880  28.563  10.635
59749W        W26817  40.879  22.728  12.539
59750W        W26818  27.607  44.947   2.828
59751W        W26819  39.863  11.357  14.828
59752W        W26820   6.846  38.352   1.853
59753W        W26821  23.099  34.885   0.890
59754W        W26822   2.334  15.253   1.924
59755W        W26823  28.000  38.535   0.933
59756W        W26824  42.294   7.741   2.683
59757W        W26825   3.427  32.576   3.645
59758W        W26826  39.400  37.555   0.354
59759W        W26827  36.054   9.827   0.757
59760W        W26828  44.351   1.280   2.375
59761W        W26829  11.153  17.775   3.149
59762W        W26830  42.799  29.428   0.336
59763W        W26831  12.696  40.025   3.371
59764W        W26832  27.009  25.103  14.852
59765W        W26833  41.960   9.811  13.944
59766W        W26834  26.970  31.121  11.548
59767W        W26835  36.540   2.947   4.198
59768W        W26836  25.644  10.209   1.319
59769W        W26837  33.587  28.938   0.788
59770W        W26838   3.229  38.974   4.195
59771W        W26839  43.439   8.729  11.487
59772W        W26840  40.983  36.901  12.357
59773W        W26841  29.522  18.617  14.350
59774W        W26842  44.954  38.559   0.273
59775W        W26843   1.944   6.292  14.802
59776W        W26844   8.209  19.543   0.409
59777W        W26845  22.202  26.619  10.405
59778W        W26846  31.927  43.289  13.397
59779W        W26847  30.941  42.913   1.906
59780W        W26848  37.523  33.053   1.280
59781W        W26849  23.984  10.334  14.466
59782W        W26850  17.743  43.876  13.051
59783W        W26851  23.645  41.824   3.182
59784W        W26852   6.912  19.558  14.919
59785W        W26853  28.549  41.787  11.523
59786W        W26854  40.410  17.183  10.012
59787W        W26855  24.220  31.049   1.269
59788W        W26856  31.616  37.516   1.782
59789W        W26857  18.054   6.697  11.873
59790W        W26858  37.491   5.825   0.814
59791W        W26859  30.480  33.623  14.970
59792W        W26860  43.868   6.386  11.049
59793W        W26861   9.323  38.524  12.574
59794W        W26862  27.513  12.306   3.276
59795W        W26863  17.298   6.856   9.952
59796W        W26864  21.091  32.075  10.927
59797W        W26865  39.012  44.797   2.285
59798W        W26866  44.380  12.217   4.745
59799W        W26867  33.383   9.658   3.323
59800W        W26868  15.691  32.410  14.891
59801W        W26869  36.364  33.616  14.374
59802W        W26870   8.183  18.738   1.932
59803W        W26871  23.142   7.233  14.882
59804W        W26872   1.445  18.121  14.861
59805W        W26873  33.410  22.586   3.805
59806W        W26874  21.609  38.876  10.924
59807W        W26875  12.217  31.151  11.486
59808W        W26876  43.321  11.351   4.316
59809W        W26877  13.143  15.285   2.706
59810W        W26878   7.338  14.752  13.467
59811W        W26879  28.960  12.173   2.743
59812W        W26880   5.871  17.240   1.276
59813W        W26881  19.622  13.264  10.613
59814W        W26882  43.497  20.743   2.315
59815W        W26883   1.854   0.848  14.921
59816W        W26884  26.142  30.099  14.886
59817W        W26885  26.204   9.172  12.025
59818W        W26886  31.072  10.297   0.893
59819W        W26887  31.025  39.362   3.326
59820W        W26888  12.317  16.203   0.381
59821W        W26889  11.270  36.945   4.670
59822W        W26890   4.370  40.840   1.324
59823W        W26891   2.307  12.705  14.909
59824W        W26892  27.454  14.661   0.894
59825W        W26893  31.118  23.115   0.407
59826W        W26894   0.286  41.298  14.476
59827W        W26895  18.077   4.436   2.218
59828W        W26896  14.592  32.457  12.856
59829W        W26897  42.495  24.482   0.346
59830W        W26898  11.312  11.188   1.897
59831W        W26899  34.927  37.397   4.666
59832W        W26900  37.029  43.959  14.802
59833W        W26901  41.027   4.916  11.864
59834W        W26902  17.676   0.769   3.653
59835W        W26903  23.615   0.911  13.433
59836W        W26904  24.506  39.901   2.757
59837W        W26905   7.838  24.613  13.334
59838W        W26906   7.688  15.706   1.889
59839W        W26907  32.557  20.222  10.459
59840W        W26908   9.332  39.974  13.484
59841W        W26909  33.511  13.630   4.830
59842W        W26910   5.704  41.373  12.541
59843W        W26911   1.731  14.834  13.350
59844W        W26912  37.923   0.817   0.307
59845W        W26913  30.514  35.920   2.391
59846W        W26914  14.806  43.308   4.298
59847W        W26915   7.348  15.609   1.866
59848W        W26916  15.263  34.897  11.523
59849W        W26917  18.286  42.845   2.888
59850W        W26918  32.567  26.012  12.898
59851W        W26919  43.439  31.469  12.863
59852W        W26920  12.830  14.099   5.305
59853W        W26921  43.827  31.571   3.757
59854W        W26922  27.500  35.604  11.432
59855W        W26923  38.999  24.635   4.836
59856W        W26924  29.605  36.519  11.126
59857W        W26925  22.146   0.865  10.482
59858W        W26926  36.041   6.365   1.906
59859W        W26927  37.346  40.329   3.258
59860W        W26928   1.263  42.324   2.247
59861W        W26929  20.249   8.830   4.836
59862W        W26930  25.536  36.070   3.817
59863W        W26931  29.079   1.265  11.857
59864W        W26932  32.553  28.466  14.508
59865W        W26933  39.972  15.615   3.320
59866W        W26934  41.016  29.017   3.790
59867W        W26935  36.509  35.992   1.876
59868W        W26936  35.372  33.499  13.372
59869W        W26937  40.373  41.502   3.835
59870W        W26938  14.781   2.835  12.436
59871W        W26939  18.103  20.126   0.750
59872W        W26940  15.737   9.759  14.337
59873W        W26941   7.691  39.330  11.861
59874W        W26942  40.423  25.537   0.751
59875W        W26943  11.250  16.807   1.339
59876W        W26944   3.337  13.232  11.977
59877W        W26945  43.764   1.369   2.872
59878W        W26946  11.140   6.844   4.673
59879W        W26947  41.826  42.906  14.278
59880W        W26948  27.962  18.747   4.741
59881W        W26949  29.063   4.361  11.538
59882W        W26950  30.434  38.975  13.315
59883W        W26951  25.019   4.341   4.246
59884W        W26952  24.524  31.469   1.376
59885W        W26953   9.648  32.000   3.647
59886W        W26954  31.904  27.642   5.205
59887W        W26955  25.988  21.517   2.882
59888W        W26956  22.505   3.374   3.681
59889W        W26957  11.701  38.988  11.857
59890W        W26958  16.288  38.445   1.300
59891W        W26959  26.093   9.750   1.926
59892W        W26960  25.658  12.780  10.507
59893W        W26961   0.276  14.832   4.116
59894W        W26962   8.236   0.299  11.411
59895W        W26963  31.936  38.953   5.230
59896W        W26964  35.859  26.655  11.520
59897W        W26965  11.192  41.321  12.899
59898W        W26966  19.104  44.351   3.635
59899W        W26967  24.603  33.540   0.902
59900W        W26968  24.689  37.353   2.370
59901W        W26969  36.416   4.433  12.471
59902W        W26970  26.523  43.811   1.749
59903W        W26971  14.793  35.445  11.549
59904W        W26972  29.664  31.549  13.475
59905W        W26973   1.292  31.440   2.790
59906W        W26974  44.848   8.660   0.305
59907W        W26975   3.450  38.521  10.428
59908W        W26976  22.176   1.826  13.877
59909W        W26977  40.535   4.794  11.858
59910W        W26978  25.598  40.441  10.572
59911W        W26979  33.077  29.656   1.271
59912W        W26980  35.925   2.283   2.794
59913W        W26981  35.009  38.471  11.497
59914W        W26982  18.683   0.473   4.311
59915W        W26983  16.199  27.519  10.571
59916W        W26984  18.123  27.990  10.635
59917W        W26985   1.267  34.921   5.178
59918W        W26986  34.420   2.464   4.834
59919W        W26987  14.152   4.217   2.303
59920W        W26988   2.440  32.957   3.712
59921W        W26989   6.216  39.950   1.222
59922W        W26990  23.649  43.893  12.007
59923W        W26991  13.787  23.657  13.511
59924W        W26992  35.971  34.110  10.588
59925W        W26993  10.863  44.879  11.926
59926W        W26994  29.054   7.290  14.416
59927W        W26995  16.648   6.275  10.980
59928W        W26996  29.152  42.294  14.827
59929W        W26997  13.120  38.927  10.969
59930W        W26998  44.365  17.179   1.319
59931W        W26999   0.430  37.551   3.770
59932W        W27000  32.568  28.678   2.817
59933W        W27001  44.400  13.685   1.217
59934W        W27002  15.814  16.609  13.318
59935W        W27003  35.920  39.548   3.654
59936W        W27004   5.378  29.506   1.445
59937W        W27005  12.342  21.030  12.965
59938W        W27006  37.915   1.455  13.811
59939W        W27007   6.309  19.075  11.606
59940W        W27008  34.602  18.102  13.940
59941W        W27009  18.183  39.392   0.756
59942W        W27010  28.676  14.168  12.540
59943W        W27011   7.743  16.797  14.313
59944W        W27012   5.789  44.945  11.022
59945W        W27013   7.904  39.503   1.789
59946W        W27014  12.236  27.521  13.525
59947W        W27015   0.811  33.521  10.892
59948W        W27016   4.854  33.451  11.983
59949W        W27017  29.583  18.593   0.945
59950W        W27018  31.597   5.779   2.242
59951W        W27019   0.860  28.151   0.774
59952W        W27020  26.000  43.399   0.841
59953W        W27021  37.939  40.797  13.466
59954W        W27022  44.932  30.553  11.877
59955W        W27023   1.444  18.546   0.860
59956W        W27024   1.475  21.664  10.443
59957W        W27025   4.901  41.467   4.736
59958W        W27026   8.839  29.161  10.108
59959W        W27027  27.562  35.379   0.361
59960W        W27028  43.827  41.524   0.375
59961W        W27029  17.205  41.452  13.962
59962W        W27030  35.494  19.550  11.414
59963W        W27031  14.320  12.166   2.359
59964W        W27032  30.431  42.411  13.812
59965W        W27033  25.145  12.819   2.228
59966W        W27034  44.491   4.216  12.926
59967W        W27035  21.057  25.091  10.971
59968W        W27036   1.743   9.315  14.487
59969W        W27037   0.951   3.370  11.075
59970W        W27038  35.475  26.103  14.342
59971W        W27039  41.030  12.753  11.048
59972W        W27040  17.150  43.384  11.959
59973W        W27041  41.930  27.498   0.949
59974W        W27042  14.780   8.304   3.638
59975W        W27043  21.208  30.914  11.071
59976W        W27044  14.741  17.139   4.313
59977W        W27045  17.264  11.852   1.899
59978W        W27046  10.645  33.124   2.686
59979W        W27047  19.204  33.050   2.290
59980W        W27048  17.178  14.314   3.867
59981W        W27049   9.211  37.525   0.283
59982W        W27050  43.429  10.352   2.278
59983W        W27051  26.069  17.204  11.907
59984W        W27052  19.712  44.391   0.899
59985W        W27053  44.384   5.436   0.908
59986W        W27054  21.222  31.928  11.411
59987W        W27055  41.858   7.356  10.157
59988W        W27056  25.686   6.891  13.958
59989W        W27057  22.584  17.271  14.889
59990W        W27058   6.352  41.975   1.800
59991W        W27059  37.848   3.855  13.945
59992W        W27060  12.185   8.838   0.834
59993W        W27061   5.866   4.827  14.403
59994W        W27062  27.547  10.710   4.263
59995W        W27063  18.685  12.326   2.201
59996W        W27064  19.600   7.277  14.886
59997W        W27065  20.760  42.326   2.761
59998W        W27066  36.060  44.783   1.749
59999W        W27067  40.310  30.079  10.528
60000W        W27068   0.431  30.558  12.997
60001W        W27069   3.397  36.043  12.951
60002W        W27070  28.092  23.606  12.397
60003W        W27071  35.864   9.761  10.982
60004W        W27072  35.000  40.486   4.304
60005W        W27073  19.049  13.751  13.006
60006W        W27074  27.993  21.161   0.937
60007W        W27075   8.384  35.404  13.906
60008W        W27076  17.136  35.999   2.357
60009W        W27077  26.691  29.447  10.895
60010W        W27078  19.682  15.578   3.720
60011W        W27079  35.873  37.033   3.285
60012W        W27080   4.845  17.628  12.564
60013W        W27081  24.525  43.468  12.503
60014W        W27082  43.294   6.822  14.953
60015W        W27083  32.508  19.217  14.813
60016W        W27084   6.689  39.014  12.535
60017W        W27085  40.471  31.930   3.686
60018W        W27086   2.235   5.711  14.516
60019W        W27087  32.043  40.434  13.798
60020W        W27088  29.562  11.641   2.900
60021W        W27089  33.012  40.501  10.993
60022W        W27090   8.376  27.524  13.365
60023W        W27091   6.882  41.450   0.297
60024W        W27092  14.784  12.836   4.178
60025W        W27093  32.557  18.591  12.554
60026W        W27094  31.906  29.617   2.765
60027W        W27095  26.477  18.071  10.601
60028W        W27096  15.787  10.200   4.151
60029W        W27097  28.131  37.382   1.869
60030W        W27098  14.271  30.969  13.325
60031W        W27099  37.970  19.666  11.938
60032W        W27100  13.299  41.444  11.914
60033W        W27101  31.998  33.558  14.768
60034W        W27102   4.894  39.050   3.379
60035W        W27103  10.159   9.179   1.886
60036W        W27104  37.916  41.827   3.298
60037W        W27105  38.864   3.742   0.952
60038W        W27106  16.609  13.266  10.612
60039W        W27107  41.035  23.986   0.869
60040W        W27108  19.646  24.582   2.226
60041W        W27109   7.898  34.913  11.508
60042W        W27110  20.671  25.162   1.281
60043W        W27111   2.266  36.458  11.524
60044W        W27112  40.477  22.547  10.546
60045W        W27113  41.953  31.142  12.355
60046W        W27114  38.913   4.290  10.114
60047W        W27115   9.307  38.503  14.891
60048W        W27116   7.873  34.444  13.960
60049W        W27117  10.795  30.515  13.950
60050W        W27118   2.317  27.692   1.757
60051W        W27119  12.837  15.091  14.419
60052W        W27120  17.175  18.104   0.353
60053W        W27121  34.909   8.372   0.262
60054W        W27122  22.586  22.036   4.665
60055W        W27123  44.345   1.949  12.073
60056W        W27124   1.844  40.999   2.775
60057W        W27125  14.141  11.160   0.850
60058W        W27126  10.378  31.113  11.969
60059W        W27127  21.518  13.330   2.310
60060W        W27128  27.450  15.592  13.820
60061W        W27129  38.831   5.845   3.718
60062W        W27130  20.765  13.754   3.820
60063W        W27131  34.548  22.703   2.336
60064W        W27132  36.589   3.311   5.091
60065W        W27133   4.305  13.115   0.819
60066W        W27134  21.184  29.018  13.024
60067W        W27135  37.490  39.826   3.201
60068W        W27136  13.634  26.642   1.894
60069W        W27137  24.003  11.797  14.840
60070W        W27138   9.195  10.146  13.040
60071W        W27139  14.305  14.148   5.142
60072W        W27140  16.245  29.457   0.803
60073W        W27141  26.034   2.946  10.508
60074W        W27142   3.303  26.101   1.294
60075W        W27143  16.111   2.787  13.962
60076W        W27144   7.684  10.666  10.899
60077W        W27145  17.287  19.558  14.006
60078W        W27146  25.976   3.753   3.672
60079W        W27147  38.913  24.574   3.810
60080W        W27148  15.760  43.774  11.973
60081W        W27149  14.718  24.091   0.739
60082W        W27150  22.128  29.496  11.872
60083W        W27151   2.774  43.996   2.270
60084W        W27152  23.551  33.935  12.863
60085W        W27153   7.405  13.714   4.814
60086W        W27154  25.696  36.007   4.653
60087W        W27155  40.842  15.694  13.438
60088W        W27156   1.795  15.092   2.885
60089W        W27157   6.731  11.288   4.769
60090W        W27158  29.073   8.273   2.780
60091W        W27159   1.911  26.056  10.637
60092W        W27160   5.696  31.587  11.424
60093W        W27161  37.934  25.605   2.826
60094W        W27162  32.549  17.109  11.429
60095W        W27163   2.873  13.609   4.722
60096W        W27164  11.349   1.961   3.294
60097W        W27165  19.143  25.630  13.055
60098W        W27166  16.808  42.298  12.430
60099W        W27167  43.333  12.690   1.323
60100W        W27168  11.746  38.976   4.228
60101W        W27169   1.292  34.430  14.303
60102W        W27170   9.790  38.509   1.931
60103W        W27171  41.374  14.786  11.973
60104W        W27172  36.876  22.619  10.503
60105W        W27173  32.603   8.805   4.298
60106W        W27174  36.984  24.210   2.898
60107W        W27175  30.062  24.162  10.409
60108W        W27176  36.937  23.551  13.439
60109W        W27177  28.650  21.120  14.377
60110W        W27178  37.504  42.944  14.846
60111W        W27179  38.455  36.415   3.688
60112W        W27180  35.594  39.410  10.577
60113W        W27181  34.547  10.878  12.422
60114W        W27182  36.995  23.553   3.640
60115W        W27183  32.059  41.305  12.891
60116W        W27184  13.108  22.576   0.479
60117W        W27185  22.592  40.303  13.985
60118W        W27186  11.758  39.520   2.186
60119W        W27187  29.653  16.275  12.067
60120W        W27188  14.171  13.184   5.204
60121W        W27189  12.349  42.300   1.911
60122W        W27190   3.725  44.875  13.332
60123W        W27191  27.632  31.418   1.856
60124W        W27192  26.550  20.061  14.796
60125W        W27193   1.465  19.697   1.856
60126W        W27194  10.337  13.629  11.373
60127W        W27195  28.481  20.125  13.917
60128W        W27196  37.019  23.585  10.582
60129W        W27197  40.524  32.556   0.315
60130W        W27198  35.884   3.400  12.934
60131W        W27199  16.628  15.240   4.249
60132W        W27200   2.470   4.431  11.564
60133W        W27201  33.907  14.680   3.871
60134W        W27202  28.587  32.422   4.334
60135W        W27203  29.930  38.488   0.301
60136W        W27204  34.106   7.791   4.160
60137W        W27205  25.060  17.787  12.392
60138W        W27206   5.223   0.428   1.274
60139W        W27207  42.418   0.435   4.726
60140W        W27208  39.403  23.232   3.825
60141W        W27209  30.641  33.399   4.130
60142W        W27210  15.715   6.243   5.126
60143W        W27211  10.295   8.891   1.918
60144W        W27212  20.084  36.857  11.578
60145W        W27213  32.561   1.441   4.276
60146W        W27214  10.263  12.772   0.733
60147W        W27215   7.822  27.982  12.444
60148W        W27216  26.189  41.929  12.477
60149W        W27217  14.695   1.874  13.522
60150W        W27218  30.643  37.039   3.676
60151W        W27219  27.578  29.629   1.747
60152W        W27220   5.333  28.002   0.866
60153W        W27221  25.095   1.855   2.878
60154W        W27222   2.276  43.483   1.900
60155W        W27223  12.663  31.596  13.820
60156W        W27224   1.882  31.549  11.019
60157W        W27225  29.480  41.817   4.750
60158W        W27226   6.334  25.996   0.738
60159W        W27227  15.595  35.001   4.284
60160W        W27228   7.867  26.686  10.093
60161W        W27229   5.756  20.654   2.835
60162W        W27230  41.925   5.696  11.907
60163W        W27231  34.906  41.873   0.274
60164W        W27232  38.536  19.691   4.791
60165W        W27233  29.070   1.406  14.839
60166W        W27234  24.983   9.356  13.022
60167W        W27235  29.024  42.794   1.753
60168W        W27236   1.916  28.950  13.941
60169W        W27237  33.497  34.399   4.736
60170W        W27238  33.886   9.391  11.881
60171W        W27239   0.265  41.920   4.223
60172W        W27240   4.341  23.502   0.364
60173W        W27241   9.751  14.809  10.463
60174W        W27242  42.844  29.533  14.919
60175W        W27243  34.871   9.762   1.215
60176W        W27244  15.100  34.082  11.513
60177W        W27245  12.228  23.226  14.429
60178W        W27246   5.804  34.431   1.930
60179W        W27247  19.535  26.998  13.547
60180W        W27248   8.735  13.319  12.847
60181W        W27249  31.111  20.141   0.369
60182W        W27250  10.241  17.765   3.832
60183W        W27251  29.056  22.566  11.118
60184W        W27252  13.305  28.483  14.485
60185W        W27253  16.235  33.461   1.830
60186W        W27254   8.678  22.161   2.399
60187W        W27255  37.957  37.516   5.083
60188W        W27256  41.892  17.787  14.466
60189W        W27257  44.765  28.665   4.606
60190W        W27258  10.334  17.636  11.378
60191W        W27259  26.696  17.694   2.347
60192W        W27260  26.101  10.369  12.897
60193W        W27261  32.521  21.541  13.473
60194W        W27262   2.794  33.470   2.268
60195W        W27263  14.641  39.860  13.954
60196W        W27264   6.913   9.148   0.929
60197W        W27265  19.039   7.790  10.599
60198W        W27266  27.592   5.923   0.286
60199W        W27267  39.423  18.100  11.516
60200W        W27268  30.063  35.505  12.823
60201W        W27269  41.538  26.959   1.794
60202W        W27270  11.325  15.719   1.797
60203W        W27271   6.793  33.533  10.615
60204W        W27272  33.032  34.532  11.856
60205W        W27273   9.208  21.735  11.077
60206W        W27274  18.197  17.598   4.746
60207W        W27275  25.167  16.125  14.800
60208W        W27276  31.577  22.511   1.819
60209W        W27277  44.287   9.864   1.381
60210W        W27278  30.140   6.192   4.314
60211W        W27279  11.813  39.538   1.770
60212W        W27280   5.354  11.258  14.985
60213W        W27281   0.803  31.480  13.052
60214W        W27282  12.156  12.257   3.795
60215W        W27283  28.562  30.606  12.869
60216W        W27284   6.219  30.512   4.314
60217W        W27285  36.593  37.520   3.837
60218W        W27286  18.739   3.823  12.476
60219W        W27287  13.210  38.479  11.025
60220W        W27288  27.508  37.541  11.404
60221W        W27289  35.564  37.521  14.485
60222W        W27290  20.661  16.702   3.197
60223W        W27291  23.047  32.913  10.895
60224W        W27292   3.255   7.709  11.084
60225W        W27293  18.608  16.761   1.306
60226W        W27294  44.467  27.533  12.851
60227W        W27295  12.783  26.086  11.042
60228W        W27296  26.684  14.757  14.923
60229W        W27297  25.023  11.133  11.108
60230W        W27298  25.654  44.477   1.294
60231W        W27299   0.867  13.729  13.900
60232W        W27300  30.464  44.009  14.455
60233W        W27301  20.528  43.492  10.418
60234W        W27302   4.368  43.424   2.844
60235W        W27303  42.478  42.803  14.883
60236W        W27304  22.689  25.488  12.998
60237W        W27305  10.687  39.063   4.661
60238W        W27306  34.007   4.321  10.950
60239W        W27307   3.906  35.920  11.060
60240W        W27308  11.788  15.820   2.249
60241W        W27309   1.876  44.343   0.962
60242W        W27310  22.207  27.093  11.606
60243W        W27311  11.826  43.897   1.903
60244W        W27312  16.622  30.052   4.727
60245W        W27313  40.339  18.683  10.415
60246W        W27314   0.297  10.697   4.342
60247W        W27315  13.755  31.078  12.968
60248W        W27316  13.729  43.488  14.310
60249W        W27317  29.475  39.932  13.314
60250W        W27318  36.551  17.205  13.022
60251W        W27319  25.709   0.365   2.838
60252W        W27320  30.930  36.004  14.423
60253W        W27321  27.468  16.189   2.722
60254W        W27322   2.823  26.174   0.896
60255W        W27323  41.032  25.005  10.558
60256W        W27324  11.224   2.463   3.162
60257W        W27325  18.198  26.700   9.980
60258W        W27326   4.307  30.595   3.282
60259W        W27327  14.712   8.261  12.040
60260W        W27328  22.188   1.268  10.443
60261W        W27329  13.781   8.329   3.637
60262W        W27330  40.464  36.941  11.374
60263W        W27331   2.284   3.845  12.021
60264W        W27332  21.593  25.570  14.763
60265W        W27333  21.570  18.579  12.843
60266W        W27334  24.683   7.820   4.132
60267W        W27335   8.889   9.700   1.790
60268W        W27336  35.104  38.488  10.558
60269W        W27337  27.506   8.209  13.339
60270W        W27338  24.689   3.302  10.630
60271W        W27339  43.499  33.523   2.796
60272W        W27340  25.696  14.696   0.328
60273W        W27341  17.206  10.672  12.963
60274W        W27342  42.369  36.409   2.687
60275W        W27343   0.850  32.966   4.225
60276W        W27344  18.777  38.478   0.243
60277W        W27345  22.739  25.059   1.403
60278W        W27346  14.756  29.456   1.722
60279W        W27347  31.538  32.611  10.529
60280W        W27348  23.556  28.084   3.797
60281W        W27349  15.168  21.661  13.348
60282W        W27350  24.576  26.074  10.951
60283W        W27351  16.259  20.120   0.299
60284W        W27352  23.597   6.743  12.068
60285W        W27353  16.616  14.724  11.979
60286W        W27354  16.626  27.146  10.545
60287W        W27355  12.657   3.244  13.335
60288W        W27356  44.781  14.148   0.363
60289W        W27357  29.978   9.187   1.796
60290W        W27358  15.236  20.045   1.383
60291W        W27359  18.742  40.906   2.853
60292W        W27360  15.249  36.486  13.447
60293W        W27361  36.907  28.532   3.214
60294W        W27362   8.311  24.145  14.905
60295W        W27363   6.792  21.530  14.482
60296W        W27364  43.363  28.617  11.496
60297W        W27365  15.314  32.584  12.887
60298W        W27366  43.846  28.983  11.917
60299W        W27367  42.812  28.508   3.650
60300W        W27368  41.849   6.702   3.313
60301W        W27369  13.247  34.120   0.805
60302W        W27370   7.234  33.964   3.338
60303W        W27371   5.800  16.663  12.402
60304W        W27372  38.943  15.596   1.375
60305W        W27373  15.312  36.978  14.482
60306W        W27374   7.243  25.983  12.902
60307W        W27375  16.203   2.383   2.307
60308W        W27376   7.411  10.868   4.756
60309W        W27377  32.596   2.745   3.330
60310W        W27378  35.424   2.462   0.952
60311W        W27379   4.737  29.669   1.933
60312W        W27380  20.124  44.905  10.899
60313W        W27381   2.879  44.768   0.929
60314W        W27382  16.684  12.244   2.216
60315W        W27383  44.273   9.694   4.300
60316W        W27384  36.001  43.351   4.283
60317W        W27385  44.362  39.876  12.511
60318W        W27386  31.936  22.556  11.406
60319W        W27387  20.631  12.705   1.428
60320W        W27388   5.713   1.965  11.112
60321W        W27389   1.852  41.342  13.469
60322W        W27390   7.801   2.880  11.565
60323W        W27391  35.012  26.982   1.351
60324W        W27392  27.605  32.971   0.446
60325W        W27393  37.374   3.338  12.488
60326W        W27394  30.591   6.903  14.958
60327W        W27395  33.528  32.484   1.926
60328W        W27396   4.307  34.047   1.250
60329W        W27397   0.440   9.217  12.994
60330W        W27398  38.936   4.270   4.325
60331W        W27399  18.545  10.788  14.334
60332W        W27400   4.227  23.714   0.931
60333W        W27401  15.720  37.057   2.734
60334W        W27402  18.565  36.540  13.819
60335W        W27403  12.695  11.366   1.738
60336W        W27404  22.090  43.978  12.511
60337W        W27405  28.610   7.236  12.862
60338W        W27406  14.151   3.243   4.765
60339W        W27407  36.041   3.218   0.422
60340W        W27408  12.277  24.111   0.397
60341W        W27409  20.070  37.059   1.862
60342W        W27410  11.232   6.270   2.273
60343W        W27411  39.934  44.827   2.349
60344W        W27412  19.278   1.774   3.681
60345W        W27413  34.005  15.086   3.326
60346W        W27414  12.254  29.984  14.767
60347W        W27415   2.289  18.680  13.328
60348W        W27416  36.349   9.291  10.431
60349W        W27417  30.002   8.297  14.340
60350W        W27418  18.768  33.101   2.178
60351W        W27419  38.427   9.701   0.420
60352W        W27420   8.898  33.471  13.542
60353W        W27421  13.724  27.613  10.476
60354W        W27422  43.510  35.967  11.022
60355W        W27423   5.409  16.238  14.991
60356W        W27424  32.534   3.745   4.736
60357W        W27425   0.959  11.768  14.384
60358W        W27426   5.904  35.546   4.619
60359W        W27427  30.919  10.164  10.098
60360W        W27428  21.575  31.014   1.362
60361W        W27429   8.892  22.071   0.926
60362W        W27430  15.756  28.440   2.342
60363W        W27431  35.908   9.189   3.809
60364W        W27432  33.124  26.463   1.317
60365W        W27433  31.605  16.693   3.767
60366W        W27434  10.336  40.039  10.635
60367W        W27435  10.842  34.924  11.884
60368W        W27436  21.739  19.065  13.468
60369W        W27437  15.769   3.726   2.836
60370W        W27438  19.089   0.391  11.007
60371W        W27439  30.422  36.048  11.123
60372W        W27440  28.608  26.992  13.506
60373W        W27441  16.114  31.605  11.914
60374W        W27442  18.570  35.965  14.289
60375W        W27443  26.009  16.610  12.462
60376W        W27444  11.633  27.161  10.959
60377W        W27445  36.492  40.433   1.723
60378W        W27446  29.056  13.227  14.800
60379W        W27447  32.529  33.407  12.833
60380W        W27448  35.868  24.199  11.014
60381W        W27449   4.762   1.866   2.208
60382W        W27450   2.750  32.627   1.839
60383W        W27451   8.389  15.653   2.719
60384W        W27452  37.435   4.941   2.343
60385W        W27453   3.761  11.163   3.312
60386W        W27454   4.853  12.760  13.814
60387W        W27455  17.758  26.029  11.878
60388W        W27456  13.137   9.769  13.010
60389W        W27457  34.444  34.026  14.438
60390W        W27458   7.899  17.288  13.315
60391W        W27459   2.366  35.985   2.893
60392W        W27460   8.871  27.048  14.837
60393W        W27461  28.973  31.144   4.350
60394W        W27462  38.404  24.701   0.467
60395W        W27463  20.201  26.124   4.750
60396W        W27464   4.897  41.807  12.046
60397W        W27465   0.783  30.077  13.452
60398W        W27466   8.365   2.728  11.007
60399W        W27467  13.259  27.548   1.744
60400W        W27468  19.091  35.878   1.438
60401W        W27469  14.771  44.871  11.395
60402W        W27470  29.570  26.096  11.912
60403W        W27471  40.420  15.191   3.148
60404W        W27472  16.121  24.538   0.376
60405W        W27473   4.445  43.815   4.615
60406W        W27474  43.988  30.963  14.947
60407W        W27475  14.255  21.222  12.883
60408W        W27476  32.085   6.873  12.868
60409W        W27477  20.209  16.279  11.446
60410W        W27478  35.590  43.816   4.297
60411W        W27479  17.197  38.400   4.787
60412W        W27480  21.544  12.720   2.897
60413W        W27481  24.169   3.867   1.799
60414W        W27482  27.692  15.658   2.819
60415W        W27483  29.483  28.147  12.998
60416W        W27484  36.515  25.677  12.046
60417W        W27485  35.017  43.769   2.363
60418W        W27486   7.386  38.446   0.841
60419W        W27487  25.135  22.249   2.786
60420W        W27488  31.084  15.681   2.813
60421W        W27489   8.257  27.104   3.249
60422W        W27490  29.443  13.269  14.313
60423W        W27491  16.272  19.080   3.737
60424W        W27492  10.176  19.547   0.915
60425W        W27493  39.542   0.847  14.825
60426W        W27494  27.648  11.795   0.353
60427W        W27495  41.407  27.996  12.523
60428W        W27496  10.789  11.205   1.245
60429W        W27497  12.783  25.192   3.202
60430W        W27498  34.454  42.475  11.937
60431W        W27499  40.429   3.724  12.902
60432W        W27500   5.326   3.432  10.088
60433W        W27501  43.369  34.090   1.808
60434W        W27502  19.204  23.018  13.918
60435W        W27503  30.554  32.102   1.393
60436W        W27504  35.499  27.555   3.289
60437W        W27505   2.818  11.356  13.845
60438W        W27506  17.673  32.967  14.314
60439W        W27507  42.030   9.664  12.065
60440W        W27508  41.011  36.560  12.380
60441W        W27509   6.886   8.669  11.435
60442W        W27510   3.873  33.959   4.329
60443W        W27511  12.679  20.247  13.453
60444W        W27512   4.394  39.840  10.995
60445W        W27513  25.537  17.113  12.998
60446W        W27514  30.566  36.890  12.429
60447W        W27515  24.217  12.798   0.481
60448W        W27516  19.674  37.031   2.669
60449W        W27517  26.069  40.826   3.661
60450W        W27518  14.326  15.109  12.077
60451W        W27519   0.820  19.121  10.436
60452W        W27520  39.343  42.486  14.507
60453W        W27521   2.322   2.304  11.548
60454W        W27522  35.360  39.037   2.902
60455W        W27523  23.164  29.575   0.312
60456W        W27524  40.896  19.540   4.620
60457W        W27525  36.460  32.106  12.918
60458W        W27526  40.402  36.386  13.384
60459W        W27527  39.336  30.164  11.874
60460W        W27528  43.926  32.946  14.431
60461W        W27529  10.194  29.117  14.478
60462W        W27530  13.653  14.589  14.407
60463W        W27531   0.788  14.746   4.683
60464W        W27532  12.290   2.358   1.780
60465W        W27533  15.137   9.677  12.022
60466W        W27534  12.237  30.464  10.476
60467W        W27535  25.522   9.797  12.926
60468W        W27536  14.677  31.011  12.911
60469W        W27537   5.274   4.859  12.390
60470W        W27538  17.604  15.158  12.086
60471W        W27539  38.910  28.437   3.270
60472W        W27540  34.411  24.524  11.970
60473W        W27541  29.468  30.638   4.773
60474W        W27542   1.301   3.288   4.144
60475W        W27543  44.425  42.321  14.967
60476W        W27544  11.289   7.776   0.286
60477W        W27545  34.959  27.056   2.674
60478W        W27546   5.358  43.982   4.317
60479W        W27547  30.008  11.842  12.473
60480W        W27548   7.766  39.323   4.178
60481W        W27549  29.932  27.482  10.464
60482W        W27550  32.984  28.066   4.340
60483W        W27551  42.395   3.711   3.721
60484W        W27552  19.534  21.685  12.851
60485W        W27553   0.432  17.293   1.791
60486W        W27554  12.213  23.114  12.070
60487W        W27555  31.637  31.638   1.407
60488W        W27556  27.173   8.334   3.786
60489W        W27557  32.935   7.806   1.855
60490W        W27558  22.601  10.714  10.458
60491W        W27559  10.286  34.489  10.051
60492W        W27560   6.691   3.945   4.332
60493W        W27561  44.872  16.196  12.884
60494W        W27562  26.128  10.173  14.849
60495W        W27563   0.282  36.583   0.243
60496W        W27564  16.781   7.787  13.535
60497W        W27565  12.237   0.815   5.675
60498W        W27566  12.750  40.305   2.406
60499W        W27567   1.935  16.795  13.840
60500W        W27568  35.048  29.527  13.001
60501W        W27569   8.669  38.045   3.178
60502W        W27570  30.915  36.017  13.400
60503W        W27571  13.284  18.699   3.664
60504W        W27572   7.703  17.088   5.142
60505W        W27573  43.326   3.773   2.251
60506W        W27574  13.647   2.935  14.506
60507W        W27575  42.981  37.449  12.842
60508W        W27576  35.358   8.805   1.232
60509W        W27577   8.798   2.743  12.511
60510W        W27578  12.168  19.676   2.764
60511W        W27579  37.079  34.993  11.409
60512W        W27580  16.235  40.455  10.963
60513W        W27581   9.800  18.707  11.507
60514W        W27582  35.370   4.889   1.698
60515W        W27583  17.580  14.158   4.725
60516W        W27584  30.113  18.614   0.337
60517W        W27585  14.098  27.195  10.567
60518W        W27586  15.580  24.224   9.935
60519W        W27587  13.615  37.931   1.777
60520W        W27588  28.979  16.620  12.083
60521W        W27589  23.240  34.933   3.371
60522W        W27590  42.414  41.853   4.823
60523W        W27591  36.995  33.558  14.926
60524W        W27592  43.426  14.658   3.754
60525W        W27593  30.459  32.615  13.945
60526W        W27594  21.140  14.204   3.769
60527W        W27595  25.963   5.744  12.390
60528W        W27596  43.870  26.008  12.521
60529W        W27597  11.755  41.870   4.328
60530W        W27598  33.993  37.839   2.671
60531W        W27599  38.064  34.056  11.911
60532W        W27600  11.670   6.205   1.864
60533W        W27601   1.348  37.966   2.242
60534W        W27602  36.981  32.950  12.836
60535W        W27603  21.169  22.203   1.217
60536W        W27604  32.475  35.437   2.271
60537W        W27605  13.326  17.122   1.293
60538W        W27606  27.613   8.758  10.584
60539W        W27607  37.081  44.468  11.483
60540W        W27608  33.540  38.537  14.336
60541W        W27609   5.325  39.920  13.844
60542W        W27610   2.368  10.874   2.665
60543W        W27611  17.277  18.233   4.307
60544W        W27612  28.965  16.303  13.520
60545W        W27613  14.753   6.922   4.646
60546W        W27614   8.291  22.066   2.283
60547W        W27615  25.141   0.869  12.045
60548W        W27616  38.472   8.836  10.976
60549W        W27617   7.325  29.066  12.580
60550W        W27618   4.760   6.846   3.218
60551W        W27619  16.117  41.025  13.875
60552W        W27620  18.157   5.694   2.869
60553W        W27621  19.060  30.636  14.988
60554W        W27622  11.786  28.140   1.329
60555W        W27623   6.427   7.789   4.767
60556W        W27624   5.845  25.503  11.102
60557W        W27625  38.995  36.529   3.219
60558W        W27626  10.175  13.621  13.953
60559W        W27627  44.913   4.391   3.826
60560W        W27628  11.788  19.564  13.405
60561W        W27629  34.057   0.771   0.436
60562W        W27630   4.442  17.781  12.962
60563W        W27631   5.199  14.792  13.883
60564W        W27632   2.967   3.448   3.831
60565W        W27633  10.291   5.798   3.244
60566W        W27634  35.498  26.628   1.332
60567W        W27635   0.935  30.158  14.289
60568W        W27636  24.699  15.262  13.926
60569W        W27637   2.951  14.725  11.103
60570W        W27638  36.528   6.258   4.189
60571W        W27639  43.475   7.343  13.426
60572W        W27640  36.073   3.832   3.338
60573W        W27641   0.285  17.704  10.601
60574W        W27642  18.734   3.228  11.438
60575W        W27643   7.320  32.414  12.018
60576W        W27644  43.893  36.513  14.332
60577W        W27645  12.297   3.412  13.967
60578W        W27646  27.130  42.920  14.510
60579W        W27647  22.572  27.175   0.267
60580W        W27648  36.994   9.683   0.432
60581W        W27649  41.829   4.780   3.757
60582W        W27650   6.213  27.125  10.950
60583W        W27651  33.469   3.350   0.837
60584W        W27652  39.476  21.609  12.987
60585W        W27653   2.915   0.336   4.214
60586W        W27654  37.487  30.441  10.970
60587W        W27655  24.046  42.938   5.278
60588W        W27656  42.349  27.561  14.886
60589W        W27657  38.567  26.084   0.904
60590W        W27658   0.788  16.710  12.371
60591W        W27659  26.117  20.124  14.473
60592W        W27660  28.998  43.008   1.351
60593W        W27661  44.930  21.188  14.792
60594W        W27662  28.072   4.206   4.122
60595W        W27663  44.875   5.794   3.692
60596W        W27664   9.183  41.417  13.483
60597W        W27665  32.097  25.597  14.866
60598W        W27666  26.204  31.432  10.408
60599W        W27667   2.941  37.523  12.959
60600W        W27668  10.164  22.174   4.196
60601W        W27669  23.626  29.668  12.013
60602W        W27670  32.078   0.248  12.395
60603W        W27671  35.882  37.885   2.255
60604W        W27672  17.610  18.108  10.893
60605W        W27673  23.052  38.442  11.516
60606W        W27674   4.711   5.816  11.936
60607W        W27675  43.822  38.917  11.477
60608W        W27676   0.254  12.790   4.262
60609W        W27677  30.542  38.058  14.506
60610W        W27678  34.523  19.261   2.662
60611W        W27679  44.467  16.674   3.688
60612W        W27680  10.177  11.226   3.357
60613W        W27681  21.625  10.277  10.426
60614W        W27682  42.389   9.649  10.522
60615W        W27683  10.829   7.406   3.726
60616W        W27684   4.303  23.182  11.890
60617W        W27685  19.607  16.243   2.771
60618W        W27686  39.040  30.076   1.283
60619W        W27687   1.449  26.681   4.609
60620W        W27688   9.196  32.986  10.907
60621W        W27689  18.612  32.116   0.877
60622W        W27690  17.188  12.734   1.901
60623W        W27691  13.203  36.872   0.335
60624W        W27692  14.817  12.762   2.222
60625W        W27693  34.974  23.230  14.322
60626W        W27694   3.711   7.346  14.840
60627W        W27695  38.325  41.951   2.345
60628W        W27696  39.377  27.690  14.834
60629W        W27697  10.217  12.849  14.830
60630W        W27698  41.466  22.217  11.987
60631W        W27699  31.909  11.157   3.331
60632W        W27700  25.190  12.309   3.212
60633W        W27701  44.265  36.960  10.582
60634W        W27702   0.479  29.557   4.221
60635W        W27703  14.127  31.074  10.633
60636W        W27704  33.059  24.642   0.805
60637W        W27705  10.245  26.673  11.977
60638W        W27706  37.980  41.491   1.406
60639W        W27707  20.073  37.951  11.501
60640W        W27708   9.239  16.809  12.853
60641W        W27709  12.159   5.326   3.630
60642W        W27710  28.136  15.231  11.383
60643W        W27711  29.591  37.014   4.723
60644W        W27712  13.633  13.613  12.343
60645W        W27713  36.418  44.388   0.849
60646W        W27714  20.562  22.057  12.392
60647W        W27715   0.489   9.663   1.313
60648W        W27716   6.848  34.919   0.427
60649W        W27717  22.732  31.563   4.263
60650W        W27718  19.285  30.980   3.792
60651W        W27719   6.203   0.375  11.114
60652W        W27720  30.971  25.156  13.829
60653W        W27721  26.653  15.601   1.786
60654W        W27722  37.032  21.745  12.934
60655W        W27723   8.758  33.081   4.738
60656W        W27724  29.038  32.520   1.799
60657W        W27725  26.137  13.150  11.450
60658W        W27726  23.005  41.335  10.413
60659W        W27727  38.389  25.502   2.863
60660W        W27728  31.081   1.339  11.937
60661W        W27729  37.977   2.310   1.788
60662W        W27730  21.205  23.188  13.021
60663W        W27731   3.852  43.888   2.300
60664W        W27732  21.555  23.202  13.816
60665W        W27733   4.421  42.928   1.697
60666W        W27734   8.745  23.234  14.916
60667W        W27735  19.639  28.935  12.372
60668W        W27736  11.853  23.049   1.808
60669W        W27737  24.221  41.506  13.352
60670W        W27738  26.599   5.769  12.909
60671W        W27739  14.669  16.583  14.884
60672W        W27740  42.874  40.994  14.990
60673W        W27741   8.702   7.317   1.746
60674W        W27742  19.085  30.556  11.942
60675W        W27743  29.609  37.929  13.043
60676W        W27744  18.549   5.260   0.780
60677W        W27745  24.049   5.772   2.794
60678W        W27746  18.182  31.953  11.021
60679W        W27747  28.564  43.327   4.187
60680W        W27748  41.005  22.180   4.217
60681W        W27749  36.903  22.135   3.335
60682W        W27750  25.009  33.550   0.833
60683W        W27751  41.356  25.217   1.849
60684W        W27752  42.396   6.265   0.392
60685W        W27753  20.538  22.623   0.829
60686W        W27754  29.611  43.305  12.511
60687W        W27755  40.873  27.969   4.747
60688W        W27756  10.356  37.960   4.694
60689W        W27757  15.330   4.447  11.549
60690W        W27758  43.339  35.360  13.470
60691W        W27759   5.283  11.766   4.838
60692W        W27760  40.438  23.661  13.938
60693W        W27761  35.501   4.217  11.466
60694W        W27762   6.790   6.367  10.969
60695W        W27763   2.900  12.279   2.243
60696W        W27764  27.462   1.934  13.023
60697W        W27765  29.957  41.988  14.336
60698W        W27766  16.598   5.379   0.820
60699W        W27767  29.508  37.390   0.840
60700W        W27768  10.380  36.454  11.455
60701W        W27769  37.412  33.539   0.334
60702W        W27770  31.417  13.319  11.975
60703W        W27771   3.831  23.069   4.747
60704W        W27772  40.522  13.199   0.944
60705W        W27773  36.592  34.540   3.843
60706W        W27774   0.915  42.977  14.334
60707W        W27775  13.739   8.176  14.490
60708W        W27776  44.900  22.199  13.361
60709W        W27777  37.947  18.286   1.409
60710W        W27778  40.519  29.660  11.020
60711W        W27779  39.536  20.729   3.378
60712W        W27780  22.523   4.891   4.822
60713W        W27781  25.182  36.517   0.399
60714W        W27782  22.690  19.233  10.595
60715W        W27783  15.177  15.697   0.917
60716W        W27784  15.320  11.154  11.962
60717W        W27785   0.406  11.158  14.907
60718W        W27786  27.949   0.853   5.235
60719W        W27787   0.975   6.839  12.453
60720W        W27788  39.316  28.534  12.570
60721W        W27789  18.230  43.312   4.141
60722W        W27790  26.125  15.289   4.605
60723W        W27791  41.870   8.325  12.901
60724W        W27792  39.481  11.307  14.356
60725W        W27793   6.876   5.915   2.285
60726W        W27794  39.878  17.163   0.880
60727W        W27795  23.215  39.490  11.377
60728W        W27796  16.594   0.252   0.266
60729W        W27797   9.295   6.681  11.401
60730W        W27798  38.065   1.887   4.130
60731W        W27799  40.900  23.583  13.967
60732W        W27800  42.992  43.007   3.700
60733W        W27801  20.693   9.770  13.813
60734W        W27802   7.705  34.076   0.874
60735W        W27803   1.253   7.896  14.311
60736W        W27804  42.822  30.051   3.195
60737W        W27805  40.398  44.829  14.798
60738W        W27806  22.568   1.818  10.450
60739W        W27807  10.314   5.812  12.427
60740W        W27808  16.133   2.951   2.732
60741W        W27809  34.575  10.865  13.346
60742W        W27810  15.802   2.387  10.963
60743W        W27811  23.190  10.306  11.867
60744W        W27812  27.158   5.725  14.828
60745W        W27813  39.383   2.345   3.640
60746W        W27814  20.662  40.010   0.293
60747W        W27815  35.959  21.520   0.849
60748W        W27816   6.704  43.345  13.547
60749W        W27817  23.236  22.243   0.432
60750W        W27818  12.292  19.649  14.890
60751W        W27819  31.034  11.765  14.959
60752W        W27820  42.877  21.214  13.041
60753W        W27821  10.839  15.736   0.281
60754W        W27822  43.460   0.403  13.904
60755W        W27823  20.201  22.148   0.761
60756W        W27824  15.181   3.740   3.867
60757W        W27825  44.281  40.504  10.583
60758W        W27826  25.187  22.513  12.566
60759W        W27827  38.990  26.599   0.251
60760W        W27828   9.181  11.288  13.364
60761W        W27829  10.224   8.766  11.429
60762W        W27830  38.971   2.342   2.248
60763W        W27831  20.707  11.200  13.377
60764W        W27832  27.530  23.094   3.756
60765W        W27833  23.046  27.990   3.836
60766W        W27834  13.329  14.218  14.933
60767W        W27835  38.842  19.541  14.774
60768W        W27836  30.455  44.964  14.792
60769W        W27837  10.691  18.573  14.339
60770W        W27838   6.322  14.103  11.944
60771W        W27839  14.752  32.628   4.735
60772W        W27840   8.405   8.749   2.274
60773W        W27841  15.312  41.488  12.035
60774W        W27842  24.139  44.315   1.424
60775W        W27843   7.212  22.569   3.823
60776W        W27844  20.193  16.623  11.864
60777W        W27845  39.888  41.502   4.328
60778W        W27846  14.672  42.293   4.697
60779W        W27847  38.948   3.231   3.159
60780W        W27848  12.665  34.605  13.977
60781W        W27849  44.866   0.963   4.684
60782W        W27850  30.659  16.293  12.385
60783W        W27851  40.483   4.899  13.809
60784W        W27852  15.096  14.100   3.714
60785W        W27853  16.097  15.763   4.130
60786W        W27854   6.696  26.615   4.280
60787W        W27855  29.590  30.433  14.455
60788W        W27856  14.652  23.125   2.349
60789W        W27857  10.340  35.533   4.608
60790W        W27858   0.778  11.364   3.725
60791W        W27859  40.435  20.122   2.749
60792W        W27860  36.045  14.156   4.745
60793W        W27861  36.410   9.254  12.549
60794W        W27862   7.310  20.216   1.305
60795W        W27863  36.502  27.672   4.268
60796W        W27864  23.997  33.523   3.778
60797W        W27865  26.519  22.687  13.448
60798W        W27866   3.929  35.101   1.447
60799W        W27867   5.831  26.569   1.244
60800W        W27868  20.730  15.200   0.318
60801W        W27869  42.406  33.061  14.488
60802W        W27870   8.748  37.889   4.613
60803W        W27871  38.861  44.351   2.195
60804W        W27872   1.353  43.796   4.634
60805W        W27873  43.460   6.907  14.276
60806W        W27874  16.734  17.253  13.447
60807W        W27875  29.554  17.223   1.767
60808W        W27876  24.057  26.662  14.885
60809W        W27877  33.958   7.331   1.740
60810W        W27878  23.578  21.040  13.337
60811W        W27879  34.066  31.079  13.375
60812W        W27880   0.769  16.183   3.789
60813W        W27881   6.677  41.351   1.362
60814W        W27882   2.431  15.585   4.662
60815W        W27883   7.345  21.030  12.960
60816W        W27884  29.120  27.071   0.277
60817W        W27885  20.531  43.987   0.478
60818W        W27886   0.434   4.319   4.314
60819W        W27887   1.403   2.888   1.797
60820W        W27888   4.304  23.708   4.200
60821W        W27889   2.958  16.085   1.274
60822W        W27890   4.911  27.179  12.414
60823W        W27891  35.036   5.841   2.295
60824W        W27892  32.946  25.609   0.781
60825W        W27893  29.501  19.222   4.187
60826W        W27894   9.787  27.652   0.426
60827W        W27895   2.295   0.266   1.320
60828W        W27896  31.431  10.748   0.326
60829W        W27897   5.811  23.630  14.972
60830W        W27898  40.979  42.422   3.659
60831W        W27899   6.367   7.244   1.893
60832W        W27900   2.427  28.660   0.387
60833W        W27901  19.238  36.453   0.452
60834W        W27902   1.907  22.562  12.846
60835W        W27903  35.412  14.648  11.115
60836W        W27904   3.917  44.927   1.231
60837W        W27905  10.736  12.227   2.688
60838W        W27906  27.952   8.222   2.292
60839W        W27907  23.522  13.152   2.824
60840W        W27908  38.045  30.095  10.443
60841W        W27909  12.147   6.732  10.629
60842W        W27910  13.661   2.332  13.484
60843W        W27911  38.068  40.448  13.319
60844W        W27912   9.394  25.664  13.358
60845W        W27913  30.454   1.403   4.345
60846W        W27914   7.832  29.570   4.201
60847W        W27915   1.837  35.482   0.403
60848W        W27916  37.989  25.047   3.722
60849W        W27917  36.971  35.478  10.437
60850W        W27918  34.476  34.063   3.263
60851W        W27919  17.066  40.927  11.475
60852W        W27920   6.687  14.322   2.854
60853W        W27921  27.128   3.300   0.847
60854W        W27922   5.800  38.892   1.382
60855W        W27923  18.051  37.376   0.893
60856W        W27924  21.068  28.123  12.426
60857W        W27925  26.047  33.937  12.364
60858W        W27926  20.196  19.674   0.377
60859W        W27927  22.218  30.070  14.992
60860W        W27928  13.729  30.945  12.370
60861W        W27929   1.459  17.138   3.348
60862W        W27930  33.032  31.456   1.322
60863W        W27931  33.992  35.546  14.958
60864W        W27932  29.985  23.233  13.360
60865W        W27933  36.055   8.801   0.307
60866W        W27934  26.059  29.974  12.498
60867W        W27935  38.552  14.671  13.521
60868W        W27936  26.473  11.250   4.169
60869W        W27937  32.041  38.067  11.456
60870W        W27938  29.019  39.990   0.858
60871W        W27939  15.707  26.484   5.238
60872W        W27940  34.505  20.563   1.361
60873W        W27941   2.430  19.657   9.958
60874W        W27942  39.029  22.548   0.347
60875W        W27943   9.371  38.446   3.241
60876W        W27944   6.383  12.266   2.690
60877W        W27945  22.570  21.751   9.922
60878W        W27946  30.097  20.137  14.374
60879W        W27947  35.055  17.127   2.202
60880W        W27948   5.287  33.380  11.868
60881W        W27949  43.375  42.980  14.006
60882W        W27950   8.749  34.407  13.900
60883W        W27951  41.964  29.169  14.376
60884W        W27952  20.260  42.979   0.813
60885W        W27953  37.006   2.352  14.022
60886W        W27954  40.847  11.323  12.027
60887W        W27955   2.434  25.989  12.538
60888W        W27956  31.903   0.281   1.916
60889W        W27957  15.321  25.536   4.165
60890W        W27958  13.123  13.168   1.741
60891W        W27959  13.602  32.009  14.873
60892W        W27960  33.503   3.254   3.645
60893W        W27961   9.670  24.710  10.906
60894W        W27962  19.103  39.411   9.493
60895W        W27963   7.286  23.053   0.795
60896W        W27964   2.361  19.167   1.805
60897W        W27965  23.599  38.023   0.327
60898W        W27966  21.734  16.145  13.482
60899W        W27967  44.292  26.659  14.275
60900W        W27968  38.569  30.032  13.466
60901W        W27969  22.633   1.275   1.281
60902W        W27970  25.529  13.786  12.511
60903W        W27971  12.286   6.247  11.979
60904W        W27972   6.342  22.997   0.741
60905W        W27973   5.858  31.105  13.457
60906W        W27974  37.061  23.625   0.803
60907W        W27975  43.014  28.644  10.557
60908W        W27976   0.440  40.999  12.861
60909W        W27977  32.615  23.526   2.738
60910W        W27978  26.677  15.304   4.649
60911W        W27979  12.170  32.594  13.508
60912W        W27980   3.753   9.286   0.422
60913W        W27981  42.823  35.460   4.293
60914W        W27982  33.515   6.293  13.842
60915W        W27983  36.515   6.279  14.328
60916W        W27984   2.884   2.316  14.413
60917W        W27985  10.374  29.949  14.971
60918W        W27986  25.707  35.409  12.445
60919W        W27987  24.484   5.813  14.329
60920W        W27988  39.877  36.503  10.410
60921W        W27989  32.979  34.069   1.264
60922W        W27990  14.708  22.746   4.308
60923W        W27991   0.881  10.730  11.967
60924W        W27992  29.996  20.700  14.949
60925W        W27993  36.081  24.009   5.101
60926W        W27994  15.816  23.010  14.508
60927W        W27995   1.867  29.924  10.970
60928W        W27996  12.142  10.374   1.214
60929W        W27997  11.266  32.401   1.841
60930W        W27998  41.424  33.534   3.736
60931W        W27999  38.964   1.930  12.095
60932W        W28000  16.684  32.142  14.334
60933W        W28001   7.340   2.462   2.892
60934W        W28002  37.532  15.085   3.806
60935W        W28003  18.278  21.144   1.222
60936W        W28004  34.407  40.892  11.052
60937W        W28005  14.664  41.466   2.750
60938W        W28006  22.208   5.383  10.420
60939W        W28007   8.176  38.564   1.449
60940W        W28008  33.411   2.810   3.843
60941W        W28009   7.301  28.153   1.385
60942W        W28010  20.183  36.922  11.988
60943W        W28011  39.028  11.847  11.477
60944W        W28012  22.611   5.704   0.444
60945W        W28013  41.790  29.503   4.813
60946W        W28014  16.286   1.843   3.698
60947W        W28015  40.903   2.875   0.853
60948W        W28016  43.292  15.324  11.568
60949W        W28017  34.938  10.163   1.432
60950W        W28018  36.924   9.165   3.375
60951W        W28019  41.012   0.928   2.344
60952W        W28020  24.222  11.839  11.001
60953W        W28021  29.618  39.883  11.419
60954W        W28022   2.251  28.637  13.981
60955W        W28023   9.328   1.395  12.472
60956W        W28024  37.066   2.964  14.783
60957W        W28025  11.638  36.900  10.126
60958W        W28026   7.868  15.142  10.603
60959W        W28027  38.960   8.335  12.944
60960W        W28028  34.385  23.551   0.817
60961W        W28029  28.144  34.434  14.859
60962W        W28030  23.179   7.818   2.687
60963W        W28031  38.502  41.468  12.340
60964W        W28032   3.837  39.552   0.758
60965W        W28033  34.084   9.856   2.260
60966W        W28034  38.471  35.892   1.771
60967W        W28035  12.191  12.280  11.539
60968W        W28036  39.424  32.467   4.637
60969W        W28037  24.035  13.815   0.751
60970W        W28038   8.661  33.958   1.728
60971W        W28039  41.835  12.205  11.410
60972W        W28040  23.549   5.776   0.313
60973W        W28041  22.720  20.619   4.642
60974W        W28042  23.054  29.040  13.493
60975W        W28043   2.791  15.212   3.776
60976W        W28044  13.178   5.388   0.856
60977W        W28045  39.368   8.721   0.318
60978W        W28046  20.539  18.695   4.674
60979W        W28047   3.852  32.045  12.417
60980W        W28048  26.015   4.833  13.514
60981W        W28049  20.070  35.859  11.094
60982W        W28050   0.977  39.433  13.996
60983W        W28051   9.799  43.420   4.655
60984W        W28052  33.969  42.794  10.566
60985W        W28053  39.314   5.277  13.316
60986W        W28054  26.994  11.329   0.822
60987W        W28055  44.342  41.363   2.258
60988W        W28056  26.206  23.607  12.422
60989W        W28057  35.957   5.708   0.780
60990W        W28058  38.502  38.037   4.264
60991W        W28059  15.284   7.293   4.271
60992W        W28060   3.347  34.444  14.803
60993W        W28061  16.187   1.742  10.988
60994W        W28062  29.067  42.379  13.490
60995W        W28063   0.456   1.282  13.969
60996W        W28064  16.150  33.996   2.673
60997W        W28065  10.858   9.669   3.173
60998W        W28066  23.120  38.536   3.160
60999W        W28067  21.513  41.379  13.855
61000W        W28068  20.759   9.670  10.436
61001W        W28069  19.177   3.722  12.438
61002W        W28070  15.083  14.706   1.855
61003W        W28071   9.344  12.661   3.651
61004W        W28072  35.891  33.518   4.640
61005W        W28073  17.713  29.584  11.986
61006W        W28074  43.489   5.775  12.396
61007W        W28075  25.134  42.865  12.844
61008W        W28076  37.356  18.722   4.622
61009W        W28077   7.833   3.407   2.413
61010W        W28078  32.134  13.616   1.286
61011W        W28079   1.469  44.817  12.867
61012W        W28080  23.545  23.674   3.640
61013W        W28081   5.196  18.558   3.317
61014W        W28082   5.687  15.694  14.472
61015W        W28083  28.619   9.680   0.879
61016W        W28084  15.102  40.877   3.177
61017W        W28085   9.225   5.705  13.425
61018W        W28086   6.261   6.760  11.899
61019W        W28087  43.463   4.358   2.215
61020W        W28088  36.054  36.383   4.163
61021W        W28089  42.858   1.848   4.353
61022W        W28090  26.018  31.477   1.445
61023W        W28091   1.302  18.602  12.397
61024W        W28092   9.311   0.812   1.357
61025W        W28093  44.410   6.921   3.293
61026W        W28094  28.100  37.000  11.560
61027W        W28095  37.528  17.639  10.486
61028W        W28096  23.640  26.955   4.782
61029W        W28097  28.929  29.582   3.165
61030W        W28098  15.818   5.845   0.751
61031W        W28099   4.884   2.821   3.705
61032W        W28100  14.239  27.144   3.838
61033W        W28101  12.643  37.419   1.375
61034W        W28102  30.932   3.822  11.917
61035W        W28103  44.341  11.350   4.264
61036W        W28104  31.489  16.101   0.962
61037W        W28105  31.002  32.497   4.711
61038W        W28106  14.252  22.124   3.341
61039W        W28107   8.326   4.229   0.257
61040W        W28108  19.780  13.233   4.261
61041W        W28109   1.751   6.236  11.938
61042W        W28110  38.999  19.637   0.861
61043W        W28111  33.442  14.714  11.389
61044W        W28112  42.864   5.236  13.403
61045W        W28113   5.730   6.276  12.504
61046W        W28114  31.044  18.269  12.374
61047W        W28115  15.790  29.969  11.971
61048W        W28116  15.589  13.655  11.445
61049W        W28117   6.681   2.932   3.640
61050W        W28118   4.936  15.126  13.358
61051W        W28119  40.359  29.536   0.854
61052W        W28120   7.668  36.943   0.897
61053W        W28121  11.245  24.216  11.925
61054W        W28122  37.864  16.117   4.199
61055W        W28123  27.589  34.950   0.310
61056W        W28124  34.471   4.838   0.907
61057W        W28125  15.119  41.454  11.123
61058W        W28126  28.977   8.824  11.460
61059W        W28127  15.200  33.587   2.263
61060W        W28128  11.364   6.724  14.461
61061W        W28129  41.960  33.047   2.243
61062W        W28130   4.915  41.024   4.794
61063W        W28131  13.258  29.492   4.269
61064W        W28132  29.146  24.204  13.900
61065W        W28133  39.027  21.576  11.031
61066W        W28134   1.911  26.700  10.050
61067W        W28135   9.246  19.738   1.694
61068W        W28136   5.781  39.558  14.493
61069W        W28137  14.797  13.661  10.591
61070W        W28138  28.114   4.713   0.913
61071W        W28139  34.523  43.474   0.910
61072W        W28140  27.645   7.721  12.976
61073W        W28141   0.351  31.589  14.467
61074W        W28142  31.063  36.966   1.756
61075W        W28143  23.638  18.064  13.818
61076W        W28144  34.053  30.987  14.843
61077W        W28145  43.015   7.815   2.310
61078W        W28146  41.464   4.411  12.962
61079W        W28147  28.475  25.614  11.611
61080W        W28148   7.830   0.799  12.995
61081W        W28149  10.807  44.388  11.900
61082W        W28150   8.867   6.327  13.996
61083W        W28151  10.331  30.622   3.810
61084W        W28152   5.434  41.528  12.079
61085W        W28153  12.755   1.954  14.300
61086W        W28154  23.679   5.802  11.428
61087W        W28155  29.999  16.608  11.073
61088W        W28156   3.929  12.711  14.031
61089W        W28157  38.371  20.215  12.036
61090W        W28158  19.069  23.629  13.877
61091W        W28159  10.782  28.640  11.077
61092W        W28160  39.843  40.484   0.413
61093W        W28161  23.173   5.847  11.088
61094W        W28162  22.032  18.568   4.219
61095W        W28163   8.851  17.766   3.233
61096W        W28164  34.510  30.441   2.739
61097W        W28165  21.705   5.732  13.515
61098W        W28166  20.524   3.870   3.687
61099W        W28167   7.187   3.859   2.399
61100W        W28168  37.929  13.711  13.020
61101W        W28169  30.505  25.188  12.398
61102W        W28170  37.521  11.129   1.254
61103W        W28171  11.246  28.530   2.384
61104W        W28172  25.683  40.904   0.416
61105W        W28173  40.317   0.884  14.987
61106W        W28174   7.798  36.871  12.007
61107W        W28175  18.062   7.210   4.616
61108W        W28176  38.826   7.225   1.875
61109W        W28177  12.152  31.965  14.440
61110W        W28178  27.126  27.453   3.750
61111W        W28179  31.439  12.320  11.111
61112W        W28180  36.526  10.728   4.239
61113W        W28181  23.499  24.635   0.897
61114W        W28182  13.609  28.678   2.776
61115W        W28183   7.214  10.314  10.967
61116W        W28184  35.554  33.874  11.928
61117W        W28185  44.431  38.456  10.116
61118W        W28186   3.840  21.124  11.607
61119W        W28187  12.668  34.884  12.516
61120W        W28188  10.760   5.759  12.828
61121W        W28189  43.801   6.190   3.868
61122W        W28190  38.408  44.777   1.355
61123W        W28191  26.641  44.929   3.384
61124W        W28192  13.644  20.249  12.832
61125W        W28193  25.978   8.328  10.638
61126W        W28194  17.702   1.796   2.283
61127W        W28195  27.958  44.334   4.158
61128W        W28196  37.945  15.696   2.248
61129W        W28197  12.137   8.830   3.323
61130W        W28198  42.922   6.724   1.227
61131W        W28199  35.376  36.926   2.257
61132W        W28200   0.784  30.124  14.793
61133W        W28201   7.335  39.997   4.836
61134W        W28202  23.589  31.497  10.567
61135W        W28203   6.306  43.021  13.021
61136W        W28204  30.546  13.106  13.467
61137W        W28205  42.856  37.872   0.348
61138W        W28206   5.804  15.677   2.299
61139W        W28207  40.906  27.153   0.945
61140W        W28208  11.343  36.989   3.637
61141W        W28209  39.976  19.269   0.435
61142W        W28210  22.037  23.652   3.183
61143W        W28211  22.710   4.331  14.410
61144W        W28212   2.422  14.247   2.278
61145W        W28213  35.029  44.303  11.074
61146W        W28214  10.281  20.088  14.919
61147W        W28215  39.474  21.162   2.818
61148W        W28216  35.578  38.345  10.417
61149W        W28217  42.412  19.660   5.109
61150W        W28218  21.206  29.961   4.798
61151W        W28219  38.914  20.591   0.846
61152W        W28220  42.803   0.320  11.489
61153W        W28221  43.894  43.921   4.748
61154W        W28222  13.285  14.607  13.039
61155W        W28223  40.025  10.369  13.929
61156W        W28224  15.721  40.390  10.466
61157W        W28225  43.291  21.070  12.366
61158W        W28226   4.841   2.830  14.940
61159W        W28227  19.264   8.218  10.901
61160W        W28228  41.898  43.934   1.862
61161W        W28229  22.588  35.581   0.329
61162W        W28230  44.473  26.662  13.420
61163W        W28231  28.491   5.726  12.928
61164W        W28232  11.216  24.574  10.601
61165W        W28233   7.740  41.489  10.978
61166W        W28234  37.458   4.300  14.859
61167W        W28235  27.995  21.617   0.358
61168W        W28236  36.370  16.098   1.715
61169W        W28237  10.738  30.436  13.460
61170W        W28238  31.129   4.262  14.764
61171W        W28239   4.716  24.134  14.427
61172W        W28240   4.934  26.531  10.062
61173W        W28241  39.022   4.312  12.973
61174W        W28242  41.015  26.130  12.544
61175W        W28243  28.647  42.341  11.092
61176W        W28244   7.825   9.773  11.955
61177W        W28245  39.841   7.800  13.938
61178W        W28246  13.178  44.359  14.760
61179W        W28247  40.888  37.441  13.821
61180W        W28248  38.964  31.061   1.797
61181W        W28249   0.430   9.322   2.701
61182W        W28250  21.108  38.382  10.112
61183W        W28251   0.429  39.538   4.144
61184W        W28252  31.999  15.681  13.377
61185W        W28253  25.055  44.831  13.976
61186W        W28254  33.886  27.044   1.264
61187W        W28255  40.824  38.483   3.861
61188W        W28256  12.340  37.505  11.103
61189W        W28257   2.832  44.757   3.669
61190W        W28258  12.118  18.095  13.404
61191W        W28259  35.361  17.268   4.796
61192W        W28260  36.431  30.486   2.320
61193W        W28261  26.456  42.852   2.409
61194W        W28262  35.009  24.522  11.535
61195W        W28263  15.777  29.437   0.941
61196W        W28264  29.978  20.552   4.652
61197W        W28265  38.974  21.162  14.785
61198W        W28266  30.465   4.777   0.893
61199W        W28267  10.830  32.500   4.615
61200W        W28268  42.798  39.061   2.821
61201W        W28269  30.063  25.602  11.608
61202W        W28270   0.747  21.176  14.872
61203W        W28271  11.753  39.498  11.578
61204W        W28272  12.328  31.454  12.859
61205W        W28273  20.652   8.888  13.984
61206W        W28274  17.069  29.080   1.415
61207W        W28275  11.359  18.613   3.157
61208W        W28276  23.591  20.252   1.233
61209W        W28277  28.603  39.931  13.864
61210W        W28278  28.446  44.362  14.409
61211W        W28279  18.066   1.426   2.736
61212W        W28280  11.243  24.517   3.734
61213W        W28281   2.800   6.732   1.264
61214W        W28282  41.317  43.883  10.927
61215W        W28283  34.402  31.073  11.861
61216W        W28284   5.912  43.792  10.529
61217W        W28285   0.420  41.878  13.345
61218W        W28286  37.890  15.314   1.261
61219W        W28287  26.513   9.847   3.161
61220W        W28288  19.130  13.764  14.798
61221W        W28289  31.514  24.178   4.193
61222W        W28290   1.458   2.932   1.398
61223W        W28291   0.823   0.989   9.980
61224W        W28292  25.201  39.363   0.386
61225W        W28293  35.912  27.478   1.857
61226W        W28294  29.010  29.580  14.996
61227W        W28295  43.358  44.846   1.899
61228W        W28296   7.814   1.745  11.099
61229W        W28297   8.358  21.596  10.500
61230W        W28298   0.272  23.634  14.779
61231W        W28299  21.655  16.239   3.692
61232W        W28300  15.577  44.293   1.904
61233W        W28301  44.010  17.246  14.954
61234W        W28302  10.867  44.294  14.951
61235W        W28303  14.188   5.839  11.925
61236W        W28304  20.261  27.144   1.287
61237W        W28305  26.493  14.802  11.587
61238W        W28306  35.991  14.109  12.536
61239W        W28307  13.667  14.126  12.045
61240W        W28308  43.376  19.755   3.715
61241W        W28309  36.985  14.638   1.738
61242W        W28310  38.959   2.301  12.011
61243W        W28311  35.391   1.397  10.470
61244W        W28312  23.563  31.929  12.995
61245W        W28313  33.051  43.952  11.075
61246W        W28314  18.255  22.674  14.395
61247W        W28315  38.959  33.112   3.201
61248W        W28316  41.341  27.453   1.286
61249W        W28317  44.457  11.152  13.888
61250W        W28318  21.723   9.332   4.733
61251W        W28319  44.765  35.855   4.143
61252W        W28320  24.104  16.806   0.277
61253W        W28321   4.888  43.007   0.351
61254W        W28322  13.831   9.708  13.533
61255W        W28323  32.598  39.817  13.410
61256W        W28324  14.215  36.032   2.810
61257W        W28325  37.570   6.830  13.400
61258W        W28326  30.596   8.726  12.373
61259W        W28327  20.557  32.057  10.596
61260W        W28328  33.088  20.071  13.368
61261W        W28329  16.255   3.435   1.927
61262W        W28330  41.357  32.058   0.343
61263W        W28331   6.330   0.393  11.586
61264W        W28332   9.351  36.499   1.327
61265W        W28333  42.333  33.586   9.922
61266W        W28334  40.012  27.460   4.605
61267W        W28335  15.637  14.287  13.522
61268W        W28336   6.810  30.655   1.767
61269W        W28337  24.715  17.102  12.078
61270W        W28338  21.210  21.100   2.333
61271W        W28339  40.547  26.585   3.665
61272W        W28340  31.002  22.020  14.976
61273W        W28341   5.792  10.362   0.313
61274W        W28342  26.147   2.307   0.463
61275W        W28343   7.811  17.617  14.413
61276W        W28344  37.840  20.107  11.516
61277W        W28345  31.115  43.986   4.307
61278W        W28346   3.446  26.995   2.681
61279W        W28347  16.104   6.391  11.427
61280W        W28348  44.976   3.269   2.411
61281W        W28349  24.051  32.508   4.703
61282W        W28350  16.245  43.457  10.566
61283W        W28351  31.939  31.027  12.388
61284W        W28352  35.554  18.184  13.923
61285W        W28353   6.859  34.120   4.816
61286W        W28354  18.159  35.557  14.783
61287W        W28355   5.848   6.312   0.814
61288W        W28356   2.336   7.881   1.860
61289W        W28357  10.814  24.623  14.373
61290W        W28358  14.231  31.493  11.127
61291W        W28359  27.130  11.662   4.607
61292W        W28360   3.855  19.586  14.303
61293W        W28361  43.332  33.062  13.941
61294W        W28362  29.661  21.260   3.795
61295W        W28363  35.953  21.252  10.459
61296W        W28364  17.116  26.587   4.690
61297W        W28365  41.405  23.589   1.376
61298W        W28366  34.480  23.182  11.405
61299W        W28367  13.211  12.623   4.253
61300W        W28368  39.532  24.521   2.697
61301W        W28369  27.992  28.112   1.217
61302W        W28370  15.800  13.647   0.416
61303W        W28371  22.218  43.488  10.535
61304W        W28372  16.158  23.082  13.847
61305W        W28373   4.306  19.760  10.582
61306W        W28374  22.508  14.166  11.398
61307W        W28375  29.956  39.383  13.401
61308W        W28376  17.260  26.063   4.838
61309W        W28377  38.952  13.637   0.817
61310W        W28378   3.834  29.089  11.020
61311W        W28379  16.775  41.414   2.229
61312W        W28380  44.494  38.887  13.803
61313W        W28381  10.357  36.879   3.336
61314W        W28382  32.102  24.079   3.236
61315W        W28383  11.173   2.764   0.331
61316W        W28384  18.642  38.369  13.912
61317W        W28385  39.881  29.093  11.565
61318W        W28386   2.372  27.942  13.370
61319W        W28387  36.073  16.631  13.967
61320W        W28388  18.647  15.168   4.248
61321W        W28389  28.074  35.957   4.728
61322W        W28390  39.429  30.496   1.827
61323W        W28391  31.954  23.177   4.179
61324W        W28392   2.237  26.631   9.959
61325W        W28393  17.275  21.639  12.413
61326W        W28394  30.915  26.016  11.386
61327W        W28395   8.763  16.288  12.348
61328W        W28396  39.337  21.740   1.412
61329W        W28397   0.251  29.119   0.768
61330W        W28398  21.653   2.737   2.406
61331W        W28399  38.545  10.647   3.730
61332W        W28400  25.590   3.775  12.578
61333W        W28401  18.266  43.850   4.177
61334W        W28402   1.862   5.217  14.818
61335W        W28403  17.613  32.472  13.540
61336W        W28404  42.480  36.081  13.530
61337W        W28405  37.460   6.226  13.467
61338W        W28406  37.960  16.114  11.936
61339W        W28407   0.353  27.620   4.738
61340W        W28408  37.930  44.774  12.994
61341W        W28409  36.536  42.878  11.916
61342W        W28410   6.771  39.986  12.424
61343W        W28411   7.782   3.751   4.804
61344W        W28412  35.358  42.875  11.074
61345W        W28413   9.772   2.257  14.793
61346W        W28414  16.148  36.974   4.812
61347W        W28415   5.773  17.635   1.274
61348W        W28416  22.616  21.651  14.403
61349W        W28417  26.533   7.767  14.876
61350W        W28418  15.151   9.695  12.416
61351W        W28419   6.427  44.978  11.373
61352W        W28420   4.379  14.124   1.729
61353W        W28421  10.715   3.754  13.534
61354W        W28422  21.077   5.199   0.816
61355W        W28423  26.161  20.114  14.913
61356W        W28424  10.712  17.090   3.871
61357W        W28425  23.216   0.436   0.351
61358W        W28426  23.073   0.455  13.805
61359W        W28427  44.936  15.234   2.331
61360W        W28428  31.055  21.602   0.868
61361W        W28429  11.192  25.524   1.764
61362W        W28430  41.914  11.858  13.438
61363W        W28431  27.999  23.024  11.883
61364W        W28432   3.254  42.967  13.314
61365W        W28433  41.338  16.167  14.350
61366W        W28434  27.972   5.215   1.276
61367W        W28435  44.813   5.770  10.984
61368W        W28436  22.159  17.671   4.167
61369W        W28437   5.262  37.360   4.813
61370W        W28438  42.030   6.762   0.462
61371W        W28439  38.983  32.466   0.879
61372W        W28440  37.019  16.310   0.470
61373W        W28441  22.546  17.706   2.662
61374W        W28442  34.410  24.634   4.616
61375W        W28443   4.913  35.440   2.412
61376W        W28444   0.862  28.664  14.288
61377W        W28445   2.771  11.195  11.090
61378W        W28446   2.748  10.232  13.022
61379W        W28447  42.993   9.849  10.497
61380W        W28448   4.754  14.821  13.525
61381W        W28449  20.598  30.950   0.789
61382W        W28450   7.872  38.999  10.937
61383W        W28451  41.937  34.875   1.219
61384W        W28452  18.710  32.474  11.487
61385W        W28453  17.661  24.134   3.809
61386W        W28454   0.277  12.145   3.667
61387W        W28455   9.793   0.742  10.005
61388W        W28456  43.770  35.024   1.299
61389W        W28457   0.896  31.005   3.285
61390W        W28458   1.793  23.031   4.716
61391W        W28459  24.012  24.051  13.356
61392W        W28460  24.485  28.451  14.000
61393W        W28461  36.848  43.431   1.356
61394W        W28462  24.033  10.718   1.768
61395W        W28463  43.845  42.971   0.760
61396W        W28464  30.056  21.643  12.453
61397W        W28465  33.478   5.233  11.411
61398W        W28466  21.754  33.498  11.934
61399W        W28467  24.169  11.808  10.601
61400W        W28468  24.648  18.287  12.429
61401W        W28469  11.866  28.493   2.769
61402W        W28470  14.655   1.830  11.037
61403W        W28471  22.154  17.610   3.332
61404W        W28472  32.984  43.493  11.129
61405W        W28473  11.254  19.733   4.653
61406W        W28474  42.315   9.859   3.805
61407W        W28475  40.044   1.924  11.055
61408W        W28476  35.532  12.335  14.855
61409W        W28477  26.636  40.443  13.472
61410W        W28478   9.338   3.244   1.288
61411W        W28479  12.703   9.356  14.378
61412W        W28480  18.256  35.507   0.814
61413W        W28481   7.755  28.476   4.666
61414W        W28482  15.772   8.355   0.312
61415W        W28483   5.421  37.949   0.456
61416W        W28484  36.378  13.833   3.365
61417W        W28485  37.005  10.200  12.075
61418W        W28486  32.553  12.209   1.755
61419W        W28487  24.056  25.548  11.582
61420W        W28488   6.920  14.654  11.994
61421W        W28489  40.898  17.136  12.065
61422W        W28490  12.709  35.071  11.940
61423W        W28491  19.586  19.765  12.410
61424W        W28492  44.498  36.558  11.088
61425W        W28493  37.035  23.587  10.954
61426W        W28494   7.266  17.225   1.242
61427W        W28495  36.928  25.622  11.497
61428W        W28496  19.654  16.596  14.016
61429W        W28497  40.348  38.825   1.271
61430W        W28498  10.694  11.663   1.266
61431W        W28499  40.986  37.073  14.334
61432W        W28500  20.188  11.332  13.474
61433W        W28501  27.677  37.991  13.946
61434W        W28502   3.817  39.027   0.893
61435W        W28503  36.030   3.894   0.874
61436W        W28504   1.843  43.364   2.691
61437W        W28505  21.152  43.786   1.853
61438W        W28506  24.558   6.788   1.436
61439W        W28507   8.751   0.269  10.145
61440W        W28508   1.812  44.972   3.190
61441W        W28509  41.933  34.002  10.479
61442W        W28510   4.748  33.402   1.322
61443W        W28511  14.719  13.209   0.789
61444W        W28512  34.391   3.439   3.239
61445W        W28513  31.101  42.347   3.159
61446W        W28514  33.611  30.944   0.273
61447W        W28515   0.315  33.946  12.845
61448W        W28516  24.542  22.086   3.213
61449W        W28517  10.296  34.888  12.072
61450W        W28518  14.715  13.758   0.965
61451W        W28519  36.972  35.023   3.650
61452W        W28520  28.541  15.312  14.361
61453W        W28521  17.677   4.710   4.349
61454W        W28522  42.927  42.318  11.599
61455W        W28523  39.008  14.758  12.364
61456W        W28524  44.823   7.172  11.859
61457W        W28525   5.352  34.402  13.429
61458W        W28526  34.565   4.774  11.474
61459W        W28527  28.560  15.608  10.909
61460W        W28528  33.046  24.545   0.265
61461W        W28529   2.837   4.756   1.886
61462W        W28530   4.922  20.266   2.224
61463W        W28531  21.049  12.718  11.878
61464W        W28532   3.919   1.327  13.970
61465W        W28533  18.158   1.418   4.615
61466W        W28534  32.078  35.567   2.882
61467W        W28535  39.815  24.683  14.362
61468W        W28536  33.020  35.852  12.553
61469W        W28537  22.531  28.598   3.267
61470W        W28538  44.861   0.939   0.408
61471W        W28539  22.715  14.314  13.372
61472W        W28540  24.995  37.509   0.332
61473W        W28541  23.988  24.617  13.842
61474W        W28542  11.621  44.308  11.402
61475W        W28543  32.958  25.512   0.360
61476W        W28544  40.016  22.166  10.990
61477W        W28545   1.408   1.744   1.431
61478W        W28546  28.132  22.620   5.084
61479W        W28547  33.512  25.603  13.057
61480W        W28548   6.210   9.329   2.663
61481W        W28549  19.147  28.088   2.773
61482W        W28550  29.965   4.844   4.645
61483W        W28551   4.364  41.531   3.762
61484W        W28552  27.455  42.958  14.984
61485W        W28553   2.810  23.198   1.779
61486W        W28554  39.958  32.055   4.787
61487W        W28555  19.727  42.375  11.119
61488W        W28556  31.610  39.425   0.954
61489W        W28557  32.636  27.180   3.672
61490W        W28558  13.615  37.923  12.938
61491W        W28559   8.258  37.903  13.521
61492W        W28560  23.501   9.315   4.289
61493W        W28561  28.077  33.397  14.787
61494W        W28562   6.237  13.674  12.847
61495W        W28563  18.772  27.959   2.750
61496W        W28564  11.277   0.299  13.915
61497W        W28565  32.634  43.822   1.811
61498W        W28566  30.491   7.807  13.352
61499W        W28567  23.578  28.078   4.236
61500W        W28568  30.594  18.274  11.001
61501W        W28569   2.877   4.801  10.969
61502W        W28570  19.073   0.788   3.682
61503W        W28571  11.679  29.950   1.832
61504W        W28572   1.951  19.705   4.655
61505W        W28573  10.671  18.692  13.986
61506W        W28574  43.426  37.836   2.680
61507W        W28575   9.191   8.864  14.309
61508W        W28576  32.926  35.059   3.220
61509W        W28577   5.711  23.613  12.376
61510W        W28578  10.279  24.648  11.923
61511W        W28579   1.475   0.806  12.543
61512W        W28580  35.467   3.920  10.543
61513W        W28581  20.166  38.044   4.741
61514W        W28582  38.045  25.478  13.886
61515W        W28583  43.399   3.769  14.937
61516W        W28584   7.683  43.376  13.016
61517W        W28585  32.598  37.932  10.566
61518W        W28586  13.119   1.337   3.175
61519W        W28587   5.714  17.776   0.774
61520W        W28588  35.437  38.065   3.680
61521W        W28589  19.169   6.767   4.296
61522W        W28590  10.692  26.555   5.088
61523W        W28591  32.916   4.370   0.887
61524W        W28592  38.974  40.376   4.771
61525W        W28593  28.183  43.429  14.924
61526W        W28594  39.476  36.886   4.156
61527W        W28595   0.316  35.886   2.363
61528W        W28596  35.603  29.570  12.902
61529W        W28597  26.657   0.808   4.267
61530W        W28598  30.141   6.769   1.716
61531W        W28599  36.841   6.829   1.743
61532W        W28600  37.505  18.071   4.310
61533W        W28601  23.231  11.311  11.874
61534W        W28602   5.214  14.597   3.237
61535W        W28603  26.681   9.709   4.619
61536W        W28604  25.585  18.629   3.787
61537W        W28605  42.374  18.053  11.498
61538W        W28606  39.459  37.421   1.267
61539W        W28607  14.263  34.092   3.187
61540W        W28608  12.785   1.406   3.783
61541W        W28609  32.960  36.866  10.971
61542W        W28610   0.914  20.045   0.757
61543W        W28611  43.300  37.577  11.412
61544W        W28612   1.868  11.242  13.991
61545W        W28613   8.717   7.223  10.614
61546W        W28614  31.413   1.357   0.423
61547W        W28615  18.151   7.324   2.308
61548W        W28616  37.870  20.613   2.831
61549W        W28617  11.230  15.714   4.350
61550W        W28618  12.622   9.868   3.349
61551W        W28619  14.730  30.139   0.408
61552W        W28620  21.755  27.972  14.974
61553W        W28621  20.710  20.250   0.255
61554W        W28622  16.655  40.003   0.852
61555W        W28623  14.317  37.554   0.459
61556W        W28624   6.320  19.709  11.376
61557W        W28625  20.159  30.064   0.285
61558W        W28626   4.220   5.249   2.362
61559W        W28627  21.722   4.821   0.349
61560W        W28628  22.715  13.622  13.848
61561W        W28629  36.886  10.364   4.223
61562W        W28630  10.808  23.604   0.311
61563W        W28631  19.617  31.565  14.934
61564W        W28632   0.485   2.394   1.338
61565W        W28633  12.190  19.611  10.613
61566W        W28634   2.420  11.361   2.708
61567W        W28635  17.725   9.775  12.921
61568W        W28636  15.713   3.409  14.287
61569W        W28637  31.506   0.841   3.777
61570W        W28638  24.078  44.294   2.757
61571W        W28639  13.681  20.577  12.911
61572W        W28640  10.762  17.618   3.194
61573W        W28641  42.388  29.060   2.364
61574W        W28642   9.208  41.335   2.218
61575W        W28643  28.953  35.885   4.145
61576W        W28644  14.819  35.930   1.859
61577W        W28645  15.200  37.953   4.601
61578W        W28646   4.780  43.356  13.368
61579W        W28647  32.908  24.667  13.393
61580W        W28648  21.262  19.180   2.214
61581W        W28649  42.909  35.088   0.942
61582W        W28650   5.334  22.713  13.798
61583W        W28651  38.039  17.105   2.668
61584W        W28652  33.115  20.565   0.261
61585W        W28653   8.849  25.481  10.457
61586W        W28654  39.855  34.552  12.003
61587W        W28655  14.801  44.876   2.675
61588W        W28656  23.066  11.722  11.491
61589W        W28657  38.033  20.260  12.978
61590W        W28658  32.040   3.449  12.439
61591W        W28659  35.988   1.854  12.472
61592W        W28660  42.821  42.956  13.799
61593W        W28661  43.299  18.051   2.209
61594W        W28662  15.130   7.751  13.034
61595W        W28663  15.755  19.112  12.506
61596W        W28664  34.469  13.349   1.794
61597W        W28665  24.701  25.055   0.482
61598W        W28666   3.802  10.249  10.456
61599W        W28667  33.433  25.560   0.786
61600W        W28668  31.051  36.505  12.869
61601W        W28669  30.928  19.189  10.460
61602W        W28670  38.465  43.514   4.836
61603W        W28671  16.168  17.660   0.797
61604W        W28672  25.051  35.911   0.432
61605W        W28673   3.788  36.010   0.805
61606W        W28674  15.655  33.587   4.115
61607W        W28675  40.480  32.453  10.574
61608W        W28676  11.641   5.798  10.486
61609W        W28677  19.181  44.914   3.845
61610W        W28678  40.859  24.650   0.413
61611W        W28679  40.838  25.162   4.148
61612W        W28680  18.053  12.857   2.810
61613W        W28681  18.545   5.303  14.441
61614W        W28682  15.327  35.505  12.013
61615W        W28683  44.291   1.248   2.844
61616W        W28684  39.813   8.226   4.612
61617W        W28685   7.242  24.591  11.073
61618W        W28686  25.534  26.018   0.806
61619W        W28687  16.151  28.175   3.716
61620W        W28688  18.139  41.989   2.769
61621W        W28689   6.278  43.834   1.857
61622W        W28690   5.226  39.474   4.735
61623W        W28691   5.249  19.077   3.656
61624W        W28692  14.671  38.859  14.900
61625W        W28693  30.592  17.738   1.288
61626W        W28694  30.639  15.747   1.447
61627W        W28695  40.821   6.862   1.439
61628W        W28696   8.166  20.198   5.230
61629W        W28697  36.068  14.280  12.908
61630W        W28698  33.428   1.739   2.215
61631W        W28699  42.306  19.156   1.329
61632W        W28700  30.638  20.536   4.723
61633W        W28701  41.306   1.313   3.859
61634W        W28702  33.396  33.907  14.303
61635W        W28703  10.772  41.983  14.958
61636W        W28704   6.797  28.631  12.499
61637W        W28705  25.628  43.835  13.052
61638W        W28706   9.203  42.824   4.270
61639W        W28707  28.068  25.500   2.869
61640W        W28708  42.386  13.836  14.280
61641W        W28709  22.047  37.063   2.767
61642W        W28710   1.261  28.674   0.914
61643W        W28711   9.846  42.369   0.400
61644W        W28712  10.277  18.214  11.519
61645W        W28713  38.032   8.733  11.376
61646W        W28714  23.627   6.365  14.438
61647W        W28715   7.232   9.212  13.444
61648W        W28716  11.816  33.441  11.381
61649W        W28717  35.523  18.556  13.511
61650W        W28718  22.594   3.421   4.658
61651W        W28719  22.656   2.353  11.613
61652W        W28720  36.878  13.301  10.530
61653W        W28721  27.547  20.123   2.838
61654W        W28722  44.858  17.216  11.391
61655W        W28723   4.858  19.262  10.522
61656W        W28724  27.160   4.744  10.414
61657W        W28725  10.869  31.451   0.799
61658W        W28726  21.250  35.033   3.240
61659W        W28727   0.822  43.316  14.853
61660W        W28728  15.291  18.175   3.380
61661W        W28729  21.522  27.534   2.226
61662W        W28730  32.098  31.017  10.972
61663W        W28731  29.144   3.726   4.250
61664W        W28732   4.770   2.378  12.503
61665W        W28733  30.157  15.708   5.620
61666W        W28734  25.561  43.806   1.854
61667W        W28735  21.744  35.978  12.492
61668W        W28736  25.655   6.908  14.854
61669W        W28737  11.347  10.254   4.154
61670W        W28738  16.645  32.910  11.428
61671W        W28739  11.741  42.289  13.342
61672W        W28740  17.561  37.530  14.352
61673W        W28741  13.324  20.551  14.942
61674W        W28742   2.339  41.374   1.723
61675W        W28743   5.817  23.637  13.503
61676W        W28744  15.208  32.059  11.469
61677W        W28745   3.243  13.276   5.279
61678W        W28746  29.633   1.314   0.813
61679W        W28747  30.438  42.906   2.751
61680W        W28748   9.722   1.897  11.508
61681W        W28749   0.264   8.382   0.807
61682W        W28750   4.755  26.466   0.419
61683W        W28751  44.809  22.053  13.932
61684W        W28752   7.360  18.707  12.882
61685W        W28753  15.167  40.417   4.698
61686W        W28754  19.668   7.270  11.463
61687W        W28755  13.774  40.932  11.091
61688W        W28756  27.194  14.151   0.309
61689W        W28757  16.668   0.453   2.344
61690W        W28758  22.720  16.769  10.044
61691W        W28759  18.626  22.714  13.817
61692W        W28760  44.997  26.632  12.047
61693W        W28761  35.542   5.851  10.536
61694W        W28762  18.291  12.304   2.279
61695W        W28763  17.693  12.300   2.352
61696W        W28764  35.936  29.458   2.202
61697W        W28765  27.634  16.296  12.398
61698W        W28766  17.091  32.013   2.374
61699W        W28767  26.659  43.373  13.868
61700W        W28768   3.241  18.646   3.821
61701W        W28769  38.856   6.805  13.404
61702W        W28770  18.569  34.469  14.301
61703W        W28771  40.467  23.708  11.407
61704W        W28772  29.495  29.004   4.818
61705W        W28773  29.969  25.135  11.453
61706W        W28774  21.201  23.563   9.972
61707W        W28775  25.564   5.833   3.663
61708W        W28776  30.520   9.786  10.600
61709W        W28777   4.935  39.945  12.832
61710W        W28778   7.404  14.832  12.550
61711W        W28779  10.861  37.363   0.399
61712W        W28780  18.058   1.866   2.346
61713W        W28781  23.195  43.500  14.465
61714W        W28782   1.755  24.046  13.326
61715W        W28783  44.862  25.636   0.396
61716W        W28784   3.754  41.029  11.115
61717W        W28785  27.009  40.470  13.880
61718W        W28786   5.736  31.017  14.019
61719W        W28787  30.421  31.540   3.371
61720W        W28788  20.569  20.101   4.818
61721W        W28789  34.016  32.636  10.608
61722W        W28790   7.326  38.367   4.627
61723W        W28791  14.158  17.273  14.768
61724W        W28792  13.179   0.922   3.266
61725W        W28793  15.234  41.313   2.882
61726W        W28794  11.229   3.850   2.260
61727W        W28795  11.710  32.040   1.854
61728W        W28796  41.986  18.232  11.013
61729W        W28797  15.809  16.584   2.742
61730W        W28798  11.169  20.171   3.147
61731W        W28799   6.256  28.080   2.212
61732W        W28800  36.452  18.249  12.886
61733W        W28801  10.760   3.260   0.359
61734W        W28802  35.943   0.309  10.458
61735W        W28803  14.275  21.183   1.858
61736W        W28804  39.514  24.672   1.352
61737W        W28805  42.932   6.785   0.839
61738W        W28806  43.810  40.981   4.807
61739W        W28807  25.654  27.470   3.780
61740W        W28808  35.599  25.007  11.375
61741W        W28809  25.513  25.586   1.897
61742W        W28810   0.917  12.270  13.919
61743W        W28811  39.843  14.778  13.831
61744W        W28812  34.988  30.501   5.261
61745W        W28813   9.813   6.383   2.245
61746W        W28814  10.274  26.975  11.453
61747W        W28815   2.270  35.374  14.793
61748W        W28816  32.419  13.661   4.216
61749W        W28817  15.269   6.261   4.231
61750W        W28818   6.419   1.929  11.996
61751W        W28819   5.392  20.178  11.388
61752W        W28820  14.717  20.041  14.301
61753W        W28821  28.589   7.896   0.887
61754W        W28822   7.822  38.982   2.692
61755W        W28823  14.741  31.033  12.572
61756W        W28824  44.940   6.424   0.917
61757W        W28825  33.502   0.328   1.449
61758W        W28826   0.342   4.417  13.432
61759W        W28827  11.197   4.880   2.793
61760W        W28828  23.018   9.730   0.327
61761W        W28829   9.678  33.484  10.640
61762W        W28830  30.062   4.335  14.862
61763W        W28831  16.673  44.292  12.447
61764W        W28832  35.383  10.766  10.482
61765W        W28833  23.200  31.060  13.989
61766W        W28834  15.674  37.345   3.802
61767W        W28835  37.899  36.527  13.011
61768W        W28836  28.478  37.908  12.966
61769W        W28837   1.307  39.973  13.486
61770W        W28838  33.449  18.620  10.996
61771W        W28839  10.293  34.453  11.533
61772W        W28840   0.805  15.819  14.499
61773W        W28841  30.556  31.055   1.449
61774W        W28842   1.317  22.597   3.697
61775W        W28843  12.310  24.003  11.111
61776W        W28844  13.325   9.723  11.557
61777W        W28845  27.607   8.242   3.321
61778W        W28846  23.493  42.417   0.266
61779W        W28847  35.572  34.487   3.193
61780W        W28848  40.438  20.635  10.513
61781W        W28849  33.403  31.923  13.921
61782W        W28850  21.618  44.975  14.929
61783W        W28851  21.205  44.754   1.793
61784W        W28852  43.471  27.474   1.265
61785W        W28853  21.251  22.241  13.463
61786W        W28854  43.805   2.906  11.892
61787W        W28855  18.564  37.434   4.307
61788W        W28856  16.588  29.475   4.239
61789W        W28857  24.976  27.150   1.393
61790W        W28858   2.816  21.702   3.705
61791W        W28859  36.516  29.017   0.261
61792W        W28860  12.661  16.599  14.830
61793W        W28861  19.210  31.439   4.169
61794W        W28862   4.233   7.688   0.808
61795W        W28863  20.248  20.689   1.743
61796W        W28864  37.930  34.490  12.497
61797W        W28865  26.171  36.400  10.967
61798W        W28866  33.971  43.347   1.833
61799W        W28867  37.007  34.390  14.841
61800W        W28868  13.274  31.086   2.736
61801W        W28869  36.897  31.436   4.349
61802W        W28870  28.039  24.187  11.899
61803W        W28871  31.570  15.203  12.071
61804W        W28872  31.626  24.631   2.223
61805W        W28873  19.096  15.787  12.077
61806W        W28874  11.216  29.016  10.596
61807W        W28875  32.414   6.897  12.085
61808W        W28876  26.980  18.236   1.354
61809W        W28877   9.852  25.492   2.268
61810W        W28878   6.754  16.574   2.366
61811W        W28879  21.137  43.826   1.326
61812W        W28880  31.596  13.248   2.871
61813W        W28881   1.779  10.648  10.473
61814W        W28882  15.222  30.508   5.247
61815W        W28883   1.745   4.930   4.182
61816W        W28884   2.914  10.729   0.364
61817W        W28885  21.692   7.371   3.699
61818W        W28886  32.139  29.470   4.797
61819W        W28887  44.330  30.427  12.382
61820W        W28888  31.057  32.575  12.011
61821W        W28889   5.896  17.212  11.425
61822W        W28890  10.213   4.703   3.725
61823W        W28891   8.820   6.721  10.476
61824W        W28892  20.544  24.515  14.807
61825W        W28893   4.406   1.760  10.463
61826W        W28894  33.042   3.842   0.780
61827W        W28895  38.956  44.783   5.182
61828W        W28896  40.860   0.450   1.882
61829W        W28897  44.332  15.124   2.755
61830W        W28898  17.742  37.059   3.701
61831W        W28899  44.277  16.086   0.405
61832W        W28900  30.545  25.204   0.469
61833W        W28901  44.840  21.665  10.968
61834W        W28902   1.278  23.145   2.233
61835W        W28903  22.535  23.668  13.997
61836W        W28904  44.976  44.484  11.936
61837W        W28905  14.197  31.014  12.064
61838W        W28906  14.247  40.806   0.870
61839W        W28907  33.981  40.949  13.362
61840W        W28908  27.688  31.591   4.671
61841W        W28909  29.029   6.708   0.763
61842W        W28910  36.397  30.157   1.717
61843W        W28911  36.046  14.136  10.531
61844W        W28912   2.423  29.175   4.259
61845W        W28913   9.848   0.932  11.575
61846W        W28914   4.870   0.400   1.335
61847W        W28915   7.747  20.546  14.400
61848W        W28916   5.714   4.755  12.346
61849W        W28917   2.817  41.502   0.325
61850W        W28918   7.689  10.825   0.850
61851W        W28919  27.157  42.891   4.787
61852W        W28920  36.061  33.468  12.405
61853W        W28921   3.305  15.271   4.295
61854W        W28922   3.356  10.172   2.890
61855W        W28923  30.611   0.808   4.119
61856W        W28924   4.919  19.240  13.529
61857W        W28925  24.063  37.830   4.819
61858W        W28926  42.290  10.250   1.229
61859W        W28927  31.081   9.260   0.346
61860W        W28928  17.652  12.633  12.497
61861W        W28929  44.896  31.917  13.320
61862W        W28930  26.201  44.778   0.911
61863W        W28931   7.320  11.761  14.871
61864W        W28932  42.290  42.938   3.378
61865W        W28933  33.395  36.545   4.674
61866W        W28934  10.315  27.092   2.741
61867W        W28935  42.929  34.050  13.902
61868W        W28936  12.640  42.390  11.593
61869W        W28937   9.235  36.474   1.827
61870W        W28938  28.029   6.833  11.505
61871W        W28939  36.524  14.700   4.113
61872W        W28940  34.565  20.715   3.783
61873W        W28941  12.343  29.035  13.987
61874W        W28942   0.751  41.340   0.338
61875W        W28943  11.849  20.133   4.309
61876W        W28944  31.519   8.740  13.815
61877W        W28945  11.664  13.244   2.273
61878W        W28946  23.167  35.377  14.004
61879W        W28947  39.441  21.196   0.294
61880W        W28948  38.002   4.282   0.428
61881W        W28949   1.830   5.736  14.330
61882W        W28950   9.832  15.628  13.850
61883W        W28951   5.244   7.873  14.944
61884W        W28952  30.030  12.692   9.517
61885W        W28953   9.656  40.957   3.322
61886W        W28954  34.486  32.982  13.845
61887W        W28955  31.962  21.529  11.379
61888W        W28956  11.814  24.545   3.649
61889W        W28957   8.403   3.842  13.994
61890W        W28958  27.185   6.373  11.390
61891W        W28959   9.350  40.902   0.794
61892W        W28960  40.437   1.261   2.804
61893W        W28961  11.633  34.911  11.567
61894W        W28962  27.165  34.542   1.247
61895W        W28963  11.786  11.754   4.304
61896W        W28964  12.162  44.332  14.466
61897W        W28965  36.954  15.752  13.936
61898W        W28966  26.672  29.146  12.421
61899W        W28967  39.320  14.300  10.457
61900W        W28968  42.315  44.964  13.327
61901W        W28969  19.115   7.836   1.719
61902W        W28970  19.540   9.195  12.073
61903W        W28971  36.589  24.050  13.842
61904W        W28972  31.646  39.453   1.908
61905W        W28973  33.954  23.194   4.137
61906W        W28974  42.793   8.839   2.875
61907W        W28975  13.246  30.139  13.015
61908W        W28976   6.361  26.984  12.481
61909W        W28977  25.152  12.812   0.272
61910W        W28978   2.804  33.028   2.370
61911W        W28979  29.543  42.316   1.874
61912W        W28980  37.911  33.907  11.441
61913W        W28981  10.717  19.041  12.438
61914W        W28982  25.025  21.548   1.732
61915W        W28983  13.627  32.077   2.786
61916W        W28984  39.548  29.975  14.910
61917W        W28985  24.185  44.286   3.739
61918W        W28986  34.079  25.066   1.932
61919W        W28987  25.981  40.803  10.582
61920W        W28988  31.405  13.610  12.082
61921W        W28989  18.296  28.443  11.416
61922W        W28990  10.638  25.594   3.852
61923W        W28991  18.174  15.148  11.088
61924W        W28992  29.503  19.184  11.376
61925W        W28993  15.101   9.689  12.917
61926W        W28994  25.178   8.873  14.497
61927W        W28995  12.751   6.389   0.431
61928W        W28996  43.966  24.487  10.935
61929W        W28997  43.871  13.138   2.809
61930W        W28998  32.391  14.277  10.451
61931W        W28999  15.278   4.935  14.963
61932W        W29000  12.358  22.695   1.435
61933W        W29001  13.745  11.625  11.973
61934W        W29002   7.319  20.703  13.333
61935W        W29003  43.977   4.889  10.627
61936W        W29004  32.573  18.180  10.636
61937W        W29005  17.667   6.755  11.394
61938W        W29006   5.205   2.958   3.798
61939W        W29007  31.988   5.377   0.318
61940W        W29008  21.594  32.120  13.318
61941W        W29009  20.562  17.233  11.584
61942W        W29010  31.140  34.048  14.368
61943W        W29011  17.144  43.437  12.352
61944W        W29012  27.533  23.570  14.015
61945W        W29013   6.680  41.979   3.669
61946W        W29014  18.617  28.092   5.634
61947W        W29015  18.107  22.232  14.405
61948W        W29016   3.375   2.786  11.942
61949W        W29017  12.647  27.185   4.225
61950W        W29018  21.150  11.246   2.270
61951W        W29019   5.851  28.025  10.939
61952W        W29020  20.163  18.680   3.866
61953W        W29021  11.369  41.315  11.908
61954W        W29022  40.801  11.729   3.313
61955W        W29023  28.989  23.237   3.373
61956W        W29024   1.795   5.382  12.039
61957W        W29025  16.227  26.484  10.638
61958W        W29026  30.969  20.577   1.440
61959W        W29027  31.004   8.353  12.958
61960W        W29028   1.808  17.256  14.795
61961W        W29029  20.546  27.542  14.497
61962W        W29030  22.170  22.681  14.958
61963W        W29031   4.860  13.728  12.505
61964W        W29032  20.091  35.957  14.511
61965W        W29033  36.419  21.235  12.002
61966W        W29034  29.591  27.463   1.437
61967W        W29035  13.802  41.886   4.206
61968W        W29036  23.581  31.584  11.884
61969W        W29037  27.083  40.384   3.332
61970W        W29038   5.822  10.178  11.406
61971W        W29039  15.696  42.847  12.436
61972W        W29040  44.834   0.988  10.928
61973W        W29041   4.216  43.913  11.985
61974W        W29042   4.850  42.002   1.765
61975W        W29043  27.063   3.325  10.891
61976W        W29044  42.522  12.661  12.073
61977W        W29045  29.569  44.779   1.842
61978W        W29046  39.857  41.375   0.818
61979W        W29047  31.631  36.439   0.855
61980W        W29048  13.118  17.666   1.877
61981W        W29049  23.019  16.700  12.058
61982W        W29050  22.606  12.280  13.867
61983W        W29051  40.840  14.620   1.800
61984W        W29052   7.907   0.884   4.142
61985W        W29053  37.526  21.553   3.378
61986W        W29054  30.085  32.622   4.746
61987W        W29055  33.028  26.093  11.390
61988W        W29056  20.769  29.591  11.021
61989W        W29057  42.815  17.750  13.457
61990W        W29058  20.088  37.987   2.404
61991W        W29059  23.092  30.064  13.006
61992W        W29060  32.118   8.741   0.837
61993W        W29061  10.677  31.494   0.322
61994W        W29062   9.802  28.079   1.309
61995W        W29063  20.208   1.258  14.383
61996W        W29064   1.926  22.117   2.865
61997W        W29065  23.624  30.026  14.879
61998W        W29066  42.295  31.513  11.447
61999W        W29067   0.902  42.019   4.782
62000W        W29068   1.439  20.124   1.856
62001W        W29069  36.867  12.317   1.874
62002W        W29070  36.519  23.654  11.107
62003W        W29071  22.089  13.288  14.813
62004W        W29072  29.571   9.706  11.593
62005W        W29073  38.881  11.733   1.753
62006W        W29074  15.634  35.498  10.447
62007W        W29075  17.132  14.170  13.872
62008W        W29076   1.445  39.348   2.293
62009W        W29077   6.740  32.408  14.488
62010W        W29078  27.188  25.130   3.283
62011W        W29079  42.972  36.558   2.816
62012W        W29080  37.413   5.855   2.278
62013W        W29081  35.464  17.646  13.984
62014W        W29082  32.988  26.133   3.382
62015W        W29083  25.662   2.914   1.448
62016W        W29084   7.738  14.763   3.383
62017W        W29085  39.524  22.701  11.521
62018W        W29086   3.823  21.261  13.943
62019W        W29087   2.855   0.891   3.385
62020W        W29088   1.449  14.200  14.365
62021W        W29089  22.578  37.420   3.660
62022W        W29090  21.723  11.659  13.942
62023W        W29091  21.573   1.482  14.770
62024W        W29092  27.165  36.851   0.897
62025W        W29093  25.487  29.157   4.255
62026W        W29094  20.753  22.561  13.318
62027W        W29095  34.391   8.328   4.818
62028W        W29096  40.003  37.071  14.932
62029W        W29097  31.441  28.009   2.750
62030W        W29098  20.578   9.295   0.787
62031W        W29099   5.750  40.990   2.291
62032W        W29100  11.182   0.405  11.947
62033W        W29101  17.196  14.712   1.409
62034W        W29102  40.367   1.358   4.155
62035W        W29103  32.499  40.341  12.883
62036W        W29104   5.275  40.342   0.914
62037W        W29105  17.650   2.958   4.125
62038W        W29106  20.232  15.109   0.819
62039W        W29107  18.636  16.290  11.935
62040W        W29108   1.856  13.667   3.720
62041W        W29109  17.701  12.155  10.551
62042W        W29110  39.894  10.364   2.673
62043W        W29111  31.038  41.458  11.379
62044W        W29112  33.383  35.419  13.796
62045W        W29113  24.555  17.185   3.741
62046W        W29114  40.362  27.614  13.503
62047W        W29115  20.058  44.864  10.437
62048W        W29116  16.732  35.065   0.785
62049W        W29117  31.963  35.448  12.344
62050W        W29118  36.841  43.352  11.379
62051W        W29119   0.949  14.209   0.427
62052W        W29120   9.693  25.207  11.886
62053W        W29121  37.839  25.605  11.927
62054W        W29122  31.602  25.053  13.389
62055W        W29123  16.107   8.773   0.402
62056W        W29124  28.568  26.633   1.285
62057W        W29125  28.671   2.430   2.365
62058W        W29126   3.335  28.021   5.316
62059W        W29127  41.295  33.501   2.782
62060W        W29128  23.192  11.753   0.459
62061W        W29129   8.222  26.567  10.492
62062W        W29130  13.625  39.894  14.996
62063W        W29131  14.616   0.903  13.404
62064W        W29132  44.779   7.277   2.867
62065W        W29133  25.110  32.023  13.845
62066W        W29134  38.533   7.239   1.906
62067W        W29135  22.026   6.877  13.366
62068W        W29136  43.903   1.886  14.460
62069W        W29137   4.856  33.543  11.045
62070W        W29138   8.339  43.918   2.267
62071W        W29139  25.088  32.036   3.703
62072W        W29140  19.282   9.839  12.509
62073W        W29141  15.184  37.079  13.973
62074W        W29142  38.480   1.865   4.309
62075W        W29143  34.385   1.953  12.871
62076W        W29144   1.272   6.897   2.755
62077W        W29145  36.964  35.019  10.557
62078W        W29146  28.562  31.013  11.426
62079W        W29147  43.343  18.125  12.971
62080W        W29148  35.440   8.797   3.688
62081W        W29149   1.857  19.624   2.826
62082W        W29150  31.042  23.073   4.818
62083W        W29151  10.269   5.368   3.187
62084W        W29152  31.919  32.534  11.859
62085W        W29153  13.272  31.148  14.768
62086W        W29154  26.186  28.169   1.247
62087W        W29155  35.412   9.383   3.853
62088W        W29156   3.870  21.705  13.326
62089W        W29157  17.580  31.481  11.511
62090W        W29158  20.764  23.535   2.794
62091W        W29159  25.616  13.157  14.371
62092W        W29160  11.193  21.741   4.313
62093W        W29161  15.732  12.722   4.689
62094W        W29162  13.351  11.857  13.914
62095W        W29163   6.404  29.470   2.757
62096W        W29164  38.961  27.074   0.732
62097W        W29165   2.875  11.133   4.810
62098W        W29166  11.349  25.662  11.078
62099W        W29167  15.819   4.229   0.740
62100W        W29168  13.213  19.736   3.712
62101W        W29169   7.252   4.446  12.358
62102W        W29170  33.027   1.890  11.418
62103W        W29171  14.195  37.548   3.710
62104W        W29172  11.772  33.518  12.569
62105W        W29173  30.654   8.176   3.839
62106W        W29174   2.869  32.048   0.787
62107W        W29175  30.115  19.741   5.274
62108W        W29176   6.778  15.316   4.742
62109W        W29177  10.239   0.858   1.350
62110W        W29178  33.537  39.344  13.504
62111W        W29179  20.579  20.683   3.645
62112W        W29180  36.582  14.761   1.315
62113W        W29181  10.642  36.526   4.820
62114W        W29182  11.305  12.196  14.453
62115W        W29183  30.635   6.865  11.507
62116W        W29184  12.794  22.064   4.721
62117W        W29185  30.028  17.234   3.782
62118W        W29186  21.708  23.523  12.509
62119W        W29187  36.362  16.572  12.576
62120W        W29188  22.055  37.986  13.980
62121W        W29189  30.514  19.230   3.662
62122W        W29190  21.522  29.444   1.319
62123W        W29191  21.642   6.321  10.993
62124W        W29192  30.621  17.223   3.712
62125W        W29193  36.580  23.574   4.247
62126W        W29194  12.678  42.014   2.871
62127W        W29195  43.937  43.980  11.374
62128W        W29196  21.669   3.457  12.420
62129W        W29197   5.912  25.014   4.801
62130W        W29198  35.570  33.915  10.914
62131W        W29199  30.499  25.695   2.765
62132W        W29200  41.538  37.080   0.942
62133W        W29201  26.067  34.440  12.094
62134W        W29202  44.931  20.759   1.898
62135W        W29203  38.552  20.600   4.820
62136W        W29204  23.075  39.987   3.836
62137W        W29205  35.393  44.260  10.505
62138W        W29206  43.779   7.892   0.894
62139W        W29207   6.355   0.280   1.712
62140W        W29208  14.125  24.111   3.218
62141W        W29209   4.763  37.046   0.754
62142W        W29210   6.739  42.424   3.738
62143W        W29211   8.186  35.999  12.535
62144W        W29212   5.277   7.414  11.113
62145W        W29213  18.056  28.979   0.312
62146W        W29214  35.871  16.743  13.056
62147W        W29215  32.575  32.600   1.382
62148W        W29216  10.816   0.795   3.718
62149W        W29217  11.777  24.016  11.584
62150W        W29218  18.123  40.311   4.337
62151W        W29219  25.985  10.227   0.431
62152W        W29220   8.206  22.733  14.512
62153W        W29221  38.826  38.071  10.446
62154W        W29222  10.149  21.652  10.907
62155W        W29223   7.230  32.029   0.914
62156W        W29224  17.093  10.813  13.879
62157W        W29225  36.555  26.092   4.772
62158W        W29226  11.758  34.584   3.817
62159W        W29227  20.217  43.993   2.662
62160W        W29228  34.006  21.635  10.410
62161W        W29229   7.323  13.688   4.233
62162W        W29230   3.714  30.049   2.668
62163W        W29231  28.995  12.159   2.191
62164W        W29232   4.817   5.849   3.718
62165W        W29233  38.883  25.663   1.416
62166W        W29234  20.659  18.753  12.956
62167W        W29235   0.342  12.693  13.461
62168W        W29236  16.714  24.079  11.963
62169W        W29237  17.667  34.880  14.010
62170W        W29238  41.907  20.618  12.885
62171W        W29239   4.719  32.951  12.985
62172W        W29240   6.356   9.793  14.455
62173W        W29241   6.830  29.079   4.297
62174W        W29242  39.979  34.427   1.326
62175W        W29243  19.254  22.134  13.457
62176W        W29244  28.150  11.697  12.530
62177W        W29245   7.214  20.597  14.978
62178W        W29246  23.133  37.995  11.048
62179W        W29247  32.947  23.082  10.413
62180W        W29248  19.673  26.044  12.546
62181W        W29249  18.786  32.017   4.631
62182W        W29250   0.850  35.884  10.929
62183W        W29251  31.496  23.570   1.262
62184W        W29252  37.958   1.881  11.972
62185W        W29253  14.327   2.769  14.842
62186W        W29254  20.246  41.015  13.543
62187W        W29255   7.225  44.801  10.562
62188W        W29256  19.752   2.782  13.861
62189W        W29257  15.305  23.715   1.260
62190W        W29258  33.041  19.209   2.209
62191W        W29259  25.535   2.928  14.023
62192W        W29260  36.498   5.898   4.255
62193W        W29261  33.043  21.173   4.702
62194W        W29262   6.863  11.717   3.651
62195W        W29263  22.557  13.317   0.472
62196W        W29264  26.552  21.524  12.066
62197W        W29265   9.741  21.633   3.762
62198W        W29266   2.796   6.715   2.711
62199W        W29267  33.566   6.811  13.912
62200W        W29268  41.436   5.284  13.494
62201W        W29269  16.303  20.541  12.832
62202W        W29270  42.505  41.314  13.500
62203W        W29271  27.134  18.097  13.357
62204W        W29272  27.178  22.651  12.344
62205W        W29273   8.665   0.394   2.311
62206W        W29274  33.028  13.266  11.544
62207W        W29275  22.205  11.750   2.415
62208W        W29276  17.799  40.331   3.682
62209W        W29277  27.513  15.190  12.459
62210W        W29278  13.838  40.030   1.735
62211W        W29279  17.709  43.924  12.045
62212W        W29280   0.753  41.908  10.630
62213W        W29281  42.860  26.986  14.457
62214W        W29282  13.183   7.321  11.894
62215W        W29283  44.267   3.403   1.757
62216W        W29284  15.268  31.004  10.516
62217W        W29285  39.930   8.698   1.736
62218W        W29286  30.449  28.984   4.133
62219W        W29287   5.717  12.613   1.442
62220W        W29288  39.462  30.925   2.211
62221W        W29289  17.767   8.297  14.896
62222W        W29290  11.314  27.600   2.848
62223W        W29291  40.007  18.592   1.823
62224W        W29292  35.009  34.068  13.876
62225W        W29293   6.785  37.469   4.721
62226W        W29294   2.832   6.342   1.375
62227W        W29295  11.183  43.327   3.825
62228W        W29296  42.858  21.201  13.873
62229W        W29297  11.778  27.531  10.108
62230W        W29298  37.465  17.558   1.268
62231W        W29299   6.891  33.561   2.241
62232W        W29300  25.547  29.424  11.380
62233W        W29301  13.154   8.330  12.884
62234W        W29302  12.635  21.556   0.807
62235W        W29303   9.862  12.783   1.863
62236W        W29304  19.780   6.769   4.635
62237W        W29305  10.237   7.190   4.155
62238W        W29306  33.934   4.247  12.534
62239W        W29307  27.531  43.997  12.508
62240W        W29308  37.983  25.129  13.008
62241W        W29309  14.793   4.332   3.679
62242W        W29310  31.086  41.890   1.441
62243W        W29311   3.775  14.706   2.299
62244W        W29312  44.847   2.955   1.398
62245W        W29313  12.220  44.884   0.854
62246W        W29314  10.271  32.894  12.949
62247W        W29315  23.608  38.055  10.981
62248W        W29316  13.830  40.944   3.229
62249W        W29317  10.812  27.678  12.887
62250W        W29318   4.924  21.598  11.878
62251W        W29319  10.747   2.844   4.814
62252W        W29320  25.976  25.538   1.881
62253W        W29321  35.016  41.493   2.315
62254W        W29322  34.567  21.627  14.869
62255W        W29323   9.349  10.702   4.803
62256W        W29324  12.671  35.984  10.527
62257W        W29325  34.542  32.445   4.791
62258W        W29326   1.958  20.152   0.940
62259W        W29327   5.846  19.564  12.441
62260W        W29328   5.736  30.503  12.533
62261W        W29329  25.076  41.904   2.836
62262W        W29330   7.231  40.804   4.141
62263W        W29331   7.187  25.694  12.986
62264W        W29332  34.410  42.826  14.018
62265W        W29333  17.274  42.866  10.577
62266W        W29334  33.094  38.885  13.870
62267W        W29335  39.820  39.901  13.358
62268W        W29336   4.430  35.403   1.336
62269W        W29337  18.132   4.404  12.062
62270W        W29338  28.051  41.793  13.384
62271W        W29339  43.786  39.431   2.342
62272W        W29340  44.305  16.255   0.940
62273W        W29341  10.195  33.447  11.431
62274W        W29342  35.091  15.623   4.693
62275W        W29343  24.186  16.140   2.757
62276W        W29344  21.742  33.498   2.850
62277W        W29345  16.670  16.572  10.553
62278W        W29346   5.688  34.038   4.255
62279W        W29347  24.227  26.691  10.638
62280W        W29348  12.356  20.649  13.041
62281W        W29349  18.666  18.050  13.847
62282W        W29350  27.022  24.589   2.792
62283W        W29351  19.649   1.753   1.712
62284W        W29352  15.230  24.575   4.333
62285W        W29353  26.988   9.222   3.863
62286W        W29354   3.437  31.981  12.394
62287W        W29355  26.055  11.336   0.747
62288W        W29356  40.426  11.230  12.514
62289W        W29357  13.827   3.347  10.922
62290W        W29358   0.786  33.427  12.825
62291W        W29359  41.946  16.120   1.901
62292W        W29360  41.480  18.563   4.171
62293W        W29361  18.721  11.158   0.885
62294W        W29362   7.301  17.779   2.849
62295W        W29363  18.765  44.860  11.507
62296W        W29364  42.361   1.779  11.909
62297W        W29365   2.343  40.525   0.358
62298W        W29366  43.991  22.045  10.532
62299W        W29367  37.373   6.336   3.222
62300W        W29368  31.488  40.957  14.863
62301W        W29369  24.562  24.189  11.083
62302W        W29370  35.959  37.914  13.541
62303W        W29371  25.513  21.608   0.903
62304W        W29372  30.952  17.192  13.345
62305W        W29373  12.833  22.147  14.019
62306W        W29374  25.196  42.945  12.021
62307W        W29375  39.351  37.361   0.745
62308W        W29376  21.578  15.125   4.301
62309W        W29377  28.100  10.826   3.807
62310W        W29378  18.061  40.539   1.848
62311W        W29379  32.637  24.524   4.191
62312W        W29380  23.170  19.596   1.871
62313W        W29381   6.695  21.646  12.344
62314W        W29382  23.523  40.004  10.608
62315W        W29383  42.939  44.932   1.897
62316W        W29384  28.957   8.188   0.379
62317W        W29385  15.743  14.597   1.379
62318W        W29386  40.814  23.632   3.217
62319W        W29387   0.420  35.545   3.630
62320W        W29388  22.633  39.358   3.763
62321W        W29389  18.090  18.135  11.457
62322W        W29390  35.098  39.009   1.754
62323W        W29391  16.116   7.215  10.589
62324W        W29392  28.669   4.853   2.413
62325W        W29393  19.101  29.007  14.897
62326W        W29394  15.152   8.239  12.537
62327W        W29395   0.294  36.544  11.027
62328W        W29396  41.363  39.993   4.644
62329W        W29397   0.764  24.660   0.265
62330W        W29398  24.986  11.654   3.806
62331W        W29399  12.243  16.108   3.201
62332W        W29400  21.542  19.113  10.934
62333W        W29401   9.775  34.409   2.205
62334W        W29402  31.431  19.270  11.895
62335W        W29403  13.624  13.811   4.805
62336W        W29404  30.911  27.942  13.939
62337W        W29405  37.855  38.356   4.766
62338W        W29406  31.131   8.694   0.745
62339W        W29407  32.021  27.600  11.558
62340W        W29408  18.560  10.292  11.375
62341W        W29409  39.394  23.733  11.881
62342W        W29410  26.644  31.557  13.331
62343W        W29411  27.175  42.939   3.335
62344W        W29412  12.769  32.395  10.966
62345W        W29413   1.379  40.854  11.866
62346W        W29414  24.692   8.657  14.413
62347W        W29415  19.765  26.567  11.388
62348W        W29416  33.616  13.208  12.948
62349W        W29417  19.222  27.459   2.315
62350W        W29418  40.908  29.935   0.262
62351W        W29419  40.915  18.092  14.294
62352W        W29420  42.817  20.129   3.244
62353W        W29421  16.094  28.952   3.323
62354W        W29422  35.087  22.540   0.347
62355W        W29423   0.787   6.882   1.719
62356W        W29424   8.277  44.927   1.732
62357W        W29425  24.101  22.227  10.454
62358W        W29426  34.460  41.343  11.435
62359W        W29427   5.439  42.385  10.584
62360W        W29428  22.070   0.340   0.416
62361W        W29429  41.929  11.323   3.664
62362W        W29430  29.940   5.760  10.551
62363W        W29431  31.109  25.500   2.387
62364W        W29432   0.898  11.779  12.979
62365W        W29433   6.864   0.451  12.462
62366W        W29434  19.071  35.362  12.878
62367W        W29435  33.121  42.344  12.914
62368W        W29436  21.256  17.242  12.042
62369W        W29437  36.562   0.421   3.757
62370W        W29438   6.193  38.340  11.375
62371W        W29439   0.948  32.942   2.744
62372W        W29440  11.342  17.714   4.742
62373W        W29441  43.824   6.819   1.821
62374W        W29442   1.970  27.666   2.310
62375W        W29443  32.449   8.237  11.998
62376W        W29444  32.975  34.446  12.557
62377W        W29445  22.602  11.256   1.415
62378W        W29446  16.176   0.786  10.414
62379W        W29447  10.244   1.390   3.380
62380W        W29448  41.496  33.051   2.824
62381W        W29449  41.364  19.755  12.032
62382W        W29450  22.119  36.855  13.973
62383W        W29451  23.586   9.704  10.515
62384W        W29452   2.401  27.038  11.947
62385W        W29453  16.075   7.910   3.320
62386W        W29454  37.916   2.442  12.546
62387W        W29455   7.236  34.886  14.313
62388W        W29456  42.334  40.884  14.489
62389W        W29457  27.498   9.264  12.829
62390W        W29458  26.955  20.058  12.065
62391W        W29459  28.648  39.414  11.447
62392W        W29460  37.888   3.427  13.035
62393W        W29461  36.859  27.956  10.500
62394W        W29462  24.124  30.069   2.373
62395W        W29463  21.147  30.003  12.046
62396W        W29464  11.768  30.608   0.344
62397W        W29465  23.143  12.224  14.490
62398W        W29466  32.471  17.651   3.703
62399W        W29467  24.015  15.329   2.894
62400W        W29468  21.033   3.429  13.382
62401W        W29469  42.941   8.772  14.016
62402W        W29470  22.740  39.062  13.518
62403W        W29471  16.681  24.509   1.403
62404W        W29472  38.073  35.454  13.535
62405W        W29473  10.696  33.917  13.056
62406W        W29474  12.269  34.955  14.360
62407W        W29475  26.029   3.809   3.149
62408W        W29476  30.551  15.142  13.361
62409W        W29477  12.792  25.078  11.079
62410W        W29478  20.570  21.604   1.887
62411W        W29479  24.202  44.446  10.573
62412W        W29480   5.248   4.421   1.427
62413W        W29481  32.954   8.681   3.355
62414W        W29482  43.914   1.462   4.231
62415W        W29483  44.766  23.184  14.964
62416W        W29484  38.018   9.838   0.899
62417W        W29485   6.426   7.794   2.294
62418W        W29486   5.234  25.530   2.766
62419W        W29487   1.933  40.047  11.555
62420W        W29488  13.748  19.617  13.856
62421W        W29489  22.697  30.457   1.915
62422W        W29490  22.073  36.871  12.941
62423W        W29491  41.039  34.389  14.962
62424W        W29492  24.126  23.989   4.762
62425W        W29493  22.505  12.735  11.987
62426W        W29494  35.952  30.076   1.719
62427W        W29495  22.547   5.287  12.065
62428W        W29496  43.334  41.852   4.622
62429W        W29497  18.064  12.635  12.902
62430W        W29498  11.794  39.918   3.795
62431W        W29499  12.145  21.559   1.803
62432W        W29500  17.140   5.408  14.479
62433W        W29501  36.912   7.203   3.696
62434W        W29502   6.249  17.108   2.276
62435W        W29503  13.126  25.022   4.619
62436W        W29504  22.057  17.622   2.391
62437W        W29505   7.850  11.694   1.253
62438W        W29506  28.002  31.487  11.595
62439W        W29507   4.829  44.937   2.340
62440W        W29508  30.130  41.352   1.261
62441W        W29509  28.596  16.631  10.899
62442W        W29510  44.440  10.839   1.296
62443W        W29511  38.838  41.367   2.772
62444W        W29512  19.185  29.072  13.421
62445W        W29513  16.687  34.396  11.017
62446W        W29514  39.373  20.645   2.686
62447W        W29515  40.367   0.935   0.893
62448W        W29516  42.465  42.425   2.308
62449W        W29517  27.172  42.799  15.000
62450W        W29518  22.208  39.013   0.837
62451W        W29519   3.931  17.192   3.748
62452W        W29520  39.065  15.822   4.241
62453W        W29521  24.159  30.625   5.268
62454W        W29522  18.207  24.523   1.917
62455W        W29523  21.702   3.243  14.497
62456W        W29524  10.641  42.421   4.698
62457W        W29525  10.649  28.067   2.706
62458W        W29526  31.148  23.617   4.625
62459W        W29527  41.012  19.276  10.495
62460W        W29528  37.874   5.780   1.847
62461W        W29529  16.793   1.966  12.562
62462W        W29530  37.570  30.625  10.429
62463W        W29531  15.632  35.994   4.193
62464W        W29532  36.866  44.790   2.293
62465W        W29533  13.683  28.637  13.965
62466W        W29534  10.291  22.664  11.858
62467W        W29535  39.873   8.318   3.654
62468W        W29536  35.870  43.009  14.284
62469W        W29537  25.124   9.164   2.801
62470W        W29538   6.279  11.650  11.943
62471W        W29539  16.245  13.768  11.861
62472W        W29540   8.210  26.479  12.036
62473W        W29541  21.094  32.075   5.292
62474W        W29542  29.578  33.909   3.193
62475W        W29543  16.148   5.334  13.858
62476W        W29544  38.344  14.336   3.711
62477W        W29545  20.210   3.758  10.889
62478W        W29546  36.451  14.317  12.575
62479W        W29547  41.024  18.626  13.981
62480W        W29548   4.219  37.457   3.828
62481W        W29549  40.498  26.173   0.449
62482W        W29550   5.247  11.778  11.053
62483W        W29551  11.217  28.967   3.155
62484W        W29552  18.634   6.779   2.328
62485W        W29553   0.273  27.656   1.888
62486W        W29554  18.612  31.988   4.173
62487W        W29555  23.512  19.172   1.696
62488W        W29556   8.216  27.959   4.185
62489W        W29557  10.287  31.504   1.788
62490W        W29558  42.797  18.074   2.312
62491W        W29559  30.051  26.658  12.402
62492W        W29560  39.936  22.212  12.934
62493W        W29561  19.588  43.488   0.779
62494W        W29562  14.793  10.248  11.062
62495W        W29563  24.666  31.558   1.832
62496W        W29564  12.648  16.775  12.552
62497W        W29565  25.492  23.022   3.754
62498W        W29566  18.154  34.055  12.383
62499W        W29567  35.388  34.954   3.796
62500W        W29568   8.845  15.666   4.180
62501W        W29569  16.680   4.725   2.302
62502W        W29570   3.224  13.300   2.390
62503W        W29571  31.045  38.075   3.632
62504W        W29572  29.579  38.948  13.910
62505W        W29573   0.858  28.489   2.819
62506W        W29574   1.441  31.083   0.804
62507W        W29575  18.214  30.153   0.958
62508W        W29576  22.609   2.383  13.491
62509W        W29577  30.122   4.834   4.183
62510W        W29578  32.048   1.754  10.632
62511W        W29579  15.614  30.556   3.303
62512W        W29580  29.057  38.076   4.747
62513W        W29581  33.512  30.965   3.246
62514W        W29582  38.857  43.341  14.451
62515W        W29583   0.963   7.298  13.018
62516W        W29584  15.161  17.587  14.511
62517W        W29585  35.359  10.315   0.735
62518W        W29586  12.647  36.475  14.941
62519W        W29587  12.742   1.440  13.809
62520W        W29588  16.585  11.861  13.797
62521W        W29589   2.320   9.791  11.023
62522W        W29590  23.509  20.545   1.390
62523W        W29591  11.720   9.350   2.705
62524W        W29592  32.022   7.333  12.375
62525W        W29593   8.671   8.181   3.811
62526W        W29594  13.273  31.479  14.823
62527W        W29595  38.829   3.217  14.991
62528W        W29596  10.329  16.308  13.060
62529W        W29597  16.149  11.270  12.066
62530W        W29598   7.703  21.592   3.281
62531W        W29599  11.296  31.961  10.147
62532W        W29600  40.445  33.479  12.048
62533W        W29601   2.794  32.408  14.999
62534W        W29602  40.912  10.731  12.092
62535W        W29603  22.509  23.057   2.349
62536W        W29604  14.193  36.066   4.699
62537W        W29605  41.802  40.486  13.358
62538W        W29606  14.099   1.860  13.009
62539W        W29607  34.509  38.058  10.987
62540W        W29608  42.848   7.271  14.301
62541W        W29609   5.340  43.999   3.185
62542W        W29610  43.298  17.086  12.909
62543W        W29611   3.339  25.994  10.494
62544W        W29612   7.278  42.797  12.067
62545W        W29613   1.284  37.337   4.771
62546W        W29614   6.263   9.887   0.880
62547W        W29615  32.595  29.072   0.779
62548W        W29616  13.687  13.296   3.747
62549W        W29617  31.453  18.250  11.878
62550W        W29618  19.541  17.759   2.797
62551W        W29619  42.841  15.126   1.311
62552W        W29620  30.007  17.717  14.446
62553W        W29621  43.489  29.451   2.859
62554W        W29622  20.229   8.404   2.411
62555W        W29623   7.751   5.731   2.681
62556W        W29624  11.193  17.201  14.762
62557W        W29625  28.160  41.504  14.384
62558W        W29626  24.642  14.252  11.610
62559W        W29627  28.608  22.108   2.350
62560W        W29628  32.039  40.837  12.883
62561W        W29629  41.888  14.230  11.078
62562W        W29630  27.066  40.516  13.354
62563W        W29631  25.096  42.440  10.996
62564W        W29632  44.997   0.408   0.749
62565W        W29633  36.394   1.970  10.156
62566W        W29634  36.434  37.551   5.269
62567W        W29635  43.773   9.391   3.859
62568W        W29636  17.788  23.207  13.021
62569W        W29637  26.173  43.022  14.477
62570W        W29638  37.861  20.078  13.996
62571W        W29639  32.934  14.149  13.934
62572W        W29640  27.990   4.892  12.474
62573W        W29641  13.739  18.627  13.008
62574W        W29642  10.368  28.564  11.871
62575W        W29643  43.466  28.606  14.788
62576W        W29644  20.647  39.898   2.893
62577W        W29645  14.182  38.444  13.996
62578W        W29646  29.585  15.730   4.698
62579W        W29647  16.672   6.874  11.509
62580W        W29648  37.981  10.274   2.216
62581W        W29649  16.305  34.557  14.405
62582W        W29650  43.986   5.711   3.735
62583W        W29651  16.722   1.284   1.401
62584W        W29652   4.365  43.875  10.442
62585W        W29653  42.421  13.203   3.824
62586W        W29654  23.122  40.317  11.592
62587W        W29655  26.191   8.845  14.496
62588W        W29656  44.940   4.902  13.064
62589W        W29657  27.501  38.940  12.521
62590W        W29658  27.679   7.409  12.352
62591W        W29659  35.484   5.890  12.571
62592W        W29660  43.961  20.562  11.909
62593W        W29661  31.090  44.772   3.301
62594W        W29662   7.284  36.042  13.953
62595W        W29663   4.266  19.190   1.913
62596W        W29664  39.939  13.170   3.693
62597W        W29665  42.471  14.324  14.301
62598W        W29666  43.460  36.098  10.500
62599W        W29667  40.911  35.571  11.904
62600W        W29668  32.100  11.127   2.198
62601W        W29669  24.585  36.526   3.684
62602W        W29670  23.535  28.151   2.214
62603W        W29671  37.384  43.455   2.875
62604W        W29672  35.377  23.144   0.902
62605W        W29673  43.395  11.348   3.212
62606W        W29674  38.366   4.367  12.006
62607W        W29675   9.657  26.509  10.931
62608W        W29676  10.170  22.639  10.453
62609W        W29677  14.142   4.443  14.445
62610W        W29678  21.741  14.185   4.166
62611W        W29679  32.624  32.453   2.359
62612W        W29680  14.261  37.889  11.600
62613W        W29681   1.962  16.166   3.228
62614W        W29682  13.677  40.420  13.471
62615W        W29683  33.075   4.849  13.326
62616W        W29684  44.974  20.710   2.339
62617W        W29685  28.551   6.840   0.474
62618W        W29686  16.656  11.347   4.208
62619W        W29687  39.341  33.112   4.663
62620W        W29688  22.166  35.460  10.640
62621W        W29689  36.086  27.153   1.800
62622W        W29690  42.995  29.985   4.152
62623W        W29691  19.637  44.426  14.974
62624W        W29692  33.032  32.978   3.794
62625W        W29693  19.662  25.094   0.841
62626W        W29694  26.095   7.196  14.959
62627W        W29695  35.961  14.762  12.833
62628W        W29696  15.818  21.750   9.626
62629W        W29697   9.213  40.399  11.396
62630W        W29698  23.185   3.821  14.886
62631W        W29699  34.911   1.841   0.325
62632W        W29700  40.334  42.816  11.102
62633W        W29701  39.391  38.498   4.836
62634W        W29702  32.011   7.808   2.858
62635W        W29703  15.780   7.734  13.879
62636W        W29704  11.140  35.861  10.424
62637W        W29705  22.076  31.480   3.802
62638W        W29706  26.119  23.635   0.950
62639W        W29707  12.319  11.348  11.455
62640W        W29708  39.529   9.662  12.420
62641W        W29709  15.813  17.296  14.812
62642W        W29710  23.610   9.319   0.372
62643W        W29711   2.735   5.725  11.862
62644W        W29712  33.462   1.975  10.557
62645W        W29713  23.033   1.312   0.253
62646W        W29714  27.512  25.623   2.828
62647W        W29715  33.434   3.381   4.286
62648W        W29716   0.269  20.248   3.655
62649W        W29717  18.788  21.739   1.876
62650W        W29718   8.852  32.027   4.670
62651W        W29719  35.458  26.985   0.802
62652W        W29720  15.173  11.337  14.298
62653W        W29721  25.012  17.273   1.414
62654W        W29722  19.181  33.470  11.394
62655W        W29723  40.424  31.505  14.415
62656W        W29724  16.096  11.342   1.359
62657W        W29725  44.351  40.490   9.980
62658W        W29726  31.441   3.772   2.729
62659W        W29727  10.775  35.406  12.061
62660W        W29728  34.893  42.815  12.867
62661W        W29729  42.520   7.897   1.286
62662W        W29730  44.860  30.425  10.983
62663W        W29731   6.731  18.241  14.924
62664W        W29732  39.319  34.934   4.801
62665W        W29733  44.300  30.055  13.358
62666W        W29734  37.533  21.129   0.856
62667W        W29735  28.149   2.325   0.909
62668W        W29736  14.780  39.028   3.151
62669W        W29737  28.604  26.490  13.024
62670W        W29738   1.403  36.475   5.243
62671W        W29739  13.811  10.240   0.249
62672W        W29740  42.807   3.853  11.544
62673W        W29741  14.140  43.470   5.305
62674W        W29742  16.285  31.139  12.044
62675W        W29743   3.450  33.456  14.823
62676W        W29744  12.771  35.502   4.624
62677W        W29745  11.267  24.982   0.773
62678W        W29746  29.614  36.384   3.864
62679W        W29747  14.746  17.788   1.259
62680W        W29748  11.761  43.334   2.306
62681W        W29749  34.582  29.592  13.978
62682W        W29750  18.672  21.189  10.083
62683W        W29751  38.422   2.866  14.912
62684W        W29752  14.135  30.125   0.793
62685W        W29753  14.335  12.191   4.820
62686W        W29754   2.432  25.543  14.504
62687W        W29755   5.380  38.357   3.311
62688W        W29756  41.439  10.339  13.832
62689W        W29757  37.947  35.475   4.171
62690W        W29758  38.991  41.381  10.055
62691W        W29759   6.305  19.634  10.014
62692W        W29760  25.114  37.995   3.308
62693W        W29761  12.190  20.678  12.566
62694W        W29762  42.023   1.272   4.733
62695W        W29763  42.416  11.749   1.268
62696W        W29764  29.052   9.258   2.372
62697W        W29765  39.346   8.375  13.981
62698W        W29766  19.104  22.063   4.778
62699W        W29767  21.679  16.725   2.663
62700W        W29768   2.259   3.284   3.684
62701W        W29769  37.003  10.682  10.630
62702W        W29770  37.970  24.630   0.268
62703W        W29771  20.032  36.005  14.855
62704W        W29772  22.112  39.880  14.924
62705W        W29773  26.043   9.745   2.337
62706W        W29774  27.498  19.039   0.479
62707W        W29775  11.370  29.997   4.639
62708W        W29776  33.923  12.285   1.694
62709W        W29777  12.300   5.377   0.914
62710W        W29778   8.732  35.517   3.807
62711W        W29779  11.853  42.335   0.364
62712W        W29780  33.521  26.500  10.469
62713W        W29781   3.905  43.021  14.362
62714W        W29782  10.823  26.505  11.102
62715W        W29783  16.623  14.267   4.141
62716W        W29784   7.835  10.703   1.694
62717W        W29785  29.637  20.537   1.742
62718W        W29786   0.416   1.835   3.727
62719W        W29787   2.757  14.755  14.401
62720W        W29788   8.669  27.177   4.173
62721W        W29789  16.568  37.387   1.908
62722W        W29790  23.053  17.210   4.226
62723W        W29791   8.283   5.869   4.342
62724W        W29792  25.068  38.570   2.877
62725W        W29793  41.421  10.703  12.044
62726W        W29794  23.699  27.650  10.985
62727W        W29795  14.139   4.764  11.066
62728W        W29796  37.348   3.856   4.787
62729W        W29797  32.111  32.629  10.500
62730W        W29798  36.473  42.914  10.545
62731W        W29799  43.277   5.878  11.470
62732W        W29800   4.712   6.330   3.370
62733W        W29801  12.272  21.557   3.308
62734W        W29802  43.311  30.004   3.640
62735W        W29803  12.240  28.670  10.442
62736W        W29804  36.359  22.129  10.510
62737W        W29805  15.153   3.724   4.132
62738W        W29806  33.960   4.909  10.545
62739W        W29807  23.228   4.265   0.902
62740W        W29808  17.238   4.302   3.199
62741W        W29809  11.822  39.027  13.060
62742W        W29810  14.704  40.443  13.908
62743W        W29811  41.476  40.033  14.978
62744W        W29812  14.114  25.104   2.859
62745W        W29813   2.781  27.511  14.796
62746W        W29814  30.134  41.820   0.267
62747W        W29815  22.075  23.142  11.384
62748W        W29816  29.616  11.157  11.056
62749W        W29817  38.979  39.857   2.288
62750W        W29818  40.896  40.978  10.505
62751W        W29819   0.385  20.099   3.335
62752W        W29820  26.679  30.040   2.826
62753W        W29821   7.303  33.119  12.896
62754W        W29822  29.002  19.136   4.708
62755W        W29823  19.676  30.058  11.126
62756W        W29824   6.812  23.688   4.623
62757W        W29825  36.535   2.390  14.982
62758W        W29826  28.183   1.910  11.860
62759W        W29827  21.695  29.954  13.984
62760W        W29828  39.988  18.050   4.231
62761W        W29829  26.601   4.846  13.395
62762W        W29830  18.550  19.267  13.892
62763W        W29831  19.685  18.555  11.474
62764W        W29832   6.234  30.548   5.135
62765W        W29833  21.631   9.685   4.766
62766W        W29834  17.712  23.123   4.292
62767W        W29835  32.007  34.597  13.014
62768W        W29836  20.604  16.168  12.919
62769W        W29837  22.149  21.047   2.682
62770W        W29838  22.506  30.910   2.345
62771W        W29839  21.595  40.943   4.267
62772W        W29840  29.516  10.871  10.897
62773W        W29841  11.725   2.769  10.975
62774W        W29842   9.193  36.354  12.833
62775W        W29843  38.442  24.635   0.743
62776W        W29844  24.202  28.145  10.422
62777W        W29845  24.183  35.592  11.991
62778W        W29846  10.801  44.753   2.287
62779W        W29847  40.417  14.746  12.507
62780W        W29848  33.883   7.870   1.365
62781W        W29849  37.578  28.930   2.315
62782W        W29850   0.931   4.396  14.335
62783W        W29851  39.961  36.034  11.053
62784W        W29852   9.256  30.000   1.810
62785W        W29853  18.608  18.263   0.885
62786W        W29854  40.328   8.263   4.166
62787W        W29855  44.867   3.226  12.086
62788W        W29856  41.519  28.950  14.882
62789W        W29857  11.682   8.186  11.582
62790W        W29858  43.018  16.805   2.265
62791W        W29859  10.282  12.130   0.730
62792W        W29860  33.911   2.878  14.791
62793W        W29861  41.427  20.063   2.222
62794W        W29862  41.941  44.888   3.743
62795W        W29863  29.970  11.838   0.744
62796W        W29864   3.429  28.035  10.512
62797W        W29865  12.127  35.433   1.864
62798W        W29866   6.182  31.492  11.992
62799W        W29867  42.474  27.197  12.927
62800W        W29868   0.957  22.241   2.337
62801W        W29869  31.000  19.555   4.315
62802W        W29870   3.405  43.338  14.442
62803W        W29871  41.877  40.919  11.479
62804W        W29872  36.050  28.036   4.744
62805W        W29873  17.676  39.433   2.340
62806W        W29874  25.100  25.082  14.877
62807W        W29875  33.883   1.282  12.059
62808W        W29876  36.932  41.965   4.776
62809W        W29877  20.105  37.359   9.943
62810W        W29878  34.483  34.876   0.265
62811W        W29879  42.788  31.508  14.337
62812W        W29880  24.649  22.137  14.290
62813W        W29881  15.299  34.588   1.338
62814W        W29882  18.068   0.488  11.401
62815W        W29883   7.763  41.470   3.243
62816W        W29884  14.635  10.322  14.906
62817W        W29885  27.674  34.029   0.872
62818W        W29886  12.305   7.768   1.796
62819W        W29887  31.964  38.338   2.271
62820W        W29888   9.223  36.411  14.355
62821W        W29889  24.567  33.033   1.220
62822W        W29890  43.327  11.349   3.657
62823W        W29891  30.131  43.440   3.683
62824W        W29892  17.646   8.707   1.355
62825W        W29893  18.746  19.164   3.333
62826W        W29894  28.015  32.441   5.144
62827W        W29895   3.227  29.498   4.150
62828W        W29896  10.703  27.192  12.961
62829W        W29897   5.867  15.286   2.892
62830W        W29898  20.750  15.800  13.003
62831W        W29899  43.968  40.446   0.408
62832W        W29900  42.389  24.064  14.479
62833W        W29901  27.132  17.094   1.446
62834W        W29902  40.547  32.887  13.955
62835W        W29903  15.104  31.523  11.981
62836W        W29904  29.552   1.420   2.196
62837W        W29905  15.657   4.322  11.952
62838W        W29906  18.076  21.149  11.931
62839W        W29907  38.564  33.624   0.925
62840W        W29908  10.338   7.840   1.412
62841W        W29909  31.009  34.981   4.669
62842W        W29910  23.078  43.933   4.242
62843W        W29911  36.879  15.122  11.999
62844W        W29912  11.817  30.964  13.990
62845W        W29913  28.564  36.564   1.259
62846W        W29914  21.057  13.629  11.554
62847W        W29915   8.867  32.473  14.431
62848W        W29916  40.964   8.680   1.809
62849W        W29917  29.594  10.779  12.510
62850W        W29918   5.710  32.402  12.437
62851W        W29919  26.621   0.254   2.830
62852W        W29920  26.207   0.905   4.221
62853W        W29921  26.501  20.074  10.539
62854W        W29922  31.053  20.649   1.839
62855W        W29923  34.120   2.302   0.808
62856W        W29924   0.910  32.405   4.147
62857W        W29925  27.653  39.931   2.706
62858W        W29926  44.877  21.048   3.272
62859W        W29927  31.540   4.933  12.919
62860W        W29928  32.990  12.310   2.306
62861W        W29929  29.467  10.171  10.105
62862W        W29930  33.500  39.852  10.971
62863W        W29931  40.829   1.878  12.376
62864W        W29932  15.297   7.821   3.759
62865W        W29933  14.149   3.303   2.362
62866W        W29934   2.376  22.110  11.929
62867W        W29935  15.606  20.575   0.325
62868W        W29936  22.042  41.340   2.389
62869W        W29937  35.545  43.463  11.869
62870W        W29938  18.742  25.974   0.475
62871W        W29939  44.504  19.753  10.938
62872W        W29940   7.341  18.093  14.894
62873W        W29941  26.000  35.034  12.049
62874W        W29942   7.259  14.681   4.756
62875W        W29943  37.969  36.394  12.546
62876W        W29944  35.858  43.876   1.929
62877W        W29945  30.469   6.182   3.769
62878W        W29946  19.654   8.748  14.306
62879W        W29947   6.729   5.305  13.470
62880W        W29948  36.888  30.151   4.644
62881W        W29949  17.135  31.631  11.086
62882W        W29950  44.917  16.126   1.273
62883W        W29951  38.050  36.359  10.980
62884W        W29952  31.604  39.452  10.529
62885W        W29953  29.614  17.703  11.504
62886W        W29954   4.236  21.608   2.737
62887W        W29955  43.384  25.648  14.343
62888W        W29956   8.768  27.512   0.291
62889W        W29957  35.463  13.342   4.622
62890W        W29958  17.651   5.777   0.276
62891W        W29959  36.444  30.511  13.036
62892W        W29960  35.908  20.220   0.954
62893W        W29961  29.123  34.391  13.888
62894W        W29962   4.756   5.698  11.421
62895W        W29963  17.095  44.927   1.402
62896W        W29964   5.875  36.513   4.661
62897W        W29965  40.488   3.277  13.831
62898W        W29966  11.327  41.989   1.372
62899W        W29967  32.560  30.444   3.346
62900W        W29968  40.941  24.520   1.776
62901W        W29969  10.800  44.920   1.221
62902W        W29970   6.285  17.792  10.131
62903W        W29971  20.564  29.609   1.907
62904W        W29972  37.862  27.189  11.035
62905W        W29973   5.212  21.100  11.471
62906W        W29974  19.169  12.654   4.132
62907W        W29975  39.917   2.423   1.274
62908W        W29976   3.259   3.927  12.851
62909W        W29977  11.221  13.205   2.323
62910W        W29978  32.044  31.624   4.738
62911W        W29979  38.993  18.771   1.385
62912W        W29980  31.535   0.766  14.362
62913W        W29981  11.628   9.756  14.787
62914W        W29982  14.677  33.583   1.878
62915W        W29983  12.285  23.124   4.829
62916W        W29984   7.739  42.019   3.705
62917W        W29985  13.155  40.808   0.785
62918W        W29986  27.151   1.245  12.851
62919W        W29987  39.560   8.756  12.994
62920W        W29988  37.380  31.496   1.838
62921W        W29989  15.611  20.765  11.511
62922W        W29990  31.503  21.558  11.000
62923W        W29991  19.614   8.238   3.811
62924W        W29992   6.708   7.224  11.008
62925W        W29993  35.503   4.853  13.405
62926W        W29994   1.473  25.499  11.030
62927W        W29995  34.570  32.095  11.516
62928W        W29996  28.475  29.518   0.243
62929W        W29997  36.487   8.677   0.823
62930W        W29998  19.041  27.685  14.980
62931W        W29999   3.889  10.739  14.016
62932W        W30000  10.273  43.817   2.662
62933W        W30001  32.500   2.295   0.254
62934W        W30002  20.029  38.506  11.939
62935W        W30003  33.521  13.772  11.471
62936W        W30004   7.219  12.641  14.464
62937W        W30005  40.342  23.995  11.947
62938W        W30006   4.316  17.185  11.509
62939W        W30007  12.318  25.150  10.921
62940W        W30008  11.195  42.023  10.522
62941W        W30009   4.937  19.168  14.465
62942W        W30010   9.667   5.747  12.561
62943W        W30011   6.878  37.477   0.894
62944W        W30012   6.878  43.379  14.001
62945W        W30013  13.217   1.264   1.863
62946W        W30014  38.356   9.154   4.811
62947W        W30015  36.497  41.970   2.791
62948W        W30016  26.547  22.631  11.034
62949W        W30017  24.110  15.625   3.772
62950W        W30018  22.209   4.704  10.595
62951W        W30019  33.130  43.372  10.626
62952W        W30020  20.219  25.497  13.862
62953W        W30021  11.645  39.960  14.862
62954W        W30022   0.353   8.683  14.031
62955W        W30023  29.431   6.908   0.378
62956W        W30024  35.561  29.973  10.943
62957W        W30025  20.216  41.499  12.426
62958W        W30026  12.722  35.936   4.771
62959W        W30027  35.511  42.423  13.954
62960W        W30028  34.898   4.367   2.853
62961W        W30029   9.362  22.644  13.950
62962W        W30030  15.754  12.145  10.087
62963W        W30031  20.111  43.770  10.518
62964W        W30032  44.901  21.255   1.436
62965W        W30033  33.439   8.894  11.473
62966W        W30034  18.280  30.918  11.902
62967W        W30035  22.113  25.624   2.864
62968W        W30036  33.444  12.142   9.976
62969W        W30037  39.902  42.290   2.375
62970W        W30038   3.252  30.497  10.965
62971W        W30039   3.906   2.763   1.400
62972W        W30040  38.843  23.239   2.261
62973W        W30041  10.337  39.384   4.223
62974W        W30042   0.494  16.760   2.892
62975W        W30043  16.717  36.028   3.767
62976W        W30044  19.670  17.276   0.774
62977W        W30045  35.414   5.804   4.181
62978W        W30046  34.425   2.778   3.306
62979W        W30047   4.813   0.349  11.445
62980W        W30048  33.424  23.611   2.199
62981W        W30049  18.115   7.255   1.841
62982W        W30050   7.699   8.381   4.616
62983W        W30051  29.618  37.524   3.194
62984W        W30052  25.205  26.682   3.173
62985W        W30053  17.260  12.125  10.411
62986W        W30054  34.000   3.400  14.307
62987W        W30055  39.885  40.520   3.215
62988W        W30056  33.556  15.811   0.359
62989W        W30057  29.931   7.770   0.386
62990W        W30058  19.666  36.498   0.811
62991W        W30059  39.401  22.629  13.458
62992W        W30060  14.182   0.426   0.353
62993W        W30061  35.067  11.739   4.216
62994W        W30062   0.749   9.688  11.115
62995W        W30063  44.352  17.679   2.292
62996W        W30064  37.024   8.202   3.218
62997W        W30065  28.965  22.626   2.410
62998W        W30066  14.688  14.594  14.778
62999W        W30067  22.582  41.524   3.645
63000W        W30068  38.542   1.374  10.506
63001W        W30069  35.020  40.860  13.929
63002W        W30070   2.441  25.589   3.297
63003W        W30071  37.409  34.385   1.780
63004W        W30072  27.996  12.790  10.540
63005W        W30073  12.622  35.059   3.187
63006W        W30074  39.990  30.438   2.903
63007W        W30075  19.130  16.131  14.869
63008W        W30076   8.747  44.370  13.060
63009W        W30077  32.041  12.324   0.432
63010W        W30078  33.389  14.231   0.903
63011W        W30079  18.586   4.743   2.231
63012W        W30080  43.795  24.154  14.311
63013W        W30081   2.773  28.991  10.492
63014W        W30082  35.542  27.552   2.725
63015W        W30083  14.633  28.035   1.831
63016W        W30084  29.655  31.527   0.409
63017W        W30085  14.208  36.885   1.911
63018W        W30086  32.464  18.186   0.850
63019W        W30087  27.103  29.499  14.339
63020W        W30088  33.109  31.070  12.575
63021W        W30089   6.216  12.287   1.361
63022W        W30090  15.211  18.556  13.315
63023W        W30091  26.159  39.389  12.017
63024W        W30092  28.542   3.250  14.843
63025W        W30093  16.747   9.287   1.920
63026W        W30094  28.110  37.499  11.917
63027W        W30095  36.523   9.308  13.470
63028W        W30096  34.583   1.245  10.917
63029W        W30097   4.805   8.776   0.826
63030W        W30098   1.278  15.228   4.740
63031W        W30099  21.098  36.884  13.546
63032W        W30100   1.354   1.867  14.828
63033W        W30101  37.962  25.977  11.889
63034W        W30102  16.693  22.162  13.829
63035W        W30103  13.773  33.989  14.022
63036W        W30104   9.374  44.324   0.731
63037W        W30105   9.666   7.194  10.462
63038W        W30106  43.419  37.939   0.856
63039W        W30107   0.800  26.112   0.393
63040W        W30108  35.933  20.192  12.364
63041W        W30109  32.510   6.279  12.929
63042W        W30110  11.128  39.411   2.360
63043W        W30111  17.118  42.393   2.260
63044W        W30112  18.123   5.691   3.192
63045W        W30113   3.829  32.412   4.698
63046W        W30114   6.336  35.519   2.687
63047W        W30115  21.540  36.372  12.381
63048W        W30116  29.476   3.407  12.023
63049W        W30117  33.930  39.407   1.344
63050W        W30118  34.947  44.395   4.610
63051W        W30119  32.919  38.396   3.212
63052W        W30120  31.961  22.194   2.242
63053W        W30121  35.434  22.653  13.373
63054W        W30122  27.520  21.061  12.547
63055W        W30123  19.121  16.296  14.426
63056W        W30124  27.613  10.834   2.787
63057W        W30125   2.386  31.457   3.709
63058W        W30126  34.532  30.496  11.382
63059W        W30127  37.979  17.564   4.307
63060W        W30128  21.148  23.102   1.789
63061W        W30129  38.063  40.050  14.495
63062W        W30130  30.925  37.083   3.720
63063W        W30131  32.546  16.615  14.008
63064W        W30132  42.327  37.348  14.847
63065W        W30133  38.398   9.649   3.829
63066W        W30134   5.773  21.076  13.509
63067W        W30135  16.683  23.238   2.713
63068W        W30136  34.039   8.160  14.374
63069W        W30137  29.613  24.580  14.983
63070W        W30138  33.459  24.133  10.513
63071W        W30139  11.250   0.261  12.967
63072W        W30140  36.916  22.237   1.933
63073W        W30141  17.281  19.615  12.416
63074W        W30142  41.412  22.116  13.441
63075W        W30143  19.046  15.804  11.510
63076W        W30144  17.754  14.787   1.896
63077W        W30145  35.496  44.993  12.422
63078W        W30146  12.652  24.997   1.340
63079W        W30147  32.974  17.107  13.465
63080W        W30148  41.299  27.116  13.966
63081W        W30149   9.656  38.928   4.283
63082W        W30150  44.367  42.454   9.974
63083W        W30151  28.182  39.929   4.828
63084W        W30152  10.822  27.991  13.333
63085W        W30153  28.978  18.182   3.334
63086W        W30154  10.299  42.471   2.722
63087W        W30155  24.529  30.050   4.137
63088W        W30156  15.775  23.522  14.941
63089W        W30157  29.983  16.732  10.054
63090W        W30158   5.763   6.329   0.309
63091W        W30159  13.337  36.362  13.337
63092W        W30160  21.638  42.847   4.778
63093W        W30161  12.778  25.665  13.311
63094W        W30162  22.021  28.563  13.023
63095W        W30163  37.972  14.264  14.326
63096W        W30164  20.621  13.845  14.962
63097W        W30165   4.221   7.688  11.089
63098W        W30166   6.918   6.695  11.865
63099W        W30167  39.373  34.450   4.340
63100W        W30168  36.032   2.367  10.620
63101W        W30169   7.747  17.062  10.000
63102W        W30170  38.843  40.466  13.048
63103W        W30171   3.825   7.803  14.027
63104W        W30172  11.847   4.255  13.402
63105W        W30173  43.489  28.160   2.215
63106W        W30174  38.878   2.229   3.228
63107W        W30175   0.951  21.687  12.934
63108W        W30176   2.397  16.651   2.789
63109W        W30177  37.932  23.992  14.390
63110W        W30178  22.520  32.046   2.379
63111W        W30179  43.963  27.495   2.826
63112W        W30180   5.894  36.487   1.879
63113W        W30181   6.299  41.931  14.775
63114W        W30182  12.710  28.096  12.065
63115W        W30183  44.445  17.248   0.926
63116W        W30184  27.462  15.248  11.942
63117W        W30185   1.823  39.992  11.057
63118W        W30186  24.588  29.656   1.234
63119W        W30187   6.376  15.212   0.311
63120W        W30188  22.148   7.337   4.803
63121W        W30189  10.847  43.983  14.935
63122W        W30190  21.689  15.667   3.663
63123W        W30191  39.450   9.647   4.215
63124W        W30192  42.825  38.009   0.726
63125W        W30193  25.092  19.608  10.573
63126W        W30194  13.274  33.100  13.405
63127W        W30195  31.001  12.670   3.266
63128W        W30196  31.996   0.804   5.307
63129W        W30197  29.585  23.999   4.819
63130W        W30198  31.552  26.954   3.728
63131W        W30199  25.072  25.635  12.360
63132W        W30200  22.692  23.613   5.240
63133W        W30201  36.021   3.238   5.266
63134W        W30202  37.562  27.565   3.196
63135W        W30203  22.557   3.812  10.513
63136W        W30204   2.790  43.353  10.603
63137W        W30205  25.034  42.979   3.381
63138W        W30206  19.145  33.926   2.237
63139W        W30207  32.030  12.217  10.982
63140W        W30208  43.375  10.690  11.525
63141W        W30209  17.234  25.178   3.685
63142W        W30210  23.126  34.006   0.885
63143W        W30211  26.483  28.132  14.816
63144W        W30212  41.459  44.480  13.840
63145W        W30213  23.233  23.990  11.549
63146W        W30214  20.251  40.357   1.439
63147W        W30215  18.215   3.743   3.786
63148W        W30216  27.164  34.079   3.157
63149W        W30217  27.978  23.100   0.908
63150W        W30218  25.519  11.790   2.350
63151W        W30219   0.439  11.800   4.191
63152W        W30220  37.568  15.115   2.815
63153W        W30221  40.535  25.975  10.438
63154W        W30222  29.159  13.268   3.696
63155W        W30223  11.255  25.214  11.892
63156W        W30224  15.704  31.568  12.391
63157W        W30225  12.691  44.953  11.948
63158W        W30226  28.002   7.350   0.880
63159W        W30227  11.814  21.248   3.851
63160W        W30228   7.317  27.504   1.854
63161W        W30229   8.794  30.081   4.302
63162W        W30230  23.599  43.497   3.345
63163W        W30231   7.338  11.768   4.636
63164W        W30232   8.725  36.376  12.427
63165W        W30233   9.885  33.615  14.977
63166W        W30234  27.951  25.070   4.290
63167W        W30235  14.813  34.540  11.967
63168W        W30236  29.082  26.611   3.186
63169W        W30237   8.225  17.772  10.441
63170W        W30238  20.093   7.669  10.432
63171W        W30239   6.252   0.402   1.449
63172W        W30240   9.882  40.846   0.911
63173W        W30241  35.049   4.334   0.469
63174W        W30242  35.038   6.267  11.023
63175W        W30243   6.702  37.343  10.448
63176W        W30244  44.412  31.112   4.795
63177W        W30245  43.966  17.204  14.436
63178W        W30246   0.844  29.482   4.292
63179W        W30247  28.149  33.108  11.123
63180W        W30248  20.602  12.717  13.040
63181W        W30249  43.802  42.882  13.792
63182W        W30250  19.645  14.687  11.605
63183W        W30251  21.730  24.599  14.780
63184W        W30252  33.011  14.713   4.246
63185W        W30253  10.237  39.319   4.778
63186W        W30254   9.263  15.247  10.571
63187W        W30255  10.875  43.895   0.894
63188W        W30256  16.575  39.367   2.356
63189W        W30257  33.603  17.183   5.198
63190W        W30258  13.259  12.222  10.533
63191W        W30259  13.777  39.843   4.627
63192W        W30260  33.480   9.741   2.766
63193W        W30261  10.205  24.663  11.075
63194W        W30262  44.910  30.464  11.529
63195W        W30263   8.677  19.718  13.887
63196W        W30264  23.003  28.519   2.763
63197W        W30265  11.262  24.566  11.545
63198W        W30266   0.288  36.047  13.054
63199W        W30267  10.151  35.069   2.412
63200W        W30268  28.596  41.425  10.479
63201W        W30269  16.205  12.754  13.917
63202W        W30270  28.029  42.821   9.939
63203W        W30271  19.130  20.615  13.055
63204W        W30272  10.734   9.388  12.830
63205W        W30273  30.049  42.340  12.036
63206W        W30274  18.781   7.407  14.796
63207W        W30275  22.728  34.922   3.364
63208W        W30276  40.445  21.521   1.707
63209W        W30277  30.091  23.632   9.936
63210W        W30278  13.311  36.906  11.922
63211W        W30279  19.698  11.361  13.837
63212W        W30280  26.137  16.568   3.349
63213W        W30281  13.331  21.121  11.480
63214W        W30282  27.641  35.554  10.596
63215W        W30283  17.106  41.336  10.002
63216W        W30284  34.520  41.293   4.727
63217W        W30285  41.821   3.948  12.967
63218W        W30286   9.312  44.819  10.992
63219W        W30287  29.647   4.345  10.410
63220W        W30288  30.127   9.383   2.179
63221W        W30289  14.200  37.377   4.695
63222W        W30290   7.331  23.122  11.105
63223W        W30291  39.477  35.580   4.144
63224W        W30292   6.258  39.842   2.787
63225W        W30293  34.520   3.364   1.798
63226W        W30294  10.245  16.710  12.904
63227W        W30295  20.031  27.166  10.912
63228W        W30296  19.242  26.012  10.508
63229W        W30297  27.497   6.692   3.682
63230W        W30298  25.592  16.125   0.349
63231W        W30299  20.612  24.171   2.225
63232W        W30300  37.387  16.748  14.945
63233W        W30301   3.249  25.544   2.383
63234W        W30302  10.766  18.647   4.166
63235W        W30303   8.718   8.682   3.240
63236W        W30304  13.239  28.009   2.893
63237W        W30305   9.813  31.542  13.341
63238W        W30306  44.309  19.136   4.227
63239W        W30307  29.167  14.241  14.433
63240W        W30308  16.259  11.661   9.971
63241W        W30309  25.015   1.878   3.355
63242W        W30310  30.469  10.811   4.598
63243W        W30311  29.036  43.457   1.823
63244W        W30312  26.504   2.925   3.631
63245W        W30313  22.661  36.894  12.905
63246W        W30314  34.483   5.868   0.419
63247W        W30315  26.699  15.229   5.166
63248W        W30316   7.736   8.165   1.871
63249W        W30317  12.344  17.775  12.496
63250W        W30318  18.635  38.003   2.767
63251W        W30319  25.683  35.599  13.440
63252W        W30320  20.656  34.486   3.788
63253W        W30321  29.930  32.615  11.572
63254W        W30322  10.183   1.847  10.487
63255W        W30323   8.206  28.031   3.757
63256W        W30324   1.463  16.706  12.097
63257W        W30325  19.543   0.419  13.521
63258W        W30326  40.050   8.365   4.321
63259W        W30327  23.013  26.648   2.827
63260W        W30328  38.543  10.698  13.865
63261W        W30329  16.284   1.366  14.298
63262W        W30330  38.368  27.994   3.718
63263W        W30331  37.039  25.644   2.729
63264W        W30332  27.538  35.517  11.997
63265W        W30333  39.851  38.463  10.583
63266W        W30334  26.003  35.049  10.909
63267W        W30335  25.555  24.163   2.280
63268W        W30336  20.146  20.569  12.049
63269W        W30337  12.218   9.724   4.204
63270W        W30338   7.669  24.029   0.355
63271W        W30339  36.450  44.271   4.750
63272W        W30340  36.025  40.523  10.962
63273W        W30341  14.627  44.317   2.889
63274W        W30342  15.646  12.704  13.459
63275W        W30343   8.179  21.579   4.607
63276W        W30344  25.506  33.593  14.910
63277W        W30345  15.600  27.584  13.813
63278W        W30346  42.918  30.133  12.370
63279W        W30347  10.243  13.774  12.971
63280W        W30348   7.762  39.396  14.902
63281W        W30349  44.791   8.819   1.374
63282W        W30350  14.221  12.171   0.908
63283W        W30351  34.049  38.963  13.905
63284W        W30352  43.482  10.237  13.446
63285W        W30353  25.622  14.707   3.791
63286W        W30354  24.669  15.321  10.887
63287W        W30355  18.604   3.944   1.889
63288W        W30356  31.009  38.354  13.028
63289W        W30357  22.192   3.304   1.228
63290W        W30358  10.757  18.153   4.203
63291W        W30359  40.997  37.963   1.827
63292W        W30360   1.950  34.436  13.502
63293W        W30361   4.406  37.357   2.240
63294W        W30362  41.315  25.655   1.895
63295W        W30363  31.509  16.750   2.348
63296W        W30364  26.196   7.802   3.830
63297W        W30365  34.054  24.499   1.719
63298W        W30366  32.913  30.603   4.120
63299W        W30367  16.659  44.424   0.771
63300W        W30368  10.234  17.154  11.896
63301W        W30369  31.436   9.740   1.772
63302W        W30370  19.197   8.161   1.244
63303W        W30371  36.376   8.858  13.397
63304W        W30372  25.034   2.957   1.393
63305W        W30373  10.839  43.019  12.041
63306W        W30374  13.792   3.264  14.417
63307W        W30375  20.626   3.862  14.474
63308W        W30376   3.860   3.858  11.125
63309W        W30377  12.313  38.532  11.974
63310W        W30378  37.939  38.372   1.724
63311W        W30379  12.290   5.764   2.271
63312W        W30380  33.015  15.225  12.004
63313W        W30381  34.498   0.366  11.412
63314W        W30382  33.069  19.572  11.014
63315W        W30383   7.297  43.890   3.224
63316W        W30384  25.967  10.876   0.331
63317W        W30385  37.019  38.940   3.289
63318W        W30386  35.368  18.764  14.783
63319W        W30387  33.468  20.644  10.514
63320W        W30388   6.231  13.164  10.463
63321W        W30389  14.666  10.366   4.143
63322W        W30390  43.991   2.763   3.355
63323W        W30391   6.879  35.457  12.918
63324W        W30392  31.004  18.222  10.899
63325W        W30393   6.270  42.962  10.007
63326W        W30394  21.033   5.311   1.807
63327W        W30395  12.153  33.557   2.764
63328W        W30396  35.555   3.736  13.342
63329W        W30397  43.801  27.010   0.327
63330W        W30398  14.235  24.082  11.080
63331W        W30399  13.830  34.084   4.331
63332W        W30400   8.800  25.684   0.755
63333W        W30401   1.360  15.153   2.871
63334W        W30402   8.744  10.719  12.553
63335W        W30403  32.093  32.445   1.908
63336W        W30404  22.561  40.546  11.037
63337W        W30405   1.806  34.977  11.417
63338W        W30406  33.612  24.521   2.322
63339W        W30407  12.147  22.659  10.414
63340W        W30408  27.482   6.734  14.366
63341W        W30409  41.960  19.731   4.311
63342W        W30410  15.680  25.100   0.913
63343W        W30411   2.778  44.942  11.590
63344W        W30412  43.459  28.029  12.995
63345W        W30413  28.047  40.981   0.306
63346W        W30414  39.919  18.143   4.808
63347W        W30415   6.720   7.270  10.632
63348W        W30416  37.919  28.002   0.414
63349W        W30417  44.377  30.953  12.513
63350W        W30418   8.727   0.314  12.889
63351W        W30419  43.783  41.490  11.997
63352W        W30420  23.714  36.864   0.736
63353W        W30421  29.061   1.787   1.835
63354W        W30422  23.047  27.011  12.077
63355W        W30423  44.322  29.443   0.382
63356W        W30424  41.455  36.376   2.716
63357W        W30425   1.337   6.338   3.633
63358W        W30426  32.888   8.817  11.963
63359W        W30427  37.576  37.504  14.432
63360W        W30428  40.950  42.321  12.346
63361W        W30429  31.105   5.282   4.321
63362W        W30430  22.131  15.245   3.788
63363W        W30431  16.113  22.098   1.241
63364W        W30432  11.851  27.596   3.652
63365W        W30433  30.449  17.276  13.354
63366W        W30434  29.087  21.159   2.247
63367W        W30435   8.830  37.469  10.907
63368W        W30436  41.352   5.886  12.942
63369W        W30437  26.672  30.471   1.756
63370W        W30438  35.945  42.871   4.651
63371W        W30439  29.109  23.707   4.211
63372W        W30440   5.777  37.930  12.397
63373W        W30441  12.285  37.991  10.629
63374W        W30442   6.185  26.636  11.962
63375W        W30443  42.524  28.150   3.800
63376W        W30444  40.052  25.617   2.898
63377W        W30445   4.817   3.243   4.177
63378W        W30446   9.714   9.149   1.274
63379W        W30447  13.706   1.781   3.682
63380W        W30448   4.842  14.782  10.965
63381W        W30449  34.507  39.844   0.741
63382W        W30450   5.885  27.941  11.909
63383W        W30451  13.137   0.357   4.658
63384W        W30452  20.267  23.173   2.205
63385W        W30453  30.432  13.602  13.868
63386W        W30454  40.025  41.849   1.912
63387W        W30455  11.801  39.845  10.607
63388W        W30456  19.186   6.786  10.577
63389W        W30457   1.806  39.558   2.796
63390W        W30458  22.725  12.844   3.782
63391W        W30459  33.920  31.619  12.830
63392W        W30460  22.216  18.569  14.366
63393W        W30461  30.143  31.588  13.882
63394W        W30462  18.151  24.213  14.491
63395W        W30463   0.465  43.917   4.656
63396W        W30464  20.561   2.277   2.764
63397W        W30465   2.466  20.637   2.353
63398W        W30466  24.157   3.873   3.196
63399W        W30467  43.012  25.966  12.484
63400W        W30468  13.735  17.081  11.512
63401W        W30469  42.941  25.024   2.823
63402W        W30470   5.690  39.901   1.926
63403W        W30471   0.327  24.162  12.386
63404W        W30472  44.764  10.364  13.059
63405W        W30473  17.751   5.778  14.020
63406W        W30474  12.678  34.475   1.365
63407W        W30475  14.803   6.827  10.575
63408W        W30476   7.232   5.285  13.837
63409W        W30477   4.226  15.721   3.163
63410W        W30478   1.939  31.972  10.563
63411W        W30479  19.149  32.608   4.137
63412W        W30480  20.205  39.560   4.322
63413W        W30481  22.059  38.984   3.386
63414W        W30482   7.837  21.041  14.976
63415W        W30483  23.684  39.332   0.808
63416W        W30484  29.040  19.681  10.488
63417W        W30485  29.559  10.293  14.493
63418W        W30486  41.449  24.479  11.417
63419W        W30487  22.622   6.337   1.382
63420W        W30488  34.087  39.902   1.711
63421W        W30489  11.778  30.966   3.849
63422W        W30490  14.242  13.775  13.355
63423W        W30491  33.874   8.380   3.173
63424W        W30492  36.019  11.715  12.934
63425W        W30493   5.320  36.548  13.825
63426W        W30494  12.216  14.269  14.842
63427W        W30495  11.752  23.608  13.868
63428W        W30496   0.764   5.846   1.911
63429W        W30497  40.851  24.062   3.197
63430W        W30498  23.569   2.863  11.892
63431W        W30499  26.614  28.668   4.620
63432W        W30500  28.578  24.181   4.330
63433W        W30501  39.812  33.409   4.686
63434W        W30502  29.080   8.381  12.825
63435W        W30503  30.550   7.410   3.240
63436W        W30504  18.765   4.710  11.563
63437W        W30505  29.973  39.343  11.063
63438W        W30506   0.369  38.055  14.489
63439W        W30507  39.366  41.037  11.970
63440W        W30508  25.134  43.767   4.258
63441W        W30509  16.284   0.983  14.352
63442W        W30510   6.394  39.063  10.028
63443W        W30511  21.092  23.995  12.837
63444W        W30512  27.942  13.642  12.043
63445W        W30513  16.756  26.003  10.465
63446W        W30514  17.196  31.138   3.787
63447W        W30515  10.868  26.110   3.380
63448W        W30516   5.202  44.365   0.801
63449W        W30517  33.468  17.717  14.894
63450W        W30518  41.839  23.224  10.509
63451W        W30519   7.666  19.690  13.515
63452W        W30520  16.248  22.180  10.641
63453W        W30521  16.183  21.626   2.713
63454W        W30522  41.305  40.517   2.704
63455W        W30523  25.467  43.869   0.767
63456W        W30524  27.072  13.728  14.859
63457W        W30525  17.130  12.769  11.602
63458W        W30526  20.087  27.530   3.665
63459W        W30527   9.799  43.434  14.836
63460W        W30528  33.393  11.172  11.579
63461W        W30529   7.388  31.920   4.347
63462W        W30530  35.559  35.865   2.687
63463W        W30531  24.508  11.673   2.185
63464W        W30532  24.164  14.805  11.088
63465W        W30533  36.911   3.401   2.179
63466W        W30534  22.690  18.748   1.342
63467W        W30535  41.438  19.283   4.748
63468W        W30536  10.234  37.514  13.940
63469W        W30537  25.205  16.636   3.834
63470W        W30538  21.686   8.808   1.272
63471W        W30539   9.352  30.970  12.479
63472W        W30540   8.701  24.973  11.009
63473W        W30541  20.679   7.398  12.439
63474W        W30542  33.001  32.971   4.630
63475W        W30543  22.173  39.849   2.373
63476W        W30544  44.422   2.243   2.356
63477W        W30545  37.051   1.481   4.644
63478W        W30546  30.462  39.467  10.914
63479W        W30547  30.595   2.354   3.227
63480W        W30548  15.661  14.295  11.915
63481W        W30549  30.107   0.300   2.349
63482W        W30550   9.322  33.934  13.792
63483W        W30551  11.175  37.499  13.025
63484W        W30552   6.835   2.300   2.678
63485W        W30553  33.405  30.426   1.903
63486W        W30554   0.397  25.169  12.347
63487W        W30555  11.635  36.842  14.000
63488W        W30556  35.457  34.927  10.644
63489W        W30557  16.143  40.422  11.954
63490W        W30558  36.989   3.924  11.025
63491W        W30559  28.492  10.766  13.884
63492W        W30560   4.764  30.026   3.214
63493W        W30561  42.991  23.024   1.892
63494W        W30562  11.713  38.849   2.714
63495W        W30563  22.627   4.214   0.903
63496W        W30564   9.644  16.305   1.365
63497W        W30565  28.967  18.603  13.509
63498W        W30566  15.681  40.907  14.327
63499W        W30567  24.670  33.047  11.433
63500W        W30568  21.106  26.601   0.858
63501W        W30569  43.972   5.368   2.405
63502W        W30570  39.374   5.325  13.007
63503W        W30571   6.296  40.808  14.444
63504W        W30572   3.756   0.865  10.598
63505W        W30573  41.338  33.900   1.836
63506W        W30574  19.282  39.338   4.230
63507W        W30575  10.150  29.948   0.343
63508W        W30576   7.310  33.558  13.832
63509W        W30577   1.403  23.092  11.584
63510W        W30578  12.125  39.847   4.232
63511W        W30579  32.432   4.779   0.387
63512W        W30580  39.461   7.736   0.945
63513W        W30581  11.359  27.652  11.417
63514W        W30582  19.039  39.356   0.738
63515W        W30583  18.058  34.608   3.859
63516W        W30584  27.498  11.253   0.426
63517W        W30585   3.730  44.845  10.577
63518W        W30586  19.670  30.153  14.504
63519W        W30587  27.124   7.222  12.514
63520W        W30588  38.368  26.615  12.824
63521W        W30589  25.168  27.087  14.480
63522W        W30590  40.825  21.036   2.247
63523W        W30591   6.885  43.788   3.184
63524W        W30592   9.337  40.809   2.716
63525W        W30593  33.957  12.192  11.431
63526W        W30594  37.867  35.422   0.859
63527W        W30595   1.334  26.596   3.182
63528W        W30596  26.991  22.148   2.767
63529W        W30597   4.362  15.811  11.027
63530W        W30598  36.358  36.449  11.036
63531W        W30599  43.788  11.138   3.172
63532W        W30600  21.100  25.671  13.012
63533W        W30601  17.223  13.630   0.406
63534W        W30602  27.691  42.836   1.259
63535W        W30603  29.158  39.872   1.808
63536W        W30604  19.085  19.572  11.981
63537W        W30605  43.415  30.418  13.544
63538W        W30606  40.513  35.585  11.990
63539W        W30607  43.960  10.216  10.576
63540W        W30608  14.173  19.176  14.438
63541W        W30609  22.225  19.063  13.953
63542W        W30610  10.193  27.176  13.483
63543W        W30611  26.512  23.719  13.956
63544W        W30612  43.952   1.426   3.149
63545W        W30613  25.204  15.249  11.513
63546W        W30614  33.047  29.099   1.235
63547W        W30615  38.881  36.061  11.050
63548W        W30616  10.678  25.544  11.961
63549W        W30617  36.533  33.085   3.739
63550W        W30618   1.954  25.583   4.765
63551W        W30619  39.477   7.788   1.787
63552W        W30620  43.811   6.186   0.947
63553W        W30621   5.363  31.645  13.940
63554W        W30622   0.905  21.566  14.468
63555W        W30623  42.964  10.240  13.908
63556W        W30624   3.216  20.189  12.038
63557W        W30625  33.537  19.568   0.801
63558W        W30626  19.058  28.098   4.335
63559W        W30627  20.135  43.371  11.448
63560W        W30628   7.886  34.413   1.340
63561W        W30629  12.227   0.873  12.987
63562W        W30630  25.526   9.692   1.314
63563W        W30631   1.960  10.683   2.826
63564W        W30632   8.662  26.098   3.206
63565W        W30633  37.954   6.772  12.540
63566W        W30634  11.635   4.319  14.921
63567W        W30635   2.288  38.986  12.397
63568W        W30636  26.005   9.731  14.466
63569W        W30637  40.977  41.501   2.852
63570W        W30638  38.075  22.123  13.403
63571W        W30639  22.081  34.418   3.639
63572W        W30640  11.787  41.399   0.795
63573W        W30641  40.394  17.675   4.251
63574W        W30642  31.111  14.728  14.398
63575W        W30643  11.836   4.883  12.049
63576W        W30644  31.119   6.921  13.439
63577W        W30645  24.575  13.145  11.971
63578W        W30646  26.498  25.216  12.512
63579W        W30647  31.480  39.050   1.755
63580W        W30648  32.536   3.298  12.826
63581W        W30649  19.280   8.880  11.526
63582W        W30650   0.352  30.496   1.327
63583W        W30651  17.097  19.728  13.544
63584W        W30652  34.514  18.123   4.248
63585W        W30653   6.290  16.690  13.916
63586W        W30654  10.366  11.127  14.356
63587W        W30655  15.700   2.903   2.877
63588W        W30656  31.500   9.237  11.905
63589W        W30657  19.570  38.871  11.036
63590W        W30658  28.659  35.461   2.760
63591W        W30659  19.658  39.438  14.926
63592W        W30660   7.374  26.049  11.598
63593W        W30661  43.404  23.581  10.558
63594W        W30662  42.512  23.576  13.021
63595W        W30663   9.297  24.552   1.282
63596W        W30664  25.498  29.109   4.837
63597W        W30665  37.397  30.095   4.727
63598W        W30666   5.744  23.557   1.778
63599W        W30667  30.048  34.413   1.848
63600W        W30668  33.038   4.918  14.378
63601W        W30669  30.130  12.736  10.580
63602W        W30670  37.552  44.768   2.316
63603W        W30671  28.942  13.811   5.231
63604W        W30672  43.391  37.379   5.177
63605W        W30673  14.696  26.131   0.403
63606W        W30674  26.002   5.871  13.791
63607W        W30675   8.393  14.714  13.057
63608W        W30676  10.290  44.825   2.273
63609W        W30677   1.887  14.803  12.557
63610W        W30678  29.532  34.600   2.275
63611W        W30679  15.699  21.587   3.161
63612W        W30680   4.721  14.248   1.812
63613W        W30681  31.031  18.555  12.023
63614W        W30682  33.875  41.423   0.395
63615W        W30683  35.930  42.368  13.024
63616W        W30684  15.628  41.361  13.011
63617W        W30685  11.785  26.998  10.520
63618W        W30686  42.025   4.229   1.784
63619W        W30687  32.633  26.958   2.334
63620W        W30688  19.255  40.332  13.472
63621W        W30689  42.031  39.407  14.886
63622W        W30690  14.775   7.376  13.064
63623W        W30691   8.769  21.656  11.890
63624W        W30692   6.369  40.877   1.441
63625W        W30693  30.082  39.465   0.923
63626W        W30694  36.404  38.074  12.363
63627W        W30695  22.071  10.354  14.406
63628W        W30696  32.535  44.865  11.002
63629W        W30697   9.307  10.793  12.558
63630W        W30698  27.525  12.169  10.518
63631W        W30699  18.117  34.095  14.434
63632W        W30700  41.789  13.769  13.820
63633W        W30701  15.676  29.494  10.516
63634W        W30702   5.412  13.298   4.617
63635W        W30703  15.310  12.218  11.041
63636W        W30704   9.837  13.769  10.949
63637W        W30705  21.095  30.940  14.954
63638W        W30706   2.916  43.967  13.888
63639W        W30707  18.136   8.661  12.843
63640W        W30708  12.315  39.952  13.853
63641W        W30709  29.066  28.494  11.463
63642W        W30710  30.526  16.637   0.934
63643W        W30711  33.041  18.139  11.529
63644W        W30712  42.927  40.536   5.215
63645W        W30713  23.619  42.452   1.833
63646W        W30714  18.690   0.802  14.840
63647W        W30715  28.945   1.368   4.203
63648W        W30716  35.419  13.641  11.027
63649W        W30717  36.991  15.785   3.352
63650W        W30718  40.410   9.381  13.448
63651W        W30719  27.644  34.417  14.309
63652W        W30720  22.724  17.180   3.207
63653W        W30721   2.848  38.049  14.396
63654W        W30722  19.220  23.618  11.112
63655W        W30723  36.032  22.247  12.094
63656W        W30724   4.256  33.964   3.266
63657W        W30725  44.943   8.366  13.888
63658W        W30726  44.466   2.321   1.433
63659W        W30727  27.659  43.938   3.799
63660W        W30728  35.969   7.687   1.818
63661W        W30729  14.278  30.493  11.600
63662W        W30730  22.167  23.613   2.762
63663W        W30731   1.825  10.267   9.938
63664W        W30732   6.296  26.457   0.382
63665W        W30733  29.491  38.840  11.400
63666W        W30734  26.990  42.455   3.768
63667W        W30735  41.441  20.264   1.757
63668W        W30736  20.034  15.083   1.265
63669W        W30737   9.368  29.004   2.747
63670W        W30738  42.414   0.452   1.222
63671W        W30739  41.863   6.790   1.384
63672W        W30740  20.039  21.079  12.437
63673W        W30741  34.933  16.677   0.917
63674W        W30742  39.461  27.564  14.401
63675W        W30743  26.541  33.973   4.332
63676W        W30744   1.472   0.946   2.667
63677W        W30745  14.226  13.601  11.587
63678W        W30746   5.334  10.285   3.214
63679W        W30747  29.059  13.276  14.486
63680W        W30748  25.492  19.069   2.704
63681W        W30749  21.043   6.426   0.924
63682W        W30750   4.907  10.334  13.346
63683W        W30751  30.114  23.684   5.289
63684W        W30752  16.789  27.998  10.022
63685W        W30753  14.820  18.208  14.899
63686W        W30754  19.276  43.491   1.924
63687W        W30755   4.345   3.902   1.826
63688W        W30756  37.976  23.058  12.953
63689W        W30757  21.577  26.588   3.843
63690W        W30758  10.688  26.095   2.797
63691W        W30759  42.354  25.538  14.343
63692W        W30760   6.226  38.851  12.453
63693W        W30761  20.139  27.987  12.522
63694W        W30762  29.023   5.791   2.722
63695W        W30763  37.381  39.988   4.742
63696W        W30764  41.002   4.778  11.603
63697W        W30765   0.416  33.011   1.379
63698W        W30766   4.388  22.596   3.257
63699W        W30767  28.103  11.669  12.844
63700W        W30768  41.307  40.799  10.578
63701W        W30769   5.383  36.917  11.986
63702W        W30770  14.119  24.579  11.883
63703W        W30771  21.032  11.711  12.992
63704W        W30772   7.850  27.150  11.425
63705W        W30773  26.657   4.240   0.818
63706W        W30774   0.806  16.768   2.665
63707W        W30775   0.385  24.570   0.381
63708W        W30776  17.289  16.793   3.838
63709W        W30777   7.740  17.226   1.734
63710W        W30778  23.114  15.182   0.290
63711W        W30779  40.473  31.550  12.971
63712W        W30780   6.184  30.513   3.804
63713W        W30781  13.755  30.533  13.960
63714W        W30782  32.614  32.491  11.028
63715W        W30783   9.746  19.043   4.676
63716W        W30784  44.443  37.029   3.648
63717W        W30785   9.878  31.979   2.364
63718W        W30786  10.648  43.433   3.868
63719W        W30787  40.506  38.388   4.711
63720W        W30788   1.345  18.085  11.939
63721W        W30789  21.661  15.595   4.326
63722W        W30790   9.767  35.510  13.542
63723W        W30791  31.051  43.903   2.705
63724W        W30792  21.217  16.736  11.100
63725W        W30793   4.845  40.390   4.267
63726W        W30794  35.031   4.877   0.960
63727W        W30795  35.365  28.966   3.787
63728W        W30796   2.848  19.085  10.533
63729W        W30797  23.656  40.381  10.973
63730W        W30798  43.396  11.327  12.933
63731W        W30799  40.509  29.526  12.346
63732W        W30800  21.650  31.510   1.294
63733W        W30801  37.418   4.449  11.936
63734W        W30802   4.931   1.942   1.378
63735W        W30803  41.509  18.689   3.174
63736W        W30804  33.395  20.260   1.408
63737W        W30805  37.904  33.556   4.739
63738W        W30806  32.059  40.397   1.860
63739W        W30807   1.773  41.907  11.093
63740W        W30808  43.405   6.344  11.016
63741W        W30809  42.483  18.256  11.955
63742W        W30810  33.055  14.617  13.475
63743W        W30811  22.128   4.727   0.758
63744W        W30812   0.387  22.048  10.625
63745W        W30813  37.402  32.493   2.724
63746W        W30814  36.055  15.674  14.307
63747W        W30815  24.530  19.759  11.487
63748W        W30816  28.648   9.812  13.452
63749W        W30817  27.953  12.829  14.423
63750W        W30818  10.291   0.347   0.739
63751W        W30819   6.239  25.977  13.424
63752W        W30820  12.853   9.385   1.444
63753W        W30821  35.865  39.974   4.318
63754W        W30822  30.540  37.486  12.975
63755W        W30823   6.835   6.376   3.196
63756W        W30824  24.005   9.678   1.271
63757W        W30825  26.096  16.593   2.348
63758W        W30826  41.860  32.607   3.630
63759W        W30827  30.009  24.586  14.010
63760W        W30828  11.658  32.453  13.420
63761W        W30829  10.713  22.716  13.952
63762W        W30830  30.060  30.015  13.451
63763W        W30831   7.755  11.326  10.543
63764W        W30832  35.424  24.579  10.973
63765W        W30833  34.527  28.160  13.382
63766W        W30834   6.688  15.690   0.859
63767W        W30835  21.028  36.366   3.663
63768W        W30836   0.921  34.942  10.005
63769W        W30837  30.428   4.746  14.015
63770W        W30838  32.523  21.211   1.386
63771W        W30839  43.935  12.739  13.414
63772W        W30840  40.909   5.904   2.308
63773W        W30841  37.080  43.872   4.691
63774W        W30842  34.915   9.273   0.311
63775W        W30843  29.061  18.067  12.481
63776W        W30844  35.479  39.436   2.744
63777W        W30845  16.117   4.315   0.323
63778W        W30846  19.640  14.096   3.162
63779W        W30847   4.921  24.679  10.446
63780W        W30848  12.627   4.439  11.086
63781W        W30849  33.935  12.347  12.007
63782W        W30850   2.259  37.397   2.698
63783W        W30851   8.372  17.628   1.819
63784W        W30852  22.557   6.884   4.238
63785W        W30853   1.426  12.679   4.346
63786W        W30854  20.242  32.892   0.457
63787W        W30855  24.143  44.345  14.964
63788W        W30856  36.458  38.850  10.129
63789W        W30857  36.353   9.827  12.567
63790W        W30858  21.563  40.043   1.265
63791W        W30859  26.112  42.946  12.830
63792W        W30860  36.395   6.342   2.885
63793W        W30861  19.770  28.087  10.111
63794W        W30862  22.145  21.091   3.366
63795W        W30863  35.440  34.013  14.357
63796W        W30864  18.233  26.662   1.282
63797W        W30865   2.944  39.023   0.934
63798W        W30866  43.780  18.285   3.166
63799W        W30867  23.655   6.803   1.440
63800W        W30868  31.483  44.450   2.780
63801W        W30869  28.616   1.917  13.792
63802W        W30870  17.216  21.134   0.382
63803W        W30871  37.354  41.914   2.230
63804W        W30872   8.694  36.880  11.450
63805W        W30873   9.667  37.877  14.516
63806W        W30874  35.107  22.063  10.565
63807W        W30875  34.461  24.006  13.949
63808W        W30876  12.857  19.185   0.334
63809W        W30877  41.522   1.885  10.539
63810W        W30878  28.549  34.007  13.060
63811W        W30879  22.731  40.436   0.374
63812W        W30880   4.293   8.214   3.852
63813W        W30881  24.126   8.248  13.402
63814W        W30882   3.736   6.709   1.308
63815W        W30883  12.695  15.824  12.058
63816W        W30884   3.309  13.204   2.869
63817W        W30885  39.355   0.485   0.415
63818W        W30886  17.138   3.334   3.783
63819W        W30887  27.136  26.519   4.181
63820W        W30888  26.061  37.391  11.103
63821W        W30889  24.517  22.238  13.456
63822W        W30890   5.433   6.906   3.826
63823W        W30891  43.977  22.230   2.765
63824W        W30892  28.476   4.843  13.318
63825W        W30893  17.119  36.362  11.552
63826W        W30894  44.811   7.173  13.964
63827W        W30895  20.565  33.068  12.877
63828W        W30896  35.021  43.804   4.661
63829W        W30897   7.408  26.016  11.985
63830W        W30898  23.105   6.779  11.410
63831W        W30899  43.963  37.034  11.539
63832W        W30900   3.813  28.134   1.393
63833W        W30901  34.110  44.402   2.715
63834W        W30902  24.654  22.082  14.772
63835W        W30903  21.097   4.774  13.011
63836W        W30904  32.939   2.794   2.700
63837W        W30905   1.792  22.687   3.192
63838W        W30906   5.910  21.158   3.795
63839W        W30907  23.115  23.489   4.770
63840W        W30908  36.377  35.012   1.743
63841W        W30909   6.786   1.774  11.602
63842W        W30910  39.854   2.947   2.265
63843W        W30911  15.674  15.791   0.270
63844W        W30912  30.034  35.415   4.350
63845W        W30913   7.202  39.485  12.950
63846W        W30914  15.237  42.415  10.625
63847W        W30915  22.619  25.054   5.191
63848W        W30916  15.676  43.368   4.667
63849W        W30917   5.830  33.975   1.305
63850W        W30918  13.764  27.996  10.420
63851W        W30919  24.599   6.368  14.413
63852W        W30920  27.196   0.947  14.857
63853W        W30921   9.154  22.223   4.642
63854W        W30922  36.551  23.523   3.665
63855W        W30923  20.625  16.308   3.833
63856W        W30924  26.158  35.459   0.377
63857W        W30925  18.734  13.187  13.861
63858W        W30926   6.203   8.250  12.912
63859W        W30927   3.408  38.350  11.399
63860W        W30928  27.005  30.459  12.947
63861W        W30929  29.593   6.406  14.287
63862W        W30930  24.185  29.093  12.342
63863W        W30931  30.907   2.768  10.619
63864W        W30932  14.175   4.759   1.357
63865W        W30933  25.001  24.586  13.354
63866W        W30934  13.171  29.548   0.300
63867W        W30935  41.902  10.191  14.322
63868W        W30936  43.287  15.765  13.327
63869W        W30937  15.298  24.973  14.305
63870W        W30938  28.110  43.921   1.424
63871W        W30939  20.690  13.800  12.939
63872W        W30940  23.498   4.841  10.920
63873W        W30941  25.194   5.312  12.049
63874W        W30942  26.607  16.311  13.382
63875W        W30943  38.856  14.235  13.800
63876W        W30944  41.366  43.415   1.859
63877W        W30945   1.830  40.992   0.275
63878W        W30946  29.948   7.250  12.424
63879W        W30947  26.481  11.858   3.800
63880W        W30948  25.688  23.071   4.285
63881W        W30949  36.448  16.782  13.522
63882W        W30950  29.959   2.850   4.229
63883W        W30951  26.588  14.137   2.749
63884W        W30952  20.710  42.526   3.296
63885W        W30953  44.418   7.878  14.021
63886W        W30954  20.267   0.804  13.873
63887W        W30955   3.228  28.136  12.510
63888W        W30956   6.702  13.827  10.505
63889W        W30957   1.243  27.526   1.840
63890W        W30958   4.908  21.684  12.980
63891W        W30959  23.231   1.344  12.425
63892W        W30960  21.100   0.390   5.258
63893W        W30961  44.876   0.792   1.322
63894W        W30962  17.219  20.678   0.935
63895W        W30963  17.100   6.724   2.293
63896W        W30964  43.487  38.334  10.519
63897W        W30965  35.011  19.632  14.927
63898W        W30966  44.402  12.813   4.155
63899W        W30967  36.091  30.431  12.946
63900W        W30968   3.331  35.373  13.975
63901W        W30969   2.245   3.829   4.344
63902W        W30970  11.761   1.256  14.493
63903W        W30971  40.527  24.692   0.244
63904W        W30972   6.421  20.073  12.355
63905W        W30973   0.374  31.022  10.434
63906W        W30974  17.243  34.934   1.914
63907W        W30975  36.919  38.851  14.361
63908W        W30976  27.977   1.410   1.899
63909W        W30977  44.963  43.455   4.738
63910W        W30978  38.829   8.362  11.098
63911W        W30979  44.767   2.446   4.667
63912W        W30980  17.556   3.739  12.448
63913W        W30981  40.974  37.336  13.454
63914W        W30982  26.137   1.416   4.835
63915W        W30983   6.333   1.880   9.971
63916W        W30984  24.676  11.252  12.491
63917W        W30985  33.918  19.672   4.234
63918W        W30986  14.719  43.975  12.538
63919W        W30987  15.641  41.508  13.427
63920W        W30988  32.564  22.015  12.414
63921W        W30989  32.530  11.202   4.307
63922W        W30990  17.749   0.395  14.467
63923W        W30991   9.290   7.683   2.840
63924W        W30992  21.168  37.582   1.413
63925W        W30993   9.214  26.646   3.648
63926W        W30994  28.147  40.934  10.949
63927W        W30995   8.707   1.254   3.863
63928W        W30996  43.990  12.274  14.983
63929W        W30997  20.107  13.160   2.702
63930W        W30998   2.459  24.224  14.376
63931W        W30999   8.760   8.663  12.383
63932W        W31000  31.980  37.074   3.206
63933W        W31001   4.430  23.069   2.838
63934W        W31002  42.317  24.518   2.412
63935W        W31003   7.893  28.935  12.858
63936W        W31004  30.935   5.397   0.341
63937W        W31005  26.101  42.349  11.433
63938W        W31006   9.308  11.199   1.824
63939W        W31007  21.730   6.687   4.691
63940W        W31008   3.889  20.060   2.808
63941W        W31009  27.083  16.674  12.383
63942W        W31010   3.818   2.959  14.420
63943W        W31011  24.010  44.349   5.230
63944W        W31012  36.468  33.437  12.450
63945W        W31013   3.256  31.993   3.816
63946W        W31014   0.384   4.280   1.847
63947W        W31015  29.928   1.396  10.634
63948W        W31016  29.561  29.551   5.299
63949W        W31017  22.662  28.992   2.349
63950W        W31018   0.417  30.511  11.977
63951W        W31019  30.982  10.333  11.870
63952W        W31020  22.097  20.524   0.827
63953W        W31021  13.639   6.321   0.280
63954W        W31022   0.890  40.992   0.481
63955W        W31023  16.186  14.631  10.441
63956W        W31024  21.256   4.281   0.358
63957W        W31025   9.835  30.960  12.981
63958W        W31026  40.445  32.559   2.259
63959W        W31027  27.139   0.802   2.221
63960W        W31028   2.940  22.587  12.514
63961W        W31029  13.330  17.635   4.145
63962W        W31030  15.127  19.551  10.595
63963W        W31031  41.961  12.654  10.001
63964W        W31032   4.834  32.961   4.725
63965W        W31033  33.533   4.705   0.305
63966W        W31034  42.463  18.771  12.978
63967W        W31035  35.006  20.699  12.401
63968W        W31036  29.010  32.097   2.264
63969W        W31037   1.265  26.147  14.787
63970W        W31038  35.001  24.091  13.898
63971W        W31039  24.488  28.449   2.263
63972W        W31040  36.853  27.088   0.820
63973W        W31041   3.746  20.206   4.650
63974W        W31042  25.049  37.522   1.313
63975W        W31043  28.166  10.659  11.445
63976W        W31044   2.723  24.194   4.206
63977W        W31045   3.943  44.345   0.817
63978W        W31046  41.344   9.206  14.829
63979W        W31047   9.645  17.199  12.959
63980W        W31048  31.951  17.776  14.849
63981W        W31049  20.232  28.568   5.310
63982W        W31050   4.845  16.656  11.929
63983W        W31051  20.143   7.859   2.832
63984W        W31052  20.233  27.951   1.751
63985W        W31053  20.186  33.494  10.542
63986W        W31054  20.203  26.519  10.521
63987W        W31055  16.161  40.934  11.883
63988W        W31056  37.540  42.439   0.401
63989W        W31057  11.176   4.395  12.342
63990W        W31058  25.066  41.376   3.817
63991W        W31059  16.083  17.718   4.738
63992W        W31060  24.677  10.706  13.504
63993W        W31061  28.974  34.550  12.569
63994W        W31062  38.411  18.702   0.376
63995W        W31063  27.506  28.170  12.846
63996W        W31064  44.003   8.827   2.892
63997W        W31065  16.138  34.379   3.235
63998W        W31066  29.511  31.496   4.285
63999W        W31067  14.639  38.518   0.327
64000W        W31068  42.404  43.795  11.080
64001W        W31069  44.296   3.444   1.371
64002W        W31070  38.341   8.334   3.818
64003W        W31071  15.245  20.092  14.478
64004W        W31072   3.370  31.515   2.341
64005W        W31073  38.946   7.264   3.763
64006W        W31074   6.352  11.663   2.283
64007W        W31075  41.001  32.131  11.421
64008W        W31076  26.071  15.678   1.238
64009W        W31077   5.280  12.626   2.242
64010W        W31078   7.263  35.520   4.220
64011W        W31079  35.037  14.626  10.940
64012W        W31080  35.459  14.325  12.953
64013W        W31081  22.653   8.756  11.089
64014W        W31082   3.791  16.298   4.345
64015W        W31083  23.662  35.554   1.412
64016W        W31084  17.602  41.858  13.460
64017W        W31085   4.402   8.671   1.319
64018W        W31086  25.501  13.603   0.255
64019W        W31087  20.196  24.014   3.233
64020W        W31088   3.903  44.335  14.976
64021W        W31089  43.980  28.040  14.402
64022W        W31090  12.336  13.605  12.454
64023W        W31091  36.888  29.475  10.415
64024W        W31092  14.644  28.942   3.283
64025W        W31093  37.052  23.161   4.612
64026W        W31094  27.056  24.106   4.622
64027W        W31095   3.432  17.161   3.358
64028W        W31096  44.805  17.237  10.980
64029W        W31097  13.599   0.387   5.269
64030W        W31098  35.873  38.062   4.784
64031W        W31099   0.930  36.057  13.487
64032W        W31100  24.172  37.867   1.317
64033W        W31101   0.425  12.845  14.955
64034W        W31102  39.394  30.557  10.434
64035W        W31103   9.291  13.772  14.806
64036W        W31104  25.547  26.692  12.890
64037W        W31105  34.052   2.423   4.830
64038W        W31106  35.090  42.029  12.038
64039W        W31107  13.150   4.794   2.355
64040W        W31108  39.843  23.060   4.201
64041W        W31109  11.685  10.683   1.314
64042W        W31110  12.265  30.476  14.957
64043W        W31111  36.052  26.598  10.491
64044W        W31112   7.278  34.925   1.262
64045W        W31113  34.481  15.197  13.443
64046W        W31114   4.228  24.047  10.463
64047W        W31115  21.649  28.124   2.845
64048W        W31116  29.968  33.089   3.252
64049W        W31117  10.373  11.854   3.247
64050W        W31118  32.895  21.570  13.436
64051W        W31119  10.310   7.316   0.822
64052W        W31120  38.058  30.465   1.359
64053W        W31121  26.485  10.648   2.827
64054W        W31122  18.706  12.779  12.433
64055W        W31123  37.447  41.888   4.772
64056W        W31124  28.112  33.094  13.389
64057W        W31125   0.356  11.197   3.704
64058W        W31126  15.804  16.725   4.121
64059W        W31127  23.177  19.646   3.251
64060W        W31128   1.322  30.105  13.060
64061W        W31129  27.572   6.908   1.872
64062W        W31130   1.283   0.461   3.814
64063W        W31131  29.023   1.929  14.401
64064W        W31132  16.701  12.151  13.358
64065W        W31133  35.058  23.536   3.337
64066W        W31134   5.330   2.402   1.821
64067W        W31135  44.302  35.008  10.903
64068W        W31136   0.964   4.266   2.855
64069W        W31137  21.752  39.040  12.939
64070W        W31138  39.869  33.110  14.435
64071W        W31139  33.040  37.022   3.824
64072W        W31140  43.772  10.305  12.051
64073W        W31141  39.000  35.999  14.447
64074W        W31142  12.330  37.349   0.447
64075W        W31143  10.817  42.467  13.995
64076W        W31144  37.991   5.348  14.943
64077W        W31145  14.165  27.057  11.448
64078W        W31146   2.941  18.791   2.418
64079W        W31147  34.928  17.274   0.832
64080W        W31148  24.138  29.635   2.859
64081W        W31149  14.246  34.871   3.805
64082W        W31150  17.744  42.376   3.260
64083W        W31151  38.004   9.283   1.268
64084W        W31152  10.650  25.529  14.964
64085W        W31153  35.520  29.446   0.312
64086W        W31154   7.692   4.859  10.900
64087W        W31155  40.313  17.299  14.333
64088W        W31156  15.168  44.417   3.264
64089W        W31157  20.106  40.323  13.845
64090W        W31158  33.524  14.140   1.361
64091W        W31159  32.616  28.040  12.091
64092W        W31160  40.962  36.963  13.382
64093W        W31161  21.166  35.926  10.123
64094W        W31162  26.702   4.266   1.927
64095W        W31163  40.545   6.890   0.397
64096W        W31164  44.777  37.918  11.464
64097W        W31165   6.359  13.777   1.227
64098W        W31166   8.312  30.553   3.253
64099W        W31167  19.540  24.672  13.540
64100W        W31168  23.109  31.028  11.999
64101W        W31169  21.213  14.608   1.737
64102W        W31170  34.545  27.008  13.058
64103W        W31171  33.121  11.355   2.726
64104W        W31172  28.937  42.841   2.829
64105W        W31173  10.857  33.986  12.567
64106W        W31174  15.247  36.856  13.446
64107W        W31175   9.885  26.485   1.286
64108W        W31176  29.948  10.239   3.383
64109W        W31177  23.708   7.762  10.454
64110W        W31178  43.387  43.367  13.470
64111W        W31179   1.900  10.666  14.286
64112W        W31180  23.546  44.838  12.010
64113W        W31181  18.679  27.004  12.856
64114W        W31182   4.413   0.928   2.867
64115W        W31183  19.729  40.428   1.849
64116W        W31184  31.629  32.611   4.172
64117W        W31185   4.734  25.968   3.282
64118W        W31186  42.850  39.433  12.877
64119W        W31187  35.554   6.892   3.314
64120W        W31188  30.011   1.470   4.746
64121W        W31189  42.314  11.765   0.469
64122W        W31190  37.051  11.786  12.347
64123W        W31191   3.308  22.631  10.888
64124W        W31192  37.410   1.913  12.052
64125W        W31193   4.380   3.721  10.414
64126W        W31194  18.230  33.055   0.869
64127W        W31195  10.650   2.832  10.974
64128W        W31196  11.284  35.394  13.442
64129W        W31197  23.629   7.301   1.400
64130W        W31198  21.142  16.647  11.541
64131W        W31199  21.747   6.254   0.743
64132W        W31200  22.670  43.957  14.994
64133W        W31201  40.472  30.021  11.927
64134W        W31202  39.399  34.965   0.422
64135W        W31203   2.367   0.881   2.847
64136W        W31204   8.850  30.527  13.932
64137W        W31205  36.370  43.961   4.281
64138W        W31206  41.022  35.366  11.104
64139W        W31207  34.928  39.498   0.383
64140W        W31208  23.134  18.210   4.681
64141W        W31209   0.857  15.241   2.386
64142W        W31210  21.026   8.887   9.989
64143W        W31211  43.882  24.055  12.062
64144W        W31212  41.816  20.665   2.778
64145W        W31213  10.242  22.097  12.496
64146W        W31214  15.308   2.336  14.419
64147W        W31215  36.578  43.004   0.873
64148W        W31216  44.951  13.283  14.314
64149W        W31217  34.874  18.574   1.828
64150W        W31218  40.987  31.016  12.078
64151W        W31219  44.923  30.967   0.825
64152W        W31220  22.235  19.598  14.830
64153W        W31221   8.872  21.660  10.537
64154W        W31222  30.595  16.762  12.047
64155W        W31223  20.752  15.590   0.452
64156W        W31224  36.971  28.659  13.048
64157W        W31225  25.540   1.414  12.895
64158W        W31226  26.006   7.709  12.876
64159W        W31227   3.242  11.157   0.317
64160W        W31228  19.732  18.253   4.707
64161W        W31229  25.198  31.111  12.362
64162W        W31230  35.493  12.152  13.870
64163W        W31231  42.526   7.675  12.385
64164W        W31232   3.801  28.554  13.961
64165W        W31233  22.511  27.033  12.373
64166W        W31234  44.953  17.764   4.791
64167W        W31235  10.348   2.800  11.975
64168W        W31236  34.992  25.086  13.045
64169W        W31237  25.622  39.903  11.057
64170W        W31238  43.404  39.977  10.542
64171W        W31239   8.792  10.870   4.662
64172W        W31240  11.275  20.532   1.875
64173W        W31241  44.373  10.783   0.829
64174W        W31242   0.440  13.115   2.864
64175W        W31243  26.703   7.787   2.767
64176W        W31244  13.293  37.531  10.571
64177W        W31245  41.523   3.927  10.561
64178W        W31246  37.842  44.318   0.836
64179W        W31247  37.370   2.758   3.817
64180W        W31248  13.693  15.315   3.825
64181W        W31249  32.126  33.940   1.744
64182W        W31250  15.304  12.117  14.895
64183W        W31251  30.951  27.130   0.435
64184W        W31252  28.617  17.588  14.777
64185W        W31253  23.140   2.891  13.339
64186W        W31254   4.219   6.691  13.372
64187W        W31255  43.876  33.058   0.447
64188W        W31256   0.957  19.758  11.973
64189W        W31257  36.462  19.158  10.534
64190W        W31258  25.676  36.861  11.589
64191W        W31259  31.604  16.724   0.354
64192W        W31260  38.468  18.198  13.797
64193W        W31261  31.146  17.784   0.294
64194W        W31262  26.170  34.022  10.438
64195W        W31263  20.578  41.877  11.128
64196W        W31264  29.943  17.623   0.246
64197W        W31265  37.913  37.559   3.818
64198W        W31266   4.778  17.104  12.502
64199W        W31267  41.830  41.410  11.914
64200W        W31268  32.485  34.547  11.048
64201W        W31269  18.086  27.189  13.902
64202W        W31270   7.193   3.327   4.304
64203W        W31271  34.903  18.286  13.312
64204W        W31272  27.973   0.969   1.823
64205W        W31273   8.368  24.711  14.344
64206W        W31274   1.926  42.793  12.508
64207W        W31275  36.952  22.543   4.778
64208W        W31276  19.102  36.465   3.262
64209W        W31277  11.633  36.910  11.581
64210W        W31278  22.534  33.388  11.447
64211W        W31279   5.213   8.300  11.446
64212W        W31280   3.439  10.346   4.277
64213W        W31281  18.092  26.548  11.966
64214W        W31282   8.897   5.865  13.974
64215W        W31283  10.703   1.359  10.624
64216W        W31284  28.552  10.684  10.565
64217W        W31285  37.533  13.655  14.996
64218W        W31286  42.364  28.441   4.773
64219W        W31287  14.333  26.145   2.350
64220W        W31288  41.493  35.919   4.674
64221W        W31289  18.671  14.602   3.177
64222W        W31290  42.392  10.212  11.018
64223W        W31291  42.881  16.633  13.332
64224W        W31292  35.055  14.800   0.947
64225W        W31293  20.168  40.849  12.844
64226W        W31294  21.056  14.735  11.564
64227W        W31295  41.957  37.073   1.377
64228W        W31296  21.569  13.707  12.901
64229W        W31297  17.573  37.425  13.978
64230W        W31298   1.768  38.843  14.435
64231W        W31299  37.986   8.697   4.625
64232W        W31300  30.568  36.027  14.768
64233W        W31301  36.367  38.372  13.542
64234W        W31302   8.397  32.991  14.862
64235W        W31303  34.584  12.611   0.761
64236W        W31304  29.972  41.377  14.278
64237W        W31305  22.124   6.274  13.796
64238W        W31306  41.315   1.811   1.697
64239W        W31307  36.460  10.169  14.969
64240W        W31308  13.667   3.443  12.428
64241W        W31309  34.014  37.335  12.841
64242W        W31310  10.873  15.121  13.339
64243W        W31311  12.757  14.292  11.455
64244W        W31312  36.854  30.931  12.419
64245W        W31313  21.224   8.730   1.877
64246W        W31314   5.716  15.737   2.744
64247W        W31315  12.730  13.171   2.260
64248W        W31316   8.295  16.111  11.518
64249W        W31317  21.094  13.283  12.451
64250W        W31318   7.735  43.505  13.426
64251W        W31319  27.590  19.634   1.323
64252W        W31320  27.101  28.980   2.182
64253W        W31321  38.862  30.461  14.475
64254W        W31322  25.137  34.508  12.042
64255W        W31323  39.398   3.806  12.431
64256W        W31324  18.546  37.428  11.382
64257W        W31325  13.717  32.622   1.309
64258W        W31326  14.827  13.606   3.671
64259W        W31327  24.112  44.849   3.316
64260W        W31328  25.211  18.284  11.096
64261W        W31329  27.447  37.061  13.385
64262W        W31330  31.122  24.515  10.947
64263W        W31331  10.714  12.734  13.976
64264W        W31332   7.897   8.769  13.892
64265W        W31333  12.308  39.848  13.351
64266W        W31334  10.365  42.365  13.510
64267W        W31335  44.830  15.137   4.138
64268W        W31336  23.689  11.624  10.542
64269W        W31337  26.960  23.599   2.273
64270W        W31338  27.683  41.370  14.795
64271W        W31339  13.708  40.453   2.404
64272W        W31340   5.211   9.275  11.486
64273W        W31341  11.229   8.701  13.487
64274W        W31342  12.227  37.516  14.948
64275W        W31343  19.681  16.595   2.831
64276W        W31344  39.378  38.908  10.945
64277W        W31345  25.609   7.784   1.308
64278W        W31346  14.593  32.487   1.793
64279W        W31347  33.987  18.671   1.270
64280W        W31348   2.797  23.679  12.013
64281W        W31349  26.522  43.904   3.773
64282W        W31350   5.801  20.201  13.442
64283W        W31351  32.927  43.846   1.786
64284W        W31352  26.629  32.631  11.388
64285W        W31353   4.300  27.184  13.971
64286W        W31354  15.268  23.633  13.498
64287W        W31355   5.310   6.409   3.222
64288W        W31356  18.131  11.294   3.658
64289W        W31357  20.079  14.265   4.678
64290W        W31358  38.398   7.395   2.412
64291W        W31359  20.133  26.530   3.146
64292W        W31360  32.413   0.421  12.434
64293W        W31361  31.011  37.567  11.027
64294W        W31362  12.316  14.277   1.785
64295W        W31363  42.481  44.428  11.476
64296W        W31364   0.308  33.120  13.868
64297W        W31365  41.369   7.205  10.558
64298W        W31366  35.516   5.253   3.345
64299W        W31367   7.889   4.827   3.368
64300W        W31368  19.123  15.109   0.322
64301W        W31369  15.288  42.330   4.135
64302W        W31370  10.152  39.815   3.378
64303W        W31371   0.401  19.232  14.325
64304W        W31372  24.064  31.106  14.872
64305W        W31373   8.869  15.217  14.422
64306W        W31374  20.602   4.877  13.335
64307W        W31375  41.030   1.353   3.642
64308W        W31376   0.281   9.298   1.442
64309W        W31377   1.291  28.041  11.999
64310W        W31378  24.634  34.572   4.672
64311W        W31379  43.914   6.227   1.351
64312W        W31380  30.965  11.683   0.813
64313W        W31381  21.071  36.499  14.353
64314W        W31382  14.804  29.533  13.484
64315W        W31383   5.325   1.358  11.900
64316W        W31384  34.047  22.580   0.290
64317W        W31385  32.481  35.546  10.939
64318W        W31386   7.355   6.317   4.166
64319W        W31387  12.213  43.426  11.915
64320W        W31388  42.776  15.674   3.323
64321W        W31389  13.774   7.324   2.733
64322W        W31390  36.543  32.928  10.429
64323W        W31391  37.516  21.602  11.382
64324W        W31392  27.547  31.014   1.887
64325W        W31393  19.655   7.665  13.380
64326W        W31394  25.562  18.641  11.008
64327W        W31395  42.970   7.745   0.877
64328W        W31396  41.918  22.653  10.016
64329W        W31397  20.043  40.492  14.791
64330W        W31398  19.084  41.833   1.699
64331W        W31399  30.975   6.909   4.720
64332W        W31400  34.369  22.030  10.436
64333W        W31401  23.110  39.409  12.548
64334W        W31402  44.866  38.361  13.488
64335W        W31403   3.734  29.116  12.506
64336W        W31404  32.056  23.239   2.419
64337W        W31405  27.959  15.252   3.855
64338W        W31406  27.677  31.565   2.778
64339W        W31407  40.838  28.475   2.389
64340W        W31408   1.820  10.323   0.356
64341W        W31409  19.058  44.768   0.733
64342W        W31410   0.929  26.565  13.421
64343W        W31411  39.325   3.906   1.374
64344W        W31412  14.591   8.284   3.329
64345W        W31413   9.236  23.069  11.872
64346W        W31414  11.710   6.700   1.890
64347W        W31415   0.492  36.964  12.077
64348W        W31416  40.835  34.410  11.430
64349W        W31417  38.845   6.217  12.562
64350W        W31418  18.161  37.510   3.319
64351W        W31419  22.111  12.175   0.254
64352W        W31420   1.760  15.296  13.845
64353W        W31421  26.556   3.927  12.432
64354W        W31422  13.146  12.681  11.475
64355W        W31423   0.866  42.366   1.930
64356W        W31424  26.531   5.259   3.698
64357W        W31425  41.453  37.841  14.913
64358W        W31426  34.877  35.082  11.520
64359W        W31427  13.629  44.386   3.206
64360W        W31428  43.820  44.480   3.231
64361W        W31429  16.144  38.444  11.571
64362W        W31430   3.296  27.494  12.079
64363W        W31431   5.351  23.108  13.425
64364W        W31432  41.962  43.964   0.434
64365W        W31433   1.740  31.416  12.472
64366W        W31434  29.505  31.964  14.399
64367W        W31435  44.990  21.047  14.411
64368W        W31436  42.012   5.363   1.730
64369W        W31437  35.096  19.630  12.384
64370W        W31438  22.056  31.922   1.779
64371W        W31439  14.230  28.447  11.381
64372W        W31440  38.049   5.297  12.078
64373W        W31441  43.408  19.744  14.293
64374W        W31442  44.873  38.039  13.330
64375W        W31443   8.322  42.496   0.888
64376W        W31444  24.188   0.390   3.722
64377W        W31445  25.668  23.705  13.830
64378W        W31446  10.341  17.247  14.841
64379W        W31447  17.732  24.990  11.422
64380W        W31448   0.416  44.782   3.852
64381W        W31449   3.850  14.609  11.378
64382W        W31450  38.382  12.681  13.455
64383W        W31451   3.805  33.117   2.892
64384W        W31452  20.667  22.233   1.349
64385W        W31453  33.046   3.322   3.324
64386W        W31454   7.402  38.562   3.168
64387W        W31455  12.316  18.202   2.858
64388W        W31456  40.940  11.728  13.336
64389W        W31457  12.775  21.168   1.917
64390W        W31458  24.179   3.429   3.241
64391W        W31459  16.212  25.535  12.342
64392W        W31460  27.111  35.579  11.023
64393W        W31461  29.136  36.559  10.459
64394W        W31462   4.828  38.054   3.251
64395W        W31463   7.357  40.333  11.530
64396W        W31464   0.415  38.821  12.871
64397W        W31465  10.231  23.107   0.743
64398W        W31466  17.767  17.595  13.501
64399W        W31467  44.845  33.552  12.489
64400W        W31468  13.619  19.677   3.280
64401W        W31469  12.337  16.151   0.798
64402W        W31470  44.765  25.483  11.592
64403W        W31471  15.184  16.732   2.403
64404W        W31472  21.041   5.276   2.311
64405W        W31473  27.076  31.429   1.399
64406W        W31474  36.908  12.754  12.418
64407W        W31475  23.036   1.893   1.392
64408W        W31476   1.406  14.237  12.867
64409W        W31477  26.207  44.384  11.968
64410W        W31478  19.137   8.280  13.502
64411W        W31479   3.449  27.458   4.813
64412W        W31480  19.732  14.241  10.498
64413W        W31481  37.366  26.952   1.229
64414W        W31482  17.565  36.513  14.490
64415W        W31483  14.192  36.936   2.818
64416W        W31484   4.388  11.291   0.780
64417W        W31485   8.237  37.038   4.179
64418W        W31486  12.179   8.303   2.271
64419W        W31487  26.536  29.965  12.419
64420W        W31488  18.730   7.345  10.465
64421W        W31489  11.643  36.848  12.494
64422W        W31490  28.647  13.118   4.810
64423W        W31491   8.885  15.591   3.812
64424W        W31492  23.994  35.004   4.784
64425W        W31493  20.640  18.711  14.335
64426W        W31494   4.370   8.189  13.481
64427W        W31495  11.316  35.365  11.928
64428W        W31496  25.080  24.715   0.377
64429W        W31497  18.562  27.990  12.903
64430W        W31498  23.599  42.844   4.307
64431W        W31499  42.937  35.950   0.965
64432W        W31500  35.556  19.246   0.394
64433W        W31501   0.301   3.457   3.635
64434W        W31502  36.587  19.552   0.873
64435W        W31503  42.409  34.575   0.835
64436W        W31504   0.275   2.822  14.510
64437W        W31505  23.736  14.675   1.785
64438W        W31506  25.069  34.603  13.916
64439W        W31507  38.365  28.512   1.218
64440W        W31508  36.945  30.939   0.766
64441W        W31509  38.476  10.748  14.949
64442W        W31510  28.475   8.382   4.619
64443W        W31511  40.885  25.120  14.015
64444W        W31512  23.199  43.832  11.869
64445W        W31513   4.365  15.159  11.863
64446W        W31514  19.707  23.125   0.375
64447W        W31515  22.712  15.193   0.302
64448W        W31516  30.049  15.731   2.893
64449W        W31517  36.530  42.837   4.209
64450W        W31518   6.773  23.133  12.048
64451W        W31519   3.956  31.549  14.810
64452W        W31520  30.567  16.677  10.504
64453W        W31521   1.389  40.488   3.681
64454W        W31522  39.351  28.566   1.435
64455W        W31523  26.991   4.917   2.862
64456W        W31524  30.022  31.554   0.414
64457W        W31525  21.749  44.928   2.688
64458W        W31526  29.599  38.896  10.129
64459W        W31527  30.076  38.399  10.948
64460W        W31528   5.378  12.362   1.332
64461W        W31529  24.221   0.299  14.827
64462W        W31530   1.755  17.758  12.520
64463W        W31531  32.472  27.685  10.039
64464W        W31532  25.652  31.072  12.400
64465W        W31533   8.404  27.470   0.268
64466W        W31534  30.448  16.127   4.136
64467W        W31535  19.170  27.651   3.184
64468W        W31536  37.958  28.542   0.890
64469W        W31537  28.147  31.550   4.256
64470W        W31538  44.269  13.826   2.850
64471W        W31539  40.997  18.142   0.937
64472W        W31540  18.281  20.630   1.369
64473W        W31541  36.476  44.313   5.225
64474W        W31542  40.434  19.674  14.764
64475W        W31543  15.106   6.213   1.312
64476W        W31544   1.951  21.747  14.969
64477W        W31545  35.418  30.448  14.849
64478W        W31546  35.370  14.119   4.805
64479W        W31547  19.622  27.533   1.263
64480W        W31548  38.488  38.562   1.386
64481W        W31549   9.670  30.124  14.901
64482W        W31550  17.192  38.435  10.607
64483W        W31551  35.467  29.026   2.341
64484W        W31552  22.655  39.331   3.362
64485W        W31553  39.521   3.424  12.844
64486W        W31554   1.762  17.069   1.771
64487W        W31555  33.501  19.078   1.812
64488W        W31556  18.128  13.836  10.503
64489W        W31557   0.351  16.119  14.457
64490W        W31558   8.871  21.663   1.768
64491W        W31559  13.719  30.939  14.350
64492W        W31560  31.975  41.340   4.253
64493W        W31561  44.968  42.382   1.772
64494W        W31562  38.055   7.324  14.948
64495W        W31563   4.293  15.794   1.764
64496W        W31564  20.675  10.290   3.687
64497W        W31565  22.564   5.390   3.679
64498W        W31566  17.775  20.028   3.659
64499W        W31567  13.816  15.710  14.302
64500W        W31568  31.505  38.909  12.374
64501W        W31569  36.415  13.254  13.984
64502W        W31570  26.093  27.476   1.875
64503W        W31571   8.871  20.588  10.538
64504W        W31572  36.963  31.127  11.471
64505W        W31573  22.575  21.714  12.902
64506W        W31574   4.896  10.855   2.269
64507W        W31575  30.520  14.652  12.895
64508W        W31576  34.951  22.175   3.233
64509W        W31577  14.594  15.226   3.344
64510W        W31578  21.741  26.068   4.672
64511W        W31579  29.532  18.720   1.700
64512W        W31580  43.337   0.771  12.968
64513W        W31581  37.367  23.096   1.890
64514W        W31582  36.031  37.404   2.212
64515W        W31583  14.734  37.581   1.223
64516W        W31584  28.676  38.073   0.419
64517W        W31585  25.152  27.127  14.982
64518W        W31586  40.034   9.732  14.397
64519W        W31587  11.190  35.109  10.632
64520W        W31588   4.347  30.566  11.532
64521W        W31589  33.068  22.697  11.096
64522W        W31590  41.022  17.134  10.498
64523W        W31591  21.018  27.458   3.348
64524W        W31592  10.856   9.316   3.232
64525W        W31593  24.680  17.243  14.296
64526W        W31594  14.780  36.539   0.814
64527W        W31595  35.523  14.746   1.881
64528W        W31596  22.080   9.295   4.153
64529W        W31597  17.153  12.122   2.265
64530W        W31598  40.969   0.493  10.538
64531W        W31599   5.927  39.517  13.495
64532W        W31600  32.089  13.633  11.959
64533W        W31601  42.985  24.683   0.818
64534W        W31602  43.923  23.196  12.892
64535W        W31603  28.522   8.233   0.886
64536W        W31604  41.375  39.817   4.271
64537W        W31605  35.104   2.258   0.793
64538W        W31606  31.927  13.141   5.212
64539W        W31607   8.765  41.891   2.793
64540W        W31608  35.464  38.913  12.506
64541W        W31609  32.094  40.435   0.418
64542W        W31610  32.060  42.473   3.799
64543W        W31611  25.533  15.324   4.779
64544W        W31612   3.253  15.231  13.956
64545W        W31613  13.160  12.314   1.447
64546W        W31614  28.644  39.468  13.916
64547W        W31615  21.575  20.049  13.397
64548W        W31616  36.856  24.153  12.528
64549W        W31617   1.866  34.956  12.576
64550W        W31618  22.055   4.360   3.686
64551W        W31619  20.256   2.367  13.486
64552W        W31620  36.403  43.946   1.891
64553W        W31621  20.548   1.738   0.471
64554W        W31622  44.885  14.753  14.904
64555W        W31623  38.037  42.493  14.781
64556W        W31624  34.072  14.680   4.601
64557W        W31625  42.991  10.154   4.319
64558W        W31626  16.100  13.602   3.231
64559W        W31627  38.065  24.554  12.501
64560W        W31628  21.523  25.113   4.680
64561W        W31629  30.598  36.384   3.173
64562W        W31630  36.956  29.089   0.483
64563W        W31631  37.924  44.374  11.595
64564W        W31632   2.278  16.736  13.833
64565W        W31633   9.673   4.814   4.240
64566W        W31634  35.415  13.229   3.704
64567W        W31635  19.560  40.485   4.232
64568W        W31636  22.586  36.095  14.937
64569W        W31637  10.865   6.283   2.808
64570W        W31638  39.850  42.843   0.461
64571W        W31639   7.832  28.527  12.087
64572W        W31640   7.245  31.498   3.833
64573W        W31641  22.714  18.687  10.492
64574W        W31642  41.823  42.866   1.791
64575W        W31643  12.272  30.630   1.249
64576W        W31644  28.106  25.098   0.455
64577W        W31645  42.453  21.230  12.478
64578W        W31646  42.359  16.280   3.828
64579W        W31647  30.108  30.136   2.231
64580W        W31648  21.551  38.950   2.755
64581W        W31649  40.860  36.385   3.750
64582W        W31650  23.526  22.172   1.412
64583W        W31651  15.109  33.446  12.021
64584W        W31652  16.573  25.132   1.211
64585W        W31653   8.196  41.435   4.731
64586W        W31654  17.683  23.718   4.698
64587W        W31655  12.772  31.477   2.280
64588W        W31656   4.918  35.431  11.461
64589W        W31657   7.204  12.794  12.823
64590W        W31658  40.387  22.129   0.447
64591W        W31659  36.969  37.074   3.869
64592W        W31660  19.627   7.397  11.929
64593W        W31661  30.059  38.009  14.855
64594W        W31662   9.848  42.987   3.858
64595W        W31663   1.822  29.651   3.706
64596W        W31664   4.296  29.004   3.643
64597W        W31665  26.627  39.056  10.981
64598W        W31666  29.595   3.925   2.668
64599W        W31667   3.384  12.188   0.937
64600W        W31668  27.010  35.467   1.848
64601W        W31669   3.309  39.333   2.743
64602W        W31670  26.557  24.225   4.629
64603W        W31671  10.177  29.093  12.561
64604W        W31672  13.830  16.277   2.415
64605W        W31673   0.861  34.030  12.393
64606W        W31674  27.970  25.703  14.374
64607W        W31675  10.855  12.709  11.085
64608W        W31676  18.232  32.087  12.893
64609W        W31677  22.157  34.873  13.436
64610W        W31678  37.978  12.788  10.130
64611W        W31679  21.172   0.455   2.666
64612W        W31680   8.848  22.094   3.677
64613W        W31681  38.371  19.562  14.852
64614W        W31682  35.884  37.840  11.939
64615W        W31683  27.648  32.425   2.832
64616W        W31684   1.764  22.661   0.270
64617W        W31685   2.454  27.637   2.235
64618W        W31686   7.898  37.407   0.815
64619W        W31687  11.699   3.241  11.895
64620W        W31688  32.912  32.918  14.840
64621W        W31689  28.670   0.845   3.153
64622W        W31690  18.676  37.509   1.424
64623W        W31691  31.028  25.515   1.773
64624W        W31692  32.070   2.946  14.989
64625W        W31693  20.559  12.619  11.608
64626W        W31694  30.054  34.397   3.809
64627W        W31695  14.336  34.419   0.909
64628W        W31696  42.945  37.582   2.851
64629W        W31697  20.736  19.270   1.880
64630W        W31698  30.592   9.697   2.692
64631W        W31699  43.446  16.729   1.740
64632W        W31700  27.573  21.077  12.873
64633W        W31701  33.408  35.048   0.394
64634W        W31702   0.912  42.813  14.918
64635W        W31703   1.263   0.974   1.407
64636W        W31704  29.465  35.965  13.444
64637W        W31705   8.838  19.127   1.254
64638W        W31706   2.325  41.895  14.017
64639W        W31707   0.941  21.515   0.477
64640W        W31708   0.371  29.121  13.391
64641W        W31709  38.466  13.767  11.494
64642W        W31710   2.760  33.415   0.770
64643W        W31711   7.890  43.391   2.285
64644W        W31712  30.648  21.051  12.545
64645W        W31713   4.913  39.850   0.320
64646W        W31714  14.678  10.763  13.890
64647W        W31715  27.960  18.670   0.822
64648W        W31716  26.604  18.288   1.906
64649W        W31717  26.601  10.260  12.867
64650W        W31718  40.005   7.272  13.461
64651W        W31719  40.049  43.849   1.848
64652W        W31720   5.246   6.370   3.653
64653W        W31721  17.080  38.350  11.475
64654W        W31722   1.847  24.529   0.430
64655W        W31723  26.109   9.244   3.288
64656W        W31724  15.801  36.379  12.885
64657W        W31725  29.104  10.688   3.780
64658W        W31726  26.537  44.310   2.214
64659W        W31727   7.171   7.315   2.230
64660W        W31728  37.965  30.149  14.460
64661W        W31729  16.123  34.540  13.039
64662W        W31730  18.179  44.289   0.347
64663W        W31731  42.837  28.047   3.638
64664W        W31732  39.388  29.052   4.155
64665W        W31733  25.970  28.147  12.978
64666W        W31734  16.692  32.460   2.746
64667W        W31735  40.383  18.246   5.092
64668W        W31736  34.511  26.637   5.146
64669W        W31737   8.743  32.095  11.119
64670W        W31738  31.499  18.723  14.311
64671W        W31739   3.722   0.980  11.551
64672W        W31740   8.776  33.418  14.373
64673W        W31741  31.639  31.110  13.486
64674W        W31742  22.532  11.688   0.356
64675W        W31743  27.606  42.014  13.491
64676W        W31744  21.044  35.078   2.235
64677W        W31745  40.432  16.677  12.516
64678W        W31746   7.781  34.900  12.082
64679W        W31747   8.833  39.457   0.749
64680W        W31748  10.724  26.500  13.035
64681W        W31749  12.208  20.666   4.661
64682W        W31750  18.744  24.712  14.462
64683W        W31751  18.126  21.715   4.234
64684W        W31752   6.915  25.008  13.822
64685W        W31753   5.699  12.305   1.419
64686W        W31754  18.248  35.563  13.862
64687W        W31755  43.300  28.564  14.025
64688W        W31756  11.633   0.805  13.046
64689W        W31757  26.634  37.966   2.753
64690W        W31758  15.797  12.205   4.214
64691W        W31759  35.085  37.865   3.820
64692W        W31760  42.990  32.570  13.530
64693W        W31761  35.469  31.559   3.709
64694W        W31762  31.638  21.545   2.285
64695W        W31763  11.803  33.967  13.460
64696W        W31764  33.590  13.248   0.475
64697W        W31765   8.674   6.725  14.314
64698W        W31766   5.335  14.632  10.498
64699W        W31767  22.616  27.034  10.976
64700W        W31768  32.930   9.184  11.033
64701W        W31769  29.547  42.396  11.984
64702W        W31770  34.508  10.379   0.896
64703W        W31771  22.659  39.024  12.474
64704W        W31772  23.092  37.860   1.328
64705W        W31773  25.571   4.818   0.744
64706W        W31774  40.416  13.169  12.383
64707W        W31775  31.970  21.109  12.911
64708W        W31776  30.008  15.285   2.266
64709W        W31777   6.890   5.760   3.835
64710W        W31778  44.338  15.246  12.042
64711W        W31779  16.079  32.574   1.862
64712W        W31780  16.711  33.980   4.651
64713W        W31781  11.355  44.833   0.264
64714W        W31782  17.657   8.221  10.467
64715W        W31783   2.945  14.148  14.783
64716W        W31784  34.447   8.310   3.850
64717W        W31785   6.746  37.965   3.194
64718W        W31786  11.275  35.872   1.316
64719W        W31787  15.701  12.290  12.557
64720W        W31788  34.099  32.929  12.456
64721W        W31789   7.705  18.579   4.120
64722W        W31790   1.431  32.011   3.338
64723W        W31791   1.901   1.759   4.182
64724W        W31792  43.924  23.583   2.279
64725W        W31793  44.319  22.745   3.675
64726W        W31794  31.111  34.073  13.959
64727W        W31795  39.983   0.271  10.455
64728W        W31796  44.899  19.175  14.982
64729W        W31797  37.939  31.147  14.844
64730W        W31798  11.806  24.688   3.282
64731W        W31799  36.405  19.651  13.887
64732W        W31800   3.329  18.654  10.928
64733W        W31801   3.281   1.331  11.023
64734W        W31802  12.797  18.596  14.875
64735W        W31803  25.994  34.511   2.298
64736W        W31804  21.560  16.146  12.951
64737W        W31805  36.496  25.670   3.386
64738W        W31806  16.185  30.478  11.872
64739W        W31807   0.434   5.693  11.465
64740W        W31808  17.191   3.736  14.877
64741W        W31809  17.790  28.135  10.086
64742W        W31810  11.155  20.761  12.010
64743W        W31811   4.938  17.790  11.475
64744W        W31812  40.450  32.981   3.643
64745W        W31813  13.269   6.692   0.913
64746W        W31814  41.945  18.650  12.476
64747W        W31815   8.399  19.617   0.967
64748W        W31816   1.255   3.363   1.835
64749W        W31817   2.378   9.887   0.260
64750W        W31818  37.046  37.506   0.940
64751W        W31819   6.763  43.276   2.694
64752W        W31820  40.007  30.421   4.819
64753W        W31821   2.846  14.231  10.535
64754W        W31822   5.930   1.471  12.574
64755W        W31823  13.627  26.992  10.950
64756W        W31824  26.655  33.002  13.354
64757W        W31825   8.309  39.552  11.896
64758W        W31826  44.291   4.288   0.340
64759W        W31827  23.727  19.205  13.039
64760W        W31828  10.688   4.778   2.853
64761W        W31829  33.493   4.859  13.833
64762W        W31830  26.026  11.831   0.411
64763W        W31831  24.060   6.299  11.414
64764W        W31832  27.562  33.412  11.611
64765W        W31833  43.962  23.099   2.740
64766W        W31834   2.423   1.852   4.266
64767W        W31835   2.872  28.156  14.310
64768W        W31836  44.347  34.555   0.807
64769W        W31837  27.031  20.125   2.219
64770W        W31838  34.090  25.140   4.793
64771W        W31839  11.298   1.785  10.524
64772W        W31840  23.730  36.914   1.286
64773W        W31841   4.778   9.295  10.488
64774W        W31842  15.599  12.778   3.226
64775W        W31843  11.756  20.616  12.961
64776W        W31844  29.957  21.243  13.887
64777W        W31845  40.478  41.472  14.988
64778W        W31846  34.863  41.990   2.298
64779W        W31847  41.531  14.184   4.154
64780W        W31848  35.884  35.360   3.715
64781W        W31849   6.330  42.438   2.667
64782W        W31850  10.842   5.353   3.387
64783W        W31851  41.969  26.976   1.861
64784W        W31852  15.141  39.369  11.046
64785W        W31853  22.210  31.943   3.664
64786W        W31854  16.311  12.728   4.623
64787W        W31855  41.861   4.756   1.816
64788W        W31856  38.427  35.568   4.124
64789W        W31857   9.648   3.717  14.928
64790W        W31858  33.945  10.844   3.214
64791W        W31859  36.491  37.971  11.079
64792W        W31860  36.045  30.565   3.654
64793W        W31861  33.907  28.610   0.870
64794W        W31862  20.700   5.783   4.602
64795W        W31863  25.186  19.202  14.373
64796W        W31864  31.643  30.502   1.789
64797W        W31865  39.366  36.591  14.495
64798W        W31866  27.588  27.576  12.459
64799W        W31867   3.313  36.841  12.508
64800W        W31868  42.422  22.012   0.283
64801W        W31869  41.318   1.268   2.190
64802W        W31870  22.141  44.357  11.386
64803W        W31871  37.942  34.443   2.682
64804W        W31872  42.803   4.226   0.888
64805W        W31873   3.898  16.299  13.371
64806W        W31874  22.589  11.853  13.495
64807W        W31875  32.135  40.827  10.449
64808W        W31876   9.231  34.889   0.365
64809W        W31877   4.714  26.189  13.388
64810W        W31878  39.472  39.958   2.228
64811W        W31879  33.898  28.993   0.335
64812W        W31880  15.747  29.645   1.926
64813W        W31881  41.033  14.717  11.128
64814W        W31882  21.532  39.954  10.994
64815W        W31883  28.946  38.341  14.408
64816W        W31884  36.527   5.226  14.501
64817W        W31885  33.619   9.850   1.341
64818W        W31886   1.290  39.470  12.432
64819W        W31887   0.480  20.692  12.450
64820W        W31888  30.959  13.620   0.476
64821W        W31889  23.701  18.602   0.864
64822W        W31890  10.847  35.951  10.629
64823W        W31891  34.482  18.567  11.423
64824W        W31892  39.892  24.578  10.589
64825W        W31893  22.128  31.645   1.826
64826W        W31894  42.022  35.436  11.467
64827W        W31895   3.807  35.422   9.934
64828W        W31896   8.753  44.920   1.378
64829W        W31897  27.507   2.760   1.257
64830W        W31898  43.778  10.344   0.871
64831W        W31899  20.677  33.949  13.910
64832W        W31900  19.234  29.459  14.281
64833W        W31901  36.036  10.169   2.888
64834W        W31902  43.764  37.544  14.927
64835W        W31903  30.144  25.065  10.436
64836W        W31904  11.199   8.171  13.362
64837W        W31905  16.587  16.644  13.377
64838W        W31906   8.223  17.063  12.545
64839W        W31907   3.891  21.693  12.420
64840W        W31908   9.755  15.260  11.916
64841W        W31909  13.661  21.185  14.880
64842W        W31910  32.027  20.765  13.384
64843W        W31911  37.984  11.824  10.497
64844W        W31912   6.727  25.149   0.433
64845W        W31913  20.070  15.638  13.393
64846W        W31914  40.839  33.408  13.522
64847W        W31915   8.831  39.556  12.084
64848W        W31916  21.678  42.916   1.353
64849W        W31917  29.667  14.644  13.522
64850W        W31918   0.405  31.119  11.108
64851W        W31919   5.287   6.776   1.867
64852W        W31920  11.867   6.781  14.386
64853W        W31921  28.095  39.326  11.879
64854W        W31922   9.865  13.224   0.440
64855W        W31923  20.204  44.917  13.799
64856W        W31924  36.052  33.002   0.436
64857W        W31925  40.468   1.740  11.991
64858W        W31926  18.582  30.538   5.781
64859W        W31927  20.564  28.991   4.835
64860W        W31928  38.941   9.854   4.263
64861W        W31929  43.007  34.597   0.469
64862W        W31930  26.180  17.250   4.811
64863W        W31931   7.345  15.268   2.182
64864W        W31932  17.666  38.454   0.726
64865W        W31933  29.517   3.230   0.337
64866W        W31934  28.665   4.292  12.405
64867W        W31935   7.732  43.484   1.281
64868W        W31936   8.718   1.482  11.485
64869W        W31937  32.899  38.969  12.375
64870W        W31938  18.604  38.385   2.340
64871W        W31939  40.354  33.383  14.300
64872W        W31940  11.137   7.665   3.635
64873W        W31941  15.706  15.769   4.797
64874W        W31942  28.478  32.930  13.862
64875W        W31943  22.592  34.554   2.878
64876W        W31944   4.216  37.066   3.633
64877W        W31945   3.935  40.031   4.678
64878W        W31946   3.303  37.926  14.879
64879W        W31947   5.745   3.228  14.909
64880W        W31948   1.738  11.759   0.311
64881W        W31949  10.336  28.953  12.851
64882W        W31950   3.232   4.359  14.958
64883W        W31951  38.468   2.829  13.825
64884W        W31952  18.189  35.599  11.497
64885W        W31953   0.311  25.507   3.256
64886W        W31954  11.250  19.217  13.927
64887W        W31955  36.387  41.821  10.630
64888W        W31956   0.976  33.111   5.264
64889W        W31957  36.090  10.332   0.328
64890W        W31958  29.515  34.440  11.448
64891W        W31959  16.776  31.437   2.244
64892W        W31960  11.755  42.787  13.042
64893W        W31961  18.197  32.914  10.551
64894W        W31962  30.504   8.257  11.125
64895W        W31963  13.331  34.009   3.811
64896W        W31964  25.966  16.619   4.597
64897W        W31965   9.741   4.442  11.424
64898W        W31966   5.265   9.648   1.330
64899W        W31967  38.854  25.695   1.736
64900W        W31968  12.648   2.373  14.788
64901W        W31969  24.617  29.933  11.492
64902W        W31970   0.844  30.506  10.047
64903W        W31971  16.805   0.317   1.405
64904W        W31972  13.245  29.594   3.205
64905W        W31973  42.032  11.133   1.321
64906W        W31974   7.381  27.065  10.890
64907W        W31975  35.917   7.289  14.435
64908W        W31976  24.677  19.116  12.944
64909W        W31977  23.556  21.177   0.411
64910W        W31978  20.217  25.201   2.274
64911W        W31979  41.439  11.627  10.506
64912W        W31980   1.802   2.875  12.480
64913W        W31981  19.689   8.712   2.284
64914W        W31982  44.287  31.929   0.314
64915W        W31983  21.207  35.090   0.938
64916W        W31984  26.493  36.882  10.576
64917W        W31985  41.011  18.203   4.148
64918W        W31986  31.550   7.757  11.071
64919W        W31987   2.803   1.471   1.874
64920W        W31988  42.790  16.638   4.124
64921W        W31989  27.608  14.137  10.945
64922W        W31990  16.744  26.612   0.795
64923W        W31991  27.664  24.674   1.903
64924W        W31992  32.994  24.124   4.177
64925W        W31993  40.535  19.642  11.988
64926W        W31994  19.279  11.806   0.863
64927W        W31995  12.319   7.821  13.011
64928W        W31996  23.734  25.614   1.859
64929W        W31997  23.072  10.147  14.394
64930W        W31998  16.679  36.062  14.439
64931W        W31999  10.821  11.208   3.305
64932W        W32000   9.802   3.852  13.521
64933W        W32001  18.195  39.453  10.936
64934W        W32002   3.900  24.045  11.518
64935W        W32003  32.907  29.610   4.290
64936W        W32004  21.095   8.234  11.122
64937W        W32005  26.114  42.822   5.271
64938W        W32006  38.044  32.546   0.905
64939W        W32007  15.271  16.094   2.903
64940W        W32008  22.136  20.168  12.945
64941W        W32009  24.222  18.655  13.523
64942W        W32010  13.326  13.250   0.883
64943W        W32011   3.461  19.697   5.186
64944W        W32012   3.875  37.570   1.791
64945W        W32013  18.786  37.572   5.291
64946W        W32014  24.611  25.678   4.789
64947W        W32015  26.524  33.452   0.299
64948W        W32016  37.005  26.047  11.415
64949W        W32017  13.330  31.959  13.809
64950W        W32018   8.705  10.663  12.084
64951W        W32019  28.617  13.835   5.281
64952W        W32020  19.554  19.580   4.801
64953W        W32021   7.754  10.253  13.938
64954W        W32022  19.714  21.682   3.179
64955W        W32023  29.139  44.882   2.243
64956W        W32024  14.200  15.177  13.952
64957W        W32025   2.838  41.837   3.181
64958W        W32026  15.735  42.893   0.831
64959W        W32027   1.895  41.879   1.817
64960W        W32028  29.946  29.028   4.803
64961W        W32029  23.116   2.419   3.783
64962W        W32030  34.551   7.879  14.429
64963W        W32031  10.241  10.663   3.383
64964W        W32032  39.011   8.795   1.437
64965W        W32033  43.929   6.782  13.416
64966W        W32034  22.718  23.732   3.296
64967W        W32035  30.115  19.724  12.826
64968W        W32036  24.147  11.786   2.358
64969W        W32037   8.882  30.973  13.392
64970W        W32038   7.694  16.188   4.609
64971W        W32039  31.470  43.368  12.461
64972W        W32040  29.428   4.715  12.376
64973W        W32041  24.692   4.271   0.909
64974W        W32042  17.092  30.100   5.182
64975W        W32043  40.314  12.630   4.182
64976W        W32044  34.972   1.810   1.898
64977W        W32045   1.857   9.664   3.383
64978W        W32046  33.389  21.218   0.822
64979W        W32047  38.857  31.971   2.819
64980W        W32048  16.261  18.221  12.494
64981W        W32049   3.426  44.774   0.274
64982W        W32050  28.970  21.682  11.505
64983W        W32051  21.250  34.527   0.406
64984W        W32052  19.671  43.475  11.875
64985W        W32053  13.784  25.659  10.430
64986W        W32054  21.243   1.814   2.689
64987W        W32055  14.295  33.005  12.027
64988W        W32056  36.973  13.350  11.432
64989W        W32057  42.522  41.331   3.243
64990W        W32058  35.954  27.168  11.950
64991W        W32059  34.575  11.358   2.882
64992W        W32060  18.614  33.434  14.510
64993W        W32061  26.565  34.065   2.270
64994W        W32062  15.589  18.142  10.926
64995W        W32063  17.653  30.118  11.373
64996W        W32064  27.984  34.423   2.757
64997W        W32065  35.571  13.642   2.840
64998W        W32066  20.072   6.775  11.123
64999W        W32067  25.506  16.580   1.935
65000W        W32068  11.337   3.780   3.225
65001W        W32069   4.358  38.849   4.616
65002W        W32070  40.895  37.021   1.353
65003W        W32071  18.623  14.236   4.253
65004W        W32072  24.134  30.088  10.945
65005W        W32073  21.189   6.354  13.885
65006W        W32074  25.626  19.222   0.436
65007W        W32075  27.562  31.909   1.363
65008W        W32076  32.425  33.554  10.005
65009W        W32077  30.625  43.489   1.763
65010W        W32078  28.656  12.255  14.285
65011W        W32079   1.831  34.119  11.434
65012W        W32080  31.577  28.518  13.548
65013W        W32081   6.857   7.674   4.782
65014W        W32082  31.135   7.752   4.819
65015W        W32083  23.629  13.714   3.818
65016W        W32084  23.119  40.399   2.725
65017W        W32085  38.366  28.121   4.285
65018W        W32086  28.977   6.818   3.865
65019W        W32087  33.032  12.732  11.564
65020W        W32088  23.685  14.333   2.823
65021W        W32089  40.839  18.650  10.954
65022W        W32090  26.699  35.417  13.523
65023W        W32091  33.454  35.003  13.515
65024W        W32092  30.992  19.740   5.109
65025W        W32093   5.924  37.911   4.140
65026W        W32094  24.989  40.871   1.758
65027W        W32095   7.708  33.071   2.364
65028W        W32096  34.405  31.409  14.392
65029W        W32097  32.901  23.104  14.766
65030W        W32098  35.488   4.366   4.160
65031W        W32099  26.516   1.858   3.165
65032W        W32100  14.773  21.163  14.872
65033W        W32101   5.743   1.912   4.299
65034W        W32102  28.567  37.834   3.757
65035W        W32103   2.737  26.158   3.291
65036W        W32104  26.120  29.481  14.922
65037W        W32105  15.615  32.044   1.697
65038W        W32106  17.257  24.163   1.385
65039W        W32107  17.692  27.966  10.620
65040W        W32108  26.662  31.585  11.081
65041W        W32109  44.452   0.393  14.381
65042W        W32110  18.717  16.290   2.364
65043W        W32111  22.558  44.472  13.366
65044W        W32112  36.023  10.275   3.860
65045W        W32113   7.250  43.816   1.219
65046W        W32114  34.495  37.469   4.723
65047W        W32115  44.760  12.775   2.354
65048W        W32116  16.813  15.234   3.774
65049W        W32117  10.858  18.114  12.989
65050W        W32118   9.708  19.645  11.591
65051W        W32119  38.510   6.746  12.900
65052W        W32120  23.176   1.750   0.265
65053W        W32121  34.109   4.357  11.957
65054W        W32122   0.820  31.004   0.954
65055W        W32123   9.264  13.702  12.999
65056W        W32124  31.581  18.656   4.620
65057W        W32125  36.446  42.357   2.300
65058W        W32126  25.991  40.848   1.874
65059W        W32127  33.387  20.037   3.280
65060W        W32128  12.714  39.013  14.352
65061W        W32129  21.683  29.981   3.759
65062W        W32130   5.793  23.702   2.717
65063W        W32131  20.092   9.182   1.381
65064W        W32132  19.663  29.573  14.395
65065W        W32133  14.322  12.697  13.011
65066W        W32134  35.366  35.540   2.864
65067W        W32135  44.872  27.616   4.189
65068W        W32136  39.024  37.345  14.885
65069W        W32137  29.493  42.464  14.964
65070W        W32138   6.333   9.667  10.514
65071W        W32139  11.222   8.321  10.469
65072W        W32140  26.479  23.560  14.990
65073W        W32141  30.978  32.528  13.922
65074W        W32142  39.936   4.699  10.414
65075W        W32143  25.172  29.468   3.680
65076W        W32144  21.601  10.826   4.261
65077W        W32145  31.059  24.616   3.705
65078W        W32146  35.548  10.333  14.784
65079W        W32147   5.423  36.558  12.419
65080W        W32148   0.744  24.511  14.031
65081W        W32149   5.904  23.621  11.987
65082W        W32150  32.005  10.285  13.006
65083W        W32151   6.406  11.828  11.596
65084W        W32152  44.401  23.635  14.326
65085W        W32153  36.494  18.574  12.524
65086W        W32154  28.003  11.333   4.665
65087W        W32155  34.383  12.706   1.381
65088W        W32156  25.104   1.915  13.971
65089W        W32157  40.418  16.691  14.487
65090W        W32158  29.631  18.262  13.980
65091W        W32159   6.717  31.510  11.889
65092W        W32160   5.435  43.004   3.646
65093W        W32161   7.192  10.333   0.727
65094W        W32162  37.459  23.144  14.827
65095W        W32163  27.642  35.405   4.699
65096W        W32164  40.342   4.882  11.611
65097W        W32165  40.985  40.841  12.096
65098W        W32166  22.670  39.486  11.981
65099W        W32167  13.252   2.963   1.858
65100W        W32168  38.406  39.344  11.869
65101W        W32169  44.438  27.658  10.599
65102W        W32170  32.442  37.570  10.979
65103W        W32171   0.958   3.736   4.322
65104W        W32172  11.152  25.646   0.391
65105W        W32173  28.522   0.923   4.230
65106W        W32174  41.945   7.276  14.867
65107W        W32175   0.378   0.311   2.841
65108W        W32176   6.803  43.335  11.003
65109W        W32177  17.726   7.866   4.190
65110W        W32178  12.138  40.976  14.786
65111W        W32179  37.876  39.866  12.536
65112W        W32180  26.206  12.124   4.694
65113W        W32181  39.359  16.610  10.539
65114W        W32182  21.594  24.110  14.457
65115W        W32183  20.179  14.707  12.504
65116W        W32184   7.859  24.131   2.274
65117W        W32185  12.710   7.306   1.726
65118W        W32186  25.516  40.333  11.574
65119W        W32187  38.857   6.229  14.479
65120W        W32188  14.273  21.632   4.234
65121W        W32189   7.269  12.308   1.712
65122W        W32190   7.289  30.651   4.202
65123W        W32191  36.063  16.807  10.484
65124W        W32192   6.424  36.978   2.826
65125W        W32193  11.639  18.109  14.847
65126W        W32194  13.799   6.699   2.310
65127W        W32195   3.943  10.636   4.758
65128W        W32196  29.003   9.150  12.936
65129W        W32197  25.527  20.545   0.810
65130W        W32198   5.384  15.283   2.670
65131W        W32199  41.933  44.293  13.028
65132W        W32200  29.440  15.247  12.918
65133W        W32201   4.389  41.365  13.045
65134W        W32202  29.081  40.881  12.931
65135W        W32203   5.365  41.471   3.197
65136W        W32204   7.862  28.943  13.968
65137W        W32205  37.833  17.765   2.355
65138W        W32206  27.659  43.353   3.317
65139W        W32207  35.600  44.459   0.957
65140W        W32208  40.464  19.612  10.025
65141W        W32209  19.705  44.985  13.968
65142W        W32210   9.765  34.479  14.366
65143W        W32211  15.194  42.890  12.945
65144W        W32212   1.479  20.222   2.223
65145W        W32213  35.497  33.555  14.335
65146W        W32214  37.571  32.456   2.418
65147W        W32215  36.069  18.628  11.460
65148W        W32216  14.785  20.265   5.635
65149W        W32217   5.729   2.244   3.830
65150W        W32218  22.039  26.479  14.457
65151W        W32219  27.992   3.346  11.457
65152W        W32220  40.962   6.758   2.796
65153W        W32221  43.273  28.064   4.207
65154W        W32222  43.865  37.864  13.454
65155W        W32223  32.571   8.837   3.779
65156W        W32224  38.904  29.088  12.836
65157W        W32225  24.069  12.197  11.947
65158W        W32226  36.509  23.076  10.897
65159W        W32227  11.669  23.511   0.286
65160W        W32228  17.779  36.527  14.785
65161W        W32229  35.874   1.858   4.178
65162W        W32230  20.222  43.421  12.852
65163W        W32231   2.353  44.309  14.784
65164W        W32232  12.297  19.592  13.049
65165W        W32233   0.481  21.590   1.398
65166W        W32234  34.957  10.230   2.340
65167W        W32235  43.920  31.140  10.607
65168W        W32236  32.420  12.655  14.813
65169W        W32237  34.607  14.834  12.556
65170W        W32238  27.673   1.237   2.410
65171W        W32239  36.554  29.472   2.863
65172W        W32240  23.000  20.056   2.869
65173W        W32241  17.134  39.933  11.922
65174W        W32242  27.972   1.321   1.219
65175W        W32243   9.825  37.428  10.614
65176W        W32244   5.838  30.457  11.866
65177W        W32245  19.222   5.765  14.820
65178W        W32246  42.406   1.811   2.832
65179W        W32247  44.950  33.075   0.917
65180W        W32248  42.000  35.872   0.896
65181W        W32249  22.207  16.645   4.787
65182W        W32250  30.127   4.931   0.310
65183W        W32251   9.353  21.517   0.385
65184W        W32252  27.957  16.813   1.254
65185W        W32253  34.527  26.047  11.887
65186W        W32254  14.235  41.974  13.892
65187W        W32255  37.414  34.090  13.855
65188W        W32256  32.471  43.002  10.114
65189W        W32257  22.541   6.274   4.190
65190W        W32258  36.075  28.525  12.896
65191W        W32259  43.368   7.716   2.199
65192W        W32260  20.537  41.877  14.783
65193W        W32261  16.222  19.151   4.672
65194W        W32262  19.235  12.770  14.899
65195W        W32263  19.159  40.445   0.849
65196W        W32264  34.967  22.198  14.499
65197W        W32265  25.547   2.228  14.845
65198W        W32266  23.239  39.901   2.879
65199W        W32267  36.013  41.452   4.747
65200W        W32268  32.086  21.654   3.650
65201W        W32269  15.730  41.876   0.886
65202W        W32270  36.484  31.610   0.458
65203W        W32271  21.258  24.568  13.509
65204W        W32272  41.951  44.416   0.815
65205W        W32273  28.040  40.431   5.243
65206W        W32274  37.570  33.102   4.752
65207W        W32275  10.291  19.776   3.863
65208W        W32276  38.891  32.128   2.375
65209W        W32277   3.458  42.381  11.557
65210W        W32278   0.858   0.487  10.895
65211W        W32279  16.683  27.975  14.888
65212W        W32280  26.684   3.921   4.289
65213W        W32281  37.546  40.943  14.298
65214W        W32282  19.084  17.286  10.439
65215W        W32283  40.488  34.384   1.304
65216W        W32284  44.423  25.699   4.683
65217W        W32285  26.698  33.533   4.329
65218W        W32286  20.081   5.340  14.959
65219W        W32287  16.578  38.845   4.704
65220W        W32288  38.946  12.342  11.019
65221W        W32289  14.651  44.964  13.964
65222W        W32290  16.582  19.557   2.682
65223W        W32291  38.956   3.773  12.521
65224W        W32292  24.654  38.362  13.423
65225W        W32293  28.624   4.871  11.603
65226W        W32294  18.558  37.967   3.659
65227W        W32295  20.030  31.560   2.710
65228W        W32296  18.592  15.754  13.405
65229W        W32297  33.434   1.414   4.660
65230W        W32298  36.924   9.257  12.454
65231W        W32299  40.444  29.024  11.882
65232W        W32300  14.588  32.455  13.818
65233W        W32301  40.446  32.963   2.367
65234W        W32302   9.177  19.564   1.426
65235W        W32303  31.516  21.077   4.240
65236W        W32304  10.207  16.098  12.539
65237W        W32305   9.377   6.368   0.743
65238W        W32306  25.963  13.131   2.860
65239W        W32307   6.234   2.834   4.346
65240W        W32308  35.377  23.177  10.987
65241W        W32309  44.329  40.338  13.463
65242W        W32310  41.415   3.844  13.953
65243W        W32311  38.393  39.846   1.864
65244W        W32312  42.514  13.201   2.680
65245W        W32313  18.656   1.424  11.932
65246W        W32314  14.754  13.706  12.443
65247W        W32315  36.929   7.300  10.618
65248W        W32316   8.844  12.305  11.440
65249W        W32317   8.775  23.129   0.354
65250W        W32318  38.951  17.257   1.445
65251W        W32319  32.930  13.739   0.258
65252W        W32320  18.291  32.966   3.291
65253W        W32321  27.509  41.917  10.569
65254W        W32322  15.688  21.115  13.935
65255W        W32323  43.924  26.208   1.794
65256W        W32324   1.910  28.517  14.314
65257W        W32325  25.554  30.633  12.006
65258W        W32326  42.959   7.226   1.804
65259W        W32327  43.851  35.956  11.038
65260W        W32328  20.161  12.780  11.434
65261W        W32329  39.512   6.319   4.772
65262W        W32330  16.567   5.251  10.957
65263W        W32331   6.830  27.578  13.410
65264W        W32332  40.440   0.432   3.822
65265W        W32333  34.558  36.936   3.233
65266W        W32334  19.144  40.867   2.859
65267W        W32335  11.135  18.717   2.203
65268W        W32336  44.305  32.602  14.885
65269W        W32337  41.481  44.843   3.341
65270W        W32338  12.809  19.562  12.576
65271W        W32339  13.213   7.368   4.741
65272W        W32340   1.373   7.801   0.340
65273W        W32341  35.475  11.651   2.719
65274W        W32342   6.676  20.247   1.696
65275W        W32343  41.999  40.818   3.298
65276W        W32344  42.964  21.628  14.507
65277W        W32345  30.419  25.982   0.468
65278W        W32346  40.396  33.381   3.818
65279W        W32347  40.343   3.437   2.899
65280W        W32348   0.383  39.960   3.835
65281W        W32349  32.473  36.464   3.196
65282W        W32350  28.438   1.955   4.213
65283W        W32351  25.055  16.235   2.387
65284W        W32352  27.952  24.569   3.773
65285W        W32353  24.028  40.042  13.542
65286W        W32354  14.707  17.198   2.186
65287W        W32355  28.009   1.791   4.737
65288W        W32356   3.431  17.701  10.478
65289W        W32357  26.087  17.165  13.369
65290W        W32358  39.910  39.863  10.611
65291W        W32359  31.081  16.673   1.863
65292W        W32360   6.321  35.375  13.004
65293W        W32361  39.366  25.123   4.660
65294W        W32362   7.342  40.911   0.316
65295W        W32363  43.416  22.114  11.975
65296W        W32364  28.657  40.340   1.829
65297W        W32365   7.904  16.084   2.744
65298W        W32366  21.206  11.204   0.323
65299W        W32367  11.838  13.709   1.712
65300W        W32368  12.684  39.436  11.604
65301W        W32369  15.684  39.814   0.358
65302W        W32370   2.323  38.074   1.448
65303W        W32371   2.293  25.156   2.895
65304W        W32372   2.470  22.731  12.466
65305W        W32373  30.586  13.108   4.748
65306W        W32374  24.010  25.558   0.398
65307W        W32375   1.902  41.969  12.936
65308W        W32376  36.568  16.208  12.480
65309W        W32377   2.840  28.139  13.340
65310W        W32378  12.679  34.095  14.457
65311W        W32379  22.113   8.663  11.547
65312W        W32380   1.350  40.832  11.482
65313W        W32381   6.731   5.841  11.445
65314W        W32382  30.088  19.134  13.976
65315W        W32383  32.902  39.524   4.602
65316W        W32384   1.420  32.604   2.773
65317W        W32385  31.129   3.282  14.833
65318W        W32386  42.327  30.633  12.399
65319W        W32387  14.222  33.605  12.978
65320W        W32388  16.648  27.986   1.437
65321W        W32389   9.888  17.278   1.837
65322W        W32390  32.916  42.523  13.432
65323W        W32391   1.845   8.683   1.697
65324W        W32392  18.576  42.387  13.545
65325W        W32393  36.466  11.315   3.634
65326W        W32394  31.465  14.233  11.488
65327W        W32395  17.250  44.974  13.435
65328W        W32396  37.883  16.679  12.008
65329W        W32397  18.160  13.771  12.533
65330W        W32398  25.514  14.334   3.769
65331W        W32399  41.975   6.785  12.017
65332W        W32400  20.263  29.562  11.609
65333W        W32401  25.196  37.949  13.845
65334W        W32402  15.286  41.804   3.832
65335W        W32403  11.238  41.814  12.969
65336W        W32404  12.173  31.997  12.536
65337W        W32405   5.208  35.359  12.481
65338W        W32406  21.168  12.166  12.004
65339W        W32407   2.906  13.222  13.902
65340W        W32408  24.637  34.391  13.903
65341W        W32409   5.374  30.991   1.409
65342W        W32410  19.714  19.225   4.751
65343W        W32411  15.214  42.390   2.218
65344W        W32412  19.546  30.934  12.567
65345W        W32413  27.189   7.306   0.832
65346W        W32414  39.432  29.631   1.279
65347W        W32415   4.852   5.817   4.235
65348W        W32416  12.850  20.197   2.297
65349W        W32417  38.525  28.435  11.424
65350W        W32418  41.984  17.672   1.755
65351W        W32419  25.147   1.853  14.963
65352W        W32420  39.362   2.734   0.897
65353W        W32421   4.208  33.458   2.201
65354W        W32422  37.578  10.871   4.276
65355W        W32423  13.835  15.619   3.712
65356W        W32424  35.368  28.574  14.765
65357W        W32425  30.446  38.455  10.641
65358W        W32426  20.146  34.530   2.744
65359W        W32427  10.378  31.977  13.354
65360W        W32428   4.429  43.440   3.704
65361W        W32429  21.614  23.151   2.724
65362W        W32430  17.696  18.291  12.093
65363W        W32431  43.970  17.271   0.313
65364W        W32432   5.911   2.282   3.306
65365W        W32433  25.506  17.795   2.817
65366W        W32434  19.672  14.166   1.920
65367W        W32435   5.696  14.638  13.799
65368W        W32436   9.674   3.822   3.685
65369W        W32437  32.448  43.806  11.508
65370W        W32438  12.813  33.594   0.409
65371W        W32439  21.618  44.349   2.887
65372W        W32440  37.378  15.683  14.925
65373W        W32441  12.716  20.161   1.746
65374W        W32442  35.585   5.237  11.983
65375W        W32443  15.766  35.042  10.465
65376W        W32444  16.650  18.290   9.956
65377W        W32445  41.360  15.284  10.642
65378W        W32446  44.845  32.560   0.325
65379W        W32447   7.372  32.613  12.976
65380W        W32448  29.122  17.147  14.802
65381W        W32449   4.912  24.590   4.118
65382W        W32450   8.767  23.181   0.921
65383W        W32451  41.325  27.972   3.291
65384W        W32452  41.029  17.794  12.850
65385W        W32453   9.709  18.637  13.529
65386W        W32454  22.548   1.349  12.403
65387W        W32455  38.560  14.692   0.336
65388W        W32456  33.414  43.502   2.755
65389W        W32457  33.882  13.348  11.041
65390W        W32458   3.270  26.975   4.654
65391W        W32459  40.472  41.515   0.950
65392W        W32460  39.379   3.753   2.412
65393W        W32461  40.955   2.966  13.431
65394W        W32462  27.084  23.997   4.165
65395W        W32463  29.617   3.316   2.884
65396W        W32464  38.915   6.839   9.982
65397W        W32465  38.976  20.207  11.487
65398W        W32466  39.453  11.732   2.878
65399W        W32467  10.738  35.053  11.409
65400W        W32468  40.381  25.630  14.004
65401W        W32469  38.333  13.733  11.013
65402W        W32470   0.422  26.951  12.831
65403W        W32471  30.126  15.218   3.154
65404W        W32472  23.036  31.955   4.236
65405W        W32473  16.575   7.821   4.125
65406W        W32474  10.269  19.270   1.355
65407W        W32475  35.978  15.147  11.570
65408W        W32476  15.590  33.084   1.783
65409W        W32477  13.814  10.721   4.631
65410W        W32478  30.918   5.267   3.240
65411W        W32479  24.645  18.756   3.258
65412W        W32480  10.298  21.185   1.727
65413W        W32481  33.562  44.295   2.790
65414W        W32482  44.495  44.847  10.548
65415W        W32483  10.645  23.031  11.995
65416W        W32484  22.006   5.863   0.903
65417W        W32485  26.696  31.922  13.509
65418W        W32486   3.775  16.629  11.875
65419W        W32487  23.048   6.327   4.117
65420W        W32488  10.341  30.149  11.042
65421W        W32489  21.200  27.054  12.036
65422W        W32490  41.322  44.380  10.902
65423W        W32491  24.078  34.597  13.933
65424W        W32492  12.292  11.751  13.820
65425W        W32493  35.361  25.145  13.471
65426W        W32494   0.898  13.176  11.452
65427W        W32495  35.853  32.600   4.795
65428W        W32496  40.306  42.889  13.926
65429W        W32497  19.189  29.049  12.563
65430W        W32498  11.234   7.879  14.830
65431W        W32499  44.839  10.850   3.244
65432W        W32500  41.479  37.423  12.343
65433W        W32501  25.187  21.739   5.265
65434W        W32502  23.036  16.243  12.412
65435W        W32503  35.561   6.275  14.508
65436W        W32504  29.009  44.009  12.939
65437W        W32505  11.673  38.456   3.337
65438W        W32506  22.223  43.901   2.335
65439W        W32507   3.924   2.365  12.367
65440W        W32508   2.380  25.158   1.775
65441W        W32509  31.924  22.030  11.060
65442W        W32510  20.684  38.468   2.871
65443W        W32511  30.033  32.620  13.053
65444W        W32512   1.888   0.254   3.677
65445W        W32513  32.098   3.753   2.786
65446W        W32514  15.180  28.940  14.964
65447W        W32515  44.986  12.208  12.095
65448W        W32516   5.827  12.144   2.771
65449W        W32517  44.463   2.750   4.192
65450W        W32518   7.721  35.002   3.332
65451W        W32519  39.360  40.347  11.917
65452W        W32520  42.950   0.768  11.099
65453W        W32521  36.448  39.910  13.863
65454W        W32522  26.630  25.478  13.008
65455W        W32523   8.252  17.801  13.925
65456W        W32524   0.839   9.262  12.060
65457W        W32525  39.341   5.201   0.827
65458W        W32526  32.402   3.366  10.583
65459W        W32527  34.010  41.393   4.743
65460W        W32528  34.031  42.804  14.759
65461W        W32529  34.963  25.127   3.675
65462W        W32530  43.934  41.875   0.792
65463W        W32531  33.395   7.340   1.382
65464W        W32532  44.266  14.653  12.993
65465W        W32533   6.215  24.539   2.746
65466W        W32534  22.579   3.769  13.951
65467W        W32535  14.298  36.495   2.806
65468W        W32536  20.068  36.946   4.725
65469W        W32537  40.463  26.088  11.062
65470W        W32538  30.589  29.582  11.127
65471W        W32539   9.888  34.955   1.236
65472W        W32540  27.003  43.880   0.764
65473W        W32541  42.469  35.553  14.324
65474W        W32542  21.676  29.577   1.861
65475W        W32543  16.666   0.876   2.183
65476W        W32544  41.510   9.247   3.838
65477W        W32545  43.002  33.033  11.980
65478W        W32546  32.003  15.164  14.498
65479W        W32547  40.993   3.320   3.216
65480W        W32548  39.811  16.699  12.976
65481W        W32549  31.444  12.205  13.036
65482W        W32550  15.660   4.739  11.530
65483W        W32551  30.625  13.835  14.976
65484W        W32552  30.503  38.980   2.322
65485W        W32553  15.140   8.737  14.999
65486W        W32554   8.174  38.438   0.352
65487W        W32555  29.609  38.890  12.892
65488W        W32556  19.171  33.887  14.822
65489W        W32557  34.039   0.350  14.414
65490W        W32558  31.492  26.506   4.301
65491W        W32559   7.368  23.232  10.454
65492W        W32560  15.157   6.808  14.410
65493W        W32561   6.687  41.893  10.942
65494W        W32562  21.548  27.609  11.873
65495W        W32563   3.221  23.512  14.776
65496W        W32564  20.596  36.527  12.477
65497W        W32565  15.812  32.522   2.371
65498W        W32566  10.803   7.859  14.808
65499W        W32567  19.069   9.857   2.376
65500W        W32568   3.449  24.555   1.712
65501W        W32569   1.239  39.965  12.453
65502W        W32570  36.399  27.040  10.420
65503W        W32571  30.043   0.951   0.377
65504W        W32572  20.183  23.031  12.498
65505W        W32573  27.123   1.849  13.402
65506W        W32574  43.302  13.711   0.885
65507W        W32575  23.634   9.790  13.417
65508W        W32576  39.322  13.128   2.359
65509W        W32577   1.975  34.949   3.642
65510W        W32578  13.223  14.330   4.118
65511W        W32579  16.716  42.467  14.379
65512W        W32580  24.622   4.321   1.366
65513W        W32581  33.910  12.672   3.762
65514W        W32582   7.346  33.013  11.499
65515W        W32583  11.362  32.614  12.863
65516W        W32584  23.610  12.201   4.738
65517W        W32585  31.408   6.244   0.752
65518W        W32586   0.359  17.564   2.666
65519W        W32587  38.383  41.014   0.946
65520W        W32588   3.763  31.025  13.396
65521W        W32589  26.163  10.336  11.573
65522W        W32590   8.706  22.021  14.949
65523W        W32591  40.963  29.074   4.207
65524W        W32592   9.678  13.286   3.768
65525W        W32593  22.674  12.750   0.862
65526W        W32594   1.305  40.990  12.986
65527W        W32595   2.879   9.683  12.905
65528W        W32596   5.894  30.620   1.839
65529W        W32597   3.371  25.130   1.935
65530W        W32598   2.889   8.778  13.382
65531W        W32599  21.206  20.139   2.208
65532W        W32600   8.704  33.517   3.802
65533W        W32601   1.418  32.016   2.229
65534W        W32602  11.186  23.666   4.791
65535W        W32603   9.667  11.735   3.689
65536W        W32604  33.483  15.196   3.749
65537W        W32605  20.112  12.812   0.392
65538W        W32606  26.115  28.676  12.386
65539W        W32607  38.932  32.391  12.087
65540W        W32608  24.642   0.404  14.023
65541W        W32609   1.346  13.695  14.950
65542W        W32610  25.083  23.628   2.394
65543W        W32611  26.551  14.615   4.767
65544W        W32612  40.819  44.972  13.925
65545W        W32613   9.205  20.236   4.722
65546W        W32614  20.643  11.623   4.143
65547W        W32615  10.832  30.516  12.897
65548W        W32616  24.552  39.852   3.649
65549W        W32617  18.569  36.882  13.913
65550W        W32618  30.944  13.236  13.324
65551W        W32619  34.923  24.995  14.421
65552W        W32620   6.898  27.529  11.537
65553W        W32621  22.576  42.475   1.406
65554W        W32622  41.018  22.089  12.095
65555W        W32623  31.532  15.785   1.868
65556W        W32624  42.351  44.447  13.511
65557W        W32625   6.884   9.358   4.820
65558W        W32626  21.036  15.742   3.707
65559W        W32627  42.491   2.888   4.176
65560W        W32628   2.440   1.955  13.810
65561W        W32629  34.969   5.839   0.247
65562W        W32630   6.865   6.362  10.420
65563W        W32631   3.794  24.605   3.275
65564W        W32632  13.161   6.755   2.689
65565W        W32633  21.023  10.304   2.361
65566W        W32634  12.328  18.114   3.352
65567W        W32635   8.172  26.013  13.450
65568W        W32636  37.849  41.878   1.732
65569W        W32637  32.993  18.135   3.701
65570W        W32638  34.589   5.195  10.588
65571W        W32639  26.567  38.361   0.362
65572W        W32640  44.861  31.038   2.780
65573W        W32641  26.964  38.869   2.683
65574W        W32642  36.466  30.986   3.735
65575W        W32643  30.627  40.940   4.726
65576W        W32644  40.924   5.808  12.359
65577W        W32645  12.701  36.959   0.921
65578W        W32646  32.046   3.446  11.373
65579W        W32647   3.282  22.224   4.660
65580W        W32648   1.756  42.931   3.379
65581W        W32649  41.430  32.631  11.378
65582W        W32650  31.093  11.734  10.500
65583W        W32651  35.435  10.345   2.868
65584W        W32652  11.242  33.441   2.347
65585W        W32653   6.233  42.347   4.292
65586W        W32654  44.777  38.914   4.214
65587W        W32655  37.555  27.519   2.820
65588W        W32656   4.801  31.034  13.853
65589W        W32657  12.322  12.332  13.519
65590W        W32658   1.749  29.990   2.750
65591W        W32659  43.272  33.559  14.460
65592W        W32660  41.825   7.861  14.876
65593W        W32661   7.215  11.823   1.381
65594W        W32662  10.377  17.238   3.177
65595W        W32663  17.672  25.567  11.917
65596W        W32664  15.231   9.789  13.989
65597W        W32665  31.036  10.315  13.473
65598W        W32666  25.069  42.434   2.185
65599W        W32667   5.246  26.531   3.642
65600W        W32668  38.069  39.868  10.944
65601W        W32669  36.999  29.956  13.924
65602W        W32670  27.010  19.535   0.840
65603W        W32671  42.495  15.157   1.885
65604W        W32672  27.653  42.805   3.629
65605W        W32673  15.286  28.017  14.894
65606W        W32674  43.764   9.337   2.791
65607W        W32675   2.252   8.193   4.638
65608W        W32676   8.390  22.595  11.940
65609W        W32677  37.467  29.175  13.469
65610W        W32678   2.957  39.853   3.665
65611W        W32679   2.387   8.836   0.921
65612W        W32680  37.404   1.286   1.871
65613W        W32681  41.408  15.810   3.236
65614W        W32682  18.207  26.628  11.465
65615W        W32683  20.615  22.210   3.337
65616W        W32684  25.534   2.263   0.839
65617W        W32685  20.085   3.231   3.756
65618W        W32686   4.389  36.374  10.625
65619W        W32687  25.002  13.708  12.573
65620W        W32688   7.712  37.856   3.837
65621W        W32689  28.678   6.863   4.336
65622W        W32690  38.960   9.700  12.876
65623W        W32691   2.891  11.278   3.864
65624W        W32692  39.355  14.821   1.269
65625W        W32693   8.289  16.116  13.855
65626W        W32694  40.487  32.921   1.729
65627W        W32695  13.147  32.437  13.892
65628W        W32696   6.899  16.580  11.443
65629W        W32697   4.941   2.450   1.912
65630W        W32698  31.617   7.882  12.993
65631W        W32699  34.488  43.473   4.625
65632W        W32700  42.959   2.437   3.839
65633W        W32701  30.513  29.548  11.437
65634W        W32702  12.787   1.453  12.383
65635W        W32703  38.499  37.436  12.039
65636W        W32704  37.019   2.262  12.446
65637W        W32705  13.720  28.185   3.717
65638W        W32706  24.198  17.734  12.511
65639W        W32707  34.079  37.945  10.909
65640W        W32708  34.466   1.912   1.344
65641W        W32709  24.982   1.790   3.771
65642W        W32710   7.708  34.093  14.315
65643W        W32711  36.849  22.540   0.886
65644W        W32712  44.414  35.559   4.340
65645W        W32713  11.212  18.673  12.548
65646W        W32714  14.750  14.105   3.228
65647W        W32715  15.128   4.782   3.268
65648W        W32716  35.930  43.324  12.346
65649W        W32717  29.429  12.654   0.801
65650W        W32718  24.590  16.632  10.420
65651W        W32719   2.382  31.461   0.954
65652W        W32720  26.057  12.854   4.129
65653W        W32721  17.168  15.724   0.396
65654W        W32722  19.661  36.421  10.895
65655W        W32723   2.961  19.279   4.781
65656W        W32724  16.631  12.681   2.314
65657W        W32725  16.083  32.961  11.435
65658W        W32726  12.663  26.678   1.406
65659W        W32727  39.508  32.095  14.799
65660W        W32728  26.676  15.582   2.319
65661W        W32729  40.394  12.186   0.925
65662W        W32730   6.850  29.932   1.355
65663W        W32731  24.568  39.858  12.575
65664W        W32732  44.502  40.440   0.316
65665W        W32733   4.286   1.342   4.693
65666W        W32734  12.851  34.031   0.876
65667W        W32735  33.022   8.271  11.972
65668W        W32736  34.974  18.276  10.977
65669W        W32737  42.301   2.247   4.617
65670W        W32738  15.106  24.990   1.739
65671W        W32739  37.917   3.369  14.507
65672W        W32740  15.619  38.378  12.400
65673W        W32741  21.023  39.520  12.877
65674W        W32742  44.461  14.255   9.927
65675W        W32743  29.509  18.241  12.052
65676W        W32744  19.044  22.142  14.504
65677W        W32745  26.511  42.976   3.808
65678W        W32746  42.882  27.051   2.744
65679W        W32747  30.495  26.634   0.398
65680W        W32748  26.161   8.872   3.297
65681W        W32749  18.620  37.856  11.070
65682W        W32750  30.935  13.274   0.841
65683W        W32751   3.381  32.002   3.204
65684W        W32752  39.868   9.733   0.754
65685W        W32753  16.701  21.116  11.505
65686W        W32754  16.304   7.359  13.308
65687W        W32755  40.436   1.820   3.801
65688W        W32756  37.897  23.128   4.324
65689W        W32757  33.932  13.347  10.476
65690W        W32758  18.768  19.134  14.830
65691W        W32759  25.707  23.685   0.362
65692W        W32760  42.361  26.134   3.741
65693W        W32761  12.197  32.552   4.767
65694W        W32762  19.042   0.960  14.945
65695W        W32763  37.902  12.191  12.580
65696W        W32764   2.392  30.092  12.824
65697W        W32765  11.777  39.967   1.413
65698W        W32766  19.576  12.164  12.386
65699W        W32767  27.508   8.770  11.598
65700W        W32768   4.787   5.308  11.909
65701W        W32769   1.431  24.206  14.288
65702W        W32770   5.829  17.278  14.421
65703W        W32771   1.365  28.937  13.930
65704W        W32772  29.520   8.715   1.733
65705W        W32773  27.965  11.161   4.247
65706W        W32774  23.612  27.103   4.119
65707W        W32775   6.201   7.359   5.191
65708W        W32776   5.716  10.228  12.869
65709W        W32777  41.932  37.057   2.203
65710W        W32778  32.482  16.083   3.185
65711W        W32779  21.619  44.975  12.401
65712W        W32780  10.800   5.293   1.876
65713W        W32781   7.707   6.833  11.438
65714W        W32782   5.328  44.837  10.641
65715W        W32783  14.308   6.296  14.904
65716W        W32784   2.787  16.149   1.723
65717W        W32785   1.345  20.678   0.805
65718W        W32786  27.161   9.183  14.762
65719W        W32787  35.898  33.607   1.262
65720W        W32788  21.536  32.503  13.531
65721W        W32789  26.017  43.386  12.377
65722W        W32790  24.048  35.496  10.560
65723W        W32791  30.069   4.310  12.915
65724W        W32792  13.115  36.570   3.835
65725W        W32793  20.718  17.781   0.872
65726W        W32794  16.089  26.536   4.768
65727W        W32795  25.688   5.720   1.419
65728W        W32796  19.134  23.577   0.391
65729W        W32797  29.107  14.788   3.319
65730W        W32798  21.529  38.908  13.454
65731W        W32799  26.001  19.094  10.417
65732W        W32800  35.423  38.022   2.417
65733W        W32801  27.541  41.804  14.771
65734W        W32802  13.159  43.423  14.333
65735W        W32803  32.625  13.730  10.065
65736W        W32804  19.709  23.513  10.097
65737W        W32805  16.709  13.213  11.869
65738W        W32806  42.819  27.563  12.350
65739W        W32807  38.876  26.486   5.275
65740W        W32808  44.766  11.204   4.786
65741W        W32809  27.493   1.337  14.327
65742W        W32810  14.641   5.336  12.957
65743W        W32811  20.194  19.246  12.865
65744W        W32812  42.310   9.737   1.801
65745W        W32813   1.810  42.016   2.797
65746W        W32814  29.571  10.276   3.346
65747W        W32815  15.599  14.257  10.602
65748W        W32816  44.370  14.670  11.017
65749W        W32817   2.919  10.174  13.392
65750W        W32818  23.151  19.586   1.388
65751W        W32819  21.587  27.586  14.908
65752W        W32820  27.979   7.785   2.854
65753W        W32821   0.984   2.351   1.417
65754W        W32822   8.307  17.562  11.978
65755W        W32823  42.932  25.102   4.802
65756W        W32824   2.458  18.287  13.843
65757W        W32825  40.463   5.229  10.482
65758W        W32826   1.320  27.558  13.039
65759W        W32827  35.565   5.320  10.544
65760W        W32828  24.986  21.102   2.772
65761W        W32829  28.444  16.308   3.184
65762W        W32830  15.173  41.907  12.871
65763W        W32831  29.435  18.745   1.333
65764W        W32832  38.912   0.933   1.839
65765W        W32833   2.282  14.209  14.863
65766W        W32834  12.296  36.873   3.311
65767W        W32835  28.513  41.917   1.343
65768W        W32836  35.952  21.244  14.820
65769W        W32837  33.422   8.877  11.888
65770W        W32838  17.141  20.646  13.542
65771W        W32839  37.449   4.383  14.012
65772W        W32840   5.702  23.122   0.423
65773W        W32841  40.442  44.999   0.381
65774W        W32842   9.323  18.073   1.210
65775W        W32843   8.323   7.369   0.434
65776W        W32844  36.991  29.535   1.234
65777W        W32845  41.914   2.253  12.823
65778W        W32846  39.868  22.742  11.048
65779W        W32847  26.183  34.381  13.969
65780W        W32848  30.457  32.022  10.634
65781W        W32849  10.224   4.404   2.209
65782W        W32850   6.250  26.101   0.333
65783W        W32851  36.355  40.835   2.354
65784W        W32852  14.721   6.410  14.507
65785W        W32853  27.954   6.860  12.878
65786W        W32854  40.411  42.903  13.061
65787W        W32855   4.251  22.174   4.278
65788W        W32856  39.444  38.907  14.300
65789W        W32857  23.680  13.624   1.750
65790W        W32858  42.895  32.401  13.850
65791W        W32859  26.617   9.788  13.415
65792W        W32860   9.786  42.384   1.830
65793W        W32861  42.517  14.686  12.026
65794W        W32862  30.077  38.363   1.418
65795W        W32863  32.111   2.235  11.987
65796W        W32864  22.193  30.035  11.482
65797W        W32865  14.690   6.329   2.283
65798W        W32866   1.250   5.357   1.779
65799W        W32867   7.214   1.804  10.470
65800W        W32868  37.408  32.526   3.277
65801W        W32869  43.849  12.798   1.849
65802W        W32870  43.381  21.610   3.164
65803W        W32871  40.547  44.795  13.493
65804W        W32872  37.557  11.715   4.246
65805W        W32873  34.032  13.161   2.322
65806W        W32874  26.499  18.586  13.936
65807W        W32875  17.579  20.638  14.999
65808W        W32876   5.436  34.448  14.337
65809W        W32877   2.411   7.881  14.980
65810W        W32878  21.196  39.324  14.956
65811W        W32879  31.081  28.177   0.946
65812W        W32880  35.879  26.584  14.010
65813W        W32881  28.604  28.524   3.633
65814W        W32882   7.307  33.552  12.830
65815W        W32883   7.385  12.136   2.687
65816W        W32884  34.473   2.279   1.349
65817W        W32885  24.559  31.635   2.829
65818W        W32886  24.181  14.147  11.944
65819W        W32887  18.198  22.592   1.777
65820W        W32888  11.344  43.419  12.353
65821W        W32889   8.289  19.720  13.401
65822W        W32890  12.180  40.495  14.777
65823W        W32891   6.721  10.829  14.851
65824W        W32892  29.613   9.868   1.884
65825W        W32893  19.057  27.062   3.631
65826W        W32894  29.952  21.120  14.770
65827W        W32895  39.529  28.603  13.414
65828W        W32896  10.145  41.470   1.873
65829W        W32897   0.348  11.280  11.952
65830W        W32898  40.013  13.277   2.697
65831W        W32899  26.085  23.516   3.322
65832W        W32900  22.686  32.948   0.440
65833W        W32901  15.758  12.142   2.683
65834W        W32902  38.531  43.478  14.877
65835W        W32903  22.057  37.425   0.899
65836W        W32904   6.812  24.223  12.485
65837W        W32905  31.927  10.252   3.634
65838W        W32906   1.915  15.720   0.911
65839W        W32907   5.766  36.357   3.808
65840W        W32908  14.150   4.783   5.144
65841W        W32909  10.345  32.523   2.766
65842W        W32910  23.505   0.289   2.386
65843W        W32911  11.708   7.204   2.225
65844W        W32912  23.687  43.843   2.798
65845W        W32913   2.905   4.328   1.924
65846W        W32914  19.693  42.921  10.559
65847W        W32915  29.968  42.980  13.537
65848W        W32916  27.072  22.688   0.962
65849W        W32917  19.672  14.683  13.352
65850W        W32918   7.900  31.469  14.814
65851W        W32919  36.555  23.535  11.473
65852W        W32920  32.895  43.412   0.940
65853W        W32921  28.681   6.799  10.959
65854W        W32922  37.938   4.413   2.395
65855W        W32923  21.027  16.727  14.819
65856W        W32924  39.968  41.977  14.969
65857W        W32925  41.881  32.501  12.375
65858W        W32926   1.366  28.526  13.374
65859W        W32927  43.384  29.630  10.544
65860W        W32928  18.093  15.609   3.241
65861W        W32929  21.590  35.957  12.835
65862W        W32930  33.935  41.477   3.257
65863W        W32931  35.423  32.626  13.948
65864W        W32932  37.472  22.119  10.028
65865W        W32933  29.665   4.445  14.363
65866W        W32934  44.805  44.501  12.905
65867W        W32935   6.755  16.734   3.716
65868W        W32936  20.028  44.808   2.894
65869W        W32937  17.622   2.403   1.307
65870W        W32938  39.390  16.671  14.515
65871W        W32939  25.498   9.232   3.322
65872W        W32940  28.980  12.619  13.400
65873W        W32941  35.434  40.369  10.948
65874W        W32942  15.177  22.529   1.835
65875W        W32943  20.091  28.159   2.306
65876W        W32944  30.466  25.685   3.227
65877W        W32945  20.721   1.946  12.439
65878W        W32946   8.842  38.393  14.429
65879W        W32947  36.353  25.696  13.942
65880W        W32948  32.115  33.963   4.288
65881W        W32949   9.839   3.338  14.274
65882W        W32950  39.932  35.576   4.272
65883W        W32951  20.095  31.042   2.371
65884W        W32952  26.071  14.797   0.962
65885W        W32953   0.464   5.773  11.963
65886W        W32954  36.350   2.747  10.576
65887W        W32955  44.940   5.247   4.296
65888W        W32956   1.403  34.412   3.748
65889W        W32957  27.461  28.971   3.251
65890W        W32958  15.164  42.401   1.261
65891W        W32959  33.048   6.704   1.279
65892W        W32960  26.459  44.832   4.244
65893W        W32961  28.072   5.707  14.298
65894W        W32962   4.324  28.456  12.937
65895W        W32963  35.989  23.578  13.453
65896W        W32964  27.621  39.537  12.930
65897W        W32965  21.733   3.370   4.242
65898W        W32966   0.358  24.091  11.089
65899W        W32967  14.588  41.851   0.763
65900W        W32968  42.336  29.553   0.421
65901W        W32969   2.353  23.585  11.981
65902W        W32970  13.244  31.095   3.831
65903W        W32971   5.280  39.902   2.890
65904W        W32972  43.275  29.425   1.934
65905W        W32973  22.166  23.648  13.480
65906W        W32974   2.460  37.034   3.334
65907W        W32975  36.963  32.539   0.854
65908W        W32976  26.136  11.289   3.845
65909W        W32977   4.757  25.050   1.348
65910W        W32978  36.518  17.761   3.233
65911W        W32979   5.743  19.247   3.240
65912W        W32980  39.962   7.826   3.215
65913W        W32981   9.819   8.709  10.475
65914W        W32982  10.843  28.131   9.949
65915W        W32983  30.622  43.858   3.342
65916W        W32984   6.866   2.895   0.872
65917W        W32985   4.853  41.311   4.231
65918W        W32986  33.516   7.791  10.990
65919W        W32987   9.171  37.425   2.717
65920W        W32988  23.174  38.953   4.137
65921W        W32989  36.554  17.632  11.025
65922W        W32990  13.693  30.112   0.365
65923W        W32991   9.219  30.455   4.335
65924W        W32992  20.704   0.257   4.786
65925W        W32993   1.857  43.451   0.858
65926W        W32994   8.814   9.764   3.323
65927W        W32995   7.819   2.263  14.512
65928W        W32996   0.801  39.889  12.044
65929W        W32997   4.328   1.846   1.893
65930W        W32998  28.951   7.222   3.749
65931W        W32999  40.025  28.952  12.393
65932W        W33000   7.197   4.774   2.763
65933W        W33001  26.134  25.130  14.886
65934W        W33002  14.096   5.749   2.703
65935W        W33003  28.049  11.143  10.554
65936W        W33004  21.152   4.812  10.120
65937W        W33005   2.234  13.123   0.891
65938W        W33006  30.504  23.196   4.150
65939W        W33007   3.270  20.040   4.811
65940W        W33008  18.252  29.639  14.314
65941W        W33009   1.365  39.476  11.488
65942W        W33010   5.709  15.306  13.504
65943W        W33011   0.442  22.730   4.734
65944W        W33012  30.955  35.537   4.195
65945W        W33013  29.518  39.896  14.285
65946W        W33014  41.025  13.254  11.048
65947W        W33015  26.004  10.805  12.387
65948W        W33016  34.887   9.806   1.922
65949W        W33017  43.864  10.232  14.902
65950W        W33018  44.002  11.348   2.302
65951W        W33019  19.189  11.730  11.891
65952W        W33020  42.453  21.610  13.469
65953W        W33021  15.147  41.843   0.268
65954W        W33022  31.522  28.500  12.057
65955W        W33023  40.943   5.887  10.585
65956W        W33024  38.345  21.618   0.443
65957W        W33025  32.396  13.147   4.268
65958W        W33026  43.393  17.102   0.478
65959W        W33027  18.242  21.026   1.879
65960W        W33028  31.428  18.755  13.469
65961W        W33029  24.039  15.675   2.668
65962W        W33030  14.632   2.390  12.960
65963W        W33031  11.352  26.032  14.457
65964W        W33032  14.180  18.548  12.514
65965W        W33033  37.574  29.501   5.215
65966W        W33034  24.591  41.884   2.875
65967W        W33035   4.733  27.692  13.956
65968W        W33036  40.046  28.999   4.251
65969W        W33037  27.086   8.685   5.108
65970W        W33038  13.621  12.242  14.459
65971W        W33039  37.986  26.634   3.665
65972W        W33040  41.863  26.526  14.934
65973W        W33041  27.184  18.113  12.902
65974W        W33042   8.778  24.498  14.471
65975W        W33043  20.726  18.107  12.932
65976W        W33044  11.343   2.309  12.450
65977W        W33045   5.889  27.663  10.580
65978W        W33046   1.424  11.358  10.428
65979W        W33047  19.762  28.014  11.489
65980W        W33048  33.091  35.901   2.703
65981W        W33049  15.710  37.391  11.611
65982W        W33050  38.458  11.671  11.872
65983W        W33051  41.966  12.753   4.672
65984W        W33052  14.693  13.623   0.483
65985W        W33053  35.889  42.923   0.425
65986W        W33054  31.977  32.116  14.280
65987W        W33055  21.528  15.762   3.367
65988W        W33056  34.925  34.394  13.806
65989W        W33057  43.381  40.378   0.743
65990W        W33058  39.439   2.732  13.051
65991W        W33059  10.743  24.102  13.972
65992W        W33060  21.596   4.262   0.921
65993W        W33061  13.164  20.042  14.951
65994W        W33062   5.430   7.881  14.344
65995W        W33063   6.272  11.760  12.435
65996W        W33064   3.413  34.411  11.406
65997W        W33065  22.556   9.343   1.274
65998W        W33066  37.354  20.139   4.309
65999W        W33067  19.663  26.968  12.889
66000W        W33068  35.983  28.158  12.376
66001W        W33069  25.682  42.316   2.318
66002W        W33070   6.182  36.505  11.413
66003W        W33071   9.828   3.233  11.411
66004W        W33072  14.748   6.875   4.148
66005W        W33073  31.917  38.985   4.195
66006W        W33074  20.224  15.208  10.600
66007W        W33075  39.390  38.036  11.913
66008W        W33076  23.202  39.423   1.758
66009W        W33077  33.002  40.035  12.471
66010W        W33078  26.562  31.152   0.332
66011W        W33079  30.030  27.541  13.904
66012W        W33080  44.933  26.462  14.820
66013W        W33081  23.579   8.354  13.979
66014W        W33082  17.174  41.527  14.453
66015W        W33083  41.897   3.301  11.381
66016W        W33084  37.465  13.694   2.254
66017W        W33085  37.457  30.425   0.945
66018W        W33086  42.339  39.557  11.121
66019W        W33087  36.564  14.186  12.888
66020W        W33088  17.725  30.937   4.135
66021W        W33089   3.816  24.521  13.842
66022W        W33090  12.820  41.325  13.375
66023W        W33091   5.796   8.333  14.031
66024W        W33092  44.427  10.778  13.946
66025W        W33093   4.424  44.955   4.778
66026W        W33094  37.337  12.706   3.832
66027W        W33095  10.752  12.126   3.152
66028W        W33096  13.682  17.575   3.245
66029W        W33097   8.715   0.292   0.390
66030W        W33098  44.863  29.635   2.219
66031W        W33099  18.112   6.848   1.821
66032W        W33100  44.325  44.852   4.150
66033W        W33101  10.684  13.170  11.972
66034W        W33102   6.702  22.081  13.375
66035W        W33103  32.597  13.223   1.737
66036W        W33104  13.690  40.506   4.183
66037W        W33105   4.915  24.079   3.805
66038W        W33106  40.955  19.123  11.117
66039W        W33107  30.138  41.293  13.507
66040W        W33108  23.198   9.786   3.835
66041W        W33109  28.602  15.641  11.971
66042W        W33110  28.649  26.539   0.474
66043W        W33111  32.548  17.303   0.365
66044W        W33112   5.839  24.671   3.756
66045W        W33113  11.349   5.909  10.451
66046W        W33114  38.064  10.714   4.743
66047W        W33115  41.382   1.273   0.789
66048W        W33116   3.354  37.051  12.940
66049W        W33117  19.185  44.886  12.405
66050W        W33118  16.197  42.914  14.284
66051W        W33119  39.891   7.391   2.201
66052W        W33120  29.446  22.746  13.480
66053W        W33121  10.645  12.745  10.613
66054W        W33122  26.614  36.050   4.708
66055W        W33123   2.469  42.882   2.383
66056W        W33124   8.855  23.057  10.916
66057W        W33125  14.103  29.996  13.794
66058W        W33126  31.112  12.321  10.433
66059W        W33127  25.712  41.853   4.750
66060W        W33128   4.923  44.426   3.700
66061W        W33129  35.011  35.444   4.161
66062W        W33130  24.036  11.662   1.749
66063W        W33131   1.292  33.591  10.991
66064W        W33132  16.226  43.460  10.922
66065W        W33133  42.889  22.699  14.928
66066W        W33134  22.247   2.936  14.918
66067W        W33135  30.473  44.839  11.418
66068W        W33136  30.908  44.380  12.393
66069W        W33137  12.724  25.001  11.417
66070W        W33138   2.946   9.289   2.268
66071W        W33139  38.568   1.315  12.910
66072W        W33140  44.839  34.021  11.520
66073W        W33141  14.246  10.224  11.975
66074W        W33142  30.947  33.445  11.933
66075W        W33143  39.993  42.501  14.801
66076W        W33144   2.879   5.751  14.416
66077W        W33145  39.545   4.381  10.912
66078W        W33146   4.924  20.693   4.665
66079W        W33147  36.465  18.163  13.829
66080W        W33148   6.422   1.478  13.538
66081W        W33149  26.490  28.034   4.289
66082W        W33150  37.535   9.337   0.762
66083W        W33151  11.698  27.151  13.447
66084W        W33152  24.224  42.852  10.415
66085W        W33153   9.305  36.349  10.585
66086W        W33154  21.600  33.895  12.451
66087W        W33155  41.793   1.371  14.337
66088W        W33156  30.463  39.969  13.420
66089W        W33157  43.285  44.363   2.308
66090W        W33158   9.718  35.602  12.477
66091W        W33159  41.354  14.244  11.506
66092W        W33160   7.763  29.457  11.995
66093W        W33161  16.645  20.072   1.771
66094W        W33162  25.109   0.298   0.466
66095W        W33163   1.791  14.637  11.407
66096W        W33164  43.913   6.275   4.725
66097W        W33165  15.683   0.768   2.873
66098W        W33166  13.789  20.109   4.177
66099W        W33167  15.220  14.789  12.565
66100W        W33168  11.328  12.205   0.469
66101W        W33169  19.707  33.082  13.412
66102W        W33170   5.868  15.209   2.243
66103W        W33171  30.486  39.377   2.415
66104W        W33172   5.363   5.265  13.824
66105W        W33173  14.696  13.793   2.212
66106W        W33174  38.339  38.533   0.880
66107W        W33175  44.296  14.715   0.728
66108W        W33176  17.069   0.292  13.965
66109W        W33177  39.334  28.462  14.923
66110W        W33178  41.814  27.689   2.692
66111W        W33179  40.468  32.503  14.872
66112W        W33180  10.265  21.681   1.737
66113W        W33181   0.373  29.925   4.138
66114W        W33182   0.809  38.888   4.654
66115W        W33183  44.872  18.280  11.039
66116W        W33184  29.106  15.300   2.253
66117W        W33185  18.651   2.333   2.265
66118W        W33186  35.031  12.647   1.243
66119W        W33187  17.634  15.605   1.836
66120W        W33188  40.481  16.615   3.706
66121W        W33189  34.613  30.579  11.120
66122W        W33190   8.796  19.268   1.931
66123W        W33191  40.808  23.542   0.335
66124W        W33192  32.931  17.789  11.980
66125W        W33193  19.101  42.432   0.372
66126W        W33194  25.685   7.324   1.774
66127W        W33195   4.937  38.049  14.890
66128W        W33196  15.272   4.353  13.421
66129W        W33197  13.128  39.504   2.230
66130W        W33198  43.909  33.083   2.841
66131W        W33199  19.755  38.824   3.253
66132W        W33200  12.772  19.535   1.820
66133W        W33201  25.112  31.141   1.870
66134W        W33202  43.477  22.679  13.454
66135W        W33203  40.342  20.119   0.731
66136W        W33204  44.277  28.671  14.514
66137W        W33205  15.605   7.749  12.007
66138W        W33206  23.724  25.061   4.245
66139W        W33207   2.309  11.671   4.751
66140W        W33208   0.766  27.112  10.477
66141W        W33209  35.913  36.573  12.934
66142W        W33210   3.832  14.328   4.168
66143W        W33211  26.055   8.304  11.479
66144W        W33212  21.217  38.415  12.875
66145W        W33213  13.844  42.500  12.981
66146W        W33214  14.787  21.740   1.373
66147W        W33215   3.869  42.946  14.862
66148W        W33216   7.267  10.228   3.177
66149W        W33217  14.742  12.211  11.985
66150W        W33218  44.843  43.921  13.454
66151W        W33219  33.038  12.614  12.580
66152W        W33220  12.333   5.422  11.405
66153W        W33221  31.025   2.272   1.255
66154W        W33222  38.382  17.273   0.925
66155W        W33223  16.095  14.265   3.241
66156W        W33224  10.826  24.705   2.785
66157W        W33225  21.037  16.144   4.659
66158W        W33226   7.829  41.502   0.947
66159W        W33227  11.152  13.814  13.811
66160W        W33228  43.440  32.603  14.873
66161W        W33229  22.194  33.426   2.274
66162W        W33230  17.570  15.660  10.406
66163W        W33231   2.874  16.640  10.926
66164W        W33232  28.631  44.885   3.332
66165W        W33233   8.286  28.435   1.411
66166W        W33234  13.817   9.818  11.035
66167W        W33235  17.189   9.196   3.656
66168W        W33236   5.932  23.232  11.399
66169W        W33237  27.003  26.998  14.897
66170W        W33238  43.511  16.781  11.860
66171W        W33239   4.316  44.403   2.230
66172W        W33240  39.505  41.363   4.134
66173W        W33241  31.924  12.262  13.331
66174W        W33242  42.349  36.432  13.890
66175W        W33243  38.377  22.589   1.297
66176W        W33244  44.376  20.218   1.932
66177W        W33245  15.269  14.635  13.430
66178W        W33246  21.652  37.351   5.674
66179W        W33247  31.008  25.514  13.460
66180W        W33248  40.518  25.062   0.921
66181W        W33249  18.760  33.942  14.836
66182W        W33250  10.792  30.141  10.492
66183W        W33251   6.200   1.864  13.837
66184W        W33252  39.936  19.609  11.049
66185W        W33253  40.355  31.569  11.068
66186W        W33254   8.345   8.755  14.971
66187W        W33255  31.568   2.238   1.727
66188W        W33256   8.843  31.402  11.095
66189W        W33257   3.877  29.639  13.985
66190W        W33258   1.911  15.648   4.259
66191W        W33259  29.080  15.800   1.858
66192W        W33260   3.930  44.773   4.644
66193W        W33261  41.795  11.296  14.442
66194W        W33262   6.804   6.346   4.626
66195W        W33263  22.093  40.835  12.366
66196W        W33264   3.342  31.579   1.371
66197W        W33265   7.907  31.433   1.402
66198W        W33266  40.824  44.932   0.465
66199W        W33267  21.615   1.773   4.757
66200W        W33268  38.379   1.776   4.762
66201W        W33269  16.272  41.499   2.677
66202W        W33270  37.920  25.085   3.152
66203W        W33271   4.735  34.389  11.879
66204W        W33272  19.600  24.061  11.028
66205W        W33273  27.140  25.979   2.207
66206W        W33274  11.252   6.299   3.683
66207W        W33275  21.253  33.546  10.454
66208W        W33276  34.480  29.559   0.840
66209W        W33277  39.445  15.787   2.740
66210W        W33278  43.349  14.747   0.250
66211W        W33279   7.235  30.586  14.378
66212W        W33280  18.127  41.832  14.967
66213W        W33281  10.373  39.053   0.340
66214W        W33282  16.284  29.069   0.412
66215W        W33283  24.610  14.148   0.966
66216W        W33284   4.881  19.578  11.020
66217W        W33285  29.540  20.644   4.669
66218W        W33286  39.960   8.694   2.818
66219W        W33287  37.416  26.085  14.971
66220W        W33288  11.179  22.121   2.403
66221W        W33289  30.479   4.241   0.906
66222W        W33290   5.915   8.305   1.430
66223W        W33291  37.522  28.186  13.801
66224W        W33292  32.399  41.531   2.717
66225W        W33293  36.549  23.585   0.309
66226W        W33294  27.145   4.911  13.981
66227W        W33295  37.547  27.073   4.784
66228W        W33296  42.474  15.217   0.396
66229W        W33297  44.843   4.205   2.846
66230W        W33298  13.296  40.048   4.690
66231W        W33299   5.410  37.880  12.472
66232W        W33300   4.929  21.668   1.843
66233W        W33301  34.595   8.241  12.960
66234W        W33302  30.033  43.941   2.192
66235W        W33303  27.174  11.242  10.439
66236W        W33304  31.993   9.229  13.539
66237W        W33305  25.608   5.701  11.020
66238W        W33306  43.344   0.306   4.699
66239W        W33307  20.134  42.896  13.836
66240W        W33308  14.167  16.317  14.282
66241W        W33309  11.220  23.636  10.615
66242W        W33310  10.775  11.758  14.369
66243W        W33311  17.597   5.318   4.628
66244W        W33312   9.676   0.743  13.010
66245W        W33313  36.926  21.663   3.809
66246W        W33314  10.820  29.485  11.072
66247W        W33315  15.767  27.140  14.420
66248W        W33316  34.451   3.435  11.015
66249W        W33317  24.045  28.939   0.440
66250W        W33318  20.689  43.275   1.380
66251W        W33319  19.268   1.458   3.207
66252W        W33320  11.779   8.842  10.994
66253W        W33321   4.347   7.834  10.492
66254W        W33322   2.254  44.924   2.368
66255W        W33323  40.977  34.414  10.929
66256W        W33324  10.291  39.356   1.906
66257W        W33325  20.590   8.808  14.930
66258W        W33326   4.446  44.756  11.881
66259W        W33327  35.418  36.556   1.898
66260W        W33328  11.696  38.045   1.435
66261W        W33329  35.900  24.134  10.583
66262W        W33330   2.377  11.239   4.322
66263W        W33331  24.575  35.060   1.919
66264W        W33332  32.003  40.518   0.894
66265W        W33333  43.005  21.166   0.354
66266W        W33334   2.822   5.697   4.260
66267W        W33335   3.927  39.918   1.844
66268W        W33336   2.270  17.662  13.883
66269W        W33337  22.630  20.052  10.979
66270W        W33338  35.576  32.504  14.906
66271W        W33339   4.830   6.371   0.320
66272W        W33340  27.674   0.821   2.661
66273W        W33341  23.099   0.316   2.202
66274W        W33342   5.742  32.625  11.926
66275W        W33343  42.402   6.236  13.902
66276W        W33344  27.082  24.711   2.317
66277W        W33345   2.416  23.046  14.814
66278W        W33346  42.436  36.012   0.868
66279W        W33347  37.955  21.647  11.412
66280W        W33348  40.960  11.844   2.326
66281W        W33349  17.258  33.499   4.802
66282W        W33350  17.069  28.038   1.754
66283W        W33351  30.656   3.324  12.353
66284W        W33352   2.891  25.474  14.298
66285W        W33353  42.369  26.156  13.897
66286W        W33354   3.414  37.955   3.737
66287W        W33355  11.734  26.022   1.700
66288W        W33356  15.578   3.227  14.779
66289W        W33357  25.591  40.509   0.424
66290W        W33358  36.891  13.275   0.762
66291W        W33359  38.027   8.278   4.291
66292W        W33360   0.982  30.019   3.308
66293W        W33361  11.299   8.181   3.630
66294W        W33362   3.851  18.296   2.854
66295W        W33363   3.243   7.741  10.496
66296W        W33364  42.963  23.689  14.446
66297W        W33365  12.321  40.840   3.642
66298W        W33366  40.454  11.344   3.842
66299W        W33367  39.043  25.200  10.113
66300W        W33368  10.713  17.173   0.796
66301W        W33369  36.068  42.424  13.433
66302W        W33370  42.832  20.266   1.446
66303W        W33371  31.079  27.955   2.743
66304W        W33372  29.983   3.955  11.429
66305W        W33373  39.945  19.129   2.235
66306W        W33374  15.107   5.746  10.601
66307W        W33375  16.575  32.093   2.320
66308W        W33376   5.692  35.462   0.352
66309W        W33377   4.388  13.116  10.507
66310W        W33378   1.949  16.271   1.210
66311W        W33379  22.736  39.438  11.026
66312W        W33380   3.261  29.545  12.010
66313W        W33381  25.138  10.374  10.637
66314W        W33382  26.172  11.771  10.992
66315W        W33383   9.744  28.457   2.803
66316W        W33384  16.663  26.573   4.300
66317W        W33385  22.735  15.747   4.298
66318W        W33386  15.612  30.469  12.472
66319W        W33387  21.524  15.277   2.775
66320W        W33388  28.627   8.769   3.761
66321W        W33389   2.760  36.899  11.566
66322W        W33390  42.892   5.771  10.924
66323W        W33391   9.782  42.822  10.503
66324W        W33392  27.517  36.885  11.896
66325W        W33393  42.284   3.323  11.526
66326W        W33394   9.362  42.461  12.985
66327W        W33395  21.152  17.108   1.724
66328W        W33396  34.873  11.182   2.841
66329W        W33397  24.047  32.482  11.594
66330W        W33398   6.733  21.168  14.008
66331W        W33399  16.689  21.700   4.228
66332W        W33400  31.595  36.537  12.948
66333W        W33401  32.484  15.116  14.501
66334W        W33402  22.528  27.675   1.324
66335W        W33403  20.203   7.233   1.795
66336W        W33404   9.277  26.176  14.912
66337W        W33405  42.990  36.860   2.332
66338W        W33406  27.602  37.568  13.389
66339W        W33407  40.492  44.319   3.709
66340W        W33408  10.759  18.113   3.745
66341W        W33409   6.719   0.377  11.558
66342W        W33410  11.790  12.713  11.536
66343W        W33411  42.010  19.186  14.359
66344W        W33412  42.881  27.009  14.811
66345W        W33413  35.443   8.368   3.832
66346W        W33414   0.478  32.392  14.999
66347W        W33415  32.457  30.987   1.889
66348W        W33416   6.786  30.476   2.826
66349W        W33417  12.661  26.663   3.206
66350W        W33418   7.859  19.116   4.753
66351W        W33419  41.924   6.297  14.027
66352W        W33420  42.896  34.884  11.126
66353W        W33421  28.013  43.431   4.154
66354W        W33422  18.669   8.892  12.989
66355W        W33423  36.351  15.122  13.450
66356W        W33424  41.862  17.140  11.532
66357W        W33425  24.186  36.078  11.947
66358W        W33426   0.384  27.026  13.946
66359W        W33427   3.215  34.901  13.412
66360W        W33428  40.870  39.824   3.823
66361W        W33429  25.523  26.521   4.623
66362W        W33430   2.932  13.284   2.811
66363W        W33431  22.065  33.614  12.345
66364W        W33432  31.932  19.279   2.308
66365W        W33433  30.616  41.382  12.469
66366W        W33434  28.990  23.192  11.926
66367W        W33435  14.193   4.221  14.014
66368W        W33436  40.437  35.992  10.995
66369W        W33437  30.052  22.572  13.337
66370W        W33438   0.407  25.177   1.275
66371W        W33439  43.485  22.215  13.542
66372W        W33440   3.749   1.892  12.933
66373W        W33441  28.122   5.242  14.998
66374W        W33442   3.894  33.393   1.389
66375W        W33443   7.722   3.417  12.901
66376W        W33444  31.047  15.721   2.197
66377W        W33445   5.217  39.360   1.851
66378W        W33446  38.544  20.229   1.215
66379W        W33447   7.752  25.478   2.770
66380W        W33448  21.048  35.401   1.214
66381W        W33449  41.877  42.978   3.351
66382W        W33450   2.775   3.903  14.839
66383W        W33451   4.846  10.360   0.321
66384W        W33452  20.104  24.986  10.580
66385W        W33453   2.427  14.232   2.716
66386W        W33454  17.069   1.970  14.485
66387W        W33455   3.797  20.193  13.042
66388W        W33456  27.994   4.262  11.033
66389W        W33457  40.362   0.781  11.118
66390W        W33458  17.091   0.396   2.180
66391W        W33459   7.827  13.107  12.442
66392W        W33460  29.528  26.662   0.329
66393W        W33461  23.030  30.416   3.843
66394W        W33462  34.483   5.432  14.432
66395W        W33463  36.574  21.182   2.761
66396W        W33464   5.820   6.344   1.215
66397W        W33465  36.486  35.025  14.846
66398W        W33466  34.877  34.873  10.516
66399W        W33467  25.131  44.447   4.319
66400W        W33468  39.339  18.076  10.983
66401W        W33469  42.872  19.240   2.277
66402W        W33470   7.413   7.195  14.496
66403W        W33471   9.737  21.550  12.025
66404W        W33472  40.385   8.343  12.433
66405W        W33473   0.887  16.714   4.668
66406W        W33474  22.208  39.983   3.648
66407W        W33475  15.137  18.181  11.563
66408W        W33476   4.272  29.968   1.215
66409W        W33477  36.392   4.262  10.913
66410W        W33478  38.825   4.428  10.944
66411W        W33479  39.052   0.415  14.489
66412W        W33480  32.557  13.627   4.824
66413W        W33481  32.957  10.742   3.675
66414W        W33482  23.207  42.349  11.099
66415W        W33483  36.971  39.851  11.907
66416W        W33484  42.440  25.131   0.299
66417W        W33485  19.607  11.340  11.588
66418W        W33486  34.922  24.052   0.377
66419W        W33487  27.096  40.879   0.364
66420W        W33488  30.117  33.117   1.302
66421W        W33489  40.804   6.349   1.744
66422W        W33490  32.910  28.950  14.779
66423W        W33491   1.924  35.895  13.010
66424W        W33492   5.345  13.615   1.752
66425W        W33493  40.323  19.225   4.354
66426W        W33494   9.249  43.374   2.886
66427W        W33495  29.044  34.440  10.540
66428W        W33496  22.055  37.961   4.333
66429W        W33497  29.133  42.971   0.440
66430W        W33498  27.135  42.032   0.935
66431W        W33499  21.036  35.379   2.381
66432W        W33500  12.352  16.745   0.750
66433W        W33501  22.186  39.423  14.990
66434W        W33502  22.142  19.650   1.260
66435W        W33503  23.226  31.998  13.887
66436W        W33504  33.035  22.577  13.010
66437W        W33505  11.623  34.583  10.958
66438W        W33506  17.636   3.249   1.872
66439W        W33507  29.456  30.587   2.312
66440W        W33508  28.670  18.749  11.009
66441W        W33509  34.392  28.055   0.967
66442W        W33510  18.695  14.115  13.499
66443W        W33511  23.153  13.117  11.948
66444W        W33512  41.414  31.111   0.946
66445W        W33513  33.503  37.996   0.405
66446W        W33514  24.978  41.405  11.403
66447W        W33515  41.871   4.938  13.856
66448W        W33516  22.691  42.014   1.903
66449W        W33517  29.162  35.503   2.736
66450W        W33518  14.674  20.695  11.419
66451W        W33519  22.628  31.095   4.322
66452W        W33520  26.139  16.597   0.440
66453W        W33521  32.098   1.827   9.928
66454W        W33522  40.005   1.346   2.363
66455W        W33523  32.430  12.156  11.101
66456W        W33524  23.671   0.764  11.916
66457W        W33525  38.061  44.960   1.221
66458W        W33526  26.456  25.701   1.741
66459W        W33527   0.788  18.269  10.428
66460W        W33528  29.467   2.378   1.760
66461W        W33529  12.662  27.451  14.352
66462W        W33530  12.764   3.285   0.933
66463W        W33531  13.166  26.645  11.894
66464W        W33532  20.082   2.892  12.965
66465W        W33533  17.601   7.263   1.807
66466W        W33534  41.867  22.104   3.767
66467W        W33535  20.575  32.607  14.951
66468W        W33536  36.035  18.624   4.193
66469W        W33537  37.492  18.670   0.246
66470W        W33538  33.021  20.718  13.943
66471W        W33539  19.107  40.959  14.808
66472W        W33540  15.222  22.070   2.794
66473W        W33541  27.019  18.771   3.661
66474W        W33542  10.218  25.602  11.443
66475W        W33543  26.526  33.876  13.851
66476W        W33544   9.829   6.851  11.501
66477W        W33545   4.802  12.649   4.794
66478W        W33546  28.129   9.281  14.923
66479W        W33547  29.938  17.091   1.793
66480W        W33548  35.019  14.220   0.396
66481W        W33549  11.629  34.470  14.342
66482W        W33550  28.151  17.266   1.850
66483W        W33551   2.784  40.798   3.310
66484W        W33552   5.274  21.698  10.605
66485W        W33553  17.250  10.643   2.676
66486W        W33554  19.228  40.809   0.871
66487W        W33555  24.598  28.574  10.529
66488W        W33556  35.064   6.264  12.340
66489W        W33557  35.078  41.521   0.335
66490W        W33558  22.085  44.796  14.302
66491W        W33559  15.590  37.911  14.984
66492W        W33560  36.379  10.802  13.328
66493W        W33561  25.144   4.841   4.134
66494W        W33562  15.714  34.427  11.928
66495W        W33563  27.675  37.077   4.730
66496W        W33564   6.311  26.647   5.291
66497W        W33565   9.769   6.902  14.787
66498W        W33566   9.764   8.278   4.609
66499W        W33567  18.583  23.203   1.784
66500W        W33568  42.423  10.182   2.883
66501W        W33569   1.424  38.492   2.666
66502W        W33570  29.081  39.915  13.893
66503W        W33571  40.038  19.099   3.159
66504W        W33572  22.011  29.576   3.672
66505W        W33573  32.550   2.854  13.502
66506W        W33574  18.613  43.971  13.028
66507W        W33575  30.101   3.393  11.442
66508W        W33576  30.474  44.446  10.509
66509W        W33577  15.128  20.144  13.806
66510W        W33578  39.317  18.086   4.288
66511W        W33579  31.462  34.874  13.925
66512W        W33580  29.663   5.346  11.958
66513W        W33581  14.687  19.071  11.380
66514W        W33582  26.462  11.691  14.283
66515W        W33583   7.765  32.465  13.460
66516W        W33584  29.535  14.131   3.182
66517W        W33585  22.070  22.046   4.604
66518W        W33586  13.227  44.832   1.811
66519W        W33587   6.893  34.960   1.307
66520W        W33588  38.915  23.530  10.966
66521W        W33589   5.894  44.804   1.295
66522W        W33590   4.334   2.373  13.371
66523W        W33591  20.688  38.384  11.890
66524W        W33592  30.067  13.805  12.857
66525W        W33593  38.391  25.145   3.191
66526W        W33594  35.387   0.874   2.887
66527W        W33595   8.828  37.575   1.699
66528W        W33596  33.986  24.029   1.241
66529W        W33597   3.888   8.852  13.044
66530W        W33598  40.364   8.854  13.859
66531W        W33599  10.692  35.369  10.510
66532W        W33600  19.083  40.960  14.438
66533W        W33601  38.403  44.439   1.275
66534W        W33602  29.975   7.401  11.600
66535W        W33603  17.266  33.580  14.502
66536W        W33604   6.282  40.497  11.541
66537W        W33605  30.488  35.016   4.735
66538W        W33606  43.346  29.957   0.435
66539W        W33607  35.485  33.988  11.500
66540W        W33608  41.299  16.238  14.864
66541W        W33609  21.710  10.217  11.064
66542W        W33610  44.393  33.548  12.458
66543W        W33611   1.351   2.420  12.435
66544W        W33612  43.378  24.103  11.044
66545W        W33613  37.527  39.480  10.456
66546W        W33614  44.364   1.391  14.933
66547W        W33615  18.736   9.318   4.224
66548W        W33616  38.894   2.331  14.927
66549W        W33617  11.792  15.797   4.302
66550W        W33618  39.409  20.547  11.015
66551W        W33619   4.938  41.500   9.968
66552W        W33620  25.684  24.599   3.173
66553W        W33621  41.957   9.716   4.777
66554W        W33622   5.377  22.642  10.033
66555W        W33623  13.671   4.327   0.409
66556W        W33624  17.265  43.933  11.486
66557W        W33625  17.298  23.035  13.424
66558W        W33626  41.939  24.575   4.765
66559W        W33627   0.777  43.348  10.424
66560W        W33628   1.792  11.743   3.358
66561W        W33629   2.440  10.293   1.272
66562W        W33630  20.650   9.661   3.661
66563W        W33631  25.990  38.937   4.632
66564W        W33632  35.095   5.690  13.960
66565W        W33633  10.632   8.783  14.941
66566W        W33634  33.992  35.069  13.797
66567W        W33635  11.198  37.036  11.859
66568W        W33636  15.176  42.890   3.283
66569W        W33637   7.762  42.409  11.446
66570W        W33638  24.667  15.672   0.358
66571W        W33639   7.763   9.663  11.009
66572W        W33640   1.418  29.008   1.363
66573W        W33641  26.491   9.859  12.350
66574W        W33642  37.428  43.317   4.130
66575W        W33643  33.069  21.540   2.385
66576W        W33644  29.048  13.183  10.090
66577W        W33645  30.545  31.554  14.017
66578W        W33646  43.385  21.048   1.796
66579W        W33647  17.720  24.530   2.301
66580W        W33648  29.590  29.929   3.806
66581W        W33649   0.969  41.451  11.436
66582W        W33650   2.904   6.234   3.372
66583W        W33651  43.795  10.788  12.557
66584W        W33652  28.522  16.726   0.922
66585W        W33653  35.852  22.235  14.516
66586W        W33654   3.233  14.208  11.458
66587W        W33655  17.245  37.981  12.472
66588W        W33656  27.594  26.457  13.901
66589W        W33657  43.829  28.472  12.521
66590W        W33658   0.830   5.691   3.653
66591W        W33659  36.006  36.542   1.365
66592W        W33660  25.986  22.566  12.519
66593W        W33661  44.934  10.327  14.491
66594W        W33662  29.641  19.542  13.884
66595W        W33663  43.391   6.271   4.728
66596W        W33664  43.806  15.279   1.797
66597W        W33665  43.954  36.587   0.373
66598W        W33666  25.011  27.547   2.371
66599W        W33667  38.332  40.379   0.898
66600W        W33668  37.916  43.302  12.459
66601W        W33669  11.730  17.566   2.362
66602W        W33670  38.409  13.195  13.340
66603W        W33671  24.604  14.212   3.654
66604W        W33672  16.197  22.105   3.704
66605W        W33673   1.371  13.204  13.875
66606W        W33674  23.048   3.274   3.640
66607W        W33675  24.176  32.600  12.976
66608W        W33676  23.227   7.889  12.077
66609W        W33677   3.937  43.919  10.926
66610W        W33678  43.929  27.599   2.190
66611W        W33679  22.244  12.620  14.324
66612W        W33680   5.904  32.111   2.312
66613W        W33681  29.595  17.153   5.320
66614W        W33682  10.777  43.905   2.250
66615W        W33683  28.675  19.063  14.282
66616W        W33684  15.722  27.594   0.335
66617W        W33685   7.228  37.084   2.817
66618W        W33686  19.143   9.731  10.971
66619W        W33687   1.959  16.224   4.792
66620W        W33688  37.550  41.514  14.919
66621W        W33689   0.964  13.114   2.285
66622W        W33690  32.484  36.053  13.906
66623W        W33691  20.074  20.629   2.334
66624W        W33692   5.339  38.508  11.046
66625W        W33693  16.228  28.591  10.108
66626W        W33694  22.066  38.870   3.701
66627W        W33695  10.714  17.155  11.017
66628W        W33696  42.425  36.023  12.470
66629W        W33697   1.942  30.103   4.304
66630W        W33698   8.819   1.307  14.951
66631W        W33699  43.849  39.815  12.464
66632W        W33700  23.089  31.008   3.634
66633W        W33701  14.194  29.006  11.038
66634W        W33702  23.069   9.267   2.810
66635W        W33703   1.447  21.588  10.981
66636W        W33704  40.877  13.122  10.431
66637W        W33705   0.490  31.567  13.530
66638W        W33706  23.224  43.299   4.208
66639W        W33707   7.872   5.387   4.347
66640W        W33708  37.932  19.549  10.533
66641W        W33709  37.355   8.692   4.176
66642W        W33710  22.625  26.019   2.827
66643W        W33711  10.749  10.841  12.985
66644W        W33712   0.806   9.685   2.792
66645W        W33713  44.398  21.179  13.951
66646W        W33714  43.952  25.089   0.324
66647W        W33715  21.654   7.724  11.051
66648W        W33716  12.347  25.669  13.004
66649W        W33717  11.208  39.335   4.126
66650W        W33718  41.824  34.484   0.375
66651W        W33719  15.302  15.195   1.756
66652W        W33720  35.951  27.181   3.210
66653W        W33721  10.245  41.860  13.527
66654W        W33722  24.059  22.039   3.651
66655W        W33723  16.767  14.700   1.215
66656W        W33724  23.594  15.268   2.768
66657W        W33725  14.818  22.531  13.335
66658W        W33726  40.471   6.405  13.038
66659W        W33727  44.835  15.226  13.437
66660W        W33728  42.896  42.023   0.261
66661W        W33729  14.710  25.122  13.824
66662W        W33730  20.642  15.744  13.357
66663W        W33731  42.409   5.399   4.830
66664W        W33732   8.276   9.231   0.446
66665W        W33733  32.061   9.296   0.411
66666W        W33734  17.631  44.905  10.439
66667W        W33735  41.900   5.291  10.488
66668W        W33736  41.376  18.051   4.717
66669W        W33737  14.340  34.070  13.029
66670W        W33738  21.663   8.205  14.451
66671W        W33739  32.464   2.926   0.388
66672W        W33740  30.007  23.702  12.426
66673W        W33741  23.177   6.701  11.981
66674W        W33742  32.065   9.172  14.906
66675W        W33743  23.020  20.106  12.575
66676W        W33744  15.606  19.713   1.799
66677W        W33745  11.174  18.135   4.776
66678W        W33746  16.087  13.829   4.298
66679W        W33747   4.858  38.539   2.818
66680W        W33748   0.792  18.291   3.820
66681W        W33749  15.231   9.327  12.361
66682W        W33750  11.284  28.148  14.791
66683W        W33751   5.805  34.871  12.057
66684W        W33752  42.376   2.900   0.770
66685W        W33753  39.813  20.146  12.000
66686W        W33754  29.573  44.360   4.173
66687W        W33755  10.662  26.582  14.977
66688W        W33756  39.046  30.922   0.470
66689W        W33757  29.974  28.655   4.308
66690W        W33758  10.711  25.061  12.074
66691W        W33759  33.603  34.466  13.520
66692W        W33760  10.375  11.277   0.413
66693W        W33761  44.395   3.845  14.851
66694W        W33762  44.371   4.236  13.421
66695W        W33763  26.643   7.873  11.905
66696W        W33764  43.396  28.591   4.670
66697W        W33765  19.092  25.558   4.142
66698W        W33766   0.809  31.568   0.965
66699W        W33767  12.672   5.388  12.540
66700W        W33768  13.697  22.665   2.708
66701W        W33769  31.403   8.702   0.830
66702W        W33770  37.882  22.171   1.248
66703W        W33771  36.520   2.432  12.849
66704W        W33772   7.393  37.479  11.864
66705W        W33773   9.206  11.827   0.344
66706W        W33774  10.716   1.375  12.504
66707W        W33775  11.212  29.097   1.854
66708W        W33776   2.304  19.683  13.998
66709W        W33777  44.760  13.715  11.068
66710W        W33778   7.854  33.621  11.512
66711W        W33779  25.692  30.099   0.929
66712W        W33780   2.953  27.193   0.473
66713W        W33781  24.561  13.638   0.825
66714W        W33782  21.147  28.161   1.905
66715W        W33783  27.589   6.414   2.225
66716W        W33784  35.506  37.975  10.643
66717W        W33785  13.800  35.081   3.246
66718W        W33786  41.356  20.155  11.887
66719W        W33787  10.162  19.574   5.098
66720W        W33788  31.143   3.408   1.798
66721W        W33789   4.706   4.377  10.586
66722W        W33790  17.717  31.056   3.251
66723W        W33791  44.818  37.340   5.270
66724W        W33792   5.794  17.738   3.830
66725W        W33793   5.420  20.638   1.918
66726W        W33794  38.860  24.171  11.465
66727W        W33795  35.097  15.248   2.791
66728W        W33796  24.598  42.438  11.070
66729W        W33797  29.437   3.710  12.952
66730W        W33798  34.883  15.216  11.552
66731W        W33799  29.465   1.364  14.495
66732W        W33800   4.305   5.364  12.453
66733W        W33801  17.137  33.478  13.029
66734W        W33802  23.670  44.338   3.191
66735W        W33803  11.163   4.773  13.029
66736W        W33804  37.524  27.596  11.412
66737W        W33805  42.847   3.376   4.626
66738W        W33806  15.254   7.236   0.405
66739W        W33807  12.340   1.776   1.315
66740W        W33808   2.252  18.766   4.171
66741W        W33809  21.636  21.544   3.851
66742W        W33810  33.914  21.207  11.025
66743W        W33811  24.084   8.670  10.591
66744W        W33812  30.569  37.929   4.174
66745W        W33813  37.070  42.288  11.545
66746W        W33814  40.026  38.454  14.789
66747W        W33815  13.746  36.591   3.731
66748W        W33816  15.642  31.069  14.771
66749W        W33817   8.808  32.948   0.245
66750W        W33818  33.546  23.576   4.289
66751W        W33819  41.932  44.900   4.260
66752W        W33820  26.571   6.341  11.483
66753W        W33821  44.922   7.703  11.417
66754W        W33822  17.634  20.640  13.822
66755W        W33823  18.637   3.426   4.664
66756W        W33824  43.365  26.161   4.702
66757W        W33825  12.691  11.312  14.840
66758W        W33826   7.874  32.581  13.796
66759W        W33827  15.719  26.699   2.815
66760W        W33828  19.658   3.220  12.079
66761W        W33829  44.798  43.933  12.471
66762W        W33830  15.808  41.346   0.821
66763W        W33831  40.967   7.902   2.197
66764W        W33832   9.817  16.104   0.268
66765W        W33833  16.292  22.204   2.861
66766W        W33834  16.606  20.594   0.449
66767W        W33835   6.809   0.340   2.902
66768W        W33836  30.919   7.235   1.411
66769W        W33837  22.113   8.723  10.951
66770W        W33838  17.641   4.900   2.196
66771W        W33839   0.820  24.097   5.166
66772W        W33840  19.194  30.527  11.079
66773W        W33841  21.609  32.636   4.338
66774W        W33842   7.812  20.186  14.386
66775W        W33843  14.640   5.281   0.788
66776W        W33844  22.069   6.266  11.471
66777W        W33845  17.269  11.867   2.889
66778W        W33846   2.749  15.821   0.470
66779W        W33847  24.071  33.963  14.978
66780W        W33848   4.426  24.631  11.567
66781W        W33849  25.689  43.308   0.327
66782W        W33850   3.917  33.098  12.548
66783W        W33851  44.349  12.116   5.292
66784W        W33852  33.002  11.762  11.447
66785W        W33853  22.230  18.126   1.441
66786W        W33854   1.426  24.973   2.290
66787W        W33855  12.773  27.608  12.047
66788W        W33856  36.884  41.391   4.288
66789W        W33857  20.640  20.636  14.793
66790W        W33858  21.067  30.993   1.934
66791W        W33859   7.890  40.939  12.969
66792W        W33860  11.857  36.487   2.212
66793W        W33861   6.333   9.210  14.979
66794W        W33862  17.699   0.271   0.295
66795W        W33863  31.478  33.436  11.970
66796W        W33864  31.933  21.711  11.022
66797W        W33865  15.206  30.466  12.476
66798W        W33866  25.090  33.059   2.272
66799W        W33867  35.079   7.292   3.284
66800W        W33868  32.090  27.600  14.971
66801W        W33869   2.894  25.534   1.218
66802W        W33870   9.159  30.618   1.821
66803W        W33871   9.348  33.481  12.942
66804W        W33872  38.903  34.480  13.333
66805W        W33873  27.562  21.652  14.343
66806W        W33874  41.476  35.886  10.600
66807W        W33875  37.492  26.115   1.833
66808W        W33876  12.809   4.842   4.266
66809W        W33877  21.138   6.423  14.837
66810W        W33878  35.412  16.733   0.889
66811W        W33879  36.872   2.342  10.990
66812W        W33880  42.516  24.607   1.384
66813W        W33881  11.291   4.334  10.957
66814W        W33882  11.366  44.474   0.386
66815W        W33883  19.219  42.829   3.209
66816W        W33884   8.784  15.580  14.474
66817W        W33885   8.751  42.796   4.155
66818W        W33886  22.645  19.632   2.866
66819W        W33887  11.686  32.904   3.288
66820W        W33888  23.551  30.090   0.742
66821W        W33889  24.225   5.395  14.026
66822W        W33890   6.202  10.241  10.161
66823W        W33891  26.474   2.927  13.833
66824W        W33892   8.347  44.861   0.460
66825W        W33893   6.209  27.095  11.424
66826W        W33894  25.011  30.162  12.370
66827W        W33895   1.253  25.491  11.498
66828W        W33896  27.447  20.637  11.542
66829W        W33897  39.021  20.760   3.738
66830W        W33898  23.183  24.694   2.281
66831W        W33899  39.417  11.793   1.377
66832W        W33900  19.279  19.622  11.512
66833W        W33901  28.013  25.506  11.496
66834W        W33902  41.405  21.094   0.355
66835W        W33903  29.118  16.623   1.371
66836W        W33904  27.471   5.240  12.830
66837W        W33905  39.416  30.621   3.737
66838W        W33906  14.099  23.513  12.926
66839W        W33907  11.159  36.589  10.603
66840W        W33908  41.792  24.125   0.868
66841W        W33909  24.075  35.875   1.859
66842W        W33910  34.068  40.965  14.840
66843W        W33911  19.170  23.223  11.118
66844W        W33912   0.369  37.369   2.813
66845W        W33913  39.424  29.974  10.461
66846W        W33914  36.853   0.903   0.754
66847W        W33915  38.967   3.405   3.740
66848W        W33916  40.406  10.298  12.576
66849W        W33917  19.731  41.006  14.338
66850W        W33918   5.881  15.277  13.989
66851W        W33919  27.543  41.398   1.429
66852W        W33920  14.175  27.164   4.174
66853W        W33921  29.587  35.415  14.383
66854W        W33922  23.089  22.614  12.825
66855W        W33923  42.877  23.202   4.352
66856W        W33924  32.055   9.676  10.994
66857W        W33925  18.593   8.308   2.840
66858W        W33926  38.400  42.980   0.767
66859W        W33927   1.409  13.781  10.946
66860W        W33928   9.872  40.955   1.871
66861W        W33929  34.979  42.836  11.016
66862W        W33930   4.362  26.967  12.028
66863W        W33931  15.733  31.028   3.780
66864W        W33932  37.563   5.283  12.428
66865W        W33933  44.837  27.465  12.383
66866W        W33934  15.578  27.197  13.893
66867W        W33935  34.515  43.435  12.941
66868W        W33936  27.518  37.860   4.761
66869W        W33937  40.896   9.740  10.625
66870W        W33938  33.397  24.100   5.130
66871W        W33939   8.703  15.750  11.858
66872W        W33940  25.014  22.682  12.908
66873W        W33941  11.176  27.557  10.974
66874W        W33942   2.871  11.662   3.234
66875W        W33943  28.594  27.165   2.303
66876W        W33944   5.281   1.895   4.160
66877W        W33945   7.908  15.091  14.384
66878W        W33946   5.353  38.856   4.217
66879W        W33947  31.055  17.633   2.295
66880W        W33948   7.906  25.578   4.255
66881W        W33949  18.084  29.144   3.199
66882W        W33950   7.686  20.764  13.404
66883W        W33951  35.093  37.084   3.305
66884W        W33952  12.238   5.783  12.486
66885W        W33953   5.718  13.264  12.057
66886W        W33954  23.115  26.569  14.936
66887W        W33955  23.695  41.516  12.540
66888W        W33956  36.368   5.882  10.614
66889W        W33957   9.674  18.650   4.127
66890W        W33958  15.288  33.041  12.849
66891W        W33959   7.832  42.933   4.326
66892W        W33960  35.384   5.199   0.872
66893W        W33961  20.121   2.450   3.289
66894W        W33962   5.918  25.215   4.199
66895W        W33963  15.282   5.728   3.753
66896W        W33964  20.107  11.175   4.331
66897W        W33965  19.049  19.563  14.363
66898W        W33966  37.967  28.030  10.017
66899W        W33967  33.052  35.877   1.356
66900W        W33968  23.217  30.653  10.483
66901W        W33969  19.128  32.112   5.280
66902W        W33970  43.939  27.076  12.548
66903W        W33971  35.099  34.389  11.015
66904W        W33972  18.631  17.145  13.874
66905W        W33973  29.551  23.496   2.823
66906W        W33974  31.918  17.682   1.904
66907W        W33975  11.248  24.075   4.308
66908W        W33976  32.098  35.555  14.481
66909W        W33977  31.504  25.145  14.884
66910W        W33978  28.451  39.827  14.794
66911W        W33979  39.385  41.943   2.789
66912W        W33980  29.113  33.086  13.430
66913W        W33981  18.562  13.739  12.496
66914W        W33982  36.097  26.971  14.453
66915W        W33983   5.327  13.843   4.739
66916W        W33984  34.932   5.899  14.891
66917W        W33985  32.102  22.144  14.306
66918W        W33986   2.940  24.505  13.396
66919W        W33987   8.778  23.542  13.319
66920W        W33988  38.460  29.168   1.325
66921W        W33989  15.153  43.379  10.422
66922W        W33990  38.882   6.886   1.928
66923W        W33991   6.809  27.527  13.935
66924W        W33992  31.008  34.959   1.706
66925W        W33993   1.756  36.438  12.069
66926W        W33994   9.176  19.650  14.351
66927W        W33995  35.105  24.574  14.349
66928W        W33996   7.202   2.833   0.961
66929W        W33997  39.413  24.025  14.944
66930W        W33998  26.196  30.421   0.409
66931W        W33999  37.573   4.876  13.929
66932W        W34000  13.245  39.469   0.280
66933W        W34001  33.034  38.473   3.763
66934W        W34002   1.444  41.456   3.181
66935W        W34003  16.204  41.031   1.405
66936W        W34004   7.306   9.883  14.828
66937W        W34005  43.867  35.565   3.352
66938W        W34006  35.105  14.776   2.810
66939W        W34007   0.434  20.256  14.759
66940W        W34008   9.350  30.023  12.084
66941W        W34009  21.592   7.344   0.758
66942W        W34010  42.798   7.215  12.963
66943W        W34011  20.124  16.313   2.700
66944W        W34012  26.582   2.333   0.456
66945W        W34013  30.121  39.813  12.866
66946W        W34014   5.898   1.732  12.517
66947W        W34015  25.206  25.122   2.218
66948W        W34016  25.020  15.108   1.447
66949W        W34017  35.921  36.557  12.008
66950W        W34018  38.346   6.751   4.239
66951W        W34019  21.167  14.778  12.541
66952W        W34020  14.187   4.427   0.906
66953W        W34021  38.484   6.746  13.830
66954W        W34022  13.665   9.234   3.844
66955W        W34023  40.959  37.457  12.377
66956W        W34024  44.471  11.810   4.642
66957W        W34025   5.874  30.552   2.349
66958W        W34026  44.010  10.825   2.833
66959W        W34027  13.817  26.093  13.381
66960W        W34028   1.421  31.509  12.033
66961W        W34029  21.145  43.497  11.592
66962W        W34030   8.343  19.701   2.303
66963W        W34031  24.090  18.557  13.985
66964W        W34032   7.780  20.111   0.273
66965W        W34033  35.593  42.857  11.579
66966W        W34034  35.561  24.980  10.528
66967W        W34035  38.338  10.205   1.798
66968W        W34036   5.267   1.453  10.405
66969W        W34037  44.358  30.640  14.333
66970W        W34038  30.415  36.864  12.035
66971W        W34039  40.923  10.228   4.160
66972W        W34040  26.639  34.017  10.435
66973W        W34041  34.600  17.768  10.428
66974W        W34042  44.359  38.837   4.771
66975W        W34043   7.907  37.425   1.420
66976W        W34044  32.584  27.984  10.478
66977W        W34045   8.234  37.483  12.824
66978W        W34046  36.004  15.232   2.225
66979W        W34047  32.533  20.639   4.666
66980W        W34048  32.011  39.992  11.515
66981W        W34049  42.435  28.647  13.828
66982W        W34050  28.955  44.790   0.949
66983W        W34051  42.334  15.180  10.596
66984W        W34052  36.379  36.954  12.881
66985W        W34053  44.477  39.513  13.430
66986W        W34054  36.437   1.946   3.778
66987W        W34055   0.822   5.248   2.845
66988W        W34056  28.083  22.624   4.345
66989W        W34057  39.059  31.023   3.805
66990W        W34058   5.409   0.415  10.644
66991W        W34059  12.819  33.610  13.349
66992W        W34060  27.003  24.223   1.787
66993W        W34061  13.264  17.267   3.326
66994W        W34062  38.038   2.907   3.345
66995W        W34063  25.179   3.373   0.309
66996W        W34064  28.953   9.180  11.609
66997W        W34065  11.736  20.620  10.446
66998W        W34066  40.362  32.440  13.380
66999W        W34067   2.237  32.949   2.809
67000W        W34068   1.732   7.907   4.704
67001W        W34069  19.103  11.843   2.214
67002W        W34070   5.801  24.068   3.764
67003W        W34071  24.086  13.185   4.210
67004W        W34072  44.977  10.140  11.014
67005W        W34073   6.351  20.158  14.940
67006W        W34074  37.473  36.931   3.198
67007W        W34075  17.719  16.588  14.919
67008W        W34076  27.943   2.932  14.810
67009W        W34077  32.131  25.490  11.594
67010W        W34078  22.110  37.526   2.797
67011W        W34079  25.028  19.077   1.819
67012W        W34080   1.780   9.689  10.425
67013W        W34081   6.386  40.308   0.755
67014W        W34082  39.364  41.404  13.008
67015W        W34083  15.612   5.691   4.160
67016W        W34084  29.573  13.620   3.632
67017W        W34085  39.496   1.959  14.383
67018W        W34086  20.751  20.166   2.664
67019W        W34087  15.683  17.718   4.801
67020W        W34088  37.851   8.287   3.161
67021W        W34089   9.755  30.418  11.516
67022W        W34090  44.311  30.606   9.982
67023W        W34091  31.552  15.319   5.778
67024W        W34092  38.505   1.925  12.362
67025W        W34093  31.552  29.496  14.334
67026W        W34094  25.031  38.848  10.534
67027W        W34095  30.996  30.162  12.948
67028W        W34096  33.896   3.753  13.820
67029W        W34097  20.667  28.050  14.003
67030W        W34098  11.165  38.500  12.051
67031W        W34099  42.000  25.608  14.879
67032W        W34100  29.988   6.817   4.671
67033W        W34101  25.153  28.491  10.440
67034W        W34102  20.090  39.424  14.837
67035W        W34103  14.764  27.050  11.382
67036W        W34104  29.475  37.413  14.352
67037W        W34105  17.723  40.033   1.271
67038W        W34106   9.312  17.175   4.760
67039W        W34107   6.903  21.590   9.981
67040W        W34108  35.965  11.843  14.399
67041W        W34109   3.748  18.754  11.954
67042W        W34110   8.320  27.527   2.736
67043W        W34111   5.200  30.086  14.945
67044W        W34112  12.215  34.432  13.819
67045W        W34113   3.304   3.817   2.718
67046W        W34114   2.733  12.328   3.693
67047W        W34115  32.898  21.172   3.852
67048W        W34116  29.575  20.631   3.223
67049W        W34117  14.218   3.764  13.965
67050W        W34118  10.672  32.064   0.296
67051W        W34119  35.955  35.922   0.274
67052W        W34120  20.103   7.834  14.424
67053W        W34121  42.853  16.295   1.860
67054W        W34122  25.103   6.886   4.677
67055W        W34123  14.218  25.611   1.427
67056W        W34124   8.235  31.075  13.320
67057W        W34125  27.095  18.639  14.399
67058W        W34126  12.698  33.964   1.744
67059W        W34127  29.953   2.436  12.426
67060W        W34128  25.204  29.644  13.871
67061W        W34129  21.641  33.415   4.199
67062W        W34130   1.800   7.410   2.787
67063W        W34131  31.083  40.540   1.742
67064W        W34132  19.254  20.222   9.517
67065W        W34133  31.433  32.135   0.255
67066W        W34134  29.547   2.335   2.371
67067W        W34135  14.615  40.807   4.334
67068W        W34136  28.972   6.779   2.338
67069W        W34137   8.267   7.293   1.294
67070W        W34138  42.947  41.524   0.784
67071W        W34139  43.296  17.162   2.365
67072W        W34140  18.595  33.069   4.151
67073W        W34141  10.721   5.355   4.827
67074W        W34142  37.339  13.772   3.673
67075W        W34143  21.514  41.027  10.914
67076W        W34144  21.545   0.873   4.300
67077W        W34145  39.808  27.032  14.376
67078W        W34146  25.627  34.969  14.933
67079W        W34147   5.793  29.070   1.286
67080W        W34148  28.042  31.505   3.161
67081W        W34149  39.382  34.369  10.407
67082W        W34150  42.284  30.595  11.861
67083W        W34151  22.724   5.254   4.608
67084W        W34152  44.812   3.236   0.831
67085W        W34153   9.698  40.032   4.285
67086W        W34154  25.535  35.989  13.893
67087W        W34155  15.809  23.499   2.821
67088W        W34156  39.485   7.260  13.333
67089W        W34157  43.312  31.482   0.780
67090W        W34158   6.677  38.415  11.117
67091W        W34159  29.458  29.447   4.798
67092W        W34160  28.650  37.045  14.347
67093W        W34161   4.393   2.889  13.984
67094W        W34162  10.636  12.825  12.494
67095W        W34163   1.346   6.868  12.948
67096W        W34164   7.179  21.222  10.924
67097W        W34165  43.840  28.659   1.362
67098W        W34166  39.347  19.103   1.797
67099W        W34167  25.013  37.943  14.456
67100W        W34168  28.008  30.143  12.419
67101W        W34169  32.081  31.623   1.926
67102W        W34170  34.892   4.889   5.166
67103W        W34171  16.154  28.624   3.251
67104W        W34172   2.919  16.602   1.306
67105W        W34173   3.263  30.646   2.179
67106W        W34174   2.826  40.915   4.798
67107W        W34175  30.445   2.791   1.700
67108W        W34176  40.866  27.554   4.174
67109W        W34177  34.506  15.612  12.917
67110W        W34178  44.465  27.478   0.802
67111W        W34179  39.488  24.160  13.327
67112W        W34180  23.653  36.031   0.911
67113W        W34181  29.140  43.951  12.373
67114W        W34182   5.410  29.439   2.362
67115W        W34183  34.484   4.923  12.934
67116W        W34184  43.469   6.798  13.477
67117W        W34185  36.571   5.758  14.360
67118W        W34186   7.356   9.187   3.183
67119W        W34187  30.582  34.536   3.671
67120W        W34188  16.159  19.250  13.354
67121W        W34189  38.426  13.239   2.237
67122W        W34190  26.616  24.719   3.686
67123W        W34191   6.186   8.195   2.361
67124W        W34192  27.516   3.763  12.995
67125W        W34193   7.878  36.913  10.639
67126W        W34194  25.136  14.094  10.949
67127W        W34195  33.072  35.012   0.915
67128W        W34196  32.021   6.364   3.772
67129W        W34197  40.996  25.167   0.260
67130W        W34198  17.176  34.490  12.513
67131W        W34199  40.417  44.277  11.945
67132W        W34200  18.549  13.169  13.423
67133W        W34201  43.018  12.821   1.262
67134W        W34202  35.953  37.410   1.879
67135W        W34203   5.210  17.608   2.704
67136W        W34204  25.596   2.330   3.319
67137W        W34205  39.885  17.225  12.937
67138W        W34206  41.423   8.823   0.400
67139W        W34207  31.126  16.595  10.037
67140W        W34208  19.769  42.489  13.453
67141W        W34209   1.742  41.457   3.273
67142W        W34210   5.747  27.522   4.760
67143W        W34211   3.788  41.486  11.107
67144W        W34212  11.828  10.306  14.937
67145W        W34213  36.573  12.781   3.679
67146W        W34214  29.022  19.127   1.911
67147W        W34215   8.686  23.200   3.759
67148W        W34216  25.060  10.808  12.064
67149W        W34217  29.464  12.733  10.633
67150W        W34218  11.154   6.822   0.953
67151W        W34219  16.267  40.330  12.954
67152W        W34220  43.416  12.125  13.028
67153W        W34221  39.989  26.053   0.865
67154W        W34222   2.229  37.931  10.991
67155W        W34223  29.549  41.369   2.402
67156W        W34224  10.353  19.107  10.967
67157W        W34225   9.863  15.721  12.471
67158W        W34226  28.003  15.708   5.255
67159W        W34227  27.016  14.813   2.882
67160W        W34228  25.107  17.737  10.508
67161W        W34229  42.981  13.107  10.948
67162W        W34230  35.018  32.129  13.915
67163W        W34231  17.162  37.928   1.314
67164W        W34232  27.080  18.569  13.953
67165W        W34233  17.166  16.801  10.471
67166W        W34234  24.133   1.968  14.816
67167W        W34235  39.328  13.162   3.269
67168W        W34236  23.596  19.710  13.541
67169W        W34237  25.592  32.467   0.950
67170W        W34238   2.455  17.589  14.460
67171W        W34239  41.494  15.717  12.089
67172W        W34240  16.232  29.598  11.009
67173W        W34241   4.761  41.983  13.848
67174W        W34242  42.353  15.815  10.103
67175W        W34243  14.197  26.971   1.796
67176W        W34244   2.379   4.813  13.797
67177W        W34245  31.008  17.275   4.832
67178W        W34246  29.133   8.171   1.234
67179W        W34247  15.734  29.496  12.873
67180W        W34248  33.050  38.487  14.505
67181W        W34249  19.090  20.625   3.772
67182W        W34250  11.247  39.897   1.796
67183W        W34251  15.687   5.866   0.267
67184W        W34252  43.788  35.416   4.209
67185W        W34253  27.465  30.560   0.337
67186W        W34254  39.876  28.551  13.384
67187W        W34255  34.415  30.644  12.869
67188W        W34256  12.754  27.193   0.779
67189W        W34257  34.476  20.070   3.851
67190W        W34258  35.570   5.378  11.452
67191W        W34259  24.021  37.881   0.957
67192W        W34260   1.897  30.988   0.947
67193W        W34261  23.553  16.667  11.126
67194W        W34262  29.582  33.578   0.799
67195W        W34263  16.262  15.755  10.458
67196W        W34264   1.962  25.704  13.325
67197W        W34265   2.751   1.384  13.007
67198W        W34266  30.151   2.328   0.298
67199W        W34267  44.363  20.759  10.530
67200W        W34268  23.723  30.553  11.948
67201W        W34269  22.090  21.646   1.862
67202W        W34270  22.597  27.539   3.772
67203W        W34271  22.133   4.872  11.858
67204W        W34272  12.636  10.756   3.166
67205W        W34273  34.947  30.078  11.972
67206W        W34274   6.376  18.158   4.681
67207W        W34275   0.464  11.346  12.349
67208W        W34276   9.154  39.032   4.349
67209W        W34277  29.040  20.731   0.455
67210W        W34278  28.976  26.952  11.011
67211W        W34279  43.972  41.301  10.529
67212W        W34280   0.446  37.475   2.369
67213W        W34281  12.211  44.471  13.497
67214W        W34282  10.208  19.778  12.489
67215W        W34283  30.050  24.556   0.829
67216W        W34284   7.376  19.671  14.424
67217W        W34285  28.033   9.802  14.785
67218W        W34286  38.890  20.187  10.081
67219W        W34287   3.898  16.758   0.267
67220W        W34288  31.045  12.201   1.330
67221W        W34289  11.172  11.706   1.750
67222W        W34290  40.891  14.671   2.692
67223W        W34291  27.066  37.840  13.005
67224W        W34292  15.682  43.997   2.728
67225W        W34293  30.655  24.227  14.466
67226W        W34294  31.084  10.294  10.976
67227W        W34295  11.701  18.554  10.535
67228W        W34296  40.545  12.171   0.282
67229W        W34297  15.760   4.829   3.662
67230W        W34298   5.348  22.718   2.727
67231W        W34299  10.877   9.801   4.348
67232W        W34300   8.663  22.671   5.291
67233W        W34301   3.876  28.468   0.761
67234W        W34302   2.235   4.412  14.347
67235W        W34303   0.756  19.555  14.953
67236W        W34304  43.985   7.272   3.683
67237W        W34305  39.893  41.976  12.403
67238W        W34306  23.618  43.967  13.437
67239W        W34307   5.213   7.910  13.045
67240W        W34308  14.181   8.399   4.651
67241W        W34309  20.763  11.760   4.813
67242W        W34310  35.440  32.583  11.076
67243W        W34311  20.585   8.665  12.829
67244W        W34312   1.735  41.818   1.395
67245W        W34313   2.328   9.712  14.516
67246W        W34314  15.660  18.627   3.256
67247W        W34315  10.140  38.043  14.331
67248W        W34316  17.610  17.786   3.677
67249W        W34317  29.617  16.699  11.927
67250W        W34318  42.458   4.348   0.452
67251W        W34319  35.957  44.915  12.340
67252W        W34320   8.658  16.085   2.280
67253W        W34321  22.172  23.625   2.185
67254W        W34322  18.708  29.607   1.753
67255W        W34323  12.166  37.436  12.482
67256W        W34324  40.423   2.287  13.868
67257W        W34325   8.789  39.332   3.182
67258W        W34326  30.420  12.757  13.805
67259W        W34327  22.704  44.280   4.143
67260W        W34328  36.874  39.953  12.973
67261W        W34329  24.084  31.930   0.876
67262W        W34330  16.083   7.821  10.131
67263W        W34331  18.151   2.305   1.226
67264W        W34332  41.327  27.547   0.253
67265W        W34333  15.581  15.195  13.490
67266W        W34334  30.427  34.955   3.676
67267W        W34335   2.432   3.375   0.728
67268W        W34336   7.186  22.237  12.924
67269W        W34337  32.088  24.998  13.804
67270W        W34338  18.239  23.994  13.799
67271W        W34339  41.411  17.712   1.904
67272W        W34340  16.677  43.825   4.174
67273W        W34341  10.836  39.428  14.418
67274W        W34342  10.360   1.794  12.399
67275W        W34343  42.987   2.886  12.386
67276W        W34344  11.791  29.657  14.412
67277W        W34345   1.916  30.430   2.403
67278W        W34346  15.107  35.534  13.477
67279W        W34347  29.429  13.629  14.957
67280W        W34348  37.385  43.288  14.363
67281W        W34349  25.993  15.167   0.363
67282W        W34350  36.994  27.189   0.429
67283W        W34351  36.092   2.720   4.146
67284W        W34352  38.416  32.534   4.766
67285W        W34353  35.454  38.406   1.733
67286W        W34354  29.534  38.001   3.341
67287W        W34355   3.235  28.507  13.454
67288W        W34356  38.471  10.715  11.539
67289W        W34357  23.066  18.227   1.729
67290W        W34358  30.076  32.442   5.218
67291W        W34359  25.168  13.213  12.534
67292W        W34360   5.825  22.500   2.815
67293W        W34361  33.877  27.637   4.197
67294W        W34362   2.815   0.862  14.968
67295W        W34363  28.038   8.799   3.840
67296W        W34364  33.901  43.782  13.014
67297W        W34365   6.847  33.503   0.861
67298W        W34366   6.404   5.916   0.739
67299W        W34367  34.590  20.182   1.342
67300W        W34368   2.914  20.667   1.704
67301W        W34369   9.816  16.676   4.334
67302W        W34370  18.660  11.690   5.195
67303W        W34371  24.213  25.160   3.689
67304W        W34372  42.979  16.721  13.904
67305W        W34373  23.187  31.538   4.602
67306W        W34374  15.579  33.063  11.454
67307W        W34375  35.940  32.105   0.834
67308W        W34376  41.792   2.823  14.831
67309W        W34377  17.096   4.352  14.767
67310W        W34378  16.642  27.609  14.466
67311W        W34379  39.527   6.819  14.957
67312W        W34380  42.957  12.742   4.115
67313W        W34381  27.025  27.611   4.127
67314W        W34382  37.503  32.438   0.926
67315W        W34383  24.132   9.685   0.250
67316W        W34384   7.401  39.979  14.420
67317W        W34385  24.543  31.488   4.760
67318W        W34386  30.645  10.835  13.506
67319W        W34387  18.076  28.577   1.835
67320W        W34388  15.700  19.165   2.891
67321W        W34389  32.619  35.991  10.900
67322W        W34390  15.703  36.874   0.347
67323W        W34391  12.738   2.731   0.333
67324W        W34392  30.976  18.658   4.650
67325W        W34393   0.376  23.588  14.428
67326W        W34394  33.590  12.722  13.866
67327W        W34395   8.242  44.757   2.863
67328W        W34396  14.142  36.455  14.974
67329W        W34397  26.153  24.197   1.247
67330W        W34398   0.808  19.232   0.268
67331W        W34399  32.629   5.292   4.283
67332W        W34400  16.213   2.439  10.637
67333W        W34401  11.820  23.552   5.313
67334W        W34402  22.693  41.487   1.853
67335W        W34403  34.444  30.555   0.475
67336W        W34404  24.655  39.497  14.763
67337W        W34405  36.587   4.448  14.877
67338W        W34406  33.928  38.049  11.871
67339W        W34407  18.216  32.942  13.878
67340W        W34408  20.555  30.090  10.583
67341W        W34409  29.499  20.652   1.230
67342W        W34410   8.716   1.430  12.995
67343W        W34411  39.060  35.406   1.401
67344W        W34412  26.006  42.978   4.209
67345W        W34413  17.119   3.447  12.529
67346W        W34414   3.221  31.631   3.191
67347W        W34415   2.812  25.702   0.295
67348W        W34416   4.882  30.430   0.284
67349W        W34417   5.837  40.308  12.015
67350W        W34418   4.332  30.073  12.412
67351W        W34419  40.818   8.312   0.440
67352W        W34420   6.712  39.540   1.236
67353W        W34421  22.603  16.152  14.003
67354W        W34422  40.435  10.290  11.864
67355W        W34423  18.698  16.277   0.373
67356W        W34424  39.496  38.004   1.301
67357W        W34425  23.997   5.207  14.925
67358W        W34426  41.369  14.231  13.060
67359W        W34427  21.188  38.978  10.018
67360W        W34428  34.399   7.808  13.985
67361W        W34429  43.490  26.646  14.445
67362W        W34430   5.883   8.238   2.783
67363W        W34431  36.070  21.258  11.118
67364W        W34432   5.427  31.465   4.757
67365W        W34433  35.500   0.965   1.306
67366W        W34434  44.472  33.470   2.381
67367W        W34435  22.731  34.519   9.921
67368W        W34436  11.203  19.646  13.529
67369W        W34437  19.215  21.670  12.514
67370W        W34438  16.301   3.410   1.449
67371W        W34439  32.013  11.224  11.100
67372W        W34440  39.366  14.757   0.434
67373W        W34441   4.824  17.601   0.855
67374W        W34442  26.639  29.526   4.782
67375W        W34443   5.738  37.857  10.552
67376W        W34444  38.492  36.883  11.465
67377W        W34445   2.752  26.153   3.788
67378W        W34446  19.191  19.075   3.658
67379W        W34447  32.463  27.568  13.361
67380W        W34448  43.293  23.670  14.765
67381W        W34449  17.153  40.523   9.981
67382W        W34450  14.335  27.145   0.329
67383W        W34451  41.341   4.796   1.361
67384W        W34452  38.419  32.489  11.444
67385W        W34453  43.832  18.780  10.632
67386W        W34454  29.514   0.950   0.290
67387W        W34455  39.840   5.931   0.949
67388W        W34456  29.960   0.899  12.900
67389W        W34457  40.909  24.545   3.785
67390W        W34458  16.239  31.617  13.380
67391W        W34459  10.339  11.816  12.506
67392W        W34460  19.716  20.588  11.006
67393W        W34461   9.344  32.001   1.296
67394W        W34462  26.598  41.931  14.337
67395W        W34463  12.715  20.559  12.833
67396W        W34464  37.998   0.380  12.350
67397W        W34465   9.316  31.107  13.936
67398W        W34466  13.307  23.012   1.779
67399W        W34467  12.256  28.022   2.851
67400W        W34468  19.564   4.309   4.597
67401W        W34469  38.070  17.595  11.475
67402W        W34470  41.354   7.794   3.285
67403W        W34471   9.207  43.432  11.948
67404W        W34472  29.110  10.768   4.653
67405W        W34473  12.617  35.531   4.326
67406W        W34474  12.347   2.858  13.870
67407W        W34475  11.264  30.093  12.912
67408W        W34476  34.942  26.563  10.119
67409W        W34477  13.296   3.946   0.457
67410W        W34478  21.709  39.518  13.951
67411W        W34479  23.655  41.034  11.518
67412W        W34480   5.926  31.561   3.637
67413W        W34481  41.457  41.472  14.396
67414W        W34482  16.200  40.426  10.426
67415W        W34483  32.138  35.415   1.243
67416W        W34484   6.385  25.480   2.364
67417W        W34485  12.273  25.136   4.773
67418W        W34486  40.812  18.719   0.331
67419W        W34487   9.787  11.361   0.381
67420W        W34488  31.009   2.451  10.412
67421W        W34489  43.780  26.110  12.061
67422W        W34490  20.714  31.904  12.556
67423W        W34491  40.329  30.011  14.763
67424W        W34492  30.611  27.453  11.529
67425W        W34493  19.188  39.815   0.844
67426W        W34494  44.765  27.105  12.531
67427W        W34495  35.916   3.240   4.699
67428W        W34496  17.102  31.627   3.218
67429W        W34497  20.581  32.482  13.999
67430W        W34498  22.250  29.098  14.833
67431W        W34499   4.887   1.316   1.330
67432W        W34500  43.410  41.342   2.226
67433W        W34501  23.999  11.726  14.320
67434W        W34502  14.642  27.463   3.703
67435W        W34503  32.408  22.624   0.384
67436W        W34504  36.522  44.954   0.403
67437W        W34505  23.149   2.930  11.046
67438W        W34506  39.861  15.586  13.444
67439W        W34507  35.535  31.975   0.899
67440W        W34508  13.291  35.446   1.271
67441W        W34509  12.153   0.761  13.533
67442W        W34510  36.531  38.050   3.358
67443W        W34511   6.342  17.589   5.307
67444W        W34512  15.246  34.401  11.954
67445W        W34513  11.328  30.157  12.474
67446W        W34514   6.905   2.735  12.991
67447W        W34515  34.093  31.629  14.461
67448W        W34516   3.416  27.594  13.483
67449W        W34517  20.135  19.620   5.263
67450W        W34518  30.146  34.004  14.347
67451W        W34519  41.432   3.919  13.419
67452W        W34520  17.589  39.475   0.922
67453W        W34521  29.141  11.675  10.636
67454W        W34522  33.583  35.037   2.696
67455W        W34523  38.909  40.312   0.890
67456W        W34524  21.178  34.422  11.469
67457W        W34525  33.394  41.818   0.738
67458W        W34526  13.200   8.789  12.416
67459W        W34527  13.299  36.389   0.813
67460W        W34528  11.305  10.656  10.447
67461W        W34529  14.711   3.419  12.951
67462W        W34530  42.880  37.929  13.966
67463W        W34531  36.093  22.149  13.057
67464W        W34532   0.851  41.880  12.999
67465W        W34533  40.813   2.460  11.572
67466W        W34534  38.012   4.402   4.230
67467W        W34535  21.081   4.208  12.343
67468W        W34536  28.051  41.381  11.426
67469W        W34537  31.010  35.487  14.774
67470W        W34538  41.859  23.723   1.236
67471W        W34539  35.042  38.528  14.478
67472W        W34540  36.498  14.778  10.462
67473W        W34541  38.903   0.458   1.889
67474W        W34542  12.762   0.859  10.012
67475W        W34543  17.125  21.017  13.815
67476W        W34544  34.989  35.592  12.963
67477W        W34545  30.923   6.353   4.759
67478W        W34546  19.053  22.228   0.750
67479W        W34547   4.342  43.500   2.296
67480W        W34548  31.403  21.519  12.052
67481W        W34549   0.882  10.829   4.117
67482W        W34550  37.006   2.863   0.332
67483W        W34551   4.889   0.458   3.241
67484W        W34552  40.319  25.040  14.356
67485W        W34553   9.258  25.215   4.157
67486W        W34554  19.755  40.967  10.107
67487W        W34555  17.302  36.036   1.265
67488W        W34556  44.981  41.512   1.931
67489W        W34557  13.836  14.324  13.964
67490W        W34558  21.187   0.363   2.180
67491W        W34559   7.243  42.499   4.301
67492W        W34560   2.811  28.660  10.440
67493W        W34561  19.163  16.138  11.969
67494W        W34562  10.383  35.424   3.165
67495W        W34563  20.028  40.915  11.587
67496W        W34564  20.149  11.829  12.849
67497W        W34565  17.083  21.738   1.322
67498W        W34566   4.818  28.048   0.805
67499W        W34567   3.313  44.490  12.436
67500W        W34568   1.244  24.178   4.708
67501W        W34569   6.268  19.741  13.945
67502W        W34570  19.055  30.596  12.912
67503W        W34571  42.330  35.422   1.762
67504W        W34572  13.154  20.225  13.051
67505W        W34573   7.381  19.559   4.289
67506W        W34574  42.387   3.284  12.066
67507W        W34575  22.175  35.056   2.847
67508W        W34576  32.567   8.313   1.381
67509W        W34577  29.451  27.146   3.197
67510W        W34578   3.938  41.303   4.269
67511W        W34579   6.772   4.742  12.375
67512W        W34580  24.189  12.800  10.033
67513W        W34581  22.508  23.210  12.870
67514W        W34582  19.554  30.050  12.038
67515W        W34583  44.502  42.840   2.225
67516W        W34584   5.885  13.658   1.719
67517W        W34585  41.865  30.074  12.438
67518W        W34586  35.409  25.567  13.467
67519W        W34587  44.827  16.759   4.684
67520W        W34588  25.999  28.996  13.889
67521W        W34589   6.277  35.019  12.998
67522W        W34590  29.589  17.760   1.763
67523W        W34591   2.335   9.723  12.056
67524W        W34592  26.059  14.094   4.233
67525W        W34593   0.849   6.783   3.300
67526W        W34594  13.841  10.835  10.563
67527W        W34595  27.466  18.566  11.931
67528W        W34596  38.338  23.135  13.057
67529W        W34597   9.297  22.631   2.885
67530W        W34598   1.854  42.282   3.680
67531W        W34599  28.097  35.043  12.505
67532W        W34600   6.891  32.626   4.657
67533W        W34601  34.412  19.265  12.511
67534W        W34602   4.438  37.883  12.425
67535W        W34603   9.382  38.408   1.752
67536W        W34604  37.849  24.046  14.863
67537W        W34605   8.367  17.246   9.980
67538W        W34606  30.945   7.219   5.308
67539W        W34607   9.843  36.891   1.831
67540W        W34608  20.596  34.557   0.277
67541W        W34609   1.333  34.033   3.683
67542W        W34610  10.803  27.968   4.634
67543W        W34611  22.203  31.141   1.319
67544W        W34612  34.497  44.337   4.311
67545W        W34613  39.920  23.619   4.655
67546W        W34614  32.623  41.384  11.551
67547W        W34615   8.774  31.552   3.275
67548W        W34616  12.271  31.041  10.951
67549W        W34617  36.841  21.136  12.959
67550W        W34618   7.205  36.987   2.195
67551W        W34619  20.710  19.644  13.442
67552W        W34620  24.544  40.912   2.399
67553W        W34621  27.097  22.571   2.264
67554W        W34622  40.940  34.918   4.150
67555W        W34623  25.034  43.989  12.412
67556W        W34624  30.624  42.386   1.800
67557W        W34625  26.689  18.251  14.490
67558W        W34626  16.715  13.735   3.862
67559W        W34627  38.979   8.719  11.406
67560W        W34628  34.038  25.198  11.091
67561W        W34629  41.328  30.489   3.241
67562W        W34630  42.515   0.848   4.766
67563W        W34631  14.138   3.262  11.068
67564W        W34632  38.875  18.198  14.378
67565W        W34633  24.043  35.577   0.789
67566W        W34634  13.271  30.415  11.897
67567W        W34635  13.784  24.000  13.919
67568W        W34636  33.073  33.964  12.518
67569W        W34637   6.383   4.730   0.472
67570W        W34638  10.198   0.300   0.421
67571W        W34639   7.791  21.163   4.159
67572W        W34640  42.406  31.455   0.956
67573W        W34641  22.710  39.026   5.311
67574W        W34642   8.359  39.353   3.363
67575W        W34643   3.443  26.169   2.840
67576W        W34644  24.181  34.559   0.461
67577W        W34645   2.804  39.433   2.313
67578W        W34646  25.565  32.913   1.315
67579W        W34647  43.005  17.580   4.306
67580W        W34648  20.554  16.255  14.786
67581W        W34649  11.828   9.181   3.223
67582W        W34650  20.217  18.127   1.694
67583W        W34651  27.141  21.541   3.186
67584W        W34652  34.890  25.608   1.729
67585W        W34653  42.909  39.392   1.272
67586W        W34654  20.600  11.830  12.464
67587W        W34655  10.363  44.324  13.861
67588W        W34656  18.616  21.747  10.071
67589W        W34657  27.025  43.989   1.886
67590W        W34658  12.791   9.888  13.328
67591W        W34659  41.851  38.075  13.470
67592W        W34660  18.586  27.531   3.693
67593W        W34661  27.093  32.551   1.916
67594W        W34662  29.618   7.389  11.595
67595W        W34663   5.806  34.530   2.817
67596W        W34664   8.739  34.008  12.956
67597W        W34665  28.519  37.425   3.298
67598W        W34666   3.920  39.376   1.269
67599W        W34667   7.404  15.639  13.825
67600W        W34668  31.420   5.826  10.600
67601W        W34669  42.980   3.892   1.842
67602W        W34670  31.100  38.331   3.759
67603W        W34671  13.620  24.204   1.270
67604W        W34672   6.300  37.875  14.462
67605W        W34673  41.502  44.301   4.146
67606W        W34674  25.086  38.556   2.356
67607W        W34675   3.313  37.085   4.689
67608W        W34676   1.431  15.107  12.017
67609W        W34677  29.463   0.477  10.922
67610W        W34678  29.016  39.854   3.241
67611W        W34679  25.677  30.068   1.756
67612W        W34680   8.827  11.679   4.818
67613W        W34681  20.169  31.901  10.984
67614W        W34682  40.374   0.902   2.885
67615W        W34683   3.311  18.091   2.308
67616W        W34684   8.791  33.516   4.707
67617W        W34685   9.306  27.068   0.762
67618W        W34686  14.159   9.735  12.431
67619W        W34687  29.063  22.165  11.887
67620W        W34688  28.092  13.272   3.820
67621W        W34689   1.832  43.938   4.813
67622W        W34690  33.127  33.418   4.754
67623W        W34691  35.604  31.546   2.822
67624W        W34692   8.350   6.847   1.227
67625W        W34693  31.025  12.273  14.331
67626W        W34694  28.449   9.178  12.084
67627W        W34695  24.576  12.352  11.600
67628W        W34696   0.851  21.222   3.266
67629W        W34697  36.403  37.030   4.761
67630W        W34698   3.353  33.896  13.385
67631W        W34699  43.300  33.097   0.747
67632W        W34700  39.524   4.911  13.988
67633W        W34701   4.928  36.005   2.692
67634W        W34702   3.239   7.336  10.956
67635W        W34703  11.307  43.018  11.895
67636W        W34704  34.538  33.059  14.311
67637W        W34705  31.089  39.514   1.833
67638W        W34706  15.175   3.301  12.066
67639W        W34707  16.072  34.993  11.458
67640W        W34708   0.797  30.556   1.802
67641W        W34709  27.994  42.377   0.842
67642W        W34710   3.788  31.605  14.503
67643W        W34711   4.875  22.156   3.283
67644W        W34712  39.045   3.782  14.909
67645W        W34713  26.492  42.956  11.084
67646W        W34714  26.010   4.442   0.482
67647W        W34715  42.798  35.503   3.255
67648W        W34716   4.824  14.238   2.812
67649W        W34717   1.358   7.351   2.206
67650W        W34718  14.689  34.907  14.857
67651W        W34719   3.895  23.192   3.829
67652W        W34720  28.591  16.574  13.894
67653W        W34721  23.515  10.823  14.429
67654W        W34722  14.293   1.926   4.266
67655W        W34723   8.192  18.772   2.878
67656W        W34724  11.760  20.587   4.281
67657W        W34725   7.886   1.897   4.774
67658W        W34726  25.693  16.698   2.848
67659W        W34727  40.834  37.495   3.766
67660W        W34728   1.917   6.203   3.660
67661W        W34729  29.919  28.563   4.801
67662W        W34730   8.238  37.513  10.432
67663W        W34731  43.907  38.446   1.409
67664W        W34732  35.954  17.746   3.703
67665W        W34733   5.432  42.356   0.397
67666W        W34734  33.506  18.214  11.024
67667W        W34735  44.901  30.083   3.302
67668W        W34736  11.795  39.551   4.800
67669W        W34737  39.435  36.018  10.989
67670W        W34738   6.737  35.424  14.810
67671W        W34739  16.314  28.051  11.898
67672W        W34740   5.263  42.350   3.824
67673W        W34741   7.269  14.308   2.210
67674W        W34742  25.146  35.994   2.256
67675W        W34743   0.922  13.341  13.894
67676W        W34744  11.242  35.513   3.648
67677W        W34745  34.051   9.691  14.403
67678W        W34746   1.428  40.992   4.203
67679W        W34747  21.189  32.087   4.640
67680W        W34748  36.859  24.044  13.049
67681W        W34749  31.643   8.351  13.845
67682W        W34750  43.852  14.694   3.783
67683W        W34751  43.903  15.274   3.733
67684W        W34752  24.638  22.521  13.974
67685W        W34753  40.985  24.649   1.253
67686W        W34754   6.333   0.903  13.488
67687W        W34755  17.802  16.094  14.344
67688W        W34756  41.905  36.845  14.951
67689W        W34757  39.832  25.160   0.780
67690W        W34758  15.181  36.431  14.824
67691W        W34759   8.881  44.287  13.492
67692W        W34760  39.996  25.518   3.315
67693W        W34761  33.039  33.015  12.419
67694W        W34762  21.592   5.911   4.737
67695W        W34763  41.969  12.746   1.783
67696W        W34764  28.465  30.114  11.456
67697W        W34765  12.168  11.234  12.415
67698W        W34766  17.596  16.807   0.833
67699W        W34767  29.546   9.837  13.863
67700W        W34768  39.834  38.061  12.442
67701W        W34769   6.822  21.651  11.046
67702W        W34770  42.511  10.783  14.830
67703W        W34771   8.351   6.852   2.750
67704W        W34772  27.099  35.452   2.685
67705W        W34773  27.176   8.674   3.356
67706W        W34774  13.237  23.515   0.786
67707W        W34775  13.281  33.052  14.934
67708W        W34776  25.543   6.403  12.046
67709W        W34777  10.758  13.146  12.882
67710W        W34778  25.686  32.962   2.304
67711W        W34779  11.823   4.211   1.312
67712W        W34780  18.155   7.278   3.374
67713W        W34781  37.882  12.645  14.852
67714W        W34782  32.969   5.345  12.840
67715W        W34783   2.310  28.114   4.184
67716W        W34784  16.708  19.605  13.842
67717W        W34785   1.783  13.722  14.937
67718W        W34786   3.387  41.536  11.443
67719W        W34787   8.718  43.301  11.531
67720W        W34788   3.870  32.919  11.002
67721W        W34789   3.892  40.442   4.139
67722W        W34790  44.836  33.541   4.281
67723W        W34791   2.308  12.737   3.641
67724W        W34792   9.254  19.584  11.524
67725W        W34793  25.650  18.746  14.908
67726W        W34794  37.833  34.970  12.989
67727W        W34795   1.351  32.058  13.058
67728W        W34796  28.647  28.645   2.360
67729W        W34797   0.754  35.534  12.926
67730W        W34798  14.100  17.252  11.519
67731W        W34799  15.149  32.081   2.265
67732W        W34800  33.596  24.520  12.361
67733W        W34801  12.304  25.664  14.850
67734W        W34802  31.098  44.770  14.465
67735W        W34803   4.437  37.372   1.891
67736W        W34804  32.491  30.988   3.750
67737W        W34805  42.828  32.942   0.786
67738W        W34806   5.781  35.089   2.235
67739W        W34807  15.308   6.190   2.684
67740W        W34808  44.442   4.888  13.939
67741W        W34809  22.182  23.141   4.676
67742W        W34810   7.231  25.987  10.553
67743W        W34811  37.373   2.430  12.018
67744W        W34812   9.852  11.213   0.811
67745W        W34813  33.058  11.356   4.600
67746W        W34814  10.275  25.661   2.367
67747W        W34815  21.720  30.602  13.336
67748W        W34816  38.854   8.368  11.566
67749W        W34817   6.899  30.058  14.030
67750W        W34818  39.042  19.097  13.343
67751W        W34819  18.228   2.737  10.486
67752W        W34820  30.480  28.643   0.834
67753W        W34821  18.174  29.537   3.173
67754W        W34822  42.806  15.301  14.386
67755W        W34823  30.533  35.996  14.287
67756W        W34824  15.114  18.785   0.385
67757W        W34825  23.550  40.037   2.278
67758W        W34826  17.682  36.880  12.931
67759W        W34827  19.692  32.066   1.769
67760W        W34828  16.080   8.173  12.041
67761W        W34829  35.853  13.269   4.275
67762W        W34830  11.371   3.867  10.571
67763W        W34831  19.554  44.313  12.506
67764W        W34832  35.510   9.744  14.460
67765W        W34833  26.189  20.056   4.656
67766W        W34834  19.538  13.213   1.426
67767W        W34835  17.155   1.957   3.360
67768W        W34836  15.681  30.442   3.704
67769W        W34837  40.809  18.590   2.742
67770W        W34838  25.967  30.596   1.714
67771W        W34839  41.528  34.075  13.449
67772W        W34840  37.907  34.376  12.096
67773W        W34841  33.890  28.518  10.560
67774W        W34842  18.700  28.062   3.149
67775W        W34843   8.262   1.767   2.358
67776W        W34844  19.090  33.463  12.427
67777W        W34845  18.206   1.794  12.408
67778W        W34846  41.978  34.023   1.304
67779W        W34847   4.264  38.022   0.934
67780W        W34848   6.719  36.046   2.844
67781W        W34849   3.240  14.779   4.836
67782W        W34850  34.455  25.620  12.522
67783W        W34851   3.865  25.215  14.002
67784W        W34852  17.286  36.990   3.653
67785W        W34853   3.784  42.511  11.468
67786W        W34854  44.877  15.635  10.463
67787W        W34855  30.543  38.533  12.505
67788W        W34856   7.776  11.176   0.912
67789W        W34857  36.079  24.624   4.814
67790W        W34858  20.558  20.584   3.220
67791W        W34859  10.719  21.541   4.805
67792W        W34860   2.961  19.078  14.438
67793W        W34861  41.481  22.156  11.119
67794W        W34862   8.839  11.361   1.307
67795W        W34863  18.698  36.946  13.431
67796W        W34864  27.050  19.185  13.833
67797W        W34865  28.598  20.163   4.670
67798W        W34866  17.744  11.225   2.191
67799W        W34867  38.045  29.548  12.062
67800W        W34868  12.245  33.909  10.558
67801W        W34869   8.665  30.503  11.611
67802W        W34870  13.166  22.654   1.855
67803W        W34871   3.338  11.219  13.514
67804W        W34872   9.301  44.859  12.466
67805W        W34873  40.549   7.250   2.665
67806W        W34874  21.253   8.351  10.580
67807W        W34875  26.180  39.376  12.879
67808W        W34876   6.285   5.206   4.247
67809W        W34877  30.106   1.922   0.376
67810W        W34878  28.136  14.699   3.312
67811W        W34879  24.116  18.122   1.352
67812W        W34880  20.747  15.731  13.984
67813W        W34881  34.453  14.277   1.322
67814W        W34882  37.454   7.231   0.938
67815W        W34883   7.740  29.146  12.498
67816W        W34884   1.464   0.300   4.668
67817W        W34885  39.015  23.063  11.087
67818W        W34886  44.477  20.596   4.125
67819W        W34887   3.883   4.779  10.013
67820W        W34888  26.182  25.976  12.871
67821W        W34889   3.751  25.714   3.188
67822W        W34890  17.246  32.438  13.338
67823W        W34891   5.716  33.562  12.911
67824W        W34892   7.350  23.106  11.955
67825W        W34893  44.340  20.057  14.348
67826W        W34894   9.313  19.556   4.648
67827W        W34895  44.450  40.035  11.377
67828W        W34896  39.843  42.847  11.049
67829W        W34897  21.659  20.076   3.373
67830W        W34898  37.414  38.441  13.802
67831W        W34899  36.522  29.643   0.808
67832W        W34900  26.050   0.365   3.154
67833W        W34901  27.586   8.301  11.553
67834W        W34902  22.184  44.483  12.505
67835W        W34903  14.231  43.866   2.817
67836W        W34904  13.604   5.379   0.907
67837W        W34905   9.787  22.669   4.158
67838W        W34906  18.240   4.215   3.799
67839W        W34907  30.007  41.872  12.858
67840W        W34908   1.253  20.260   4.600
67841W        W34909  22.643  31.910   4.260
67842W        W34910  32.095  11.334   2.784
67843W        W34911  30.634  43.449  14.934
67844W        W34912  27.098  21.560  13.034
67845W        W34913   0.252  35.587  12.933
67846W        W34914   2.428  22.746  12.053
67847W        W34915  37.414   9.297  12.827
67848W        W34916  26.168  23.679  13.958
67849W        W34917  38.509  20.751  11.905
67850W        W34918  26.588  36.510   1.349
67851W        W34919  17.624  39.431   2.677
67852W        W34920  35.957  35.383  11.958
67853W        W34921  39.349   9.192   2.408
67854W        W34922   3.444  40.434  14.894
67855W        W34923   6.695  37.850   2.662
67856W        W34924  37.374  42.369   4.236
67857W        W34925  13.630   4.813  14.468
67858W        W34926  10.318  18.125   3.839
67859W        W34927  10.708  26.634  12.410
67860W        W34928  32.099  40.876  12.008
67861W        W34929  24.528  12.610   2.753
67862W        W34930  42.353  11.175   3.637
67863W        W34931   7.299  31.449   1.298
67864W        W34932  41.315  20.731   1.372
67865W        W34933  30.988  40.396  10.924
67866W        W34934  44.452  10.288  12.839
67867W        W34935  16.268  26.196   1.276
67868W        W34936  35.058  31.093   1.432
67869W        W34937  18.746  40.030   4.337
67870W        W34938  37.437  16.754   4.209
67871W        W34939   5.809   9.826  14.880
67872W        W34940  26.668   8.219  11.410
67873W        W34941  27.151  24.670  13.383
67874W        W34942  22.644  36.513  11.099
67875W        W34943   0.931  17.247   4.303
67876W        W34944  38.474   0.945  11.096
67877W        W34945   4.846  35.445  14.442
67878W        W34946  12.259   3.898   2.219
67879W        W34947  27.677  19.703  13.462
67880W        W34948  21.051  30.072   3.672
67881W        W34949  34.868  18.266   3.758
67882W        W34950  36.377  28.118   1.724
67883W        W34951   7.670   9.354  13.418
67884W        W34952  36.907  26.624  10.543
67885W        W34953  32.898   3.262   1.796
67886W        W34954   2.920   6.248  14.791
67887W        W34955   8.211  25.705  11.081
67888W        W34956  25.582  20.617  14.843
67889W        W34957  33.890   5.253   3.320
67890W        W34958  32.108  26.963   2.791
67891W        W34959  34.432  29.034  11.456
67892W        W34960  26.993  38.844   1.838
67893W        W34961  33.921  28.650   2.368
67894W        W34962   9.201  23.102  12.983
67895W        W34963   0.846   6.821   3.693
67896W        W34964  14.161  12.298   1.923
67897W        W34965   4.751  15.137   0.772
67898W        W34966  42.030  18.581   2.736
67899W        W34967  43.446  15.593   4.244
67900W        W34968  32.067  39.508   0.271
67901W        W34969   9.883  44.908   3.654
67902W        W34970  39.932  28.178  14.990
67903W        W34971  17.246  31.103  14.962
67904W        W34972  41.852   7.411  11.385
67905W        W34973  21.200  27.528  12.052
67906W        W34974   4.421   4.338  11.071
67907W        W34975   5.902  27.645   4.260
67908W        W34976   6.212  27.627  12.497
67909W        W34977  42.825  26.492  13.029
67910W        W34978  26.200  32.439   0.939
67911W        W34979   8.268  38.861  13.912
67912W        W34980  37.487  35.965   0.245
67913W        W34981  12.636  38.964  11.898
67914W        W34982  34.975  16.567   2.188
67915W        W34983  26.590  41.505   0.342
67916W        W34984  15.240  34.032  14.289
67917W        W34985  41.427  32.482  10.630
67918W        W34986  28.952   7.883  14.393
67919W        W34987  37.035  12.328  14.793
67920W        W34988  17.249  36.867   2.325
67921W        W34989  33.471  22.611   5.270
67922W        W34990  30.104  30.426   2.188
67923W        W34991  14.695   3.266   2.897
67924W        W34992  15.670   0.348   2.751
67925W        W34993  39.973  26.081   3.148
67926W        W34994   4.210  42.283   3.728
67927W        W34995   2.802   8.683   2.809
67928W        W34996  11.236  32.536   3.214
67929W        W34997  35.534  25.017   2.666
67930W        W34998  22.529   2.231   0.882
67931W        W34999  10.652   3.392   1.362
67932W        W35000  16.236  34.974  13.803
67933W        W35001  27.964  28.681  10.419
67934W        W35002  43.021  32.551   3.306
67935W        W35003  21.039  43.441  14.408
67936W        W35004   7.251  38.406  11.547
67937W        W35005  16.183  44.441  11.954
67938W        W35006   2.813  44.900  10.942
67939W        W35007  19.566   4.909  10.563
67940W        W35008  44.456  44.835  14.004
67941W        W35009  11.663  14.638   2.275
67942W        W35010  25.181   0.316   2.735
67943W        W35011  30.130   8.869   3.719
67944W        W35012  33.876  44.891  12.079
67945W        W35013   2.745   3.352   4.654
67946W        W35014  27.988  40.964   4.294
67947W        W35015  12.167  41.974  13.023
67948W        W35016  17.304  34.972  11.863
67949W        W35017   9.352   6.739  14.361
67950W        W35018  43.299   2.762  13.005
67951W        W35019  32.895  15.749  12.009
67952W        W35020  42.937   4.875   5.201
67953W        W35021  31.550  16.296   3.635
67954W        W35022  28.453   2.808   0.334
67955W        W35023  36.990  21.125  12.433
67956W        W35024  36.498   9.312   4.280
67957W        W35025  29.932  31.494   1.788
67958W        W35026  25.207  32.923  14.775
67959W        W35027  43.372  10.236  12.358
67960W        W35028  14.663  31.019  14.892
67961W        W35029  31.001  16.678  13.319
67962W        W35030  27.679  39.372  11.470
67963W        W35031  26.544  19.198  11.127
67964W        W35032  38.369  28.090   1.776
67965W        W35033  43.306  19.149   3.652
67966W        W35034  22.233  30.420   2.230
67967W        W35035  10.742  34.452   1.863
67968W        W35036  15.125  43.937   4.300
67969W        W35037  15.286  17.282   2.689
67970W        W35038  42.362  10.167  10.581
67971W        W35039  36.988   3.451  14.429
67972W        W35040  20.686   4.243   4.315
67973W        W35041   7.732  25.167   5.272
67974W        W35042  30.553  44.498  12.865
67975W        W35043  31.534  13.210   1.258
67976W        W35044  30.931   5.368  14.386
67977W        W35045  40.939  16.314   0.785
67978W        W35046   2.385  32.559   3.797
67979W        W35047   4.204   7.399   2.212
67980W        W35048  39.535   6.417  13.355
67981W        W35049  31.031  31.432  13.969
67982W        W35050  20.526  30.956  11.962
67983W        W35051  23.079   0.277  12.012
67984W        W35052  41.887  21.189   1.871
67985W        W35053  25.982   5.302   0.442
67986W        W35054  14.166  27.641  11.062
67987W        W35055   8.834  41.942  14.320
67988W        W35056  31.486   3.802  14.291
67989W        W35057   0.919   1.910  11.008
67990W        W35058   0.267  42.291  11.886
67991W        W35059  35.024  29.056   1.775
67992W        W35060   5.351   1.962  12.343
67993W        W35061  28.592  44.287  11.414
67994W        W35062   7.800  38.489  12.428
67995W        W35063  26.162  31.431  14.407
67996W        W35064  21.212   3.930   3.642
67997W        W35065   8.307  42.448   4.123
67998W        W35066  31.004  23.241   0.796
67999W        W35067  19.172   5.906   4.317
68000W        W35068  31.483   7.415   3.201
68001W        W35069  35.485   3.350   0.379
68002W        W35070  11.654  25.976  14.454
68003W        W35071   6.216   1.822   3.653
68004W        W35072   7.715   0.883  14.393
68005W        W35073   1.240  26.175  12.906
68006W        W35074   5.859  40.930   4.182
68007W        W35075   2.352  22.615  10.430
68008W        W35076  32.508  19.612   0.261
68009W        W35077  13.745   3.763   1.782
68010W        W35078  43.875  37.437  12.344
68011W        W35079   5.229   2.787  10.408
68012W        W35080   9.308  42.872  12.072
68013W        W35081  13.311  37.428   0.778
68014W        W35082  37.527   1.351  14.774
68015W        W35083  14.748  28.569  12.925
68016W        W35084  34.103  16.309   4.802
68017W        W35085   3.821  38.478  12.015
68018W        W35086  34.372   6.711   4.678
68019W        W35087  31.904  44.943  12.391
68020W        W35088  26.075  38.411  14.430
68021W        W35089  27.027   6.720  14.365
68022W        W35090  20.537  27.145  11.480
68023W        W35091  19.242   0.459  12.975
68024W        W35092  34.547  26.051  11.437
68025W        W35093  37.868  28.514   2.770
68026W        W35094   4.310  16.708   4.193
68027W        W35095   3.851  44.953  12.903
68028W        W35096  23.577  30.011  13.927
68029W        W35097  21.129   8.361   0.777
68030W        W35098  44.952  38.850   1.711
68031W        W35099  13.797   1.272   1.883
68032W        W35100   0.392  38.965  11.444
68033W        W35101  38.013  39.971  11.406
68034W        W35102  10.309  35.954   2.709
68035W        W35103   5.797  42.809  12.519
68036W        W35104  19.672   4.252   1.911
68037W        W35105  10.783  23.686  10.997
68038W        W35106  24.556   3.900  14.778
68039W        W35107  34.565  25.202   2.196
68040W        W35108  26.538   7.711  13.316
68041W        W35109  31.107  35.894  12.842
68042W        W35110  28.590   6.714  14.768
68043W        W35111   0.446  31.631   3.357
68044W        W35112   9.281  14.116   0.811
68045W        W35113  21.025  23.658   0.360
68046W        W35114  26.019  33.615  11.022
68047W        W35115   3.325  25.682  11.584
68048W        W35116  12.191   6.391  12.355
68049W        W35117  11.835  23.565   4.764
68050W        W35118  35.959  18.075   4.650
68051W        W35119  12.698   4.373   0.915
68052W        W35120  36.487  13.222   0.337
68053W        W35121   8.786  30.956   1.211
68054W        W35122  26.138  25.131   0.757
68055W        W35123  21.713  16.714  12.365
68056W        W35124  31.622  25.506   3.676
68057W        W35125  33.580   1.444   1.361
68058W        W35126  31.428  42.872   2.296
68059W        W35127  16.150   2.292   0.433
68060W        W35128  13.156  29.097  12.520
68061W        W35129  24.565  12.612  14.813
68062W        W35130   4.938  39.428  10.539
68063W        W35131  36.458  33.063  12.846
68064W        W35132  32.425  11.173   4.747
68065W        W35133  19.254   4.754  11.442
68066W        W35134   4.429  27.475   2.898
68067W        W35135  25.564  30.995  13.350
68068W        W35136  21.654  31.064   3.834
68069W        W35137  31.125   2.963   3.367
68070W        W35138  22.647  16.773  13.507
68071W        W35139  25.700  18.752   1.816
68072W        W35140  16.239  27.188   3.776
68073W        W35141  34.007  15.116  14.394
68074W        W35142   8.198  15.775  12.988
68075W        W35143  22.594   6.355   0.428
68076W        W35144  40.422   0.882  12.341
68077W        W35145  37.512  13.210  10.954
68078W        W35146  31.138  39.877  11.500
68079W        W35147  39.537  25.119  12.512
68080W        W35148   6.743  18.093   2.384
68081W        W35149  44.842  39.980   4.235
68082W        W35150  15.646  35.491   2.803
68083W        W35151  15.089  38.978   3.686
68084W        W35152   4.868  39.317   2.741
68085W        W35153   3.947  25.637   3.637
68086W        W35154  37.870  37.345  14.911
68087W        W35155  16.238  30.011   2.382
68088W        W35156  28.574  20.683   2.341
68089W        W35157   7.212  36.851   4.199
68090W        W35158  30.483   3.241  13.530
68091W        W35159  31.415  44.449  13.349
68092W        W35160  10.231  23.193  10.635
68093W        W35161  29.971   0.975   2.326
68094W        W35162  15.249   4.844   9.934
68095W        W35163  44.294  41.809  13.910
68096W        W35164   9.225   8.856   2.367
68097W        W35165  39.448   9.163   1.722
68098W        W35166   7.325  30.488   2.207
68099W        W35167  17.731   3.266   2.708
68100W        W35168  37.476  35.395  11.483
68101W        W35169  35.042  42.475  11.476
68102W        W35170  26.555   4.288   4.657
68103W        W35171  10.255  40.919  12.870
68104W        W35172   7.235   2.308  13.825
68105W        W35173  24.540   9.727  11.395
68106W        W35174   6.831  16.611  12.458
68107W        W35175  18.714  24.200  10.644
68108W        W35176   1.237   3.367  13.534
68109W        W35177  22.126  17.671   1.382
68110W        W35178   3.743  34.556   3.383
68111W        W35179   3.314  39.865  10.522
68112W        W35180  15.692   1.972   9.939
68113W        W35181  30.157  23.993   2.793
68114W        W35182  21.182  32.959  14.291
68115W        W35183  22.198  34.589   2.705
68116W        W35184  29.175  21.047   1.829
68117W        W35185  43.853   7.721  13.028
68118W        W35186  26.001  17.621   3.820
68119W        W35187  31.116  33.931   1.860
68120W        W35188  30.139  22.652   2.900
68121W        W35189  30.997   7.781  14.438
68122W        W35190  18.266  28.933   1.298
68123W        W35191  37.854  34.399  13.051
68124W        W35192  21.740  37.522   3.357
68125W        W35193   3.852  17.271  11.887
68126W        W35194  29.545  26.631   1.852
68127W        W35195  35.104  18.202  11.510
68128W        W35196  13.616  15.182   1.225
68129W        W35197   1.743   9.302   4.654
68130W        W35198  19.038  33.594   0.322
68131W        W35199   6.420  27.686   0.351
68132W        W35200  43.946  13.166   4.723
68133W        W35201  25.564   5.321  12.938
68134W        W35202   1.259  21.555   3.383
68135W        W35203   5.249   7.221  12.057
68136W        W35204  18.706  14.731   3.784
68137W        W35205  25.191   0.284   2.215
68138W        W35206  21.040  12.249  10.528
68139W        W35207  42.298  32.907   0.881
68140W        W35208   3.743  28.086  11.878
68141W        W35209  37.958  14.730   3.837
68142W        W35210   8.667  24.995   1.432
68143W        W35211  18.176  37.370  14.440
68144W        W35212  14.628  29.119  14.961
68145W        W35213   8.268  40.828  11.430
68146W        W35214  16.743   3.806  14.775
68147W        W35215  24.134   5.265   3.719
68148W        W35216  15.150   9.869  11.529
68149W        W35217  40.849   3.797  13.871
68150W        W35218  38.860  15.136   1.435
68151W        W35219  13.837   8.359   4.666
68152W        W35220  31.580  28.998  11.864
68153W        W35221  16.190  43.400   3.643
68154W        W35222   9.831  40.857  10.939
68155W        W35223  43.287   9.326   4.821
68156W        W35224  35.004  15.136   4.303
68157W        W35225  30.961   5.300   2.329
68158W        W35226  34.425  10.658  12.024
68159W        W35227  10.228   3.876  11.535
68160W        W35228   6.239   1.280   2.853
68161W        W35229   1.874   1.326   0.244
68162W        W35230  13.813  11.144   3.647
68163W        W35231  44.008   0.455  12.547
68164W        W35232  40.396  31.986   3.281
68165W        W35233  37.556  26.463   2.282
68166W        W35234  13.633  24.215   3.376
68167W        W35235  41.422  36.484   0.469
68168W        W35236  43.507  35.903   0.480
68169W        W35237   8.166  41.940  13.505
68170W        W35238  15.668  20.272   0.939
68171W        W35239  34.875  39.349  12.371
68172W        W35240  36.482  13.669  14.414
68173W        W35241  13.643  10.223  11.902
68174W        W35242  35.967  41.939  14.480
68175W        W35243  33.880  10.334   0.460
68176W        W35244  30.157  10.738  12.378
68177W        W35245   3.320  44.379  13.887
68178W        W35246  22.205  32.428   2.224
68179W        W35247  21.144  26.703  10.563
68180W        W35248  28.475  19.153   4.213
68181W        W35249   2.735  15.639   1.816
68182W        W35250  22.573  20.664  12.456
68183W        W35251  27.959  35.506  13.009
68184W        W35252  19.151  27.948  13.374
68185W        W35253  32.887  22.561   3.326
68186W        W35254  31.418  12.801   4.608
68187W        W35255  23.112  24.100   2.828
68188W        W35256  25.563  23.542   2.687
68189W        W35257  32.928   2.950   3.768
68190W        W35258  27.038  35.017   3.336
68191W        W35259   4.347  39.492  10.558
68192W        W35260  23.569  16.716   0.264
68193W        W35261  40.514  21.669   4.158
68194W        W35262   2.439  10.633   1.803
68195W        W35263  36.460  26.559  11.504
68196W        W35264  19.199   2.373   4.598
68197W        W35265  22.022  10.756   2.416
68198W        W35266  42.457  42.871   4.329
68199W        W35267  38.392   4.920  10.616
68200W        W35268  31.102  43.432   1.377
68201W        W35269  25.685  26.066   2.890
68202W        W35270  31.091  19.212  13.448
68203W        W35271  27.946  35.581   3.753
68204W        W35272   5.833  38.397   1.216
68205W        W35273  12.359  32.604   1.892
68206W        W35274  12.129  38.035  14.307
68207W        W35275  23.725  16.249   4.128
68208W        W35276  36.849  28.440  11.457
68209W        W35277  31.052  23.240  12.933
68210W        W35278  28.551  25.004  13.801
68211W        W35279   7.891  32.043   4.180
68212W        W35280  14.731  29.628  10.133
68213W        W35281  21.108  18.732  13.023
68214W        W35282  38.957  22.521  10.433
68215W        W35283   8.372  15.247  12.512
68216W        W35284  32.412  23.174   3.275
68217W        W35285   2.844  39.538  11.886
68218W        W35286   3.347  17.662   4.156
68219W        W35287  41.011   8.318  12.469
68220W        W35288  10.157  26.114   2.779
68221W        W35289   1.397  13.757  13.445
68222W        W35290  23.984  39.379  10.923
68223W        W35291  37.370  44.954  13.415
68224W        W35292  41.317  18.281   3.771
68225W        W35293  28.129  15.205  14.851
68226W        W35294   3.399  36.383   3.652
68227W        W35295  12.175   5.848  13.049
68228W        W35296  17.191  27.973  11.005
68229W        W35297   7.894  25.501   4.624
68230W        W35298   4.333   9.323   1.914
68231W        W35299  23.516  31.059   4.760
68232W        W35300  16.809  19.264   1.433
68233W        W35301  31.428   6.342   2.797
68234W        W35302  10.214  23.615  12.899
68235W        W35303   1.307  41.292   1.337
68236W        W35304  42.780   2.724   4.327
68237W        W35305  28.669   9.852   3.149
68238W        W35306  17.287  24.151  10.058
68239W        W35307   4.326  40.054   0.792
68240W        W35308  22.690  18.746   3.238
68241W        W35309  31.045  43.351  10.550
68242W        W35310  31.140  15.600  14.295
68243W        W35311   3.456  34.083   3.238
68244W        W35312   5.338  35.903  13.902
68245W        W35313  25.531  20.639  12.936
68246W        W35314  10.640   6.370   1.306
68247W        W35315   6.345  22.056  14.921
68248W        W35316  36.492  26.158   1.280
68249W        W35317  39.396  41.497  11.004
68250W        W35318  15.171  13.233  13.480
68251W        W35319  19.548  27.113  13.908
68252W        W35320  43.313  40.347  10.466
68253W        W35321  28.629  31.959   5.572
68254W        W35322   8.304  35.960   3.252
68255W        W35323  41.799  18.690   1.329
68256W        W35324  29.053  14.781   0.338
68257W        W35325   2.964  42.885  11.955
68258W        W35326  36.910  26.493  11.470
68259W        W35327  38.509  26.689   0.396
68260W        W35328  35.600  10.183  12.341
68261W        W35329  19.120  32.594   0.863
68262W        W35330  19.112   1.296  10.449
68263W        W35331   9.236  31.408   0.420
68264W        W35332   5.273  41.398   2.329
68265W        W35333   3.247  20.072  10.641
68266W        W35334  20.134  11.772   3.719
68267W        W35335   4.856  19.547   2.292
68268W        W35336  14.233   0.957   0.927
68269W        W35337  19.261  26.469  13.355
68270W        W35338  30.641  44.003  11.508
68271W        W35339  14.104  34.066   2.833
68272W        W35340  33.991   4.330  14.954
68273W        W35341   7.814  42.379  13.326
68274W        W35342  25.172  31.049   0.305
68275W        W35343  34.480  13.262   1.265
68276W        W35344   1.911  22.171  12.081
68277W        W35345  28.100  22.252  13.063
68278W        W35346   2.871  41.954  14.379
68279W        W35347  34.037  42.304  13.950
68280W        W35348  30.956  14.787  12.517
68281W        W35349  33.577  33.422  10.101
68282W        W35350  43.303  35.938   2.678
68283W        W35351  40.894  36.936  11.483
68284W        W35352  29.099  26.579   0.456
68285W        W35353  19.619  18.680   1.920
68286W        W35354  32.461   8.244   3.805
68287W        W35355  15.308  37.842  12.546
68288W        W35356  38.536  37.898  14.848
68289W        W35357  11.330  34.592   1.905
68290W        W35358  12.775  32.032   5.183
68291W        W35359   3.290   0.840  14.390
68292W        W35360  24.723   1.841  10.990
68293W        W35361  11.687  25.615  14.402
68294W        W35362  41.531  43.997  11.432
68295W        W35363  12.762  31.098  13.964
68296W        W35364  39.328  16.239  12.565
68297W        W35365  12.278  12.134  10.497
68298W        W35366   5.206   2.282  14.787
68299W        W35367  25.468  30.652   4.665
68300W        W35368  15.633  13.330   4.155
68301W        W35369  22.086  10.836   1.729
68302W        W35370  40.320  33.383  14.940
68303W        W35371  32.473   5.893   0.814
68304W        W35372   3.744   4.908   3.190
68305W        W35373  35.879  11.671  11.978
68306W        W35374  39.515  15.089  14.471
68307W        W35375  19.196   7.288  10.414
68308W        W35376   7.300  31.083   0.877
68309W        W35377  13.804   1.285  12.014
68310W        W35378   7.667  11.146   2.222
68311W        W35379   3.310  13.694   1.325
68312W        W35380  32.473  10.777  13.887
68313W        W35381  29.542   7.269   1.914
68314W        W35382  34.491  44.790  11.018
68315W        W35383   7.708  29.550   2.210
68316W        W35384  27.624  34.919   3.840
68317W        W35385  31.064  15.308  13.379
68318W        W35386  35.992  44.969   3.657
68319W        W35387  29.129  36.894   2.765
68320W        W35388  43.321  31.988   0.391
68321W        W35389  22.625  23.045  14.820
68322W        W35390  44.898  14.637   2.199
68323W        W35391   9.791   0.849  14.388
68324W        W35392  17.705  19.171  10.611
68325W        W35393  42.326  34.873   2.347
68326W        W35394  18.131   6.411  10.406
68327W        W35395  29.431   4.267   3.729
68328W        W35396  36.560  32.084   4.782
68329W        W35397  39.041  36.495  14.291
68330W        W35398   5.713  37.479   4.201
68331W        W35399  20.041  21.728  14.306
68332W        W35400  33.067  40.485  14.473
68333W        W35401  44.992  35.032   1.891
68334W        W35402  36.867  10.832  13.547
68335W        W35403  37.437  25.596   0.391
68336W        W35404  13.251  18.745  13.016
68337W        W35405  22.546  41.334   4.710
68338W        W35406   6.884  32.518   1.287
68339W        W35407  40.458  11.686   5.185
68340W        W35408  31.631   5.234   1.242
68341W        W35409  20.765  37.581  12.973
68342W        W35410  34.600  10.204   1.880
68343W        W35411  33.916  40.304  13.507
68344W        W35412  43.292  23.497   1.260
68345W        W35413  42.348  28.545  11.537
68346W        W35414  36.044  29.176  12.938
68347W        W35415  38.854   6.741   3.719
68348W        W35416  30.999  38.396  14.395
68349W        W35417  31.947  38.012  13.526
68350W        W35418  23.519  33.464   2.889
68351W        W35419  22.626   7.840  12.446
68352W        W35420  34.076  30.597  12.054
68353W        W35421   3.724  15.622  10.632
68354W        W35422   6.749   5.303  14.773
68355W        W35423  27.942  24.665   1.340
68356W        W35424  28.674   5.277  12.075
68357W        W35425  10.334  14.213   1.259
68358W        W35426  15.134  36.466  12.989
68359W        W35427  37.478  39.037  11.904
68360W        W35428  41.960  41.396   4.250
68361W        W35429   6.228   9.772   0.379
68362W        W35430  31.628  32.551   1.430
68363W        W35431  32.515  27.568   3.709
68364W        W35432   1.350   5.814  11.883
68365W        W35433  36.070   7.262   1.698
68366W        W35434  43.437  16.180   1.748
68367W        W35435  13.785   8.880  12.552
68368W        W35436  22.725  26.991  13.924
68369W        W35437  24.515   2.402  13.365
68370W        W35438  26.549  21.698  13.039
68371W        W35439  38.501  29.924   3.258
68372W        W35440  15.154   9.842   3.695
68373W        W35441  16.272  23.633   2.808
68374W        W35442  40.312  24.499   1.416
68375W        W35443   1.434   4.378  12.976
68376W        W35444  38.556  22.127  11.560
68377W        W35445  22.705  19.209  10.145
68378W        W35446  37.457   2.263   2.666
68379W        W35447  41.373  35.509  12.356
68380W        W35448  17.682  33.384  11.996
68381W        W35449  16.251  13.269  10.893
68382W        W35450  17.601  13.333  13.463
68383W        W35451  24.544   7.276  13.469
68384W        W35452  42.780  31.544   2.202
68385W        W35453  32.041  13.744   0.778
68386W        W35454  21.728  21.582   2.714
68387W        W35455  26.504  22.664   2.708
68388W        W35456  10.759  20.073  11.951
68389W        W35457  41.412  14.286  13.902
68390W        W35458  13.675   8.248   9.926
68391W        W35459   5.396  40.046  10.603
68392W        W35460  34.009  28.975   2.887
68393W        W35461   5.267  13.691  10.564
68394W        W35462  31.970   7.402   0.298
68395W        W35463  30.090  16.721   4.257
68396W        W35464  40.929  34.517  12.955
68397W        W35465  11.139  38.990   3.718
68398W        W35466  28.049  24.721  14.013
68399W        W35467  35.097  22.021  11.405
68400W        W35468  16.195  37.032  12.093
68401W        W35469  10.673  25.088   4.804
68402W        W35470  36.942   3.734  11.927
68403W        W35471  40.428  23.091  11.582
68404W        W35472  24.084  19.241   4.625
68405W        W35473   4.224  29.046   0.859
68406W        W35474  21.685  15.639  12.356
68407W        W35475  22.692   2.454   1.296
68408W        W35476   2.965  11.271  14.474
68409W        W35477  21.541   8.218   3.799
68410W        W35478  22.022  13.288  13.926
68411W        W35479  13.840  36.514  14.515
68412W        W35480  17.556  14.307  12.575
68413W        W35481  32.402  19.619   3.802
68414W        W35482  26.111   8.833  14.928
68415W        W35483   9.833  36.571   4.281
68416W        W35484   3.714  32.568   4.260
68417W        W35485   2.945  29.066   1.704
68418W        W35486   8.369   9.814   2.683
68419W        W35487  13.311  39.870   0.948
68420W        W35488  28.969  18.057   3.859
68421W        W35489  29.945  21.619  13.025
68422W        W35490  25.631  34.980   1.312
68423W        W35491  28.674  28.109  13.335
68424W        W35492  33.986  11.840  11.111
68425W        W35493  27.605   8.195   4.731
68426W        W35494  29.425  26.024  14.387
68427W        W35495  44.862  30.085  13.480
68428W        W35496  15.787  28.564  14.017
68429W        W35497  33.911  40.450   0.729
68430W        W35498  17.176  23.112   4.678
68431W        W35499   9.335  13.205  12.873
68432W        W35500   4.347  13.781   4.637
68433W        W35501  12.316  20.197  12.449
68434W        W35502  10.639  16.192  13.841
68435W        W35503  35.582   5.829  12.879
68436W        W35504   3.723  20.033   0.896
68437W        W35505  14.250  16.102  10.423
68438W        W35506  24.193  34.118  10.620
68439W        W35507  16.804   8.674   3.667
68440W        W35508  28.496  29.460   3.158
68441W        W35509  12.727  20.653  12.511
68442W        W35510   2.467  22.661   2.864
68443W        W35511  31.515   1.937  12.402
68444W        W35512  34.863  10.377  14.024
68445W        W35513  27.582  14.640  14.943
68446W        W35514  12.347  33.411   1.357
68447W        W35515  15.325  41.006  10.916
68448W        W35516   4.935  23.216  13.424
68449W        W35517  40.536  16.305   1.876
68450W        W35518  30.115   1.427   0.382
68451W        W35519  27.091  28.009   1.772
68452W        W35520  37.991  27.643   2.753
68453W        W35521   8.901  38.012  12.933
68454W        W35522  38.825  14.115  14.939
68455W        W35523  26.509  19.645   3.279
68456W        W35524  26.574  30.490  10.476
68457W        W35525  15.094  39.347   0.296
68458W        W35526  22.015  13.685   0.940
68459W        W35527  28.124  18.214   5.206
68460W        W35528  33.613  21.749  13.009
68461W        W35529   3.360  44.361   2.279
68462W        W35530  26.639  12.840   2.756
68463W        W35531  10.706   8.787   0.959
68464W        W35532  14.732  35.965   0.436
68465W        W35533  14.213  39.398   4.345
68466W        W35534  13.119  19.255  10.524
68467W        W35535   4.727  27.945  11.098
68468W        W35536  28.954   8.810   0.788
68469W        W35537  26.094   4.416   0.896
68470W        W35538   1.813  35.520   1.406
68471W        W35539  30.000  26.598   0.726
68472W        W35540  19.760  20.200   0.829
68473W        W35541  43.839  23.574   4.123
68474W        W35542  43.858  44.333  11.891
68475W        W35543  17.179  33.924   2.823
68476W        W35544  17.192  36.090   3.314
68477W        W35545  26.074  16.133   3.265
68478W        W35546  21.664  36.890   4.303
68479W        W35547  40.843   9.706  11.432
68480W        W35548   1.309  27.120  10.464
68481W        W35549  22.612  13.832   3.664
68482W        W35550   1.968  29.525   1.853
68483W        W35551  21.064  38.329   2.857
68484W        W35552   9.250  44.935  14.362
68485W        W35553  42.521  34.533   0.270
68486W        W35554  43.862  17.165   2.302
68487W        W35555  31.483   2.763   0.355
68488W        W35556   7.352  26.089   4.239
68489W        W35557   7.792   4.839  13.855
68490W        W35558  16.165  20.695   2.747
68491W        W35559  37.437   0.459  11.554
68492W        W35560  30.504  19.162  13.511
68493W        W35561   4.261  10.772   4.334
68494W        W35562  39.381  42.023  13.818
68495W        W35563   3.355  17.085  13.976
68496W        W35564  26.969   3.373  12.567
68497W        W35565   8.672  26.483   2.306
68498W        W35566   8.224  19.677   2.865
68499W        W35567  27.047   2.905  11.533
68500W        W35568  24.600  24.012  11.388
68501W        W35569  42.785  44.932  10.990
68502W        W35570   3.906   0.321  14.982
68503W        W35571  37.341  27.058  14.949
68504W        W35572   7.270  16.135   2.220
68505W        W35573   3.324  34.945   4.247
68506W        W35574   2.902   9.667   2.248
68507W        W35575   8.236  35.105   1.906
68508W        W35576  10.835  44.479  10.412
68509W        W35577  27.023  14.716  13.059
68510W        W35578  37.931  29.644  11.558
68511W        W35579   2.246   9.164  14.378
68512W        W35580  42.518  22.554   4.629
68513W        W35581   4.832  18.064   2.338
68514W        W35582  27.648   2.862   1.759
68515W        W35583  22.016  33.480  13.039
68516W        W35584  24.130  30.619   9.952
68517W        W35585   6.737  42.301   4.820
68518W        W35586   7.396   1.435  11.886
68519W        W35587  36.039  20.576   1.305
68520W        W35588  41.836  13.197  13.935
68521W        W35589  33.403  19.763   1.880
68522W        W35590  32.553   0.756  10.456
68523W        W35591   7.348  25.149   2.723
68524W        W35592  20.640  37.979   4.713
68525W        W35593  16.656  10.212  11.601
68526W        W35594  22.650  30.515  10.438
68527W        W35595  35.974  43.822   0.776
68528W        W35596  34.919  28.973  11.961
68529W        W35597  38.540  44.442  11.038
68530W        W35598  23.069   2.258  11.445
68531W        W35599  29.498  28.936  12.067
68532W        W35600  31.933  39.452  13.401
68533W        W35601   6.913  35.498  12.035
68534W        W35602  24.678  43.401  14.431
68535W        W35603  23.557   8.881   4.689
68536W        W35604   4.856  16.216   1.310
68537W        W35605  42.288  23.510  13.481
68538W        W35606  42.831   9.344   2.365
68539W        W35607  21.567  31.125   4.277
68540W        W35608  41.836  24.586  13.359
68541W        W35609  28.185  22.010   1.350
68542W        W35610  26.193  29.616  13.404
68543W        W35611  42.467  21.717   0.836
68544W        W35612  42.844  17.208  11.902
68545W        W35613   1.314  28.053  14.868
68546W        W35614  37.999  23.204  13.854
68547W        W35615  33.911  42.939   2.854
68548W        W35616  14.241   1.366   0.917
68549W        W35617  15.100  43.882   2.261
68550W        W35618  35.077   5.273  12.355
68551W        W35619  27.026  21.577   2.249
68552W        W35620  35.957  21.719  11.592
68553W        W35621  24.673   4.258   4.611
68554W        W35622  23.546  13.344   3.335
68555W        W35623  18.247   4.773  12.477
68556W        W35624  22.225  38.957  13.547
68557W        W35625   9.287  11.683   4.304
68558W        W35626   3.261  39.351  12.410
68559W        W35627  29.499   0.842   2.340
68560W        W35628  42.932  20.237   2.193
68561W        W35629   4.409  37.413   4.672
68562W        W35630  24.088   2.765  14.914
68563W        W35631  40.507  34.894   5.184
68564W        W35632  35.458  36.057   1.933
68565W        W35633  28.054  16.219   3.839
68566W        W35634  39.957  16.104  11.026
68567W        W35635   8.234  40.985   4.116
68568W        W35636   5.364  34.106   4.749
68569W        W35637  28.048  35.601   1.911
68570W        W35638  25.014  44.289   0.276
68571W        W35639  16.598  44.444  12.891
68572W        W35640  18.780  21.653  10.635
68573W        W35641  28.594  30.589  14.764
68574W        W35642   1.417  42.293   4.799
68575W        W35643  42.316  12.635   3.212
68576W        W35644  31.565  19.119   3.776
68577W        W35645   0.801  14.806   4.343
68578W        W35646   0.453  44.808  11.388
68579W        W35647  11.241  10.687   2.258
68580W        W35648   5.825   6.757  12.556
68581W        W35649   1.805  26.655   0.252
68582W        W35650  29.985  10.873   3.251
68583W        W35651  31.986   1.349   3.676
68584W        W35652   9.394  39.884  11.388
68585W        W35653   7.880  35.399  12.869
68586W        W35654   3.894  32.565  13.366
68587W        W35655   3.307   1.912   3.695
68588W        W35656  29.492  22.202  11.470
68589W        W35657  31.603  24.623   5.717
68590W        W35658   8.853  21.578   4.272
68591W        W35659  11.280  41.820  12.005
68592W        W35660  44.411  21.224  12.005
68593W        W35661   5.934  40.015  12.410
68594W        W35662  39.984   9.816  14.804
68595W        W35663  25.988   2.250  13.042
68596W        W35664  26.123   4.941  12.552
68597W        W35665  34.595  24.136   2.262
68598W        W35666  39.876  36.422   1.849
68599W        W35667   9.330  14.124   5.126
68600W        W35668  22.551  31.638  13.428
68601W        W35669  12.238  44.874   2.307
68602W        W35670  27.970  10.216   1.415
68603W        W35671  23.599  38.904  12.485
68604W        W35672   4.339  16.637  11.497
68605W        W35673  27.548  24.498   4.688
68606W        W35674  21.563  40.896   0.274
68607W        W35675  15.675  30.965  14.366
68608W        W35676  43.456  24.218   3.378
68609W        W35677  37.384  13.116   1.236
68610W        W35678  31.553  29.023   2.325
68611W        W35679  10.309  43.773  10.428
68612W        W35680  39.849  26.600   3.680
68613W        W35681   3.427  19.262   4.679
68614W        W35682  41.403   4.789  11.906
68615W        W35683  36.453   0.445  12.520
68616W        W35684  25.705  38.476  11.399
68617W        W35685   6.763   3.321  12.972
68618W        W35686  16.730  38.047  12.379
68619W        W35687  38.429  43.331   0.438
68620W        W35688  20.601  30.572   2.792
68621W        W35689   0.973  31.011  10.479
68622W        W35690   2.405  18.057  14.484
68623W        W35691  43.312  44.429   1.720
68624W        W35692  35.042  29.511   1.211
68625W        W35693  28.162  21.576   1.779
68626W        W35694  35.064  43.445   3.643
68627W        W35695  14.189  27.599   0.859
68628W        W35696  43.485  14.207   4.671
68629W        W35697  40.858  25.052  11.068
68630W        W35698  19.062   3.386   5.081
68631W        W35699  31.431   4.768   2.345
68632W        W35700  15.262  16.298   4.210
68633W        W35701  35.596  23.097   1.782
68634W        W35702   9.844  28.047  14.362
68635W        W35703   4.336   4.943   2.903
68636W        W35704  36.868  27.680   1.230
68637W        W35705  17.755  26.045   4.603
68638W        W35706   7.207   4.822   9.946
68639W        W35707  23.072   8.394  12.549
68640W        W35708  23.599   6.205   4.345
68641W        W35709  18.250   8.169  14.440
68642W        W35710  27.971   1.871   5.299
68643W        W35711  20.709  36.462  14.338
68644W        W35712  27.625   6.292   4.324
68645W        W35713  40.480  32.010  12.999
68646W        W35714  26.463  42.001   2.766
68647W        W35715   7.236  36.887   0.323
68648W        W35716  41.330  37.385  14.978
68649W        W35717  40.925  30.530   0.274
68650W        W35718  16.642  24.716   1.773
68651W        W35719  33.068  29.040  12.509
68652W        W35720  14.213  13.167  11.856
68653W        W35721  22.703  10.149  13.496
68654W        W35722  43.374  18.055   3.730
68655W        W35723  26.006  30.440   0.834
68656W        W35724   3.357  14.132   0.407
68657W        W35725  30.043  32.469  12.391
68658W        W35726   2.837  38.936  12.912
68659W        W35727   2.231  36.582   3.360
68660W        W35728  25.693  32.112   2.884
68661W        W35729  43.844   5.866  11.886
68662W        W35730  40.801  26.146  12.969
68663W        W35731   1.471   1.400   4.768
68664W        W35732   8.782  24.094  14.950
68665W        W35733  32.394  38.966   2.881
68666W        W35734  28.139  25.172  13.004
68667W        W35735  23.561  43.304  14.850
68668W        W35736  20.055   4.728  13.926
68669W        W35737   7.328  39.990  14.978
68670W        W35738  40.971   3.382   3.867
68671W        W35739   7.677  32.545   3.360
68672W        W35740  44.485  16.189  14.998
68673W        W35741   9.851  14.765  10.966
68674W        W35742   9.728  19.543   0.962
68675W        W35743  24.118  30.007  14.770
68676W        W35744  26.096  13.277  12.404
68677W        W35745  29.573  25.143   4.767
68678W        W35746   8.737  27.672   0.917
68679W        W35747   3.869  37.419  14.027
68680W        W35748  39.484  28.606   3.360
68681W        W35749  16.789  39.986  11.953
68682W        W35750   4.822  25.657   2.346
68683W        W35751   9.265  17.673  12.524
68684W        W35752  33.981  24.081  12.940
68685W        W35753   1.328   7.851   2.299
68686W        W35754  30.598   4.779  10.992
68687W        W35755  15.097   9.301   4.181
68688W        W35756   5.927   5.317  11.445
68689W        W35757  30.984   6.375   5.264
68690W        W35758   8.235  13.781   3.868
68691W        W35759  24.111  44.758   2.238
68692W        W35760  11.682  34.563  13.901
68693W        W35761  44.951  35.924  12.095
68694W        W35762  19.192  41.918  11.922
68695W        W35763  44.462  17.694  11.521
68696W        W35764  30.570   0.434  14.838
68697W        W35765  37.990  16.774  13.834
68698W        W35766  20.648   5.858  10.920
68699W        W35767  35.104   7.762   3.671
68700W        W35768  27.155  36.572   0.361
68701W        W35769  39.849  36.097   2.744
68702W        W35770  12.331  22.512   4.143
68703W        W35771   4.430  25.006   0.393
68704W        W35772  43.494  24.020   0.790
68705W        W35773  15.096  24.709  13.867
68706W        W35774  23.102  10.172   2.316
68707W        W35775  14.264  11.254  13.528
68708W        W35776  41.816  20.739   4.114
68709W        W35777  14.834  15.637  10.591
68710W        W35778  14.635  15.756  10.935
68711W        W35779  10.223  30.140  13.314
68712W        W35780  17.100   5.423  10.922
68713W        W35781  41.435  29.663  12.006
68714W        W35782   9.270   3.382  11.928
68715W        W35783  30.441  43.293  10.626
68716W        W35784  19.553  27.553  11.065
68717W        W35785  12.799  36.522  14.282
68718W        W35786  12.839  29.097   4.673
68719W        W35787   8.269  43.420  13.936
68720W        W35788  25.114  41.474   1.217
68721W        W35789  17.788  35.988  13.037
68722W        W35790   0.956  17.746   3.270
68723W        W35791  25.012  20.255  14.497
68724W        W35792  28.635  12.255  10.629
68725W        W35793  23.125  27.159  12.898
68726W        W35794  33.544  21.142  13.460
68727W        W35795   3.384  41.392  11.897
68728W        W35796  41.534  44.318   1.212
68729W        W35797   6.797   4.220   3.759
68730W        W35798  15.272  44.370  10.633
68731W        W35799  11.635   8.900  13.906
68732W        W35800  13.106   4.286   4.186
68733W        W35801  36.070  37.471   0.345
68734W        W35802  42.932  23.707   0.258
68735W        W35803  35.001  39.362  11.421
68736W        W35804  17.102  19.723   0.316
68737W        W35805  39.011  27.146  11.547
68738W        W35806  28.958   2.470   3.804
68739W        W35807  27.164   0.855  11.402
68740W        W35808  11.861  28.141   4.187
68741W        W35809   1.935  22.151   4.209
68742W        W35810   9.285  21.057  13.892
68743W        W35811  28.107  18.573   3.751
68744W        W35812   1.308  27.547   0.922
68745W        W35813  38.995  22.632  14.489
68746W        W35814  44.863  14.110   4.336
68747W        W35815  18.601   4.426   4.225
68748W        W35816  19.575   0.878   1.729
68749W        W35817  36.029  40.800  14.279
68750W        W35818  31.603  15.807  10.413
68751W        W35819  12.260  18.267   4.219
68752W        W35820  19.661   3.384  12.917
68753W        W35821  43.776  37.394  14.013
68754W        W35822  20.626  17.703   4.648
68755W        W35823  24.536  33.501   2.363
68756W        W35824  33.076  43.298  13.887
68757W        W35825  44.787  42.858   0.924
68758W        W35826   9.300  20.072   2.731
68759W        W35827  11.772  13.292  14.822
68760W        W35828  25.517  14.314  13.033
68761W        W35829   8.284  32.012   2.726
68762W        W35830   4.707  26.672  11.908
68763W        W35831   8.320   4.701   1.415
68764W        W35832  41.870   0.882   1.765
68765W        W35833  43.765  25.983   0.775
68766W        W35834   7.668  29.574   2.889
68767W        W35835  26.478  20.031   1.891
68768W        W35836   6.847  29.038  11.069
68769W        W35837   4.302   3.302   2.266
68770W        W35838  22.710  43.431   2.200
68771W        W35839  22.568  36.364   1.836
68772W        W35840  37.404  37.993  10.465
68773W        W35841  11.694   7.309   5.194
68774W        W35842  25.178  15.605   1.431
68775W        W35843   9.249  39.828  13.001
68776W        W35844  42.872  41.979   1.224
68777W        W35845  31.480  43.932   2.761
68778W        W35846  39.029  41.504   4.636
68779W        W35847  12.158  12.315  13.060
68780W        W35848  10.848  14.297   0.790
68781W        W35849  23.705  22.040   4.344
68782W        W35850  18.777  25.554   3.385
68783W        W35851  38.879  40.851   4.133
68784W        W35852  19.267  26.536   2.665
68785W        W35853   6.362  10.671  13.393
68786W        W35854  13.617   2.870   3.780
68787W        W35855   0.343  27.535  10.580
68788W        W35856   3.853   7.683   2.253
68789W        W35857  22.244  15.757  12.377
68790W        W35858  26.700  25.990   1.893
68791W        W35859   3.852   9.845   2.336
68792W        W35860  15.607  38.044   1.865
68793W        W35861  44.924   1.327  14.311
68794W        W35862  27.627  38.440  12.433
68795W        W35863  17.719  34.919  12.506
68796W        W35864  25.628  37.539   0.349
68797W        W35865  27.975  15.667   1.403
68798W        W35866  24.713   9.306   1.921
68799W        W35867  43.427  13.710  13.975
68800W        W35868  44.334  23.638  10.917
68801W        W35869   0.899   0.257  14.955
68802W        W35870   3.728  24.136  12.541
68803W        W35871  31.949  34.606   3.232
68804W        W35872  19.780  10.787  14.876
68805W        W35873  11.220   3.724  14.909
68806W        W35874  41.308  38.544   3.806
68807W        W35875  30.155  24.641   1.419
68808W        W35876  31.083  27.617   2.392
68809W        W35877  23.563  11.342  10.900
68810W        W35878   5.870  33.899   2.738
68811W        W35879  39.011  43.317   1.445
68812W        W35880   2.948  31.979  11.539
68813W        W35881  38.528  26.205  11.461
68814W        W35882  17.682   2.927   0.461
68815W        W35883   4.400  33.592  14.825
68816W        W35884   0.942  28.536  11.405
68817W        W35885   2.353  40.942   3.829
68818W        W35886  19.195  16.623   1.891
68819W        W35887   1.876  29.013  10.978
68820W        W35888  19.763   3.754  13.969
68821W        W35889   5.917  34.996  13.836
68822W        W35890  24.575  42.922   3.231
68823W        W35891  16.232  38.833   4.765
68824W        W35892   0.874  20.117  10.490
68825W        W35893  32.108  30.995   4.692
68826W        W35894  44.275  13.705  14.955
68827W        W35895   3.752   7.805  13.532
68828W        W35896  14.265   3.922  11.038
68829W        W35897  27.055  38.921  13.800
68830W        W35898  38.481  16.589  11.544
68831W        W35899   5.289  44.496  10.530
68832W        W35900  32.116  43.978  11.046
68833W        W35901  42.462  23.649   0.426
68834W        W35902   0.477  23.700   1.794
68835W        W35903  28.666   6.349   1.918
68836W        W35904  21.168  18.061   4.685
68837W        W35905   5.927   7.202  14.385
68838W        W35906  33.573  23.668  10.972
68839W        W35907  10.285  29.120   0.247
68840W        W35908  38.903  43.927  11.053
68841W        W35909  12.178   1.969  10.415
68842W        W35910  40.961  25.969   0.737
68843W        W35911  17.582  32.130   1.301
68844W        W35912   2.935  26.476   1.807
68845W        W35913   3.865  29.116   1.772
68846W        W35914  16.212   3.323   4.177
68847W        W35915  37.974  35.598  11.859
68848W        W35916  30.004  22.118  13.461
68849W        W35917  38.990  22.022  14.393
68850W        W35918   4.290   0.840  10.475
68851W        W35919  43.287   2.894  13.542
68852W        W35920  39.990   7.736   2.764
68853W        W35921  22.061  16.127  10.592
68854W        W35922  30.581  28.040  14.361
68855W        W35923  16.796   8.729   1.244
68856W        W35924  26.198  23.072   3.822
68857W        W35925  19.653  25.643   0.789
68858W        W35926  12.643  11.860  14.409
68859W        W35927   9.740  42.396  13.035
68860W        W35928  33.966  39.520  11.865
68861W        W35929  12.720  30.083   0.258
68862W        W35930  35.471  28.635  12.843
68863W        W35931   6.772  19.229  14.476
68864W        W35932   5.242  29.669   4.707
68865W        W35933  25.967  31.422  13.529
68866W        W35934  31.090  33.931   1.353
68867W        W35935  16.202  44.345   2.826
68868W        W35936  19.041  14.182   1.835
68869W        W35937  19.745   8.377  11.375
68870W        W35938  41.503  35.558   2.339
68871W        W35939   2.250  11.192   4.656
68872W        W35940   5.321  18.263   1.769
68873W        W35941   4.720  32.912   2.873
68874W        W35942  17.572  35.407  12.420
68875W        W35943   5.364  17.754   4.308
68876W        W35944  20.664  12.318   4.321
68877W        W35945   0.907  44.279   0.753
68878W        W35946  40.021  13.654  10.614
68879W        W35947   0.865  43.386  11.046
68880W        W35948  12.219   2.442   3.269
68881W        W35949  42.281  38.561   1.231
68882W        W35950  33.475  19.729  13.364
68883W        W35951   0.434  11.671   1.840
68884W        W35952  13.274  20.725   3.293
68885W        W35953  23.520  39.415   5.566
68886W        W35954  26.692  36.591   5.286
68887W        W35955  36.047  29.121   2.266
68888W        W35956   0.795  15.226  11.901
68889W        W35957   3.934  33.999  14.788
68890W        W35958  18.687   7.266  13.347
68891W        W35959  40.856  23.678  13.522
68892W        W35960  40.353  36.440   2.806
68893W        W35961  40.956  17.617   0.430
68894W        W35962  42.289  14.688  13.998
68895W        W35963   8.695  44.786  11.087
68896W        W35964  22.995  17.714   1.749
68897W        W35965  31.987  43.772  11.929
68898W        W35966   7.172  38.546   1.757
68899W        W35967   3.847  29.576   0.791
68900W        W35968  30.115  18.141  12.429
68901W        W35969  36.384  40.409   1.361
68902W        W35970  29.122  14.752  13.942
68903W        W35971   0.324  19.687   4.620
68904W        W35972  20.522  22.566   4.827
68905W        W35973   9.348   6.386  14.447
68906W        W35974  35.908  21.550  12.074
68907W        W35975  26.171  25.573   2.328
68908W        W35976  24.172  40.441  10.566
68909W        W35977  37.404  25.486  14.397
68910W        W35978  19.612  17.779  11.943
68911W        W35979  22.726  32.107   1.819
68912W        W35980  31.593   8.881  12.564
68913W        W35981  43.914  25.573  13.999
68914W        W35982  28.012  35.027   1.767
68915W        W35983  27.503   2.438   4.822
68916W        W35984  29.620  43.359  14.439
68917W        W35985  36.423  15.746  10.642
68918W        W35986  20.088  18.085   1.381
68919W        W35987  18.192   3.907  10.456
68920W        W35988  30.470   5.793   2.849
68921W        W35989   2.853   4.945  14.293
68922W        W35990   6.800  12.288   3.186
68923W        W35991  36.066  11.711   1.373
68924W        W35992   7.220   6.849   2.755
68925W        W35993  35.904   6.871  11.070
68926W        W35994   5.261  37.929   0.923
68927W        W35995  29.466   6.254   4.333
68928W        W35996   8.227  28.570  14.355
68929W        W35997  27.153  27.684   0.961
68930W        W35998  25.528   9.785  13.800
68931W        W35999   0.427  14.095   3.834
68932W        W36000  33.991  39.458  11.023
68933W        W36001  19.721  11.769   1.403
68934W        W36002  22.211  24.532   0.280
68935W        W36003  18.662  35.943  12.575
68936W        W36004  39.379  41.414  11.499
68937W        W36005  27.118  32.143   4.802
68938W        W36006  24.164  29.078   3.317
68939W        W36007  12.769  43.441  11.504
68940W        W36008  38.900  34.438  12.361
68941W        W36009  35.589  22.245   1.418
68942W        W36010  37.517  12.808  11.573
68943W        W36011  39.398  35.910   2.857
68944W        W36012  19.748  38.960  10.502
68945W        W36013  40.506  35.368  12.861
68946W        W36014  39.965  10.357   0.791
68947W        W36015  39.432  38.380   1.844
68948W        W36016  41.807  10.640  13.546
68949W        W36017  42.898   6.223   2.198
68950W        W36018  26.108  40.971  14.477
68951W        W36019   8.403   6.815   2.417
68952W        W36020  38.961  43.969  12.922
68953W        W36021  20.557  39.466  13.489
68954W        W36022  31.910  17.614   4.330
68955W        W36023  41.426   9.376   2.343
68956W        W36024  29.957  34.373   0.938
68957W        W36025   0.359  13.789   4.765
68958W        W36026  17.793  13.296  13.999
68959W        W36027  30.986  35.076   1.419
68960W        W36028  36.988  11.656  11.466
68961W        W36029   0.917  23.202  14.894
68962W        W36030  37.343   6.873   3.204
68963W        W36031  12.700   4.843  13.853
68964W        W36032  12.741  11.275  14.484
68965W        W36033   8.700   1.837   4.228
68966W        W36034  40.499  44.843  10.465
68967W        W36035  23.077   9.724   4.667
68968W        W36036  35.551  21.683   1.341
68969W        W36037  29.491   5.327   4.729
68970W        W36038  20.058  35.912   1.385
68971W        W36039  40.431  18.674   3.844
68972W        W36040  43.788  19.685   2.750
68973W        W36041  21.726   4.828  14.817
68974W        W36042   2.910  28.042  10.415
68975W        W36043  39.004  19.720  10.105
68976W        W36044  37.519  43.476  11.495
68977W        W36045  42.031  41.873  14.387
68978W        W36046  12.177  20.029  10.512
68979W        W36047   6.353  24.569  10.483
68980W        W36048  37.525  20.208  11.896
68981W        W36049  18.672  29.967   0.891
68982W        W36050  43.328  26.179  13.811
68983W        W36051  28.602  21.094   2.310
68984W        W36052  10.681  39.862  13.936
68985W        W36053   4.296   8.754  12.355
68986W        W36054  38.911  26.008   3.248
68987W        W36055   3.769  44.447  10.564
68988W        W36056  19.242  15.167   3.629
68989W        W36057   2.731  16.641  11.537
68990W        W36058   1.326  39.505   2.760
68991W        W36059  27.647  12.175   4.633
68992W        W36060   1.749  17.585   2.826
68993W        W36061  16.753   4.765  14.360
68994W        W36062  19.221  32.553  14.839
68995W        W36063  11.349  14.336   0.258
68996W        W36064   9.258  42.798  13.826
68997W        W36065  37.041   6.910  13.386
68998W        W36066  12.853  13.725  11.467
68999W        W36067  33.443  19.544   4.120
69000W        W36068  37.539  30.470  12.903
69001W        W36069  40.456   9.345  10.542
69002W        W36070   4.404  43.800  14.342
69003W        W36071  24.098   9.821  13.310
69004W        W36072   0.249  41.352  11.978
69005W        W36073  13.717  23.149   1.406
69006W        W36074  16.796  37.900  14.954
69007W        W36075  39.961  11.264   4.272
69008W        W36076  34.910  36.367  10.472
69009W        W36077   8.332  26.018  14.883
69010W        W36078  36.026  34.113   2.289
69011W        W36079  21.608  30.927  11.438
69012W        W36080  37.885   8.342   0.869
69013W        W36081  41.886  42.441   1.838
69014W        W36082   6.246  25.052   2.294
69015W        W36083  14.605  25.207  14.485
69016W        W36084  22.202  20.121   4.162
69017W        W36085   2.367  18.692  11.940
69018W        W36086  42.359   7.707  11.072
69019W        W36087  33.571   2.425  13.011
69020W        W36088  41.385   8.312   4.775
69021W        W36089  26.495  21.682   5.083
69022W        W36090  40.842  28.614  13.345
69023W        W36091   5.279  41.899  14.351
69024W        W36092  19.123  18.784  11.059
69025W        W36093  38.892  41.413   2.190
69026W        W36094  42.960  42.882  11.109
69027W        W36095   3.294  37.499   3.277
69028W        W36096  21.599  32.969   2.798
69029W        W36097   1.752  38.493   0.379
69030W        W36098  17.693  23.154  11.124
69031W        W36099  11.204  25.023   3.369
69032W        W36100  28.165   0.449   3.645
69033W        W36101  40.922  34.093   0.248
69034W        W36102  18.154  24.981  10.602
69035W        W36103   6.706  20.701   2.404
69036W        W36104  26.608  15.254  13.479
69037W        W36105  13.305  22.209   2.341
69038W        W36106   9.243   5.707   0.790
69039W        W36107  43.865   9.387  12.569
69040W        W36108   4.934  19.218   4.274
69041W        W36109  20.209  43.002  11.467
69042W        W36110   3.850   6.736  12.974
69043W        W36111  35.018  14.600  11.983
69044W        W36112   0.877   3.280   4.314
69045W        W36113  40.387  24.015   3.260
69046W        W36114  30.579  23.568   4.777
69047W        W36115   6.275  27.585  11.128
69048W        W36116   4.934   4.366   1.718
69049W        W36117   5.257  11.365   2.732
69050W        W36118  32.480  38.948  10.982
69051W        W36119  32.602  24.671   3.166
69052W        W36120   8.784  18.070   0.365
69053W        W36121  34.105  21.094  11.991
69054W        W36122   5.225   3.369   1.716
69055W        W36123  37.426  27.164   2.727
69056W        W36124  12.654  14.267  13.533
69057W        W36125  30.917  12.252  10.889
69058W        W36126  32.482  13.784  10.948
69059W        W36127  15.190  36.086  12.989
69060W        W36128   5.328  43.442   4.279
69061W        W36129  39.528  42.345  11.480
69062W        W36130  12.621  13.237  11.528
69063W        W36131  13.305  34.101  11.517
69064W        W36132  20.055   4.439  14.366
69065W        W36133  16.720  27.094   4.685
69066W        W36134  36.990  27.124   2.225
69067W        W36135  29.134  22.614  11.451
69068W        W36136  38.438  22.737   4.315
69069W        W36137  28.591  24.001  11.542
69070W        W36138  10.673  32.444   0.392
69071W        W36139  18.243  43.840  14.480
69072W        W36140   4.937  25.683   3.228
69073W        W36141  17.166  11.281  13.494
69074W        W36142  10.339  32.018  12.844
69075W        W36143  33.965  33.109  14.413
69076W        W36144  38.879  15.763  11.943
69077W        W36145   8.895  42.801   4.674
69078W        W36146   4.747   3.880  14.027
69079W        W36147  43.864  22.697  13.455
69080W        W36148   5.425  42.378   1.739
69081W        W36149  43.505  31.038   0.835
69082W        W36150  17.171  21.640   3.868
69083W        W36151  27.564  15.276   3.776
69084W        W36152   4.422  26.036   2.196
69085W        W36153  14.163  34.074   1.750
69086W        W36154  26.604  10.282  13.519
69087W        W36155   5.245   3.924  14.382
69088W        W36156  34.064  43.923   2.737
69089W        W36157   8.669  19.740  14.906
69090W        W36158  28.149  31.412   1.869
69091W        W36159  23.195  26.048   1.424
69092W        W36160  37.860  11.251   0.795
69093W        W36161  39.964  38.479  10.980
69094W        W36162  44.794  28.071   3.763
69095W        W36163  41.809  36.372   1.702
69096W        W36164   2.888   6.729   0.458
69097W        W36165  36.039  26.958   2.775
69098W        W36166   3.401  13.121   3.379
69099W        W36167  30.047  24.158  10.038
69100W        W36168   7.292   0.872   2.720
69101W        W36169  36.516  32.403   4.835
69102W        W36170   3.386  44.967  13.495
69103W        W36171  43.883  33.501   1.760
69104W        W36172   7.701   8.812   1.334
69105W        W36173   2.962  27.040  10.552
69106W        W36174  32.623  38.032  13.013
69107W        W36175   9.779  38.902   4.600
69108W        W36176  42.778  17.287  13.999
69109W        W36177  15.731  43.017  14.282
69110W        W36178  23.671   4.794   0.788
69111W        W36179  41.297   3.323   0.288
69112W        W36180  27.623  40.304   2.886
69113W        W36181   6.296  15.689   4.141
69114W        W36182  27.179  35.377  12.577
69115W        W36183  27.582   0.281  10.964
69116W        W36184  18.784  27.999   1.884
69117W        W36185   5.320  17.199   4.640
69118W        W36186  31.131  14.177   4.176
69119W        W36187  10.801  28.523  13.445
69120W        W36188  43.413  39.941   1.215
69121W        W36189  30.999  24.574   1.216
69122W        W36190   3.234  35.932   2.198
69123W        W36191  31.469  44.329  14.427
69124W        W36192  26.466  41.421   0.855
69125W        W36193  38.371  36.993  14.857
69126W        W36194  39.513  39.059  12.536
69127W        W36195   8.178  44.280   1.745
69128W        W36196  15.655  37.478  13.344
69129W        W36197  35.958  37.834   1.927
69130W        W36198  41.427   1.946   2.728
69131W        W36199  41.811  38.836   1.296
69132W        W36200  10.302   8.364  11.512
69133W        W36201  22.131   4.882  11.528
69134W        W36202  15.140  20.111   0.415
69135W        W36203  37.032   8.875  12.915
69136W        W36204   1.441  33.489  13.540
69137W        W36205  33.606  22.236  10.543
69138W        W36206  39.915  26.184   0.471
69139W        W36207   7.746  12.338   1.878
69140W        W36208  14.184  25.490  13.890
69141W        W36209  43.302  27.152  13.450
69142W        W36210  27.007   5.405  12.837
69143W        W36211  43.004  21.138  11.954
69144W        W36212   1.377  18.180   4.741
69145W        W36213  34.895   3.898  14.295
69146W        W36214  16.721  35.556  11.435
69147W        W36215   3.720   7.698   4.689
69148W        W36216  21.166  27.104  10.534
69149W        W36217  17.556  31.514   0.824
69150W        W36218  34.972   9.785   4.717
69151W        W36219  37.487  28.065   2.666
69152W        W36220  14.608  37.034  10.982
69153W        W36221  21.168   5.892  14.439
69154W        W36222  31.907  33.606  13.892
69155W        W36223  36.460   6.792   4.598
69156W        W36224   2.791  41.856  11.596
69157W        W36225  19.079  40.316  11.443
69158W        W36226  15.659  21.615  11.584
69159W        W36227  39.851  27.966   4.238
69160W        W36228  15.104  13.610  12.432
69161W        W36229  23.196  26.145   4.345
69162W        W36230  21.031   7.320  13.493
69163W        W36231   1.467  29.505   2.690
69164W        W36232  44.393  30.027  11.045
69165W        W36233  26.698  44.938  10.964
69166W        W36234  17.113  33.458   5.223
69167W        W36235  16.657   5.398  10.637
69168W        W36236  33.979   9.352  13.803
69169W        W36237  17.085  26.514   3.324
69170W        W36238  27.645   4.402  10.974
69171W        W36239   5.409  20.559   0.926
69172W        W36240  38.053   8.695   0.456
69173W        W36241  41.863   3.336  10.578
69174W        W36242  12.212   2.448   2.869
69175W        W36243   7.815  35.054  14.298
69176W        W36244  23.617  27.644   1.214
69177W        W36245   5.811   4.296  10.436
69178W        W36246  44.495   9.729   0.313
69179W        W36247   1.300  40.912   4.824
69180W        W36248   6.751  22.601  14.842
69181W        W36249  17.185   7.770  13.895
69182W        W36250  44.882  33.094  13.942
69183W        W36251  42.902  26.045  14.844
69184W        W36252  44.274  24.124  11.052
69185W        W36253   4.799  12.657   0.875
69186W        W36254  40.049  27.676  12.987
69187W        W36255  22.721  37.043  13.439
69188W        W36256  43.925  12.663  12.935
69189W        W36257  36.491  15.660  12.081
69190W        W36258  44.809  12.802   0.301
69191W        W36259   9.694  21.073   3.655
69192W        W36260   2.726  40.504   2.245
69193W        W36261  40.536  40.320  12.836
69194W        W36262  29.497  18.166  13.536
69195W        W36263  13.671  35.411   1.814
69196W        W36264  26.011  36.074  11.386
69197W        W36265  41.354  33.948   1.340
69198W        W36266   5.370  11.769  13.946
69199W        W36267  22.185   0.462   4.218
69200W        W36268  21.581  32.520  12.883
69201W        W36269   6.835  38.851  13.896
69202W        W36270  43.002  44.872   0.315
69203W        W36271  23.632  30.117  12.055
69204W        W36272  21.180  20.242  13.486
69205W        W36273   7.859   7.902  13.983
69206W        W36274  17.753   6.292  14.318
69207W        W36275   9.224   9.182  12.561
69208W        W36276  12.842  41.314  14.861
69209W        W36277  37.399  21.254  13.917
69210W        W36278   5.201   2.441   3.276
69211W        W36279  22.738  44.802   1.231
69212W        W36280  41.417  17.275   3.339
69213W        W36281  37.516   0.336   3.673
69214W        W36282  19.075  24.044   2.667
69215W        W36283  23.675  22.193  13.506
69216W        W36284   2.859  31.958   9.989
69217W        W36285  11.843  21.654  13.940
69218W        W36286  23.518  19.206  10.987
69219W        W36287   6.196  12.756   0.796
69220W        W36288  23.495  44.804   4.335
69221W        W36289  36.948  25.696  10.587
69222W        W36290  31.450  20.264   0.295
69223W        W36291   4.904  24.018   2.220
69224W        W36292   9.849  22.113   2.824
69225W        W36293  34.378  29.144  10.407
69226W        W36294  33.073  29.018  13.431
69227W        W36295  36.384  34.577  11.480
69228W        W36296  36.882  40.904   0.947
69229W        W36297  21.084  22.105  10.988
69230W        W36298  25.644  34.565  13.027
69231W        W36299  39.516   5.802  14.369
69232W        W36300  40.859  25.118  11.473
69233W        W36301   9.184   9.671  14.868
69234W        W36302  38.993  31.627   3.723
69235W        W36303  40.307   8.702   9.953
69236W        W36304  11.260   7.902  11.378
69237W        W36305  23.025  10.209   2.884
69238W        W36306   4.880  29.158   0.342
69239W        W36307  41.357  43.891   0.830
69240W        W36308  37.911  27.101   1.918
69241W        W36309  41.919  14.164  14.449
69242W        W36310  40.438  12.362  12.466
69243W        W36311  42.783  23.989  14.028
69244W        W36312  31.586  24.052   4.719
69245W        W36313  13.731   6.392  10.641
69246W        W36314  14.814  38.974  10.420
69247W        W36315   7.179   1.763  13.384
69248W        W36316  31.985  39.415   4.719
69249W        W36317  13.117  40.993   4.634
69250W        W36318  23.209  13.157   2.875
69251W        W36319   3.874  17.090   1.733
69252W        W36320  44.443  25.163  12.022
69253W        W36321  22.093  12.826   4.729
69254W        W36322  44.817   2.960   1.919
69255W        W36323   9.392   8.328   4.216
69256W        W36324   6.920   9.770  13.813
69257W        W36325   0.783  33.453  13.864
69258W        W36326  25.676  15.733  13.929
69259W        W36327  24.655  28.577   4.183
69260W        W36328  20.578  23.621  14.451
69261W        W36329   9.748  41.902  11.530
69262W        W36330  10.830  26.972  13.508
69263W        W36331  37.060  34.377  14.381
69264W        W36332  27.006  26.017  13.523
69265W        W36333  17.627  41.883  11.452
69266W        W36334  22.141  21.614   0.876
69267W        W36335  28.970  35.503  14.857
69268W        W36336  17.666  39.033  14.437
69269W        W36337  23.022  34.423   2.333
69270W        W36338  42.869   9.258  12.077
69271W        W36339  41.794   1.342   0.247
69272W        W36340  33.531   5.220  12.998
69273W        W36341  12.824   3.823   3.171
69274W        W36342  26.573  40.805   4.138
69275W        W36343   3.915  30.917  13.048
69276W        W36344  15.219   1.933  13.970
69277W        W36345   7.214  31.142   3.210
69278W        W36346  29.112  33.880  10.074
69279W        W36347  31.983  36.023  14.020
69280W        W36348  25.680  31.577  12.489
69281W        W36349   3.353  16.085  10.483
69282W        W36350   5.417   0.476   4.780
69283W        W36351  12.625  11.241  11.596
69284W        W36352  24.008  10.313  10.117
69285W        W36353  31.412  18.246  12.419
69286W        W36354  36.399  23.608   1.736
69287W        W36355  16.692   8.707   2.873
69288W        W36356   7.244  36.093  13.431
69289W        W36357   3.286  27.565   3.199
69290W        W36358   3.373  38.334   1.436
69291W        W36359  21.696  42.418   2.747
69292W        W36360  21.223   7.218  12.527
69293W        W36361  18.159  10.639   2.855
69294W        W36362  36.842   7.796   0.285
69295W        W36363  13.345  26.469   1.809
69296W        W36364  36.490  24.644  12.574
69297W        W36365  21.062  39.832   1.310
69298W        W36366  33.400   5.930  12.062
69299W        W36367  24.062   2.289  13.344
69300W        W36368  23.089  18.753   3.235
69301W        W36369  33.883  28.542  13.031
69302W        W36370  20.074  19.041  10.499
69303W        W36371  26.190   5.234  11.988
69304W        W36372  42.483  33.004  12.095
69305W        W36373  11.253  16.149  12.973
69306W        W36374  10.778  16.611   4.650
69307W        W36375  17.694   0.438  12.525
69308W        W36376  27.530   0.337  11.542
69309W        W36377  15.250  22.720   2.789
69310W        W36378  13.174  27.115   0.378
69311W        W36379  22.167  41.999  13.917
69312W        W36380  30.117  30.967   2.695
69313W        W36381  40.370  40.992   3.160
69314W        W36382  15.629   1.877   0.935
69315W        W36383  12.206  41.858   0.276
69316W        W36384   5.921  20.609  11.930
69317W        W36385  28.486  43.466  12.551
69318W        W36386   2.361  22.237   1.721
69319W        W36387  28.175  13.116   0.841
69320W        W36388  24.573  30.503  12.950
69321W        W36389  40.859  44.886   2.680
69322W        W36390  10.358  29.051  11.026
69323W        W36391  25.502  41.938   0.278
69324W        W36392   0.944  26.634  11.533
69325W        W36393  21.546  38.989   0.966
69326W        W36394   4.918   6.709  14.765
69327W        W36395   3.798   2.449  14.915
69328W        W36396   8.720  32.053  14.924
69329W        W36397  44.826  30.568   2.309
69330W        W36398  19.154  20.238  12.006
69331W        W36399  14.316  30.064   1.737
69332W        W36400  38.437   8.261   1.238
69333W        W36401  40.455  22.023   0.783
69334W        W36402  40.888  13.646   1.397
69335W        W36403  18.655  15.779   0.286
69336W        W36404  32.596  38.517   4.673
69337W        W36405  17.563  17.652   3.152
69338W        W36406  28.584   3.795  13.022
69339W        W36407  20.614  19.134  10.552
69340W        W36408  40.486   7.393  11.873
69341W        W36409  13.161   8.257  13.864
69342W        W36410  11.699  41.406  11.946
69343W        W36411   3.826  38.838   2.178
69344W        W36412  40.433   4.839   5.211
69345W        W36413  11.221  17.250   4.605
69346W        W36414  20.668  13.830   2.758
69347W        W36415  25.093  23.492   0.416
69348W        W36416  28.541  24.525   0.319
69349W        W36417  11.367  43.923  10.987
69350W        W36418  43.010   1.413   1.275
69351W        W36419  38.032  20.586   2.371
69352W        W36420  18.155  22.630   0.257
69353W        W36421   4.789   0.812  12.013
69354W        W36422  26.173  24.992  12.952
69355W        W36423  33.928  10.835   0.810
69356W        W36424   1.276  27.950   4.340
69357W        W36425   4.345  32.063   0.807
69358W        W36426   6.236  34.078   2.783
69359W        W36427  18.206   1.285  13.877
69360W        W36428   4.409  14.240   0.393
69361W        W36429  16.622  23.507   0.956
69362W        W36430  26.156  25.068  10.622
69363W        W36431  18.664  42.498  13.977
69364W        W36432   6.307  13.252   0.893
69365W        W36433  34.092  19.706   1.913
69366W        W36434  44.869   1.890  12.519
69367W        W36435   2.851  20.055   3.813
69368W        W36436  27.943  40.894   4.705
69369W        W36437  24.559  41.326   0.407
69370W        W36438   9.694  37.582   5.100
69371W        W36439  27.691  28.128  14.778
69372W        W36440  23.678  34.595  14.762
69373W        W36441   9.718  43.846   2.849
69374W        W36442  29.003   7.869   2.832
69375W        W36443  25.049  39.406  10.527
69376W        W36444  35.568   8.852   0.810
69377W        W36445  41.804  33.926  11.445
69378W        W36446   2.775  20.665  13.059
69379W        W36447  35.099  28.031  11.586
69380W        W36448   8.347  11.269  11.896
69381W        W36449  30.623   2.918   4.621
69382W        W36450  33.556   9.193   1.354
69383W        W36451  30.415  44.753   0.895
69384W        W36452  21.082  23.027  14.032
69385W        W36453   2.319   2.881  11.121
69386W        W36454  15.710   7.260   3.151
69387W        W36455   0.932  13.202   3.322
69388W        W36456  39.810  39.323   2.869
69389W        W36457  25.999  21.689   1.321
69390W        W36458  34.387   8.192  14.811
69391W        W36459  34.401  43.481   2.214
69392W        W36460  42.824  40.504   1.277
69393W        W36461   2.932  21.181   3.764
69394W        W36462  12.814  23.032   2.764
69395W        W36463   2.255  32.072   4.808
69396W        W36464  13.232   1.380  12.563
69397W        W36465   5.799  26.676  11.589
69398W        W36466   6.271  17.609   3.661
69399W        W36467  34.002   4.861  13.041
69400W        W36468  24.025  35.536   1.810
69401W        W36469  26.602  25.054   0.357
69402W        W36470  10.643  21.529  14.965
69403W        W36471  33.986  20.598  11.974
69404W        W36472   3.752  14.722   0.793
69405W        W36473  29.640  19.724  14.304
69406W        W36474  18.163  38.861   0.431
69407W        W36475  39.020  12.173   2.264
69408W        W36476  36.366  14.246  10.476
69409W        W36477  35.478  12.773   3.848
69410W        W36478  44.768  43.490   2.798
69411W        W36479  34.895  34.411  14.894
69412W        W36480  38.412  39.826  13.822
69413W        W36481  33.383  43.317  10.432
69414W        W36482  37.452  33.984  13.339
69415W        W36483  18.297  19.665   3.152
69416W        W36484  14.331  42.917  10.633
69417W        W36485  35.453  15.691  12.823
69418W        W36486  43.932  35.901   0.360
69419W        W36487  27.086  28.578   2.414
69420W        W36488  27.969  15.094  12.943
69421W        W36489  11.807  32.896  12.829
69422W        W36490   2.810  29.457  14.463
69423W        W36491  25.008  14.607  13.351
69424W        W36492   1.773  42.400   4.246
69425W        W36493  15.306   6.763   2.205
69426W        W36494  19.759  35.023  11.378
69427W        W36495  20.593  19.689  10.455
69428W        W36496  42.959  25.090  10.491
69429W        W36497  33.970  16.143   0.364
69430W        W36498  12.734  39.047   3.318
69431W        W36499  21.074  24.615  10.484
69432W        W36500  27.448  13.209   0.960
69433W        W36501  25.526  10.869  13.947
69434W        W36502  29.070  30.491   4.220
69435W        W36503  12.815  22.580   1.741
69436W        W36504  16.630   7.903   2.410
69437W        W36505  34.919  12.706  10.477
69438W        W36506  11.258   6.249  14.951
69439W        W36507  38.469   4.379   1.896
69440W        W36508  34.374  31.567  12.932
69441W        W36509  33.070  40.343   2.663
69442W        W36510  30.936  38.473   3.328
69443W        W36511  27.662   4.819  12.470
69444W        W36512  25.582  44.312  11.885
69445W        W36513   9.252   7.738  12.383
69446W        W36514   6.306  18.157  11.101
69447W        W36515   6.225   7.343  11.523
69448W        W36516  42.895  20.232   1.779
69449W        W36517  10.296  34.040  11.545
69450W        W36518  31.482  22.715  10.497
69451W        W36519  19.598   8.717  11.051
69452W        W36520   5.242  42.920   4.319
69453W        W36521  24.037  33.119   0.448
69454W        W36522  39.419   8.894  14.009
69455W        W36523  26.656  25.544   0.292
69456W        W36524   3.418  16.801  12.423
69457W        W36525  34.098  41.360   0.824
69458W        W36526  19.613   6.275   4.247
69459W        W36527  10.847  21.056  10.041
69460W        W36528   1.780  13.742   3.281
69461W        W36529  14.285  41.432  12.967
69462W        W36530  21.572  22.555   3.692
69463W        W36531  36.353   9.704   0.728
69464W        W36532   5.813  37.507   0.866
69465W        W36533   9.267  33.607  14.505
69466W        W36534   6.766   5.740  14.969
69467W        W36535   6.828  14.632  13.014
69468W        W36536  32.552  13.200  10.609
69469W        W36537  44.957  10.658   2.689
69470W        W36538  31.931   4.800   4.813
69471W        W36539   9.196   9.367  13.998
69472W        W36540  33.393   7.765  12.458
69473W        W36541   3.293   3.884   1.886
69474W        W36542  17.628  31.106  14.297
69475W        W36543  36.390  44.845   2.722
69476W        W36544  14.291   7.701   3.780
69477W        W36545  38.981   9.193  10.412
69478W        W36546  38.560  21.725  14.912
69479W        W36547  34.082  14.317   3.716
69480W        W36548  44.821  13.324   0.831
69481W        W36549  33.530  40.013  13.423
69482W        W36550  43.822  44.458   4.149
69483W        W36551   6.271  29.468  10.541
69484W        W36552  40.549  30.999   3.250
69485W        W36553   9.685   3.320   1.308
69486W        W36554  20.647  26.956  13.989
69487W        W36555   9.851  31.404   3.197
69488W        W36556   0.750  29.563  11.402
69489W        W36557   5.796  15.644   1.703
69490W        W36558  25.472   2.948  14.929
69491W        W36559  39.033  15.106  13.529
69492W        W36560   6.223   1.360   2.245
69493W        W36561  19.594   9.729  12.993
69494W        W36562  28.583  28.560  11.012
69495W        W36563  43.856   2.291  10.614
69496W        W36564  38.905  17.756  10.618
69497W        W36565   5.202   7.269   1.904
69498W        W36566  29.616   2.372  10.467
69499W        W36567   4.944   4.367   4.757
69500W        W36568   6.257  32.042  12.379
69501W        W36569  33.568  24.569  10.527
69502W        W36570  15.166   3.379  12.392
69503W        W36571   6.358  11.182  10.572
69504W        W36572  20.031  38.915   2.225
69505W        W36573  43.431  17.752   4.125
69506W        W36574  14.285  40.812  11.597
69507W        W36575  31.606  25.174  14.025
69508W        W36576  40.925   6.841   3.754
69509W        W36577  21.128  29.993   3.345
69510W        W36578   9.785   6.867   2.739
69511W        W36579  32.897  11.156  11.397
69512W        W36580   2.472  15.244  12.837
69513W        W36581   4.320  35.006   4.200
69514W        W36582  27.121  22.638   1.345
69515W        W36583  34.972  22.566   3.862
69516W        W36584   1.318  14.673  10.446
69517W        W36585  42.498   5.917  12.078
69518W        W36586  33.450  41.425   2.274
69519W        W36587   1.346  25.608  10.569
69520W        W36588  24.574  13.350   3.364
69521W        W36589  14.612  27.576   1.371
69522W        W36590   4.833   3.261   4.801
69523W        W36591  35.055  26.476  12.472
69524W        W36592  32.103   0.296   3.262
69525W        W36593   1.816  10.217  14.797
69526W        W36594   4.397  22.007  14.974
69527W        W36595   6.262  38.825   1.925
69528W        W36596  29.638  12.325   1.327
69529W        W36597  19.632  30.069   2.783
69530W        W36598  18.600  22.114   2.417
69531W        W36599  24.188  21.250  11.103
69532W        W36600  25.652  36.497  14.794
69533W        W36601  19.274  17.272   0.277
69534W        W36602  13.690  23.230  14.019
69535W        W36603  22.078  18.090   0.754
69536W        W36604  42.788  24.172  14.358
69537W        W36605  40.052  15.763   4.678
69538W        W36606  24.071  37.566  14.437
69539W        W36607  33.978  28.989  13.480
69540W        W36608  28.937  14.686   3.682
69541W        W36609  10.143  36.592   0.263
69542W        W36610  15.772  29.618  11.569
69543W        W36611  25.572  38.895   0.460
69544W        W36612  43.004  37.889   4.235
69545W        W36613  19.046  24.989   3.704
69546W        W36614  22.121  24.983  13.953
69547W        W36615  27.597  12.677   2.800
69548W        W36616   6.227  35.522  11.122
69549W        W36617   4.298  44.767   1.832
69550W        W36618  24.011   3.433   2.788
69551W        W36619  29.441  32.535  11.944
69552W        W36620  37.521  36.987  14.512
69553W        W36621  30.098  21.149   4.163
69554W        W36622  44.315  10.194   4.129
69555W        W36623  35.933  30.626   3.209
69556W        W36624  37.963  38.959   4.222
69557W        W36625  16.216  33.454   0.302
69558W        W36626  14.098   5.843  13.442
69559W        W36627  34.041  10.709   2.720
69560W        W36628  13.311  40.052  13.899
69561W        W36629  35.514  44.295   1.822
69562W        W36630  28.648  11.168   0.358
69563W        W36631  38.949   3.243   2.871
69564W        W36632  24.636   1.442   1.735
69565W        W36633  37.000  22.055   0.341
69566W        W36634  15.696  20.666   2.393
69567W        W36635  20.749   0.300  12.880
69568W        W36636   6.416  44.993   3.866
69569W        W36637  17.641  34.474   2.245
69570W        W36638  26.528  20.174  11.527
69571W        W36639   6.343  28.490   4.288
69572W        W36640   4.928  44.849  11.921
69573W        W36641  31.442  20.756  12.039
69574W        W36642  29.456   7.781  13.009
69575W        W36643  21.511   7.725  14.916
69576W        W36644  36.388   2.905  12.830
69577W        W36645   9.813  40.942   2.222
69578W        W36646   6.740   5.378   0.903
69579W        W36647  23.567   6.428   0.360
69580W        W36648  24.066   0.923   2.718
69581W        W36649  28.626   2.310  12.468
69582W        W36650  32.559  33.620  11.925
69583W        W36651  23.110  40.389   1.742
69584W        W36652  10.259  37.914  13.836
69585W        W36653   9.782  23.163  11.859
69586W        W36654  23.232  15.085  12.365
69587W        W36655  41.850  35.074  14.474
69588W        W36656  12.787  12.223  13.435
69589W        W36657  25.166   8.695  12.988
69590W        W36658   1.350  20.042   2.697
69591W        W36659   5.374   2.325  14.497
69592W        W36660   8.797  21.060  13.929
69593W        W36661  11.824  14.619   3.754
69594W        W36662  37.917   1.837   1.715
69595W        W36663   6.229  35.098   1.814
69596W        W36664   8.739   8.690   2.333
69597W        W36665  23.568  30.533   2.900
69598W        W36666  22.027  17.089   2.261
69599W        W36667   7.708  32.993   1.886
69600W        W36668  40.538  23.204  14.908
69601W        W36669   6.920   9.842  12.927
69602W        W36670  16.666  30.550   3.370
69603W        W36671  33.523  22.720  13.434
69604W        W36672  26.963  34.407  12.902
69605W        W36673  13.704  36.900  11.988
69606W        W36674  32.509  15.293  12.013
69607W        W36675  19.774   5.809   4.221
69608W        W36676   8.745  26.074  11.931
69609W        W36677  39.011  25.605  14.434
69610W        W36678   2.843  25.139   2.376
69611W        W36679  39.971   0.887   1.400
69612W        W36680   3.790  27.625   3.642
69613W        W36681  24.539  14.144   3.183
69614W        W36682  23.726   2.397   3.270
69615W        W36683  27.006   3.363   3.299
69616W        W36684  12.315  29.120   2.857
69617W        W36685  44.874  43.271  12.070
69618W        W36686   3.299   9.678   0.411
69619W        W36687   2.373  23.171  11.471
69620W        W36688  41.387   4.711  10.567
69621W        W36689   0.251   4.944   1.743
69622W        W36690   9.834  36.408   1.396
69623W        W36691  18.681  17.114   5.303
69624W        W36692  37.891   7.906  12.577
69625W        W36693  25.694  37.516   2.273
69626W        W36694  28.953   8.881  10.553
69627W        W36695  22.522   8.195  10.567
69628W        W36696  20.673  12.744  14.448
69629W        W36697   4.907  42.410   3.720
69630W        W36698  12.298  40.421  12.521
69631W        W36699  34.916  27.140   2.269
69632W        W36700  33.010  11.856  14.785
69633W        W36701  29.104   3.340  10.408
69634W        W36702  19.693  12.826   0.459
69635W        W36703  15.131   8.740  13.319
69636W        W36704   9.365  25.088   0.751
69637W        W36705  19.205  30.488   2.208
69638W        W36706   4.861  25.550   0.783
69639W        W36707  28.652  25.605   3.744
69640W        W36708   8.674   6.919  14.815
69641W        W36709  18.199  33.385  13.972
69642W        W36710  42.874   6.425   0.326
69643W        W36711  38.984   6.783   0.386
69644W        W36712  12.745  41.955   2.238
69645W        W36713  24.629   0.481  10.572
69646W        W36714  34.531  28.131   0.260
69647W        W36715  29.657   1.750  11.042
69648W        W36716  35.585  32.437  13.321
69649W        W36717  10.742  28.081   4.341
69650W        W36718  26.170  36.906  14.985
69651W        W36719  15.166  18.093  14.986
69652W        W36720  26.601   1.798  12.987
69653W        W36721  16.317  14.611   0.846
69654W        W36722   1.777  20.103  14.285
69655W        W36723   6.388  21.150  11.910
69656W        W36724  44.783  25.481   3.303
69657W        W36725  33.888  26.057   3.312
69658W        W36726  20.693  19.554   2.187
69659W        W36727  33.071  34.497  11.582
69660W        W36728  20.214   9.652  11.968
69661W        W36729  26.590   9.218  14.462
69662W        W36730   9.690  21.612  13.481
69663W        W36731  28.184  23.661   1.446
69664W        W36732  17.779  29.081  10.971
69665W        W36733  28.472  35.524   0.834
69666W        W36734   3.333   2.277   1.320
69667W        W36735  42.911  38.335   0.476
69668W        W36736  43.446  36.890   1.826
69669W        W36737   0.748  19.101  11.869
69670W        W36738  16.152   6.708  13.943
69671W        W36739  19.579   2.895  12.457
69672W        W36740  15.768  36.440   3.150
69673W        W36741  17.588  39.970  14.299
69674W        W36742  16.194  44.813  11.993
69675W        W36743   9.726  34.920  14.903
69676W        W36744  15.608   3.273   2.200
69677W        W36745  13.667  14.661   4.837
69678W        W36746  15.742  12.829  11.388
69679W        W36747  27.004   1.766  10.982
69680W        W36748  30.962  28.121   4.184
69681W        W36749  21.580  16.128  12.447
69682W        W36750   0.415  38.479  13.925
69683W        W36751  24.655   1.950   1.924
69684W        W36752  15.162  23.235  13.443
69685W        W36753  42.906  14.214  11.918
69686W        W36754  43.964   1.945   0.777
69687W        W36755   0.463  20.665   3.253
69688W        W36756  36.083  19.061  12.055
69689W        W36757  41.005  19.749  12.372
69690W        W36758  24.158  18.741   5.106
69691W        W36759  43.337  39.016  13.498
69692W        W36760  37.942  17.771  13.469
69693W        W36761  22.676  17.641   3.840
69694W        W36762  15.304  18.246   0.766
69695W        W36763  37.398  40.445  13.981
69696W        W36764  39.460   7.317   2.786
69697W        W36765  38.996   3.238  14.357
69698W        W36766   0.786  26.538   1.816
69699W        W36767  33.452  14.274  13.546
69700W        W36768  41.818  15.116   0.325
69701W        W36769  10.377  40.519   4.756
69702W        W36770  32.032  18.562  13.520
69703W        W36771  37.536  13.713  12.056
69704W        W36772  41.873  41.371   2.721
69705W        W36773  28.062  12.186  12.895
69706W        W36774  27.183  12.799   3.866
69707W        W36775  17.064  10.795   3.175
69708W        W36776   5.354  28.577   0.378
69709W        W36777  11.731  14.808   0.403
69710W        W36778  29.456  25.487   0.865
69711W        W36779  41.823   7.813   0.765
69712W        W36780  22.128   2.959  13.807
69713W        W36781  18.777  43.473  13.498
69714W        W36782  24.999  37.024  11.425
69715W        W36783  23.515  39.061   2.712
69716W        W36784  34.470  26.071   0.923
69717W        W36785  43.276  18.082  13.391
69718W        W36786  24.601  18.250  11.402
69719W        W36787   2.449  11.633  14.016
69720W        W36788  18.710   8.864  11.986
69721W        W36789  15.239  18.126  12.041
69722W        W36790  14.678  12.641  10.057
69723W        W36791   3.307   0.298   2.802
69724W        W36792  36.444  24.548  10.405
69725W        W36793  38.352  16.750   4.642
69726W        W36794  40.974  24.663  14.382
69727W        W36795  14.635  44.342  14.473
69728W        W36796  15.670  33.006   3.151
69729W        W36797  18.706  30.419   1.857
69730W        W36798  39.049  35.553  14.025
69731W        W36799  44.485   7.211   3.799
69732W        W36800  31.015  13.185  11.460
69733W        W36801  44.861  11.137   3.810
69734W        W36802   3.283   3.313  11.517
69735W        W36803  31.496  18.201  10.933
69736W        W36804  17.750  44.462   0.363
69737W        W36805  29.998  13.105  14.274
69738W        W36806  12.261  35.510  14.409
69739W        W36807   2.399  34.410  11.532
69740W        W36808  35.419  39.051  12.936
69741W        W36809  40.980  30.431   1.762
69742W        W36810   0.288  29.026   2.721
69743W        W36811  33.952   4.891  11.968
69744W        W36812   1.792   5.894  12.869
69745W        W36813  12.310   7.735   1.306
69746W        W36814  26.952   3.256   2.828
69747W        W36815  13.125  25.035  14.346
69748W        W36816  10.179  17.138  10.990
69749W        W36817  36.410  30.145  14.284
69750W        W36818  36.531  35.457  11.545
69751W        W36819  34.061   8.214   3.763
69752W        W36820  12.828  23.551  11.030
69753W        W36821  30.461   0.336  10.602
69754W        W36822  30.538   1.830   3.777
69755W        W36823  30.011  33.624  12.958
69756W        W36824  39.399  19.130  14.925
69757W        W36825  44.448   6.894  12.890
69758W        W36826  32.930  13.767  13.856
69759W        W36827  30.977  12.614   0.312
69760W        W36828  42.013  34.575   1.232
69761W        W36829  14.234   9.297   2.251
69762W        W36830  42.933  40.872  11.963
69763W        W36831  35.584  22.728   1.715
69764W        W36832   6.280   8.375  12.446
69765W        W36833   3.725   7.290  13.359
69766W        W36834  32.909  15.232   0.791
69767W        W36835  37.461  23.666  13.516
69768W        W36836   0.932  27.073   1.833
69769W        W36837  15.262  30.646  11.403
69770W        W36838   1.450   6.733   0.862
69771W        W36839  11.817  10.781  13.040
69772W        W36840  11.864   8.820   4.685
69773W        W36841  27.016  34.876   0.248
69774W        W36842  43.814  28.107  13.054
69775W        W36843  30.032   7.750   2.328
69776W        W36844  12.299  21.713  14.343
69777W        W36845  28.166  41.885  11.430
69778W        W36846   0.770  44.924   4.119
69779W        W36847  42.974  42.018   3.319
69780W        W36848  41.468   2.438  14.879
69781W        W36849  36.907  23.137  13.308
69782W        W36850   7.417   0.372   1.721
69783W        W36851   0.277   5.746   4.149
69784W        W36852   3.848  10.651  11.545
69785W        W36853  33.553   1.296  11.082
69786W        W36854  40.304  36.403  14.472
69787W        W36855  27.508   4.919   2.828
69788W        W36856  20.578   5.341  10.485
69789W        W36857  33.990  19.557  13.325
69790W        W36858   0.879  24.017   4.669
69791W        W36859  26.685   0.263  11.970
69792W        W36860  33.545  29.140  11.474
69793W        W36861  30.417  19.627  13.904
69794W        W36862  12.610   8.863   3.259
69795W        W36863  35.943  21.596   2.234
69796W        W36864  22.637  21.164  14.993
69797W        W36865   1.357  13.604   3.156
69798W        W36866  35.077  39.047   0.342
69799W        W36867   1.292   1.311  11.080
69800W        W36868  31.928  27.166   0.728
69801W        W36869  16.673   9.759   1.884
69802W        W36870  27.049  29.112   1.840
69803W        W36871  38.885   3.358  12.042
69804W        W36872  11.854  35.452  10.543
69805W        W36873  27.606  38.008  12.074
69806W        W36874   3.455  18.685  11.593
69807W        W36875  39.408  28.511  12.908
69808W        W36876  27.668  16.655   0.737
69809W        W36877   2.737  43.466  10.966
69810W        W36878  29.928   7.234  13.309
69811W        W36879  20.028  26.193   3.692
69812W        W36880  43.513  35.945   2.284
69813W        W36881  14.775  31.625   1.248
69814W        W36882  43.467  35.005   3.692
69815W        W36883  28.575  12.813  14.334
69816W        W36884  39.400  32.136   3.795
69817W        W36885  19.047  21.087  14.939
69818W        W36886   2.467   2.334   0.436
69819W        W36887  10.668  13.731  14.983
69820W        W36888   5.888  16.736  10.422
69821W        W36889   3.897  11.794   4.215
69822W        W36890  40.969  16.773   1.920
69823W        W36891  15.220  23.619  10.585
69824W        W36892  21.247  34.933  10.543
69825W        W36893  34.505  39.959  14.460
69826W        W36894  10.235  14.165  14.859
69827W        W36895  31.059   3.835  14.835
69828W        W36896  31.943  24.222   1.380
69829W        W36897   8.243  25.696   2.823
69830W        W36898  15.721   7.803  12.361
69831W        W36899  23.029  44.855  12.384
69832W        W36900  43.298  29.455   2.196
69833W        W36901  36.071  30.596   4.832
69834W        W36902   8.661   2.315   2.829
69835W        W36903  27.617  13.732   9.931
69836W        W36904  11.730  23.568   2.251
69837W        W36905  37.493   2.886  12.356
69838W        W36906  26.653  29.471  14.845
69839W        W36907  17.593   8.809   3.679
69840W        W36908   1.735  33.019  13.398
69841W        W36909  29.633   1.736   3.644
69842W        W36910  20.039  10.749   0.807
69843W        W36911   7.910  42.295   1.335
69844W        W36912  19.749  41.488   4.243
69845W        W36913   1.385   1.349   2.686
69846W        W36914  18.591  30.076  11.945
69847W        W36915  23.569  33.080   2.193
69848W        W36916  39.421  17.632   0.362
69849W        W36917  14.111  21.593   3.159
69850W        W36918  16.737   5.223  11.484
69851W        W36919   2.913  19.133   3.746
69852W        W36920  22.178  11.773   1.755
69853W        W36921  36.948  24.144   3.379
69854W        W36922  39.894  20.576  14.761
69855W        W36923   8.222  31.118   1.886
69856W        W36924  41.833  12.286   1.767
69857W        W36925   0.251   6.905  14.467
69858W        W36926   6.686  17.244   0.755
69859W        W36927  35.963  19.556   1.775
69860W        W36928  13.125  38.953   3.699
69861W        W36929  25.671  35.086   4.800
69862W        W36930  39.427  44.362  12.556
69863W        W36931  37.080  28.510   2.695
69864W        W36932   9.697  28.024  12.990
69865W        W36933  10.369   5.918   0.840
69866W        W36934  35.857   1.279  13.929
69867W        W36935   4.438   2.241   4.233
69868W        W36936   5.857  35.562  13.426
69869W        W36937  41.450  21.040  11.384
69870W        W36938   7.791  22.068   3.796
69871W        W36939  29.945  33.923   3.856
69872W        W36940  15.741  29.043  12.047
69873W        W36941  36.095  12.306   0.735
69874W        W36942  42.886  23.078   1.434
69875W        W36943  29.060  23.574  13.836
69876W        W36944  11.776  16.641  11.525
69877W        W36945   5.806  23.182  11.048
69878W        W36946  13.259  23.657  12.073
69879W        W36947  16.148  18.191   1.796
69880W        W36948  38.347  36.956  10.408
69881W        W36949  14.148  40.502  10.554
69882W        W36950  29.073  40.441  10.445
69883W        W36951  28.052  17.654   4.175
69884W        W36952  33.922   9.692  14.773
69885W        W36953  28.021  14.602   4.598
69886W        W36954  28.499  21.204  13.428
69887W        W36955  33.895  36.583  10.926
69888W        W36956  24.572  17.276  13.984
69889W        W36957  27.516   6.874   0.327
69890W        W36958  10.849  20.560   3.222
69891W        W36959  18.731  16.585  11.059
69892W        W36960  34.480  15.213  13.974
69893W        W36961  28.646  25.643  14.905
69894W        W36962  43.868  41.431   0.950
69895W        W36963  22.077   5.885  12.855
69896W        W36964  20.617  11.142   4.704
69897W        W36965  17.715   5.894   3.720
69898W        W36966  40.030   7.755   0.469
69899W        W36967   9.154  23.558   5.236
69900W        W36968  16.636  35.900   1.213
69901W        W36969  39.401  17.691  14.806
69902W        W36970  37.960  42.986  10.012
69903W        W36971  25.134   8.761   2.210
69904W        W36972  21.019  44.831   2.817
69905W        W36973  40.535  13.334   4.809
69906W        W36974  24.676  21.095   0.954
69907W        W36975  44.334   4.847   3.213
69908W        W36976  12.321   4.321   2.831
69909W        W36977  38.842  30.500   3.368
69910W        W36978  43.511  19.070  13.805
69911W        W36979  44.303  17.119  14.427
69912W        W36980  43.006   5.739  14.911
69913W        W36981   2.434  30.460   2.324
69914W        W36982  14.797   3.382  10.584
69915W        W36983  37.915  35.073   3.665
69916W        W36984  16.159  14.204  11.441
69917W        W36985  12.678  33.968   4.826
69918W        W36986  20.578  44.979   4.150
69919W        W36987  44.449  18.620   1.738
69920W        W36988  27.600  10.789   1.882
69921W        W36989  20.643  10.256  13.839
69922W        W36990   8.761   4.792  13.014
69923W        W36991  22.071  35.464   4.688
69924W        W36992  22.028  39.393  12.532
69925W        W36993  14.260   7.268   3.246
69926W        W36994  13.132   4.447  14.326
69927W        W36995   1.399  44.271  11.958
69928W        W36996  41.303  42.029  14.937
69929W        W36997   0.928  28.533  12.353
69930W        W36998  21.047  43.929   4.599
69931W        W36999  17.800  40.995   3.373
69932W        W37000  29.165  16.723  11.111
69933W        W37001  22.561  18.779  12.371
69934W        W37002  24.709  30.452  14.879
69935W        W37003  25.508   1.950   1.736
69936W        W37004  39.358  35.391  13.974
69937W        W37005  11.808  39.063   5.160
69938W        W37006  27.163  12.137   2.244
69939W        W37007  11.141   4.293   0.794
69940W        W37008  29.012  39.977  11.906
69941W        W37009   1.322  12.680   1.278
69942W        W37010  39.438  33.508   4.193
69943W        W37011  22.651   9.252  10.935
69944W        W37012   7.834  40.354  13.378
69945W        W37013  29.541  23.566  11.921
69946W        W37014  40.448  14.702   0.830
69947W        W37015  20.222  36.556  13.032
69948W        W37016   7.333  28.083   4.156
69949W        W37017   4.895   3.803   1.831
69950W        W37018  43.983   9.790   3.342
69951W        W37019  24.033  24.524  11.549
69952W        W37020  12.742  34.902  13.446
69953W        W37021  15.599  42.332   4.113
69954W        W37022  29.922  16.092   4.630
69955W        W37023  27.511  38.893   0.477
69956W        W37024  37.451  24.048   1.333
69957W        W37025  21.712  44.004   2.399
69958W        W37026   8.353  25.696  11.992
69959W        W37027  31.462  25.142   4.159
69960W        W37028   1.877  35.568  13.962
69961W        W37029   6.732  41.533   4.257
69962W        W37030  17.583  31.548  12.968
69963W        W37031  40.534  21.090   0.395
69964W        W37032  28.440  29.085  14.488
69965W        W37033  30.955  37.487  14.361
69966W        W37034  24.145  18.134   1.906
69967W        W37035  31.453   0.375  11.529
69968W        W37036  24.070  36.866  13.901
69969W        W37037  44.268  12.288  11.103
69970W        W37038  19.109   3.345  13.512
69971W        W37039   3.340  37.016  10.957
69972W        W37040  14.610  10.775   3.227
69973W        W37041  21.630  37.575  12.851
69974W        W37042  35.109  14.305   2.676
69975W        W37043   5.349   3.765  11.903
69976W        W37044  18.585   8.852  10.447
69977W        W37045  14.589  24.985  11.101
69978W        W37046  19.165  33.557  13.042
69979W        W37047  11.846  30.414   1.721
69980W        W37048   2.349  43.422   0.953
69981W        W37049   1.889  39.936   3.370
69982W        W37050  36.099  36.423  11.601
69983W        W37051  15.252  11.655  13.539
69984W        W37052  43.786  14.598   3.294
69985W        W37053  40.527  18.241   4.305
69986W        W37054  40.351  13.680   2.690
69987W        W37055  41.976  24.684  12.089
69988W        W37056  12.184  29.576  11.029
69989W        W37057   8.378  36.346   0.798
69990W        W37058  20.154  33.452   9.948
69991W        W37059  40.961  19.252   2.312
69992W        W37060  44.465  20.226  12.539
69993W        W37061  42.979  40.933   2.318
69994W        W37062  18.187  35.940  10.527
69995W        W37063   7.898  29.953   2.772
69996W        W37064  36.870  39.883   0.373
69997W        W37065   1.300  13.332  11.081
69998W        W37066  17.745  32.548   3.173
69999W        W37067  16.238  23.050  11.857
70000W        W37068  35.444  16.145  14.942
70001W        W37069  30.985  25.140   4.309
70002W        W37070  23.026  20.654  13.802
70003W        W37071  19.616  42.505  13.949
70004W        W37072   1.944   2.424  14.769
70005W        W37073   3.442  11.127  10.558
70006W        W37074  18.140  17.147  10.919
70007W        W37075   3.309  44.845   4.207
70008W        W37076  18.176   8.210  12.899
70009W        W37077   6.908  16.090  12.470
70010W        W37078  24.067  39.366  13.052
70011W        W37079   7.702  20.642   2.670
70012W        W37080  10.253  23.211  14.509
70013W        W37081  22.068  27.503   1.849
70014W        W37082  16.766  39.510   0.952
70015W        W37083  35.051  21.075   5.144
70016W        W37084   9.252  25.601   3.147
70017W        W37085  10.246   6.863   2.253
70018W        W37086  32.454   3.457   4.734
70019W        W37087  38.517  41.419  13.368
70020W        W37088  28.460  15.690   0.863
70021W        W37089  21.541   9.795  10.590
70022W        W37090  11.672  40.894  10.529
70023W        W37091   1.731  16.275   0.296
70024W        W37092   7.414  42.841   3.273
70025W        W37093  18.281   0.263  10.525
70026W        W37094   8.854  41.809  12.459
70027W        W37095  21.213  38.923   0.846
70028W        W37096  13.841  42.791   4.151
70029W        W37097  12.345   2.419  12.095
70030W        W37098   1.335  10.864  10.462
70031W        W37099  41.819  21.705   0.914
70032W        W37100  36.847  38.055   1.377
70033W        W37101  40.451   3.348   1.759
70034W        W37102  38.826  18.081   1.330
70035W        W37103  19.544  27.572   4.198
70036W        W37104  22.502  32.558  12.973
70037W        W37105  40.897  28.934  12.565
70038W        W37106  28.185  28.506  14.311
70039W        W37107  26.663  29.441   0.832
70040W        W37108  15.146  39.403   3.230
70041W        W37109  20.072  18.762  10.586
70042W        W37110  32.887  33.943   4.813
70043W        W37111  31.145  34.598   3.701
70044W        W37112  35.566  28.093  14.276
70045W        W37113  35.495   7.781   0.798
70046W        W37114  44.967  29.544   4.244
70047W        W37115  41.382  14.139  11.983
70048W        W37116  20.664  35.579   4.326
70049W        W37117  40.875   2.454  10.515
70050W        W37118  25.619  37.348   4.273
70051W        W37119  29.506  31.477   3.330
70052W        W37120  20.224  32.084   0.288
70053W        W37121   9.245  12.173   2.242
70054W        W37122  12.182  26.593  11.495
70055W        W37123  31.482  40.310  14.830
70056W        W37124  29.028  14.626   1.856
70057W        W37125  33.083  10.274  14.888
70058W        W37126  19.681  27.505   2.892
70059W        W37127  10.289   4.830   2.231
70060W        W37128  12.751  30.415  10.902
70061W        W37129  26.012  30.440  14.491
70062W        W37130  24.982  28.657   3.716
70063W        W37131  20.531   0.269  10.470
70064W        W37132  16.151   3.337   2.288
70065W        W37133  25.165  25.694   1.228
70066W        W37134   4.759  19.183   4.622
70067W        W37135  29.165  42.922  13.307
70068W        W37136   0.323  36.870   1.281
70069W        W37137  42.833  23.003  11.461
70070W        W37138  31.490  29.640   1.260
70071W        W37139   0.457  15.753   2.843
70072W        W37140  35.967  24.481   2.816
70073W        W37141  43.937  25.993   2.233
70074W        W37142   7.817   9.745  11.584
70075W        W37143  37.884  21.723  12.896
70076W        W37144  41.878  43.483   1.921
70077W        W37145  43.384  27.177  14.890
70078W        W37146  33.437   6.723  11.537
70079W        W37147   1.247  27.557   1.315
70080W        W37148   2.335   4.301   3.182
70081W        W37149   3.911  21.244  13.540
70082W        W37150   9.304  12.626  12.406
70083W        W37151   9.780  19.609  14.516
70084W        W37152  40.003  19.773  14.417
70085W        W37153  33.620  12.732   3.275
70086W        W37154  27.682   6.918   4.254
70087W        W37155  28.671   4.794  12.027
70088W        W37156  11.264  17.746   4.211
70089W        W37157  24.619  35.030   4.271
70090W        W37158  41.538  31.938   4.765
70091W        W37159  11.649  20.040   1.814
70092W        W37160  11.279  36.933   3.277
70093W        W37161   3.837  25.538   4.729
70094W        W37162   4.283  44.363  10.913
70095W        W37163  39.535  41.883   1.296
70096W        W37164  20.628  44.418   1.818
70097W        W37165  11.138  11.261   3.373
70098W        W37166   2.226  38.952  12.879
70099W        W37167  24.543  19.579  10.609
70100W        W37168   8.166  28.626   0.349
70101W        W37169  22.013  34.405   0.433
70102W        W37170  19.704  39.825   2.675
70103W        W37171  37.048  17.301  14.772
70104W        W37172   4.254  20.752   1.213
70105W        W37173  31.906  27.541  12.078
70106W        W37174  21.637  16.192   1.829
70107W        W37175   1.434   8.851  13.044
70108W        W37176  40.011  11.774   2.746
70109W        W37177  20.077  34.512  13.989
70110W        W37178  37.441  12.633  11.892
70111W        W37179  33.571  23.120  11.401
70112W        W37180  21.746   6.364   3.175
70113W        W37181  13.326  25.602  11.502
70114W        W37182  36.374  29.515  12.343
70115W        W37183  42.877  29.445   4.809
70116W        W37184  20.555  35.556  11.372
70117W        W37185  15.234  28.951   0.941
70118W        W37186  18.146  16.181  10.491
70119W        W37187  35.429  36.524  11.043
70120W        W37188  26.952  28.973   3.153
70121W        W37189  10.668  22.651   3.279
70122W        W37190  19.708  33.476  13.425
70123W        W37191  32.536  33.963  11.039
70124W        W37192   5.280  43.312  12.868
70125W        W37193  23.016   9.838   1.335
70126W        W37194   4.907  11.711  14.295
70127W        W37195  17.067   8.794  14.509
70128W        W37196  11.632  19.039  14.374
70129W        W37197  31.472  23.518  10.407
70130W        W37198  24.668  23.069   2.264
70131W        W37199   2.786  13.289  10.913
70132W        W37200  35.574  31.939   4.731
70133W        W37201  22.742  11.844   5.110
70134W        W37202  13.617  16.285   3.707
70135W        W37203  14.647  30.575  14.941
70136W        W37204  11.321  40.460   3.838
70137W        W37205  20.124  13.170   1.336
70138W        W37206  32.435  23.708   5.139
70139W        W37207  15.737  44.826   2.212
70140W        W37208  16.801  32.970   2.839
70141W        W37209  20.657  16.075   3.338
70142W        W37210   5.889  11.200  10.414
70143W        W37211  42.910  25.629   0.873
70144W        W37212  20.032  12.341  12.573
70145W        W37213  43.012  44.451  11.568
70146W        W37214   1.447  12.712  13.021
70147W        W37215  21.587  12.273   0.964
70148W        W37216  26.993  24.099  14.376
70149W        W37217  11.366  28.162   1.697
70150W        W37218  39.957  21.698   2.184
70151W        W37219  21.161   2.470   4.172
70152W        W37220  20.176   7.244   3.322
70153W        W37221  27.173  26.572  14.319
70154W        W37222  24.597  28.076   1.390
70155W        W37223   1.858  31.074   4.282
70156W        W37224  38.562  25.620  14.319
70157W        W37225   6.354  32.616   3.635
70158W        W37226  14.152  43.317  11.960
70159W        W37227  31.462   8.720   0.341
70160W        W37228  25.138  33.584  13.995
70161W        W37229  27.964  40.912   2.743
70162W        W37230  10.198  26.471  12.451
70163W        W37231  36.913   9.343  13.422
70164W        W37232  43.440  21.060   0.340
70165W        W37233  15.196  38.340   1.225
70166W        W37234  17.794   0.796  11.002
70167W        W37235  11.734  11.786  13.820
70168W        W37236   6.730  25.979   3.835
70169W        W37237  37.024  33.927   3.864
70170W        W37238   5.347   3.952  12.541
70171W        W37239  28.638  21.162  12.443
70172W        W37240  13.806   2.814  13.437
70173W        W37241  29.930   7.836  11.373
70174W        W37242  15.723   0.882  11.498
70175W        W37243  30.081  41.972  13.931
70176W        W37244   8.700  32.076   2.284
70177W        W37245   8.378  22.601   0.813
70178W        W37246  21.102  16.626   9.994
70179W        W37247   4.778  10.647  10.916
70180W        W37248   9.325  23.202   1.794
70181W        W37249  44.265  14.275   2.734
70182W        W37250  20.589  16.674   1.314
70183W        W37251  41.897  21.163   4.653
70184W        W37252  11.751  29.073  14.953
70185W        W37253  10.874  31.055  12.397
70186W        W37254  36.481  32.939  12.358
70187W        W37255  19.196  17.707  12.002
70188W        W37256  42.982   3.365  14.385
70189W        W37257  12.716  26.523  12.999
70190W        W37258  32.895   6.326   2.747
70191W        W37259   0.402  41.462   0.853
70192W        W37260  15.221  40.318  13.987
70193W        W37261   2.363  13.795  12.345
70194W        W37262  11.189  38.489   1.728
70195W        W37263   4.704   7.737  13.869
70196W        W37264   4.368  23.712   2.217
70197W        W37265  27.152   5.409   0.277
70198W        W37266  29.626  14.260  11.108
70199W        W37267  12.251  38.993  12.989
70200W        W37268  13.128  12.694   2.808
70201W        W37269  32.952  27.085  10.459
70202W        W37270  15.199  26.049   4.219
70203W        W37271  16.620  20.703  13.358
70204W        W37272  34.880  17.555  11.465
70205W        W37273   0.456  18.626   2.865
70206W        W37274  32.933  20.542   4.811
70207W        W37275  20.567  41.373   2.290
70208W        W37276  23.000  14.605  12.956
70209W        W37277  15.134  23.233  13.797
70210W        W37278  16.252  23.141   3.273
70211W        W37279  19.672  28.147   2.299
70212W        W37280   1.936   3.809  13.503
70213W        W37281   1.451   3.444   3.696
70214W        W37282  37.397  37.846  12.870
70215W        W37283  24.982  14.662  11.570
70216W        W37284  16.235   7.715  12.409
70217W        W37285  21.559  44.369   2.218
70218W        W37286  12.664   2.936  13.360
70219W        W37287   4.736  33.481  12.986
70220W        W37288  16.715  37.021  11.982
70221W        W37289  17.305   5.419   3.696
70222W        W37290   6.789  32.469   2.705
70223W        W37291  19.720  35.560   4.730
70224W        W37292  42.290  13.820  13.352
70225W        W37293  32.498  35.402  14.304
70226W        W37294  42.848  33.516  10.611
70227W        W37295  30.062   8.660  13.050
70228W        W37296  26.154  30.521  14.957
70229W        W37297  27.992  35.867  11.980
70230W        W37298  11.261  22.071   0.350
70231W        W37299   5.704  39.938   4.282
70232W        W37300   8.706  26.505   5.205
70233W        W37301  22.677   5.818  14.761
70234W        W37302  39.931  40.548   4.642
70235W        W37303   8.715  31.042   4.838
70236W        W37304  35.000  21.258  13.437
70237W        W37305   1.734   3.259   2.827
70238W        W37306  31.079  18.558  10.644
70239W        W37307   5.739  18.608  12.081
70240W        W37308  42.458  10.352   4.638
70241W        W37309   1.441  11.330  12.466
70242W        W37310  35.559  33.530   0.265
70243W        W37311  28.089  38.471   1.268
70244W        W37312   0.361  32.022   3.279
70245W        W37313  36.843  31.970   3.375
70246W        W37314  13.775  36.512  11.423
70247W        W37315   4.222  15.287   4.704
70248W        W37316   0.948   4.781   1.267
70249W        W37317  13.665  40.855  14.922
70250W        W37318  35.862  10.856   0.887
70251W        W37319  33.039  16.620   0.318
70252W        W37320  12.293  12.638  14.897
70253W        W37321  24.574  21.734   0.320
70254W        W37322  30.570  23.102   3.222
70255W        W37323  22.146  38.401   4.703
70256W        W37324  18.733  39.917   3.369
70257W        W37325  13.199  19.759   2.250
70258W        W37326  34.551  15.810   2.382
70259W        W37327   9.366  35.981  12.440
70260W        W37328  35.958  21.024   3.866
70261W        W37329  15.149   8.711  12.485
70262W        W37330  20.739  35.568  12.880
70263W        W37331  16.596  41.467  13.498
70264W        W37332   3.922  30.125   1.233
70265W        W37333  23.073  24.557   4.228
70266W        W37334  43.916   1.814  13.022
70267W        W37335  13.776  28.023  11.859
70268W        W37336  15.151  30.443  14.832
70269W        W37337  38.945  31.515  14.028
70270W        W37338  29.978  31.026   1.762
70271W        W37339  12.161  22.190   4.833
70272W        W37340  24.144  20.172   1.723
70273W        W37341   4.393  21.158   3.281
70274W        W37342  34.410   8.809  10.636
70275W        W37343  33.618   4.934  12.984
70276W        W37344   7.197  10.229  13.805
70277W        W37345  44.762  19.664   5.161
70278W        W37346   1.765  40.500   0.945
70279W        W37347  36.987  30.425   0.341
70280W        W37348  37.962  28.103   1.929
70281W        W37349  13.704  41.823   0.340
70282W        W37350  13.245  31.132  12.349
70283W        W37351  10.667  24.224  12.543
70284W        W37352   3.332  10.707   1.436
70285W        W37353  44.985   5.837  14.909
70286W        W37354  14.101  34.964  12.442
70287W        W37355  41.528  28.600   4.205
70288W        W37356   4.818  38.424   2.367
70289W        W37357   9.811   2.859   4.129
70290W        W37358  11.846  42.939   0.411
70291W        W37359  41.469   2.765  12.960
70292W        W37360  24.170  31.086   0.370
70293W        W37361  13.170  16.252  14.306
70294W        W37362  15.120   3.238  13.532
70295W        W37363  30.499  17.236   0.333
70296W        W37364  44.904  34.898   3.792
70297W        W37365  12.665  11.799   1.217
70298W        W37366  40.958  43.797  13.994
70299W        W37367   8.188  24.547   3.777
70300W        W37368  30.652  38.865  10.481
70301W        W37369   5.195  13.350   3.711
70302W        W37370  28.497   2.424  12.961
70303W        W37371  17.090  30.471  13.944
70304W        W37372  40.831   1.736   3.155
70305W        W37373   6.363  23.565   4.143
70306W        W37374  19.135  28.586  14.351
70307W        W37375   7.288  43.412  14.944
70308W        W37376  26.185  12.163   4.353
70309W        W37377  23.685  31.609   4.333
70310W        W37378  33.086  21.132   1.246
70311W        W37379  34.981  30.557   4.638
70312W        W37380  13.242  24.487  13.847
70313W        W37381  44.947  43.934   1.842
70314W        W37382   4.804  38.901   1.841
70315W        W37383  44.314  27.996  11.440
70316W        W37384  44.951  44.321   0.750
70317W        W37385   4.711  37.498   3.755
70318W        W37386  27.628  28.634  14.806
70319W        W37387  35.509   5.713  11.004
70320W        W37388   1.278  30.516   2.191
70321W        W37389  21.206  40.004   4.294
70322W        W37390  29.051   0.794   4.134
70323W        W37391  13.225  23.616   3.251
70324W        W37392  20.267  42.313  14.781
70325W        W37393  42.404  11.243   1.319
70326W        W37394  11.698  13.165  10.154
70327W        W37395   5.803  42.776  13.952
70328W        W37396  10.167   1.435  14.840
70329W        W37397   6.359  17.678   4.811
70330W        W37398  11.219  17.784  10.925
70331W        W37399  12.299  26.028   1.235
70332W        W37400  18.563   7.697  13.798
70333W        W37401  26.598   1.900   0.363
70334W        W37402  20.222  23.494   1.261
70335W        W37403  34.053  25.595  13.930
70336W        W37404  18.775   3.248  10.588
70337W        W37405  33.491  41.800   1.297
70338W        W37406  30.907  14.706  11.919
70339W        W37407  33.875  17.118   1.436
70340W        W37408  15.616  16.636  12.939
70341W        W37409   1.286  42.826   4.225
70342W        W37410  38.492  23.151   3.777
70343W        W37411  14.806  25.687  12.514
70344W        W37412  41.043  34.416   1.260
70345W        W37413  37.976  27.157  13.538
70346W        W37414  40.314   0.413  10.538
70347W        W37415  18.060   3.389   1.917
70348W        W37416  22.195   3.816   3.836
70349W        W37417  24.026   8.196   2.347
70350W        W37418   4.780  11.188  14.294
70351W        W37419  11.805  18.591   3.835
70352W        W37420   2.832  29.957  14.305
70353W        W37421  16.235  14.707  13.307
70354W        W37422  37.509  26.994  13.911
70355W        W37423   8.343  14.336   4.284
70356W        W37424   1.319  38.363   1.371
70357W        W37425  12.331  36.059   1.847
70358W        W37426  14.615  30.450   4.772
70359W        W37427  13.843   3.458   1.757
70360W        W37428  15.595  25.063  13.436
70361W        W37429  38.859  44.754  12.564
70362W        W37430  16.726  33.030  13.792
70363W        W37431  40.805   5.816   4.819
70364W        W37432  38.564  24.060  14.931
70365W        W37433  25.689  39.371   0.932
70366W        W37434  36.936  40.424   1.695
70367W        W37435   4.753  10.856  11.518
70368W        W37436   6.698  29.943  10.522
70369W        W37437  26.512  40.922  14.284
70370W        W37438  40.412   2.727   3.797
70371W        W37439  33.382   8.352   3.785
70372W        W37440  17.630  22.106   4.764
70373W        W37441  31.089  33.395   9.995
70374W        W37442  15.139  26.532  14.770
70375W        W37443  23.564  42.976  12.860
70376W        W37444  24.979   4.445   3.177
70377W        W37445  44.469  41.043  13.857
70378W        W37446  21.075  37.542  13.401
70379W        W37447  25.210  43.797   3.252
70380W        W37448  27.567  18.551   2.343
70381W        W37449  19.724  44.497   2.882
70382W        W37450  44.942  44.781   4.774
70383W        W37451  18.755  33.507   3.237
70384W        W37452  19.094  44.976   0.361
70385W        W37453  37.901  38.977  14.922
70386W        W37454  12.347  20.251  14.908
70387W        W37455  16.740  34.914   2.239
70388W        W37456  37.341   4.809   0.467
70389W        W37457  23.231  29.467  14.027
70390W        W37458  40.970  11.666   1.859
70391W        W37459   0.816  29.569  14.497
70392W        W37460  11.163   2.303  10.920
70393W        W37461   1.237  10.311   1.282
70394W        W37462  25.042  32.993  13.806
70395W        W37463  25.643  16.264   1.365
70396W        W37464  27.137  26.149   4.719
70397W        W37465  44.458  14.682   1.266
70398W        W37466  31.530  21.548   3.632
70399W        W37467   8.783  11.817   1.703
70400W        W37468  43.883  33.043  11.597
70401W        W37469  20.054  40.495  11.421
70402W        W37470  19.741  21.050   4.599
70403W        W37471  17.701  38.465   3.641
70404W        W37472  22.589  38.876   2.364
70405W        W37473  13.688   1.927   0.862
70406W        W37474  37.400  18.211   1.767
70407W        W37475   0.310  30.154   3.817
70408W        W37476  18.141  44.445  11.078
70409W        W37477  11.363  14.230   2.249
70410W        W37478  24.595  38.959  14.479
70411W        W37479  28.947  42.513  11.003
70412W        W37480  39.355   7.364   1.306
70413W        W37481  26.531  18.147   0.805
70414W        W37482  19.766  43.933   3.202
70415W        W37483   2.721  23.650  13.319
70416W        W37484  42.874  40.411   0.869
70417W        W37485  17.628   1.762  10.429
70418W        W37486  18.735  34.027  14.456
70419W        W37487  38.525  17.124  10.589
70420W        W37488  40.998   0.929   2.839
70421W        W37489  34.093   9.686   0.930
70422W        W37490  38.997  29.654  11.414
70423W        W37491  31.479  13.208  13.850
70424W        W37492  31.102   3.256  10.568
70425W        W37493  16.203   7.282   1.434
70426W        W37494  35.547  31.106  14.763
70427W        W37495  39.895   9.233  12.998
70428W        W37496  29.436   0.776  12.862
70429W        W37497  40.887  39.475  10.444
70430W        W37498  38.048  25.107   5.168
70431W        W37499  29.984  39.010  13.839
70432W        W37500  24.981  18.114   0.795
70433W        W37501  32.542  19.770   0.790
70434W        W37502  41.919  42.313   0.314
70435W        W37503  39.365  13.661  12.958
70436W        W37504  35.872   1.756   1.795
70437W        W37505  30.024  34.438  14.471
70438W        W37506  10.648  17.788   0.933
70439W        W37507   1.876   8.660  12.880
70440W        W37508  37.832  28.133  14.769
70441W        W37509  31.970  32.982   0.319
70442W        W37510  36.026  36.547   2.746
70443W        W37511  16.244  34.464   1.931
70444W        W37512  41.526  30.640   2.833
70445W        W37513   5.298   6.793   0.472
70446W        W37514  10.292  29.669   4.316
70447W        W37515   7.339  34.606   0.827
70448W        W37516  14.750  26.514   9.934
70449W        W37517  15.605  26.974   0.822
70450W        W37518  43.956  35.531  14.363
70451W        W37519  11.777   9.682  10.978
70452W        W37520  40.488  12.648   3.682
70453W        W37521   1.237  37.027  14.278
70454W        W37522   2.752  41.317  11.918
70455W        W37523  35.437  27.067   3.322
70456W        W37524  42.857   1.739  14.455
70457W        W37525  18.731  35.487  10.417
70458W        W37526  16.597  25.010  12.476
70459W        W37527  11.671  17.122  13.912
70460W        W37528  22.233  39.443  14.349
70461W        W37529   3.355  13.135   3.724
70462W        W37530  26.561  15.279  12.062
70463W        W37531   2.809  35.417  11.510
70464W        W37532  36.933  41.371   1.805
70465W        W37533  39.354  28.986   2.320
70466W        W37534  20.647  11.856  13.938
70467W        W37535  37.450  10.643  10.572
70468W        W37536  10.148  30.414   1.300
70469W        W37537  25.496  16.105  11.598
70470W        W37538  34.047  43.931  10.920
70471W        W37539  40.541  34.898   3.698
70472W        W37540  39.999   4.840   1.411
70473W        W37541   3.760  35.100   3.717
70474W        W37542   3.324  10.306   1.210
70475W        W37543  38.015  15.773  10.633
70476W        W37544  40.528   6.390   3.832
70477W        W37545  23.008  41.899  10.621
70478W        W37546  34.067   5.725   4.289
70479W        W37547  20.620  18.666   2.402
70480W        W37548  18.201  42.019   4.220
70481W        W37549  34.605  14.737  13.989
70482W        W37550  27.106  41.031  12.340
70483W        W37551  26.966  37.446   2.392
70484W        W37552  30.648  31.111  11.076
70485W        W37553  15.692   8.761  13.514
70486W        W37554  34.110  31.526  10.559
70487W        W37555  32.562   2.269   4.141
70488W        W37556  23.218   6.359   1.797
70489W        W37557  15.724  41.521  14.766
70490W        W37558  17.794  32.614  10.499
70491W        W37559  37.929  12.278   2.286
70492W        W37560   9.769   6.345  10.951
70493W        W37561   2.840   8.227   0.469
70494W        W37562  14.163  11.735  12.398
70495W        W37563  20.635  35.405   0.886
70496W        W37564  11.661  29.461   1.827
70497W        W37565  20.256  16.305  12.579
70498W        W37566  14.236  44.366   1.416
70499W        W37567  14.206  40.941   1.353
70500W        W37568  25.030  35.038   4.186
70501W        W37569  26.639  30.069   3.703
70502W        W37570  22.587   3.238   1.233
70503W        W37571  34.963  43.416  12.066
70504W        W37572  33.937   6.328  11.092
70505W        W37573  21.116  11.257  13.840
70506W        W37574   8.712  20.252  13.435
70507W        W37575  34.043  11.837  12.001
70508W        W37576  21.577  18.264   0.741
70509W        W37577  36.414   8.268  14.318
70510W        W37578  40.878  29.087  13.535
70511W        W37579  22.202  27.998  13.848
70512W        W37580  29.669  21.069   4.623
70513W        W37581  14.331  16.671  12.399
70514W        W37582  16.712  36.463  14.025
70515W        W37583  31.635  20.589  14.498
70516W        W37584   7.400  35.438  13.804
70517W        W37585  36.590  42.841   3.348
70518W        W37586  26.695  42.992  12.348
70519W        W37587  23.208  14.776   3.326
70520W        W37588  30.439  18.165  12.935
70521W        W37589  10.642  27.175  11.909
70522W        W37590  32.983  39.001  10.948
70523W        W37591  22.205  34.991  14.439
70524W        W37592  20.667  31.019  12.543
70525W        W37593  21.133  21.091  10.043
70526W        W37594  30.449  29.458   4.181
70527W        W37595  19.765   1.903  11.486
70528W        W37596  34.108  38.999   3.163
70529W        W37597  39.340   1.285  13.530
70530W        W37598  17.646  12.282  10.931
70531W        W37599  15.261  29.585  12.401
70532W        W37600  27.632  18.076   2.743
70533W        W37601  36.000  12.169  12.419
70534W        W37602  42.306  43.917   4.670
70535W        W37603  42.973  33.383   2.889
70536W        W37604   6.917  19.738   3.211
70537W        W37605   0.283   2.276   4.214
70538W        W37606  10.166  34.601  10.575
70539W        W37607  13.644  29.514   2.871
70540W        W37608  28.486  10.327   4.806
70541W        W37609   1.788  44.323  10.496
70542W        W37610   2.771  36.957  12.444
70543W        W37611  38.974  24.518   2.401
70544W        W37612  34.983  23.573   2.730
70545W        W37613  28.449   7.888   2.216
70546W        W37614  22.150  35.413  11.401
70547W        W37615  33.566  31.978  13.034
70548W        W37616   1.767   8.704   0.286
70549W        W37617   7.777  34.978   1.748
70550W        W37618  34.993  43.797   0.937
70551W        W37619  17.782   7.809  12.092
70552W        W37620  15.144  34.422  11.116
70553W        W37621   3.797  21.036  10.464
70554W        W37622  22.167  41.867  12.824
70555W        W37623   9.753  43.876  13.841
70556W        W37624  42.353  24.616   2.849
70557W        W37625   5.398  14.829   1.876
70558W        W37626  35.929  15.632  11.500
70559W        W37627  28.182  31.464   0.813
70560W        W37628  36.469  37.003  11.395
70561W        W37629  14.694  28.140  10.964
70562W        W37630  25.598  43.374   4.179
70563W        W37631  42.498  34.910  11.392
70564W        W37632   1.351  33.425   3.725
70565W        W37633  40.892  28.529  11.883
70566W        W37634   3.239  15.748   0.470
70567W        W37635  31.147  28.530   3.159
70568W        W37636   6.714  27.537   3.844
70569W        W37637  24.708  41.006  10.569
70570W        W37638  32.575  31.931  13.911
70571W        W37639  10.796   8.189   0.733
70572W        W37640  18.272  42.488   2.871
70573W        W37641  40.992  27.056  14.394
70574W        W37642  34.874   9.374  13.015
70575W        W37643  34.513  23.611   2.718
70576W        W37644  16.682  13.793  14.935
70577W        W37645  23.159  11.188  10.643
70578W        W37646  18.660  12.316   1.926
70579W        W37647  18.175  15.607   4.324
70580W        W37648  28.520  39.491  10.561
70581W        W37649  11.686  14.175   4.179
70582W        W37650  30.947  29.964  12.080
70583W        W37651  14.610   7.677  11.410
70584W        W37652  11.692   8.817  13.526
70585W        W37653   6.770  35.863   1.349
70586W        W37654  15.605   3.894  13.824
70587W        W37655   1.451  32.905   3.356
70588W        W37656   6.199  30.613  14.778
70589W        W37657   8.164  37.373   3.225
70590W        W37658  25.155   9.241  13.343
70591W        W37659  12.246   0.900  12.463
70592W        W37660  17.285   7.810   1.851
70593W        W37661  38.875  32.598   0.375
70594W        W37662   5.839  13.251  10.586
70595W        W37663  35.474  36.090  13.998
70596W        W37664  34.396  27.157   3.730
70597W        W37665   0.348  34.545   3.199
70598W        W37666  19.747  36.868  10.521
70599W        W37667  40.007  40.003   4.680
70600W        W37668  18.583  44.879   1.354
70601W        W37669  24.713  42.852   2.795
70602W        W37670  27.478  35.457   4.335
70603W        W37671   2.907  44.477  13.871
70604W        W37672  20.532  38.327   9.979
70605W        W37673  22.689  10.289  11.471
70606W        W37674  20.653  19.657   1.291
70607W        W37675   7.233   4.258  11.539
70608W        W37676  36.987  25.164   0.441
70609W        W37677  41.393  36.889  13.375
70610W        W37678  36.848  13.164   4.747
70611W        W37679   5.798  15.211  10.888
70612W        W37680   3.729  28.998   2.226
70613W        W37681  41.419  16.236  11.948
70614W        W37682  44.754  31.484  11.067
70615W        W37683  15.126   7.242  14.295
70616W        W37684  32.941  40.386  11.559
70617W        W37685   9.297   3.343  10.945
70618W        W37686  41.878  38.367  12.998
70619W        W37687  44.981  32.985   0.356
70620W        W37688  35.073  39.418  14.461
70621W        W37689   9.659  33.940   1.828
70622W        W37690  44.459   9.338  11.102
70623W        W37691  38.368  39.907   1.254
70624W        W37692   3.812  42.286  11.955
70625W        W37693   4.332  34.892   1.786
70626W        W37694   8.225  29.446   1.399
70627W        W37695  18.110  41.894  13.451
70628W        W37696  27.958  23.196  13.839
70629W        W37697   3.457  22.514   4.811
70630W        W37698  27.688  23.516  11.861
70631W        W37699  19.147  22.526  14.486
70632W        W37700  19.060   3.407   4.297
70633W        W37701  35.447  34.472  10.556
70634W        W37702  41.963   7.774   4.765
70635W        W37703  20.040  33.131   2.257
70636W        W37704  33.455  28.993  13.801
70637W        W37705  20.538  23.127   2.315
70638W        W37706  12.212  44.339  13.847
70639W        W37707  21.078  16.679   2.398
70640W        W37708   7.281  19.708  11.905
70641W        W37709  27.196  17.737  11.044
70642W        W37710  42.967  32.946   1.353
70643W        W37711  20.744  34.593  12.933
70644W        W37712  43.794  10.737  11.006
70645W        W37713   7.873  41.961   4.290
70646W        W37714  13.242  19.174  13.925
70647W        W37715  10.373   8.782   5.211
70648W        W37716   0.342   9.699   1.874
70649W        W37717  30.961  16.641  11.934
70650W        W37718   5.290   3.379  14.504
70651W        W37719   3.778  14.786  13.511
70652W        W37720  33.088   0.351  11.948
70653W        W37721  17.162  28.619   1.705
70654W        W37722   8.782  19.563   2.268
70655W        W37723  34.006   1.885   1.218
70656W        W37724   0.910  13.661  11.926
70657W        W37725  35.593   2.856   0.917
70658W        W37726   2.265  12.297  11.891
70659W        W37727   0.986  31.945  12.941
70660W        W37728   1.253  38.568   3.709
70661W        W37729   6.808  34.032   3.244
70662W        W37730   0.467  39.460   1.273
70663W        W37731  27.634  27.462  10.481
70664W        W37732   7.305  43.354  13.458
70665W        W37733  34.968   4.398   4.606
70666W        W37734  44.268  18.057  11.604
70667W        W37735   3.877   3.307   1.290
70668W        W37736  28.028  21.719   0.765
70669W        W37737  29.065   9.276  10.523
70670W        W37738  36.442   7.697   3.676
70671W        W37739   3.871  37.063   2.903
70672W        W37740  25.162  23.131   1.320
70673W        W37741  43.974  34.424   0.726
70674W        W37742   9.376  40.527   2.701
70675W        W37743   8.849  19.126  14.867
70676W        W37744  42.001  22.535  11.890
70677W        W37745  16.580  15.586  13.311
70678W        W37746  32.585  40.487  11.602
70679W        W37747  35.925   8.748  12.873
70680W        W37748  27.043  24.004   3.676
70681W        W37749  29.117   2.381   0.252
70682W        W37750  14.281   7.296   4.729
70683W        W37751  20.628  14.289  13.376
70684W        W37752  41.803   1.808   5.257
70685W        W37753  16.677   0.321  13.055
70686W        W37754   9.366  34.579  12.466
70687W        W37755  37.526  14.168   3.863
70688W        W37756  22.566  19.144   2.723
70689W        W37757  23.162  13.780  11.967
70690W        W37758  34.450   0.415  12.847
70691W        W37759  22.196  25.648  10.550
70692W        W37760   0.820  18.713  10.448
70693W        W37761   0.957   4.723   2.742
70694W        W37762   0.259  34.461  13.353
70695W        W37763   0.383  39.441  11.487
70696W        W37764  24.573   6.763  13.864
70697W        W37765  41.435   0.895  12.931
70698W        W37766  37.579  23.504   2.799
70699W        W37767  19.705   2.396  14.004
70700W        W37768  16.317  37.834   1.299
70701W        W37769   9.833   7.823   1.224
70702W        W37770  36.450  15.614  14.858
70703W        W37771  43.793   6.210  12.517
70704W        W37772  16.093  32.929  12.562
70705W        W37773  11.326  17.146   0.810
70706W        W37774  28.616   3.904   2.262
70707W        W37775  41.975   0.271   4.808
70708W        W37776  10.382  16.777  10.005
70709W        W37777  40.492  41.893   3.759
70710W        W37778  12.819  10.875   1.873
70711W        W37779  33.053  27.063  14.378
70712W        W37780  23.087  29.068   2.305
70713W        W37781  10.810  20.145   1.767
70714W        W37782  30.988   8.196  10.490
70715W        W37783  17.600  35.956   2.218
70716W        W37784  13.207  14.693  14.302
70717W        W37785  40.806  25.638   3.647
70718W        W37786  10.180  10.692   4.253
70719W        W37787  23.192  42.905  14.811
70720W        W37788   6.240  21.041  14.354
70721W        W37789  13.799  37.442  14.923
70722W        W37790  40.490  36.075   1.874
70723W        W37791  15.818  34.529  14.280
70724W        W37792  24.501   6.198   2.706
70725W        W37793   0.951   7.694  14.898
70726W        W37794  24.169  40.855   1.400
70727W        W37795  39.931  33.621   0.293
70728W        W37796  15.634  32.897  12.454
70729W        W37797  14.111   7.877   2.286
70730W        W37798  28.678  26.032   0.789
70731W        W37799  28.478  26.191  14.281
70732W        W37800  15.812  40.981  12.480
70733W        W37801   0.818  31.920   3.735
70734W        W37802  18.242  19.223  11.406
70735W        W37803   0.786   4.427  14.960
70736W        W37804  30.023  29.094  11.523
70737W        W37805  28.966  35.087  10.482
70738W        W37806  20.166  18.789   4.813
70739W        W37807  27.663   3.914  13.313
70740W        W37808   7.379  39.033  13.823
70741W        W37809   4.728  14.816  12.568
70742W        W37810   4.322  16.678  14.398
70743W        W37811  40.933  31.607   3.155
70744W        W37812  15.588  22.054   2.703
70745W        W37813  15.250  17.258  11.476
70746W        W37814  11.210   9.179  14.288
70747W        W37815  23.722  42.430  13.371
70748W        W37816  17.585  24.623   3.241
70749W        W37817  39.336  24.555   3.273
70750W        W37818  40.040   1.904   0.455
70751W        W37819  44.995  34.075  12.515
70752W        W37820  10.184  16.107   3.730
70753W        W37821  41.420  41.872  13.329
70754W        W37822  28.475   7.266   0.266
70755W        W37823  15.262   7.286   1.729
70756W        W37824  21.221   9.186  12.565
70757W        W37825   5.832   9.782  11.898
70758W        W37826   3.325   9.187   1.334
70759W        W37827  40.351   4.436   1.827
70760W        W37828  18.730   9.660   2.351
70761W        W37829  19.274  20.158  10.997
70762W        W37830   2.417   4.925  10.949
70763W        W37831  14.706   2.802  11.060
70764W        W37832   4.821   5.198   0.873
70765W        W37833  33.410  28.020  10.015
70766W        W37834  10.285  41.413   3.249
70767W        W37835  24.202  43.934  12.499
70768W        W37836   7.896  36.407  13.414
70769W        W37837  12.818  28.667  14.326
70770W        W37838   6.327  12.158  12.471
70771W        W37839  28.645  22.101  12.536
70772W        W37840  13.283  21.677  14.856
70773W        W37841   1.908   3.391  13.845
70774W        W37842  12.284  43.932   1.789
70775W        W37843  30.647  43.394   3.217
70776W        W37844  24.199  23.698  12.468
70777W        W37845   5.739  43.973  10.934
70778W        W37846  23.535  19.536  10.540
70779W        W37847  41.321  37.416  10.570
70780W        W37848  17.192  28.009  14.513
70781W        W37849  11.760  16.646   3.750
70782W        W37850  44.291  28.012  11.078
70783W        W37851  43.402  40.360   1.343
70784W        W37852  14.637  22.513   0.954
70785W        W37853   5.228  11.640   2.312
70786W        W37854  15.642  28.565   4.770
70787W        W37855   5.767  24.026  12.418
70788W        W37856  19.668  43.384   4.718
70789W        W37857  11.770   1.359  12.484
70790W        W37858  33.421  34.113  10.992
70791W        W37859   1.783   0.835   2.332
70792W        W37860  24.504  10.343  11.919
70793W        W37861  41.807   3.760   0.289
70794W        W37862  20.190  30.576   0.789
70795W        W37863  34.089  37.948   0.732
70796W        W37864  16.704  36.921   0.805
70797W        W37865  39.459  37.988   4.831
70798W        W37866  13.679  10.168  12.378
70799W        W37867  44.309  30.513   4.764
70800W        W37868  28.562  30.584   0.397
70801W        W37869  19.273  12.728   1.328
70802W        W37870  10.370  14.779   1.918
70803W        W37871  39.551  39.343  14.936
70804W        W37872  35.930  35.597   2.882
70805W        W37873  15.613  29.533   4.839
70806W        W37874  37.497  26.672  13.929
70807W        W37875  42.008  30.030   4.138
70808W        W37876  14.227  10.846  13.385
70809W        W37877   2.457  24.584   3.656
70810W        W37878   9.302  24.061   4.242
70811W        W37879  35.054   2.953   4.220
70812W        W37880   0.481  29.493   2.686
70813W        W37881  28.653  20.748  10.987
70814W        W37882  44.301  41.492  11.916
70815W        W37883   7.297   9.202  12.941
70816W        W37884  35.502   8.858   2.382
70817W        W37885  23.160  35.858   1.754
70818W        W37886   0.279  25.097  10.492
70819W        W37887  30.455   2.784  12.921
70820W        W37888  36.904  18.145  10.449
70821W        W37889  30.600  26.153  11.475
70822W        W37890  20.688  33.959  12.399
70823W        W37891  19.213  29.552   0.371
70824W        W37892  17.124   5.201   1.261
70825W        W37893   8.195   1.732   0.275
70826W        W37894  35.871  39.886   1.803
70827W        W37895   1.811  26.196  13.835
70828W        W37896  40.518  23.670  14.445
70829W        W37897   5.748   5.782  12.367
70830W        W37898   2.740  21.559  12.990
70831W        W37899  19.750  20.734  11.402
70832W        W37900  10.170  22.178   9.949
70833W        W37901  15.281  40.497  13.379
70834W        W37902  17.771  11.214   0.328
70835W        W37903  31.921   2.318   3.697
70836W        W37904   3.776  19.654  14.991
70837W        W37905  18.246   9.747  14.767
70838W        W37906  15.094   6.818  13.930
70839W        W37907  27.571  27.988   3.148
70840W        W37908  34.948   0.755   4.206
70841W        W37909  28.618   4.910   0.735
70842W        W37910  36.414  17.566   2.845
70843W        W37911   5.340  25.500   2.356
70844W        W37912  44.445  16.709   4.307
70845W        W37913  28.607  40.389   2.783
70846W        W37914  14.676  24.097   2.872
70847W        W37915  44.358   2.372   2.902
70848W        W37916  38.382   6.371   1.725
70849W        W37917  26.667  22.098   0.438
70850W        W37918  18.256  38.062   2.303
70851W        W37919  30.459  20.627   2.784
70852W        W37920  25.560  42.831   4.599
70853W        W37921  38.947  28.558   1.727
70854W        W37922  10.297  10.362  13.822
70855W        W37923   4.865  35.955   1.308
70856W        W37924   5.835  15.237   1.928
70857W        W37925  13.758   8.292  10.950
70858W        W37926   7.901   4.785  12.083
70859W        W37927  34.383   1.465   3.677
70860W        W37928   6.387  22.549  10.420
70861W        W37929  30.120   8.346  14.002
70862W        W37930  38.490   7.351   0.845
70863W        W37931  11.222  10.713  11.072
70864W        W37932  22.131  42.343  12.437
70865W        W37933  14.169  15.329  13.403
70866W        W37934  37.042  40.331   3.844
70867W        W37935   3.293  29.472  13.419
70868W        W37936   4.940  36.961   3.383
70869W        W37937  17.777   7.692   2.276
70870W        W37938  39.814  29.976   0.404
70871W        W37939   8.210   2.314  13.010
70872W        W37940  21.100  10.826  10.624
70873W        W37941  32.585   4.891  12.414
70874W        W37942  20.634  18.781   0.938
70875W        W37943  31.019   9.234   2.871
70876W        W37944  17.662  36.004  12.467
70877W        W37945  29.155  15.257   0.413
70878W        W37946   6.706  22.652   2.347
70879W        W37947  11.264  29.997  10.518
70880W        W37948  19.755  14.671   5.255
70881W        W37949  36.497  17.617   4.337
70882W        W37950  17.084   6.751  14.851
70883W        W37951   3.830   3.379  14.945
70884W        W37952   8.333  32.621  12.497
70885W        W37953  30.990  12.333   2.849
70886W        W37954  43.906  22.023   2.200
70887W        W37955  29.949  13.327  10.470
70888W        W37956  16.224  30.143  13.011
70889W        W37957  31.463   6.267   4.654
70890W        W37958  16.300  39.550  11.501
70891W        W37959  20.151  31.981  14.364
70892W        W37960  23.598  35.045   4.237
70893W        W37961   6.818  35.418   2.380
70894W        W37962  16.737   2.837  12.504
70895W        W37963  27.518  42.816  12.876
70896W        W37964  44.378  14.297   1.859
70897W        W37965  19.653   5.729  12.482
70898W        W37966  38.032  44.953  14.400
70899W        W37967  41.828  23.599  10.057
70900W        W37968  44.928   6.860  13.902
70901W        W37969  11.160   1.329   4.742
70902W        W37970  18.056  42.523  14.870
70903W        W37971  23.160  23.697   0.868
70904W        W37972  11.129  44.766   2.196
70905W        W37973   7.322  18.725   0.872
70906W        W37974  24.023  44.891   4.628
70907W        W37975   2.767  29.146   1.415
70908W        W37976  33.017  42.389  14.330
70909W        W37977   4.875  30.517  11.583
70910W        W37978  28.041  26.141  14.029
70911W        W37979   3.842  27.011  11.526
70912W        W37980   5.691  35.058   0.802
70913W        W37981  11.700  43.810  12.955
70914W        W37982  34.501  17.269   1.785
70915W        W37983  21.262  25.082   0.810
70916W        W37984  11.718  29.616  12.892
70917W        W37985  42.909   3.461  11.069
70918W        W37986  35.006  23.735  12.574
70919W        W37987  39.943  32.621   1.753
70920W        W37988  40.882  18.765  14.400
70921W        W37989   4.814  40.898   3.254
70922W        W37990  11.837  34.594  11.982
70923W        W37991  21.726  29.036   4.176
70924W        W37992  35.496   4.718   3.658
70925W        W37993   4.892  11.244   0.458
70926W        W37994  42.381   0.906   1.225
70927W        W37995  22.128   3.804  10.562
70928W        W37996   9.810  19.721  14.799
70929W        W37997  15.821  27.028  10.984
70930W        W37998   2.283   8.676   0.311
70931W        W37999  35.010   1.374  10.610
70932W        W38000   2.472  17.680  12.521
70933W        W38001  11.155   5.902  13.359
70934W        W38002  42.953   4.737  12.946
70935W        W38003  17.773  29.666   3.288
70936W        W38004  34.899   2.950  11.553
70937W        W38005  21.249  29.440   1.707
70938W        W38006  42.826  28.660  12.087
70939W        W38007  25.127  32.455  10.920
70940W        W38008  17.618  28.505  11.469
70941W        W38009   0.349  29.570  12.531
70942W        W38010  23.641  38.976  11.039
70943W        W38011  27.542   5.350  11.590
70944W        W38012  33.571  33.525  11.468
70945W        W38013   0.898  36.373  13.409
70946W        W38014  31.535  21.695  11.374
70947W        W38015  10.781  14.668   3.756
70948W        W38016  36.424  11.230  13.967
70949W        W38017  42.974   1.814  13.900
70950W        W38018  35.977  21.173  13.540
70951W        W38019   5.231  31.632   0.760
70952W        W38020   2.857  24.203  12.349
70953W        W38021  33.950  19.098   3.668
70954W        W38022  36.092   2.360   4.321
70955W        W38023  28.122   5.900   3.740
70956W        W38024  15.788  27.960  14.938
70957W        W38025  29.645  23.064  13.022
70958W        W38026  20.586  37.395   4.777
70959W        W38027  41.295  17.727  13.061
70960W        W38028  37.494  11.326   9.926
70961W        W38029  10.851  31.927  11.013
70962W        W38030  12.818  25.106   3.643
70963W        W38031  37.955  20.044  14.491
70964W        W38032  35.529   7.886  10.513
70965W        W38033   4.916  16.127  11.594
70966W        W38034  17.118  23.505   0.875
70967W        W38035   9.750   4.351  13.061
70968W        W38036   1.916   6.722  11.027
70969W        W38037  12.718  12.115  14.487
70970W        W38038  21.716  39.523  13.346
70971W        W38039   9.853   4.313   2.297
70972W        W38040  43.891  21.659   2.725
70973W        W38041  38.469  29.106   4.707
70974W        W38042  38.363  11.808  14.276
70975W        W38043  33.997  41.377  13.995
70976W        W38044  16.189  19.552   9.504
70977W        W38045  26.594  42.900   0.370
70978W        W38046  25.986  19.213   4.122
70979W        W38047  22.177  27.069   2.285
70980W        W38048   6.256  35.976  11.589
70981W        W38049   6.370  18.600  13.816
70982W        W38050  35.090  37.494   2.188
70983W        W38051  19.644  27.671  14.312
70984W        W38052  35.088  44.295  13.850
70985W        W38053  17.756  33.077  13.336
70986W        W38054  27.962  19.766   3.700
70987W        W38055  21.522  11.318  13.464
70988W        W38056   3.890   7.818   0.341
70989W        W38057  18.632  39.016   9.994
70990W        W38058  16.665  39.825   4.767
70991W        W38059   1.733  13.165  13.308
70992W        W38060  14.201  25.495  12.528
70993W        W38061  11.205  24.097  14.401
70994W        W38062   1.860  44.838  12.372
70995W        W38063  42.353  37.971   3.796
70996W        W38064   8.278  21.024   2.222
70997W        W38065  29.015   1.371   0.320
70998W        W38066  31.081  16.172   4.682
70999W        W38067  21.558  30.923   1.862
71000W        W38068   5.797  18.258  11.545
71001W        W38069   3.278  15.108   2.289
71002W        W38070  20.110   7.891  13.793
71003W        W38071  11.631  11.250   0.458
71004W        W38072  28.677   6.831  12.464
71005W        W38073  38.450  23.990  11.413
71006W        W38074  35.947  12.792  13.840
71007W        W38075   7.215  26.132   3.674
71008W        W38076  29.539  20.763   2.706
71009W        W38077  10.740  31.586  13.428
71010W        W38078  11.211  10.737  13.349
71011W        W38079  16.759  37.502   4.764
71012W        W38080   0.908  32.463  10.588
71013W        W38081  15.221  25.507   4.647
71014W        W38082  22.061  10.721   3.637
71015W        W38083  12.685   3.936   2.323
71016W        W38084  23.688  38.062  11.866
71017W        W38085  27.035  29.140   2.708
71018W        W38086   1.269  41.345  12.545
71019W        W38087  35.101  24.110  12.352
71020W        W38088  32.573  28.444   0.883
71021W        W38089  41.486   7.852   4.214
71022W        W38090  11.254  13.776   1.349
71023W        W38091  29.003   5.866  11.381
71024W        W38092  39.351  20.584   2.367
71025W        W38093  31.583   5.305  10.614
71026W        W38094  44.358   9.226  12.842
71027W        W38095   0.486  40.378   2.703
71028W        W38096  28.561  43.433   1.733
71029W        W38097  13.266  18.082  10.136
71030W        W38098  12.782  13.285  13.944
71031W        W38099  24.599  20.040   4.719
71032W        W38100  16.619   0.957   1.293
71033W        W38101  22.155  22.642   1.403
71034W        W38102  31.563  12.831  13.490
71035W        W38103   5.229   5.290   1.709
71036W        W38104   7.911  29.586  10.595
71037W        W38105  39.394  29.132  14.915
71038W        W38106  14.102   6.683  14.880
71039W        W38107  21.698  11.734   4.236
71040W        W38108  10.226  20.035   1.728
71041W        W38109   0.464  24.149   1.317
71042W        W38110  15.138  27.071  10.546
71043W        W38111  31.965  16.079  14.917
71044W        W38112  27.005  18.209  14.794
71045W        W38113  40.893  15.193   3.213
71046W        W38114  29.534  10.818   0.927
71047W        W38115  43.993  25.099  14.936
71048W        W38116  44.477  24.013  11.925
71049W        W38117  35.549  32.888  10.643
71050W        W38118   3.247  32.061  14.958
71051W        W38119   0.294  15.084  12.828
71052W        W38120  34.027  31.453   0.873
71053W        W38121   2.742  30.048   2.419
71054W        W38122   8.404  25.588   2.383
71055W        W38123   3.449   8.762  10.517
71056W        W38124   1.304  18.135  11.041
71057W        W38125  34.084  25.176  13.397
71058W        W38126  39.880   9.244   4.835
71059W        W38127  17.182   4.909  13.541
71060W        W38128  21.258  23.102  10.565
71061W        W38129  23.228  27.466   4.812
71062W        W38130  14.220  18.773  10.524
71063W        W38131   3.924  42.516  12.868
71064W        W38132  38.533  28.959   0.343
71065W        W38133  33.503  20.100  10.434
71066W        W38134  28.544   2.795   1.824
71067W        W38135  27.122  14.773  11.384
71068W        W38136  40.925  44.333  12.966
71069W        W38137  13.673   4.741  10.907
71070W        W38138  20.253  41.316  14.459
71071W        W38139  19.249  14.698   0.870
71072W        W38140  14.240  19.229  10.142
71073W        W38141  33.092  13.201   3.165
71074W        W38142   9.170   4.258   3.322
71075W        W38143   8.901  13.788   3.265
71076W        W38144  17.103   1.352  13.407
71077W        W38145  32.491   2.814   2.692
71078W        W38146  10.138  37.054   0.939
71079W        W38147  27.108  11.749  10.145
71080W        W38148  41.873   2.262  12.002
71081W        W38149   0.469  29.966  14.907
71082W        W38150   1.845  21.518   0.745
71083W        W38151  23.728   3.298  14.378
71084W        W38152  35.094  26.581  13.335
71085W        W38153  19.089   2.947  13.953
71086W        W38154  21.041  28.680   3.772
71087W        W38155   2.940  33.121   0.466
71088W        W38156  15.279  44.372   0.845
71089W        W38157  11.826  27.593   3.299
71090W        W38158   8.835  22.524  14.516
71091W        W38159  28.140  20.043   4.118
71092W        W38160  18.756  22.093  12.039
71093W        W38161  36.571  30.920   1.306
71094W        W38162  35.982  41.832  11.415
71095W        W38163  28.636  12.283   3.279
71096W        W38164  17.174  43.344   2.832
71097W        W38165  19.560   0.903   0.942
71098W        W38166   2.862  21.746  13.955
71099W        W38167  31.008  24.720  13.530
71100W        W38168  38.979  12.741  13.473
71101W        W38169   8.806  34.006  13.993
71102W        W38170  16.781  43.903  12.875
71103W        W38171  16.230  26.175  10.508
71104W        W38172  31.624  40.503  13.418
71105W        W38173  14.628  41.016   4.707
71106W        W38174   9.758  14.159  11.523
71107W        W38175  25.679  21.245  13.016
71108W        W38176   8.899  25.474  13.458
71109W        W38177  25.074  31.920   4.173
71110W        W38178  20.536  29.998  11.064
71111W        W38179  23.150  17.235  12.546
71112W        W38180  43.388  43.825  13.437
71113W        W38181  44.911  30.969   3.299
71114W        W38182   1.962  34.528   2.705
71115W        W38183  42.977   0.812   2.705
71116W        W38184  37.893  40.025  14.902
71117W        W38185  13.189  26.196   0.952
71118W        W38186  26.104  11.776   2.410
71119W        W38187  22.620  38.004  12.404
71120W        W38188  43.844  39.340   0.360
71121W        W38189  25.610  19.533  14.958
71122W        W38190  35.988  39.363   2.361
71123W        W38191   0.489  37.860  13.882
71124W        W38192  39.858  41.457  14.022
71125W        W38193  22.232  24.662  11.888
71126W        W38194  26.688  32.039   4.835
71127W        W38195  11.235  26.665   4.130
71128W        W38196  12.844  20.591   3.782
71129W        W38197  41.880  37.843   2.214
71130W        W38198   4.281  26.458  11.873
71131W        W38199  36.368  25.999  12.374
71132W        W38200  31.011  35.053   5.231
71133W        W38201  21.656  14.676   1.363
71134W        W38202  20.086  13.186  13.382
71135W        W38203  17.594  14.794  12.479
71136W        W38204   9.723  40.972  11.946
71137W        W38205  14.163  24.221   0.411
71138W        W38206  11.766  16.281  14.843
71139W        W38207   0.339  25.659  13.388
71140W        W38208  28.622  41.963  13.847
71141W        W38209  30.652   3.374  11.091
71142W        W38210   4.736  14.756   4.657
71143W        W38211  16.300  11.762   3.684
71144W        W38212  36.443   5.693  13.804
71145W        W38213  25.039   5.382   1.441
71146W        W38214  15.309  32.958  12.003
71147W        W38215  23.668  34.938  13.540
71148W        W38216  30.652  10.748  14.418
71149W        W38217  36.501  20.141   1.424
71150W        W38218  18.062  17.063  12.412
71151W        W38219  33.591   6.382  10.536
71152W        W38220  39.838  12.237  14.904
71153W        W38221  11.724  30.150  13.492
71154W        W38222  33.988  14.811   1.731
71155W        W38223  26.700  35.374   2.225
71156W        W38224  19.754   3.783   3.638
71157W        W38225  15.717  14.637   3.219
71158W        W38226  40.016  41.962  11.075
71159W        W38227  20.184  29.106  13.819
71160W        W38228  28.123  43.821   4.244
71161W        W38229  44.472  37.428  13.791
71162W        W38230   6.850  29.061  13.007
71163W        W38231  36.409  29.939   4.118
71164W        W38232  16.240  21.581   1.293
71165W        W38233  28.087  35.491   2.845
71166W        W38234   8.891  34.504   3.335
71167W        W38235  22.025  34.024   2.393
71168W        W38236  25.623  43.446  11.523
71169W        W38237  13.117   7.779  14.423
71170W        W38238   0.960  39.970  10.476
71171W        W38239  25.622  13.132  12.373
71172W        W38240  38.373  35.410  14.498
71173W        W38241  43.514  15.729  11.609
71174W        W38242  36.949  43.931  13.845
71175W        W38243   2.248  36.014   4.617
71176W        W38244   0.882   5.871   3.366
71177W        W38245  13.218  37.476   0.326
71178W        W38246   4.345  41.328  10.440
71179W        W38247  33.566  43.842  11.524
71180W        W38248  36.435  13.351  11.025
71181W        W38249  11.274   7.795   2.808
71182W        W38250   2.838  24.180   1.753
71183W        W38251  42.876  11.372  13.818
71184W        W38252   3.297  30.937   2.401
71185W        W38253  38.867  26.585  13.937
71186W        W38254  32.432  18.072   2.325
71187W        W38255  19.278  21.690   4.208
71188W        W38256  10.255  25.547  11.956
71189W        W38257  24.106   3.243  13.443
71190W        W38258  42.288  27.642  10.455
71191W        W38259  35.080  31.944  11.443
71192W        W38260   5.891  25.671  14.484
71193W        W38261  44.297  24.115  14.944
71194W        W38262  23.569  24.214   2.862
71195W        W38263  22.094  12.712  11.987
71196W        W38264  18.271  22.686   2.256
71197W        W38265  16.299  24.612  11.050
71198W        W38266  19.659  30.129   5.271
71199W        W38267   3.282  35.878   2.879
71200W        W38268   9.162  12.332   4.181
71201W        W38269   7.212  39.470  14.990
71202W        W38270   0.908  42.300  13.028
71203W        W38271  31.133  26.591   3.705
71204W        W38272  38.877  34.585  11.431
71205W        W38273  41.981   9.713   3.221
71206W        W38274  43.416   7.393   3.207
71207W        W38275  44.994  10.273   1.287
71208W        W38276  43.902  42.446  11.107
71209W        W38277  14.297  32.468   3.677
71210W        W38278  20.722  15.631  11.062
71211W        W38279  13.738  35.591   4.604
71212W        W38280  14.159  43.279  11.507
71213W        W38281  43.929  26.076  13.482
71214W        W38282  12.712   0.383   2.365
71215W        W38283  16.626  29.552   0.762
71216W        W38284  37.546  24.537   4.736
71217W        W38285  41.959  12.251   2.869
71218W        W38286  16.706   6.874   2.191
71219W        W38287   5.928  21.591   2.358
71220W        W38288  14.253  29.647  11.066
71221W        W38289  21.036  35.013  11.928
71222W        W38290   6.421  38.347  10.001
71223W        W38291   3.227  19.218  10.547
71224W        W38292  34.421  17.756   0.729
71225W        W38293  18.662  39.407  13.836
71226W        W38294  37.077  24.539  10.540
71227W        W38295  20.659  33.898  10.617
71228W        W38296  11.355  11.791   0.374
71229W        W38297  38.993  10.879   2.324
71230W        W38298  11.848  17.764  12.551
71231W        W38299   3.335  19.753   1.427
71232W        W38300  43.422  21.550  12.396
71233W        W38301  17.184  16.766   0.835
71234W        W38302  39.472  23.012  11.995
71235W        W38303  15.167  11.300  10.137
71236W        W38304  19.747  18.726  10.968
71237W        W38305  23.606   1.410  10.464
71238W        W38306   9.270  18.643  10.951
71239W        W38307  22.711   8.754   0.937
71240W        W38308  36.436   7.679  14.352
71241W        W38309   8.176  13.303  12.861
71242W        W38310  38.047  41.404   5.314
71243W        W38311   7.850  30.969   0.309
71244W        W38312   3.443  25.103   3.247
71245W        W38313  26.556  20.727   9.944
71246W        W38314  21.117  27.468  10.048
71247W        W38315  13.652  11.671   1.238
71248W        W38316  19.152  30.104   0.420
71249W        W38317  35.454  32.139  12.966
71250W        W38318   7.250  38.469  10.579
71251W        W38319  34.381  13.144   2.758
71252W        W38320  23.067  35.504   4.753
71253W        W38321  42.497  32.081   2.852
71254W        W38322  23.065  37.372   1.328
71255W        W38323  15.652   4.723  14.426
71256W        W38324  17.658  34.984   4.838
71257W        W38325  14.719  38.005  11.532
71258W        W38326  34.582   9.310   0.809
71259W        W38327  11.212  40.420  11.042
71260W        W38328   4.853   3.849  14.776
71261W        W38329  14.127   6.914  14.404
71262W        W38330  42.420   4.212   0.776
71263W        W38331  40.317  17.304   2.859
71264W        W38332  12.646  16.708   2.894
71265W        W38333   3.300  35.493   9.964
71266W        W38334  27.977  33.386  14.501
71267W        W38335   1.430  29.061   3.380
71268W        W38336  18.137  14.812   2.291
71269W        W38337  36.586   4.922  14.787
71270W        W38338   5.277  17.164  10.482
71271W        W38339  40.026  33.096   0.298
71272W        W38340  26.071  37.982  14.493
71273W        W38341   1.418  28.582  12.565
71274W        W38342  34.955  17.104  13.816
71275W        W38343   6.883  14.635   3.860
71276W        W38344  41.503  36.885   4.192
71277W        W38345  20.542  41.847  10.490
71278W        W38346  26.649   5.723   0.365
71279W        W38347  27.988  13.343   1.932
71280W        W38348  16.259  31.554  10.485
71281W        W38349  34.475  12.802  13.042
71282W        W38350  27.941  19.280  11.979
71283W        W38351  40.526  43.316  14.988
71284W        W38352  41.292   7.854  14.473
71285W        W38353  11.246  12.319  14.799
71286W        W38354  41.890  14.205  12.494
71287W        W38355  41.302  23.095   3.686
71288W        W38356   4.359  43.308  13.897
71289W        W38357  18.652  10.232   0.893
71290W        W38358   0.827  37.064  12.017
71291W        W38359  24.201  38.854   0.246
71292W        W38360  32.559   0.926   2.296
71293W        W38361  32.482   5.430   0.410
71294W        W38362  24.693   3.239  12.857
71295W        W38363  33.405   5.329  13.446
71296W        W38364  15.327  34.866  14.304
71297W        W38365  10.685  27.690   4.223
71298W        W38366  44.982  27.943   4.792
71299W        W38367  17.786   3.855   1.866
71300W        W38368  15.715  18.649   5.278
71301W        W38369  33.427   5.796  11.463
71302W        W38370  33.451  20.052  11.996
71303W        W38371  34.025  23.053   2.316
71304W        W38372  24.109  26.125   4.799
71305W        W38373  17.262  40.877  14.505
71306W        W38374  44.434  18.058  14.334
71307W        W38375  10.154  31.084   5.275
71308W        W38376   6.357   3.272   3.355
71309W        W38377  24.189  44.419   4.676
71310W        W38378  22.646  30.064   0.401
71311W        W38379  36.486  35.514  14.493
71312W        W38380  31.932  10.217   5.247
71313W        W38381  29.518   3.878   0.331
71314W        W38382  16.187  10.373  11.458
71315W        W38383  14.773  21.512   0.327
71316W        W38384  10.309  31.527  14.029
71317W        W38385  13.203   7.399   2.242
71318W        W38386  36.352  27.047   0.300
71319W        W38387   4.773   2.287  14.380
71320W        W38388  21.075  17.092   5.176
71321W        W38389  34.020  14.218   4.791
71322W        W38390   1.476  35.867   0.329
71323W        W38391   4.700  29.974  14.344
71324W        W38392  23.542  23.226  10.926
71325W        W38393  31.921  21.018   9.930
71326W        W38394  30.981  25.166  14.318
71327W        W38395  41.994  33.440  14.009
71328W        W38396   8.767  23.086   4.154
71329W        W38397  27.533  25.995   4.634
71330W        W38398   6.277  14.735  14.941
71331W        W38399  33.506  18.114   3.855
71332W        W38400   0.783  15.326  14.838
71333W        W38401  20.650   0.837   0.356
71334W        W38402  38.350  25.191   4.783
71335W        W38403   9.288  39.993   2.225
71336W        W38404  27.126  28.560  11.536
71337W        W38405  23.672  27.591  13.439
71338W        W38406   1.307  19.061  13.040
71339W        W38407   2.386  11.758  11.580
71340W        W38408   6.192   6.705  13.834
71341W        W38409   2.372  33.453  13.475
71342W        W38410  43.861   8.670   2.321
71343W        W38411  38.473  27.663   1.291
71344W        W38412  20.539  14.144   3.221
71345W        W38413   2.431  32.581  10.575
71346W        W38414  26.079  37.552  12.388
71347W        W38415   1.838  38.543   1.361
71348W        W38416  12.704  31.111   2.215
71349W        W38417   1.738   5.833  12.390
71350W        W38418  44.345  35.902  14.962
71351W        W38419  43.015   9.759  14.421
71352W        W38420  32.402  33.626   3.228
71353W        W38421  15.212  33.527  12.978
71354W        W38422   1.885  13.711  10.425
71355W        W38423   7.800  18.230  13.868
71356W        W38424  24.609  28.040  11.098
71357W        W38425  33.411  26.682  14.801
71358W        W38426   0.859  40.444  12.859
71359W        W38427  28.594  19.164  13.857
71360W        W38428   3.830   6.403  14.420
71361W        W38429  20.148   8.321   4.802
71362W        W38430   5.764  26.124  11.544
71363W        W38431  25.592  25.672  10.644
71364W        W38432  18.087  11.130   1.716
71365W        W38433  19.762  29.935   0.814
71366W        W38434  37.395  34.880   0.480
71367W        W38435  27.616  40.818   4.113
71368W        W38436  37.368   4.933  10.913
71369W        W38437  12.208  26.055  14.931
71370W        W38438  38.966  43.502   4.761
71371W        W38439  26.501   6.712  14.493
71372W        W38440  32.509  37.468   0.829
71373W        W38441  34.498  34.600   1.897
71374W        W38442  42.916   6.361  13.022
71375W        W38443  23.509  37.548   3.224
71376W        W38444  28.181  44.371  12.873
71377W        W38445   4.897  27.158   4.148
71378W        W38446  39.852  34.043   1.228
71379W        W38447  19.256  24.216  12.447
71380W        W38448   8.279   5.711  12.406
71381W        W38449  36.973  31.069   1.907
71382W        W38450  13.764  34.004   4.721
71383W        W38451  22.627   4.779  14.813
71384W        W38452  28.508  43.874  14.464
71385W        W38453  19.262  37.903  13.413
71386W        W38454  24.987   3.264  10.457
71387W        W38455  31.495  37.906   2.729
71388W        W38456  21.189   9.233   4.698
71389W        W38457  43.321  33.520  11.391
71390W        W38458  31.914  17.581   4.613
71391W        W38459  14.750  33.005   0.812
71392W        W38460  16.087  43.511   4.337
71393W        W38461  31.938  16.318  13.053
71394W        W38462  36.402  31.909  10.049
71395W        W38463  41.465   9.673   4.717
71396W        W38464   7.829  12.836  13.513
71397W        W38465  26.650  30.512  12.354
71398W        W38466  28.465   3.418  14.012
71399W        W38467  34.897   7.326   4.680
71400W        W38468  11.156  39.812   3.851
71401W        W38469  31.598  30.164   2.324
71402W        W38470  16.666  22.252   4.245
71403W        W38471  42.854  14.735  10.600
71404W        W38472  10.318  21.148  12.524
71405W        W38473  37.933  16.124   3.271
71406W        W38474  25.714  27.058  13.352
71407W        W38475  33.979  12.306   4.831
71408W        W38476  13.764  15.678   0.935
71409W        W38477  39.832  31.444  14.954
71410W        W38478   3.228  36.976  14.942
71411W        W38479  30.601   4.879   5.241
71412W        W38480   3.449   4.250   1.926
71413W        W38481  17.247  32.065   1.774
71414W        W38482  33.586  40.395  11.910
71415W        W38483  19.274  16.777   3.837
71416W        W38484  22.128  10.184  13.532
71417W        W38485  31.128  29.157  13.441
71418W        W38486  30.421   4.425  14.467
71419W        W38487  20.705  22.604  12.413
71420W        W38488  22.029  31.422   0.367
71421W        W38489  24.139  31.917  10.499
71422W        W38490  29.542  30.054   4.132
71423W        W38491  12.208  21.593   2.394
71424W        W38492  19.225  12.733   4.796
71425W        W38493  34.110  38.521   1.741
71426W        W38494  12.227  27.570   1.224
71427W        W38495  26.164  40.451   1.281
71428W        W38496  24.621  32.074  10.627
71429W        W38497  41.502   2.357  12.986
71430W        W38498  17.255  31.960   3.686
71431W        W38499   3.240  12.304  12.881
71432W        W38500  27.019   8.350   4.158
71433W        W38501  20.173  18.120   4.201
71434W        W38502  25.494  36.476  10.426
71435W        W38503  13.289  29.498  14.377
71436W        W38504  39.999  42.407   4.727
71437W        W38505  35.079   6.821   4.760
71438W        W38506  27.116  31.629   0.305
71439W        W38507  31.616  29.056   0.297
71440W        W38508   1.839  31.017   4.778
71441W        W38509  22.996  20.190  11.417
71442W        W38510  32.142  27.022  10.145
71443W        W38511  18.755   6.680  14.357
71444W        W38512   5.723   6.723   0.942
71445W        W38513   1.850  16.199   0.886
71446W        W38514  33.460  25.697   3.271
71447W        W38515  39.479  36.523  11.468
71448W        W38516  28.968  18.781  12.505
71449W        W38517  10.151   9.802  14.942
71450W        W38518  18.154  38.563  11.099
71451W        W38519  16.278  31.920  13.358
71452W        W38520   4.905   8.692  10.076
71453W        W38521   9.207  41.991  14.304
71454W        W38522   3.910  44.434  14.389
71455W        W38523  39.876  23.634   0.481
71456W        W38524  37.424  32.935  11.110
71457W        W38525  40.896  34.598  14.504
71458W        W38526   8.666   5.327  10.643
71459W        W38527   5.275   1.791  11.880
71460W        W38528  30.530  31.896   4.678
71461W        W38529   1.439  38.970   2.272
71462W        W38530   5.753  34.066  13.429
71463W        W38531  33.016   8.750  11.002
71464W        W38532  13.298  17.189  12.356
71465W        W38533  43.478  20.632   3.714
71466W        W38534   6.857  33.044  14.974
71467W        W38535  31.051  23.550  12.466
71468W        W38536   7.235  33.573   2.258
71469W        W38537  34.928  26.988  11.518
71470W        W38538  31.482  32.084   3.669
71471W        W38539   1.320  29.660  13.535
71472W        W38540  13.646  42.929   2.729
71473W        W38541  17.112  12.828  10.139
71474W        W38542   3.290  30.160   3.759
71475W        W38543   3.742  19.779   3.767
71476W        W38544  30.063  22.540   0.730
71477W        W38545   1.276  44.786   2.703
71478W        W38546  43.789  14.766   1.306
71479W        W38547  10.805  30.127   4.345
71480W        W38548  37.378  28.088  14.444
71481W        W38549  30.598  30.544  10.912
71482W        W38550  29.018  26.206  10.927
71483W        W38551  44.397  22.172  12.837
71484W        W38552   9.862  38.533  12.942
71485W        W38553  20.703  19.647   1.826
71486W        W38554  25.660   1.374  13.448
71487W        W38555   4.282  15.258  13.397
71488W        W38556  39.367  14.756  12.441
71489W        W38557  38.391  29.973  14.819
71490W        W38558   8.237  37.535  14.872
71491W        W38559  36.474  34.529   4.662
71492W        W38560  36.929  39.996  14.513
71493W        W38561  44.276  27.480  11.955
71494W        W38562   5.791   5.239   4.703
71495W        W38563  32.969  31.514  13.000
71496W        W38564  16.267  38.912   9.940
71497W        W38565  19.182  19.064   2.203
71498W        W38566  34.377  31.931   0.367
71499W        W38567   6.783  42.999  12.954
71500W        W38568  18.182  38.934   3.351
71501W        W38569  22.673   9.196   3.660
71502W        W38570  34.520   9.173   2.678
71503W        W38571  10.372  31.933  10.606
71504W        W38572  23.697  32.009   1.754
71505W        W38573  40.937  20.678  12.914
71506W        W38574  37.985  34.539   4.690
71507W        W38575  25.027  26.536   4.334
71508W        W38576  14.818   5.228  10.988
71509W        W38577   3.825  39.458   2.235
71510W        W38578   6.688   0.983  12.977
71511W        W38579   5.693  31.149   3.157
71512W        W38580  16.734   7.680   3.712
71513W        W38581  25.205  27.155  10.570
71514W        W38582  15.652  19.046  10.957
71515W        W38583  10.789   5.268   2.834
71516W        W38584  28.443  11.254  12.918
71517W        W38585  39.542  17.072  12.833
71518W        W38586  14.709  34.120   2.695
71519W        W38587   3.246  42.844   0.400
71520W        W38588  29.167   6.910  11.580
71521W        W38589  18.731  35.852  10.918
71522W        W38590  44.835  44.470  13.335
71523W        W38591  18.188   4.284  10.532
71524W        W38592  28.676  44.840  13.929
71525W        W38593  26.171  38.010   4.327
71526W        W38594  39.510   4.417   3.684
71527W        W38595  13.606  23.688   2.239
71528W        W38596  32.026  14.321   0.870
71529W        W38597  37.481  26.702  14.422
71530W        W38598   4.226  15.581   0.881
71531W        W38599  16.667  23.028   0.317
71532W        W38600  41.914  28.036  10.632
71533W        W38601  12.855  24.602  12.944
71534W        W38602  38.389  40.477  10.926
71535W        W38603  12.253  41.357  13.331
71536W        W38604  15.329   4.314  10.565
71537W        W38605  26.059   9.660   0.373
71538W        W38606  12.678  43.928  14.359
71539W        W38607   6.416  15.791   1.892
71540W        W38608  32.926   9.305   0.267
71541W        W38609  31.105  35.895   0.290
71542W        W38610  36.524  38.940  11.439
71543W        W38611  25.639  36.058   5.144
71544W        W38612  33.106  12.223  11.505
71545W        W38613  24.149  25.077  14.297
71546W        W38614   4.415  40.336   4.333
71547W        W38615  23.593  31.957  13.430
71548W        W38616  35.948  27.989   2.807
71549W        W38617  15.274  10.800  13.412
71550W        W38618  13.246  35.912  12.080
71551W        W38619  42.516  14.288  13.024
71552W        W38620   3.327  28.530   4.260
71553W        W38621   0.757   4.236  13.873
71554W        W38622   8.657  34.985   3.382
71555W        W38623  23.593  13.343  10.623
71556W        W38624  39.343   4.423   1.276
71557W        W38625  14.812  43.392  12.003
71558W        W38626   4.379  10.362   2.400
71559W        W38627  14.823  13.690  14.380
71560W        W38628   2.801  41.493  14.329
71561W        W38629  17.201  23.141  12.356
71562W        W38630   0.848   8.768  12.037
71563W        W38631  25.001  12.635   3.287
71564W        W38632  35.604  12.243   4.157
71565W        W38633  17.154  38.568   1.783
71566W        W38634  26.120   5.347   1.841
71567W        W38635   0.928  25.011  13.377
71568W        W38636  35.029  39.372   4.320
71569W        W38637  21.135   8.275   3.249
71570W        W38638   3.377  32.559  11.086
71571W        W38639  37.376  40.883   4.639
71572W        W38640  34.071  32.917   1.299
71573W        W38641   2.761  38.983   1.357
71574W        W38642  36.850  29.628  11.882
71575W        W38643  34.885  38.564   4.621
71576W        W38644  39.004  35.408   4.775
71577W        W38645   6.257  43.936   3.279
71578W        W38646  13.686   4.859   2.699
71579W        W38647   9.691  32.620  12.929
71580W        W38648   2.749  41.929  10.600
71581W        W38649  30.424   6.390   1.403
71582W        W38650   9.689  10.792  11.477
71583W        W38651   5.783  28.545   0.408
71584W        W38652  30.659   1.376   2.860
71585W        W38653  22.136  19.573   5.173
71586W        W38654  31.969  19.624  13.378
71587W        W38655  14.110   8.842   0.861
71588W        W38656  20.038   0.377  11.562
71589W        W38657   0.403  26.972  14.848
71590W        W38658  12.678  14.244  13.028
71591W        W38659  14.730  32.479  11.876
71592W        W38660  16.256   1.370  11.416
71593W        W38661  10.363  26.702   1.400
71594W        W38662   4.759  13.637   3.229
71595W        W38663  39.330  39.505   4.337
71596W        W38664  12.777  41.791  13.960
71597W        W38665  23.602  44.957   0.827
71598W        W38666  42.405  34.977  13.424
71599W        W38667   1.426  41.997   4.737
71600W        W38668  29.053   2.803   2.890
71601W        W38669  41.919  41.401   0.326
71602W        W38670   6.889   4.413  12.824
71603W        W38671  12.836  37.888   0.477
71604W        W38672  24.701  12.620   1.795
71605W        W38673  39.351  41.882   0.938
71606W        W38674  12.790  34.502  11.478
71607W        W38675  14.752  29.984   1.266
71608W        W38676  11.629  36.051  12.566
71609W        W38677  35.442  30.481  10.512
71610W        W38678  36.493  29.112   3.693
71611W        W38679  23.140   2.868   2.903
71612W        W38680  28.611  26.525  12.055
71613W        W38681  10.770  32.529  14.793
71614W        W38682  33.466   1.885  14.313
71615W        W38683  21.626  12.693  11.394
71616W        W38684  33.404  26.461   1.234
71617W        W38685  26.952  29.977   3.725
71618W        W38686  36.381   9.842   0.292
71619W        W38687  43.955  18.075   2.858
71620W        W38688  44.904  41.401  13.399
71621W        W38689  36.442  30.571   1.381
71622W        W38690  42.422  12.290   4.297
71623W        W38691   6.743  39.014  11.065
71624W        W38692  24.086  25.986   3.817
71625W        W38693   3.952  25.200   4.334
71626W        W38694   7.850  32.469   2.383
71627W        W38695  20.762  21.210   4.265
71628W        W38696  21.144  26.491  13.519
71629W        W38697  32.029   4.724   2.786
71630W        W38698  22.650  43.466   4.748
71631W        W38699  28.100  37.575   4.292
71632W        W38700   2.270  26.485  10.992
71633W        W38701  32.930  12.151   3.225
71634W        W38702  41.824   9.226  11.416
71635W        W38703  44.303   3.248  12.459
71636W        W38704   5.349  28.999  10.929
71637W        W38705  13.161  10.784   4.335
71638W        W38706  27.091  24.588   0.471
71639W        W38707  11.211  21.203   4.175
71640W        W38708  25.214   9.703  10.591
71641W        W38709   3.809   0.281  12.988
71642W        W38710  16.577  32.913  11.968
71643W        W38711   5.862  41.855   3.360
71644W        W38712  26.984  26.059  12.429
71645W        W38713  15.812  22.245  14.925
71646W        W38714  33.904  38.904   2.700
71647W        W38715   3.390  22.556   2.793
71648W        W38716  12.788  34.885   4.164
71649W        W38717  18.222  20.642   3.790
71650W        W38718  12.224   1.922   1.696
71651W        W38719  33.985   4.852   4.640
71652W        W38720  20.659  37.931   9.547
71653W        W38721  36.897  23.049  10.469
71654W        W38722   4.756   4.322   3.283
71655W        W38723  27.463  40.498   1.885
71656W        W38724  43.818   9.161   0.959
71657W        W38725  34.409  27.941  12.553
71658W        W38726   9.800  10.659  12.436
71659W        W38727   8.341  29.956   0.937
71660W        W38728   4.253  38.983  13.401
71661W        W38729  12.689  27.506   1.355
71662W        W38730  31.630   7.692  10.503
71663W        W38731  16.199  22.711   1.712
71664W        W38732  24.996  33.969   0.361
71665W        W38733  13.189  44.759  14.880
71666W        W38734  35.020   4.235   3.369
71667W        W38735   9.714  14.811   4.769
71668W        W38736  21.052  37.832   2.903
71669W        W38737  12.202   3.713  13.906
71670W        W38738   4.359  37.458   1.388
71671W        W38739  38.352  20.054   3.648
71672W        W38740  31.950   0.405   2.752
71673W        W38741   9.754   0.322   1.712
71674W        W38742  44.956  27.061  13.371
71675W        W38743  37.379  42.371  12.930
71676W        W38744  10.799  14.197  13.467
71677W        W38745  12.777  20.529  11.543
71678W        W38746  34.571  20.122  14.904
71679W        W38747  21.529  35.518   1.396
71680W        W38748   5.346   9.753   2.836
71681W        W38749  13.612  44.432   0.245
71682W        W38750  43.933  16.282   2.415
71683W        W38751  26.616   1.746   1.793
71684W        W38752  41.904  26.518  10.530
71685W        W38753   6.338   9.820  13.808
71686W        W38754  40.364  39.865  14.477
71687W        W38755  17.300  36.433  11.856
71688W        W38756   7.229   3.923   3.661
71689W        W38757   6.381   2.331   2.180
71690W        W38758  25.023  21.155  13.930
71691W        W38759  33.019   5.269  11.885
71692W        W38760  36.933  34.513   4.129
71693W        W38761   5.417  26.956   0.413
71694W        W38762   9.698  11.156  12.910
71695W        W38763  36.844   8.771   3.871
71696W        W38764  38.032  18.702   3.194
71697W        W38765   5.232   8.209  14.494
71698W        W38766  29.938  28.545   2.341
71699W        W38767  17.241  31.434   4.354
71700W        W38768  28.138  18.650  11.512
71701W        W38769  24.522  27.625   0.394
71702W        W38770  42.796  42.956  10.535
71703W        W38771   5.926  25.567  13.942
71704W        W38772  33.564  22.731  14.347
71705W        W38773  14.745  13.259  11.102
71706W        W38774  27.474  13.772   2.747
71707W        W38775  32.967  16.243  14.869
71708W        W38776  26.466   4.228  12.461
71709W        W38777  16.766  22.673   9.633
71710W        W38778  40.916  25.995   3.739
71711W        W38779  10.139  18.266   1.913
71712W        W38780  27.943  36.046   4.339
71713W        W38781  41.359  35.496   1.255
71714W        W38782   4.229  32.610   3.844
71715W        W38783   6.325  20.166  12.908
71716W        W38784  32.600  31.141   0.748
71717W        W38785   8.351  12.668  10.966
71718W        W38786   5.825  24.510  10.961
71719W        W38787   7.193  24.624   4.171
71720W        W38788  13.130  25.494   1.247
71721W        W38789   4.443  42.803   0.425
71722W        W38790   1.930   6.201   0.249
71723W        W38791  15.666   2.821  10.587
71724W        W38792   3.263   1.854   1.923
71725W        W38793  32.455  21.082  13.793
71726W        W38794  39.028   0.377   3.276
71727W        W38795  30.515  15.113   1.778
71728W        W38796  19.627   6.730  10.544
71729W        W38797   8.323   3.370  13.821
71730W        W38798  21.719  30.049   4.792
71731W        W38799   8.243  13.224   1.238
71732W        W38800   1.316  40.345  12.350
71733W        W38801  40.377  40.851  11.945
71734W        W38802  40.310  38.963  14.887
71735W        W38803  38.510  30.534  11.946
71736W        W38804  44.463  24.612   2.881
71737W        W38805  40.839  34.428   3.262
71738W        W38806   3.357   0.981  12.351
71739W        W38807  16.179   2.901  10.425
71740W        W38808  44.352   2.769  13.394
71741W        W38809  12.131  17.602   4.773
71742W        W38810  34.988  42.406  12.488
71743W        W38811  34.891  17.210   1.219
71744W        W38812  21.586   5.784   3.860
71745W        W38813  37.070  36.951   0.745
71746W        W38814  36.430  44.476   1.832
71747W        W38815  31.951  17.613   0.445
71748W        W38816  27.557  24.125   3.365
71749W        W38817  20.705  42.843   2.699
71750W        W38818   5.701   1.305  11.529
71751W        W38819   2.859  35.403  12.958
71752W        W38820  26.067  33.073   3.787
71753W        W38821  14.116  23.729  10.519
71754W        W38822  14.671   9.252   3.382
71755W        W38823  19.589  28.007   2.663
71756W        W38824  39.323  22.651  13.883
71757W        W38825  36.499  34.543  14.429
71758W        W38826  42.343  27.652   1.819
71759W        W38827  23.001  21.706  11.600
71760W        W38828  16.706  12.293   1.404
71761W        W38829  17.592  44.486  13.413
71762W        W38830  35.521  38.508   1.360
71763W        W38831  11.669  39.902   4.123
71764W        W38832  15.626  31.109  14.015
71765W        W38833  29.589  26.662   2.731
71766W        W38834  36.464  24.163  12.380
71767W        W38835  28.123   1.748  13.467
71768W        W38836  37.929  24.678  10.598
71769W        W38837  35.594  10.370  14.432
71770W        W38838  42.993  36.862  14.411
71771W        W38839  29.483   6.340  13.977
71772W        W38840   7.694   1.296  13.011
71773W        W38841  22.730  38.461   3.319
71774W        W38842  41.431  37.455   1.405
71775W        W38843  37.994  10.805   0.367
71776W        W38844   8.245  20.219   2.690
71777W        W38845   6.315  17.120   5.168
71778W        W38846  26.666  33.096   2.731
71779W        W38847  30.482   4.732  12.991
71780W        W38848  23.055  16.284   2.837
71781W        W38849   2.839   0.485  12.967
71782W        W38850  35.891  39.838  14.871
71783W        W38851  28.557   2.471  10.449
71784W        W38852  39.052  27.588   4.122
71785W        W38853  12.275  26.023  14.436
71786W        W38854  34.470   9.275  13.385
71787W        W38855  41.330  42.983   1.330
71788W        W38856  36.943  16.731  14.442
71789W        W38857  35.872  13.112  12.963
71790W        W38858   4.789  40.961  12.422
71791W        W38859  37.524  23.513   3.848
71792W        W38860  19.616  42.400  11.904
71793W        W38861  27.625  23.074   2.217
71794W        W38862  21.572  14.130  14.960
71795W        W38863   9.262  17.652  12.936
71796W        W38864  13.319   7.673  13.407
71797W        W38865  37.484  34.104   3.275
71798W        W38866  21.206  21.663   0.849
71799W        W38867  30.073  19.282   2.694
71800W        W38868  29.926  19.583  11.926
71801W        W38869  42.465  25.132  14.294
71802W        W38870  28.985  11.297  11.453
71803W        W38871  17.632  34.523  10.419
71804W        W38872  26.588  26.552  11.102
71805W        W38873   8.337  19.156   3.157
71806W        W38874  33.413  25.027   0.928
71807W        W38875   2.770  41.509  11.125
71808W        W38876  33.098  41.814   4.673
71809W        W38877  12.181  30.924  10.514
71810W        W38878   9.738  16.659   4.743
71811W        W38879   5.198  41.880   0.889
71812W        W38880   6.419  20.619  11.440
71813W        W38881  24.684  44.456  10.893
71814W        W38882  32.608  30.456   4.641
71815W        W38883   0.280  21.222  11.000
71816W        W38884  37.015  18.064  13.362
71817W        W38885  29.984  20.222   4.168
71818W        W38886  12.650  28.634  10.889
71819W        W38887  31.978  17.754  11.596
71820W        W38888  17.279  39.446   0.302
71821W        W38889  21.146  37.867   3.312
71822W        W38890  41.915  17.595  12.848
71823W        W38891  27.552  23.649  13.352
71824W        W38892  37.501   9.846  12.944
71825W        W38893  43.885   9.287  10.497
71826W        W38894  43.511  13.226   3.758
71827W        W38895  19.264  14.807   4.792
71828W        W38896  22.554  33.499  10.489
71829W        W38897  38.967  40.811   2.309
71830W        W38898  37.570  29.919  11.601
71831W        W38899   5.922  27.631  14.914
71832W        W38900  31.110   7.718   3.214
71833W        W38901  20.139   4.777  10.642
71834W        W38902  15.606  41.917   4.147
71835W        W38903  15.311  11.801   4.126
71836W        W38904  41.819  33.576   5.148
71837W        W38905   2.356  38.399   3.182
71838W        W38906   6.687  11.207   1.231
71839W        W38907   9.800  19.094   3.668
71840W        W38908  22.206  11.734  11.961
71841W        W38909  28.185  44.006  14.396
71842W        W38910  43.340  34.581  11.609
71843W        W38911  29.158  41.496   2.312
71844W        W38912   5.921  38.895   2.359
71845W        W38913  42.864  22.157  10.987
71846W        W38914  16.250  39.521   0.282
71847W        W38915  18.211  23.593   2.816
71848W        W38916   9.805  14.215  12.473
71849W        W38917   2.889  39.371   3.318
71850W        W38918  12.313  40.324   4.837
71851W        W38919  37.853  33.414  12.379
71852W        W38920  21.586   7.189  10.472
71853W        W38921  30.103  41.391   2.748
71854W        W38922   8.228   5.845   2.669
71855W        W38923  28.175  38.070  11.934
71856W        W38924   7.297  35.050  11.546
71857W        W38925  44.357   4.385  10.500
71858W        W38926   3.778  19.091  13.483
71859W        W38927  15.244  35.461  14.797
71860W        W38928  10.227  29.164   0.931
71861W        W38929  43.371  14.126  11.888
71862W        W38930   6.348  28.045  13.801
71863W        W38931  18.121   1.796  14.927
71864W        W38932  41.486  16.719   1.785
71865W        W38933  33.453  26.066  14.411
71866W        W38934  42.004  13.780   0.367
71867W        W38935  40.542  42.356   1.755
71868W        W38936  25.183   7.383   0.367
71869W        W38937   3.825  18.765  13.449
71870W        W38938  13.786   9.289  14.878
71871W        W38939  12.710  16.230  10.423
71872W        W38940  30.136  22.563  12.461
71873W        W38941  20.611   8.676   0.933
71874W        W38942  15.789  42.367  11.411
71875W        W38943  23.640  20.682  12.450
71876W        W38944   0.379  17.616  11.474
71877W        W38945  13.697  14.619  11.388
71878W        W38946  24.626   4.905  10.917
71879W        W38947   9.321  10.871  11.083
71880W        W38948  25.515  15.685   0.953
71881W        W38949  31.491  21.600   1.723
71882W        W38950  33.890  42.994  14.478
71883W        W38951  26.608   2.816   4.153
71884W        W38952  43.967  11.269   4.292
71885W        W38953  14.637   3.457  10.067
71886W        W38954  18.547  19.104  14.328
71887W        W38955  38.071  43.792   3.282
71888W        W38956   3.885  30.091  11.865
71889W        W38957  30.581  17.642   3.191
71890W        W38958  38.028   8.685  13.834
71891W        W38959  19.096  24.156  14.770
71892W        W38960  35.538  12.341  12.506
71893W        W38961  29.137   8.220   3.861
71894W        W38962  24.046  21.598  12.517
71895W        W38963  36.375  44.301   3.670
71896W        W38964  16.198  13.753  10.904
71897W        W38965  26.561  36.091   3.783
71898W        W38966   3.783   7.302   2.764
71899W        W38967  29.125  35.091   2.381
71900W        W38968   2.392   0.758   4.689
71901W        W38969  33.432  41.991  13.445
71902W        W38970  42.918  28.507  13.375
71903W        W38971  17.665   2.909  10.420
71904W        W38972  40.027  39.966   0.360
71905W        W38973   5.240  13.766  14.778
71906W        W38974  40.884  30.121  12.371
71907W        W38975   4.862   9.669  10.102
71908W        W38976  23.167  24.498   0.332
71909W        W38977   9.287  36.950   3.290
71910W        W38978  20.732  21.022   4.814
71911W        W38979  23.043   8.701  11.118
71912W        W38980   6.361  39.334   3.863
71913W        W38981  41.336  43.482   3.767
71914W        W38982  34.012  18.223   3.169
71915W        W38983  27.655  16.796   1.851
71916W        W38984  17.227   8.742   3.816
71917W        W38985  30.034  42.514  12.372
71918W        W38986  43.878  43.781  14.432
71919W        W38987   1.362   7.900   3.658
71920W        W38988  35.558   0.957  10.976
71921W        W38989  13.286   6.824  10.985
71922W        W38990   6.427  26.081  13.946
71923W        W38991   6.236  15.293  13.410
71924W        W38992  37.853   9.267   2.295
71925W        W38993   7.787  26.017   2.189
71926W        W38994   9.270  43.508  12.829
71927W        W38995  44.276  35.399   3.794
71928W        W38996  13.679  39.057  10.585
71929W        W38997   7.849  42.505   1.909
71930W        W38998  31.048  34.091  11.858
71931W        W38999  30.084  10.709   0.824
71932W        W39000  17.256   3.269   2.379
71933W        W39001   5.373  43.356  10.479
71934W        W39002  16.724   9.212   1.446
71935W        W39003  44.846  35.420  11.928
71936W        W39004   6.415   0.770   2.837
71937W        W39005  27.196   1.314   2.272
71938W        W39006  26.574   1.821   4.146
71939W        W39007  19.160  34.409   4.154
71940W        W39008   6.357  10.762   4.737
71941W        W39009  31.028  13.203   1.919
71942W        W39010  30.648  35.400  12.948
71943W        W39011  42.031  40.970   1.933
71944W        W39012   1.908  12.315   3.715
71945W        W39013   1.853  28.439  13.820
71946W        W39014  27.989  12.308   3.286
71947W        W39015  24.100  35.599   4.161
71948W        W39016   7.382  40.832  12.092
71949W        W39017  13.638  17.777   2.236
71950W        W39018  11.196  22.504   3.831
71951W        W39019  32.569   0.331   1.366
71952W        W39020   0.760   9.394  11.442
71953W        W39021  17.709  44.878   2.300
71954W        W39022   0.467   4.356  12.406
71955W        W39023  39.931  18.776  14.825
71956W        W39024  15.763  42.513  13.462
71957W        W39025  44.316  15.685   5.271
71958W        W39026  16.787  20.194  11.946
71959W        W39027   0.468   6.768  10.623
71960W        W39028   6.398  28.440   1.874
71961W        W39029   0.804  17.271   0.932
71962W        W39030  21.521  36.033   4.633
71963W        W39031   9.386  14.164   1.765
71964W        W39032  32.035  39.866  12.517
71965W        W39033  31.976  27.017   5.154
71966W        W39034  35.421  33.589   3.279
71967W        W39035  20.605  41.535  10.929
71968W        W39036  21.587   0.916  12.466
71969W        W39037   5.872  35.997   0.737
71970W        W39038   8.901   1.388   5.280
71971W        W39039  20.094  18.686   2.866
71972W        W39040   8.662  29.994   0.421
71973W        W39041  13.683   4.441  12.458
71974W        W39042   0.822  20.260  11.939
71975W        W39043  42.308  44.819  11.434
71976W        W39044  25.154  39.809  10.960
71977W        W39045  22.114  31.605   4.164
71978W        W39046   5.915   9.738   3.792
71979W        W39047   6.758  30.136   4.131
71980W        W39048  36.860  29.611   0.402
71981W        W39049  21.118  24.648  11.009
71982W        W39050  15.618  23.214  12.344
71983W        W39051  13.814  35.033   1.273
71984W        W39052  27.027   0.264  13.042
71985W        W39053  35.550   4.289  14.970
71986W        W39054  12.243  21.114  11.533
71987W        W39055  30.625  18.761  10.529
71988W        W39056   7.203  35.030   3.823
71989W        W39057  41.008   5.717  10.961
71990W        W39058   0.424  28.940  11.389
71991W        W39059  31.488   4.324   4.632
71992W        W39060  36.555  34.987  11.492
71993W        W39061  44.868  21.177  10.890
71994W        W39062   4.885  28.489   2.401
71995W        W39063  13.303   0.489  10.089
71996W        W39064   8.770  27.144  11.420
71997W        W39065  35.401  24.539   3.635
71998W        W39066  20.177  37.907  13.405
71999W        W39067  27.078   0.252   4.190
72000W        W39068  22.724   2.888  12.536
72001W        W39069   7.346   0.802   0.889
72002W        W39070  32.116  37.404  10.490
72003W        W39071  29.124  35.474   1.297
72004W        W39072  10.853  41.495  14.804
72005W        W39073   0.756   8.862   3.190
72006W        W39074  11.752  39.383  14.786
72007W        W39075  40.361  27.955   3.238
72008W        W39076  29.166  15.118  14.440
72009W        W39077  37.337  39.910   0.321
72010W        W39078  38.331  21.750  12.066
72011W        W39079  19.620   9.364  12.489
72012W        W39080  18.227  17.205   0.851
72013W        W39081  27.552  33.953   0.437
72014W        W39082  33.877   5.313   1.446
72015W        W39083  22.512  34.081  10.966
72016W        W39084  37.938  41.814  12.038
72017W        W39085  31.144   2.342  11.878
72018W        W39086  41.514   7.231   1.388
72019W        W39087  14.729  21.115  11.515
72020W        W39088  31.520  31.025   4.324
72021W        W39089  16.568  37.492   0.911
72022W        W39090  19.558  20.245  13.944
72023W        W39091  44.267  17.556  13.800
72024W        W39092  43.309  12.827   9.962
72025W        W39093  28.513  41.929   2.784
72026W        W39094  34.378  15.758   1.804
72027W        W39095  13.158   3.899   4.283
72028W        W39096  36.920  44.308   0.873
72029W        W39097  25.509   1.815   2.313
72030W        W39098   1.933  42.962   4.142
72031W        W39099  17.295  11.140   1.734
72032W        W39100   6.267   4.699   1.919
72033W        W39101  42.788  34.024   1.410
72034W        W39102  36.507  28.128   1.441
72035W        W39103  41.379   4.361  11.541
72036W        W39104   7.234  31.478   3.234
72037W        W39105  26.639  30.163  11.443
72038W        W39106  25.130   1.776  14.315
72039W        W39107  36.372  19.232  14.937
72040W        W39108  24.980  21.735  12.014
72041W        W39109  39.400  22.216  13.924
72042W        W39110  21.169  22.542  10.454
72043W        W39111  43.839  29.496  11.069
72044W        W39112  29.617  22.117   4.701
72045W        W39113  31.432  13.695  13.888
72046W        W39114  26.171   0.405  13.528
72047W        W39115  33.456   6.253   5.209
72048W        W39116  16.635  14.762   4.756
72049W        W39117  25.002  37.549  10.434
72050W        W39118  40.395  30.985  14.976
72051W        W39119   2.825  38.376   4.135
72052W        W39120  32.559  36.506   4.344
72053W        W39121  42.467  36.887   3.166
72054W        W39122  27.175  41.423  11.519
72055W        W39123  37.028  42.333  13.414
72056W        W39124   2.936   7.904   0.730
72057W        W39125  27.611  44.345  14.029
72058W        W39126  16.780   3.844  14.327
72059W        W39127  15.720   6.799  12.987
72060W        W39128  44.796   9.838  14.851
72061W        W39129  38.926  23.134  13.025
72062W        W39130  37.036  16.677   1.384
72063W        W39131   0.484   3.283  13.858
72064W        W39132   3.926   5.309   1.372
72065W        W39133   4.307  20.252   4.284
72066W        W39134  14.264  14.339   1.417
72067W        W39135  14.754   7.836  13.025
72068W        W39136   7.743  25.127   3.339
72069W        W39137  11.647  21.234   1.325
72070W        W39138  42.506  23.026  13.001
72071W        W39139  15.611  39.518   2.364
72072W        W39140  18.078  22.178  13.357
72073W        W39141  40.500  14.706  14.864
72074W        W39142  35.511  34.507   4.242
72075W        W39143  10.702  44.858  12.535
72076W        W39144  38.836  21.179  13.368
72077W        W39145  27.045  41.436   1.261
72078W        W39146   1.895  33.937   0.246
72079W        W39147   8.214  44.428   2.806
72080W        W39148  15.804  19.581  10.892
72081W        W39149   6.329  20.631   2.740
72082W        W39150  34.387   0.328  11.890
72083W        W39151  13.794  12.799  14.364
72084W        W39152  17.070  40.455   0.250
72085W        W39153  18.283   6.858   4.646
72086W        W39154  19.212  30.989   9.550
72087W        W39155  43.455   3.821  10.614
72088W        W39156   0.459  36.534  12.403
72089W        W39157  36.559   8.314   2.867
72090W        W39158  32.614  14.656   2.882
72091W        W39159  39.429  32.126   4.790
72092W        W39160   7.389  30.536   4.663
72093W        W39161   5.370   0.417   2.738
72094W        W39162   5.425  11.339   3.870
72095W        W39163  29.945  44.412   0.264
72096W        W39164  44.925  43.019   1.344
72097W        W39165  28.955  17.737  12.974
72098W        W39166  35.034  10.173   2.688
72099W        W39167  19.708  20.699  12.422
72100W        W39168  35.110  17.296   5.258
72101W        W39169   1.376  27.617   2.361
72102W        W39170  24.977  12.826  12.894
72103W        W39171  29.945  21.671   2.775
72104W        W39172  36.493  19.151  12.002
72105W        W39173  40.897  20.229   4.190
72106W        W39174   1.283  12.741  11.585
72107W        W39175  43.489  18.616   0.308
72108W        W39176  22.682  40.430  14.789
72109W        W39177  18.705   6.919   1.417
72110W        W39178   3.954  32.612  11.609
72111W        W39179  21.254  33.478   0.843
72112W        W39180  19.254  28.061   1.348
72113W        W39181  25.665  17.075   3.163
72114W        W39182   0.424  36.866  11.387
72115W        W39183  20.110  32.113  14.898
72116W        W39184   4.706  10.350  11.456
72117W        W39185   6.297   1.460  10.583
72118W        W39186  10.218   2.790   0.849
72119W        W39187  30.953  10.262   4.693
72120W        W39188   2.856  40.525  13.352
72121W        W39189  24.187  39.844  11.453
72122W        W39190  39.916  12.614   4.132
72123W        W39191   8.797  16.766   2.846
72124W        W39192  37.044   3.849   1.449
72125W        W39193  39.988  22.051   4.735
72126W        W39194  11.366  29.664   3.642
72127W        W39195  40.491  27.518   2.698
72128W        W39196  16.609  26.660   0.353
72129W        W39197  28.628  31.576   2.188
72130W        W39198  31.565  33.604  11.595
72131W        W39199  16.780   1.838  12.087
72132W        W39200   6.705   8.868   3.236
72133W        W39201  18.102  20.565   2.383
72134W        W39202  28.141  16.111  11.868
72135W        W39203  28.108   9.179   0.957
72136W        W39204   6.382  43.350  14.760
72137W        W39205  39.904  33.038   0.943
72138W        W39206  30.026  39.048  12.077
72139W        W39207   7.891  31.531  13.411
72140W        W39208   6.676  13.785  13.418
72141W        W39209   6.276  13.683   3.822
72142W        W39210  18.242  23.058   0.732
72143W        W39211  14.743   9.256  13.815
72144W        W39212  14.279  12.117  12.533
72145W        W39213  38.346  11.710   0.962
72146W        W39214  23.680  42.433   4.614
72147W        W39215  34.533   2.450  11.486
72148W        W39216  39.318  16.739   0.452
72149W        W39217  15.294   7.330  10.062
72150W        W39218  12.360  17.220  12.873
72151W        W39219  16.185  33.021  10.413
72152W        W39220  33.387  19.164   4.762
72153W        W39221   8.777  23.172  13.323
72154W        W39222  22.061  42.984  12.375
72155W        W39223  14.103  19.214  10.997
72156W        W39224  30.453  19.670  13.019
72157W        W39225  35.931   0.436   2.662
72158W        W39226   6.829  18.147  13.435
72159W        W39227   4.834  13.704  10.983
72160W        W39228  14.306   0.800  12.012
72161W        W39229  42.411  32.079   1.726
72162W        W39230  12.618  41.395  11.578
72163W        W39231  27.967  40.839   3.375
72164W        W39232  30.518  35.452   2.829
72165W        W39233  32.414  37.830  11.499
72166W        W39234   3.219  25.059   0.847
72167W        W39235  40.880  17.096  12.381
72168W        W39236  41.358   8.303   1.222
72169W        W39237  36.088  12.315  14.498
72170W        W39238  11.190   3.804   4.626
72171W        W39239  40.903  11.823   4.627
72172W        W39240  26.700  31.522   3.857
72173W        W39241  32.965   5.805   3.839
72174W        W39242  27.030  12.235  12.976
72175W        W39243  36.096  24.718  11.059
72176W        W39244  13.647   9.875  12.536
72177W        W39245  38.546  32.102   1.304
72178W        W39246   2.962  13.177  14.421
72179W        W39247  23.231  15.786   3.370
72180W        W39248  10.289  40.866   1.732
72181W        W39249  37.863  16.094   2.825
72182W        W39250  14.672  23.200   3.263
72183W        W39251  21.017  16.769   3.248
72184W        W39252  20.090  25.185   0.369
72185W        W39253  30.139   9.319  10.938
72186W        W39254  25.086  34.072  10.628
72187W        W39255  27.170   5.722  11.129
72188W        W39256  28.068   9.695  11.931
72189W        W39257  36.889  40.504  13.843
72190W        W39258  29.578  39.478   2.209
72191W        W39259  26.612  15.275   1.417
72192W        W39260   6.875  29.600  11.039
72193W        W39261   4.756  14.770  12.907
72194W        W39262  39.974  34.042   4.126
72195W        W39263   5.231   0.361   3.631
72196W        W39264  20.182  35.920   3.247
72197W        W39265  23.666  37.580  11.458
72198W        W39266   0.335  28.071   4.317
72199W        W39267   8.226  25.036  11.385
72200W        W39268   1.478  24.189   1.903
72201W        W39269  44.934  42.483   0.296
72202W        W39270  13.743  17.204   3.256
72203W        W39271   8.248  21.138   0.400
72204W        W39272   5.203  23.634   4.203
72205W        W39273  16.634  30.547   2.809
72206W        W39274  41.426  28.096   1.805
72207W        W39275  10.362  26.973  13.040
72208W        W39276  37.353  32.918   3.652
72209W        W39277  10.173   4.778   1.402
72210W        W39278  39.528  16.580   2.237
72211W        W39279  36.855  27.610  14.001
72212W        W39280  34.424  24.663   3.331
72213W        W39281  20.207  34.375  14.468
72214W        W39282  13.264  18.668  10.601
72215W        W39283   9.190  38.338  13.891
72216W        W39284  31.437  16.182   4.731
72217W        W39285  38.480  26.121   2.213
72218W        W39286  44.914  36.417  12.516
72219W        W39287  13.783  36.964  13.524
72220W        W39288  24.012   4.867  12.985
72221W        W39289  19.557  15.772  11.402
72222W        W39290   4.908  18.157   1.850
72223W        W39291  10.701  14.140  10.471
72224W        W39292  30.460  31.411  12.886
72225W        W39293  27.039  18.077  14.341
72226W        W39294  30.592  41.327   3.780
72227W        W39295   0.253  16.101  12.358
72228W        W39296  17.784   0.980   1.390
72229W        W39297   7.828  15.276   1.932
72230W        W39298  19.777  20.580  13.477
72231W        W39299  25.673  44.908  10.959
72232W        W39300  38.977  32.553   1.248
72233W        W39301   7.830  13.127   0.402
72234W        W39302  40.969  32.012  10.145
72235W        W39303  38.019  34.874  13.497
72236W        W39304  19.145   3.758   1.853
72237W        W39305  16.087  17.702   0.405
72238W        W39306  38.989   5.803   4.294
72239W        W39307   1.880   5.760   2.713
72240W        W39308  30.634  41.810   5.193
72241W        W39309  11.313  17.249   1.365
72242W        W39310  35.441  33.441   2.394
72243W        W39311  39.040  41.361   4.172
72244W        W39312  35.469  41.965   3.859
72245W        W39313   5.375  31.615   1.716
72246W        W39314  33.514  35.107  12.486
72247W        W39315  24.168   6.787  12.563
72248W        W39316   1.871  31.907   0.357
72249W        W39317  13.112   1.952  13.545
72250W        W39318  32.886  17.747  13.847
72251W        W39319  12.834  29.635  10.615
72252W        W39320  33.582  30.130  11.980
72253W        W39321  10.295  41.359  10.057
72254W        W39322   1.818   3.366   3.853
72255W        W39323  32.139   5.439   0.777
72256W        W39324  41.918  20.247  10.592
72257W        W39325  34.489  26.628  12.885
72258W        W39326  36.431  15.196   3.175
72259W        W39327  17.179  22.529  14.008
72260W        W39328  40.427  18.704   4.221
72261W        W39329  14.301  20.177   3.647
72262W        W39330  32.988  40.985   0.258
72263W        W39331  26.952  28.456  14.896
72264W        W39332  42.300  21.213   0.415
72265W        W39333  32.443  37.075   0.956
72266W        W39334  13.617  43.881  10.956
72267W        W39335  38.448  42.973   2.860
72268W        W39336   3.240  10.176  11.987
72269W        W39337  19.254  13.723   4.297
72270W        W39338  30.524  36.469  14.841
72271W        W39339  39.934  12.770   3.240
72272W        W39340  25.001  24.054   2.689
72273W        W39341   6.815  35.971  13.504
72274W        W39342  20.253   7.771   2.331
72275W        W39343  10.138   8.259  11.992
72276W        W39344  13.817  16.732   2.832
72277W        W39345  12.132  29.446   2.803
72278W        W39346  42.851  38.934  14.436
72279W        W39347  14.662  23.639  12.489
72280W        W39348  20.150  37.517   5.086
72281W        W39349  37.020  22.646   3.364
72282W        W39350  43.904  18.288  12.068
72283W        W39351   9.222  18.077   1.808
72284W        W39352   5.405  34.545   1.745
72285W        W39353  31.125   5.419  13.374
72286W        W39354  33.946  30.498  11.067
72287W        W39355  24.221  24.597   2.679
72288W        W39356  24.109  15.699  13.957
72289W        W39357  15.589  41.340   3.734
72290W        W39358  12.687  12.784   1.698
72291W        W39359  33.997   6.367  12.885
72292W        W39360   6.424  43.479  12.395
72293W        W39361   3.421  42.891  12.532
72294W        W39362  34.534  16.232   2.683
72295W        W39363  18.735   1.475   4.643
72296W        W39364  44.978  22.612  10.441
72297W        W39365   9.670  36.033   2.692
72298W        W39366  18.148  26.546   0.466
72299W        W39367  18.072  24.690  11.505
72300W        W39368  33.885  23.547  10.541
72301W        W39369  34.001  41.329  11.954
72302W        W39370  17.635  16.747  14.008
72303W        W39371  30.029   7.731  14.380
72304W        W39372  33.955   4.744   0.391
72305W        W39373   9.888  20.651   2.846
72306W        W39374  16.804  18.188  13.917
72307W        W39375  19.068  42.286  13.797
72308W        W39376  18.208  30.459  11.573
72309W        W39377  39.914   7.697  10.460
72310W        W39378   4.326  30.560   1.216
72311W        W39379  34.464  13.735   0.918
72312W        W39380  29.146  33.946   1.218
72313W        W39381   2.909  23.583  10.929
72314W        W39382  30.961  41.916  11.575
72315W        W39383  18.763  14.697   1.905
72316W        W39384  21.207   3.750   0.953
72317W        W39385   1.738   3.367  13.329
72318W        W39386  26.202   2.801  10.937
72319W        W39387  34.423   2.243   3.166
72320W        W39388  43.922  27.505   3.842
72321W        W39389  24.704  33.029   0.313
72322W        W39390   2.787  10.346   0.482
72323W        W39391  25.679   8.689  12.480
72324W        W39392  36.017   9.838   4.160
72325W        W39393   4.272   2.351  10.457
72326W        W39394  35.003   1.816  14.475
72327W        W39395  19.693  39.055  12.964
72328W        W39396   8.313  34.890  13.933
72329W        W39397  13.240  34.542  12.502
72330W        W39398  38.358  22.728   0.902
72331W        W39399  30.097  36.551   2.273
72332W        W39400  15.262  27.488  11.416
72333W        W39401  14.191   1.869  14.348
72334W        W39402  25.163  15.660  13.832
72335W        W39403  19.552  34.095   0.902
72336W        W39404   4.357   8.241  10.503
72337W        W39405  27.070   1.284  14.759
72338W        W39406  28.477  31.961  14.024
72339W        W39407   3.434  19.621   4.214
72340W        W39408  29.018  44.487   0.904
72341W        W39409  29.638   7.823  14.825
72342W        W39410  12.320  13.238   0.295
72343W        W39411   5.342   9.872  12.555
72344W        W39412  42.014  41.396   0.857
72345W        W39413  44.291  39.349   3.655
72346W        W39414  16.271  34.966  13.338
72347W        W39415  42.921  36.365   4.608
72348W        W39416  29.461  35.363   4.270
72349W        W39417  22.545  28.040  10.967
72350W        W39418  22.205  35.485   2.796
72351W        W39419  20.702  27.681   3.163
72352W        W39420  31.543  12.652  12.048
72353W        W39421  14.684  29.145   2.883
72354W        W39422  44.488  44.825  14.861
72355W        W39423  29.484   9.869  13.423
72356W        W39424  24.975  12.226   3.778
72357W        W39425   5.285  15.094   2.256
72358W        W39426  41.393  33.042  14.506
72359W        W39427  24.632  30.060   1.401
72360W        W39428  13.615  21.087   5.255
72361W        W39429  19.071  12.835   0.735
72362W        W39430  25.193  16.220   1.310
72363W        W39431  41.530  23.492  13.884
72364W        W39432  18.205  13.773  11.898
72365W        W39433   1.395  26.616   3.867
72366W        W39434  43.496   3.424   1.375
72367W        W39435  17.261  15.684  12.922
72368W        W39436  31.424  41.919  11.934
72369W        W39437  33.033  17.069   2.206
72370W        W39438  37.393  29.074   0.411
72371W        W39439   6.883  13.308   4.732
72372W        W39440  34.029  35.457   1.397
72373W        W39441  14.705  26.090  13.310
72374W        W39442  11.782  43.397  11.062
72375W        W39443  15.144  44.953   3.667
72376W        W39444  25.199  29.130  14.415
72377W        W39445  39.893  21.172  10.899
72378W        W39446  19.644  35.516   1.756
72379W        W39447  13.615  35.477  11.867
72380W        W39448  14.228   8.188  13.897
72381W        W39449  43.848  38.909  10.929
72382W        W39450   3.453  33.984   0.424
72383W        W39451  15.804  26.000   1.790
72384W        W39452  20.249  22.745  12.920
72385W        W39453  42.841  12.753  11.421
72386W        W39454  17.675  30.600   1.397
72387W        W39455   0.868   6.346  13.021
72388W        W39456   0.780  18.139  11.436
72389W        W39457  25.975  39.926  11.106
72390W        W39458  39.016   9.766  11.588
72391W        W39459  44.983   3.810   4.674
72392W        W39460  38.459  39.985   4.136
72393W        W39461  10.750   3.757   4.726
72394W        W39462  40.950  21.215   0.285
72395W        W39463   7.321  40.458  14.334
72396W        W39464  38.890  27.991  14.807
72397W        W39465  14.659  24.694   3.669
72398W        W39466  13.313  21.138   1.405
72399W        W39467   5.713  41.362   0.913
72400W        W39468  27.513  40.962  13.366
72401W        W39469  26.185  34.563  10.437
72402W        W39470  17.698  42.840   2.194
72403W        W39471  29.159  12.699  13.929
72404W        W39472  19.718  19.549  13.431
72405W        W39473  27.140  17.074   4.698
72406W        W39474  41.831  21.593   3.729
72407W        W39475  32.459  10.329  12.448
72408W        W39476   3.261  28.053  11.953
72409W        W39477  39.042  18.591  11.386
72410W        W39478  25.186   9.731   4.825
72411W        W39479  31.984  23.727  12.433
72412W        W39480   2.784   3.729   0.888
72413W        W39481  15.599   0.920   3.859
72414W        W39482   0.831  31.402   9.989
72415W        W39483  41.002   1.371   1.381
72416W        W39484  13.198  43.855  11.911
72417W        W39485   8.889  35.021  14.789
72418W        W39486   6.748  35.501   3.183
72419W        W39487   8.160  34.958  12.370
72420W        W39488   2.361  11.205  10.933
72421W        W39489  16.793  15.691  10.891
72422W        W39490  23.587   0.854   0.967
72423W        W39491   7.352  41.323  13.934
72424W        W39492  17.569  23.642   2.867
72425W        W39493  26.002  29.100  11.023
72426W        W39494   8.274  24.031   2.272
72427W        W39495  21.198  12.847   3.833
72428W        W39496  38.425  39.532  14.375
72429W        W39497   4.800  43.365   2.217
72430W        W39498  37.058  33.536  11.483
72431W        W39499  44.992   1.933   2.868
72432W        W39500   6.830  11.631  11.110
72433W        W39501  16.589   0.773   3.755
72434W        W39502  33.394   4.274   4.209
72435W        W39503  41.465   7.231   0.407
72436W        W39504  34.434  43.886   0.339
72437W        W39505  18.166  28.632  12.439
72438W        W39506   0.963   0.346   1.439
72439W        W39507  30.981  36.847   2.179
72440W        W39508  38.510  17.066  14.311
72441W        W39509  38.548   9.299   4.175
72442W        W39510  19.076  38.852  11.118
72443W        W39511  24.192  13.151   0.445
72444W        W39512   1.973  21.632   4.699
72445W        W39513  38.347  26.980  11.096
72446W        W39514  34.385  43.797  11.446
72447W        W39515   5.392  20.635   3.365
72448W        W39516  34.413   2.931   1.272
72449W        W39517  20.716  31.111   4.323
72450W        W39518  22.050  14.832   0.397
72451W        W39519  19.101   0.306   1.756
72452W        W39520  26.140  11.195  14.504
72453W        W39521  13.754   8.775   1.902
72454W        W39522  10.680  10.268  11.547
72455W        W39523  17.769  14.264  11.067
72456W        W39524   6.887   0.455  14.315
72457W        W39525   4.381  11.682  10.974
72458W        W39526   0.987  34.556  13.332
72459W        W39527  15.245   0.752   0.951
72460W        W39528  36.928  19.041  13.917
72461W        W39529  41.932  43.880  11.376
72462W        W39530  27.669  29.156  14.480
72463W        W39531  36.900  36.067   3.666
72464W        W39532  16.133   1.806   3.377
72465W        W39533  23.090  42.811  10.577
72466W        W39534  23.582  38.063   4.793
72467W        W39535  19.155  40.987   1.278
72468W        W39536  36.910  14.758  11.462
72469W        W39537  14.599   7.764   3.660
72470W        W39538   2.923   8.178   2.372
72471W        W39539  16.273  27.088  10.459
72472W        W39540  12.615  21.528  12.362
72473W        W39541  31.141  35.386  10.016
72474W        W39542  20.112  27.173  11.378
72475W        W39543  28.006  12.138  10.416
72476W        W39544  18.095  34.414  11.501
72477W        W39545  16.798  33.421  14.964
72478W        W39546  38.552   7.671   0.925
72479W        W39547  21.574  20.626  11.455
72480W        W39548  43.775   4.714   3.200
72481W        W39549   7.675   0.870  11.891
72482W        W39550  36.867  35.865   3.205
72483W        W39551  38.846  12.732  10.098
72484W        W39552  15.110  24.640  14.336
72485W        W39553  39.518   4.835  11.545
72486W        W39554  32.493  28.974  13.402
72487W        W39555  22.586  14.206   4.202
72488W        W39556   1.907  14.173   0.924
72489W        W39557  28.013  18.141  13.391
72490W        W39558  28.633   1.865   2.416
72491W        W39559   3.768  29.921  10.936
72492W        W39560  39.005  26.967  12.507
72493W        W39561  12.156   7.390   4.170
72494W        W39562  42.862   8.239   4.267
72495W        W39563  14.677  18.253  14.311
72496W        W39564   1.395  35.372   3.657
72497W        W39565  39.915  33.615  10.436
72498W        W39566   8.236  44.471   3.857
72499W        W39567  23.693   1.424   2.385
72500W        W39568  16.645  29.591  14.286
72501W        W39569  33.432   7.859  13.017
72502W        W39570  36.967  37.533  13.477
72503W        W39571  15.778  29.015   4.664
72504W        W39572  23.055  14.789  13.428
72505W        W39573  15.678  32.578  13.434
72506W        W39574   9.251  14.301   1.344
72507W        W39575  35.990  25.031   0.887
72508W        W39576  29.526  29.021   4.141
72509W        W39577  31.477  16.706  11.883
72510W        W39578   8.812  15.708   4.822
72511W        W39579  22.718  32.124   3.379
72512W        W39580   2.446  44.259   5.240
72513W        W39581  39.419  38.466  14.031
72514W        W39582  18.678  26.000  13.009
72515W        W39583   1.256  41.980  14.021
72516W        W39584   3.902  25.126   2.807
72517W        W39585   9.795  38.548  11.494
72518W        W39586  26.496  41.520  14.944
72519W        W39587   8.209  16.107   4.795
72520W        W39588  10.721   9.878  13.532
72521W        W39589  35.535   4.331   0.294
72522W        W39590   6.839  25.048   2.822
72523W        W39591   5.260   8.790   2.893
72524W        W39592  19.139  30.634   3.221
72525W        W39593  38.050  23.106   4.803
72526W        W39594  35.976  33.438  13.808
72527W        W39595   3.838  10.867   0.922
72528W        W39596  40.012  26.639   4.295
72529W        W39597  23.582   0.285   3.741
72530W        W39598  36.550   3.446  10.092
72531W        W39599  36.389  24.616  14.851
72532W        W39600  23.063  40.492   4.827
72533W        W39601  24.110  16.737   4.288
72534W        W39602  31.064  19.271   3.334
72535W        W39603  16.606  19.633  10.558
72536W        W39604   0.384  21.222   1.819
72537W        W39605  13.645  25.080  11.914
72538W        W39606  33.119  30.449  13.834
72539W        W39607   4.936  43.924   0.440
72540W        W39608  28.605  38.846   2.714
72541W        W39609   9.160  14.806  11.107
72542W        W39610  13.629  16.753   0.746
72543W        W39611  32.955  26.557  13.018
72544W        W39612  22.214  40.983   2.865
72545W        W39613   5.751  26.499   2.224
72546W        W39614  30.587  25.567   4.180
72547W        W39615  42.959  43.306   3.310
72548W        W39616  40.542  24.149   3.730
72549W        W39617   2.824  41.828  11.076
72550W        W39618  11.638  37.529  13.904
72551W        W39619  13.836  35.528  13.408
72552W        W39620   3.723  41.959   4.726
72553W        W39621  26.504  24.498  13.528
72554W        W39622  30.448   1.906   2.858
72555W        W39623   3.904  27.644  12.422
72556W        W39624  30.957  17.605  12.941
72557W        W39625   2.383  10.167   4.340
72558W        W39626   8.901  42.477  14.401
72559W        W39627  20.247  39.051  14.961
72560W        W39628  28.013  14.806  13.991
72561W        W39629   2.786  16.594  14.871
72562W        W39630  14.707  26.957  14.030
72563W        W39631  12.303  39.898   4.706
72564W        W39632   9.349  18.738   0.474
72565W        W39633  18.696  28.174  14.833
72566W        W39634   8.346  10.376  11.091
72567W        W39635  21.559  43.819  14.354
72568W        W39636  32.021  36.887   2.667
72569W        W39637  18.206  38.888  12.450
72570W        W39638  21.555  39.965   0.305
72571W        W39639  16.106  41.889  11.905
72572W        W39640  22.698  37.369  14.475
72573W        W39641   3.360   7.814  12.026
72574W        W39642  20.653  41.996   2.313
72575W        W39643  38.511  27.948  12.023
72576W        W39644  37.475  42.808  14.016
72577W        W39645   9.756   2.819   1.277
72578W        W39646  43.449  38.458  11.919
72579W        W39647   7.313  24.157   4.130
72580W        W39648  17.303  37.952  12.856
72581W        W39649  28.010   7.825  13.023
72582W        W39650  24.515  39.482   0.451
72583W        W39651  38.882  28.117  10.059
72584W        W39652  26.680  38.906  12.828
72585W        W39653  20.710  14.637  12.017
72586W        W39654  29.670  40.512  12.034
72587W        W39655  23.099  21.163   1.413
72588W        W39656  41.382  42.808  14.895
72589W        W39657  17.150  27.136  11.594
72590W        W39658  13.170  25.687  13.340
72591W        W39659  38.917   2.385  11.004
72592W        W39660  35.389  34.993   2.844
72593W        W39661  25.162  44.452   1.727
72594W        W39662  38.960  12.673   0.252
72595W        W39663  33.584   0.493  11.420
72596W        W39664  37.877   7.768  13.349
72597W        W39665   9.827   8.244  12.536
72598W        W39666  23.016  35.852   3.337
72599W        W39667   1.860   7.754   1.767
72600W        W39668  14.274  31.071   4.322
72601W        W39669  32.054  37.510   2.286
72602W        W39670  28.470  30.907   3.368
72603W        W39671  33.116   1.880  13.331
72604W        W39672  24.117  32.407   0.252
72605W        W39673  13.654  26.599   2.788
72606W        W39674  10.643  13.330   2.386
72607W        W39675  10.820  29.437  12.400
72608W        W39676  22.667  31.030  12.823
72609W        W39677  12.849   6.235   1.814
72610W        W39678   3.436   9.180  14.935
72611W        W39679   5.198  40.483   3.684
72612W        W39680  43.888  42.509  14.930
72613W        W39681  11.359  24.088  10.914
72614W        W39682   9.176  22.575   4.680
72615W        W39683  31.121   4.767   4.211
72616W        W39684  26.506  31.610  13.950
72617W        W39685  37.036  40.909  10.947
72618W        W39686  12.682   1.971  13.390
72619W        W39687  44.878  28.014  10.484
72620W        W39688  10.822  31.082   4.345
72621W        W39689   6.823  35.405  14.286
72622W        W39690  37.067  43.922   0.844
72623W        W39691  40.964  14.332  13.819
72624W        W39692  16.151  33.537   4.258
72625W        W39693  31.521  37.390  14.292
72626W        W39694   0.757  32.509   1.218
72627W        W39695  38.334  26.115  10.546
72628W        W39696  34.107   6.234  10.457
72629W        W39697  31.964   6.224  14.946
72630W        W39698   7.268  10.144  13.057
72631W        W39699  24.224  22.513  13.391
72632W        W39700  37.956  20.612  12.986
72633W        W39701  29.008  39.433   3.850
72634W        W39702  44.442  43.439  10.561
72635W        W39703  34.421  12.362   2.860
72636W        W39704  38.878  32.043   5.100
72637W        W39705  13.271  13.338  13.332
72638W        W39706  21.208   2.343   4.656
72639W        W39707   9.227   4.275  11.380
72640W        W39708   3.299  39.987   1.711
72641W        W39709   3.221  36.513   1.425
72642W        W39710  33.880  42.964   3.731
72643W        W39711  13.329  21.252  10.499
72644W        W39712  37.535  38.855   2.813
72645W        W39713  37.348  23.608   2.292
72646W        W39714   6.763  44.925   2.714
72647W        W39715  11.780  26.505  12.552
72648W        W39716   8.733  36.983  14.004
72649W        W39717   4.412  38.002   4.663
72650W        W39718  14.685   9.696  13.989
72651W        W39719  42.452   2.422  12.835
72652W        W39720  38.012  42.921   3.228
72653W        W39721  44.007  11.819  10.443
72654W        W39722   7.822  11.728   3.675
72655W        W39723  25.507  11.622  10.913
72656W        W39724   7.376   1.244   3.310
72657W        W39725   0.830  44.759  12.835
72658W        W39726  20.241  10.321  10.123
72659W        W39727  10.723  29.923   4.651
72660W        W39728   0.975  21.539   1.726
72661W        W39729  40.406  44.327   0.384
72662W        W39730   9.697  39.963  13.481
72663W        W39731  21.175  12.710   0.951
72664W        W39732  38.028  34.447   2.297
72665W        W39733  16.184  14.149   0.301
72666W        W39734  40.515  29.013  10.974
72667W        W39735   7.879   7.344  13.504
72668W        W39736  22.738  16.267  10.004
72669W        W39737  24.614  25.627  12.986
72670W        W39738  28.588  29.647  11.421
72671W        W39739  23.665  20.593   3.163
72672W        W39740  16.704  34.531   0.948
72673W        W39741  31.483  23.556  13.818
72674W        W39742  31.920  31.618   2.404
72675W        W39743   3.321  23.584   0.782
72676W        W39744   5.286  33.487  11.048
72677W        W39745   5.300  19.124  10.892
72678W        W39746  32.076  38.454  11.904
72679W        W39747  22.030  42.899   4.743
72680W        W39748  37.933  30.553   2.900
72681W        W39749  36.016  33.881   3.749
72682W        W39750  13.339   9.738  13.532
72683W        W39751  31.920  42.386  13.415
72684W        W39752  12.778   0.469  11.938
72685W        W39753   9.834  39.512  12.852
72686W        W39754  17.643  23.186   3.335
72687W        W39755  12.360  14.748   3.280
72688W        W39756  35.910  31.097   2.792
72689W        W39757  16.240  25.078  10.598
72690W        W39758   7.308  35.905  10.644
72691W        W39759   1.318   6.796   3.647
72692W        W39760  17.680  37.869   4.345
72693W        W39761  22.553   3.233  10.921
72694W        W39762  12.329  18.235   4.718
72695W        W39763  14.169  14.647  10.542
72696W        W39764  32.982  44.758   2.796
72697W        W39765   5.787  29.968   0.883
72698W        W39766  15.748  10.682  13.839
72699W        W39767  22.193  10.266  14.833
72700W        W39768  36.446   4.274   4.690
72701W        W39769  20.687  38.848   2.743
72702W        W39770  11.685  23.654  13.395
72703W        W39771  20.525  35.427  11.952
72704W        W39772  40.848  18.555  10.548
72705W        W39773  13.657   4.223   3.345
72706W        W39774  25.549  36.522   1.259
72707W        W39775   3.777  30.072   3.762
72708W        W39776  43.303  40.863  13.905
72709W        W39777  37.557  31.061   4.275
72710W        W39778   1.833  19.234  14.953
72711W        W39779  15.121  25.689   1.299
72712W        W39780  44.486   0.958  11.037
72713W        W39781   3.283  34.932  14.022
72714W        W39782  44.484  26.144   1.854
72715W        W39783   8.270  17.749   5.241
72716W        W39784  34.605  15.132   0.764
72717W        W39785  28.978  11.261  12.544
72718W        W39786   1.925  30.050   0.330
72719W        W39787  15.313  12.806  10.901
72720W        W39788  44.429  35.012   2.347
72721W        W39789  26.696  13.301   4.347
72722W        W39790   0.799  22.084  12.506
72723W        W39791  34.497  29.664   2.731
72724W        W39792  33.907  16.639   4.784
72725W        W39793  43.833  11.165  12.937
72726W        W39794   5.735  14.253  13.872
72727W        W39795  30.543  36.381   2.247
72728W        W39796  20.595   6.339  11.491
72729W        W39797  19.076  23.550  10.526
72730W        W39798  20.139  38.508  14.945
72731W        W39799  43.511   7.336  13.820
72732W        W39800   3.331  27.077  11.025
72733W        W39801  34.461  24.191   4.781
72734W        W39802  14.644   2.241   0.930
72735W        W39803   6.804  33.950  13.471
72736W        W39804   6.740  37.523  11.927
72737W        W39805  21.620   7.221   1.353
72738W        W39806  41.971  35.567   4.354
72739W        W39807  10.861  19.605  13.888
72740W        W39808  27.679  41.469  12.865
72741W        W39809  14.205  18.758   1.733
72742W        W39810  43.368  40.424  14.871
72743W        W39811  11.689  29.952   4.618
72744W        W39812   1.889  27.993   3.649
72745W        W39813   1.900   2.347   4.805
72746W        W39814  32.134  11.236   3.732
72747W        W39815   2.400  41.380   0.271
72748W        W39816  23.990  31.970  11.006
72749W        W39817  37.947  44.877   4.166
72750W        W39818   8.863   9.275  12.519
72751W        W39819  11.306  29.599  11.873
72752W        W39820  42.385  16.645   3.221
72753W        W39821  19.779  13.794  11.066
72754W        W39822  15.299  44.990   4.642
72755W        W39823  19.731  40.825   2.730
72756W        W39824  34.400  42.479   2.338
72757W        W39825   8.319   6.845   4.658
72758W        W39826   4.399  17.796   4.223
72759W        W39827  13.726   9.790  11.982
72760W        W39828  28.510  11.221   0.903
72761W        W39829  25.569   8.186   2.787
72762W        W39830  16.167  21.055  14.951
72763W        W39831   8.318  40.337   2.415
72764W        W39832  34.021  31.093  14.493
72765W        W39833  39.962  17.194  13.440
72766W        W39834  26.999  33.015   4.169
72767W        W39835  29.941  18.076   3.361
72768W        W39836   2.400  25.540  13.039
72769W        W39837   7.266   1.313  13.444
72770W        W39838  28.018  24.490   4.711
72771W        W39839   5.402  22.090  14.489
72772W        W39840  26.615  20.197  12.092
72773W        W39841  37.463   3.946   2.803
72774W        W39842   5.847  27.143   0.818
72775W        W39843  22.009  37.449  14.949
72776W        W39844  44.268  10.374   0.262
72777W        W39845  40.882  15.813   1.221
72778W        W39846  16.745  19.585  14.417
72779W        W39847   9.779   4.810   0.295
72780W        W39848  10.739  28.944  11.436
72781W        W39849  24.606  13.807  13.453
72782W        W39850  11.838   9.804   0.845
72783W        W39851   4.776  35.363   3.725
72784W        W39852   2.300  21.520   3.236
72785W        W39853  38.967  10.691  14.486
72786W        W39854  15.326  21.194   4.126
72787W        W39855  38.012  39.549  12.914
72788W        W39856  31.079   1.815   4.609
72789W        W39857   1.857   8.751   4.275
72790W        W39858  16.256  25.713   3.260
72791W        W39859  40.022  34.032  14.797
72792W        W39860  22.022  10.317  10.606
72793W        W39861  40.513  24.515  12.915
72794W        W39862  30.487  18.162  14.778
72795W        W39863  36.871  29.955   4.174
72796W        W39864  15.593   4.244   0.258
72797W        W39865  13.322   9.206  10.434
72798W        W39866  29.472  18.139   2.883
72799W        W39867  23.194  44.894  10.454
72800W        W39868  29.591  40.984   3.167
72801W        W39869  13.684  11.623  13.328
72802W        W39870  29.143  25.537  12.897
72803W        W39871  22.143  20.208   3.293
72804W        W39872   4.900  18.152   2.663
72805W        W39873   6.355  39.441  14.486
72806W        W39874  40.007  40.905   1.373
72807W        W39875  42.839  18.183   4.182
72808W        W39876   5.350  29.945  12.077
72809W        W39877  25.569  14.316  10.906
72810W        W39878   4.833  25.098  12.974
72811W        W39879  18.244  18.549  11.439
72812W        W39880  20.063  16.149   4.283
72813W        W39881  25.490  40.031  12.493
72814W        W39882  12.850  28.619   1.385
72815W        W39883   2.363  39.539   0.906
72816W        W39884  25.212  13.158  13.356
72817W        W39885  21.030  28.172   4.253
72818W        W39886   7.315  38.943  10.901
72819W        W39887  40.859  30.655   2.695
72820W        W39888  19.165  31.999   3.680
72821W        W39889   3.730   2.833  13.877
72822W        W39890  32.522  36.965   0.330
72823W        W39891  20.731  17.680  11.919
72824W        W39892   1.360  39.860   1.749
72825W        W39893  39.439   2.282  11.570
72826W        W39894  42.358   2.793  14.025
72827W        W39895  15.628  35.920  10.143
72828W        W39896  17.685   2.877  11.533
72829W        W39897   5.337  10.876  13.896
72830W        W39898   5.375  27.478  12.397
72831W        W39899  24.723  26.666   0.748
72832W        W39900  17.276  35.446   2.252
72833W        W39901  33.598  12.157  12.433
72834W        W39902   9.648  27.578  11.900
72835W        W39903  13.222  36.968  14.366
72836W        W39904  15.124  31.546  14.915
72837W        W39905  21.124  25.039   1.746
72838W        W39906  12.187  14.610   2.827
72839W        W39907  24.077   3.259   2.281
72840W        W39908  31.481  21.171   3.146
72841W        W39909  14.171  24.721   3.334
72842W        W39910  41.912  41.804   2.756
72843W        W39911  11.772  21.115  10.477
72844W        W39912  41.333  11.772   2.688
72845W        W39913  36.434   5.796  14.799
72846W        W39914  14.613  26.044   4.139
72847W        W39915   3.917  19.535  12.558
72848W        W39916   9.657  44.904  14.773
72849W        W39917  37.431  22.194  11.983
72850W        W39918   4.793   2.390  10.482
72851W        W39919  35.379  28.010   2.338
72852W        W39920  39.482  44.379  10.525
72853W        W39921   1.388  26.547   2.394
72854W        W39922  39.431  11.773   4.188
72855W        W39923  20.081   5.841   3.766
72856W        W39924  13.793   7.227  12.569
72857W        W39925  12.622  28.522   0.360
72858W        W39926  30.973  43.782   4.690
72859W        W39927  16.247   3.277  14.932
72860W        W39928  16.630  25.693  11.080
72861W        W39929  15.090  32.113   4.729
72862W        W39930  27.692  18.282  13.348
72863W        W39931   3.227   6.316   4.705
72864W        W39932  22.247   9.342  11.081
72865W        W39933  26.475  28.935   0.763
72866W        W39934  44.344  20.242  13.476
72867W        W39935   1.735  24.580   3.719
72868W        W39936  29.940  22.202  14.367
72869W        W39937  28.435  35.061  10.122
72870W        W39938  27.507   6.689   1.370
72871W        W39939  12.708  27.673  14.016
72872W        W39940  42.421  13.291  10.460
72873W        W39941  39.541   8.901  10.925
72874W        W39942   0.887  20.223   2.777
72875W        W39943  31.041  10.192   0.460
72876W        W39944  20.730  36.484  10.410
72877W        W39945  22.015   6.265   3.364
72878W        W39946  32.908  23.708   3.807
72879W        W39947  38.400   0.960  14.489
72880W        W39948  40.870  23.030  13.907
72881W        W39949  35.091  28.144   3.743
72882W        W39950  28.438  26.482  14.903
72883W        W39951  26.167   5.411   2.181
72884W        W39952   7.813  21.242  14.007
72885W        W39953   5.281  43.276  13.894
72886W        W39954  14.230  33.041   0.835
72887W        W39955  40.414  37.014  13.361
72888W        W39956  24.568   5.909  11.071
72889W        W39957  32.893  23.117  13.316
72890W        W39958  33.390  44.379   2.413
72891W        W39959  44.460  17.641   3.819
72892W        W39960  20.045  43.289  13.352
72893W        W39961  18.071  16.232   1.375
72894W        W39962  29.971  34.111  13.317
72895W        W39963  14.608   2.466  12.471
72896W        W39964   1.928  16.761   0.423
72897W        W39965  25.506   6.910   0.447
72898W        W39966  23.647  10.760   4.701
72899W        W39967   5.893  37.446   2.857
72900W        W39968  19.116  19.766  10.607
72901W        W39969  34.567  41.809  14.951
72902W        W39970  41.505  40.427   4.690
72903W        W39971   0.365   4.910   2.713
72904W        W39972  23.001  43.999   1.304
72905W        W39973  11.754   6.921  13.804
72906W        W39974   0.975  42.382   3.237
72907W        W39975  43.775  19.657  14.853
72908W        W39976  22.240   2.347  10.537
72909W        W39977   4.706   2.912   2.337
72910W        W39978  36.098  34.911   5.115
72911W        W39979  19.599  32.044  11.596
72912W        W39980   4.806  36.871  11.559
72913W        W39981   1.828  15.226   0.272
72914W        W39982  26.606  21.755   3.286
72915W        W39983  38.442  18.233   2.783
72916W        W39984   4.829  21.149   1.280
72917W        W39985   4.732   0.287  11.009
72918W        W39986  42.456   4.707  11.039
72919W        W39987  18.148  36.973  13.828
72920W        W39988  42.504   5.309  12.365
72921W        W39989  25.204  37.463   0.852
72922W        W39990   4.724  41.813   0.920
72923W        W39991   9.823  31.519   3.723
72924W        W39992  22.622  33.061  13.013
72925W        W39993  43.893   3.368   3.281
72926W        W39994   6.749  31.449   4.266
72927W        W39995  33.411  40.314   5.097
72928W        W39996  16.636  20.530  10.988
72929W        W39997  38.332  43.342   3.831
72930W        W39998  31.148  13.108  14.315
72931W        W39999  26.138  16.645  11.485
72932W        W40000  34.111  32.050  13.370
72933W        W40001  35.097  30.589  14.453
72934W        W40002  21.091   2.874  12.366
72935W        W40003  24.703  29.665   3.832
72936W        W40004   4.898  16.161   0.268
72937W        W40005  25.090  34.887  13.931
72938W        W40006   4.732  42.941  14.311
72939W        W40007  23.046  16.784  11.088
72940W        W40008  43.379  34.908  13.403
72941W        W40009  42.436   5.283   1.935
72942W        W40010  30.525   4.414   3.749
72943W        W40011  18.277   8.270   4.279
72944W        W40012   4.262  14.112   1.404
72945W        W40013  42.822  26.538   2.361
72946W        W40014   2.250  43.341   3.359
72947W        W40015   4.905  15.658   4.228
72948W        W40016  26.502  42.986  13.345
72949W        W40017  26.642  20.612  11.513
72950W        W40018   5.438  29.070  13.451
72951W        W40019  44.969   3.846   1.295
72952W        W40020  15.644  21.683  13.020
72953W        W40021  29.669  25.621   2.377
72954W        W40022  39.857  28.479  13.040
72955W        W40023  22.141  37.904  11.055
72956W        W40024  19.241  22.514  11.535
72957W        W40025  31.430   3.753   0.411
72958W        W40026  18.117  14.175   3.850
72959W        W40027  18.657  26.106  11.018
72960W        W40028  28.083  32.633  14.447
72961W        W40029  40.962   0.767   0.877
72962W        W40030  25.180  44.871  10.448
72963W        W40031  43.402  43.337   2.210
72964W        W40032  27.557  33.382  14.327
72965W        W40033   0.828   1.455   4.640
72966W        W40034  13.837  42.852  13.875
72967W        W40035  31.928   6.366   0.735
72968W        W40036  26.497  29.583  11.393
72969W        W40037  34.059  15.119  12.923
72970W        W40038   2.401  19.257  14.785
72971W        W40039  23.526  32.576   2.329
72972W        W40040   8.195   0.747   4.621
72973W        W40041  10.746  35.853  13.418
72974W        W40042  41.395  12.855  13.338
72975W        W40043  29.095   8.867  12.446
72976W        W40044  15.732   8.866  11.873
72977W        W40045  37.521  15.736   0.382
72978W        W40046  37.053  17.726  14.450
72979W        W40047  23.012   8.209   4.254
72980W        W40048   9.676  26.094   0.376
72981W        W40049   7.902  30.907  11.994
72982W        W40050   5.432  42.961  13.993
72983W        W40051  18.780  14.723   4.613
72984W        W40052   4.910  23.222  14.000
72985W        W40053  32.630  20.148   2.672
72986W        W40054   5.297  44.416  13.862
72987W        W40055  27.037  19.593   0.411
72988W        W40056  23.526  24.151  13.975
72989W        W40057   7.767  22.696   2.363
72990W        W40058  24.030  32.069  12.420
72991W        W40059  30.984  28.004   0.393
72992W        W40060  13.684  20.072  12.412
72993W        W40061   5.713  42.938  14.289
72994W        W40062   1.935  39.881  13.884
72995W        W40063  43.335  36.007   4.676
72996W        W40064  32.889  28.657   4.243
72997W        W40065  14.276  27.484   3.658
72998W        W40066  16.622  33.391   1.733
72999W        W40067  43.875   9.644   0.277
73000W        W40068  13.644   2.779   1.869
73001W        W40069  22.220  44.767   3.639
73002W        W40070  35.042  25.208   1.765
73003W        W40071  30.658  13.119   3.735
73004W        W40072  21.598   0.752   0.301
73005W        W40073  31.569  38.529   4.270
73006W        W40074  20.048  20.641   3.847
73007W        W40075  32.886  39.461  14.839
73008W        W40076  33.622  14.712  12.951
73009W        W40077  19.690  30.593  12.378
73010W        W40078   1.339  23.182  13.348
73011W        W40079  12.230  22.206   3.676
73012W        W40080  33.073  17.774  14.481
73013W        W40081  31.639  28.174  11.399
73014W        W40082  10.264   6.715  14.874
73015W        W40083  34.911  27.997  10.572
73016W        W40084  34.901  40.457   1.383
73017W        W40085  18.683   3.215  12.077
73018W        W40086  10.861  40.917  10.557
73019W        W40087  34.932  28.613  11.094
73020W        W40088  35.893   9.274  11.408
73021W        W40089  38.420  16.581   2.381
73022W        W40090  32.117  26.505   1.444
73023W        W40091  20.177  11.180  11.537
73024W        W40092  11.256  15.188   3.766
73025W        W40093   9.733  27.492  13.842
73026W        W40094  13.182   6.762  14.395
73027W        W40095  15.793  24.195  14.016
73028W        W40096  17.665  38.021   2.896
73029W        W40097  21.522  18.746  13.866
73030W        W40098  34.974  14.293  11.580
73031W        W40099  34.889  10.297  11.385
73032W        W40100  33.122  32.406  12.930
73033W        W40101  20.731  38.822   1.696
73034W        W40102  44.969  43.811   1.374
73035W        W40103  25.001   7.802  11.003
73036W        W40104  23.163  35.973   0.923
73037W        W40105  17.223  19.649  11.424
73038W        W40106  21.725  14.720   0.272
73039W        W40107  34.118  34.026  11.558
73040W        W40108  24.677  14.130  13.803
73041W        W40109   0.873   5.748  14.941
73042W        W40110  27.185  32.045  12.517
73043W        W40111  41.316  26.465   0.845
73044W        W40112  20.681  40.803   4.163
73045W        W40113  29.518  37.359   2.791
73046W        W40114  31.472  32.061   4.835
73047W        W40115  28.601  11.824   3.640
73048W        W40116   8.223   8.358  11.934
73049W        W40117  33.622   9.217  13.357
73050W        W40118  29.128  39.337   2.400
73051W        W40119  28.557  28.663   1.407
73052W        W40120  30.028  10.776   2.304
73053W        W40121  41.916  41.460  14.986
73054W        W40122   0.836  43.931  12.002
73055W        W40123  30.417  29.432  12.356
73056W        W40124  36.995   6.363  12.368
73057W        W40125  31.567  25.102   1.423
73058W        W40126  11.851  34.419  13.034
73059W        W40127  10.322  25.118   2.862
73060W        W40128  33.114  14.647   2.193
73061W        W40129  29.541   2.814   3.856
73062W        W40130   5.829   8.689  10.546
73063W        W40131  20.612  38.908  14.809
73064W        W40132  10.773  41.041   1.767
73065W        W40133   3.236  33.607  12.027
73066W        W40134   7.243  24.687   3.772
73067W        W40135  20.070  40.943  12.570
73068W        W40136  16.740   3.847   2.200
73069W        W40137  42.952  24.635  12.449
73070W        W40138   7.268   1.248  14.396
73071W        W40139  10.846  17.673   1.421
73072W        W40140  26.066  40.899  14.778
73073W        W40141  19.769  28.131  11.992
73074W        W40142  36.588   2.298   4.642
73075W        W40143  43.337  19.061  10.952
73076W        W40144  32.424  39.500  10.456
73077W        W40145  40.934  14.161  12.088
73078W        W40146  21.549  14.232   0.786
73079W        W40147  17.662  44.287   4.803
73080W        W40148  34.016  39.898  13.523
73081W        W40149  39.486  15.734  10.107
73082W        W40150  29.145  30.924   3.311
73083W        W40151  22.177  34.936   1.858
73084W        W40152  26.070  32.576   4.224
73085W        W40153   0.403  23.038   0.887
73086W        W40154   4.786   4.439   1.231
73087W        W40155  12.639  37.560   1.814
73088W        W40156  25.493  34.006  11.890
73089W        W40157  26.604  24.161   0.275
73090W        W40158  39.969   6.219  13.511
73091W        W40159  23.164  15.202   2.290
73092W        W40160  16.786  10.139  11.120
73093W        W40161  16.732   6.697   3.173
73094W        W40162  37.396   5.426   3.777
73095W        W40163  32.080  18.632  13.925
73096W        W40164  22.572  26.990   1.429
73097W        W40165  24.991  39.995  10.041
73098W        W40166  35.572  12.746   4.827
73099W        W40167  34.877  30.030   4.200
73100W        W40168   8.183  38.866   2.272
73101W        W40169   5.205   4.450  13.426
73102W        W40170  35.516  33.618  11.427
73103W        W40171  22.067  21.133  13.474
73104W        W40172  41.874  26.204  13.435
73105W        W40173  18.785   8.667   4.260
73106W        W40174  35.014  20.274  10.425
73107W        W40175  22.650   4.340   0.327
73108W        W40176  11.828   3.801  13.953
73109W        W40177   9.175  18.652   3.196
73110W        W40178  13.302  40.973   2.383
73111W        W40179  20.053  42.467   4.207
73112W        W40180  10.694  19.613  14.829
73113W        W40181  17.212  25.147   1.253
73114W        W40182   1.387  17.644  13.945
73115W        W40183  37.011  16.313   1.335
73116W        W40184   3.335  27.653   1.725
73117W        W40185  17.637  35.565  11.026
73118W        W40186  11.296  25.102   1.375
73119W        W40187  14.778  12.239  12.543
73120W        W40188   3.235  21.665   4.355
73121W        W40189  43.021  43.894   3.372
73122W        W40190  11.175  40.454  13.460
73123W        W40191   1.307  22.552   2.844
73124W        W40192  37.451  27.534   2.373
73125W        W40193  37.008  18.058  13.811
73126W        W40194  26.611  17.101   4.729
73127W        W40195  31.023  14.306   0.250
73128W        W40196  36.881  36.500  10.408
73129W        W40197  31.549  21.661  10.566
73130W        W40198  26.524  25.013  10.017
73131W        W40199  19.552  21.745  14.458
73132W        W40200  39.454  10.147  11.059
73133W        W40201   3.407  24.702   3.788
73134W        W40202  15.098  20.269   5.684
73135W        W40203  12.172  31.633  11.566
73136W        W40204   4.264  43.936  11.045
73137W        W40205  31.492  42.888  13.878
73138W        W40206  28.630  13.722   4.696
73139W        W40207  12.717  29.575   4.632
73140W        W40208  44.906  41.447   2.362
73141W        W40209   9.331  36.047  14.324
73142W        W40210  33.418  26.098   2.764
73143W        W40211   3.755  32.623   2.766
73144W        W40212  33.548  29.620   0.367
73145W        W40213  16.107  42.418  11.511
73146W        W40214  21.748   8.701   2.698
73147W        W40215  41.008  38.328  13.038
73148W        W40216  16.261   5.434   4.766
73149W        W40217  30.532  38.042   2.901
73150W        W40218  20.547  29.994  14.462
73151W        W40219   1.343   3.931   2.250
73152W        W40220  43.849  38.395   1.777
73153W        W40221  38.841   0.251   3.664
73154W        W40222  28.632  37.460   3.790
73155W        W40223   0.929  25.078   4.736
73156W        W40224  23.154  26.139  11.489
73157W        W40225  38.488  38.915  12.940
73158W        W40226  13.603  12.307  10.449
73159W        W40227   2.955  11.759   1.392
73160W        W40228  15.297   7.665  14.513
73161W        W40229  44.884   7.346   4.285
73162W        W40230  28.089   5.858  14.818
73163W        W40231  16.136   8.341   4.318
73164W        W40232  20.141  15.213  11.918
73165W        W40233  44.315  23.679   1.704
73166W        W40234   3.763   8.863  12.472
73167W        W40235  34.993  34.446  10.644
73168W        W40236  26.686  14.607   0.295
73169W        W40237   8.759   3.458   2.253
73170W        W40238  34.496  41.812   2.344
73171W        W40239  28.932  21.021   5.223
73172W        W40240  40.858   3.292  14.906
73173W        W40241   7.358  12.677   4.646
73174W        W40242  39.996   7.706  11.610
73175W        W40243  11.156   1.482   2.757
73176W        W40244  27.060   6.277   0.329
73177W        W40245  43.365  28.642  12.873
73178W        W40246   6.368  11.748   4.176
73179W        W40247  40.911  43.794   2.340
73180W        W40248  33.615  37.086   3.844
73181W        W40249  29.598  39.515  14.939
73182W        W40250  21.575  38.992   2.394
73183W        W40251  33.462  21.191   2.317
73184W        W40252   8.252   0.485  12.537
73185W        W40253  19.629  22.502  12.501
73186W        W40254   0.953   8.397   3.713
73187W        W40255  26.077  30.509   3.654
73188W        W40256  33.026  26.651   5.238
73189W        W40257   4.364  26.467  14.914
73190W        W40258  27.027  14.708  12.553
73191W        W40259  41.004  12.819  13.451
73192W        W40260  15.202  20.169   1.872
73193W        W40261  20.089   3.837  14.289
73194W        W40262  37.007  44.460  10.548
73195W        W40263  16.700  36.050  12.006
73196W        W40264   3.220  38.434   2.810
73197W        W40265  33.910  42.991  11.489
73198W        W40266  35.035   1.362   1.780
73199W        W40267  13.134  31.597   4.701
73200W        W40268  29.617  34.992  14.874
73201W        W40269  16.127   2.965  12.850
73202W        W40270  41.921  22.130  12.987
73203W        W40271  30.087  31.080  11.542
73204W        W40272   6.421  16.162   3.671
73205W        W40273  19.542   2.784   2.202
73206W        W40274  18.722  15.783   4.789
73207W        W40275  23.134  22.201   3.180
73208W        W40276  16.148   7.313   0.872
73209W        W40277  26.617  35.002   0.317
73210W        W40278  20.145  33.559  13.999
73211W        W40279  23.639   8.192  13.351
73212W        W40280  35.467  24.067  12.373
73213W        W40281   8.823  37.024  13.430
73214W        W40282  10.873  13.645  13.994
73215W        W40283  12.242   0.371   2.845
73216W        W40284   6.398   4.836  14.991
73217W        W40285  11.819  13.842   2.412
73218W        W40286  26.182  21.587  10.891
73219W        W40287   4.751  37.382   5.231
73220W        W40288  40.521  29.622  13.471
73221W        W40289  10.658  34.105   3.368
73222W        W40290  30.073  43.514   2.756
73223W        W40291   2.461  27.570  11.505
73224W        W40292  14.271  23.120  13.443
73225W        W40293   5.212  16.205  12.963
73226W        W40294  35.037   9.848   4.318
73227W        W40295   4.234  21.091  10.619
73228W        W40296  34.389  20.264  11.878
73229W        W40297   4.304  11.801  13.466
73230W        W40298  32.124  41.848   3.771
73231W        W40299   6.784  20.062   5.612
73232W        W40300  33.021  20.602  12.053
73233W        W40301  24.136  26.487   1.419
73234W        W40302  39.403  23.230   2.824
73235W        W40303  26.656  25.134  12.860
73236W        W40304  31.926   6.250  14.451
73237W        W40305  43.933  33.433   5.091
73238W        W40306  18.601  17.092  14.994
73239W        W40307   0.291  13.805  14.384
73240W        W40308  32.551  16.106  12.346
73241W        W40309  39.857  38.844   3.824
73242W        W40310  35.910  27.070   0.304
73243W        W40311   2.731  25.020   1.780
73244W        W40312   4.913   0.903   5.282
73245W        W40313  20.574   7.909  13.400
73246W        W40314  41.981   4.386   4.760
73247W        W40315  44.826  38.992   2.783
73248W        W40316   2.922  12.828   2.299
73249W        W40317   4.779  31.560  12.570
73250W        W40318   6.394  29.645  12.089
73251W        W40319  31.023  22.641   2.339
73252W        W40320  26.175  28.500   0.734
73253W        W40321  19.638  18.293  14.855
73254W        W40322   1.260   9.709  13.926
73255W        W40323  26.145  40.357   4.644
73256W        W40324   2.783   3.405   0.933
73257W        W40325   6.705   8.814  10.584
73258W        W40326  10.290  19.771  12.008
73259W        W40327  35.943   7.703  12.878
73260W        W40328  11.652  36.984   1.312
73261W        W40329   2.961  20.526  10.506
73262W        W40330  37.481  22.523   3.851
73263W        W40331   1.830  11.319  13.054
73264W        W40332  18.601  15.251  14.861
73265W        W40333   6.357  29.509  11.056
73266W        W40334  10.324   1.464   4.624
73267W        W40335  17.168  41.995  10.499
73268W        W40336  42.966   5.798  14.469
73269W        W40337  19.576  16.768  14.483
73270W        W40338  16.178   1.803  14.430
73271W        W40339  32.566  42.434   3.233
73272W        W40340  24.073  12.736  11.583
73273W        W40341  34.990   7.309   5.156
73274W        W40342  28.596  30.007  14.827
73275W        W40343  24.148  19.096   2.715
73276W        W40344  18.757  20.611   0.817
73277W        W40345  37.880  27.088  12.398
73278W        W40346   0.891  11.855   2.200
73279W        W40347   0.451  40.025   4.775
73280W        W40348  24.095  35.912   0.868
73281W        W40349  24.706  13.651  14.031
73282W        W40350  39.543   4.712  14.341
73283W        W40351  29.965  18.266  12.975
73284W        W40352   3.309  35.483  14.428
73285W        W40353  14.772  18.775  11.921
73286W        W40354  13.805  43.494   4.239
73287W        W40355  16.706  11.350  14.010
73288W        W40356   6.774  10.178  10.442
73289W        W40357  43.439  23.560   1.781
73290W        W40358  42.321  18.117  13.907
73291W        W40359  39.421  31.504  13.390
73292W        W40360   1.793  36.021  11.965
73293W        W40361  38.037  26.546  13.536
73294W        W40362  18.054  31.144   3.182
73295W        W40363   0.900  20.534  12.981
73296W        W40364   8.205  11.370  12.552
73297W        W40365  37.963  31.433  13.349
73298W        W40366  38.554  29.925   4.191
73299W        W40367  37.357  24.580  14.349
73300W        W40368  35.973   4.323  11.563
73301W        W40369   6.328  19.121  11.021
73302W        W40370  28.480   5.270   0.776
73303W        W40371  25.577   7.253  11.077
73304W        W40372   5.840  38.045   0.815
73305W        W40373  13.186   8.737   4.658
73306W        W40374   0.275  38.358   1.804
73307W        W40375  25.042  40.451   3.843
73308W        W40376   7.222   1.820   3.816
73309W        W40377   4.820  19.041  12.373
73310W        W40378   3.410   3.430  14.941
73311W        W40379   5.310  32.438  11.086
73312W        W40380  25.508  15.117  12.050
73313W        W40381   0.949  22.189  10.971
73314W        W40382  28.005   0.952   3.192
73315W        W40383  37.009  20.751   0.824
73316W        W40384  30.937   6.715   1.922
73317W        W40385  37.460  15.780   3.310
73318W        W40386  33.120  10.747   2.406
73319W        W40387  29.536   9.818   0.872
73320W        W40388  11.634  18.603   2.400
73321W        W40389  20.683  38.014   1.879
73322W        W40390  20.641  39.828   2.221
73323W        W40391  41.300   7.401  12.483
73324W        W40392   9.306  29.929   2.393
73325W        W40393  36.553  20.135  13.515
73326W        W40394  12.611  31.899  11.422
73327W        W40395  24.503   7.294  10.486
73328W        W40396  43.354   1.332   0.309
73329W        W40397  41.508  14.782   2.296
73330W        W40398  40.316  29.486  13.839
73331W        W40399  33.594  16.229  13.811
73332W        W40400  31.505  30.007  13.864
73333W        W40401  30.644  10.192   0.263
73334W        W40402  13.305   8.764   4.156
73335W        W40403  12.813  42.915   3.255
73336W        W40404  36.583  14.618  12.436
73337W        W40405  22.012  29.429   0.815
73338W        W40406  33.080   3.381   0.957
73339W        W40407   2.327  29.553  14.455
73340W        W40408   9.269  11.358  12.085
73341W        W40409  39.421  35.080  12.867
73342W        W40410  16.751  22.694  14.857
73343W        W40411   9.829  34.029  14.817
73344W        W40412  15.787  13.729   0.773
73345W        W40413  23.713  26.159   4.606
73346W        W40414  16.286   6.428  12.426
73347W        W40415  29.018  21.253  11.398
73348W        W40416   3.419  16.566  14.374
73349W        W40417  14.721  40.990  12.517
73350W        W40418  24.183  35.460  12.525
73351W        W40419  40.483   1.254  12.859
73352W        W40420  31.029  27.186   3.789
73353W        W40421  17.787  26.468   2.383
73354W        W40422   7.858  27.617  14.438
73355W        W40423  22.145  41.833  12.475
73356W        W40424  41.847  28.038  13.952
73357W        W40425  26.119  19.535  12.065
73358W        W40426   0.341  27.135   1.240
73359W        W40427  11.792  20.576   0.845
73360W        W40428  20.563  23.644  14.965
73361W        W40429  34.955  22.248   3.648
73362W        W40430  26.081  11.701  13.455
73363W        W40431   5.409  24.540  13.992
73364W        W40432  23.991   9.317   1.299
73365W        W40433  11.346  19.609  11.979
73366W        W40434  13.115  20.542  12.984
73367W        W40435  36.947  35.554   4.160
73368W        W40436   1.967  28.664   3.794
73369W        W40437   2.939  30.986   0.271
73370W        W40438  36.478  28.446   0.952
73371W        W40439  10.278  34.594   0.886
73372W        W40440   1.855  15.156   3.341
73373W        W40441  28.075  27.506   4.198
73374W        W40442   6.723  14.806  10.998
73375W        W40443  10.214  34.492   2.728
73376W        W40444  14.168  22.597  11.104
73377W        W40445   7.178   5.354  13.015
73378W        W40446  37.509  31.980   1.916
73379W        W40447  35.879  40.519   5.281
73380W        W40448   7.796  36.055  12.907
73381W        W40449  35.579  15.170  11.574
73382W        W40450   2.876  23.070   0.835
73383W        W40451  22.739  23.008   1.445
73384W        W40452  38.378   7.244  14.829
73385W        W40453  40.415  23.635  13.376
73386W        W40454  38.942   3.426   2.207
73387W        W40455  43.903  10.384   3.160
73388W        W40456  25.513  18.580  12.404
73389W        W40457  42.010  18.718   3.266
73390W        W40458  28.470  37.456   0.945
73391W        W40459  44.427  19.738   0.479
73392W        W40460  35.005  40.405   2.861
73393W        W40461   5.718  13.612  10.521
73394W        W40462  14.222  42.398   4.353
73395W        W40463  24.580  16.660   2.761
73396W        W40464  17.229  39.353  12.903
73397W        W40465  21.715   3.866   1.318
73398W        W40466  20.154   5.356   2.663
73399W        W40467   1.809  36.916  11.903
73400W        W40468  42.872  11.800  12.832
73401W        W40469  37.341   4.259   3.761
73402W        W40470  42.339   4.447   3.811
73403W        W40471  14.774   5.291  14.982
73404W        W40472  36.592  22.614   5.275
73405W        W40473   6.257   1.933   1.264
73406W        W40474  33.567  12.342   0.831
73407W        W40475  40.919  30.144  14.456
73408W        W40476  18.104  32.418  13.442
73409W        W40477  28.980  34.045  11.934
73410W        W40478  44.901  11.339   2.336
73411W        W40479  37.868  27.508  14.467
73412W        W40480  44.338  22.580  11.079
73413W        W40481  14.791  39.521  14.798
73414W        W40482  18.265  34.906  10.612
73415W        W40483  43.283  43.364   1.902
73416W        W40484  42.428   6.386  14.506
73417W        W40485  43.505  39.064   4.637
73418W        W40486  22.012  35.965   4.163
73419W        W40487  44.328  15.292  14.293
73420W        W40488  33.875  44.870   4.168
73421W        W40489  38.975  30.571  12.917
73422W        W40490  39.328   7.809  11.964
73423W        W40491  37.553   6.392   2.680
73424W        W40492  38.855  23.050  13.502
73425W        W40493   8.779  32.976  11.560
73426W        W40494  38.034   8.693  12.425
73427W        W40495  16.276  24.073   9.952
73428W        W40496  11.647  42.357  12.094
73429W        W40497  20.671   8.249   4.798
73430W        W40498   6.301  43.977   0.257
73431W        W40499   7.819  25.164  12.057
73432W        W40500  40.973  26.669  11.481
73433W        W40501  19.146  17.711  13.905
73434W        W40502   0.929  31.642  14.883
73435W        W40503  38.385   7.825  13.510
73436W        W40504   5.850   6.222  10.606
73437W        W40505  16.715  44.359   3.209
73438W        W40506  35.452  30.984   2.802
73439W        W40507   8.302  22.219   1.409
73440W        W40508   4.763  15.236   4.144
73441W        W40509  35.545   9.390   4.295
73442W        W40510  32.554   3.254  11.085
73443W        W40511  19.232  17.781   0.408
73444W        W40512  12.837  41.325  12.467
73445W        W40513  17.299  29.959  14.928
73446W        W40514   3.250   0.789  14.005
73447W        W40515  11.745   7.266   1.335
73448W        W40516  16.248   4.321  14.768
73449W        W40517  44.294  40.920  11.565
73450W        W40518  40.842   2.738   3.654
73451W        W40519   0.874  17.206  11.594
73452W        W40520   0.775  15.199   2.702
73453W        W40521   3.226   6.373  11.125
73454W        W40522  13.652  32.517  11.035
73455W        W40523  18.146   8.788  13.985
73456W        W40524  31.642  15.633  14.942
73457W        W40525  20.077  21.173   3.738
73458W        W40526  26.563  12.331   2.738
73459W        W40527   0.946  41.909  10.997
73460W        W40528  11.355   0.470   2.777
73461W        W40529  34.446  33.087  13.407
73462W        W40530  20.585  10.681  10.974
73463W        W40531   5.312  27.059   2.233
73464W        W40532  20.134  33.599   2.737
73465W        W40533   7.244  32.957   3.211
73466W        W40534  37.553   8.811  10.448
73467W        W40535   4.917  32.580   2.301
73468W        W40536  27.108  28.541   1.854
73469W        W40537   0.758  25.151   3.740
73470W        W40538  15.716   0.912   4.176
73471W        W40539  23.696   6.352  11.447
73472W        W40540  31.909   4.345  14.365
73473W        W40541  44.965   2.469   3.773
73474W        W40542  24.061  19.737  13.527
73475W        W40543  11.282  38.910   0.441
73476W        W40544  28.662  11.246   4.306
73477W        W40545  37.893  10.254  10.889
73478W        W40546   5.280  30.997  13.472
73479W        W40547   6.240   7.338  13.822
73480W        W40548  38.013  43.924  11.067
73481W        W40549  17.242   4.770   5.191
73482W        W40550  41.817  11.327   4.682
73483W        W40551  17.619  18.105   4.299
73484W        W40552  24.634  12.844  12.093
73485W        W40553  26.608  44.919  11.613
73486W        W40554   0.365  21.664   3.830
73487W        W40555  23.213   4.934  12.859
73488W        W40556   4.258  27.942  10.480
73489W        W40557  30.627   2.779   1.451
73490W        W40558  44.912   5.272  14.397
73491W        W40559  24.557  40.434  14.436
73492W        W40560   8.396  17.208   3.750
73493W        W40561  21.048  42.856   3.757
73494W        W40562  29.541  30.611  11.018
73495W        W40563   4.444   4.884   3.786
73496W        W40564  34.507  15.592   2.684
73497W        W40565   5.412  37.875  14.812
73498W        W40566   4.894  24.683   4.683
73499W        W40567  17.232  27.096   4.322
73500W        W40568  10.222  37.452   1.911
73501W        W40569  17.297  18.732  10.589
73502W        W40570  44.386  43.872  14.988
73503W        W40571  34.583  19.235   0.380
73504W        W40572  31.594  21.139  12.519
73505W        W40573  20.676  15.229   4.345
73506W        W40574  30.913   2.375  10.915
73507W        W40575  16.595   1.846  10.957
73508W        W40576  12.794  39.560   0.753
73509W        W40577   5.851  34.520  12.386
73510W        W40578  43.462  10.862   0.796
73511W        W40579  23.117  17.122   3.646
73512W        W40580   4.888  12.667  12.359
73513W        W40581   7.665  42.908  10.502
73514W        W40582  28.171  43.513   2.292
73515W        W40583  12.185   0.922  14.835
73516W        W40584   7.758  43.318  10.888
73517W        W40585  24.708  32.579   3.252
73518W        W40586  18.680  29.507   3.686
73519W        W40587  43.513   1.820  11.371
73520W        W40588  44.928  39.063  10.509
73521W        W40589   4.938   7.302   3.655
73522W        W40590  25.695  35.389  14.990
73523W        W40591  29.140  30.108   0.803
73524W        W40592  17.784  24.181  14.897
73525W        W40593  21.706  31.435   1.699
73526W        W40594   0.888  12.310  10.538
73527W        W40595  34.486  11.740   2.693
73528W        W40596   4.705   4.856  14.954
73529W        W40597  29.638  12.711   4.736
73530W        W40598   2.899  16.792   4.302
73531W        W40599  43.900  10.792   0.901
73532W        W40600  40.032  11.240   2.732
73533W        W40601   9.320  13.200   3.853
73534W        W40602  17.709  35.385   0.729
73535W        W40603  18.123   1.909  13.469
73536W        W40604   0.353   7.836  11.415
73537W        W40605  41.467  36.485  12.553
73538W        W40606  44.847  18.072   2.854
73539W        W40607   6.915  12.236  11.565
73540W        W40608  27.048  31.455   1.720
73541W        W40609   2.394   3.815   1.332
73542W        W40610  39.934   3.844  10.474
73543W        W40611  28.158  44.481  11.596
73544W        W40612  24.583   7.385   3.639
73545W        W40613  11.219  12.782   1.392
73546W        W40614  40.354  43.820   4.664
73547W        W40615  30.642  36.928   0.401
73548W        W40616   8.321   6.275  14.484
73549W        W40617  24.626   1.753  11.384
73550W        W40618  29.503  30.976  12.885
73551W        W40619  26.569   8.807  11.995
73552W        W40620   8.320   7.810  12.551
73553W        W40621  20.567   2.895  12.543
73554W        W40622  35.104  10.284  10.106
73555W        W40623  30.658  44.761  13.483
73556W        W40624  11.693  14.634   2.677
73557W        W40625  25.520   4.428  14.339
73558W        W40626  40.802  32.499   4.709
73559W        W40627  36.462  37.500  10.079
73560W        W40628  19.658   0.492   0.891
73561W        W40629  20.636  23.132  14.433
73562W        W40630   0.910   5.344  14.796
73563W        W40631  40.971  26.115  11.556
73564W        W40632   4.410  36.047  13.333
73565W        W40633   4.935  23.562  11.952
73566W        W40634  44.346  24.621  14.789
73567W        W40635   4.336   8.698  11.592
73568W        W40636  31.574  41.321  14.999
73569W        W40637   8.169  22.633   3.149
73570W        W40638   6.855  18.101   1.419
73571W        W40639  26.618   2.740  14.856
73572W        W40640  12.233  13.665  11.603
73573W        W40641  17.178  16.782   3.324
73574W        W40642  31.436  16.158   3.303
73575W        W40643   2.952  36.385   1.695
73576W        W40644  38.363  23.988   0.403
73577W        W40645  32.968  16.587   1.354
73578W        W40646  22.562  21.149  10.136
73579W        W40647  17.797  23.584   1.261
73580W        W40648  24.641  44.933  13.436
73581W        W40649  14.144   8.814  14.826
73582W        W40650  34.934  40.386   0.882
73583W        W40651   0.253  44.291   4.298
73584W        W40652  10.849  24.104   0.449
73585W        W40653  21.155  35.441   0.906
73586W        W40654  18.621  44.833  14.427
73587W        W40655  37.428  35.552  10.906
73588W        W40656   4.336   7.325   2.771
73589W        W40657  34.090  22.707  14.862
73590W        W40658  33.035  28.967  14.357
73591W        W40659  28.946  22.158   0.399
73592W        W40660  42.031  43.507  14.814
73593W        W40661  29.013  17.600   1.403
73594W        W40662  41.338  39.852   2.821
73595W        W40663   4.754  24.548  12.970
73596W        W40664  41.367  14.226  14.309
73597W        W40665  15.216  21.093  14.859
73598W        W40666  25.130   5.307   2.780
73599W        W40667  22.220  22.248   2.355
73600W        W40668  22.734   6.277   5.320
73601W        W40669  40.969  23.720   0.733
73602W        W40670   9.341   5.352  11.872
73603W        W40671  10.140  19.702  11.524
73604W        W40672   3.277   9.361   2.403
73605W        W40673  19.172  44.371   2.887
73606W        W40674  19.701   0.818   4.688
73607W        W40675  13.796  30.477   2.198
73608W        W40676  14.233  13.314   1.823
73609W        W40677   9.709  39.050   3.687
73610W        W40678  40.327  44.408  12.379
73611W        W40679  14.102  39.398  14.299
73612W        W40680  15.682  33.086   2.811
73613W        W40681  11.775  22.111  14.831
73614W        W40682  23.600   7.730  11.441
73615W        W40683  16.275  10.255   0.870
73616W        W40684  14.258  29.578   4.264
73617W        W40685  42.424  30.981   4.200
73618W        W40686  13.729   4.788   1.859
73619W        W40687  44.304  23.211  13.440
73620W        W40688   1.422  39.052  10.495
73621W        W40689   4.400  11.648   2.300
73622W        W40690  22.165  25.661  14.876
73623W        W40691   0.281  10.874  14.357
73624W        W40692   0.841  11.813  14.959
73625W        W40693  27.493  38.052   0.795
73626W        W40694  22.557   5.763  12.988
73627W        W40695   7.379  33.049   2.873
73628W        W40696   7.189  39.021  14.284
73629W        W40697  12.733   2.441  14.439
73630W        W40698  44.847  37.877  14.835
73631W        W40699  40.469  34.538  11.550
73632W        W40700  18.645  13.155   2.796
73633W        W40701  40.540  16.773  14.951
73634W        W40702   7.295  42.938  10.144
73635W        W40703  25.686  11.294  11.020
73636W        W40704  19.277   3.376   4.759
73637W        W40705   0.430  28.165  14.399
73638W        W40706   2.453  25.074  11.040
73639W        W40707  31.084  25.173   2.859
73640W        W40708  29.091  18.639  11.483
73641W        W40709  36.487   6.292   0.811
73642W        W40710  33.596  28.167  13.425
73643W        W40711  35.945   7.256   3.147
73644W        W40712  43.277   3.251  12.004
73645W        W40713  25.011  27.117   4.680
73646W        W40714   6.319  31.073   2.312
73647W        W40715  23.706  30.595  10.928
73648W        W40716  31.517   2.228  12.374
73649W        W40717  20.133   4.251   2.700
73650W        W40718  26.067  13.227  12.083
73651W        W40719  26.548  35.573   1.245
73652W        W40720  20.523  36.553   4.718
73653W        W40721   2.934  23.592  10.503
73654W        W40722   6.376   7.826   3.356
73655W        W40723  19.049   8.767  13.346
73656W        W40724  43.375   2.729   2.344
73657W        W40725   3.954  15.299   0.346
73658W        W40726   7.751  19.707   3.360
73659W        W40727  29.111   4.846  12.090
73660W        W40728  38.490  31.573   4.723
73661W        W40729   8.836  17.105   4.688
73662W        W40730  37.002  25.130   3.360
73663W        W40731   8.703   1.741  11.913
73664W        W40732  17.111   3.766  11.928
73665W        W40733  16.739  44.448   1.839
73666W        W40734  33.503  39.328  11.416
73667W        W40735  40.905  13.166   4.216
73668W        W40736   3.771   2.841   0.772
73669W        W40737  34.973  25.577  14.930
73670W        W40738  33.004  24.171   0.921
73671W        W40739  17.589  12.297  14.380
73672W        W40740  38.363  44.865  13.924
73673W        W40741  41.369   6.785  12.901
73674W        W40742  13.787   3.254   2.895
73675W        W40743  40.390   0.273   0.742
73676W        W40744   3.347  25.491  11.053
73677W        W40745   0.354  30.937   3.301
73678W        W40746  20.210  42.374   1.427
73679W        W40747  36.531  16.197  11.593
73680W        W40748  16.779  18.737   4.693
73681W        W40749  23.576  20.080  10.466
73682W        W40750  42.388  27.173  11.419
73683W        W40751  34.009  38.335   3.205
73684W        W40752  17.687   4.787  12.853
73685W        W40753  13.693  33.110  13.007
73686W        W40754  18.203  31.992  13.856
73687W        W40755   6.733  33.557   4.261
73688W        W40756   5.316  10.356   2.215
73689W        W40757  24.108   0.380  14.472
73690W        W40758  26.645  31.409  12.493
73691W        W40759  13.779  24.157   4.712
73692W        W40760  37.378  20.548  11.993
73693W        W40761  29.925   2.743  13.857
73694W        W40762  30.083  15.285   1.402
73695W        W40763  32.984  34.053   3.385
73696W        W40764  42.792  27.100  12.980
73697W        W40765  10.793  38.972  11.578
73698W        W40766  31.032  26.533  14.323
73699W        W40767   0.324  30.632   2.741
73700W        W40768  39.317  36.993  14.852
73701W        W40769  16.696  28.641   3.678
73702W        W40770  35.439  19.263  14.802
73703W        W40771  30.447  29.646   3.657
73704W        W40772  11.247  29.007   2.744
73705W        W40773   4.916   1.881  12.037
73706W        W40774  17.621  36.933   2.712
73707W        W40775  39.468  39.512  10.919
73708W        W40776  32.438   3.790  14.786
73709W        W40777  21.527  42.283   1.896
73710W        W40778  20.668   8.723   3.164
73711W        W40779  38.903   0.289  12.070
73712W        W40780  42.505  32.910   4.184
73713W        W40781   0.376  44.472   1.390
73714W        W40782  34.036  26.150   0.956
73715W        W40783   9.291   4.869  14.885
73716W        W40784  42.502  19.541   3.820
73717W        W40785   7.871  39.961   3.361
73718W        W40786  27.026   1.977  13.052
73719W        W40787   2.835  38.887  12.096
73720W        W40788  10.836  17.080   4.618
73721W        W40789  15.680  13.820   1.891
73722W        W40790  40.874   5.297  11.074
73723W        W40791   8.699  10.343  13.548
73724W        W40792  10.155  11.706   0.923
73725W        W40793  36.909   0.307   3.256
73726W        W40794  27.511  30.045   2.887
73727W        W40795  36.876   0.417  13.387
73728W        W40796  38.995  41.488  12.070
73729W        W40797  13.809  17.075   3.824
73730W        W40798   1.877   4.300   4.837
73731W        W40799  33.976  21.263   4.146
73732W        W40800  29.469  29.568   3.770
73733W        W40801  43.332   1.962   4.275
73734W        W40802   3.842  23.145   2.833
73735W        W40803  19.198  31.541  13.353
73736W        W40804   7.725  10.349   2.748
73737W        W40805   3.455  23.676   1.223
73738W        W40806   0.973  17.147   0.420
73739W        W40807  31.503  23.175  11.497
73740W        W40808  22.208  44.829   4.735
73741W        W40809  43.949  18.200  13.362
73742W        W40810  34.049   4.765  14.921
73743W        W40811  15.777  41.517   1.928
73744W        W40812  28.969   1.976  12.882
73745W        W40813   7.668  32.428  14.942
73746W        W40814   7.717   7.316   2.759
73747W        W40815   1.885  17.766  11.584
73748W        W40816  29.960  28.959  12.530
73749W        W40817  26.516  29.510  14.469
73750W        W40818   8.656   3.339   4.643
73751W        W40819  32.122  26.530   1.814
73752W        W40820  14.760  18.712   3.385
73753W        W40821  33.442  20.628   3.629
73754W        W40822  19.255   3.402  13.897
73755W        W40823  30.153  13.613  12.501
73756W        W40824  30.586  30.505  14.031
73757W        W40825  17.769   5.784  10.552
73758W        W40826  42.966  22.124   3.287
73759W        W40827  44.941  41.993  11.607
73760W        W40828  22.566  30.523  11.488
73761W        W40829   6.733  11.760   1.737
73762W        W40830   4.341  21.640   4.251
73763W        W40831   0.446  20.740   0.373
73764W        W40832  33.021  14.670   3.212
73765W        W40833   8.791  29.588  13.451
73766W        W40834   4.383  32.065   4.833
73767W        W40835  40.533  40.927  13.314
73768W        W40836  44.322   9.816   2.188
73769W        W40837  10.785  13.143   3.158
73770W        W40838   4.316   7.775   3.374
73771W        W40839  18.562  34.378   5.255
73772W        W40840  19.121   8.297   1.791
73773W        W40841  20.145  27.156  13.344
73774W        W40842  16.163   4.355   3.809
73775W        W40843  37.892  17.114  10.511
73776W        W40844  20.135  14.774   4.762
73777W        W40845  23.565  27.975  13.043
73778W        W40846   9.676  44.946  13.034
73779W        W40847   5.778  27.454  12.045
73780W        W40848  38.503  37.451   1.429
73781W        W40849   6.800  28.039   1.443
73782W        W40850  28.960  33.072   1.423
73783W        W40851  17.148  13.164   4.661
73784W        W40852  22.679   4.808   2.864
73785W        W40853   0.767  33.958  14.353
73786W        W40854  26.632  38.392  11.547
73787W        W40855  41.329  29.057  14.377
73788W        W40856  24.090  12.659   3.714
73789W        W40857  27.510   4.942  13.872
73790W        W40858  32.110  11.365   0.754
73791W        W40859  41.987  31.489  10.570
73792W        W40860   5.222  12.706  10.506
73793W        W40861  16.168  13.752  14.427
73794W        W40862  30.063   6.826  12.495
73795W        W40863  44.766  31.053  14.458
73796W        W40864  18.740  36.974  14.864
73797W        W40865  33.612  12.695   4.222
73798W        W40866   0.387  35.064  12.094
73799W        W40867  34.044  33.074   2.419
73800W        W40868  18.605  24.693   1.843
73801W        W40869  18.239  11.668  13.366
73802W        W40870   1.734  25.683   2.411
73803W        W40871  33.061  37.935   1.930
73804W        W40872  37.879  19.592   1.449
73805W        W40873  25.502   7.181   0.935
73806W        W40874  23.734  22.564   1.886
73807W        W40875  28.604  22.525  11.451
73808W        W40876  18.094  34.051   4.790
73809W        W40877   5.861   8.293   3.314
73810W        W40878  39.957  14.185   3.249
73811W        W40879  39.508   9.731   1.413
73812W        W40880   9.311  30.628  12.911
73813W        W40881  30.445  30.552   0.867
73814W        W40882  38.995  21.032  11.061
73815W        W40883  37.340  22.606  12.469
73816W        W40884   2.932   7.403  12.836
73817W        W40885  44.831   3.423   1.777
73818W        W40886   1.852  32.886  12.430
73819W        W40887  34.601  32.069   1.900
73820W        W40888   1.246   1.798   1.793
73821W        W40889  13.344  11.672  12.564
73822W        W40890   2.387  21.047   3.206
73823W        W40891  25.214  43.365   2.362
73824W        W40892  30.042  12.777  13.391
73825W        W40893   8.188  20.099  11.375
73826W        W40894  41.338  22.746  10.492
73827W        W40895   3.746  24.138  12.009
73828W        W40896  42.958  14.831  14.939
73829W        W40897  27.506   7.747  12.077
73830W        W40898  39.051  14.746  14.898
73831W        W40899  17.632  41.480   2.275
73832W        W40900  30.581   8.771  13.992
73833W        W40901   3.781  31.035  10.413
73834W        W40902   8.890   9.775   1.348
73835W        W40903   0.831  43.884  14.961
73836W        W40904  26.687  29.600   2.788
73837W        W40905  37.499  11.307  11.071
73838W        W40906  34.474  28.014   3.359
73839W        W40907  10.703   4.383  14.481
73840W        W40908   1.418   0.906  11.565
73841W        W40909  41.956  42.504   1.247
73842W        W40910   5.921  37.496  14.322
73843W        W40911  35.470  27.483  13.908
73844W        W40912  26.992   9.341  11.068
73845W        W40913  24.019  40.899  13.947
73846W        W40914  24.184  40.443   3.787
73847W        W40915   8.842  34.599   1.710
73848W        W40916  25.045   9.765   0.466
73849W        W40917  35.979  12.799  11.893
73850W        W40918  15.243  22.062   0.438
73851W        W40919  18.734  20.109  12.566
73852W        W40920  40.892  22.654  14.394
73853W        W40921  34.111  22.180   3.701
73854W        W40922  38.510   1.313   2.668
73855W        W40923  22.227  19.161   4.176
73856W        W40924  31.445  37.850   1.421
73857W        W40925   0.750  34.901   4.210
73858W        W40926  20.671   0.485  14.413
73859W        W40927  28.614  31.441  12.352
73860W        W40928  26.158  43.907  11.441
73861W        W40929  35.989  29.439  13.476
73862W        W40930  42.500  28.481   3.283
73863W        W40931   3.917  10.758   0.341
73864W        W40932  11.325  15.234   4.782
73865W        W40933  42.799  17.086  11.567
73866W        W40934  24.593  11.227  14.884
73867W        W40935   6.687  43.285  12.424
73868W        W40936  34.903  40.491  11.098
73869W        W40937  11.851  17.194  10.434
73870W        W40938  44.380  44.271  11.903
73871W        W40939  28.616  37.340   5.127
73872W        W40940  26.615  18.264  13.513
73873W        W40941  32.893  44.003   3.251
73874W        W40942  42.304   2.352   0.281
73875W        W40943   8.875  38.028  11.065
73876W        W40944  11.816  11.687  14.932
73877W        W40945  19.139  41.376  14.318
73878W        W40946   4.415  36.871  10.603
73879W        W40947  40.357  21.590   1.444
73880W        W40948   7.810  31.931   9.931
73881W        W40949  37.468  34.461  11.886
73882W        W40950   0.766  33.093   1.762
73883W        W40951  29.500  40.419   2.820
73884W        W40952  22.180   2.854  12.482
73885W        W40953  16.280  20.106   3.192
73886W        W40954   8.364  35.479  11.928
73887W        W40955  19.164  31.468   3.192
73888W        W40956  25.203  20.743   2.874
73889W        W40957  12.158  43.338   4.636
73890W        W40958  22.560   4.234   1.357
73891W        W40959   5.692  42.299   0.827
73892W        W40960  36.534  31.431   0.766
73893W        W40961  11.701  12.718   4.138
73894W        W40962  44.858  35.060  10.418
73895W        W40963  30.112  27.942  11.517
73896W        W40964  44.781  32.081  11.053
73897W        W40965  22.567  22.532   3.231
73898W        W40966  40.869  12.212   2.861
73899W        W40967  20.531  22.060  12.012
73900W        W40968  26.058  43.379  14.411
73901W        W40969  14.753   8.743   0.810
73902W        W40970  32.120   1.324   1.412
73903W        W40971   2.930  34.876   3.755
73904W        W40972  37.421   9.270  10.914
73905W        W40973   0.965  42.815   4.141
73906W        W40974   0.799  26.662   4.337
73907W        W40975  38.398   6.836  11.885
73908W        W40976  35.507  10.382   4.197
73909W        W40977  24.494  23.217   3.165
73910W        W40978  42.345  14.603   2.883
73911W        W40979   1.785  25.637   1.803
73912W        W40980  39.927   2.822   1.799
73913W        W40981  24.524  16.289  13.976
73914W        W40982   7.314  28.447   3.786
73915W        W40983  22.064  32.932   0.728
73916W        W40984  11.346   6.770   2.261
73917W        W40985  32.913  33.472   0.858
73918W        W40986  37.936  28.623   1.307
73919W        W40987  20.747   6.402  12.401
73920W        W40988   9.746   1.757   3.800
73921W        W40989  22.744  35.875   2.797
73922W        W40990   3.724  27.017  11.095
73923W        W40991  30.632  37.040  14.415
73924W        W40992   6.244  21.526   0.880
73925W        W40993  19.089  15.627   3.289
73926W        W40994  23.605  41.329   4.334
73927W        W40995  43.274  39.970   4.327
73928W        W40996  11.685   4.930  10.997
73929W        W40997  28.184  19.675   2.861
73930W        W40998   2.788  22.557  11.087
73931W        W40999  27.065  22.597   3.229
73932W        W41000  33.523  19.199  14.915
73933W        W41001   8.882  40.894   3.726
73934W        W41002  32.936  35.032   4.749
73935W        W41003  40.871  29.054  11.080
73936W        W41004  40.979  18.285  10.541
73937W        W41005  30.453  35.857  12.063
73938W        W41006  34.389  37.042  11.562
73939W        W41007   4.786  25.584  12.412
73940W        W41008  34.559   9.733  13.369
73941W        W41009  37.844   9.707   3.251
73942W        W41010   6.369  35.052  13.430
73943W        W41011  19.622  16.601  14.784
73944W        W41012  17.604   0.968  11.402
73945W        W41013  17.170  41.930   4.825
73946W        W41014  31.408  21.243  14.801
73947W        W41015  40.330  40.387   5.268
73948W        W41016  20.660  39.849  11.469
73949W        W41017  44.273  25.631  11.067
73950W        W41018   6.428  35.510  12.054
73951W        W41019   7.220  37.361  11.585
73952W        W41020   8.836  16.783  11.897
73953W        W41021   5.354  24.695   2.338
73954W        W41022  18.582  15.779  14.884
73955W        W41023  31.011  12.611  11.965
73956W        W41024  36.405  32.628   1.788
73957W        W41025  41.515  30.920  13.546
73958W        W41026  10.746  26.986   1.261
73959W        W41027  42.815  33.622  13.873
73960W        W41028  18.568  20.565   4.335
73961W        W41029  41.952  37.995   1.757
73962W        W41030  32.046   1.858   0.871
73963W        W41031   2.378  43.273   1.284
73964W        W41032  16.194  35.039   2.664
73965W        W41033  19.637  26.505  13.895
73966W        W41034  10.171  19.121   4.803
73967W        W41035  17.801  42.473   0.738
73968W        W41036  40.479  15.719  13.977
73969W        W41037  31.996  36.938  12.463
73970W        W41038   7.175  43.971  10.478
73971W        W41039  13.277  31.927   2.802
73972W        W41040  43.967  37.943  11.584
73973W        W41041  38.326   7.822  11.051
73974W        W41042   9.759  17.231  13.465
73975W        W41043  28.456  32.551   9.570
73976W        W41044  36.032   8.258   0.881
73977W        W41045   6.905  21.549  12.932
73978W        W41046  10.344   8.213   3.235
73979W        W41047   4.399  31.898  13.368
73980W        W41048   4.419  10.304   0.935
73981W        W41049  32.105  17.292   2.199
73982W        W41050  12.645   2.882  12.368
73983W        W41051  22.136  40.899  14.871
73984W        W41052  34.916  29.475  13.522
73985W        W41053   4.287   5.363  13.329
73986W        W41054  15.796  36.924  11.596
73987W        W41055  32.040  21.675  13.946
73988W        W41056  13.762  38.512   2.845
73989W        W41057  26.586  27.675  12.092
73990W        W41058  43.431  36.568   1.707
73991W        W41059   8.367  25.579   4.815
73992W        W41060  15.213   4.315  14.514
73993W        W41061  43.922  39.019   3.833
73994W        W41062  10.801  44.877   4.331
73995W        W41063  22.227  19.695   0.429
73996W        W41064  17.135  12.851   0.369
73997W        W41065  29.523   7.299  11.093
73998W        W41066   4.770  21.602   1.301
73999W        W41067  39.057  27.595   1.881
74000W        W41068  34.390  15.328  12.569
74001W        W41069  11.832  10.830   0.349
74002W        W41070   3.278  40.500  10.627
74003W        W41071  24.053  41.514   2.753
74004W        W41072  14.206   1.921   3.278
74005W        W41073  12.357  22.691  10.955
74006W        W41074  42.514  13.682  12.482
74007W        W41075  37.386   0.468   4.605
74008W        W41076  19.071  11.346  14.452
74009W        W41077  24.134  34.419  12.891
74010W        W41078  20.625   2.366  10.456
74011W        W41079  21.566  15.659   1.275
74012W        W41080  43.840  30.555  12.986
74013W        W41081  13.170  26.687  12.502
74014W        W41082  33.461  20.647   4.297
74015W        W41083  23.997  23.690   5.212
74016W        W41084  19.073  34.018  14.026
74017W        W41085  31.641   6.248   1.414
74018W        W41086  29.925   4.748  14.342
74019W        W41087  31.416  35.075   2.316
74020W        W41088  33.942  38.335   0.388
74021W        W41089  15.195  32.580  11.940
74022W        W41090  14.245  20.681   0.770
74023W        W41091  17.701  35.936   1.390
74024W        W41092  43.331  35.912  13.000
74025W        W41093  23.524  44.909  14.991
74026W        W41094  19.640  23.501   2.701
74027W        W41095  16.271  37.558  12.554
74028W        W41096  18.108  34.553   2.373
74029W        W41097  13.157  12.734  11.076
74030W        W41098  11.188   6.192   4.264
74031W        W41099   6.253  14.129  13.428
74032W        W41100  40.464  44.338  14.422
74033W        W41101  41.889  39.549   0.784
74034W        W41102  15.329  23.600  14.515
74035W        W41103  35.409  33.034   0.858
74036W        W41104   6.719  26.132  14.369
74037W        W41105  24.035  15.228   3.724
74038W        W41106  21.597  19.583   5.124
74039W        W41107  33.454  30.069   3.152
74040W        W41108  11.167   9.366   1.414
74041W        W41109  33.598  40.890   0.369
74042W        W41110  26.173   6.373   3.259
74043W        W41111  27.969  27.607  13.021
74044W        W41112  25.155  18.145  14.422
74045W        W41113   7.901  43.374   0.961
74046W        W41114  12.697  38.516   4.648
74047W        W41115   7.783  14.595  11.010
74048W        W41116   6.907  29.627   4.694
74049W        W41117   7.406  27.188   0.373
74050W        W41118  25.975  29.617   2.276
74051W        W41119  19.158  20.114  12.928
74052W        W41120  12.122  43.458   1.236
74053W        W41121   6.898  37.955  12.387
74054W        W41122  23.636  39.540   4.692
74055W        W41123  37.509  19.747  14.440
74056W        W41124  20.696  37.437  11.991
74057W        W41125  15.739  22.675   1.724
74058W        W41126  44.341  25.623   4.271
74059W        W41127   2.749  30.049   4.232
74060W        W41128  23.716   6.740  10.539
74061W        W41129  35.482  20.627   2.711
74062W        W41130  28.569  17.560  12.858
74063W        W41131   8.398   2.277  10.406
74064W        W41132  13.348  29.991  14.906
74065W        W41133  42.339   4.724   0.883
74066W        W41134  24.075  16.172  12.978
74067W        W41135  32.505   0.404  12.082
74068W        W41136  33.524  22.147   1.303
74069W        W41137  33.130  44.941  12.890
74070W        W41138  11.639  12.749   3.719
74071W        W41139  42.459  22.128   2.393
74072W        W41140  21.179  42.996  11.592
74073W        W41141  30.993  21.521   0.257
74074W        W41142  19.539   6.426  11.580
74075W        W41143   3.257  36.511  13.888
74076W        W41144   2.800   4.909  10.438
74077W        W41145  27.116  22.106   0.458
74078W        W41146  34.884  39.975   3.214
74079W        W41147  35.024  44.360  10.013
74080W        W41148   0.397  15.215   4.185
74081W        W41149  16.624  38.894  13.426
74082W        W41150  34.936   1.890  12.992
74083W        W41151  28.437  21.553   4.687
74084W        W41152  15.721   9.748   5.137
74085W        W41153  44.429  32.627  11.890
74086W        W41154   3.858  10.155  13.031
74087W        W41155  12.262   9.228  11.942
74088W        W41156  17.575   1.828   4.690
74089W        W41157  24.070  10.170  12.876
74090W        W41158  32.988  38.851  14.479
74091W        W41159  30.119  11.688   2.771
74092W        W41160  23.112  37.566   4.203
74093W        W41161  11.672  18.288  13.443
74094W        W41162  38.925  34.018  10.953
74095W        W41163  30.128  40.955   4.189
74096W        W41164   2.239  31.108  10.912
74097W        W41165  40.417  18.232  13.999
74098W        W41166  12.803  20.640   3.301
74099W        W41167   0.752  30.537   4.280
74100W        W41168  12.126  17.283  10.544
74101W        W41169  30.658  24.076  11.103
74102W        W41170  10.279  16.203   1.310
74103W        W41171   2.410  13.218  13.021
74104W        W41172   6.885  21.548   5.624
74105W        W41173  33.890  12.323   2.309
74106W        W41174   6.192  19.105   0.454
74107W        W41175  18.092  10.342  10.570
74108W        W41176   6.719  35.534   0.303
74109W        W41177  39.436  41.384   0.365
74110W        W41178   9.385  44.895   1.750
74111W        W41179   9.225  35.485  14.889
74112W        W41180   7.294  39.392   4.279
74113W        W41181  39.829  24.084   3.231
74114W        W41182  40.388  35.483   3.782
74115W        W41183  23.073  44.406   1.727
74116W        W41184  28.127  22.564   1.427
74117W        W41185  28.994  25.526  13.861
74118W        W41186  22.240  20.759   4.665
74119W        W41187  42.300   1.303  10.557
74120W        W41188  35.875  33.074  10.521
74121W        W41189  26.067  19.567   1.249
74122W        W41190   5.434  27.053   0.735
74123W        W41191  14.731  12.135  10.639
74124W        W41192  22.679  36.493  12.373
74125W        W41193  34.029   6.732  13.010
74126W        W41194  18.626  43.424  13.057
74127W        W41195  36.009  29.989   3.834
74128W        W41196  28.535  37.872   1.379
74129W        W41197  13.107  17.153   0.401
74130W        W41198  43.383  41.505  12.509
74131W        W41199  36.432  18.093  11.061
74132W        W41200   8.809  25.153  13.853
74133W        W41201  32.004  24.613  13.408
74134W        W41202  39.834  39.863  11.119
74135W        W41203  11.821  35.073  14.499
74136W        W41204   2.794  23.117  12.986
74137W        W41205   1.406  27.452  10.528
74138W        W41206  29.481  40.412   0.362
74139W        W41207   9.715  38.406  13.986
74140W        W41208  14.642   9.287  13.061
74141W        W41209   7.673   8.752   3.176
74142W        W41210  23.626  10.342   2.709
74143W        W41211  16.684  15.277  14.773
74144W        W41212   0.768  11.357  12.422
74145W        W41213  25.158   3.855   0.336
74146W        W41214  20.671   2.788   0.242
74147W        W41215  41.532  12.265   2.720
74148W        W41216  33.942  31.913  11.442
74149W        W41217   8.314  15.782  11.938
74150W        W41218  34.464   5.352   3.657
74151W        W41219   0.782   3.263   1.894
74152W        W41220   8.695  32.935   4.187
74153W        W41221  15.108   1.897   2.347
74154W        W41222  44.426  16.262  12.539
74155W        W41223  20.102  24.610  12.985
74156W        W41224   7.681  14.138  12.964
74157W        W41225  14.620  35.384   1.723
74158W        W41226  31.929   8.235  14.945
74159W        W41227   1.428  25.006   4.778
74160W        W41228  26.122  15.813   1.704
74161W        W41229  13.795  19.234   4.693
74162W        W41230  31.901  28.174   0.875
74163W        W41231   6.771  14.334   3.783
74164W        W41232  41.307   1.268  13.327
74165W        W41233  17.066  18.197   2.381
74166W        W41234  22.662  20.570  10.414
74167W        W41235   8.768  27.058   4.711
74168W        W41236  30.626   5.896   3.851
74169W        W41237  32.524  14.818   2.379
74170W        W41238   7.701   9.831  14.766
74171W        W41239  29.518  21.022  10.021
74172W        W41240  20.076  44.856  14.859
74173W        W41241   5.731  11.147  11.864
74174W        W41242   9.370  30.099  10.929
74175W        W41243  15.243  34.502   1.902
74176W        W41244  18.132  17.736   3.310
74177W        W41245  23.213  25.113  11.612
74178W        W41246  10.805   0.441   4.143
74179W        W41247  20.132  35.432  13.460
74180W        W41248  34.010  10.241   3.831
74181W        W41249  17.158   7.202   2.344
74182W        W41250  38.461  10.840   2.767
74183W        W41251  10.351   2.816   3.693
74184W        W41252   8.373  35.108   4.700
74185W        W41253   4.749  43.907  10.572
74186W        W41254   3.337   5.762  12.863
74187W        W41255  44.349  43.012  13.472
74188W        W41256  19.637  33.018   4.815
74189W        W41257  43.795   8.819  12.494
74190W        W41258  40.502  16.166  11.073
74191W        W41259  11.838   8.171  12.834
74192W        W41260  34.920  36.876  10.628
74193W        W41261  40.008  14.829  13.424
74194W        W41262   0.922  10.163   0.854
74195W        W41263  18.123  16.747  13.495
74196W        W41264  11.216  16.135   4.288
74197W        W41265  32.562  41.907  13.011
74198W        W41266  36.971   6.306  11.393
74199W        W41267  37.066  35.581  13.865
74200W        W41268   6.385   6.245   3.665
74201W        W41269  33.553   1.751   3.869
74202W        W41270  40.338   3.352  13.425
74203W        W41271  34.432  17.097   0.274
74204W        W41272  25.642  29.080  14.861
74205W        W41273  30.048  34.441   2.794
74206W        W41274  25.113   4.865   5.244
74207W        W41275  15.116  40.894  11.508
74208W        W41276  19.241  11.834  12.522
74209W        W41277  34.087  23.136  12.522
74210W        W41278  25.485  29.044  13.032
74211W        W41279  41.481  16.097  13.839
74212W        W41280   5.706  40.339   0.806
74213W        W41281  43.326  22.166  14.981
74214W        W41282  25.060  13.695  12.998
74215W        W41283  18.726  34.530  13.059
74216W        W41284  25.072   5.769   3.386
74217W        W41285   0.325  40.054   0.805
74218W        W41286   0.840  15.812  14.844
74219W        W41287  21.643  24.165   2.792
74220W        W41288  20.092  43.438   1.248
74221W        W41289  21.694  40.327  14.418
74222W        W41290  38.458  24.486   3.286
74223W        W41291  19.267   5.231  14.762
74224W        W41292   7.397  32.057   3.748
74225W        W41293  38.846  41.954   3.368
74226W        W41294  22.702   9.826   1.768
74227W        W41295  16.719  13.342  12.391
74228W        W41296  18.072  28.480   3.314
74229W        W41297  44.431  20.032  12.888
74230W        W41298  19.270   9.389   2.867
74231W        W41299   9.797  31.897   0.833
74232W        W41300  15.717  33.594  14.432
74233W        W41301  27.458  29.981  12.076
74234W        W41302   7.892  16.085  13.837
74235W        W41303  39.393  13.211   4.201
74236W        W41304   3.710  22.120  12.414
74237W        W41305  42.785   3.359  10.558
74238W        W41306  13.177   1.736  11.065
74239W        W41307  18.189  37.429   5.290
74240W        W41308  32.982  12.690   0.247
74241W        W41309   3.784  10.771  10.979
74242W        W41310  26.097  21.080   4.275
74243W        W41311   9.389   6.421   3.830
74244W        W41312   7.794   1.816   3.814
74245W        W41313  30.432  21.063  10.407
74246W        W41314  12.775  34.435  12.559
74247W        W41315   8.836   0.418   4.338
74248W        W41316  38.859  33.903  14.441
74249W        W41317  33.411   1.293   4.210
74250W        W41318  41.472  42.030  12.847
74251W        W41319   6.261  36.481  14.433
74252W        W41320  26.117   1.352   4.347
74253W        W41321   5.248  43.294   2.757
74254W        W41322  29.953  38.448  11.911
74255W        W41323  20.587  24.633   4.351
74256W        W41324  11.833   0.454   2.850
74257W        W41325  28.649   0.484  14.771
74258W        W41326  23.564  16.118   4.639
74259W        W41327  16.767  20.074   0.947
74260W        W41328   4.848   2.954  13.350
74261W        W41329   1.753  32.402   4.618
74262W        W41330   8.857  12.778  14.357
74263W        W41331   4.931  43.392   1.718
74264W        W41332  22.603  41.374  12.540
74265W        W41333  33.439  28.099   0.312
74266W        W41334  26.617  16.771   2.233
74267W        W41335  22.197   7.175   2.767
74268W        W41336  22.701  22.065  10.148
74269W        W41337  26.026  11.621   0.967
74270W        W41338  37.833  31.555   1.274
74271W        W41339  10.875   1.895   1.766
74272W        W41340  10.254   4.926  13.858
74273W        W41341  19.111  14.725   4.275
74274W        W41342  11.840  11.820  12.372
74275W        W41343   5.692  20.264  14.466
74276W        W41344  32.552   9.649   2.305
74277W        W41345  33.577  34.077   4.818
74278W        W41346   6.313  14.234   0.930
74279W        W41347  39.886  10.718   1.720
74280W        W41348   8.681  35.959  11.404
74281W        W41349  27.649   2.411   2.402
74282W        W41350  26.954   4.329  12.346
74283W        W41351  31.510   5.355   0.792
74284W        W41352  38.324  23.728   4.619
74285W        W41353  29.665  32.544   0.769
74286W        W41354  37.452  30.421  11.601
74287W        W41355  25.568  35.366   1.803
74288W        W41356  44.777  31.046  13.971
74289W        W41357  21.679   9.325   1.385
74290W        W41358  20.528  32.470   3.739
74291W        W41359  19.605  28.659   1.421
74292W        W41360  39.867   9.329   3.666
74293W        W41361  42.778   1.332   4.221
74294W        W41362  27.460   4.261   2.685
74295W        W41363   9.775  22.647  12.381
74296W        W41364  25.178  18.758   2.410
74297W        W41365  19.596  11.706  12.891
74298W        W41366  30.498  20.535  14.904
74299W        W41367   6.811  11.723   2.196
74300W        W41368   8.358  33.592  12.951
74301W        W41369  21.123  35.916  13.348
74302W        W41370   6.781  36.504  14.912
74303W        W41371  40.998  13.798   0.877
74304W        W41372  22.656  21.075  13.956
74305W        W41373  21.725   2.333   3.308
74306W        W41374  36.041  11.761   1.746
74307W        W41375   2.763  18.066  14.420
74308W        W41376  10.192   3.458  11.036
74309W        W41377  12.626  28.588  12.520
74310W        W41378  35.516  16.575   2.871
74311W        W41379  43.864   3.709  10.491
74312W        W41380  15.660  40.978  11.987
74313W        W41381  21.547  27.652   3.723
74314W        W41382   0.772  33.936   0.398
74315W        W41383  20.032  40.435  11.076
74316W        W41384  31.411  40.396  11.983
74317W        W41385  44.451   7.346   2.267
74318W        W41386   0.357  15.795   4.600
74319W        W41387   8.204  33.925   2.360
74320W        W41388  23.056  42.512  13.900
74321W        W41389   9.183   4.881  11.596
74322W        W41390  20.236  43.792   0.409
74323W        W41391  27.565  35.937   4.600
74324W        W41392  30.078  26.532   1.441
74325W        W41393  26.614  29.936   0.798
74326W        W41394  21.215  22.160   3.243
74327W        W41395  10.699   5.395  11.452
74328W        W41396   6.418  23.075   3.772
74329W        W41397  31.529  41.454  10.481
74330W        W41398  17.641  20.094   9.677
74331W        W41399   5.328  25.192   0.743
74332W        W41400  28.181  10.723   0.405
74333W        W41401  21.241  38.470   5.206
74334W        W41402   6.260  22.158  12.488
74335W        W41403   4.379  13.779   3.713
74336W        W41404  42.953  13.224  13.833
74337W        W41405  32.635  18.288   3.814
74338W        W41406  31.634   0.423  11.004
74339W        W41407  28.664  29.980   4.741
74340W        W41408  37.904  35.890   1.729
74341W        W41409  33.443  28.454   0.783
74342W        W41410  11.241  39.839  11.973
74343W        W41411  20.631   5.392  13.938
74344W        W41412  31.960  19.618  14.876
74345W        W41413  44.754  39.487   3.734
74346W        W41414  36.082   4.434  13.394
74347W        W41415  37.917   4.337  13.308
74348W        W41416  33.104  32.472   1.843
74349W        W41417   2.330  36.984   2.776
74350W        W41418  38.523  22.624   2.741
74351W        W41419  32.895  41.420  12.883
74352W        W41420  30.127  30.598  14.903
74353W        W41421  37.897   8.217  10.958
74354W        W41422  27.683   2.367   0.462
74355W        W41423  21.104  13.261  13.063
74356W        W41424  28.128   7.260  10.480
74357W        W41425  22.137  24.478   2.285
74358W        W41426  21.089  44.773   9.951
74359W        W41427  24.068  15.641  12.987
74360W        W41428   9.764  37.918  14.907
74361W        W41429   9.230  44.837  13.354
74362W        W41430  11.724   9.225   4.732
74363W        W41431  43.282  37.338   3.368
74364W        W41432   5.900  35.490   3.652
74365W        W41433  27.647  19.284  13.312
74366W        W41434   7.180  41.336  10.559
74367W        W41435  11.141  28.152   3.739
74368W        W41436   3.851   3.779  13.428
74369W        W41437  44.809  38.046   2.902
74370W        W41438   0.252   8.220  12.538
74371W        W41439  43.458   0.464   0.831
74372W        W41440  26.198  24.199  10.520
74373W        W41441  18.292  22.650  10.901
74374W        W41442  16.678   4.426   1.226
74375W        W41443  42.000  25.199   3.695
74376W        W41444  17.105  19.585   5.121
74377W        W41445  20.648   1.888   3.304
74378W        W41446  14.651  44.374   2.381
74379W        W41447  44.832  10.372   3.758
74380W        W41448  39.993   2.325  11.511
74381W        W41449  37.534  23.034  12.415
74382W        W41450  36.496  33.021  11.885
74383W        W41451  22.579   9.857  10.417
74384W        W41452  10.682  34.972  13.372
74385W        W41453  14.736   0.778  12.847
74386W        W41454  22.646   1.281   9.996
74387W        W41455  39.424   0.828   3.298
74388W        W41456  22.645  22.635  12.989
74389W        W41457  31.471  37.019  10.622
74390W        W41458  16.633  34.383   2.326
74391W        W41459   0.251  30.915   2.280
74392W        W41460  15.631   8.232  11.438
74393W        W41461  23.611  12.686  14.838
74394W        W41462  19.621  19.636  13.957
74395W        W41463  11.729  28.484   4.812
74396W        W41464  14.819  30.070  13.361
74397W        W41465  43.867  32.985   4.700
74398W        W41466   3.397  31.148   0.431
74399W        W41467   5.217   4.942   2.764
74400W        W41468  37.441   7.241   0.333
74401W        W41469  24.152  27.621   2.373
74402W        W41470   7.190  44.408  11.058
74403W        W41471  31.555  34.936  12.830
74404W        W41472  24.211  25.162  11.441
74405W        W41473  25.664  26.953  10.589
74406W        W41474  41.867  24.643   3.803
74407W        W41475   6.742  27.135  12.500
74408W        W41476  40.460  30.093   0.254
74409W        W41477   3.407   7.368   0.387
74410W        W41478  38.386  20.694  12.519
74411W        W41479   9.832  43.896  11.943
74412W        W41480  21.545   7.270  14.019
74413W        W41481  32.074  31.130   4.211
74414W        W41482  33.512  35.887   0.449
74415W        W41483  11.792   6.319   3.365
74416W        W41484  29.444  11.151  13.373
74417W        W41485   7.299  30.912   4.802
74418W        W41486   4.722  24.046  12.397
74419W        W41487  40.864   2.788  11.993
74420W        W41488  13.218  34.032  10.971
74421W        W41489  23.991   2.934   3.367
74422W        W41490  23.013   0.435  10.950
74423W        W41491  20.028  25.039  10.917
74424W        W41492  33.022  39.915  11.072
74425W        W41493   1.860   8.327   1.887
74426W        W41494  19.671  33.973  11.536
74427W        W41495   2.736  33.525   3.820
74428W        W41496  35.583  21.150  13.042
74429W        W41497  28.082  38.456  13.885
74430W        W41498  42.473  32.975  13.351
74431W        W41499  24.995  14.626   1.851
74432W        W41500  35.856  40.896  12.546
74433W        W41501  17.228  34.585   3.188
74434W        W41502  42.025  25.597  12.462
74435W        W41503  35.024  11.856   3.860
74436W        W41504  37.974   4.272   4.643
74437W        W41505  19.543  38.994  12.080
74438W        W41506  23.140  25.014  14.783
74439W        W41507  14.096   2.226  11.921
74440W        W41508  32.544  22.044  13.828
74441W        W41509  28.008  44.786   0.266
74442W        W41510  14.105   7.210   2.413
74443W        W41511  39.949  24.149  11.410
74444W        W41512   1.803  20.600  11.913
74445W        W41513  14.778  33.421   0.327
74446W        W41514  34.554  32.995   4.677
74447W        W41515  23.998   3.743   0.877
74448W        W41516   6.182  29.603   3.318
74449W        W41517   8.774  25.210   3.723
74450W        W41518  39.980  29.039  13.330
74451W        W41519  24.619   3.760   1.401
74452W        W41520  44.276  42.343  13.414
74453W        W41521  18.692  35.404   2.244
74454W        W41522  40.506   7.404  14.458
74455W        W41523  28.177  22.184  12.462
74456W        W41524  36.383  16.636   2.735
74457W        W41525  18.709   0.807   1.299
74458W        W41526  21.676  30.059   1.728
74459W        W41527  22.012  22.625  13.831
74460W        W41528  18.175   2.927   1.838
74461W        W41529  39.520  30.461   2.383
74462W        W41530   7.820  28.186   3.690
74463W        W41531  39.899  29.423   1.915
74464W        W41532  27.537  36.563  12.053
74465W        W41533  32.445  29.658   4.316
74466W        W41534  36.083  25.706  14.895
74467W        W41535  44.339  11.789  14.278
74468W        W41536  44.430   4.880   0.459
74469W        W41537  36.366  37.058   2.350
74470W        W41538   8.372   3.724   3.168
74471W        W41539   4.849  24.604  10.957
74472W        W41540  43.020   2.382   2.838
74473W        W41541   6.791  22.675  14.355
74474W        W41542  11.797  24.616   4.629
74475W        W41543   2.817  33.403   1.933
74476W        W41544  20.621  23.712   1.902
74477W        W41545   4.283  39.005   0.314
74478W        W41546   4.263  14.103  13.900
74479W        W41547  22.190  27.951   2.685
74480W        W41548  40.340  38.874  12.891
74481W        W41549  41.861  22.693   2.363
74482W        W41550  15.600   9.789   0.246
74483W        W41551   9.683  36.096   4.199
74484W        W41552  27.670  31.921  13.955
74485W        W41553   2.833  28.437  13.496
74486W        W41554  12.244  29.006   4.755
74487W        W41555  13.664   6.817  14.297
74488W        W41556   9.726  40.471   4.314
74489W        W41557  39.840  12.643  11.942
74490W        W41558   0.973  24.696  12.859
74491W        W41559  39.811  30.135   3.261
74492W        W41560  39.016  29.946   2.770
74493W        W41561  12.222  27.553  11.469
74494W        W41562  42.287   3.375   0.881
74495W        W41563   2.446  35.441  11.096
74496W        W41564  42.020  33.000   1.344
74497W        W41565   7.891  44.952   1.302
74498W        W41566  35.478  23.100   1.311
74499W        W41567  42.829  41.349  13.423
74500W        W41568   4.907  20.158  12.972
74501W        W41569  14.751  41.867  12.967
74502W        W41570   8.691  15.600   3.227
74503W        W41571  17.295  19.665   1.860
74504W        W41572   5.779  20.198  11.548
74505W        W41573  44.882  43.879   2.243
74506W        W41574  22.687  17.802  13.345
74507W        W41575  32.526   4.340   2.682
74508W        W41576  24.157  10.758  14.892
74509W        W41577  42.976  13.297   2.370
74510W        W41578  13.802   8.257   3.362
74511W        W41579  21.073  10.320   3.837
74512W        W41580  28.625  44.379   3.659
74513W        W41581  12.801  36.905  10.441
74514W        W41582  41.885  23.990   1.299
74515W        W41583  22.720  10.663   2.740
74516W        W41584  43.815  10.166   1.442
74517W        W41585  29.543  32.553   2.345
74518W        W41586  17.068  16.290   4.287
74519W        W41587  14.147  34.404  11.875
74520W        W41588  12.706  32.913  13.389
74521W        W41589  29.950  11.305   4.323
74522W        W41590  17.300  14.162   1.443
74523W        W41591   8.256   0.856   3.657
74524W        W41592  27.120  38.370  13.048
74525W        W41593   7.246  29.035   2.797
74526W        W41594   1.291   3.888   3.633
74527W        W41595  28.144  38.009  11.467
74528W        W41596  23.197   4.251  13.859
74529W        W41597  30.413  44.982   4.670
74530W        W41598  37.353  34.056  11.501
74531W        W41599  13.741  17.158  14.912
74532W        W41600  15.586  40.979   2.790
74533W        W41601   6.883  13.652   0.374
74534W        W41602  13.293  37.526   5.314
74535W        W41603   1.418   4.927  11.609
74536W        W41604   1.430  18.120   1.432
74537W        W41605   8.788  31.528   1.711
74538W        W41606  39.026  16.611  10.129
74539W        W41607   6.245   8.857  14.333
74540W        W41608   5.408  43.390  14.789
74541W        W41609  32.418  12.785   1.363
74542W        W41610  15.580  28.481   1.298
74543W        W41611  23.083  25.157  13.055
74544W        W41612  35.873  15.799  11.028
74545W        W41613  15.810  10.694   9.947
74546W        W41614   4.276  30.089  12.891
74547W        W41615  41.510   6.722  14.358
74548W        W41616  37.032  22.011   2.816
74549W        W41617  41.319   2.853   1.745
74550W        W41618   1.467  24.222  12.499
74551W        W41619  25.993  26.031   2.832
74552W        W41620  12.613   0.400  12.484
74553W        W41621  26.524  41.390   3.637
74554W        W41622  35.906  12.683   2.352
74555W        W41623  37.991  12.320  11.972
74556W        W41624  21.237  14.332  13.899
74557W        W41625   3.725  31.108  12.551
74558W        W41626  20.532  23.144   2.890
74559W        W41627  20.585   4.302  10.948
74560W        W41628  25.556  19.082  13.368
74561W        W41629   5.735  30.919  10.963
74562W        W41630  13.322  19.754  12.559
74563W        W41631  21.073  30.962   2.752
74564W        W41632  41.028  40.903  10.938
74565W        W41633  24.486  43.016   2.206
74566W        W41634   9.290  24.574   3.802
74567W        W41635  41.444  43.462   2.290
74568W        W41636   8.717  11.287   0.288
74569W        W41637  15.183  24.491  12.506
74570W        W41638  26.611  11.717   0.457
74571W        W41639  14.646  34.945  13.863
74572W        W41640   7.706   3.754  12.519
74573W        W41641   7.332  28.463  14.990
74574W        W41642  18.066  44.420   3.232
74575W        W41643  43.408  22.699   0.275
74576W        W41644  22.070  38.548   4.129
74577W        W41645  18.202  22.585  12.529
74578W        W41646   1.807  26.978  11.527
74579W        W41647  28.481   7.854   1.876
74580W        W41648  44.368   7.761  10.947
74581W        W41649  33.606   9.308  10.604
74582W        W41650   3.716  28.045   0.330
74583W        W41651  27.101  36.494  12.995
74584W        W41652  15.718  15.310   4.811
74585W        W41653  24.021  41.829   4.778
74586W        W41654  18.766  41.370  13.330
74587W        W41655  10.246  29.121  10.451
74588W        W41656  30.926  14.666   1.307
74589W        W41657  31.445  24.510   5.310
74590W        W41658  12.634  29.054  10.569
74591W        W41659   1.249  10.791  13.485
74592W        W41660  10.306  33.034   0.965
74593W        W41661   0.781  26.007  13.899
74594W        W41662   4.938  30.105  12.404
74595W        W41663  15.705  13.283   2.254
74596W        W41664  39.991  39.030  11.569
74597W        W41665  21.525  25.100   5.264
74598W        W41666  44.480   5.782   2.770
74599W        W41667  34.507  37.995  12.849
74600W        W41668  29.962  20.041  11.961
74601W        W41669  26.208  25.576  10.940
74602W        W41670   4.318   0.328  11.876
74603W        W41671  32.904  40.519  13.020
74604W        W41672   9.151  32.140  13.908
74605W        W41673  42.780  30.621   0.252
74606W        W41674  22.120  17.709  14.289
74607W        W41675   5.424  27.475  10.404
74608W        W41676   1.887  24.522  13.460
74609W        W41677   7.764  22.639   1.832
74610W        W41678  42.343  16.593  14.921
74611W        W41679  10.191  34.920   2.837
74612W        W41680   4.324  41.853   2.238
74613W        W41681  23.236   3.410  11.998
74614W        W41682   7.749  14.095   1.238
74615W        W41683  34.434   9.833   3.785
74616W        W41684  17.135  29.459   3.733
74617W        W41685  25.011   5.311   3.367
74618W        W41686  15.157  13.636   0.882
74619W        W41687  30.641   3.238  10.524
74620W        W41688  14.741  24.992  11.402
74621W        W41689  27.026  11.169  11.020
74622W        W41690  36.056  18.231  14.453
74623W        W41691  43.376  14.109  10.931
74624W        W41692   3.416  15.154   3.302
74625W        W41693  21.663  17.617  12.947
74626W        W41694   8.791  41.848  10.588
74627W        W41695  29.101   5.756   3.219
74628W        W41696   6.182  41.459  11.583
74629W        W41697  29.131  10.721  13.422
74630W        W41698  39.847  24.688   2.850
74631W        W41699  26.514  42.414   3.149
74632W        W41700  40.809  36.591  11.961
74633W        W41701  28.962  18.074  11.494
74634W        W41702  19.690  22.159   4.682
74635W        W41703   4.719  40.905  11.578
74636W        W41704  19.605  19.204   2.724
74637W        W41705  33.957  11.719  12.559
74638W        W41706  39.487  12.239   3.298
74639W        W41707  26.698  26.672  14.346
74640W        W41708  11.713  18.702   0.872
74641W        W41709  30.560   3.719   3.170
74642W        W41710  44.409  40.034   4.117
74643W        W41711  22.707  17.259   4.224
74644W        W41712  38.518  43.800   4.777
74645W        W41713  39.404  22.025  12.448
74646W        W41714   6.866   7.897   3.330
74647W        W41715  32.395  44.343   4.664
74648W        W41716  27.499  18.587  10.406
74649W        W41717  22.138  23.138   2.698
74650W        W41718   3.869  39.808  12.473
74651W        W41719  32.504  32.423  14.872
74652W        W41720  31.123   3.859  11.553
74653W        W41721   4.444  16.109   1.810
74654W        W41722  11.693  44.448   4.277
74655W        W41723  21.529  19.212   0.399
74656W        W41724  36.547  18.752  13.468
74657W        W41725   4.248   9.227  14.384
74658W        W41726  21.644  35.493  12.360
74659W        W41727  14.714   4.832  13.351
74660W        W41728   1.802   7.283   4.119
74661W        W41729  39.469   5.766   2.868
74662W        W41730  27.172  41.879   2.663
74663W        W41731  29.539  36.534   0.770
74664W        W41732   6.800  18.599  10.559
74665W        W41733  28.595  13.714  11.882
74666W        W41734  35.370  22.522  12.036
74667W        W41735  41.538  26.137  13.331
74668W        W41736  33.600  44.283   4.712
74669W        W41737  24.147  40.467  14.354
74670W        W41738  25.173  23.239  11.059
74671W        W41739   4.340  38.497   0.801
74672W        W41740  31.091  23.180   2.795
74673W        W41741  29.949  32.635  13.909
74674W        W41742  17.277  35.538  10.597
74675W        W41743  39.429  16.115  10.970
74676W        W41744  36.576   2.799   3.368
74677W        W41745  23.724   9.315   2.184
74678W        W41746  29.001   5.319  11.605
74679W        W41747   5.207  37.017   3.757
74680W        W41748  21.590  26.692  12.950
74681W        W41749  34.108  25.642  11.878
74682W        W41750  38.007  18.574   4.171
74683W        W41751  21.749  16.677   2.399
74684W        W41752   2.283  20.578  12.447
74685W        W41753  13.663  15.761   4.605
74686W        W41754  42.298   3.877  11.575
74687W        W41755  42.994   4.306   2.230
74688W        W41756  40.530  35.993   5.319
74689W        W41757  16.789  38.423  14.400
74690W        W41758   9.821  39.372  14.987
74691W        W41759  14.136   9.359   0.742
74692W        W41760  37.862  32.097   0.345
74693W        W41761   4.232  34.056  11.023
74694W        W41762  32.430   2.769  14.399
74695W        W41763  23.211  39.823   3.249
74696W        W41764  14.735  25.623   4.284
74697W        W41765  31.411   1.423  12.829
74698W        W41766   2.727  36.019   2.712
74699W        W41767   8.676  13.164  13.353
74700W        W41768   3.934  35.593  12.824
74701W        W41769  24.214  12.332  12.909
74702W        W41770  26.694  44.931   1.785
74703W        W41771  44.491   2.947   1.255
74704W        W41772   2.260  18.253   3.340
74705W        W41773  32.891  21.143   3.386
74706W        W41774  10.162  10.766  14.882
74707W        W41775  39.967  32.635  13.891
74708W        W41776  27.632   7.783   3.650
74709W        W41777  10.651  29.615   3.227
74710W        W41778  19.633  34.921  13.478
74711W        W41779   5.694  24.566   2.179
74712W        W41780   2.783   2.754  11.460
74713W        W41781  12.762  11.273   3.217
74714W        W41782  18.665   5.329  10.939
74715W        W41783  24.503  34.397   4.196
74716W        W41784  17.573   5.210  14.370
74717W        W41785  34.011  14.102   0.325
74718W        W41786  40.899   8.803   4.662
74719W        W41787  31.513  11.723  14.861
74720W        W41788  38.828  20.665   3.232
74721W        W41789   0.473  41.923   1.739
74722W        W41790  12.618   1.731   4.813
74723W        W41791   7.380   6.865  11.874
74724W        W41792  12.828  27.616  11.406
74725W        W41793  34.997  34.045  12.489
74726W        W41794  36.088  11.169   0.344
74727W        W41795  36.855  14.803   3.200
74728W        W41796  10.278   4.279   0.288
74729W        W41797   5.227   0.374   1.881
74730W        W41798  18.071  19.779   1.832
74731W        W41799  33.944  30.543   4.729
74732W        W41800  27.649   8.840   2.279
74733W        W41801   1.465  24.091   1.232
74734W        W41802  24.617  24.649   1.813
74735W        W41803   7.324  39.394  10.404
74736W        W41804   6.189  17.245   1.403
74737W        W41805  21.538  32.988  12.471
74738W        W41806   3.778  40.902   0.480
74739W        W41807  15.807  14.210   4.234
74740W        W41808  17.280   7.733   5.147
74741W        W41809   3.438  41.475  10.447
74742W        W41810  11.817  30.948  11.857
74743W        W41811  30.161  20.753   1.850
74744W        W41812  40.457  17.215   2.267
74745W        W41813  38.521  22.099  14.464
74746W        W41814   5.418  32.637   2.293
74747W        W41815  38.864  42.959   4.716
74748W        W41816  21.191  40.952   1.390
74749W        W41817  20.551  14.773   1.240
74750W        W41818  32.622  20.743  13.495
74751W        W41819  43.888  19.589   3.691
74752W        W41820  22.073  12.247  13.007
74753W        W41821  10.342  14.186  12.827
74754W        W41822   9.717  19.230  14.322
74755W        W41823  36.042   7.417   2.291
74756W        W41824  15.692  43.772   0.455
74757W        W41825   1.377  15.680   3.654
74758W        W41826  19.684  38.479  13.913
74759W        W41827  27.046  26.202  14.305
74760W        W41828   9.755  19.188  14.013
74761W        W41829  37.929  42.785  14.765
74762W        W41830  16.260  15.293   1.736
74763W        W41831   1.927  34.455  11.969
74764W        W41832  29.428  15.642  10.931
74765W        W41833  19.652  40.942  14.913
74766W        W41834  26.174  26.026   1.930
74767W        W41835  17.671   3.437   4.302
74768W        W41836  10.248  35.937   3.349
74769W        W41837   7.665   3.351  12.458
74770W        W41838   2.955  43.858  13.470
74771W        W41839  26.559  18.589  11.515
74772W        W41840  22.665  26.639   5.285
74773W        W41841  11.680   2.297  14.020
74774W        W41842  11.669  37.501   3.373
74775W        W41843  13.652   3.924  12.473
74776W        W41844   8.375  23.221  12.432
74777W        W41845  26.186  14.157   2.322
74778W        W41846   4.442   2.761   1.382
74779W        W41847  21.138  34.948  13.027
74780W        W41848   7.342  17.136  13.421
74781W        W41849  26.967  26.958  10.463
74782W        W41850  35.897   4.447   4.604
74783W        W41851  22.733  35.917  10.480
74784W        W41852   2.889  22.011   1.336
74785W        W41853  42.457   2.464   2.791
74786W        W41854  32.900  32.623  14.858
74787W        W41855  22.056  37.979   4.693
74788W        W41856  30.109  19.246  13.510
74789W        W41857  40.829   0.437   1.447
74790W        W41858  14.103   4.448   0.473
74791W        W41859   7.902  11.762   3.180
74792W        W41860  14.675  35.404   4.251
74793W        W41861  14.590  36.413  10.938
74794W        W41862  25.111  38.020  13.432
74795W        W41863  44.319  22.225  11.951
74796W        W41864  18.631   3.416  12.449
74797W        W41865  13.718  19.623   5.210
74798W        W41866   8.820  17.647   0.388
74799W        W41867  26.205  15.292  11.400
74800W        W41868   5.762  40.866   4.701
74801W        W41869  43.958  40.534  14.936
74802W        W41870  15.820  13.149   5.311
74803W        W41871   4.228   7.777   4.297
74804W        W41872   8.711  35.943  14.764
74805W        W41873  40.426  31.456   2.240
74806W        W41874  36.081  44.762  13.496
74807W        W41875  12.136   4.797  14.370
74808W        W41876  18.660  42.448  14.452
74809W        W41877  32.127  29.030   3.265
74810W        W41878  21.610   2.900   3.145
74811W        W41879   0.814   6.830   2.365
74812W        W41880  24.127  21.155  11.602
74813W        W41881  19.676  17.228   1.886
74814W        W41882  21.253  30.565  12.398
74815W        W41883   9.701  28.647  11.909
74816W        W41884   1.803  20.115   3.746
74817W        W41885  36.581  18.789  14.781
74818W        W41886   4.442  19.594  12.860
74819W        W41887   2.411   7.399  12.958
74820W        W41888  44.795  31.130  12.882
74821W        W41889  37.954  17.645  10.631
74822W        W41890  26.202  44.284  13.791
74823W        W41891  14.167   5.699  12.466
74824W        W41892   3.883  42.496   2.825
74825W        W41893  27.011  43.910  10.635
74826W        W41894  13.725  24.984   2.377
74827W        W41895  16.730  12.714  12.865
74828W        W41896  40.383   6.260   4.807
74829W        W41897  28.049  36.525  13.904
74830W        W41898   3.768  26.680   1.394
74831W        W41899  43.792  13.142  11.573
74832W        W41900  42.816  38.510   3.247
74833W        W41901   3.953  35.425   2.744
74834W        W41902  35.425  10.189  13.798
74835W        W41903  29.127  16.659   4.677
74836W        W41904  32.492  36.967   2.861
74837W        W41905  44.900  27.004  14.014
74838W        W41906  38.914  13.600  11.928
74839W        W41907  37.359  10.642  14.452
74840W        W41908  25.568  38.429  14.373
74841W        W41909  44.770  19.282  10.963
74842W        W41910   2.466   4.908   3.386
74843W        W41911   9.176  30.092  13.520
74844W        W41912  31.935  39.320  14.927
74845W        W41913  22.031   7.331   1.763
74846W        W41914   8.897  32.901  14.319
74847W        W41915   4.937  41.002  12.824
74848W        W41916  10.378  35.959  12.394
74849W        W41917  12.851  44.970  14.869
74850W        W41918  14.156  35.461   1.300
74851W        W41919  43.370  15.327   1.431
74852W        W41920   2.743  17.075   3.630
74853W        W41921  27.946   1.746  10.894
74854W        W41922  41.026  19.546  13.420
74855W        W41923  10.749  31.490  11.113
74856W        W41924  25.057  19.204  10.440
74857W        W41925  10.352   6.832  10.516
74858W        W41926   6.739  18.701   0.773
74859W        W41927  21.228   7.743   0.752
74860W        W41928   9.668  15.261   2.735
74861W        W41929  34.109   4.831   0.947
74862W        W41930   4.213  39.901   2.899
74863W        W41931  41.808  14.641  12.503
74864W        W41932  37.451   6.775   4.230
74865W        W41933  31.506  39.056   1.305
74866W        W41934   4.443  29.454   0.895
74867W        W41935  44.896  28.010   1.258
74868W        W41936  32.549  40.406  11.916
74869W        W41937  35.093  30.001  13.437
74870W        W41938   9.374  24.550  14.327
74871W        W41939   5.839  34.585  11.948
74872W        W41940  41.428  17.687  11.898
74873W        W41941  41.934  19.194   1.863
74874W        W41942  25.985  39.462   1.350
74875W        W41943  26.089  10.790   0.815
74876W        W41944   5.286   2.856   4.779
74877W        W41945  24.094   1.380  13.535
74878W        W41946  35.553   3.786   4.785
74879W        W41947  44.377   0.321  13.802
74880W        W41948   2.755  12.779   3.197
74881W        W41949  32.126  24.618   4.225
74882W        W41950  29.545  14.747   3.735
74883W        W41951   3.746  40.548  11.965
74884W        W41952   4.412   0.257   4.173
74885W        W41953  12.657  14.746  12.866
74886W        W41954  16.608   3.709   4.160
74887W        W41955   1.340  11.836  13.027
74888W        W41956  22.252  28.525   0.428
74889W        W41957  14.206  13.605  11.972
74890W        W41958  16.241  27.550  11.099
74891W        W41959  16.074  32.120  10.961
74892W        W41960  39.344  17.142  10.981
74893W        W41961  18.083  19.050   0.366
74894W        W41962  40.844   7.406  14.282
74895W        W41963   8.696   2.233  13.506
74896W        W41964  15.649  39.341   4.717
74897W        W41965  15.260  11.274   3.851
74898W        W41966   0.457   3.773  14.303
74899W        W41967  38.070  25.525   1.694
74900W        W41968  18.051   8.403   1.395
74901W        W41969   3.221  40.033   2.310
74902W        W41970   6.257   0.843  14.932
74903W        W41971   4.355  12.789  14.031
74904W        W41972  32.479  38.388  10.437
74905W        W41973   4.436  18.551   1.879
74906W        W41974  29.159  44.319  13.933
74907W        W41975  24.194  31.514  12.937
74908W        W41976  30.992  19.550   0.894
74909W        W41977  20.606   6.397  13.047
74910W        W41978  34.869  20.536   0.377
74911W        W41979   3.834  21.716   0.440
74912W        W41980  11.319   8.815   0.938
74913W        W41981  38.982  12.202   3.841
74914W        W41982  39.848  11.191  10.952
74915W        W41983  26.108   1.910  13.015
74916W        W41984  41.391  12.169   1.871
74917W        W41985   9.792  22.621   4.801
74918W        W41986  24.542   8.798   0.328
74919W        W41987  26.680  38.458   2.846
74920W        W41988  30.158  21.622  12.048
74921W        W41989  40.802  31.150   2.360
74922W        W41990  31.528  44.457   0.415
74923W        W41991  28.982  10.366  11.384
74924W        W41992  11.836  42.396  12.430
74925W        W41993  16.663  14.809  12.890
74926W        W41994  22.649   3.815   2.335
74927W        W41995  21.607   3.730   1.846
74928W        W41996  33.961  18.096  10.440
74929W        W41997   6.921   3.455  13.387
74930W        W41998  13.333   2.315   1.877
74931W        W41999   1.869   0.347   1.756
74932W        W42000  16.296   0.917  12.508
74933W        W42001  33.888  22.088   2.896
74934W        W42002  29.465  32.410  13.839
74935W        W42003  12.747  29.119  12.844
74936W        W42004  12.261   7.872   2.746
74937W        W42005  34.091   5.373  14.889
74938W        W42006   4.815  26.617  14.772
74939W        W42007   3.832   5.400  12.471
74940W        W42008  17.155  13.160   1.834
74941W        W42009  31.013  10.341   4.320
74942W        W42010  36.927  12.804   2.733
74943W        W42011  40.332   2.736  12.419
74944W        W42012  17.244  37.926   4.140
74945W        W42013   3.459  37.848  11.012
74946W        W42014  19.731  10.857   3.178
74947W        W42015  34.031  10.335  14.852
74948W        W42016  26.463   4.337   3.364
74949W        W42017  44.396  32.610   2.313
74950W        W42018   1.476  16.092   0.957
74951W        W42019  28.023  10.726   5.114
74952W        W42020  39.486  18.253  12.516
74953W        W42021  20.607  43.769   2.834
74954W        W42022  11.270  17.765  12.508
74955W        W42023  32.114  12.757   3.697
74956W        W42024  44.806  24.722  14.285
74957W        W42025  44.504  26.082  12.028
74958W        W42026  23.608  38.912  11.404
74959W        W42027   6.714   9.782   1.442
74960W        W42028  25.685  39.967  13.329
74961W        W42029   8.715  25.537  12.467
74962W        W42030  24.724   9.301  13.030
74963W        W42031  23.219  33.418  13.490
74964W        W42032   9.853  24.132  11.438
74965W        W42033   5.917  19.078  13.362
74966W        W42034  13.814   1.959  14.780
74967W        W42035  21.120  41.356  11.498
74968W        W42036  23.002  35.409   0.933
74969W        W42037  27.451  23.095  11.427
74970W        W42038  10.356  30.977  13.887
74971W        W42039  16.280   0.849  13.005
74972W        W42040   0.354  22.161  11.044
74973W        W42041  43.956  15.779   4.200
74974W        W42042  13.136  23.130  11.578
74975W        W42043  42.784  18.787   2.411
74976W        W42044  36.968  35.385   2.257
74977W        W42045   6.879  26.630  13.337
74978W        W42046  24.196   5.712  11.902
74979W        W42047  10.751  38.396   2.205
74980W        W42048  15.709   4.414   2.797
74981W        W42049  35.900  28.660   4.323
74982W        W42050  17.276   1.317  12.573
74983W        W42051  25.021   0.466   3.732
74984W        W42052   8.884  32.498  11.594
74985W        W42053   7.891   1.950   4.147
74986W        W42054  11.821  44.335  12.519
74987W        W42055  16.571  11.784  12.924
74988W        W42056  43.407  22.052  14.483
74989W        W42057  24.007  36.432   1.313
74990W        W42058  35.402  14.248  11.022
74991W        W42059  32.629  19.537  11.099
74992W        W42060  16.176  16.159  10.416
74993W        W42061   0.267   2.230   2.307
74994W        W42062   6.292  15.657  14.341
74995W        W42063  21.610  40.338   3.730
74996W        W42064  17.630  13.644  14.976
74997W        W42065   5.894   0.955   3.177
74998W        W42066  11.663   1.296   2.858
74999W        W42067  32.913  28.990   4.781
75000W        W42068  44.847   1.313   0.466
75001W        W42069   2.403  44.959   0.380
75002W        W42070  23.099  43.765  13.928
75003W        W42071  23.558  20.186  14.885
75004W        W42072  40.451  21.557  14.418
75005W        W42073  24.701  26.958  14.951
75006W        W42074  40.037  35.104   0.854
75007W        W42075  41.293  12.611   2.229
75008W        W42076  37.531  41.889   1.801
75009W        W42077  14.668  42.395  12.497
75010W        W42078  44.851  36.361   2.359
75011W        W42079  43.870  25.653  10.452
75012W        W42080  13.729  12.846   3.165
75013W        W42081  37.079  19.170  14.281
75014W        W42082   6.231  23.606   4.826
75015W        W42083   3.784   0.331  13.872
75016W        W42084   8.682  31.418   3.650
75017W        W42085  28.959  12.809   0.832
75018W        W42086  13.803   9.846   5.216
75019W        W42087  34.068  20.528  12.825
75020W        W42088  20.588  19.675   4.113
75021W        W42089  15.319  31.433  10.990
75022W        W42090   7.248  14.673   1.224
75023W        W42091  11.715  15.696  13.452
75024W        W42092  43.435  23.222   1.387
75025W        W42093  21.598   8.390   4.689
75026W        W42094   6.269  33.985  10.495
75027W        W42095  35.414  39.000   3.156
75028W        W42096  39.996  34.582  12.351
75029W        W42097  21.230  21.658  14.894
75030W        W42098   6.850  31.901  11.437
75031W        W42099  14.135  36.372   4.796
75032W        W42100  22.605  29.502  13.307
75033W        W42101  24.996  10.739  13.028
75034W        W42102  10.164  27.152   4.761
75035W        W42103   3.789  19.270  13.943
75036W        W42104  26.204  11.159   3.219
75037W        W42105  28.518   6.760  12.935
75038W        W42106  40.528   7.702  11.499
75039W        W42107  39.477   3.812  11.918
75040W        W42108  43.402  11.754   3.694
75041W        W42109  29.485  11.847  13.493
75042W        W42110  38.498   0.368  11.596
75043W        W42111  15.756   5.896  13.345
75044W        W42112  31.974  38.410   1.316
75045W        W42113  22.689   4.933   3.663
75046W        W42114  40.971  37.955  12.963
75047W        W42115  17.238   3.234   0.838
75048W        W42116   3.728  10.763  12.018
75049W        W42117  35.906  18.225   2.245
75050W        W42118  15.270  43.285   1.718
75051W        W42119  16.682  17.172  14.439
75052W        W42120  11.265  41.032   0.428
75053W        W42121  43.845  36.027   1.908
75054W        W42122  32.481   5.278  14.349
75055W        W42123  24.579   7.814   3.372
75056W        W42124  22.243  43.897  11.981
75057W        W42125   7.322  34.529  11.900
75058W        W42126   1.349  14.128  10.510
75059W        W42127   4.302  24.594   4.242
75060W        W42128  15.305  36.474   0.443
75061W        W42129  34.497   0.966   0.839
75062W        W42130  12.700  20.528  13.914
75063W        W42131  27.011  41.386   0.740
75064W        W42132  21.577  36.588  13.915
75065W        W42133  14.336  10.876   1.365
75066W        W42134   0.875  27.124  12.930
75067W        W42135  40.509   9.888  10.614
75068W        W42136  36.591  37.477   1.805
75069W        W42137  42.502  22.006  13.910
75070W        W42138   4.841  37.954   0.781
75071W        W42139  42.793  38.879  12.557
75072W        W42140  15.628  12.267  14.001
75073W        W42141   6.904  44.971  12.979
75074W        W42142  11.137  15.175   1.892
75075W        W42143   9.359   0.422  14.922
75076W        W42144  18.101  37.039   4.147
75077W        W42145   8.683  23.688   4.165
75078W        W42146  43.842  44.441   3.833
75079W        W42147  39.314   5.277   1.927
75080W        W42148  26.041  18.618   4.814
75081W        W42149  21.670   0.473   4.790
75082W        W42150  34.905  30.023  10.440
75083W        W42151  30.418  36.409   0.259
75084W        W42152  31.424   1.339   3.160
75085W        W42153   7.303  10.285   4.786
75086W        W42154  14.319  34.026  14.001
75087W        W42155  24.587   4.867   1.932
75088W        W42156   2.327   1.752   4.805
75089W        W42157  16.616  43.516  10.474
75090W        W42158   5.841  12.730  13.861
75091W        W42159  21.591  37.551  10.122
75092W        W42160  20.724   7.773  14.312
75093W        W42161  23.602  26.655   1.435
75094W        W42162  42.864  44.365   0.476
75095W        W42163   3.380  23.113  11.009
75096W        W42164   2.927  35.438   4.798
75097W        W42165  11.643   1.898  14.842
75098W        W42166  18.113  21.018  11.424
75099W        W42167  23.680  43.844   1.777
75100W        W42168  14.297  19.712   3.183
75101W        W42169   1.403  39.366  14.481
75102W        W42170  19.721  10.798  14.492
75103W        W42171  25.085  17.194  12.026
75104W        W42172  22.580  17.260   0.781
75105W        W42173  11.262  33.615   1.282
75106W        W42174  28.630  19.139   2.209
75107W        W42175   6.377  40.874  13.864
75108W        W42176  24.088  19.779   3.344
75109W        W42177  21.077  21.570  13.046
75110W        W42178  17.307  29.035   3.837
75111W        W42179  23.540  22.518  12.031
75112W        W42180  14.620   5.390  12.083
75113W        W42181  27.463   0.815  11.384
75114W        W42182  28.127  34.954  13.981
75115W        W42183  34.117  42.029  12.341
75116W        W42184  15.097  13.205  12.509
75117W        W42185  30.120  14.311   3.678
75118W        W42186  32.488  28.099   5.187
75119W        W42187  38.925  31.939  10.043
75120W        W42188  33.590  28.013   4.669
75121W        W42189  37.371  26.000  14.476
75122W        W42190   3.793  14.269   3.162
75123W        W42191  32.077   5.300   2.894
75124W        W42192  36.955  25.969   4.771
75125W        W42193  15.314   4.234   2.326
75126W        W42194   8.406  10.201   2.395
75127W        W42195  14.110  31.998  11.540
75128W        W42196   2.341  42.301  14.347
75129W        W42197  29.044  41.854   1.334
75130W        W42198   7.339   7.231  13.983
75131W        W42199  20.686   0.348   4.180
75132W        W42200  20.040  30.974  14.424
75133W        W42201   7.854  31.409   2.208
75134W        W42202  40.308   9.316   4.322
75135W        W42203  24.087  10.803  10.636
75136W        W42204   7.735  28.499  13.983
75137W        W42205  26.079  39.837   0.806
75138W        W42206  14.737   2.854   2.241
75139W        W42207  22.599  10.667  14.503
75140W        W42208  36.384  41.473  12.433
75141W        W42209  26.702  11.163   4.618
75142W        W42210  37.411   9.200   2.323
75143W        W42211  34.970  10.185   5.119
75144W        W42212   8.867  38.422   0.883
75145W        W42213   4.337   5.855   4.262
75146W        W42214  11.350  40.385  12.504
75147W        W42215  24.979  25.178  10.978
75148W        W42216  25.473  18.153  13.058
75149W        W42217   3.797  24.986   1.924
75150W        W42218  30.454  27.490  12.834
75151W        W42219   0.762  37.369  11.985
75152W        W42220   5.438  42.367  11.892
75153W        W42221  12.131  16.194  13.451
75154W        W42222  38.849  28.649   2.847
75155W        W42223  29.135  42.520  14.387
75156W        W42224  40.389  15.186  14.868
75157W        W42225  25.096  18.744   4.201
75158W        W42226  39.387  28.969  11.957
75159W        W42227  33.566   4.378  14.354
75160W        W42228  29.455   6.897  13.819
75161W        W42229  19.776  13.143   4.675
75162W        W42230  31.627  26.167   3.176
75163W        W42231  19.744   4.716   0.345
75164W        W42232  25.584   1.923   2.835
75165W        W42233  19.229  39.872  12.357
75166W        W42234  14.274   0.416   2.348
75167W        W42235  28.003  29.155   4.825
75168W        W42236  38.481  10.317  11.586
75169W        W42237   1.261   7.176   2.691
75170W        W42238  14.133  44.008  12.449
75171W        W42239   3.453  30.997   1.276
75172W        W42240   6.814   7.669  12.922
75173W        W42241  27.577  23.024  11.867
75174W        W42242  40.941  13.235  12.531
75175W        W42243  22.249  41.446   0.441
75176W        W42244  21.731  16.077   4.220
75177W        W42245  26.546  28.032  14.372
75178W        W42246  39.018  21.553  12.988
75179W        W42247  11.628  23.717   3.754
75180W        W42248  17.683  21.041   1.435
75181W        W42249   0.963  32.535   4.671
75182W        W42250   9.308  35.930  10.092
75183W        W42251  37.915  30.983  13.028
75184W        W42252   3.448  44.295  12.042
75185W        W42253  11.370  34.566  14.337
75186W        W42254   3.215  27.643  12.936
75187W        W42255  22.526  44.839   3.277
75188W        W42256  32.492  29.500  10.642
75189W        W42257  37.902  26.202   3.719
75190W        W42258  42.393   6.343   4.315
75191W        W42259  28.600  39.930   2.199
75192W        W42260   7.177  15.205   3.312
75193W        W42261   1.473   0.853   3.217
75194W        W42262   9.740  32.936  13.935
75195W        W42263   3.827  16.204  12.958
75196W        W42264  31.943  19.191   0.425
75197W        W42265  22.225   2.826  13.530
75198W        W42266   6.829  31.548   1.412
75199W        W42267   9.205  31.564  10.929
75200W        W42268  39.333  17.180   2.860
75201W        W42269  10.282  37.520  12.555
75202W        W42270  33.472   6.362   4.279
75203W        W42271  40.412   7.748   1.746
75204W        W42272  16.668  24.997   4.832
75205W        W42273  25.629  20.078  14.412
75206W        W42274  25.212   5.901  11.056
75207W        W42275   5.412  21.669  12.969
75208W        W42276  25.587  33.923   3.648
75209W        W42277   9.857   2.958   3.167
75210W        W42278   3.306   0.297   3.227
75211W        W42279  28.445  12.316   4.127
75212W        W42280  15.619  10.368  13.059
75213W        W42281  33.026  36.878  12.560
75214W        W42282  41.959  28.592   0.928
75215W        W42283   5.425   2.764   4.172
75216W        W42284   5.357  39.896   1.802
75217W        W42285  14.165   9.798   2.672
75218W        W42286  19.221  44.428  14.933
75219W        W42287  33.555  39.919   1.414
75220W        W42288  36.573  33.452  13.991
75221W        W42289   1.358  10.640   4.353
75222W        W42290   0.857  21.250   1.411
75223W        W42291   1.909  43.424   3.328
75224W        W42292  30.996  36.908  10.458
75225W        W42293  16.614  17.292   1.791
75226W        W42294  15.678  20.225  11.872
75227W        W42295  19.282  10.759  13.880
75228W        W42296  38.446  43.503  13.965
75229W        W42297  17.727  34.428  11.951
75230W        W42298  14.253   1.841   0.750
75231W        W42299  37.873   9.765   1.383
75232W        W42300  40.845   5.693   1.275
75233W        W42301  33.388  28.442   3.305
75234W        W42302   1.861  26.081  11.535
75235W        W42303  26.047  16.569  11.115
75236W        W42304   6.394  10.338  12.432
75237W        W42305   8.344  37.981  13.819
75238W        W42306  17.716  19.707   2.373
75239W        W42307  19.106  43.282   1.219
75240W        W42308  38.367  34.047  14.332
75241W        W42309  23.619  34.604   1.441
75242W        W42310  35.544  42.822   1.854
75243W        W42311   5.924   5.735  10.520
75244W        W42312   6.392  31.916   2.776
75245W        W42313   6.922  31.496   0.850
75246W        W42314  22.116  44.829   2.664
75247W        W42315   2.760   4.802  13.985
75248W        W42316  24.056  19.547  13.820
75249W        W42317  24.490  10.145   1.879
75250W        W42318  23.659  42.432  11.407
75251W        W42319  18.080  20.237   5.200
75252W        W42320  30.100  26.686   0.425
75253W        W42321   1.430  41.504   0.470
75254W        W42322  32.979   5.819  10.466
75255W        W42323  32.560   5.329   3.268
75256W        W42324  37.033  17.723   2.877
75257W        W42325   3.870  34.038  11.961
75258W        W42326  12.617   1.901  10.947
75259W        W42327   8.229  28.966   3.708
75260W        W42328  15.282  21.180  13.852
75261W        W42329  18.678   3.222  12.949
75262W        W42330  28.525  40.840  10.483
75263W        W42331  37.933  33.497  12.057
75264W        W42332  30.156   2.382   0.840
75265W        W42333  16.747  33.983   4.256
75266W        W42334  14.099  29.434  14.849
75267W        W42335  33.425  41.986   2.352
75268W        W42336  43.937  16.731   0.961
75269W        W42337  24.186  33.563   3.224
75270W        W42338  27.190  19.259   0.739
75271W        W42339  32.392   2.763  13.803
75272W        W42340   1.741  20.187   2.325
75273W        W42341  14.679  10.224   0.737
75274W        W42342  42.808  18.108   0.916
75275W        W42343  13.688  13.816   1.866
75276W        W42344  27.989   2.799   4.326
75277W        W42345   5.843  40.415   1.229
75278W        W42346  12.140  18.723  12.092
75279W        W42347  36.592   5.388   4.116
75280W        W42348  30.964   5.908   0.805
75281W        W42349  22.080  14.340  11.431
75282W        W42350  32.121  11.227  14.864
75283W        W42351  35.101  24.647  13.455
75284W        W42352  44.376  22.596   4.123
75285W        W42353  19.067  23.125   1.233
75286W        W42354  33.449  26.523  11.447
75287W        W42355  14.628  39.025  12.011
75288W        W42356  26.562  20.553  11.098
75289W        W42357   9.696  34.615  14.903
75290W        W42358   0.898  21.227  12.913
75291W        W42359   5.716  33.617  10.420
75292W        W42360  10.240  29.636  14.463
75293W        W42361  17.650  34.485   3.642
75294W        W42362  31.107   5.802  13.908
75295W        W42363   5.375  19.585   3.732
75296W        W42364  38.462   7.724  12.398
75297W        W42365  25.625   8.823  10.061
75298W        W42366  34.925  32.624  11.870
75299W        W42367  34.477  16.128   4.348
75300W        W42368  37.547   7.290  13.812
75301W        W42369   5.246   1.919   1.706
75302W        W42370  26.163  17.103   1.337
75303W        W42371  25.711  25.027  11.389
75304W        W42372  19.150  21.220   1.216
75305W        W42373  34.899   9.833  13.012
75306W        W42374  11.265  25.644   4.353
75307W        W42375  10.187  21.582  12.894
75308W        W42376   3.305  42.831   1.721
75309W        W42377  21.132  33.128  10.468
75310W        W42378  20.228   5.902   1.924
75311W        W42379   0.292  32.579  13.502
75312W        W42380   1.852  30.060   0.910
75313W        W42381  14.293  40.983   3.643
75314W        W42382  33.107   4.212   3.229
75315W        W42383  28.538  29.942  14.302
75316W        W42384  43.339   8.321   4.134
75317W        W42385  41.028  21.689  13.320
75318W        W42386  16.196  32.613   3.351
75319W        W42387  19.124   7.335   4.266
75320W        W42388  26.475  15.808   4.831
75321W        W42389  12.800   2.283  10.638
75322W        W42390  20.094  17.720  12.407
75323W        W42391  23.077  38.909   4.670
75324W        W42392  44.784  37.050   3.337
75325W        W42393   1.784  37.877   2.724
75326W        W42394   7.678  26.193  14.924
75327W        W42395   3.390  30.049  14.467
75328W        W42396  22.202  29.962  12.078
75329W        W42397  42.362  10.344   3.307
75330W        W42398  44.905  16.242  13.401
75331W        W42399  30.938   3.420  14.500
75332W        W42400  26.501  27.524  13.454
75333W        W42401  14.187   4.375   3.732
75334W        W42402   5.314  26.957   1.414
75335W        W42403  35.041  26.572  10.542
75336W        W42404  35.522  41.009  14.958
75337W        W42405  17.123  12.728   3.213
75338W        W42406   1.907  12.761  11.611
75339W        W42407  19.085  21.073  13.547
75340W        W42408  34.503  38.456  12.081
75341W        W42409  16.129  28.166  11.544
75342W        W42410  17.801  43.891  13.834
75343W        W42411  39.388   6.833  13.952
75344W        W42412  13.205  12.209  12.578
75345W        W42413  40.432   4.331  13.375
75346W        W42414  38.520  20.198   2.415
75347W        W42415  15.760   1.410  10.567
75348W        W42416  41.458  33.921   4.137
75349W        W42417  42.855  15.090  12.825
75350W        W42418  37.080  44.982   2.822
75351W        W42419   4.398   1.323   1.448
75352W        W42420   7.341  16.159  12.041
75353W        W42421  35.042  23.006  14.776
75354W        W42422  20.700   8.765   2.321
75355W        W42423  14.175  35.012  10.902
75356W        W42424  16.214   6.408  12.076
75357W        W42425   8.233  40.967  13.943
75358W        W42426  34.571  28.522   3.216
75359W        W42427  17.781  37.078  13.427
75360W        W42428  11.758  37.569  10.435
75361W        W42429  34.069  27.523   1.753
75362W        W42430  40.323  24.171   4.135
75363W        W42431  14.339   9.364   3.702
75364W        W42432   2.413  44.913  14.378
75365W        W42433  10.726  31.498  12.827
75366W        W42434  40.535  20.648  12.957
75367W        W42435  40.538  14.810   2.418
75368W        W42436  10.188  10.718   2.241
75369W        W42437  14.295  40.956  10.518
75370W        W42438   5.342  11.792  13.321
75371W        W42439  18.278  11.627  13.927
75372W        W42440  42.900  26.505  12.415
75373W        W42441  36.366  28.499  11.114
75374W        W42442  16.687   5.903   2.241
75375W        W42443  24.507  21.155  11.532
75376W        W42444  38.995   5.300  14.903
75377W        W42445  18.688   5.434  11.514
75378W        W42446  43.508  19.105   4.649
75379W        W42447  33.004  23.192   1.244
75380W        W42448  15.128  43.394   4.783
75381W        W42449   0.305  12.245   2.843
75382W        W42450  23.179  32.930  13.063
75383W        W42451  41.024   9.819   3.782
75384W        W42452  40.329   4.420  10.562
75385W        W42453  39.936  10.713   2.737
75386W        W42454  43.385  27.621   3.218
75387W        W42455  35.571  37.061   0.408
75388W        W42456  20.098  30.998  13.880
75389W        W42457  31.464  41.893   4.183
75390W        W42458  18.118  24.723   2.198
75391W        W42459   6.397  44.480  14.923
75392W        W42460  41.796   8.660   1.436
75393W        W42461   8.223   1.346  11.937
75394W        W42462  11.132  30.147  11.555
75395W        W42463  30.915  23.088  10.589
75396W        W42464  33.085  23.502  12.984
75397W        W42465  44.327  21.664  14.018
75398W        W42466  40.517  12.757   4.704
75399W        W42467   9.685  15.272   1.272
75400W        W42468  18.557  30.937  11.376
75401W        W42469  18.175  30.631  12.871
75402W        W42470  22.151   0.425   1.915
75403W        W42471  38.541  26.611  11.388
75404W        W42472   3.293  34.908   4.754
75405W        W42473  41.393  41.844  11.572
75406W        W42474   5.734  14.832   4.297
75407W        W42475  21.190   0.252  10.605
75408W        W42476   6.182   1.817  13.350
75409W        W42477  39.952  20.035   4.346
75410W        W42478  39.530  14.731  13.352
75411W        W42479   5.319  22.687   3.330
75412W        W42480  44.311  13.268   2.764
75413W        W42481  43.937  43.502  10.976
75414W        W42482  24.598  21.214  14.384
75415W        W42483  37.973  44.492   2.869
75416W        W42484  19.045  10.245  12.025
75417W        W42485  31.633  17.203   3.178
75418W        W42486   4.279   9.277   2.754
75419W        W42487  34.435  34.384   3.161
75420W        W42488  12.336  22.579   0.475
75421W        W42489  27.492  28.475   1.403
75422W        W42490  15.642   7.211   2.828
75423W        W42491  14.108  13.189  12.509
75424W        W42492  16.153  34.958   3.810
75425W        W42493  37.505   0.942  12.950
75426W        W42494  10.242  20.134  13.533
75427W        W42495   0.309  24.713   2.256
75428W        W42496  41.883  33.477  10.063
75429W        W42497  28.104  17.213   5.120
75430W        W42498  30.464   6.311  13.363
75431W        W42499  32.110  30.646  13.020
75432W        W42500   8.824  17.602  13.547
75433W        W42501  30.152  27.613  12.453
75434W        W42502  27.063  30.144  10.408
75435W        W42503  43.914  25.165  12.987
75436W        W42504  44.808  43.411   0.761
75437W        W42505  36.529  13.759   0.967
75438W        W42506  34.932  21.145   0.752
75439W        W42507  29.429  15.252  13.447
75440W        W42508  23.167  38.404  13.936
75441W        W42509  30.543  36.471  12.034
75442W        W42510  41.844  12.359   2.327
75443W        W42511  37.568  29.964   2.371
75444W        W42512   2.381  21.682  13.894
75445W        W42513  32.405  29.563   4.696
75446W        W42514  24.502  30.060   3.777
75447W        W42515  17.756   3.872   4.234
75448W        W42516  26.502  27.579  12.478
75449W        W42517  12.154   2.900  10.454
75450W        W42518   2.288  29.554   0.483
75451W        W42519   2.467   0.445  11.431
75452W        W42520  37.032  38.521   3.167
75453W        W42521   4.868  33.950   4.748
75454W        W42522  29.493  44.853  13.440
75455W        W42523  26.156  34.060   0.345
75456W        W42524  12.815  35.878  11.485
75457W        W42525   1.410  19.756  11.549
75458W        W42526  15.322  32.632   2.722
75459W        W42527  26.516   5.216  11.035
75460W        W42528  13.725  37.420  11.958
75461W        W42529   6.360   5.730  12.441
75462W        W42530  25.058  16.287  10.464
75463W        W42531  36.984   4.851  14.370
75464W        W42532  11.253  21.628   1.379
75465W        W42533  34.904   5.372  11.403
75466W        W42534   3.415   8.390   0.747
75467W        W42535  24.712  22.607  10.959
75468W        W42536  24.976  18.198  12.888
75469W        W42537  21.696  36.913  11.460
75470W        W42538  39.822  17.700  14.396
75471W        W42539  35.925  29.984  12.947
75472W        W42540  33.893  32.445   1.359
75473W        W42541   1.260  41.361  14.771
75474W        W42542  24.578  11.337  14.353
75475W        W42543  19.548  38.324   2.188
75476W        W42544  31.006  36.055   2.297
75477W        W42545  12.187   6.259   0.745
75478W        W42546  31.100  20.533  14.796
75479W        W42547  36.979  41.396   2.811
75480W        W42548  23.080  27.988   4.801
75481W        W42549  21.018  44.286  13.362
75482W        W42550   0.893  28.519  13.934
75483W        W42551   2.344   5.746  11.121
75484W        W42552  42.846  11.782  11.107
75485W        W42553  19.686  40.829   5.168
75486W        W42554  34.896   7.878  12.839
75487W        W42555  32.537  20.234   2.269
75488W        W42556  19.144  22.115  11.990
75489W        W42557  11.360  11.832   1.321
75490W        W42558  28.520  39.018  10.489
75491W        W42559   9.821  41.431   1.919
75492W        W42560   8.203  40.034  10.611
75493W        W42561  37.944  38.405   4.297
75494W        W42562  15.600  22.518   4.273
75495W        W42563  28.536   9.184  12.934
75496W        W42564  32.110  43.836   2.201
75497W        W42565  44.335   2.363   1.713
75498W        W42566  14.235   3.789  11.980
75499W        W42567  32.402  31.523  13.984
75500W        W42568  34.990   0.771  10.475
75501W        W42569  13.759  33.621   1.372
75502W        W42570   4.350  28.604  14.001
75503W        W42571  27.671  25.569   4.697
75504W        W42572  19.761  24.135  10.512
75505W        W42573  39.533  31.019  11.108
75506W        W42574   6.192  20.033  13.454
75507W        W42575  25.708  14.117   3.205
75508W        W42576   8.354  22.511  12.526
75509W        W42577  31.637   0.388   1.432
75510W        W42578  42.804  10.273   0.363
75511W        W42579  31.553  15.169   5.294
75512W        W42580  44.896  18.054  12.046
75513W        W42581  36.031  30.070   4.119
75514W        W42582  34.917  25.004  12.527
75515W        W42583  18.267  10.765   1.904
75516W        W42584  37.976  37.906   1.922
75517W        W42585  34.479  25.623   0.446
75518W        W42586  20.742  29.076   3.349
75519W        W42587  32.413  44.937   1.417
75520W        W42588   4.846  21.166   2.761
75521W        W42589  21.121  44.368   2.410
75522W        W42590  25.020  40.320  10.979
75523W        W42591  29.561  38.978  12.438
75524W        W42592  35.573   6.304   0.752
75525W        W42593  31.411  43.790   4.676
75526W        W42594  42.881  40.518   4.742
75527W        W42595  39.003  31.072  11.501
75528W        W42596  38.892   4.387  13.463
75529W        W42597  22.582  29.934   3.816
75530W        W42598  32.460   7.363   1.434
75531W        W42599  42.802  43.917   1.313
75532W        W42600   2.836  32.419   1.277
75533W        W42601   3.367  16.180   2.233
75534W        W42602  18.667  38.521   4.194
75535W        W42603  40.910   0.779   4.818
75536W        W42604  40.478  26.609  11.965
75537W        W42605  18.292  30.045  14.950
75538W        W42606  44.970  18.082   1.296
75539W        W42607   4.910  12.206   4.219
75540W        W42608   2.338  23.007   3.308
75541W        W42609  41.805  40.920  14.989
75542W        W42610  36.870  13.117   0.297
75543W        W42611   5.823  18.207   1.411
75544W        W42612  25.645  24.070   1.926
75545W        W42613  33.601  13.799  14.873
75546W        W42614  23.144  24.722   1.421
75547W        W42615  14.654  20.528  13.823
75548W        W42616  44.391  35.010   0.360
75549W        W42617  19.230  16.732   2.830
75550W        W42618   1.244  18.761   2.770
75551W        W42619  24.065   6.869   2.230
75552W        W42620   8.252   0.360   5.199
75553W        W42621  17.716   4.303   3.160
75554W        W42622   8.753  30.910  12.096
75555W        W42623  20.705  14.225   2.206
75556W        W42624   6.416   4.936  13.405
75557W        W42625  41.821  35.004   3.194
75558W        W42626   6.251  23.601   1.375
75559W        W42627  26.159  30.565   2.767
75560W        W42628   7.271  33.467  13.539
75561W        W42629  10.747  40.821   3.318
75562W        W42630   8.899   2.929   3.870
75563W        W42631  30.657  14.286  13.510
75564W        W42632  31.981   5.911   3.328
75565W        W42633  35.588  18.656   1.233
75566W        W42634  33.999  16.290  13.492
75567W        W42635   6.310  31.004   0.479
75568W        W42636  18.693  26.070   3.720
75569W        W42637   6.425  22.529   1.447
75570W        W42638  12.679  18.263   2.210
75571W        W42639  16.179   3.823  12.409
75572W        W42640  23.726   0.460  13.543
75573W        W42641  42.325  10.840  12.929
75574W        W42642  12.693  26.106  14.780
75575W        W42643  11.842  44.858   3.154
75576W        W42644  44.297  36.457   4.279
75577W        W42645   9.253  16.114  13.998
75578W        W42646  18.101   0.359   2.752
75579W        W42647  30.527  40.375   3.159
75580W        W42648  15.114  15.767  11.065
75581W        W42649  23.228  14.298   0.937
75582W        W42650  17.627  33.899  11.456
75583W        W42651  26.516  20.113   4.236
75584W        W42652   9.692  25.684  12.365
75585W        W42653  22.518  21.143  10.587
75586W        W42654   1.405  12.706  14.379
75587W        W42655  19.682  15.207  11.891
75588W        W42656  37.387  30.475  12.049
75589W        W42657  20.650  13.834   1.388
75590W        W42658  32.109   0.899  14.937
75591W        W42659  25.106  27.064  13.014
75592W        W42660   9.827  26.490   3.699
75593W        W42661  40.870  34.029   2.323
75594W        W42662   4.840  42.481   0.407
75595W        W42663  17.061   9.210   2.314
75596W        W42664  35.047  20.184  12.361
75597W        W42665   2.446  13.244   2.202
75598W        W42666  35.503  18.704  11.038
75599W        W42667  40.806  13.723   2.771
75600W        W42668  41.324  27.972  13.851
75601W        W42669  11.200   2.838   9.961
75602W        W42670  40.823  31.995  14.501
75603W        W42671  10.867  43.497   9.621
75604W        W42672  12.742  13.348  12.520
75605W        W42673  37.015  28.127   3.334
75606W        W42674  26.199  40.367  13.329
75607W        W42675  34.943  35.575  14.457
75608W        W42676  44.783   1.954   1.702
75609W        W42677  40.431  15.302   0.317
75610W        W42678  11.799   3.895   0.819
75611W        W42679  23.997  33.902  12.502
75612W        W42680  14.718  25.015   3.839
75613W        W42681  29.440  38.419   1.726
75614W        W42682   1.406  30.071  10.543
75615W        W42683  14.730  24.006  12.986
75616W        W42684  32.534  39.359   2.882
75617W        W42685  20.645   9.872   2.792
75618W        W42686  12.818  33.516  10.565
75619W        W42687  18.618  19.592   2.826
75620W        W42688  25.039  31.939   1.238
75621W        W42689  11.776   1.847  11.915
75622W        W42690  17.758  40.541   4.617
75623W        W42691  18.587   8.710  13.520
75624W        W42692  11.229  18.280   0.772
75625W        W42693  13.251  12.854  14.973
75626W        W42694   1.374  18.558   4.597
75627W        W42695  30.558  38.969   4.331
75628W        W42696  13.108  36.086   2.683
75629W        W42697  33.572  22.048   3.840
75630W        W42698   8.252  43.377   2.699
75631W        W42699   4.388   7.272  14.845
75632W        W42700  12.165  44.337  11.894
75633W        W42701  19.212  11.348  11.929
75634W        W42702   1.914  35.465  13.061
75635W        W42703  13.679  30.127   2.280
75636W        W42704  29.130  40.051   4.139
75637W        W42705  17.754  35.857   2.789
75638W        W42706  28.494  42.497   3.678
75639W        W42707  37.352   9.383   4.835
75640W        W42708  11.836  16.193  14.395
75641W        W42709  16.739   6.348   1.354
75642W        W42710  43.002  24.567  14.351
75643W        W42711  16.721  44.000  13.974
75644W        W42712  21.037  28.966  10.404
75645W        W42713  24.685  15.164  11.554
75646W        W42714   3.355   7.865   0.966
75647W        W42715   9.193  40.505  10.565
75648W        W42716  29.545   7.881  10.911
75649W        W42717  20.241  32.594  10.434
75650W        W42718  17.139   4.864  13.882
75651W        W42719  24.133   7.861  12.536
75652W        W42720  30.525   2.351   0.912
75653W        W42721  41.322  43.835  13.911
75654W        W42722  12.267  25.019  12.495
75655W        W42723  18.570  22.549   1.889
75656W        W42724  33.397  12.300  11.967
75657W        W42725  44.380  34.996  13.485
75658W        W42726  12.311  20.566   1.711
75659W        W42727  16.250  26.042  14.358
75660W        W42728   0.756  16.735   3.251
75661W        W42729  37.427  14.299   9.943
75662W        W42730  23.149   5.881  14.342
75663W        W42731  33.417   7.873   4.599
75664W        W42732   1.770  26.097  12.546
75665W        W42733  44.834  20.741  11.612
75666W        W42734   0.477  11.632  10.452
75667W        W42735  41.005  41.017   2.837
75668W        W42736   0.947  32.020   4.797
75669W        W42737  29.991  22.017   2.707
75670W        W42738   3.293  29.447   2.883
75671W        W42739  14.597  10.636   1.427
75672W        W42740   5.790  34.895  14.779
75673W        W42741  15.090  28.604   2.694
75674W        W42742  28.677  31.405  14.000
75675W        W42743  28.137   0.390   1.911
75676W        W42744  41.907  15.285  11.957
75677W        W42745   9.645   3.724  10.473
75678W        W42746   0.898   7.345   0.387
75679W        W42747  14.592  28.642   1.807
75680W        W42748  23.026  42.873  12.484
75681W        W42749  36.898  42.958   1.768
75682W        W42750  44.355  38.476  12.035
75683W        W42751  27.060  13.206  14.948
75684W        W42752  41.436  13.290   3.223
75685W        W42753   8.688  28.662  10.450
75686W        W42754  37.445   0.306  10.529
75687W        W42755  24.117   9.658  12.840
75688W        W42756  41.919  23.599   2.210
75689W        W42757  23.672  43.497   2.418
75690W        W42758  39.519  32.538   1.716
75691W        W42759  34.047  36.588  14.446
75692W        W42760  24.213  24.032   3.671
75693W        W42761  34.555  16.195  14.487
75694W        W42762  33.013  32.004  13.969
75695W        W42763  23.193   5.279  11.585
75696W        W42764  31.433  18.647   2.332
75697W        W42765  16.584  30.093  14.918
75698W        W42766   2.807  33.087   4.170
75699W        W42767  39.534   9.298  14.880
75700W        W42768  25.008  24.500  12.826
75701W        W42769  21.107  23.555  13.514
75702W        W42770  11.135   8.864   1.451
75703W        W42771   6.912   1.902  14.440
75704W        W42772  10.813  31.047   1.895
75705W        W42773  26.122  18.275  13.467
75706W        W42774  30.472   9.842   3.650
75707W        W42775  23.221  26.482  12.979
75708W        W42776  15.800  44.935   3.831
75709W        W42777  16.255   9.208   3.187
75710W        W42778   5.206  42.339  14.792
75711W        W42779  13.726  23.638  12.922
75712W        W42780  18.240  35.920  11.891
75713W        W42781  37.420  38.497   0.892
75714W        W42782  38.419  33.033  13.020
75715W        W42783  44.893   8.278   2.339
75716W        W42784  24.043  24.496  11.058
75717W        W42785   3.893   1.469   4.602
75718W        W42786   7.911  40.843  13.840
75719W        W42787  31.449  12.638  11.097
75720W        W42788   3.830  25.987  14.977
75721W        W42789  27.153  15.638  11.613
75722W        W42790  28.029  38.894   5.303
75723W        W42791   9.195  44.443  14.996
75724W        W42792  22.586  11.791   1.227
75725W        W42793  34.018   7.280  10.440
75726W        W42794  34.612  32.896   0.741
75727W        W42795  39.952  21.102  10.025
75728W        W42796  24.031  10.228  11.892
75729W        W42797  21.713  26.153  11.962
75730W        W42798  19.086  44.353  10.631
75731W        W42799  40.518  35.422   4.212
75732W        W42800  26.577  14.149   3.666
75733W        W42801  23.196  14.317   4.762
75734W        W42802  24.545  17.762  11.382
75735W        W42803  12.851  28.019   2.711
75736W        W42804  30.542   5.290  11.512
75737W        W42805  40.476  40.837   2.662
75738W        W42806  27.527   9.250   3.639
75739W        W42807  30.591  36.526  12.475
75740W        W42808  33.387  35.588   2.275
75741W        W42809  13.330  13.729  14.824
75742W        W42810  32.550  32.591   3.733
75743W        W42811  40.482  40.517  13.853
75744W        W42812  29.926   9.888   1.850
75745W        W42813  15.796  42.525  14.870
75746W        W42814   3.288   4.438  12.925
75747W        W42815  42.464  38.540  12.847
75748W        W42816  27.160   0.987   0.743
75749W        W42817  30.482  19.745   3.678
75750W        W42818   7.180   3.741   1.288
75751W        W42819   6.197  32.927  12.972
75752W        W42820  13.109  27.590  10.644
75753W        W42821  30.912   2.292  11.489
75754W        W42822  41.407  30.160   4.808
75755W        W42823  44.302  16.754   1.289
75756W        W42824  16.134  16.696  10.412
75757W        W42825  25.153  44.411  14.935
75758W        W42826  19.545  20.529   1.448
75759W        W42827  23.137  14.704  13.799
75760W        W42828   1.380  34.116  12.443
75761W        W42829  25.614  39.487  14.471
75762W        W42830  34.449  18.592   1.417
75763W        W42831   4.276  15.815  13.044
75764W        W42832  40.397  10.877  10.491
75765W        W42833  20.162   6.404   4.795
75766W        W42834  33.493  16.739   1.230
75767W        W42835   5.295  36.020  11.005
75768W        W42836  25.144  34.591   2.276
75769W        W42837   0.836  36.443  14.980
75770W        W42838  16.635   9.695  12.904
75771W        W42839  31.972   7.199  13.845
75772W        W42840  31.529  34.550  10.150
75773W        W42841  43.774  34.921   4.227
75774W        W42842   4.874  21.051  13.935
75775W        W42843  28.485  14.761  12.463
75776W        W42844  44.865  20.746   0.831
75777W        W42845   0.847  34.952   5.257
75778W        W42846  16.264  37.942  12.471
75779W        W42847  39.424  16.572   1.271
75780W        W42848   4.260  23.594   2.701
75781W        W42849  22.503  24.211  12.405
75782W        W42850  14.807  11.323   2.394
75783W        W42851   7.863  42.824   1.793
75784W        W42852  37.543   6.230  12.851
75785W        W42853  18.200  28.149  12.464
75786W        W42854   2.819  16.582   3.296
75787W        W42855  44.388   8.821   3.359
75788W        W42856  35.869  30.957   2.387
75789W        W42857  37.466  26.699   1.899
75790W        W42858   4.394  31.141  14.999
75791W        W42859  20.083  30.137   1.244
75792W        W42860  32.635   1.910  10.983
75793W        W42861   9.275   7.179   2.264
75794W        W42862  15.786   8.275  12.022
75795W        W42863  26.122  36.997  13.020
75796W        W42864  41.953  39.988   0.374
75797W        W42865  21.208  20.259   0.762
75798W        W42866   7.319   7.682   2.406
75799W        W42867  40.958  23.081  14.807
75800W        W42868  37.853   0.956   9.964
75801W        W42869  38.478   4.408  12.925
75802W        W42870  33.905  38.074  14.443
75803W        W42871  28.471  24.002  12.067
75804W        W42872   3.832  23.134  14.313
75805W        W42873  30.944   3.319  11.990
75806W        W42874  31.050  29.035  10.068
75807W        W42875   9.232  12.676   3.306
75808W        W42876  30.135  29.585  13.486
75809W        W42877  21.252   6.272   2.279
75810W        W42878  38.476  30.599   4.198
75811W        W42879   6.677  24.549  11.911
75812W        W42880   7.727  44.341  12.430
75813W        W42881   4.828  29.646   0.955
75814W        W42882  32.118  26.651   4.693
75815W        W42883  10.220  40.993   4.743
75816W        W42884   5.849  27.588   3.788
75817W        W42885  40.934  44.904  10.913
75818W        W42886  22.652  24.507  10.431
75819W        W42887  32.130  10.273   1.798
75820W        W42888  11.688  19.058  11.376
75821W        W42889   7.762  30.087  11.090
75822W        W42890  10.718  32.502  13.818
75823W        W42891  12.200  41.438   0.867
75824W        W42892  31.595  40.931   4.254
75825W        W42893  29.429  10.699   1.220
75826W        W42894  15.197  39.054  10.915
75827W        W42895  33.548  21.571   4.139
75828W        W42896  41.505  35.014   1.871
75829W        W42897  43.433  20.559  10.604
75830W        W42898  22.070  15.206  13.866
75831W        W42899   8.857  22.578   1.213
75832W        W42900   8.849  29.089  11.534
75833W        W42901  29.980  30.947  10.509
75834W        W42902  14.641  13.660   1.803
75835W        W42903  38.016  35.411  10.527
75836W        W42904  15.665  33.050  13.980
75837W        W42905   7.227  28.620   0.402
75838W        W42906  32.551   2.238  14.407
75839W        W42907  16.200  14.259  13.507
75840W        W42908   3.709  39.545  10.925
75841W        W42909  18.244  35.379  12.399
75842W        W42910  20.609  33.470  14.867
75843W        W42911  21.192   0.965  14.930
75844W        W42912   2.966  39.917   3.343
75845W        W42913  14.677  44.479  13.897
75846W        W42914  17.086  22.218  13.047
75847W        W42915  42.892  10.378   4.735
75848W        W42916  30.947  10.851  13.002
75849W        W42917  22.103  13.202   0.434
75850W        W42918   3.900  16.227   1.269
75851W        W42919  12.185  26.194  13.322
75852W        W42920  16.157   1.866  13.489
75853W        W42921  24.564  37.477   0.447
75854W        W42922  42.861   8.218  10.419
75855W        W42923  13.762  25.469   3.347
75856W        W42924   4.391   7.179   4.309
75857W        W42925  14.778   2.316  10.639
75858W        W42926  10.702  15.087   4.196
75859W        W42927  27.181  30.459   0.893
75860W        W42928   3.222  23.656   1.724
75861W        W42929  25.037  24.152   3.195
75862W        W42930  16.285  42.927   0.787
75863W        W42931  36.862  36.347   2.177
75864W        W42932  25.626  33.558  12.505
75865W        W42933   3.953  26.567  11.996
75866W        W42934  31.081  27.619  13.985
75867W        W42935  23.125  31.591   1.792
75868W        W42936  12.121  38.489  10.528
75869W        W42937   7.361  17.750  12.354
75870W        W42938  10.774  43.333   3.230
75871W        W42939  41.466  27.445  12.844
75872W        W42940  35.578  17.617  13.317
75873W        W42941  21.748  27.547   3.372
75874W        W42942  40.035  14.186   4.600
75875W        W42943  36.568  19.275   0.961
75876W        W42944   3.437   0.764  13.034
75877W        W42945   0.858  43.504   2.810
75878W        W42946  16.208  35.512  11.470
75879W        W42947  14.234   2.232  10.452
75880W        W42948   7.758  41.004  14.412
75881W        W42949  36.358   6.425  11.416
75882W        W42950  29.078   4.419   0.758
75883W        W42951  16.616  18.289   1.315
75884W        W42952  25.623  23.601  13.399
75885W        W42953  24.494  34.036  13.385
75886W        W42954  41.858   7.875  10.484
75887W        W42955  39.454   1.249   0.882
75888W        W42956   6.850   8.180   3.869
75889W        W42957   1.756  29.533   1.341
75890W        W42958  19.099   0.327  12.341
75891W        W42959  24.514  31.070  14.002
75892W        W42960  21.660   0.860  11.537
75893W        W42961  33.934   4.438   1.831
75894W        W42962  37.852   0.807   2.893
75895W        W42963  11.666   8.221  12.378
75896W        W42964  16.157  25.056   4.292
75897W        W42965  26.485  18.708  14.779
75898W        W42966  22.186  37.343  12.035
75899W        W42967  35.439   9.774   3.837
75900W        W42968  34.075  31.023  12.407
75901W        W42969   5.871  21.048  12.980
75902W        W42970  34.586  41.532  11.014
75903W        W42971   8.705   3.298   1.888
75904W        W42972  29.136   3.920   0.957
75905W        W42973   5.329   7.753   2.886
75906W        W42974  36.499  25.081   0.395
75907W        W42975   4.837  44.966  11.545
75908W        W42976  25.518  25.215  10.587
75909W        W42977   7.264  26.023   2.792
75910W        W42978  19.048  24.540   0.274
75911W        W42979   3.297  40.401   2.668
75912W        W42980  39.935  25.088  13.482
75913W        W42981  14.220  43.929   3.772
75914W        W42982  16.083  38.070   0.348
75915W        W42983  27.008  30.079  11.027
75916W        W42984  13.771   5.410  10.916
75917W        W42985  35.446  23.736  11.008
75918W        W42986  12.310   3.874   3.698
75919W        W42987  14.137  40.907   1.753
75920W        W42988  17.132  39.387   2.809
75921W        W42989   9.763  32.428   1.890
75922W        W42990  18.754  33.612  12.355
75923W        W42991  11.311  14.195  12.539
75924W        W42992  11.142  18.591  11.000
75925W        W42993  13.740  21.567  14.919
75926W        W42994  34.023  41.933   4.671
75927W        W42995  19.220  14.615   3.255
75928W        W42996  12.816  11.233   1.288
75929W        W42997  14.685  20.657  14.920
75930W        W42998  40.879  12.844  12.990
75931W        W42999  41.305   1.239  10.549
75932NA+    NA+43000  11.159  21.615  11.094
75933NA+    NA+43001   7.207  22.621  10.983
75934NA+    NA+43002  39.966  15.728   2.286
75935NA+    NA+43003  14.781  24.001   1.426
75936NA+    NA+43004   5.804  31.591  10.516
75937NA+    NA+43005  24.605  36.873   1.376
75938NA+    NA+43006  36.582  29.579   1.752
75939NA+    NA+43007  21.120  30.099   0.892
75940NA+    NA+43008  33.462  37.851  10.115
75941NA+    NA+43009  33.381  43.352   1.713
75942NA+    NA+43010  33.399  24.058   3.772
75943NA+    NA+43011  30.473   9.720  12.509
75944NA+    NA+43012   9.384   4.837   4.735
75945NA+    NA+43013  19.692  12.133  11.908
75946NA+    NA+43014  28.458  31.051  12.936
75947NA+    NA+43015  36.463  22.049   3.290
75948NA+    NA+43016   4.261  20.248  12.371
75949NA+    NA+43017   0.904  43.330   0.962
75950NA+    NA+43018  33.567  13.714   1.883
75951NA+    NA+43019  41.966  40.542  14.891
75952NA+    NA+43020  38.394  11.319   0.792
75953NA+    NA+43021  19.071  36.905   2.777
75954NA+    NA+43022  38.995  16.687  12.907
75955NA+    NA+43023  13.135  42.965   0.728
75956NA+    NA+43024   3.337  44.999  11.871
75957NA+    NA+43025   1.247  20.733  12.358
75958NA+    NA+43026   9.174  17.778   1.819
75959NA+    NA+43027   5.869  26.125   1.376
75960NA+    NA+43028  12.847  14.697  10.497
75961NA+    NA+43029  12.785  15.311  14.913
75962NA+    NA+43030   2.879  18.618  10.892
75963NA+    NA+43031  31.552   3.433   3.275
75964NA+    NA+43032   7.254   2.838  13.938
75965NA+    NA+43033  34.907  40.969  13.400
75966NA+    NA+43034  40.416  25.084   3.318
75967NA+    NA+43035  37.020  29.649   3.737
75968NA+    NA+43036  14.780  19.662   0.264
75969NA+    NA+43037  28.573  24.678   3.373
75970NA+    NA+43038  15.682  19.250   0.872
75971NA+    NA+43039  41.469  31.071   0.294
75972NA+    NA+43040  15.219   5.830   1.812
75973NA+    NA+43041  22.747  34.555   4.223
75974NA+    NA+43042  13.174  34.449  10.441
75975NA+    NA+43043  15.257  31.121   1.444
75976NA+    NA+43044   8.293  32.509  11.000
75977NA+    NA+43045  10.244  14.731  14.797
75978NA+    NA+43046  43.020  15.585  12.559
75979NA+    NA+43047  23.175  36.877   0.405
75980NA+    NA+43048  15.100   5.367  12.476
75981NA+    NA+43049   2.413  43.839   2.778
75982NA+    NA+43050  38.326  33.055  11.888
75983NA+    NA+43051   9.851  18.210  13.033
75984NA+    NA+43052   3.745  35.566  10.446
75985NA+    NA+43053  33.980   3.279  11.906
75986NA+    NA+43054  32.034   3.220  12.077
75987NA+    NA+43055  38.459   5.350   4.690
75988NA+    NA+43056   0.468  28.079   4.733
75989NA+    NA+43057   1.954   0.783  12.394
75990NA+    NA+43058  35.897   0.274   0.329
75991NA+    NA+43059  43.353  34.074  10.893
75992NA+    NA+43060  28.013  35.905  10.530
75993NA+    NA+43061   5.874  35.993  12.434
75994NA+    NA+43062  42.781  19.641   0.420
75995NA+    NA+43063  27.578   2.256  14.321
75996NA+    NA+43064  36.872  18.251   0.731
75997NA+    NA+43065  21.581  22.094  11.457
75998NA+    NA+43066  34.957  19.134  10.890
75999NA+    NA+43067   1.468   7.793   4.772
76000NA+    NA+43068  14.666  29.018  11.600
76001NA+    NA+43069   4.228  28.443   1.272
76002NA+    NA+43070  19.756  21.588   3.749
76003NA+    NA+43071  24.688   0.852   2.739
76004NA+    NA+43072   7.331  24.687   1.410
76005NA+    NA+43073   0.302  23.153   4.712
76006NA+    NA+43074   0.314  17.585   0.770
76007NA+    NA+43075   5.728  38.456   0.455
76008NA+    NA+43076  37.887  25.184  12.462
76009NA+    NA+43077  31.420  33.457  10.114
76010NA+    NA+43078  43.323   6.729   3.703
76011NA+    NA+43079  17.713  37.911   1.841
76012NA+    NA+43080   6.786  12.658  11.540
76013NA+    NA+43081   6.347   0.791  10.992
76014NA+    NA+43082  11.759  14.702   3.317
76015NA+    NA+43083  40.829  42.795   1.784
76016NA+    NA+43084   9.649  44.797   0.727
76017NA+    NA+43085  38.522  38.839   4.646
76018NA+    NA+43086   2.256  22.613  11.008
76019NA+    NA+43087   8.785  28.051   3.868
76020NA+    NA+43088  35.942  25.074   1.283
76021NA+    NA+43089  34.065  20.760  12.376
76022NA+    NA+43090   8.328   6.830  14.975
76023NA+    NA+43091   0.955  38.064   3.355
76024NA+    NA+43092  39.843  43.006   4.813
76025NA+    NA+43093  39.332  21.028  12.923
76026NA+    NA+43094  18.603  13.656   0.402
76027NA+    NA+43095  34.893  15.172  13.866
76028NA+    NA+43096   1.768  12.715  10.888
76029NA+    NA+43097   3.930   1.789  12.352
76030NA+    NA+43098  10.868  42.477  13.418
76031NA+    NA+43099  35.579  13.624  11.548
76032NA+    NA+43100  32.602  18.248  10.096
76033NA+    NA+43101   8.798   5.201  12.493
76034NA+    NA+43102  13.647  35.435  10.999
76035NA+    NA+43103  21.580  15.686  13.470
76036NA+    NA+43104  33.002  42.389  10.593
76037NA+    NA+43105   5.355  19.258   3.261
76038NA+    NA+43106  32.019   6.692   0.422
76039NA+    NA+43107  33.419  25.078   2.399
76040NA+    NA+43108  20.210  23.580   1.933
76041NA+    NA+43109   0.787  33.111  14.341
76042NA+    NA+43110   8.395   4.294  10.530
76043NA+    NA+43111   8.292  21.624   4.343
76044NA+    NA+43112  42.997   0.271  11.018
76045NA+    NA+43113  29.577  32.995   3.683
76046NA+    NA+43114   4.846  25.501   9.974
76047NA+    NA+43115  42.399  23.678   0.912
76048NA+    NA+43116  40.924  31.547  14.811
76049NA+    NA+43117  37.492  31.077  10.448
76050NA+    NA+43118  31.011  26.966   4.157
76051NA+    NA+43119   3.278  25.108  11.955
76052NA+    NA+43120   9.869  36.039  14.395
76053NA+    NA+43121  31.943  27.585  12.545
76054NA+    NA+43122  14.623  16.803  13.546
76055NA+    NA+43123  34.928  44.915   0.785
76056NA+    NA+43124  44.426   6.766  12.094
76057NA+    NA+43125  16.160   7.400   3.767
76058NA+    NA+43126  29.089   8.218  11.929
76059NA+    NA+43127   9.204  35.941  11.527
76060NA+    NA+43128  19.068  13.149  12.357
76061NA+    NA+43129   2.367  44.768   1.743
76062NA+    NA+43130  32.419  12.133   0.796
76063NA+    NA+43131  25.498  10.382   0.390
76064NA+    NA+43132   7.722  30.430  11.982
76065NA+    NA+43133   7.800   0.850   0.783
76066NA+    NA+43134   5.829  16.250  14.000
76067NA+    NA+43135  30.460   0.303   1.261
76068NA+    NA+43136   5.750  29.947  13.986
76069NA+    NA+43137  39.944  17.674  12.546
76070NA+    NA+43138  25.967  32.989   1.412
76071NA+    NA+43139  24.065  11.254   2.321
76072NA+    NA+43140   5.256  12.248   4.146
76073NA+    NA+43141  42.499  39.496  13.005
76074NA+    NA+43142   0.286  36.928   2.889
76075NA+    NA+43143   8.668  42.354   2.186
76076NA+    NA+43144  25.099  12.791   1.763
76077NA+    NA+43145  36.487   8.862   5.127
76078NA+    NA+43146   6.792  44.996  11.088
76079NA+    NA+43147  42.930   9.283  10.513
76080NA+    NA+43148   3.917  10.846  12.909
76081NA+    NA+43149  17.221  17.613   4.833
76082NA+    NA+43150  23.181   1.421   4.256
76083NA+    NA+43151   1.889   4.900  14.975
76084NA+    NA+43152  11.782  11.317  12.505
76085NA+    NA+43153   2.757  34.485   1.820
76086NA+    NA+43154  44.898  25.586  14.363
76087NA+    NA+43155   8.396  24.058   2.821
76088NA+    NA+43156  24.527  33.874  14.827
76089NA+    NA+43157  43.928  31.052   1.314
76090NA+    NA+43158  22.213   8.730  14.421
76091NA+    NA+43159  22.579  27.679   3.157
76092NA+    NA+43160  25.569  39.437   1.799
76093NA+    NA+43161   0.302  18.581  13.994
76094NA+    NA+43162  23.121   9.350  13.928
76095NA+    NA+43163  36.536  39.481   2.391
76096NA+    NA+43164  31.979  32.554  11.073
76097NA+    NA+43165  17.281   2.455   0.475
76098NA+    NA+43166  44.768  33.042  12.887
76099NA+    NA+43167  23.543   8.660   0.263
76100NA+    NA+43168  14.136   5.729  10.498
76101NA+    NA+43169  23.614  27.487  14.978
76102NA+    NA+43170  27.545   3.931   4.257
76103NA+    NA+43171  37.374  36.998  13.009
76104NA+    NA+43172  38.498  12.664  11.923
76105NA+    NA+43173   2.853  10.722  14.011
76106NA+    NA+43174  29.154  26.576   1.431
76107NA+    NA+43175  38.329  13.109   4.787
76108NA+    NA+43176   3.348   1.315  14.894
76109NA+    NA+43177   3.335  15.591   3.379
76110NA+    NA+43178  31.477  28.646   0.811
76111NA+    NA+43179  20.267  30.023   3.714
76112NA+    NA+43180  40.016  16.695   0.805
76113NA+    NA+43181  24.077  26.006  10.425
76114NA+    NA+43182   4.886  16.175  13.049
76115NA+    NA+43183   2.305  28.965  13.918
76116NA+    NA+43184  34.520  13.735   3.181
76117NA+    NA+43185  28.542  29.954  11.020
76118NA+    NA+43186   8.700  35.015   3.784
76119NA+    NA+43187  23.085   3.398  14.806
76120NA+    NA+43188   5.847  21.650  12.404
76121NA+    NA+43189  25.508  23.210  12.835
76122NA+    NA+43190  26.492   1.372   0.453
76123NA+    NA+43191   9.858  25.119   1.824
76124NA+    NA+43192   6.384   0.827   4.684
76125NA+    NA+43193  11.721  17.750   0.448
76126NA+    NA+43194  39.916  19.754   3.241
76127NA+    NA+43195   8.400   2.308  12.385
76128NA+    NA+43196   2.896  41.005   4.301
76129NA+    NA+43197  43.289  39.916   3.765
76130NA+    NA+43198  38.883   3.268   1.785
76131NA+    NA+43199  42.843  13.639  10.905
76132NA+    NA+43200  16.726  27.046   1.250
76133NA+    NA+43201  39.058  31.405   2.844
76134NA+    NA+43202   5.765   8.667  10.926
76135NA+    NA+43203  31.486   2.807   1.259
76136NA+    NA+43204  40.458  28.599  10.912
76137NA+    NA+43205  28.478  23.533   4.160
76138NA+    NA+43206   7.359  34.969   4.341
76139NA+    NA+43207   1.422  22.103   2.882
76140NA+    NA+43208  27.124  29.934   4.759
76141NA+    NA+43209   7.412   5.208   1.703
76142NA+    NA+43210  29.990   7.769  10.429
76143NA+    NA+43211  44.448   7.407  10.918
76144NA+    NA+43212  17.250  39.011   5.247
76145NA+    NA+43213   1.462  13.174   0.464
76146NA+    NA+43214  27.570   1.334   4.694
76147NA+    NA+43215  21.213  40.845  14.380
76148NA+    NA+43216  10.647  37.905  11.054
76149NA+    NA+43217  24.546  28.004  12.909
76150NA+    NA+43218  42.348  14.656   1.261
76151NA+    NA+43219   7.794  40.343  10.962
76152NA+    NA+43220   6.196  39.534   1.722
76153NA+    NA+43221  29.579  12.811  11.085
76154NA+    NA+43222  18.789   5.260   2.368
76155NA+    NA+43223  38.447  16.311  13.538
76156NA+    NA+43224  30.086   7.401  13.026
76157NA+    NA+43225  33.525  16.149  11.060
76158NA+    NA+43226  38.926  12.850   3.323
76159NA+    NA+43227  21.157  42.815   1.355
76160NA+    NA+43228  11.327   7.245   0.849
76161NA+    NA+43229   9.650   7.369  11.500
76162NA+    NA+43230   6.386  11.312  12.544
76163NA+    NA+43231  33.497  33.010  11.115
76164NA+    NA+43232   6.351   6.219   0.849
76165NA+    NA+43233  10.673  38.400  12.356
76166NA+    NA+43234  24.658  31.912  13.842
76167NA+    NA+43235  37.928  21.684  14.025
76168NA+    NA+43236  35.499   1.441  10.896
76169NA+    NA+43237   4.244  28.536  14.889
76170NA+    NA+43238  39.948  15.239   2.388
76171NA+    NA+43239  21.522  36.903  11.080
76172NA+    NA+43240  10.159  19.052  13.384
76173NA+    NA+43241  25.092  33.490  13.508
76174NA+    NA+43242  43.496   2.814  10.442
76175NA+    NA+43243  16.235  22.704   2.742
76176NA+    NA+43244  39.354  38.947  13.943
76177NA+    NA+43245  15.195   0.861   2.828
76178NA+    NA+43246  22.176  18.290  14.800
76179NA+    NA+43247  41.452  34.513   3.356
76180NA+    NA+43248   0.781  11.662  12.051
76181NA+    NA+43249  28.103  42.312   0.328
76182NA+    NA+43250  42.394   4.357  12.553
76183NA+    NA+43251  20.036  29.627   2.377
76184NA+    NA+43252   9.875   2.873  13.417
76185NA+    NA+43253  40.933  15.645   4.203
76186NA+    NA+43254   6.419  33.392   4.720
76187NA+    NA+43255   7.911  26.038   1.413
76188NA+    NA+43256  34.898  13.147  13.489
76189NA+    NA+43257  23.230  25.082   4.765
76190NA+    NA+43258  27.575  13.695  14.810
76191NA+    NA+43259   0.918  16.642  11.992
76192NA+    NA+43260  27.585  32.911  14.388
76193NA+    NA+43261  20.088   2.936   2.353
76194NA+    NA+43262   2.854  25.564   3.309
76195NA+    NA+43263   9.173  16.721   3.293
76196NA+    NA+43264   4.420  27.070   2.344
76197NA+    NA+43265  15.096  19.231   1.278
76198NA+    NA+43266  20.594  10.658   0.834
76199NA+    NA+43267   2.877   5.428   4.721
76200NA+    NA+43268  37.466  19.707  10.587
76201NA+    NA+43269  37.445  14.653  11.935
76202NA+    NA+43270  42.984  37.468   0.873
76203NA+    NA+43271  44.767   6.745   1.870
76204NA+    NA+43272   2.780   9.674   0.466
76205NA+    NA+43273  23.631  38.072   1.817
76206NA+    NA+43274  18.572  36.357   0.745
76207NA+    NA+43275   1.965  33.989   4.138
76208NA+    NA+43276  36.459  34.498   2.728
76209NA+    NA+43277  18.782  24.070   2.718
76210NA+    NA+43278  21.156  10.773   1.767
76211NA+    NA+43279  42.309  34.017  13.965
76212NA+    NA+43280  15.122   7.801   2.844
76213NA+    NA+43281   5.748  33.054   1.323
76214NA+    NA+43282  20.731  43.304  10.964
76215NA+    NA+43283   8.341  38.521   0.824
76216NA+    NA+43284  43.011  36.962   3.266
76217NA+    NA+43285  34.561  43.339   4.196
76218NA+    NA+43286   9.299   2.937   1.789
76219NA+    NA+43287  18.233   9.193  12.064
76220NA+    NA+43288  19.739  26.494   9.970
76221NA+    NA+43289  43.364  26.192  14.489
76222NA+    NA+43290  20.632  11.314  14.790
76223NA+    NA+43291  32.422  27.582  11.549
76224NA+    NA+43292  24.608   6.328   4.668
76225NA+    NA+43293  24.486  37.986  11.417
76226NA+    NA+43294  17.139  23.025  12.903
76227NA+    NA+43295  11.793   0.285  13.495
76228NA+    NA+43296   9.735  22.120   3.212
76229NA+    NA+43297  16.807  15.295   3.178
76230NA+    NA+43298  24.541  18.638   2.404
76231NA+    NA+43299   9.772   0.965   2.233
76232NA+    NA+43300   6.897  23.734  14.281
76233NA+    NA+43301  22.604  44.867  12.524
76234NA+    NA+43302  14.101  12.676  14.322
76235NA+    NA+43303  42.803  34.005   3.226
76236NA+    NA+43304  10.663  19.743   3.175
76237NA+    NA+43305  37.028  18.160  12.044
76238NA+    NA+43306  42.913   2.260  14.317
76239NA+    NA+43307   8.279  26.535   1.328
76240NA+    NA+43308   4.423  29.611  12.539
76241NA+    NA+43309  18.783  14.819  13.365
76242NA+    NA+43310  34.520   9.159  14.882
76243NA+    NA+43311   6.740  10.860   1.857
76244NA+    NA+43312   9.394  12.325   1.274
76245NA+    NA+43313  41.302  29.082   0.907
76246NA+    NA+43314  33.603  40.384  12.484
76247NA+    NA+43315  41.912  37.501  13.982
76248NA+    NA+43316  10.743  22.701  13.517
76249NA+    NA+43317  40.318  37.051   0.832
76250NA+    NA+43318  40.931   3.227  13.356
76251NA+    NA+43319  40.372   7.295   0.423
76252NA+    NA+43320  20.636  34.523   4.686
76253NA+    NA+43321  36.090  35.902   4.820
76254NA+    NA+43322   9.778  38.340  14.774
76255NA+    NA+43323  31.102  10.778   3.803
76256NA+    NA+43324  43.852   9.772  11.007
76257NA+    NA+43325   9.218   9.315  12.961
76258NA+    NA+43326  32.111  24.108   3.871
76259NA+    NA+43327  21.051   1.796  11.100
76260NA+    NA+43328  41.509   8.784  14.491
76261NA+    NA+43329   0.814  34.558  12.388
76262NA+    NA+43330   3.358  16.609  14.005
76263NA+    NA+43331  26.962  30.940  14.798
76264NA+    NA+43332  24.642  38.012  14.438
76265NA+    NA+43333  37.990  18.054   2.180
76266NA+    NA+43334  36.978  34.538  13.865
76267NA+    NA+43335  26.084  35.023   2.318
76268NA+    NA+43336  17.275   4.805   4.282
76269NA+    NA+43337  42.322  38.433  12.425
76270NA+    NA+43338   0.288  34.384  11.911
76271NA+    NA+43339  15.234  12.625  13.863
76272NA+    NA+43340  33.477   4.275   3.863
76273NA+    NA+43341  44.473   1.792   1.843
76274NA+    NA+43342  21.664   6.847   0.409
76275NA+    NA+43343  38.832  25.968   3.841
76276NA+    NA+43344  41.403  35.857   2.756
76277NA+    NA+43345  30.930  42.010   0.394
76278NA+    NA+43346  25.979  11.321   2.773
76279NA+    NA+43347  35.021  19.075  11.557
76280NA+    NA+43348  35.949   3.335  11.424
76281NA+    NA+43349   8.353  13.264  13.990
76282NA+    NA+43350  29.995  22.516  14.028
76283NA+    NA+43351  14.189  23.702   1.312
76284NA+    NA+43352   3.842  40.434  12.974
76285NA+    NA+43353  44.996   9.660   0.313
76286NA+    NA+43354  34.007  43.478   0.912
76287NA+    NA+43355  17.710   6.372  12.391
76288NA+    NA+43356  31.959  37.349   2.743
76289NA+    NA+43357  23.524  15.104   4.693
76290NA+    NA+43358   1.335  26.109  13.996
76291NA+    NA+43359  29.461   8.210  13.928
76292NA+    NA+43360  39.981   3.431  13.039
76293NA+    NA+43361  10.810   4.900   0.301
76294NA+    NA+43362   3.789   3.440  10.517
76295NA+    NA+43363  41.903  43.486  11.545
76296NA+    NA+43364  23.127  17.301  10.521
76297NA+    NA+43365  15.699  39.345   4.249
76298NA+    NA+43366   0.957  20.551  10.532
76299NA+    NA+43367  34.502  33.982   0.786
76300NA+    NA+43368  33.886  15.676   3.650
76301NA+    NA+43369  27.002  27.676   3.175
76302NA+    NA+43370  25.024  35.427  12.039
76303NA+    NA+43371  33.407   8.761  10.894
76304NA+    NA+43372  17.689  10.321   0.278
76305NA+    NA+43373  25.987   7.855  11.448
76306NA+    NA+43374  14.722  38.401  11.419
76307NA+    NA+43375  11.805  43.490  12.457
76308NA+    NA+43376  23.695  16.268  12.430
76309NA+    NA+43377   7.876   5.927   0.419
76310NA+    NA+43378  24.481  20.612  11.529
76311NA+    NA+43379  14.695  43.348  13.808
76312NA+    NA+43380  15.319  10.231   1.388
76313NA+    NA+43381  22.694  14.694   2.693
76314NA+    NA+43382   8.752  21.079   9.955
76315NA+    NA+43383  28.988  31.975   5.211
76316NA+    NA+43384   3.312  35.865  13.492
76317NA+    NA+43385   3.749  37.073  11.569
76318NA+    NA+43386   5.345  20.067   3.660
76319NA+    NA+43387  44.774  13.196   2.195
76320NA+    NA+43388  36.850  25.569   1.375
76321NA+    NA+43389  29.010  32.062   4.128
76322NA+    NA+43390   8.729  24.982   3.341
76323NA+    NA+43391  31.457   1.815  12.035
76324NA+    NA+43392  23.170  37.403   0.360
76325NA+    NA+43393   9.883  31.946  14.507
76326NA+    NA+43394  22.698  31.070  10.504
76327NA+    NA+43395  22.544  42.499  12.003
76328NA+    NA+43396   5.359  29.436  14.938
76329NA+    NA+43397  15.721   0.885  12.437
76330NA+    NA+43398  44.396  38.433  14.775
76331NA+    NA+43399   8.284   5.829  11.455
76332NA+    NA+43400  12.354  15.095  12.536
76333NA+    NA+43401   3.300  13.658  11.091
76334NA+    NA+43402  14.752  34.914   0.805
76335NA+    NA+43403  37.040  39.858   2.855
76336NA+    NA+43404  30.657  12.724  12.446
76337NA+    NA+43405  23.232   6.813   3.648
76338NA+    NA+43406  32.401  17.286   4.171
76339NA+    NA+43407  36.977  11.850  14.470
76340NA+    NA+43408  19.561  18.262  11.441
76341NA+    NA+43409  34.060  19.122   4.743
76342NA+    NA+43410  19.740  15.591   4.808
76343NA+    NA+43411  23.170  28.154   1.341
76344NA+    NA+43412  10.343  43.874  13.808
76345NA+    NA+43413  36.963  14.714  10.471
76346NA+    NA+43414   8.888  24.080   3.677
76347NA+    NA+43415   1.889  36.372   5.309
76348NA+    NA+43416  27.611  14.287   3.336
76349NA+    NA+43417  18.673  18.158   1.270
76350NA+    NA+43418  41.294  13.132   3.744
76351NA+    NA+43419  44.011  30.929   3.377
76352NA+    NA+43420   9.275  28.963   4.640
76353NA+    NA+43421  23.697   2.872   4.756
76354NA+    NA+43422   9.810  21.088  11.967
76355NA+    NA+43423   3.216  14.137   3.809
76356NA+    NA+43424   5.791  43.774   1.770
76357NA+    NA+43425  29.116  28.090   0.841
76358NA+    NA+43426  33.079  37.410   4.266
76359NA+    NA+43427  40.828   8.292   1.322
76360NA+    NA+43428  10.840  31.538  14.423
76361NA+    NA+43429  35.361  35.041  14.885
76362NA+    NA+43430   4.709  10.800   0.943
76363NA+    NA+43431  41.335  33.114  12.884
76364NA+    NA+43432  33.424  26.591   5.176
76365NA+    NA+43433  31.907  16.679  13.869
76366NA+    NA+43434  36.952   0.955   4.243
76367NA+    NA+43435   0.746  43.280  11.610
76368NA+    NA+43436  19.758  40.323  10.926
76369NA+    NA+43437  28.030   7.668  11.981
76370NA+    NA+43438  21.562  17.185  14.847
76371NA+    NA+43439  40.823  25.974   4.752
76372NA+    NA+43440  15.741  21.711   2.198
76373NA+    NA+43441  13.224  43.777   2.377
76374NA+    NA+43442  27.141   9.171  12.426
76375NA+    NA+43443  18.061  19.140   2.380
76376NA+    NA+43444  16.707  29.633   1.377
76377NA+    NA+43445  44.367  12.645  13.825
76378NA+    NA+43446   0.818   3.373  13.347
76379NA+    NA+43447  12.146  16.687   0.280
76380NA+    NA+43448  14.306  14.768   1.893
76381NA+    NA+43449  23.680  41.483   0.945
76382NA+    NA+43450  21.630  42.905   3.329
76383NA+    NA+43451  11.684   4.758   2.802
76384NA+    NA+43452  40.912  27.112   4.315
76385NA+    NA+43453  37.880  33.507  13.977
76386NA+    NA+43454  43.929  41.343  13.439
76387NA+    NA+43455  31.122  31.045  12.044
76388NA+    NA+43456  43.814  10.812  14.340
76389NA+    NA+43457   0.930  12.611  14.352
76390NA+    NA+43458  42.862  25.485  14.406
76391NA+    NA+43459  29.923   8.815  10.566
76392NA+    NA+43460  26.539  35.895   4.288
76393NA+    NA+43461  19.203  31.096  12.833
76394NA+    NA+43462  26.129  34.018   4.661
76395NA+    NA+43463  41.359  25.026   3.319
76396NA+    NA+43464  33.591  11.844  11.549
76397NA+    NA+43465  29.504  20.574  12.486
76398NA+    NA+43466  13.660  31.548   0.887
76399NA+    NA+43467  31.048   6.329   4.218
76400NA+    NA+43468   0.761  42.490  11.002
76401NA+    NA+43469  24.131  14.796  11.553
76402NA+    NA+43470  33.109  18.116   3.373
76403NA+    NA+43471  12.183   3.312   0.312
76404NA+    NA+43472  34.477  23.019   3.728
76405NA+    NA+43473  33.104  39.373  13.904
76406NA+    NA+43474  17.683  23.589   0.243
76407NA+    NA+43475  35.072  17.677  10.943
76408NA+    NA+43476   9.346   1.277  10.988
76409NA+    NA+43477  41.324   2.460  14.315
76410NA+    NA+43478  35.490  38.542   3.826
76411NA+    NA+43479  37.500  29.090  13.915
76412NA+    NA+43480  25.650  38.413  14.856
76413NA+    NA+43481  42.498  14.208  12.481
76414NA+    NA+43482   8.194  41.329  10.480
76415NA+    NA+43483  29.146  37.453   2.195
76416NA+    NA+43484  23.641   5.794  10.604
76417NA+    NA+43485  14.151  29.033   1.758
76418NA+    NA+43486  27.146   8.397   2.302
76419NA+    NA+43487  13.267  34.996  13.454
76420NA+    NA+43488  36.879   6.692  10.497
76421NA+    NA+43489  39.041  17.565  11.462
76422NA+    NA+43490  21.177   7.292  14.290
76423NA+    NA+43491  42.376  20.161  10.631
76424NA+    NA+43492  37.951  32.391  11.051
76425NA+    NA+43493   7.211  43.849   2.813
76426NA+    NA+43494   7.753  21.104  12.385
76427NA+    NA+43495  31.074  29.660   0.880
76428NA+    NA+43496   4.723  40.804   1.225
76429NA+    NA+43497  11.230   4.773   4.199
76430NA+    NA+43498  33.390   4.852   2.787
76431NA+    NA+43499  32.603   2.754  13.048
76432NA+    NA+43500  32.004  33.395   5.174
76433NA+    NA+43501  13.237  24.496   1.818
76434NA+    NA+43502  22.015   0.341  14.886
76435NA+    NA+43503   4.830  17.792   9.646
76436NA+    NA+43504  30.947  19.090  12.381
76437NA+    NA+43505  30.924  44.845   0.950
76438NA+    NA+43506  41.523   4.887  14.996
76439NA+    NA+43507  36.959  37.970   4.216
76440NA+    NA+43508  33.082  39.988  13.438
76441NA+    NA+43509  41.450   9.284  11.115
76442NA+    NA+43510  27.093  12.239   3.681
76443NA+    NA+43511  38.334  25.579   0.397
76444NA+    NA+43512  36.392  36.428  14.891
76445NA+    NA+43513  32.030  25.490   0.384
76446NA+    NA+43514  27.974   3.899   1.436
76447NA+    NA+43515  33.967  24.046  14.513
76448NA+    NA+43516   3.373  33.078  12.881
76449NA+    NA+43517  33.009  11.837   1.790
76450NA+    NA+43518  17.251  13.762  10.614
76451NA+    NA+43519  15.641   2.319  11.372
76452NA+    NA+43520  37.002  17.659   4.287
76453NA+    NA+43521   6.762  20.160  10.529
76454NA+    NA+43522  44.000   5.788  13.476
76455NA+    NA+43523   2.819  21.695   4.749
76456NA+    NA+43524   9.270  33.593  10.472
76457NA+    NA+43525  35.880  39.387   3.178
76458NA+    NA+43526   7.902  40.889  12.523
76459NA+    NA+43527  35.592  27.134  13.439
76460NA+    NA+43528  31.978  22.659   4.232
76461NA+    NA+43529  16.580  17.158  13.828
76462NA+    NA+43530   8.241  36.055  13.057
76463NA+    NA+43531  32.459   6.357  10.633
76464NA+    NA+43532  10.681   6.381  10.084
76465NA+    NA+43533  12.129  19.258   3.314
76466NA+    NA+43534  18.647   1.400  13.806
76467NA+    NA+43535  24.637  20.212  10.898
76468NA+    NA+43536  31.503  31.463   0.908
76469NA+    NA+43537  33.994  41.889  12.049
76470NA+    NA+43538   7.684   8.683  11.980
76471NA+    NA+43539   2.904   0.877  12.528
76472NA+    NA+43540  16.272  44.350  14.416
76473NA+    NA+43541  13.170  17.179   4.669
76474NA+    NA+43542   5.817  24.055  12.050
76475NA+    NA+43543  15.084  26.604  11.499
76476NA+    NA+43544   9.243  15.626  10.545
76477NA+    NA+43545  36.512  24.109   4.302
76478NA+    NA+43546  12.815  40.023   2.310
76479NA+    NA+43547   4.430   5.301  12.039
76480NA+    NA+43548  25.650  16.726  13.931
76481NA+    NA+43549  33.474  18.133  13.516
76482NA+    NA+43550  19.078  11.176   2.288
76483NA+    NA+43551  43.346  27.187   2.880
76484NA+    NA+43552  28.034  39.872   0.807
76485NA+    NA+43553  34.582  34.487   4.673
76486NA+    NA+43554  29.565   0.950  13.943
76487NA+    NA+43555   0.768  22.064   3.853
76488NA+    NA+43556  20.681   0.748  12.094
76489NA+    NA+43557  41.462  42.802   2.722
76490NA+    NA+43558  16.187  33.626  12.349
76491NA+    NA+43559  18.688  30.963  12.065
76492NA+    NA+43560   2.252  16.585   4.637
76493NA+    NA+43561  41.355  42.777  14.299
76494NA+    NA+43562  35.438  22.701  14.771
76495NA+    NA+43563   3.808   2.258   0.332
76496NA+    NA+43564  37.856  40.899  10.466
76497NA+    NA+43565  39.323  13.653   4.160
76498NA+    NA+43566  34.544  32.415   4.251
76499NA+    NA+43567  34.071  11.645  11.561
76500NA+    NA+43568  30.959  23.503   5.227
76501NA+    NA+43569  27.048   4.301  13.506
76502NA+    NA+43570  30.092  27.076   0.790
76503NA+    NA+43571  10.648   6.237   4.638
76504NA+    NA+43572  34.891  18.294   0.439
76505NA+    NA+43573  42.500  18.609   2.665
76506NA+    NA+43574  36.437  28.953  12.349
76507NA+    NA+43575  16.288   7.416  12.516
76508NA+    NA+43576   3.302  21.132   4.614
76509NA+    NA+43577   7.218   1.854   4.280
76510NA+    NA+43578  30.585  18.587  13.913
76511NA+    NA+43579  17.627  18.786  14.275
76512NA+    NA+43580  20.744  35.377  13.366
76513NA+    NA+43581  33.624   7.777  14.832
76514NA+    NA+43582  21.186  30.467   0.757
76515NA+    NA+43583  38.835   8.168   1.333
76516NA+    NA+43584  18.649  40.363   0.464
76517NA+    NA+43585   1.463   1.932  11.984
76518NA+    NA+43586  24.087   0.781  14.300
76519NA+    NA+43587  16.295  18.636   5.212
76520NA+    NA+43588  13.142  32.885   2.780
76521NA+    NA+43589   8.319  10.302   4.743
76522NA+    NA+43590  39.346   1.854   4.692
76523NA+    NA+43591  12.699  42.284  14.473
76524NA+    NA+43592   0.293   1.320   1.919
76525NA+    NA+43593  14.639  25.214   4.124
76526NA+    NA+43594  10.689   1.813   4.603
76527NA+    NA+43595  38.377  34.542   3.271
76528NA+    NA+43596  17.102  14.194   4.163
76529NA+    NA+43597  39.331  29.546  14.851
76530NA+    NA+43598  15.133  30.579   3.181
76531NA+    NA+43599  13.690  27.967   0.814
76532NA+    NA+43600  34.881  33.044   2.724
76533NA+    NA+43601   0.847  42.028  11.995
76534NA+    NA+43602  42.875  12.155  10.450
76535NA+    NA+43603  41.363  11.181  11.879
76536NA+    NA+43604  30.579  39.550  14.923
76537NA+    NA+43605  17.136  21.100  10.955
76538NA+    NA+43606  17.107   4.365  12.401
76539NA+    NA+43607  17.706  32.926   4.834
76540NA+    NA+43608  37.351  16.793   0.930
76541NA+    NA+43609  25.692  29.457   0.335
76542NA+    NA+43610   5.326  31.540  11.083
76543NA+    NA+43611   0.876  29.031  14.344
76544NA+    NA+43612  42.856  35.424  13.965
76545NA+    NA+43613   6.190  33.126  10.527
76546NA+    NA+43614  12.127   0.884   1.843
76547NA+    NA+43615  41.933   4.910   4.211
76548NA+    NA+43616   0.350  43.932  10.511
76549NA+    NA+43617  28.678  34.968   2.394
76550NA+    NA+43618   3.903  38.479   1.810
76551NA+    NA+43619  39.961  15.652   3.684
76552NA+    NA+43620  44.811  30.460   0.409
76553NA+    NA+43621   4.702   3.429   2.197
76554NA+    NA+43622  35.866  13.614  12.457
76555NA+    NA+43623  23.181  35.083   0.453
76556NA+    NA+43624   2.949  29.583   4.346
76557NA+    NA+43625  35.069  29.572  10.985
76558NA+    NA+43626  16.807  38.483  12.464
76559NA+    NA+43627   9.346  27.998  11.983
76560NA+    NA+43628  22.073   5.879  11.120
76561NA+    NA+43629  14.108  23.605  14.974
76562NA+    NA+43630   0.482   7.334  12.899
76563NA+    NA+43631  39.930  23.065  10.645
76564NA+    NA+43632  36.577   1.280  12.984
76565NA+    NA+43633   1.446  32.975  10.492
76566NA+    NA+43634  39.047   8.797   3.302
76567NA+    NA+43635   2.319  11.760   2.294
76568NA+    NA+43636   8.320   4.844  11.999
76569NA+    NA+43637   3.777  30.974   1.888
76570NA+    NA+43638  33.095  36.430   0.797
76571NA+    NA+43639  43.973   3.902   0.810
76572NA+    NA+43640  43.832   6.220  11.886
76573NA+    NA+43641  21.255  15.215   9.975
76574NA+    NA+43642  28.089   1.356  12.978
76575NA+    NA+43643  19.712   8.401   1.879
76576NA+    NA+43644  41.791  38.846   0.281
76577NA+    NA+43645  44.343  30.158  12.845
76578NA+    NA+43646  15.678  26.126  12.083
76579NA+    NA+43647  40.986  43.859   2.719
76580NA+    NA+43648  38.434  14.784   1.841
76581NA+    NA+43649  16.719  34.501   2.685
76582NA+    NA+43650  21.188  19.090  14.452
76583NA+    NA+43651  42.321  20.566   2.881
76584NA+    NA+43652   3.911  38.347  10.938
76585NA+    NA+43653  41.920  16.236  11.556
76586NA+    NA+43654  27.996   1.768  11.554
76587NA+    NA+43655  20.158  26.609  13.477
76588NA+    NA+43656  28.976  38.060  10.900
76589NA+    NA+43657  27.506   8.715  13.436
76590NA+    NA+43658  11.156  21.042  11.945
76591NA+    NA+43659   2.728  33.619  12.390
76592NA+    NA+43660   7.749  42.430  11.121
76593NA+    NA+43661   2.905  19.261  10.932
76594NA+    NA+43662  34.058  29.095  11.960
76595NA+    NA+43663  27.065   5.334   0.962
76596NA+    NA+43664  30.141   2.832   2.898
76597NA+    NA+43665  25.072  21.617  12.871
76598NA+    NA+43666   8.271  26.663  11.530
76599NA+    NA+43667  16.776  38.996   4.192
76600NA+    NA+43668  30.158   8.374   4.156
76601NA+    NA+43669  13.284  31.909  12.073
76602NA+    NA+43670   2.834  21.221   4.241
76603NA+    NA+43671  35.918  36.530  10.515
76604NA+    NA+43672  37.999  19.113  14.960
76605NA+    NA+43673   0.289   6.777   4.299
76606NA+    NA+43674  12.151  24.709   3.696
76607NA+    NA+43675  29.076  31.455   1.826
76608NA+    NA+43676  27.627  39.847  12.483
76609NA+    NA+43677  28.585   6.198  12.969
76610NA+    NA+43678  42.848   6.343   3.821
76611NA+    NA+43679  19.686  22.999   1.380
76612NA+    NA+43680  10.307  40.462  14.954
76613NA+    NA+43681  39.500  28.530  14.440
76614NA+    NA+43682  25.060  19.749   4.738
76615NA+    NA+43683  20.131  14.750   4.219
76616NA+    NA+43684  35.906  20.644  13.329
76617NA+    NA+43685  29.498  24.712  12.949
76618NA+    NA+43686  40.991  27.983   1.902
76619NA+    NA+43687   7.747   7.320   3.362
76620NA+    NA+43688  18.176  17.117   0.474
76621NA+    NA+43689  11.324   0.897  14.506
76622NA+    NA+43690  34.542  17.150  10.463
76623NA+    NA+43691  23.239   1.948  11.574
76624NA+    NA+43692  16.160  11.801   2.750
76625NA+    NA+43693  25.191  34.433  14.966
76626NA+    NA+43694  10.240  36.935   4.254
76627NA+    NA+43695  16.200  37.000   3.231
76628NA+    NA+43696  44.848  21.040   4.348
76629NA+    NA+43697  21.032  19.593  10.941
76630NA+    NA+43698  18.260  41.928  12.461
76631NA+    NA+43699  32.427  24.567   5.590
76632NA+    NA+43700  42.411  41.017   3.343
76633NA+    NA+43701  42.971  31.591  13.859
76634NA+    NA+43702  12.344  38.829  11.454
76635NA+    NA+43703  44.351  36.560   4.727
76636NA+    NA+43704  20.154  23.065  11.020
76637NA+    NA+43705  10.202  26.001  14.385
76638NA+    NA+43706  39.021  10.194   1.239
76639NA+    NA+43707   1.948  39.480   0.279
76640NA+    NA+43708  40.410  42.987  10.145
76641NA+    NA+43709   5.333   5.261   2.334
76642NA+    NA+43710  32.914   1.347   1.734
76643NA+    NA+43711  18.761   9.209   3.769
76644NA+    NA+43712   3.309  26.658  11.116
76645NA+    NA+43713  36.530  14.784   3.237
76646NA+    NA+43714  39.543  29.575  10.918
76647NA+    NA+43715  27.105   2.380  11.944
76648NA+    NA+43716  21.622  22.714  11.516
76649NA+    NA+43717  23.491  28.588   0.261
76650NA+    NA+43718  41.509  33.566  11.890
76651NA+    NA+43719  17.699  27.597  13.352
76652NA+    NA+43720  17.633  14.171   2.726
76653NA+    NA+43721   0.970  22.174   4.820
76654NA+    NA+43722   3.423  42.304   3.765
76655NA+    NA+43723  15.213   1.838   1.447
76656NA+    NA+43724  36.058   5.812   2.814
76657NA+    NA+43725  42.922  26.163  11.586
76658NA+    NA+43726  30.450   4.852   4.758
76659NA+    NA+43727  44.999  38.963  13.536
76660NA+    NA+43728  42.012  23.697   5.315
76661NA+    NA+43729  27.483   4.317  13.414
76662NA+    NA+43730  36.074  33.506  12.825
76663NA+    NA+43731   5.736  39.849  10.963
76664NA+    NA+43732   3.864  43.862  12.070
76665NA+    NA+43733  44.857  37.882  12.516
76666NA+    NA+43734  13.841  28.970   2.373
76667NA+    NA+43735  12.700  16.108   4.127
76668NA+    NA+43736  35.485   6.717  14.016
76669NA+    NA+43737  16.239  30.468   3.270
76670NA+    NA+43738  44.418   8.256   1.867
76671NA+    NA+43739  27.124  38.912  14.861
76672NA+    NA+43740   2.409   9.266  12.437
76673NA+    NA+43741  30.509   1.969   2.314
76674NA+    NA+43742  35.552  39.319   4.326
76675NA+    NA+43743  43.791  11.217   1.264
76676NA+    NA+43744   4.219  44.279   3.718
76677NA+    NA+43745  14.746  13.188   4.346
76678NA+    NA+43746  16.740  28.017   2.733
76679NA+    NA+43747  18.677   5.374   1.217
76680NA+    NA+43748  27.129  23.564   1.361
76681NA+    NA+43749  32.629  25.057  11.388
76682NA+    NA+43750  34.394  17.253   2.855
76683NA+    NA+43751  17.569  27.519  11.552
76684NA+    NA+43752  41.039  14.284  12.886
76685NA+    NA+43753  20.126  36.941  10.554
76686NA+    NA+43754  34.063   6.913  12.542
76687NA+    NA+43755   4.258   3.300   4.753
76688NA+    NA+43756  19.063  31.426  14.497
76689NA+    NA+43757  11.789  12.248   0.265
76690NA+    NA+43758   8.699  41.948   5.093
76691NA+    NA+43759  11.666   9.764   2.696
76692NA+    NA+43760  25.043  33.978  14.025
76693NA+    NA+43761  43.856  32.589   0.467
76694NA+    NA+43762  13.778   6.289   1.359
76695NA+    NA+43763  17.146  23.569   4.741
76696NA+    NA+43764  23.998  13.838  11.084
76697NA+    NA+43765  21.648  27.128   1.929
76698NA+    NA+43766  13.635  25.097  10.516
76699NA+    NA+43767  18.178  17.748  14.429
76700NA+    NA+43768   9.752  20.689   0.863
76701NA+    NA+43769  32.458  17.162   0.963
76702NA+    NA+43770  19.677  43.489  10.998
76703NA+    NA+43771  21.676  14.692  13.343
76704NA+    NA+43772   6.396  31.929  11.538
76705NA+    NA+43773  21.097   5.327  13.798
76706NA+    NA+43774  29.429   8.333  14.788
76707NA+    NA+43775   5.400  29.547   3.645
76708NA+    NA+43776  37.462   4.242  11.068
76709NA+    NA+43777  13.115  30.954   4.798
76710NA+    NA+43778  37.376  41.892   2.892
76711NA+    NA+43779   4.369  26.047  12.043
76712NA+    NA+43780  15.115   8.336  10.947
76713NA+    NA+43781  41.018  38.380   1.394
76714NA+    NA+43782  42.853  29.624  10.917
76715NA+    NA+43783  18.719  16.172   1.415
76716NA+    NA+43784  16.241  31.589   3.674
76717NA+    NA+43785   9.760  35.526  14.444
76718NA+    NA+43786  10.656   0.781   1.440
76719NA+    NA+43787  33.960   7.731  13.823
76720NA+    NA+43788  29.435  13.733   0.445
76721NA+    NA+43789  12.665   5.200  11.009
76722NA+    NA+43790  20.707   0.871   1.402
76723NA+    NA+43791   8.347   8.247   1.839
76724NA+    NA+43792  15.619  33.398   1.818
76725NA+    NA+43793  30.972  38.550   1.390
76726NA+    NA+43794   1.851  10.657   2.255
76727NA+    NA+43795   9.791  25.969  11.422
76728NA+    NA+43796  19.044  20.181   1.397
76729NA+    NA+43797  25.479  30.549   3.796
76730NA+    NA+43798  15.222  12.290   1.344
76731NA+    NA+43799  18.069   3.795  13.806
76732NA+    NA+43800  35.414  18.181   1.921
76733NA+    NA+43801  14.174  41.382  14.830
76734NA+    NA+43802   1.338  17.582  14.345
76735NA+    NA+43803  23.139  10.755  12.445
76736NA+    NA+43804  23.590   6.680  11.059
76737NA+    NA+43805  43.822  22.191   4.794
76738NA+    NA+43806  35.909  41.382  13.544
76739NA+    NA+43807   6.380  18.284   3.365
76740NA+    NA+43808  14.267  15.686  14.280
76741NA+    NA+43809  17.727  30.536  12.419
76742NA+    NA+43810  36.472  22.148  10.971
76743NA+    NA+43811   0.315  22.087   2.221
76744NA+    NA+43812   4.805   3.936  14.421
76745NA+    NA+43813   8.895  30.153   1.223
76746NA+    NA+43814  42.964  24.522  13.059
76747NA+    NA+43815  17.073  16.307   3.321
76748NA+    NA+43816  44.826   4.792  11.541
76749NA+    NA+43817   7.883   9.784   1.261
76750NA+    NA+43818  40.375  37.492   0.391
76751NA+    NA+43819  25.708  35.475  12.057
76752NA+    NA+43820   3.949  41.291  12.052
76753NA+    NA+43821  21.688  18.702   0.392
76754NA+    NA+43822  44.907   5.268   0.758
76755NA+    NA+43823  15.725  27.969  13.343
76756NA+    NA+43824   2.322   6.425  11.544
76757NA+    NA+43825   0.348  11.789  14.342
76758NA+    NA+43826  20.693   5.696  11.861
76759NA+    NA+43827   7.883  30.629   4.306
76760NA+    NA+43828  42.527  30.432   4.706
76761NA+    NA+43829  42.833  40.468  14.802
76762NA+    NA+43830  12.189  39.387  11.607
76763NA+    NA+43831  35.918  37.485  13.983
76764NA+    NA+43832  40.432   7.291  13.892
76765NA+    NA+43833  38.039  36.867   1.876
76766NA+    NA+43834  30.470  22.184  13.064
76767NA+    NA+43835  11.693  11.329   0.830
76768NA+    NA+43836   3.933  37.518   9.989
76769NA+    NA+43837  15.780  17.111  11.960
76770NA+    NA+43838  25.664  38.360  10.978
76771NA+    NA+43839   8.313   3.432   1.924
76772NA+    NA+43840  11.259  33.600   4.118
76773NA+    NA+43841  21.118   2.752  12.973
76774NA+    NA+43842  33.591  31.999   1.840
76775NA+    NA+43843  19.559  24.180   3.324
76776NA+    NA+43844  15.624   0.396   2.299
76777NA+    NA+43845  39.391  42.456   3.840
76778NA+    NA+43846  36.858  11.179  10.436
76779NA+    NA+43847   9.323  40.967   4.121
76780NA+    NA+43848  43.512   4.737  12.985
76781NA+    NA+43849  42.916   8.753  11.511
76782NA+    NA+43850  18.063  19.258   3.199
76783NA+    NA+43851  22.674   1.947   2.662
76784NA+    NA+43852  18.654  12.773  13.329
76785NA+    NA+43853  32.111  33.061   4.134
76786NA+    NA+43854  13.214  15.636  14.991
76787NA+    NA+43855   2.788  39.392  13.015
76788NA+    NA+43856  35.459  36.996  13.483
76789NA+    NA+43857  25.513   2.783   2.187
76790NA+    NA+43858  14.185  33.451   1.321
76791NA+    NA+43859   6.210  43.310   0.439
76792NA+    NA+43860  13.610  22.579   0.481
76793NA+    NA+43861  30.978  32.016   0.925
76794NA+    NA+43862   8.830  33.513  12.825
76795NA+    NA+43863   7.708  36.905  12.969
76796NA+    NA+43864   8.214   2.384   2.379
76797NA+    NA+43865  30.050  39.318  11.515
76798NA+    NA+43866  31.631  23.634  14.326
76799NA+    NA+43867  24.539  44.451   1.394
76800NA+    NA+43868  10.200  17.674   2.882
76801NA+    NA+43869  24.486  13.249  12.847
76802NA+    NA+43870  41.394  33.593  14.294
76803NA+    NA+43871  37.854  11.188   1.403
76804NA+    NA+43872   1.429  31.545  10.609
76805NA+    NA+43873  23.698  41.313  13.972
76806NA+    NA+43874   7.678  11.856   2.279
76807NA+    NA+43875  30.964  32.436  11.494
76808NA+    NA+43876  29.503  40.356   9.946
76809NA+    NA+43877  26.156  41.906  14.937
76810NA+    NA+43878  30.578  41.911  14.417
76811NA+    NA+43879  12.285  41.917   2.310
76812NA+    NA+43880  21.197  20.148  12.836
76813NA+    NA+43881   9.282  41.519   1.720
76814NA+    NA+43882  40.926  35.598   4.654
76815NA+    NA+43883  42.933  29.011  11.882
76816NA+    NA+43884  38.016   3.921   2.375
76817NA+    NA+43885  44.429  35.096  12.554
76818NA+    NA+43886   5.690  43.432  14.815
76819NA+    NA+43887  11.142  12.322   4.640
76820NA+    NA+43888  32.432  41.452  12.442
76821NA+    NA+43889  20.260  37.576  14.280
76822NA+    NA+43890  21.137  33.936  13.475
76823NA+    NA+43891  41.817  38.473  10.613
76824NA+    NA+43892   7.774   2.797   2.772
76825NA+    NA+43893  43.393  11.626  12.062
76826NA+    NA+43894  24.044  30.634  14.441
76827NA+    NA+43895   8.713  35.363   0.380
76828NA+    NA+43896  25.700  15.153   4.125
76829NA+    NA+43897  42.845  19.086  13.442
76830NA+    NA+43898  19.273  20.109   2.300
76831NA+    NA+43899  43.316  15.654   5.218
76832NA+    NA+43900   9.194  27.652  10.908
76833NA+    NA+43901  13.154  12.211  11.895
76834NA+    NA+43902   7.745  38.006  12.463
76835NA+    NA+43903  16.241   4.896   0.436
76836NA+    NA+43904  10.141  37.024  11.442
76837NA+    NA+43905  36.002  30.055   2.867
76838NA+    NA+43906  37.923  36.071   3.728
76839NA+    NA+43907  22.505   5.708  11.974
76840NA+    NA+43908   5.409   8.247   0.869
76841NA+    NA+43909  12.290  15.272  10.635
76842NA+    NA+43910  23.220  26.517   3.633
76843NA+    NA+43911  11.205  43.878  11.960
76844NA+    NA+43912  28.495  11.367   3.278
76845NA+    NA+43913  23.184  42.498  11.571
76846NA+    NA+43914   1.770  34.475  14.364
76847NA+    NA+43915  31.045  21.106  10.436
76848NA+    NA+43916  11.167  13.641  14.908
76849NA+    NA+43917  21.679  44.875   4.172
76850NA+    NA+43918  27.079  42.485   4.296
76851NA+    NA+43919  30.119   4.729  13.499
76852NA+    NA+43920  11.148  26.616  11.855
76853NA+    NA+43921  40.926  35.856   0.426
76854NA+    NA+43922  37.063  32.637   1.388
76855NA+    NA+43923  18.618  21.648  12.486
76856NA+    NA+43924  26.689  13.705   0.899
76857NA+    NA+43925   3.889   7.304   3.239
76858NA+    NA+43926   2.338   9.371  14.812
76859NA+    NA+43927  17.760  40.314   2.760
76860NA+    NA+43928  26.959  16.707  13.389
76861NA+    NA+43929   8.193  14.315   1.851
76862NA+    NA+43930  31.619  20.587   0.834
76863NA+    NA+43931  43.806  17.290   3.710
76864NA+    NA+43932  22.565  41.382  14.476
76865NA+    NA+43933  20.163  35.985  12.360
76866NA+    NA+43934  37.060  24.642   3.780
76867NA+    NA+43935  10.704  23.628  10.556
76868NA+    NA+43936  17.655  10.312  12.025
76869NA+    NA+43937  42.948  26.553  14.021
76870NA+    NA+43938  20.146   2.765  13.795
76871NA+    NA+43939   3.839   3.716  10.644
76872NA+    NA+43940  38.433  19.168   2.719
76873NA+    NA+43941  42.817  27.023   1.707
76874NA+    NA+43942  14.589   9.174   2.360
76875NA+    NA+43943   8.249  14.221   0.793
76876NA+    NA+43944   9.858  16.743  13.500
76877NA+    NA+43945  16.609  21.677  13.808
76878NA+    NA+43946  11.223  18.285  12.435
76879NA+    NA+43947  26.148  41.398   1.718
76880NA+    NA+43948  31.142  25.490  11.400
76881NA+    NA+43949  29.162   3.298  14.931
76882NA+    NA+43950   5.782   3.392   0.773
76883NA+    NA+43951   3.333  14.594  14.917
76884NA+    NA+43952  10.709   2.734  14.293
76885NA+    NA+43953  40.539  17.777   1.899
76886NA+    NA+43954  15.791  37.556   2.240
76887NA+    NA+43955  23.595  27.945  10.541
76888NA+    NA+43956  10.213   6.870  12.047
76889NA+    NA+43957   5.741   1.328  11.988
76890NA+    NA+43958  23.717   2.415  11.534
76891NA+    NA+43959  26.181   1.298  12.967
76892NA+    NA+43960  28.472  29.985  13.361
76893NA+    NA+43961   3.380  29.482   0.244
76894NA+    NA+43962  38.947  24.601  11.057
76895NA+    NA+43963   7.834  18.100   1.430
76896NA+    NA+43964   0.757  36.084  10.564
76897NA+    NA+43965  16.197  16.653   3.340
76898NA+    NA+43966  24.681  26.099   1.337
76899NA+    NA+43967  24.715  17.266   4.121
76900NA+    NA+43968   0.867  30.437   0.326
76901NA+    NA+43969   1.277  35.452  10.525
76902NA+    NA+43970  29.497  41.524  13.973
76903NA+    NA+43971  22.698  22.153  12.401
76904NA+    NA+43972   9.283  24.486   2.220
76905NA+    NA+43973  10.686  41.508   1.762
76906NA+    NA+43974  19.105   3.287   0.296
76907NA+    NA+43975  12.133  25.574   4.234
76908NA+    NA+43976  11.771  19.281  10.891
76909NA+    NA+43977  24.216  44.425   0.899
76910NA+    NA+43978  43.461  43.775  12.573
76911NA+    NA+43979  18.277  32.947  13.010
76912NA+    NA+43980  43.776   1.928  10.576
76913NA+    NA+43981  12.159  33.039   0.305
76914NA+    NA+43982  19.604  24.118   5.115
76915NA+    NA+43983  20.217  14.706   3.865
76916NA+    NA+43984  27.453  22.015  11.901
76917NA+    NA+43985  14.139  30.447  14.014
76918NA+    NA+43986  15.230  21.701  11.900
76919NA+    NA+43987  24.487  14.249   2.201
76920NA+    NA+43988  19.602  25.019  10.618
76921NA+    NA+43989  33.560  31.495   4.330
76922NA+    NA+43990  28.032  38.559  14.937
76923NA+    NA+43991  39.334  14.275  13.817
76924NA+    NA+43992  22.573   1.244  10.407
76925NA+    NA+43993  43.839  15.780   2.827
76926NA+    NA+43994   8.688  15.683  11.590
76927NA+    NA+43995   9.847  34.521   1.770
76928NA+    NA+43996  11.847  34.100  13.020
76929NA+    NA+43997  10.274  21.128   3.798
76930NA+    NA+43998  24.027  18.667   0.388
76931NA+    NA+43999  23.597  14.721  14.371
76932NA+    NA+44000  38.462   6.292   2.351
76933NA+    NA+44001   2.399  33.512   2.402
76934NA+    NA+44002  15.690  26.490  12.874
76935NA+    NA+44003  30.496  29.172   0.966
76936NA+    NA+44004  34.368  39.431   1.212
76937NA+    NA+44005  18.760  30.479   0.403
76938NA+    NA+44006   0.291   0.983   3.329
76939NA+    NA+44007  29.982  25.502  13.450
76940NA+    NA+44008   9.234  25.028   1.354
76941NA+    NA+44009  18.211   8.838  14.833
76942NA+    NA+44010  22.194  32.910   4.142
76943NA+    NA+44011   7.403  43.872  11.067
76944NA+    NA+44012  40.337  41.836   4.161
76945NA+    NA+44013  12.830  27.585   1.923
76946NA+    NA+44014  18.180   6.263  13.953
76947NA+    NA+44015  18.175  17.078  13.418
76948NA+    NA+44016  26.139  37.062  13.380
76949NA+    NA+44017  40.809  14.122   1.325
76950NA+    NA+44018  43.502  23.219   3.209
76951NA+    NA+44019  24.987  27.496   3.671
76952NA+    NA+44020  12.200  18.061   1.897
76953NA+    NA+44021  43.775  42.817   0.291
76954NA+    NA+44022   9.244   6.225  10.895
76955NA+    NA+44023  20.089  11.815  10.606
76956NA+    NA+44024  15.257  42.333  12.495
76957NA+    NA+44025   1.380  13.216  10.471
76958NA+    NA+44026   2.446  34.056   0.859
76959NA+    NA+44027  27.123  22.673   4.162
76960NA+    NA+44028   2.258   2.432  13.813
76961NA+    NA+44029  11.135   9.676  11.470
76962NA+    NA+44030  39.928  26.603   3.167
76963NA+    NA+44031  28.997  35.591  13.798
76964NA+    NA+44032  35.109   5.718   3.319
76965NA+    NA+44033  12.649  26.148   1.887
76966NA+    NA+44034  30.921   3.422   2.854
76967NA+    NA+44035  35.031  31.095   3.357
76968NA+    NA+44036  17.573  20.071   4.221
76969NA+    NA+44037   9.660  14.149  10.468
76970NA+    NA+44038  12.298  13.621   3.865
76971NA+    NA+44039  39.931  34.904   4.276
76972NA+    NA+44040  44.947   5.727   2.802
76973NA+    NA+44041  39.448  38.861   1.234
76974NA+    NA+44042  36.963  20.545  13.953
76975NA+    NA+44043  12.117  19.641  12.059
76976NA+    NA+44044   1.975  26.206   2.816
76977NA+    NA+44045  17.586  13.830   3.242
76978NA+    NA+44046  16.302  30.994  14.400
76979NA+    NA+44047  31.443  20.051   2.265
76980NA+    NA+44048  31.540  39.927   4.150
76981NA+    NA+44049   7.350  44.390   4.818
76982NA+    NA+44050  33.588  23.513  13.006
76983NA+    NA+44051  17.659   3.379  13.021
76984NA+    NA+44052  38.895  16.749   0.921
76985NA+    NA+44053   9.828  12.280   3.195
76986NA+    NA+44054  18.287  20.255  14.981
76987NA+    NA+44055   2.917  21.060   1.347
76988NA+    NA+44056  36.909  33.400  13.904
76989NA+    NA+44057  20.710  17.187  11.044
76990NA+    NA+44058  12.236  11.659  14.322
76991NA+    NA+44059  13.312  11.188  12.061
76992NA+    NA+44060  18.664   9.373  14.507
76993NA+    NA+44061  15.787   0.896   9.934
76994NA+    NA+44062  25.024  24.651  11.109
76995NA+    NA+44063  25.492   5.804  13.480
76996NA+    NA+44064  22.735  28.657   0.840
76997NA+    NA+44065  20.251   7.385  11.480
76998NA+    NA+44066   3.298  21.180   2.409
76999NA+    NA+44067  17.772  16.282  14.966
77000NA+    NA+44068  15.725  26.491  14.441
77001NA+    NA+44069  40.823  10.313   1.864
77002NA+    NA+44070  27.053  30.510   4.228
77003NA+    NA+44071  38.858  37.936   4.187
77004NA+    NA+44072  14.653  40.454  12.468
77005NA+    NA+44073  43.514   8.307   3.188
77006NA+    NA+44074  19.111   9.700  12.914
77007NA+    NA+44075  29.991   1.842  11.966
77008NA+    NA+44076  18.551   5.410   4.241
77009NA+    NA+44077  42.884   1.745   3.684
77010NA+    NA+44078  20.038  19.691  11.469
77011NA+    NA+44079  41.973  40.422   4.798
77012NA+    NA+44080   3.270   5.293   3.749
77013NA+    NA+44081   1.341   3.298  11.447
77014NA+    NA+44082  23.133  38.426   2.686
77015NA+    NA+44083  38.971  28.615   3.797
77016NA+    NA+44084  44.976  15.149   2.894
77017NA+    NA+44085  31.427  15.124  12.568
77018NA+    NA+44086  16.309  13.325   4.799
77019NA+    NA+44087  28.039  22.139  13.844
77020NA+    NA+44088   4.364  31.496   1.756
77021NA+    NA+44089   1.971   0.956  10.908
77022NA+    NA+44090  10.243  27.636   2.872
77023NA+    NA+44091  31.927  25.107  11.111
77024NA+    NA+44092  29.442  37.926   3.701
77025NA+    NA+44093  20.658  27.163   0.453
77026NA+    NA+44094  14.125  30.559   3.233
77027NA+    NA+44095  30.123  17.151  10.523
77028NA+    NA+44096  21.186   2.443  10.488
77029NA+    NA+44097  33.105   7.375  13.317
77030NA+    NA+44098  25.504   4.734   4.710
77031NA+    NA+44099  22.152  18.096  12.082
77032NA+    NA+44100  32.889  40.502   0.957
77033NA+    NA+44101  37.058  29.524  11.045
77034NA+    NA+44102   3.819  15.090  14.296
77035NA+    NA+44103   8.397  19.730  14.439
77036NA+    NA+44104  26.004  41.819   3.749
77037NA+    NA+44105  27.948   5.400  12.398
77038NA+    NA+44106   3.934  40.462   4.659
77039NA+    NA+44107  33.475   1.273   3.762
77040NA+    NA+44108  16.718  15.690  14.491
77041NA+    NA+44109  18.660   1.790  11.108
77042NA+    NA+44110  41.384  19.746  10.547
77043NA+    NA+44111   7.330  31.628   1.729
77044NA+    NA+44112  24.223  33.492  11.455
77045NA+    NA+44113  21.704  35.949  14.840
77046NA+    NA+44114  16.290  30.495  11.576
77047NA+    NA+44115  28.528   1.751  12.980
77048NA+    NA+44116  30.980  11.155   2.281
77049NA+    NA+44117  13.188  19.105  12.027
77050NA+    NA+44118  30.577  38.000   4.808
77051NA+    NA+44119  42.321   2.298   1.321
77052NA+    NA+44120  42.300   1.304  11.877
77053NA+    NA+44121  12.161   5.316  12.963
77054NA+    NA+44122  37.375  40.382  11.400
77055NA+    NA+44123  14.148  21.229   3.225
77056NA+    NA+44124  23.201  22.613  11.896
77057NA+    NA+44125  32.076  12.162  14.316
77058NA+    NA+44126  43.817  13.625   3.239
77059NA+    NA+44127   9.729  16.746  11.043
77060NA+    NA+44128  16.153   4.387   4.676
77061NA+    NA+44129  42.021  38.955  10.607
77062NA+    NA+44130  24.725  16.608  12.390
77063NA+    NA+44131  16.750  25.088   2.199
77064NA+    NA+44132   1.804  24.182   2.229
77065NA+    NA+44133  39.007   0.808  13.481
77066NA+    NA+44134  19.651  32.542   0.397
77067NA+    NA+44135  20.688   6.248   1.438
77068NA+    NA+44136  34.866  33.537  14.915
77069NA+    NA+44137  25.133  37.003   2.386
77070NA+    NA+44138  44.459  20.721  11.491
77071NA+    NA+44139  26.188  36.440  11.892
77072NA+    NA+44140  31.086  39.484   4.746
77073NA+    NA+44141  24.986  22.738   1.263
77074NA+    NA+44142  10.376  33.904   2.324
77075NA+    NA+44143   9.818  12.191   1.933
77076NA+    NA+44144  17.750  14.325  10.423
77077NA+    NA+44145  29.983  23.538  12.054
77078NA+    NA+44146   0.490  36.445  14.309
77079NA+    NA+44147  30.648  22.044   3.852
77080NA+    NA+44148  15.730   1.813  12.897
77081NA+    NA+44149  21.199  25.622   0.960
77082NA+    NA+44150  24.673  16.676   4.786
77083NA+    NA+44151  14.649  21.115   1.910
77084NA+    NA+44152  25.540  10.867  12.470
77085NA+    NA+44153  14.102  15.251   0.796
77086NA+    NA+44154  19.758  33.908   1.350
77087NA+    NA+44155   2.849  36.536   2.239
77088NA+    NA+44156   0.755  18.124  12.523
77089NA+    NA+44157  24.697   0.953  12.506
77090NA+    NA+44158  15.727   6.223   4.606
77091NA+    NA+44159  30.961  39.406  11.006
77092NA+    NA+44160  20.768  34.928  14.788
77093NA+    NA+44161  12.343  40.339   3.647
77094NA+    NA+44162  44.401  43.350  12.873
77095NA+    NA+44163  19.100  37.556  12.364
77096NA+    NA+44164  32.970  41.507   1.218
77097NA+    NA+44165   7.397  41.039  13.411
77098NA+    NA+44166  30.960  33.119   0.868
77099NA+    NA+44167  39.929  44.490   0.308
77100NA+    NA+44168  25.965  35.385  11.379
77101NA+    NA+44169  36.037  26.179   2.889
77102NA+    NA+44170  12.651   5.840  12.521
77103NA+    NA+44171  12.305  33.006   3.664
77104NA+    NA+44172  28.011   3.376  14.770
77105NA+    NA+44173  25.703   6.300   1.268
77106NA+    NA+44174  36.888  20.592  14.796
77107NA+    NA+44175  11.355  20.532  12.340
77108NA+    NA+44176  30.982  10.635   0.932
77109NA+    NA+44177  19.200  29.141   2.392
77110NA+    NA+44178  24.625  14.128  11.974
77111NA+    NA+44179  10.759   6.292  12.457
77112NA+    NA+44180  16.228   0.863  12.085
77113NA+    NA+44181   4.274  39.328   1.218
77114NA+    NA+44182  19.718  12.698  12.404
77115NA+    NA+44183  31.028   8.724   3.665
77116NA+    NA+44184  20.545   5.748  13.049
77117NA+    NA+44185  34.042  23.597   0.420
77118NA+    NA+44186  14.207  27.460   3.155
77119NA+    NA+44187  11.168  33.965   4.248
77120NA+    NA+44188  14.137   6.395   3.206
77121NA+    NA+44189  19.577  38.384   4.348
77122NA+    NA+44190   0.783  44.292   1.307
77123NA+    NA+44191  29.961  28.676  14.277
77124NA+    NA+44192  29.052  13.349   1.776
77125NA+    NA+44193  12.168  13.811   4.304
77126NA+    NA+44194  24.157  43.854   4.833
77127NA+    NA+44195  32.075  24.615   9.636
77128NA+    NA+44196  10.203  24.187  10.998
77129NA+    NA+44197  22.556  38.503   1.231
77130NA+    NA+44198   9.274   4.865   2.708
77131NA+    NA+44199  24.984  28.590   2.884
77132NA+    NA+44200   4.383  12.803   4.153
77133NA+    NA+44201  37.564  34.382  13.877
77134NA+    NA+44202  27.542   2.738   0.290
77135NA+    NA+44203  44.350  26.548   4.798
77136NA+    NA+44204  42.891  14.681   3.369
77137NA+    NA+44205   2.913  18.147  12.374
77138NA+    NA+44206   6.687  39.331   4.191
77139NA+    NA+44207  39.373   6.912  12.402
77140NA+    NA+44208   7.236  37.401  13.504
77141NA+    NA+44209  35.919  12.214   1.768
77142NA+    NA+44210  14.281  39.973   1.860
77143NA+    NA+44211  32.987  36.988  10.419
77144NA+    NA+44212  34.873  24.214  12.964
77145NA+    NA+44213   2.882  37.518   4.710
77146NA+    NA+44214   1.261  37.391   3.375
77147NA+    NA+44215  43.492  21.564  14.027
77148NA+    NA+44216   6.817   6.830   1.885
77149NA+    NA+44217  12.781  43.289   4.254
77150NA+    NA+44218  26.088  28.523  12.823
77151NA+    NA+44219  37.008   3.865  13.358
77152NA+    NA+44220  27.178   9.793  13.374
77153NA+    NA+44221  12.814  32.973  10.945
77154NA+    NA+44222  20.647  10.742  14.011
77155NA+    NA+44223   5.834   7.332   2.866
77156NA+    NA+44224   8.707  42.474   1.429
77157NA+    NA+44225  19.174  28.170  12.055
77158NA+    NA+44226   3.931  18.757  10.572
77159NA+    NA+44227   6.205   5.727   1.906
77160NA+    NA+44228   6.218  27.981  14.815
77161NA+    NA+44229  16.248  18.681   1.909
77162NA+    NA+44230  25.088  29.043  12.485
77163NA+    NA+44231  31.133  12.252   1.896
77164NA+    NA+44232  31.474  17.777  12.003
77165NA+    NA+44233  15.815   7.342  10.146
77166NA+    NA+44234  11.737  44.898  11.422
77167NA+    NA+44235  34.542  35.979  12.086
77168NA+    NA+44236  42.490   2.921  13.498
77169NA+    NA+44237   5.419  33.620   0.303
77170NA+    NA+44238   5.857  40.314   0.402
77171NA+    NA+44239  26.204  19.684  13.984
77172NA+    NA+44240  30.038  24.619  11.112
77173NA+    NA+44241   7.224   3.418   1.881
77174NA+    NA+44242  17.255  32.974   2.317
77175NA+    NA+44243  42.007  31.963   3.793
77176NA+    NA+44244  11.817   4.307  12.423
77177NA+    NA+44245  30.119  24.693   1.869
77178NA+    NA+44246  39.961  23.603  11.609
77179NA+    NA+44247  13.636  14.240  11.612
77180NA+    NA+44248  37.570  32.468   3.756
77181NA+    NA+44249   2.261  16.628   1.400
77182NA+    NA+44250  22.560  42.823   9.960
77183NA+    NA+44251  18.723   8.265  12.558
77184NA+    NA+44252  27.116  30.469   1.860
77185NA+    NA+44253  39.469  20.581   0.884
77186NA+    NA+44254   4.307  38.503  10.536
77187NA+    NA+44255  14.213   5.419   3.377
77188NA+    NA+44256   0.423  41.489  13.530
77189NA+    NA+44257   2.280  39.463   4.195
77190NA+    NA+44258  13.828  12.644  14.881
77191NA+    NA+44259  29.629  31.931   4.657
77192NA+    NA+44260  36.536  38.069   0.853
77193NA+    NA+44261  17.699  34.108   4.236
77194NA+    NA+44262   7.405  26.678   4.772
77195NA+    NA+44263   2.236   8.774  10.607
77196NA+    NA+44264  40.005  17.067  14.839
77197NA+    NA+44265  34.417   1.406  14.925
77198NA+    NA+44266  42.803  23.667  12.566
77199NA+    NA+44267  24.613  44.294   9.927
77200NA+    NA+44268  11.232  25.198   0.438
77201NA+    NA+44269   6.245   2.267  12.487
77202NA+    NA+44270  16.764  36.885  14.997
77203NA+    NA+44271  38.373  14.770  13.042
77204NA+    NA+44272   3.895  27.117  14.365
77205NA+    NA+44273   7.396   0.339   3.366
77206NA+    NA+44274  13.742  41.311   2.878
77207NA+    NA+44275  33.496  40.850   3.158
77208NA+    NA+44276  32.621  33.132  11.538
77209NA+    NA+44277  32.072  38.063   4.749
77210NA+    NA+44278  27.042  23.203   3.250
77211NA+    NA+44279   8.728  35.394   3.222
77212NA+    NA+44280  18.070  29.936  10.473
77213NA+    NA+44281  21.674   1.894  13.804
77214NA+    NA+44282  17.789   9.854   9.934
77215NA+    NA+44283  10.290   1.392   5.228
77216NA+    NA+44284  21.651  40.909  13.440
77217NA+    NA+44285  36.015  35.888  12.015
77218NA+    NA+44286  38.899   1.353   4.268
77219NA+    NA+44287  40.822  13.738  11.941
77220NA+    NA+44288  36.907   6.425   4.169
77221NA+    NA+44289  30.088   9.718  13.977
77222NA+    NA+44290  18.693   9.321  11.512
77223NA+    NA+44291  24.605   9.745  14.498
77224NA+    NA+44292  41.826   9.342   0.414
77225NA+    NA+44293  41.292  37.546   4.133
77226NA+    NA+44294   5.799   0.429   0.815
77227NA+    NA+44295  24.194   8.728  12.541
77228NA+    NA+44296  21.696  36.505   0.453
77229NA+    NA+44297  26.038  31.908   0.746
77230NA+    NA+44298  26.555   4.235   0.404
77231NA+    NA+44299  29.429  40.924  14.804
77232NA+    NA+44300  17.728   7.681  12.893
77233NA+    NA+44301  28.969  44.500  14.859
77234NA+    NA+44302  36.371  34.506   3.179
77235NA+    NA+44303   2.250  23.580   1.742
77236NA+    NA+44304  15.235  19.533   4.282
77237NA+    NA+44305   7.781  22.743   4.717
77238NA+    NA+44306   8.223  29.483  14.781
77239NA+    NA+44307  40.413  10.831  13.886
77240NA+    NA+44308   2.904  23.154  11.928
77241NA+    NA+44309  27.190   1.432   3.838
77242NA+    NA+44310  19.725  12.290   1.360
77243NA+    NA+44311  21.674  21.625  13.530
77244NA+    NA+44312  30.101  26.096   3.671
77245NA+    NA+44313  34.115   1.260   2.743
77246NA+    NA+44314  14.673  43.323   0.324
77247NA+    NA+44315  24.646  25.632   1.410
77248NA+    NA+44316  23.701  32.412  13.929
77249NA+    NA+44317  10.237  18.199   2.687
77250NA+    NA+44318  20.738   8.298   0.312
77251NA+    NA+44319  44.349  32.992   4.309
77252NA+    NA+44320   0.825  28.555   1.712
77253NA+    NA+44321  41.367  36.381   4.344
77254NA+    NA+44322   1.397  16.570  12.510
77255NA+    NA+44323  32.401  34.892   2.213
77256NA+    NA+44324  24.607  29.425  13.823
77257NA+    NA+44325  22.188  17.575  11.432
77258NA+    NA+44326  32.091  13.686  12.882
77259NA+    NA+44327  10.689   9.793   1.913
77260NA+    NA+44328  12.313  26.194   1.771
77261NA+    NA+44329  32.612  27.592   0.878
77262NA+    NA+44330   9.320   5.332  13.463
77263NA+    NA+44331   1.343   0.358   0.826
77264NA+    NA+44332  21.515  16.609  13.399
77265NA+    NA+44333   7.354   7.377  11.441
77266NA+    NA+44334  41.911   6.726  11.456
77267NA+    NA+44335  40.437  36.956  11.868
77268NA+    NA+44336  33.466  38.423  13.390
77269NA+    NA+44337  15.679  15.190   0.429
77270NA+    NA+44338  37.546  12.230   2.680
77271NA+    NA+44339  25.608   1.880   3.149
77272NA+    NA+44340  40.903  12.751   0.760
77273NA+    NA+44341  11.341   1.408   1.238
77274NA+    NA+44342  24.695  19.179   4.774
77275NA+    NA+44343  14.177  31.429   3.158
77276NA+    NA+44344  41.506   9.346  12.954
77277NA+    NA+44345   5.287  28.471   0.729
77278NA+    NA+44346   7.718  29.565   3.802
77279NA+    NA+44347   3.324   9.354  12.487
77280NA+    NA+44348  35.430  25.974   4.755
77281NA+    NA+44349  12.128  12.631  12.462
77282NA+    NA+44350  38.344   4.300   0.787
77283NA+    NA+44351   8.786   6.911   3.652
77284NA+    NA+44352   8.803  44.362  12.373
77285NA+    NA+44353  34.401  13.642   0.248
77286NA+    NA+44354  20.254  44.269   4.648
77287NA+    NA+44355  17.134  40.540  14.503
77288NA+    NA+44356  11.276  41.473   4.770
77289NA+    NA+44357   9.721  24.183   1.276
77290NA+    NA+44358  22.612  35.058  13.945
77291NA+    NA+44359  23.736   1.421   3.228
77292NA+    NA+44360  29.171   8.251   2.370
77293NA+    NA+44361  26.105  32.404   2.182
77294NA+    NA+44362  22.515  16.199  13.370
77295NA+    NA+44363  15.093  28.615  11.887
77296NA+    NA+44364   4.933   5.361   0.385
77297NA+    NA+44365  42.339  30.038  11.373
77298NA+    NA+44366  19.630   3.323   3.840
77299NA+    NA+44367  27.574  26.565   4.759
77300NA+    NA+44368  34.462  33.527  11.436
77301NA+    NA+44369  25.123  37.386   5.153
77302NA+    NA+44370  18.160  24.642   3.692
77303NA+    NA+44371  19.642  19.175   3.694
77304NA+    NA+44372  19.173  17.638   0.798
77305NA+    NA+44373  22.217  19.101   1.728
77306NA+    NA+44374  31.473  37.557  14.823
77307NA+    NA+44375  38.457  36.066   0.820
77308NA+    NA+44376  22.085  39.534  11.377
77309NA+    NA+44377  30.163  37.442  13.908
77310NA+    NA+44378  26.162  35.027   0.470
77311NA+    NA+44379   2.406   7.318   1.443
77312NA+    NA+44380   6.268   5.689  10.519
77313NA+    NA+44381  31.934   3.384  14.851
77314NA+    NA+44382  36.034  23.535  12.872
77315NA+    NA+44383  18.775  39.422  14.319
77316NA+    NA+44384  42.308  27.531  11.002
77317NA+    NA+44385  42.439  16.214  14.364
77318NA+    NA+44386  23.492  10.833  12.386
77319NA+    NA+44387  22.017   5.809   0.357
77320NA+    NA+44388  41.905   5.397  13.051
77321NA+    NA+44389  24.502   0.788  14.966
77322NA+    NA+44390  11.700  42.844   1.903
77323NA+    NA+44391  20.582  37.015   4.799
77324NA+    NA+44392   1.436  40.388  14.418
77325NA+    NA+44393  16.111  39.997   0.469
77326NA+    NA+44394  22.247   2.241   0.844
77327NA+    NA+44395  38.389  34.602   4.227
77328NA+    NA+44396   3.807   6.833  13.866
77329NA+    NA+44397   3.712  41.032  12.044
77330NA+    NA+44398  19.585  38.917  10.066
77331NA+    NA+44399   3.921  37.992   2.326
77332NA+    NA+44400   8.368  35.399  12.532
77333NA+    NA+44401   3.763  21.736   4.734
77334NA+    NA+44402   4.796  36.462   0.870
77335NA+    NA+44403  20.063  43.006   3.188
77336NA+    NA+44404  26.955  29.477   0.442
77337NA+    NA+44405  38.880  34.100  14.874
77338NA+    NA+44406  25.045  24.105   0.839
77339NA+    NA+44407  38.548   1.930  10.974
77340NA+    NA+44408   9.831  20.035   0.804
77341NA+    NA+44409  33.104  42.826  13.398
77342NA+    NA+44410  27.616  28.946   3.723
77343NA+    NA+44411  40.006  44.331  13.314
77344NA+    NA+44412  15.157   3.727  14.317
77345NA+    NA+44413  35.871  29.030  12.563
77346NA+    NA+44414  43.314  28.655   2.712
77347NA+    NA+44415  17.603   7.302   2.239
77348NA+    NA+44416   5.690  20.588   5.660
77349NA+    NA+44417  41.407  16.667  14.837
77350NA+    NA+44418  22.733  37.374  10.527
77351NA+    NA+44419  18.229  35.415  10.629
77352NA+    NA+44420   3.827  11.666  14.831
77353NA+    NA+44421  11.671  35.495  12.937
77354NA+    NA+44422  34.562  30.031  10.635
77355NA+    NA+44423  17.193   2.438  13.499
77356NA+    NA+44424  22.710  21.710  11.989
77357NA+    NA+44425   0.929  16.653  13.439
77358NA+    NA+44426  15.813  12.343   1.933
77359NA+    NA+44427  38.412  25.071  13.416
77360NA+    NA+44428  32.541  15.230   4.837
77361NA+    NA+44429  27.666  25.970  13.841
77362NA+    NA+44430   3.322  37.499   0.906
77363NA+    NA+44431  24.691  31.459   2.386
77364NA+    NA+44432   4.384  40.335  10.909
77365NA+    NA+44433   5.803  39.536  12.531
77366NA+    NA+44434  30.068  10.259  14.850
77367NA+    NA+44435  35.574  26.539  12.415
77368NA+    NA+44436  10.856  37.398   4.696
77369NA+    NA+44437  17.093  22.539  10.532
77370NA+    NA+44438  43.457  22.150   2.254
77371NA+    NA+44439  13.815   1.254  14.792
77372NA+    NA+44440  14.159  21.550  11.995
77373NA+    NA+44441  11.309  35.950  12.474
77374NA+    NA+44442   1.250  31.957   2.850
77375NA+    NA+44443  32.527   3.460   2.327
77376NA+    NA+44444  13.646  12.122  14.958
77377NA+    NA+44445  43.002  33.128  14.849
77378NA+    NA+44446   2.268   8.360  10.449
77379NA+    NA+44447   1.320  17.082   1.335
77380NA+    NA+44448  22.728  39.829  13.461
77381NA+    NA+44449  44.918  29.071   3.840
77382NA+    NA+44450  40.972  40.352   3.749
77383NA+    NA+44451  19.651  36.070   4.713
77384NA+    NA+44452  22.747  11.853   2.860
77385NA+    NA+44453  40.404   8.885   2.803
77386NA+    NA+44454  35.070  35.548  12.043
77387NA+    NA+44455  25.174   3.954   3.866
77388NA+    NA+44456  33.562  42.485   0.894
77389NA+    NA+44457  31.423  19.090  13.483
77390NA+    NA+44458  34.483  17.146  11.988
77391NA+    NA+44459  26.004  34.600   0.466
77392NA+    NA+44460  35.980   1.964  11.912
77393NA+    NA+44461  40.000  43.949  10.967
77394NA+    NA+44462  31.578  13.822   4.210
77395NA+    NA+44463  16.591  27.504  13.019
77396NA+    NA+44464  42.520  11.329   4.226
77397NA+    NA+44465  29.922  39.814   0.452
77398NA+    NA+44466  38.550  27.579   3.250
77399NA+    NA+44467  27.980  15.695   2.758
77400NA+    NA+44468   5.345  40.917   0.966
77401NA+    NA+44469  17.133  27.632  14.957
77402NA+    NA+44470  12.670  23.131  13.509
77403NA+    NA+44471  40.844  37.525   2.822
77404NA+    NA+44472   0.866  24.221   1.858
77405NA+    NA+44473  15.141  33.498   0.830
77406NA+    NA+44474  19.552  31.005   1.884
77407NA+    NA+44475  29.123  14.237   4.313
77408NA+    NA+44476  43.906  23.533  10.451
77409NA+    NA+44477  32.449  31.526  12.900
77410NA+    NA+44478  26.675  22.995   4.183
77411NA+    NA+44479  31.096  31.941  13.469
77412NA+    NA+44480  13.296  37.846  14.936
77413NA+    NA+44481  42.430  32.470  12.519
77414NA+    NA+44482  37.411  32.117  11.388
77415NA+    NA+44483  35.050  40.362  11.407
77416NA+    NA+44484  34.378   6.707  12.978
77417NA+    NA+44485  44.430  35.498   2.250
77418NA+    NA+44486  38.543  22.665  11.036
77419NA+    NA+44487  43.879  43.287  14.940
77420NA+    NA+44488  43.417  25.583   4.784
77421NA+    NA+44489  23.655  29.510  10.988
77422NA+    NA+44490   8.714   6.682   0.245
77423NA+    NA+44491  27.477  25.655   1.311
77424NA+    NA+44492   8.750  43.996  12.342
77425NA+    NA+44493  10.366  21.153   2.695
77426NA+    NA+44494   4.754  39.061  11.997
77427NA+    NA+44495   0.775  36.514  12.497
77428NA+    NA+44496   6.313   1.741  14.953
77429NA+    NA+44497  18.109   5.822  11.036
77430NA+    NA+44498  35.087  42.993  14.986
77431NA+    NA+44499  28.555  31.537  11.076
77432NA+    NA+44500  12.804   6.294  12.023
77433NA+    NA+44501  33.028  15.127   3.643
77434NA+    NA+44502   4.762  29.503   4.347
77435NA+    NA+44503  23.143  22.529   4.616
77436NA+    NA+44504  21.111  18.601   0.404
77437NA+    NA+44505  23.693  24.684   1.211
77438NA+    NA+44506   6.896  25.624   0.799
77439NA+    NA+44507  36.041  13.195  11.861
77440NA+    NA+44508  15.683  17.296   1.863
77441NA+    NA+44509  37.040  21.022   0.905
77442NA+    NA+44510  25.706  12.159  11.110
77443NA+    NA+44511  12.200  34.615   2.377
77444NA+    NA+44512  30.005  28.960  14.912
77445NA+    NA+44513  19.145  40.493  10.916
77446NA+    NA+44514   3.409   2.754  14.836
77447NA+    NA+44515  20.662  22.698   3.825
77448NA+    NA+44516  43.016   0.257  10.115
77449NA+    NA+44517  21.250   3.846   1.392
77450NA+    NA+44518  42.428   2.788  12.529
77451NA+    NA+44519  33.488  21.517  12.387
77452NA+    NA+44520  26.631  37.493   2.288
77453NA+    NA+44521  38.891  14.732   3.720
77454NA+    NA+44522  37.447  30.068   4.338
77455NA+    NA+44523  29.606  25.592  11.001
77456NA+    NA+44524  44.897   0.791   2.317
77457NA+    NA+44525  36.349   7.298   2.193
77458NA+    NA+44526  30.937   0.350   2.792
77459NA+    NA+44527   0.818   0.450   0.935
77460NA+    NA+44528  32.623  11.761   3.281
77461NA+    NA+44529   0.341   5.355   3.156
77462NA+    NA+44530  10.734  38.865  13.819
77463NA+    NA+44531   7.241  16.735   2.269
77464NA+    NA+44532  43.020  30.966   0.381
77465NA+    NA+44533  22.030   6.398   1.737
77466NA+    NA+44534   8.269   4.251  14.350
77467NA+    NA+44535  24.163  15.096   3.386
77468NA+    NA+44536  27.114   7.186  14.863
77469NA+    NA+44537   1.783  19.747   0.898
77470NA+    NA+44538   9.245  22.583  14.481
77471NA+    NA+44539  29.481  39.500   0.300
77472NA+    NA+44540   6.347  33.935   0.812
77473NA+    NA+44541  42.940   9.850   2.890
77474NA+    NA+44542   2.294  15.680  13.503
77475NA+    NA+44543  44.962  15.595  13.391
77476NA+    NA+44544  25.709  11.825   0.254
77477NA+    NA+44545  38.380  37.044   2.258
77478NA+    NA+44546  33.907  10.211   3.366
77479NA+    NA+44547   3.299  24.642   4.696
77480NA+    NA+44548  31.438  36.897  12.074
77481NA+    NA+44549  21.078  22.639  12.478
77482NA+    NA+44550   5.799  27.946   1.245
77483NA+    NA+44551  10.320  23.099   2.409
77484NA+    NA+44552   6.284   1.844   3.309
77485NA+    NA+44553   4.341  17.226  14.768
77486NA+    NA+44554   7.412  29.965  12.476
77487NA+    NA+44555  42.838  24.151  12.972
77488NA+    NA+44556   0.877  26.059  12.047
77489NA+    NA+44557  10.238  16.604  13.826
77490NA+    NA+44558  21.104   8.393   2.760
77491NA+    NA+44559  32.438  16.805   2.842
77492NA+    NA+44560  43.310  32.470   1.282
77493NA+    NA+44561  13.176  25.697  11.904
77494NA+    NA+44562  16.309  28.956  10.434
77495NA+    NA+44563  39.898  43.957   4.281
77496NA+    NA+44564  24.214  39.548  13.548
77497NA+    NA+44565  28.178  40.867  12.550
77498NA+    NA+44566   1.933  26.545   2.371
77499NA+    NA+44567  24.177  25.546  10.543
77500NA+    NA+44568  26.582  23.557   9.987
77501NA+    NA+44569  30.441   2.276  11.427
77502NA+    NA+44570  31.051  12.356  13.522
77503NA+    NA+44571  21.662  29.150   2.184
77504NA+    NA+44572  43.939   4.411  13.376
77505NA+    NA+44573  40.443  35.010  12.358
77506NA+    NA+44574   0.976  41.342  14.829
77507NA+    NA+44575  23.626  38.947  11.992
77508NA+    NA+44576  27.176  12.257  14.957
77509NA+    NA+44577  30.450  39.465   3.179
77510NA+    NA+44578  27.492  21.529  13.529
77511NA+    NA+44579  43.914  21.756  10.439
77512NA+    NA+44580   8.366  22.619  14.838
77513NA+    NA+44581  41.824  31.444   3.158
77514NA+    NA+44582  20.214  11.723   0.912
77515NA+    NA+44583  20.531  17.075  12.456
77516NA+    NA+44584  34.084   1.319   4.308
77517NA+    NA+44585  32.909   0.360   1.813
77518NA+    NA+44586   9.874  31.917  13.874
77519NA+    NA+44587  10.744   7.829   0.458
77520NA+    NA+44588  16.669   0.386  14.504
77521NA+    NA+44589  14.779  15.581   1.386
77522NA+    NA+44590  32.442  26.495   2.182
77523NA+    NA+44591  26.598  12.638  10.481
77524NA+    NA+44592  36.425  32.542  13.968
77525NA+    NA+44593  35.878  38.364   3.700
77526NA+    NA+44594   3.723   4.221   3.200
77527NA+    NA+44595  11.350  31.544  14.286
77528NA+    NA+44596  41.977  34.562   2.697
77529NA+    NA+44597  14.234  37.973   3.150
77530NA+    NA+44598   9.878   1.382   3.737
77531NA+    NA+44599  29.021   5.366   4.210
77532NA+    NA+44600  31.425  38.389   2.724
77533NA+    NA+44601  20.546  15.199   4.646
77534NA+    NA+44602  42.444  32.995  11.492
77535NA+    NA+44603   7.325  25.118  14.373
77536NA+    NA+44604  17.583  19.171   3.741
77537NA+    NA+44605   2.389   3.340   4.175
77538NA+    NA+44606   3.407   4.309   4.601
77539NA+    NA+44607  21.686   4.902   1.756
77540NA+    NA+44608  37.415   3.892   1.287
77541NA+    NA+44609  29.483  19.652   2.405
77542NA+    NA+44610  25.569  22.017  13.003
77543NA+    NA+44611  11.350  13.123  11.466
77544NA+    NA+44612  20.138   3.264  12.443
77545NA+    NA+44613  11.651  41.465   5.258
77546NA+    NA+44614  40.995  25.701  12.552
77547NA+    NA+44615  28.523   0.454  13.445
77548NA+    NA+44616  42.381  20.202  12.936
77549NA+    NA+44617   2.943   7.379  11.456
77550NA+    NA+44618   9.259  20.078  14.447
77551NA+    NA+44619   5.787  28.600  11.894
77552NA+    NA+44620  20.632  17.762  14.853
77553NA+    NA+44621   0.785  31.992   2.245
77554NA+    NA+44622  24.096   1.241  10.431
77555NA+    NA+44623   5.248   3.772   4.672
77556NA+    NA+44624  27.573   9.378   1.294
77557NA+    NA+44625  23.050  40.342   4.224
77558NA+    NA+44626  13.675   3.400  11.455
77559NA+    NA+44627  21.181  14.658   3.305
77560NA+    NA+44628  19.216  14.229  14.361
77561NA+    NA+44629  18.615  43.312   0.272
77562NA+    NA+44630  26.052   0.317   4.813
77563NA+    NA+44631  16.704  30.056   3.257
77564NA+    NA+44632  24.516   7.745  13.413
77565NA+    NA+44633  13.305  31.644  12.505
77566NA+    NA+44634  11.260  24.691   1.899
77567NA+    NA+44635   4.853  29.622   1.375
77568NA+    NA+44636   3.399  13.263   0.338
77569NA+    NA+44637  10.719  25.962  12.903
77570NA+    NA+44638   8.869  19.047  13.463
77571NA+    NA+44639   3.792  20.606  11.403
77572NA+    NA+44640  31.918  35.578  10.489
77573NA+    NA+44641  42.792  29.520   2.285
77574NA+    NA+44642  25.613   8.860   4.211
77575NA+    NA+44643  15.285  34.433  12.351
77576NA+    NA+44644  11.847   2.771  10.585
77577NA+    NA+44645  24.673  27.957  14.862
77578NA+    NA+44646  13.604  44.911  12.839
77579NA+    NA+44647   7.287  15.649   2.883
77580NA+    NA+44648   0.484  34.052  14.308
77581NA+    NA+44649  27.149   8.218  11.118
77582NA+    NA+44650  34.543  31.462  14.987
77583NA+    NA+44651  24.162  22.210  12.861
77584NA+    NA+44652  22.578  28.995   4.625
77585NA+    NA+44653  16.615  41.475   4.804
77586NA+    NA+44654  15.752   3.810  11.016
77587NA+    NA+44655  39.381  13.774   2.203
77588NA+    NA+44656  12.155  17.091   4.320
77589NA+    NA+44657   4.417   3.444  13.452
77590NA+    NA+44658  29.462  18.100   3.149
77591NA+    NA+44659  13.776  39.872  10.523
77592NA+    NA+44660  14.321  16.613   0.260
77593NA+    NA+44661   3.337  17.763  12.974
77594NA+    NA+44662   9.219  39.468  14.850
77595NA+    NA+44663   8.386  25.564   3.329
77596NA+    NA+44664   3.763  14.226   9.950
77597NA+    NA+44665  23.075  36.486   2.822
77598NA+    NA+44666   9.155  39.808  12.467
77599NA+    NA+44667  33.615  41.497   2.874
77600NA+    NA+44668  16.287  43.407   1.702
77601NA+    NA+44669  21.513  39.427   0.400
77602NA+    NA+44670  36.437  37.575  12.999
77603NA+    NA+44671   1.267  31.896   0.299
77604NA+    NA+44672  10.868  28.105  10.512
77605NA+    NA+44673  28.557  22.715  13.935
77606NA+    NA+44674   1.859  23.986   4.673
77607NA+    NA+44675   0.912  17.763  10.614
77608NA+    NA+44676  24.991  35.448  10.515
77609NA+    NA+44677   0.921  42.435  12.020
77610NA+    NA+44678  18.204   8.694  10.945
77611NA+    NA+44679  40.420  44.848  13.791
77612NA+    NA+44680  29.642  38.509  13.322
77613NA+    NA+44681   2.892  14.286   3.170
77614NA+    NA+44682  18.622  40.934   0.860
77615NA+    NA+44683  17.755   1.961  10.904
77616NA+    NA+44684   8.659  24.657   4.608
77617NA+    NA+44685  19.101  32.118  10.460
77618NA+    NA+44686   5.327   5.786   1.800
77619NA+    NA+44687   3.879  27.094   1.356
77620NA+    NA+44688  32.983  26.068   3.678
77621NA+    NA+44689  32.560   0.467  10.492
77622NA+    NA+44690  39.862  11.737   2.179
77623NA+    NA+44691  44.295   6.741  11.071
77624NA+    NA+44692   1.976  30.468   1.265
77625NA+    NA+44693  30.950  38.924  10.542
77626NA+    NA+44694   1.454  30.634   0.308
77627NA+    NA+44695  28.609   0.417   3.302
77628NA+    NA+44696  30.148   3.287  14.815
77629NA+    NA+44697  38.991   5.933  12.393
77630NA+    NA+44698  18.262  43.326   4.742
77631NA+    NA+44699  29.510  19.159  11.992
77632NA+    NA+44700  17.137  24.145   4.639
77633NA+    NA+44701   6.868  21.046   3.354
77634NA+    NA+44702  22.713  23.005   3.280
77635NA+    NA+44703  24.018  24.997   4.277
77636NA+    NA+44704   5.246  37.464  10.967
77637NA+    NA+44705  31.037  22.648  14.028
77638NA+    NA+44706   7.349  22.038   0.421
77639NA+    NA+44707   9.677  23.521   1.258
77640NA+    NA+44708  20.130  33.998   3.227
77641NA+    NA+44709  36.093  12.713   2.833
77642NA+    NA+44710  24.621  44.794  11.946
77643NA+    NA+44711  29.162  37.545  12.836
77644NA+    NA+44712   3.898   9.882   3.791
77645NA+    NA+44713  15.592  22.608   2.403
77646NA+    NA+44714  31.940  26.083  13.988
77647NA+    NA+44715  22.644   5.263  13.338
77648NA+    NA+44716  27.619  19.215   1.886
77649NA+    NA+44717  38.362  12.144   1.314
77650NA+    NA+44718  40.482  37.902   1.877
77651NA+    NA+44719   1.408   5.282  12.949
77652NA+    NA+44720  34.498  28.166  14.455
77653NA+    NA+44721  11.753   6.370  12.035
77654NA+    NA+44722  30.112  18.175  13.865
77655NA+    NA+44723  27.940   6.905  11.978
77656NA+    NA+44724   7.397  18.694   3.385
77657NA+    NA+44725   8.773  35.898  12.037
77658NA+    NA+44726   9.714  28.020   0.291
77659NA+    NA+44727  43.007   2.352   0.347
77660NA+    NA+44728  24.591  44.978   0.789
77661NA+    NA+44729   3.721  43.413  11.486
77662NA+    NA+44730  12.635   8.265   2.212
77663NA+    NA+44731  38.416  25.073   2.802
77664NA+    NA+44732  11.664  38.027   0.748
77665NA+    NA+44733   7.700  27.139   4.212
77666NA+    NA+44734  39.022  27.597   2.216
77667NA+    NA+44735  35.974  23.555  14.807
77668NA+    NA+44736  27.534  15.709   4.659
77669NA+    NA+44737  44.802  23.670  12.883
77670NA+    NA+44738  22.656  15.747  12.441
77671NA+    NA+44739  23.038  15.116   3.178
77672NA+    NA+44740  25.098   0.772  14.332
77673NA+    NA+44741  36.404  17.112  11.050
77674NA+    NA+44742  44.941  35.105   5.305
77675NA+    NA+44743  30.038   7.391   1.708
77676NA+    NA+44744  41.987  13.229  13.447
77677NA+    NA+44745  28.933  29.663  10.552
77678NA+    NA+44746  18.288  37.563   0.468
77679NA+    NA+44747  21.637  30.618  12.024
77680NA+    NA+44748   8.655  10.351   2.356
77681NA+    NA+44749  44.972  31.572   0.842
77682NA+    NA+44750  42.000  19.117  12.030
77683NA+    NA+44751  25.138   4.335  14.901
77684NA+    NA+44752  10.343  24.608  14.004
77685NA+    NA+44753  33.955  38.930   0.789
77686NA+    NA+44754  32.395  40.325   0.327
77687NA+    NA+44755  36.506  27.128  14.983
77688NA+    NA+44756   2.864   9.199  10.494
77689NA+    NA+44757  12.831   8.847  13.941
77690NA+    NA+44758  37.528   2.419  11.081
77691NA+    NA+44759   7.334  11.860  11.497
77692NA+    NA+44760  33.033  13.632  14.421
77693NA+    NA+44761  20.132  42.001  14.935
77694NA+    NA+44762  44.368   5.907   2.368
77695NA+    NA+44763  30.640   1.897  13.964
77696NA+    NA+44764  21.615  13.157  10.987
77697NA+    NA+44765  17.237  24.500  13.809
77698NA+    NA+44766  25.020  14.701  10.484
77699NA+    NA+44767   2.295  22.054  14.324
77700NA+    NA+44768  40.542  38.022  10.930
77701NA+    NA+44769  40.312  20.188  12.549
77702NA+    NA+44770  22.147   6.295  13.314
77703NA+    NA+44771  26.503  23.731  12.897
77704NA+    NA+44772  18.685  12.697  11.435
77705NA+    NA+44773  32.925  28.554  12.909
77706NA+    NA+44774   3.912   3.789  12.941
77707NA+    NA+44775  24.978  43.422   0.301
77708NA+    NA+44776  17.180  15.781  11.563
77709NA+    NA+44777  42.454  15.586  14.917
77710NA+    NA+44778  16.185   4.827   2.759
77711NA+    NA+44779  43.452  33.098   2.297
77712NA+    NA+44780  41.001  22.228   0.276
77713NA+    NA+44781  34.445  43.970   1.379
77714NA+    NA+44782  31.052  44.940   4.327
77715NA+    NA+44783  26.625  10.778  12.849
77716NA+    NA+44784  44.494  31.422  14.809
77717NA+    NA+44785  16.108  28.095  12.458
77718NA+    NA+44786  15.781   2.338   2.307
77719NA+    NA+44787  33.475  16.661   0.906
77720NA+    NA+44788   0.879   5.340  13.310
77721NA+    NA+44789  11.714  40.387   3.330
77722NA+    NA+44790  17.184  27.024  14.320
77723NA+    NA+44791  30.519  30.048   3.818
77724NA+    NA+44792  16.592  22.707   3.710
77725NA+    NA+44793  35.997  42.916   4.134
77726NA+    NA+44794   4.727  30.532   1.377
77727NA+    NA+44795  15.291  13.286   0.265
77728NA+    NA+44796  12.147  42.908   3.629
77729NA+    NA+44797  37.966  21.128   3.658
77730NA+    NA+44798   7.221  44.780  14.865
77731NA+    NA+44799  25.708  44.914  11.976
77732NA+    NA+44800  17.254  33.483   4.260
77733NA+    NA+44801  24.100  13.270   3.284
77734NA+    NA+44802  38.019  35.545  14.506
77735NA+    NA+44803  44.972  27.589  10.908
77736NA+    NA+44804  13.713  39.336  11.859
77737NA+    NA+44805  27.043  30.456  12.026
77738NA+    NA+44806  18.560  15.222   1.844
77739NA+    NA+44807  28.146   0.298   1.229
77740NA+    NA+44808  15.156   8.237   0.467
77741NA+    NA+44809  32.958  31.528  14.974
77742NA+    NA+44810  17.179  39.345   3.336
77743NA+    NA+44811  37.570  41.824  10.496
77744NA+    NA+44812  12.288  42.374   0.442
77745NA+    NA+44813  18.240  16.810  11.985
77746NA+    NA+44814  12.345  20.189  13.792
77747NA+    NA+44815  24.178  41.031   2.726
77748NA+    NA+44816  10.840  25.633  14.465
77749NA+    NA+44817  32.059  17.256  11.898
77750NA+    NA+44818  37.415  25.069  14.895
77751NA+    NA+44819  40.536  33.512   1.243
77752CL-    CL-44820  35.068  34.895   2.272
77753CL-    CL-44821   0.274  37.480   4.207
77754CL-    CL-44822   5.221  31.067  14.480
77755CL-    CL-44823  39.499   8.893   5.215
77756CL-    CL-44824  19.732  44.006  10.630
77757CL-    CL-44825  40.836  34.958   0.833
77758CL-    CL-44826  32.034   2.854   4.706
77759CL-    CL-44827  33.962  42.378  14.454
77760CL-    CL-44828  13.772   9.267   1.337
77761CL-    CL-44829  16.569  43.914   1.261
77762CL-    CL-44830  28.585  16.230  12.531
77763CL-    CL-44831  15.262   1.856  10.556
77764CL-    CL-44832  34.028  18.789  14.943
77765CL-    CL-44833  16.586  35.583   1.727
77766CL-    CL-44834  18.615   4.230  14.807
77767CL-    CL-44835  44.314  20.144   4.651
77768CL-    CL-44836   4.921  32.632   0.748
77769CL-    CL-44837   9.272  11.764  11.874
77770CL-    CL-44838  40.454  23.493  11.083
77771CL-    CL-44839  40.802  37.389   4.246
77772CL-    CL-44840  19.642  44.764   1.746
77773CL-    CL-44841  21.621  38.998  13.823
77774CL-    CL-44842  16.604  31.618  11.938
77775CL-    CL-44843  12.662  19.230  12.831
77776CL-    CL-44844   7.797   6.830   3.308
77777CL-    CL-44845  39.526  12.718   4.774
77778CL-    CL-44846  37.079  41.971  12.463
77779CL-    CL-44847  39.500  36.048   0.784
77780CL-    CL-44848  35.560  36.571   3.359
77781CL-    CL-44849   8.879   1.921   0.843
77782CL-    CL-44850   7.783  22.546  11.385
77783CL-    CL-44851   5.290  22.615  14.786
77784CL-    CL-44852  17.223  23.604  14.998
77785CL-    CL-44853  41.042   9.199  12.873
77786CL-    CL-44854  32.487  12.296  14.773
77787CL-    CL-44855   3.944  24.567  14.909
77788CL-    CL-44856   9.794  13.685  10.523
77789CL-    CL-44857   4.281  26.120   1.699
77790CL-    CL-44858   2.774  27.643   3.769
77791CL-    CL-44859  39.890   8.175   0.807
77792CL-    CL-44860  19.539  35.874  10.516
77793CL-    CL-44861   6.357  26.196   4.713
77794CL-    CL-44862  14.606  28.014   0.385
77795CL-    CL-44863  40.935   0.786  11.487
77796CL-    CL-44864   4.328  27.033  13.490
77797CL-    CL-44865  31.152   8.897   2.698
77798CL-    CL-44866   9.694  17.595   2.269
77799CL-    CL-44867  28.437   2.354   0.252
77800CL-    CL-44868  11.153  17.101  12.546
77801CL-    CL-44869  38.554  14.119  14.380
77802CL-    CL-44870  13.316  22.503  11.518
77803CL-    CL-44871  22.146   7.312  10.586
77804CL-    CL-44872  38.063  35.387   4.609
77805CL-    CL-44873  29.593  23.228   2.254
77806CL-    CL-44874  39.065  40.309  11.963
77807CL-    CL-44875   7.300  24.159  13.354
77808CL-    CL-44876  24.030  28.068  13.468
77809CL-    CL-44877  21.603  41.849  13.353
77810CL-    CL-44878  15.265  15.272  10.544
77811CL-    CL-44879   6.340  44.271  12.465
77812CL-    CL-44880  12.311  26.993  11.487
77813CL-    CL-44881   7.854  20.113   0.730
77814CL-    CL-44882  29.630  11.817   2.178
77815CL-    CL-44883  33.389  16.674  14.363
77816CL-    CL-44884  18.778  21.079  13.059
77817CL-    CL-44885  12.343  25.591  12.388
77818CL-    CL-44886  17.738  18.135   0.753
77819CL-    CL-44887  39.976  17.276   4.342
77820CL-    CL-44888   3.332  32.141  11.949
77821CL-    CL-44889   0.384  31.479  12.452
77822CL-    CL-44890  28.972  18.258  14.440
77823CL-    CL-44891  12.784   1.920   2.409
77824CL-    CL-44892  32.409  17.183   3.743
77825CL-    CL-44893   1.239  32.485  13.419
77826CL-    CL-44894  28.145   2.872  11.857
77827CL-    CL-44895  40.948  41.005  11.427
77828CL-    CL-44896  14.288  12.630   3.798
77829CL-    CL-44897   5.915  26.129   0.389
77830CL-    CL-44898   0.932   0.855   5.277
77831CL-    CL-44899  33.085  14.689   1.845
77832CL-    CL-44900   9.797   9.394   1.885
77833CL-    CL-44901  25.585  30.980   0.431
77834CL-    CL-44902  32.432  13.721  11.389
77835CL-    CL-44903  17.258  38.067   2.824
77836CL-    CL-44904  11.128  24.201  11.590
77837CL-    CL-44905  36.986   8.740   0.739
77838CL-    CL-44906   2.752  34.115   1.403
77839CL-    CL-44907  42.509   3.912   4.118
77840CL-    CL-44908  43.943  20.542   3.315
77841CL-    CL-44909   0.910  41.338  13.855
77842CL-    CL-44910  29.948  43.308   1.725
77843CL-    CL-44911  12.672  20.633   1.822
77844CL-    CL-44912  22.535  25.982  13.034
77845CL-    CL-44913  38.363  37.510  12.548
77846CL-    CL-44914   2.252  16.702   4.273
77847CL-    CL-44915  30.087  25.542   2.209
77848CL-    CL-44916  29.017  37.018  14.484
77849CL-    CL-44917  41.792  12.797  13.797
77850CL-    CL-44918   5.300   2.379  11.120
77851CL-    CL-44919  19.618  10.233   3.789
77852CL-    CL-44920  13.820   5.193  13.842
77853CL-    CL-44921   6.283  40.920   0.896
77854CL-    CL-44922   3.787  30.066  12.900
77855CL-    CL-44923  10.272  41.908  13.931
77856CL-    CL-44924   7.196  40.320  14.776
77857CL-    CL-44925   9.323  34.562   1.733
77858CL-    CL-44926  34.480   9.695  10.594
77859CL-    CL-44927  39.953  34.528   0.795
77860CL-    CL-44928  30.965  23.699   2.229
77861CL-    CL-44929  31.003  17.238   0.863
77862CL-    CL-44930  34.437  22.128   3.169
77863CL-    CL-44931  12.215  22.674  11.427
77864CL-    CL-44932   8.752  36.446   5.237
77865CL-    CL-44933   6.862   9.188  11.867
77866CL-    CL-44934  28.532  38.859   0.303
77867CL-    CL-44935  20.677   3.388   1.873
77868CL-    CL-44936  20.040   1.820   2.403
77869CL-    CL-44937  27.683  18.695   1.287
77870CL-    CL-44938   7.245  33.595  10.602
77871CL-    CL-44939  34.901  26.205  14.935
77872CL-    CL-44940  19.141   8.895   1.701
77873CL-    CL-44941   9.359  25.036   2.889
77874CL-    CL-44942  10.716  15.283  13.913
77875CL-    CL-44943  32.122  41.297  13.971
77876CL-    CL-44944  11.746  37.956   4.160
77877CL-    CL-44945  41.889  24.113  11.102
77878CL-    CL-44946  33.501  36.859   3.279
77879CL-    CL-44947  19.268  41.850   0.262
77880CL-    CL-44948   7.190  29.982  10.972
77881CL-    CL-44949  12.212  18.286  12.069
77882CL-    CL-44950  42.982  16.305   0.851
77883CL-    CL-44951   9.159  17.102   0.934
77884CL-    CL-44952   2.861  32.996  13.323
77885CL-    CL-44953  19.108  25.685  10.410
77886CL-    CL-44954  40.849  38.828  13.418
77887CL-    CL-44955  18.610  27.156  14.000
77888CL-    CL-44956  25.673   5.325   3.768
77889CL-    CL-44957  19.186   2.226  13.539
77890CL-    CL-44958   5.816   4.224  14.004
77891CL-    CL-44959  24.539  19.624   2.882
77892CL-    CL-44960   9.166   6.256   4.150
77893CL-    CL-44961  25.705  33.532  13.435
77894CL-    CL-44962   6.299  34.875   3.344
77895CL-    CL-44963  20.713  41.988  13.462
77896CL-    CL-44964  17.241   2.781  11.462
77897CL-    CL-44965   9.164  35.426  12.899
77898CL-    CL-44966   0.465  34.914   0.897
77899CL-    CL-44967   0.333  21.041   3.806
77900CL-    CL-44968  16.133  36.907  12.908
77901CL-    CL-44969  25.194   0.369  11.499
77902CL-    CL-44970  25.965  25.219  11.443
77903CL-    CL-44971   3.745  21.739   2.222
77904CL-    CL-44972  41.428  22.217   3.837
77905CL-    CL-44973  15.196  29.082   1.919
77906CL-    CL-44974  34.536  43.328  14.012
77907CL-    CL-44975  14.236  37.364  14.466
77908CL-    CL-44976  32.038  40.019  13.452
77909CL-    CL-44977  36.860  12.709   3.296
77910CL-    CL-44978   5.199  31.467   0.276
77911CL-    CL-44979  13.716  22.545  14.879
77912CL-    CL-44980  17.135  33.531  13.854
77913CL-    CL-44981  19.739  13.273  14.445
77914CL-    CL-44982  40.406  14.780   1.777
77915CL-    CL-44983  29.147  36.385   3.709
77916CL-    CL-44984  25.121  41.295  12.530
77917CL-    CL-44985  19.688  10.139   2.862
77918CL-    CL-44986  16.296  13.150  12.084
77919CL-    CL-44987  42.824  33.116   3.368
77920CL-    CL-44988  31.127  24.616   3.247
77921CL-    CL-44989  27.996  15.789   4.739
77922CL-    CL-44990   4.851  21.121   9.958
77923CL-    CL-44991   9.657  18.174  10.487
77924CL-    CL-44992  11.668  10.824   4.784
77925CL-    CL-44993   4.719  37.062  10.481
77926CL-    CL-44994   6.733  29.992  14.367
77927CL-    CL-44995  43.775   0.811  13.489
77928CL-    CL-44996   5.412  28.009   2.855
77929CL-    CL-44997  25.974  32.482  14.860
77930CL-    CL-44998   7.348  29.426   1.433
77931CL-    CL-44999   4.405   9.692  14.995
77932CL-    CL-45000  15.299  14.734   0.791
77933CL-    CL-45001  22.595  15.133   0.785
77934CL-    CL-45002  20.208  20.168  13.966
77935CL-    CL-45003  20.532  24.191   1.758
77936CL-    CL-45004  43.328  18.233  11.911
77937CL-    CL-45005  32.066  43.929  13.798
77938CL-    CL-45006  18.150  27.040   1.363
77939CL-    CL-45007  22.047  42.388   3.719
77940CL-    CL-45008   6.847  44.848  11.521
77941CL-    CL-45009  29.104  24.995  12.361
77942CL-    CL-45010  37.429  13.284  14.905
77943CL-    CL-45011  25.093  34.071   3.758
77944CL-    CL-45012   7.833  13.302   4.350
77945CL-    CL-45013  44.428  17.130   0.411
77946CL-    CL-45014  40.518  16.217   0.867
77947CL-    CL-45015   2.257  27.991   0.799
77948CL-    CL-45016  11.324  42.512   0.917
77949CL-    CL-45017  41.368  27.062   0.392
77950CL-    CL-45018   1.948  38.554  12.395
77951CL-    CL-45019   0.936  34.066   4.762
77952CL-    CL-45020  32.087  12.217   1.283
77953CL-    CL-45021  31.544  38.363  13.894
77954CL-    CL-45022  23.106  26.649  13.322
77955CL-    CL-45023   4.780  38.896  13.548
77956CL-    CL-45024  23.062  43.777  12.433
77957CL-    CL-45025  19.628  12.203  11.520
77958CL-    CL-45026  23.022  31.006  10.897
77959CL-    CL-45027  20.149   2.288  11.465
77960CL-    CL-45028  20.155  16.701   4.634
77961CL-    CL-45029  24.045   8.719   1.421
77962CL-    CL-45030  27.603  21.089   3.656
77963CL-    CL-45031  10.335  41.952  14.892
77964CL-    CL-45032  30.013  27.496   1.918
77965CL-    CL-45033  21.215  23.100   0.750
77966CL-    CL-45034  43.786  41.328  11.035
77967CL-    CL-45035  42.781  41.295   1.286
77968CL-    CL-45036   2.880  30.014   3.363
77969CL-    CL-45037  20.655  19.650   4.751
77970CL-    CL-45038  39.019  21.751   4.215
77971CL-    CL-45039   6.713   5.223   1.259
77972CL-    CL-45040  38.028  31.948  10.415
77973CL-    CL-45041  39.918   9.663  13.825
77974CL-    CL-45042  41.874   1.346  13.370
77975CL-    CL-45043  42.839   4.707  10.894
77976CL-    CL-45044   2.786   3.930  13.366
77977CL-    CL-45045  43.778  20.212  14.486
77978CL-    CL-45046  17.705   9.340   0.966
77979CL-    CL-45047  27.123  21.750  11.371
77980CL-    CL-45048  22.235  29.666  12.955
77981CL-    CL-45049  39.441  41.818   3.644
77982CL-    CL-45050  21.231  16.316  12.007
77983CL-    CL-45051  40.493   4.738  10.546
77984CL-    CL-45052  36.067  12.690  11.056
77985CL-    CL-45053   2.721  41.023   2.824
77986CL-    CL-45054  22.581   0.882   5.102
77987CL-    CL-45055  24.165  38.986   2.823
77988CL-    CL-45056   4.446  37.533  10.549
77989CL-    CL-45057  21.602  37.572   4.294
77990CL-    CL-45058  17.728  30.582   0.751
77991CL-    CL-45059  31.572  16.593   4.168
77992CL-    CL-45060   1.785  31.416   0.959
77993CL-    CL-45061  44.283   8.689  12.900
77994CL-    CL-45062   3.370   4.906   3.341
77995CL-    CL-45063  20.141  15.087  12.924
77996CL-    CL-45064  11.367  40.364   4.287
77997CL-    CL-45065   4.351  38.417   2.212
77998CL-    CL-45066  25.526   6.199   4.830
77999CL-    CL-45067  33.965  32.575   2.222
78000CL-    CL-45068  39.504  20.150  14.834
78001CL-    CL-45069  24.051  38.970   1.308
78002CL-    CL-45070   8.193  18.183  11.860
78003CL-    CL-45071  26.085   0.852   2.716
78004CL-    CL-45072  17.161  33.023   4.208
78005CL-    CL-45073  43.962  30.163   3.830
78006CL-    CL-45074  16.733  14.159  11.975
78007CL-    CL-45075  16.770  21.183  14.969
78008CL-    CL-45076  24.608   3.259   1.732
78009CL-    CL-45077  30.141  22.031   1.283
78010CL-    CL-45078  40.539  29.099   3.290
78011CL-    CL-45079  21.190  32.393  10.621
78012CL-    CL-45080  12.845   6.808  14.415
78013CL-    CL-45081  42.832  18.267  14.331
78014CL-    CL-45082  11.656  26.956  13.994
78015CL-    CL-45083  12.291  16.232   2.331
78016CL-    CL-45084   1.742  11.218   4.819
78017CL-    CL-45085  34.876  44.290   5.128
78018CL-    CL-45086  28.438  12.762  10.987
78019CL-    CL-45087  14.096   3.925   0.929
78020CL-    CL-45088  26.117  26.613  13.492
78021CL-    CL-45089  41.802   8.285  13.948
78022CL-    CL-45090  35.365  26.480  14.328
78023CL-    CL-45091  39.543  15.234  11.459
78024CL-    CL-45092   4.393  10.741   1.447
78025CL-    CL-45093  32.089   0.465   2.188
78026CL-    CL-45094  26.547  22.159  14.338
78027CL-    CL-45095  42.901  23.673  10.580
78028CL-    CL-45096  34.583  12.650  13.466
78029CL-    CL-45097  20.169  38.872  11.859
78030CL-    CL-45098   6.780  16.271   9.591
78031CL-    CL-45099  34.057  38.822  14.354
78032CL-    CL-45100   4.436   5.843  13.388
78033CL-    CL-45101   4.205  17.748  10.924
78034CL-    CL-45102  43.507   8.713   1.306
78035CL-    CL-45103   5.891  19.717   5.086
78036CL-    CL-45104  10.329  26.670   1.833
78037CL-    CL-45105  39.944   5.229   3.300
78038CL-    CL-45106  36.919  27.167  13.402
78039CL-    CL-45107  31.984   3.227   4.305
78040CL-    CL-45108  15.709   8.789  11.090
78041CL-    CL-45109  14.782  18.116   0.246
78042CL-    CL-45110  44.448   1.431  10.929
78043CL-    CL-45111  43.365  26.204  10.988
78044CL-    CL-45112   1.298   3.354  14.424
78045CL-    CL-45113  21.063  14.643   1.409
78046CL-    CL-45114  40.972  44.478  11.419
78047CL-    CL-45115  36.520  22.225  13.456
78048CL-    CL-45116  13.337   4.708   5.254
78049CL-    CL-45117  18.095  15.801  14.949
78050CL-    CL-45118  44.984   3.455   3.292
78051CL-    CL-45119  32.910   6.309   1.858
78052CL-    CL-45120  37.896   2.318  10.924
78053CL-    CL-45121   1.919  39.315  11.574
78054CL-    CL-45122  28.612  20.129   1.356
78055CL-    CL-45123   7.709  18.279   1.765
78056CL-    CL-45124  29.616  38.962   4.661
78057CL-    CL-45125  29.584  43.951   3.299
78058CL-    CL-45126   0.813  26.471  10.103
78059CL-    CL-45127  39.046  15.811   0.296
78060CL-    CL-45128   1.450   0.427   0.291
78061CL-    CL-45129  34.997  37.045  10.892
78062CL-    CL-45130  16.176  35.417   4.281
78063CL-    CL-45131  35.367  26.510  10.144
78064CL-    CL-45132  35.012  23.216  12.966
78065CL-    CL-45133   6.898  13.721  12.390
78066CL-    CL-45134  25.023   6.344  12.501
78067CL-    CL-45135   0.310  31.403   1.858
78068CL-    CL-45136  36.433  10.313   0.904
78069CL-    CL-45137  33.591  37.558  11.935
78070CL-    CL-45138  10.242  38.378  10.551
78071CL-    CL-45139  19.732  43.860   0.939
78072CL-    CL-45140  43.882  19.590  14.025
78073CL-    CL-45141   0.792   1.928   3.637
78074CL-    CL-45142   7.283  31.933   4.828
78075CL-    CL-45143   9.807  18.611   1.848
78076CL-    CL-45144  24.994  41.861  11.872
78077CL-    CL-45145  26.506  41.990   5.121
78078CL-    CL-45146  21.539  19.176   4.134
78079CL-    CL-45147  35.567  43.405  11.077
78080CL-    CL-45148  26.195  27.046  11.374
78081CL-    CL-45149  22.188   3.932  11.936
78082CL-    CL-45150  15.732  19.594   3.146
78083CL-    CL-45151  20.748  40.853   9.964
78084CL-    CL-45152  22.204  20.643  10.524
78085CL-    CL-45153   1.455  19.717  12.001
78086CL-    CL-45154  33.481   7.742   4.179
78087CL-    CL-45155   8.749  12.158  13.359
78088CL-    CL-45156  42.462  28.133  14.771
78089CL-    CL-45157   8.895  42.031  13.876
78090CL-    CL-45158   4.851  43.801  14.945
78091CL-    CL-45159  28.061  35.567   2.179
78092CL-    CL-45160  15.252   1.371  11.047
78093CL-    CL-45161  41.330   3.431  14.982
78094CL-    CL-45162  31.967  40.050  14.485
78095CL-    CL-45163  10.642   6.262   3.282
78096CL-    CL-45164  21.152  33.079   1.337
78097CL-    CL-45165  35.942  26.187  11.896
78098CL-    CL-45166  34.378  13.827  14.357
78099CL-    CL-45167  44.449  35.382   1.282
78100CL-    CL-45168  13.233   6.764  14.786
78101CL-    CL-45169  29.495  36.463   4.689
78102CL-    CL-45170  33.882  22.033  14.891
78103CL-    CL-45171  34.981  43.803   2.888
78104CL-    CL-45172  25.086   1.782   1.351
78105CL-    CL-45173   3.457  26.084  12.947
78106CL-    CL-45174   0.834   2.942   2.676
78107CL-    CL-45175  13.621  24.175  13.416
78108CL-    CL-45176  42.485  31.901  11.455
78109CL-    CL-45177  23.071  42.439   2.293
78110CL-    CL-45178  11.634  40.852  12.093
78111CL-    CL-45179  42.832  44.283   1.307
78112CL-    CL-45180  29.573  40.934  12.356
78113CL-    CL-45181  37.487   0.414  12.927
78114CL-    CL-45182  36.524  33.013   4.206
78115CL-    CL-45183  33.525  23.183   1.332
78116CL-    CL-45184  40.052   0.898  14.500
78117CL-    CL-45185  30.622   2.893  10.954
78118CL-    CL-45186  38.449  36.550   0.875
78119CL-    CL-45187  17.563   8.329   4.631
78120CL-    CL-45188  12.188  15.798   4.147
78121CL-    CL-45189   0.836  18.188   4.810
78122CL-    CL-45190   3.405   3.229   0.366
78123CL-    CL-45191  43.488  21.592  14.355
78124CL-    CL-45192   8.848   9.257  11.482
78125CL-    CL-45193  38.559  39.033   1.741
78126CL-    CL-45194  22.655  17.193   0.337
78127CL-    CL-45195   2.456  32.534  14.014
78128CL-    CL-45196   6.703  31.101  12.081
78129CL-    CL-45197  22.611  42.970  12.444
78130CL-    CL-45198  20.220  32.610   0.819
78131CL-    CL-45199  10.304   3.904  10.474
78132CL-    CL-45200  25.546  22.686   5.254
78133CL-    CL-45201  18.292  24.721  10.557
78134CL-    CL-45202  18.187  32.408  10.986
78135CL-    CL-45203   3.842  36.366   2.312
78136CL-    CL-45204  19.133   2.729   3.309
78137CL-    CL-45205  24.541  18.152  11.084
78138CL-    CL-45206  16.253  26.694   0.789
78139CL-    CL-45207  26.175  23.182   1.241
78140CL-    CL-45208   1.778   0.850   1.853
78141CL-    CL-45209   9.264  42.346  13.907
78142CL-    CL-45210  36.375  36.005  11.515
78143CL-    CL-45211   0.395  37.934  12.473
78144CL-    CL-45212  23.552  24.027  11.069
78145CL-    CL-45213  39.373   9.876   2.744
78146CL-    CL-45214  14.335  29.549  13.530
78147CL-    CL-45215  37.972  39.875  10.420
78148CL-    CL-45216  22.149  20.540   3.790
78149CL-    CL-45217  38.936  29.490   0.840
78150CL-    CL-45218  41.942  32.587  10.924
78151CL-    CL-45219  42.431  14.203   3.260
78152CL-    CL-45220   0.455  42.962   4.639
78153CL-    CL-45221  27.097  31.091   1.911
78154CL-    CL-45222   2.882  15.666   2.737
78155CL-    CL-45223  21.109  13.669   3.354
78156CL-    CL-45224  23.195  40.937   4.768
78157CL-    CL-45225   6.230  24.138   0.456
78158CL-    CL-45226  22.513  28.617   2.695
78159CL-    CL-45227   2.327   6.305   2.331
78160CL-    CL-45228  21.106   9.169   2.230
78161CL-    CL-45229  30.972  32.915  11.588
78162CL-    CL-45230  22.211  18.253  13.438
78163CL-    CL-45231   0.412  43.457  10.641
78164CL-    CL-45232  43.277  11.678   2.868
78165CL-    CL-45233  11.296  34.602   4.651
78166CL-    CL-45234  23.522  33.082  11.000
78167CL-    CL-45235  39.829   6.916   2.192
78168CL-    CL-45236  40.828  26.496   3.818
78169CL-    CL-45237  38.528   8.348  11.894
78170CL-    CL-45238  36.063  31.623  13.459
78171CL-    CL-45239   3.778  34.583  14.498
78172CL-    CL-45240  37.073  14.265   0.881
78173CL-    CL-45241   2.757  24.126  14.783
78174CL-    CL-45242  16.702  43.923   2.789
78175CL-    CL-45243  23.146   4.792  10.960
78176CL-    CL-45244   7.774  13.132   1.446
78177CL-    CL-45245  10.336  20.572  11.086
78178CL-    CL-45246  25.132  39.497  12.415
78179CL-    CL-45247  22.734  15.310  12.955
78180CL-    CL-45248   3.435   2.296  12.040
78181CL-    CL-45249  34.397   9.267   4.183
78182CL-    CL-45250  18.741   1.465   3.726
78183CL-    CL-45251   7.724   7.801  11.604
78184CL-    CL-45252   0.819  35.102  14.837
78185CL-    CL-45253   8.251  17.661  12.386
78186CL-    CL-45254  32.593  28.602   4.261
78187CL-    CL-45255  20.241  20.100  13.413
78188CL-    CL-45256   3.739   6.808   1.739
78189CL-    CL-45257  40.315  13.767   2.363
78190CL-    CL-45258  21.245  38.478   2.205
78191CL-    CL-45259  15.183  37.458   3.841
78192CL-    CL-45260  24.703  26.677  12.034
78193CL-    CL-45261  44.919  39.937  12.010
78194CL-    CL-45262  37.944   7.850  10.913
78195CL-    CL-45263  12.331  15.204  14.011
78196CL-    CL-45264  29.949  30.911  13.925
78197CL-    CL-45265  25.646  21.620  12.960
78198CL-    CL-45266  32.545  43.482   3.238
78199CL-    CL-45267  14.177  13.262   3.810
78200CL-    CL-45268  35.480   7.212  11.961
78201CL-    CL-45269  38.929  20.588  14.327
78202CL-    CL-45270  20.031  33.381  14.946
78203CL-    CL-45271  32.453  38.426   0.767
78204CL-    CL-45272  26.657  41.346  10.568
78205CL-    CL-45273  38.551  17.659  11.072
78206CL-    CL-45274  38.487  12.196  13.866
78207CL-    CL-45275  17.632  22.071   0.926
78208CL-    CL-45276  28.027   0.747   0.358
78209CL-    CL-45277  41.447  41.957   4.647
78210CL-    CL-45278  42.846  30.491   2.863
78211CL-    CL-45279  23.108  36.482  13.315
78212CL-    CL-45280  16.746   7.672   0.745
78213CL-    CL-45281   3.322  18.657  14.960
78214CL-    CL-45282  11.805   0.763  13.394
78215CL-    CL-45283  42.318  25.690  10.958
78216CL-    CL-45284  22.726   8.195   4.664
78217CL-    CL-45285  38.012  22.684   1.279
78218CL-    CL-45286  22.249  14.111  13.934
78219CL-    CL-45287  15.632  15.149   3.666
78220CL-    CL-45288  27.051  14.598  12.067
78221CL-    CL-45289   7.194  10.784   3.231
78222CL-    CL-45290   9.392  28.599  13.414
78223CL-    CL-45291   0.313   9.719  10.414
78224CL-    CL-45292  44.905   0.404  11.524
78225CL-    CL-45293  39.480  27.610  11.054
78226CL-    CL-45294   9.658  16.721  14.456
78227CL-    CL-45295  19.766  39.920   1.909
78228CL-    CL-45296  27.060  33.996  12.918
78229CL-    CL-45297  34.002  39.359  12.868
78230CL-    CL-45298  32.541   8.816  11.982
78231CL-    CL-45299  28.140   8.273   0.912
78232CL-    CL-45300  36.400  43.310  10.591
78233CL-    CL-45301  21.732  10.179  12.450
78234CL-    CL-45302  23.064  21.175  12.059
78235CL-    CL-45303   8.284  10.309  11.509
78236CL-    CL-45304   2.446  17.737   0.946
78237CL-    CL-45305  31.898   8.280   0.376
78238CL-    CL-45306  20.187  39.813   3.660
78239CL-    CL-45307  42.515  36.038  13.958
78240CL-    CL-45308  44.272   7.417  12.847
78241CL-    CL-45309  20.645  12.646  14.996
78242CL-    CL-45310  16.706  32.116  10.518
78243CL-    CL-45311  36.513   9.777  13.369
78244CL-    CL-45312  23.723  42.316   3.257
78245CL-    CL-45313  22.184  35.430  12.827
78246CL-    CL-45314  42.491  21.039   4.699
78247CL-    CL-45315  33.481   0.474  14.457
78248CL-    CL-45316  25.158   4.867   0.258
78249CL-    CL-45317  12.145  14.229   3.380
78250CL-    CL-45318   0.859  39.045  12.863
78251CL-    CL-45319  15.268  42.445  14.362
78252CL-    CL-45320   3.778  33.881   0.774
78253CL-    CL-45321   3.745  22.722   0.391
78254CL-    CL-45322  40.397  30.054  11.491
78255CL-    CL-45323  17.303  22.238   3.829
78256CL-    CL-45324   1.390  30.565   4.758
78257CL-    CL-45325  20.259   7.894   3.712
78258CL-    CL-45326  22.554  19.554  13.809
78259CL-    CL-45327  32.533  14.789  14.365
78260CL-    CL-45328   3.730  34.975   1.743
78261CL-    CL-45329  38.885  34.614  12.981
78262CL-    CL-45330  34.895   1.255  12.938
78263CL-    CL-45331  44.815  38.957   2.304
78264CL-    CL-45332  14.197  12.152   1.272
78265CL-    CL-45333  40.844  13.231   2.770
78266CL-    CL-45334  27.091  29.139  11.989
78267CL-    CL-45335  31.491  20.591  12.557
78268CL-    CL-45336  41.360  32.132   3.689
78269CL-    CL-45337  31.062  30.083   3.782
78270CL-    CL-45338  42.891  31.517   1.838
78271CL-    CL-45339  36.990  12.832  14.002
78272CL-    CL-45340  43.353   7.883   0.893
78273CL-    CL-45341  29.928  36.053   4.692
78274CL-    CL-45342  15.596   3.439   1.401
78275CL-    CL-45343  22.739  25.551  12.500
78276CL-    CL-45344  13.216  41.328  11.568
78277CL-    CL-45345  27.463  16.722  13.050
78278CL-    CL-45346  35.420   1.885   3.258
78279CL-    CL-45347   8.853   5.253   3.649
78280CL-    CL-45348   9.274  14.594   1.353
78281CL-    CL-45349  37.074  24.128   1.422
78282CL-    CL-45350   9.200  30.977  12.965
78283CL-    CL-45351  21.148  32.914   4.784
78284CL-    CL-45352  27.619  37.550   4.302
78285CL-    CL-45353  42.939  44.328   5.109
78286CL-    CL-45354  28.586  28.529  12.037
78287CL-    CL-45355  23.148  25.206   0.462
78288CL-    CL-45356   1.747  24.222  11.570
78289CL-    CL-45357   4.398  33.907  13.416
78290CL-    CL-45358   2.243  37.393   0.840
78291CL-    CL-45359  35.503  40.824   2.808
78292CL-    CL-45360  42.843  16.810  12.853
78293CL-    CL-45361   3.356  40.965   2.776
78294CL-    CL-45362  28.944  23.221  14.992
78295CL-    CL-45363   6.401  35.571   3.190
78296CL-    CL-45364  25.024  28.542  11.462
78297CL-    CL-45365  37.848  44.971   0.437
78298CL-    CL-45366  24.057  22.687  11.101
78299CL-    CL-45367  41.525  38.861   0.932
78300CL-    CL-45368   7.845   6.922   0.368
78301CL-    CL-45369  12.729  23.197   0.914
78302CL-    CL-45370  32.083  40.811   4.668
78303CL-    CL-45371  36.473  19.689  10.118
78304CL-    CL-45372  34.372  25.182  10.511
78305CL-    CL-45373  44.350  32.950  10.001
78306CL-    CL-45374  13.216  33.973  13.801
78307CL-    CL-45375  11.158  38.457   4.326
78308CL-    CL-45376  21.595  26.602  10.079
78309CL-    CL-45377  40.383  31.056  11.402
78310CL-    CL-45378  29.140   9.859  12.847
78311CL-    CL-45379  39.835  15.181  12.530
78312CL-    CL-45380   8.863  29.613  12.874
78313CL-    CL-45381  10.140  42.992   4.721
78314CL-    CL-45382  34.988  16.114  10.517
78315CL-    CL-45383  32.595  44.481  13.967
78316CL-    CL-45384  34.377  35.873   0.277
78317CL-    CL-45385  37.450  12.239   3.211
78318CL-    CL-45386  37.974  42.019  12.553
78319CL-    CL-45387  30.075  30.992   2.277
78320CL-    CL-45388  22.212  39.549  13.431
78321CL-    CL-45389  41.464   5.767   0.355
78322CL-    CL-45390  23.554   5.399   3.818
78323CL-    CL-45391  19.243  11.344   3.154
78324CL-    CL-45392   0.269  28.468  10.631
78325CL-    CL-45393  18.233  26.483   4.308
78326CL-    CL-45394  33.482  24.133   1.348
78327CL-    CL-45395   3.948  39.476  12.428
78328CL-    CL-45396   7.189  20.752  10.476
78329CL-    CL-45397  18.157  22.049  14.930
78330CL-    CL-45398  43.864  17.800  13.028
78331CL-    CL-45399  38.932  12.282   0.965
78332CL-    CL-45400  32.076  36.409   0.891
78333CL-    CL-45401  18.116  34.389   1.828
78334CL-    CL-45402  15.172  42.009   4.640
78335CL-    CL-45403   3.459  12.639  14.369
78336CL-    CL-45404   3.296   3.365   2.752
78337CL-    CL-45405  16.719  35.972  11.073
78338CL-    CL-45406  39.420  44.954  14.017
78339CL-    CL-45407   2.751  26.152  12.893
78340CL-    CL-45408  25.499  39.023   4.342
78341CL-    CL-45409  18.633   0.943  14.399
78342CL-    CL-45410  21.097  13.225   4.116
78343CL-    CL-45411   3.885  31.942   3.759
78344CL-    CL-45412  21.592  38.371  10.100
78345CL-    CL-45413  35.415  26.133  14.880
78346CL-    CL-45414   4.353  26.525   0.943
78347CL-    CL-45415  17.758  22.239  11.883
78348CL-    CL-45416  34.096  11.163  12.889
78349CL-    CL-45417   2.245   4.743  14.888
78350CL-    CL-45418  14.772  28.123  11.463
78351CL-    CL-45419   5.785  43.508  11.922
78352CL-    CL-45420  34.920  19.581  12.956
78353CL-    CL-45421  30.639   7.256  13.328
78354CL-    CL-45422  44.919  40.885  12.977
78355CL-    CL-45423  13.219  27.115   1.222
78356CL-    CL-45424  10.723  22.676   0.347
78357CL-    CL-45425   8.824   7.742   1.929
78358CL-    CL-45426   3.329  20.729   2.902
78359CL-    CL-45427  32.527  44.909  11.516
78360CL-    CL-45428  12.776  14.270   3.692
78361CL-    CL-45429  40.387  11.296  11.067
78362CL-    CL-45430  27.115   5.230   4.272
78363CL-    CL-45431  28.565  10.253  14.460
78364CL-    CL-45432  29.935  21.516  14.905
78365CL-    CL-45433   9.815  13.204   1.740
78366CL-    CL-45434  24.541   1.977   0.835
78367CL-    CL-45435  26.000  41.341   3.285
78368CL-    CL-45436  32.111   4.279  14.770
78369CL-    CL-45437  43.861  19.571   1.865
78370CL-    CL-45438  23.213   6.801  14.352
78371CL-    CL-45439  20.108  18.136   5.165
78372CL-    CL-45440  37.031  40.515  13.416
78373CL-    CL-45441  18.188  41.925   0.952
78374CL-    CL-45442  20.090  12.282  13.477
78375CL-    CL-45443  26.007  10.299   9.967
78376CL-    CL-45444  19.571  34.608   1.353
78377CL-    CL-45445  41.296  26.173   0.328
78378CL-    CL-45446  28.052  26.026  11.917
78379CL-    CL-45447   7.297  26.528  14.280
78380CL-    CL-45448   4.394  28.524   4.737
78381CL-    CL-45449  14.607  24.048  11.383
78382CL-    CL-45450  24.012  12.212   0.793
78383CL-    CL-45451   5.257   0.361  14.412
78384CL-    CL-45452  33.459  20.722   1.738
78385CL-    CL-45453  24.014   2.791  14.294
78386CL-    CL-45454   6.753  21.235   1.286
78387CL-    CL-45455   1.871  36.033   4.134
78388CL-    CL-45456   7.296  25.502   0.345
78389CL-    CL-45457  41.854  14.676   4.764
78390CL-    CL-45458  42.402  24.983  10.573
78391CL-    CL-45459  37.431  13.115   2.195
78392CL-    CL-45460  33.023  30.120   0.266
78393CL-    CL-45461  32.972  36.490  12.093
78394CL-    CL-45462  38.891  42.473  14.374
78395CL-    CL-45463  35.520  17.761  10.562
78396CL-    CL-45464   5.726  41.849   0.916
78397CL-    CL-45465   4.913  37.045   3.688
78398CL-    CL-45466  13.167  33.475   2.320
78399CL-    CL-45467  16.076  32.568   4.830
78400CL-    CL-45468   5.917  25.021  14.898
78401CL-    CL-45469  31.031  38.867   0.942
78402CL-    CL-45470   6.695  39.038   2.390
78403CL-    CL-45471  43.903   3.407   3.633
78404CL-    CL-45472   8.389   9.172   2.823
78405CL-    CL-45473  24.067  43.317  12.485
78406CL-    CL-45474  24.581  31.038  13.343
78407CL-    CL-45475  41.858   9.155  11.961
78408CL-    CL-45476  17.221  22.676  13.021
78409CL-    CL-45477  41.823  42.354  14.978
78410CL-    CL-45478  17.557   1.347   0.406
78411CL-    CL-45479  10.349   4.698  12.896
78412CL-    CL-45480  19.536   7.262  10.566
78413CL-    CL-45481   0.435  12.638   0.453
78414CL-    CL-45482  22.027  28.547   3.380
78415CL-    CL-45483  33.624  37.868  11.540
78416CL-    CL-45484  23.183  28.678  14.292
78417CL-    CL-45485   7.198  36.930  10.942
78418CL-    CL-45486  33.386  32.961  11.538
78419CL-    CL-45487  42.027  26.169  13.892
78420CL-    CL-45488   8.898  40.414  13.049
78421CL-    CL-45489  17.141  22.114  12.368
78422CL-    CL-45490  37.411   6.400   0.950
78423CL-    CL-45491   9.330   9.178   4.621
78424CL-    CL-45492  36.027  22.072   3.214
78425CL-    CL-45493  19.743  11.853   2.803
78426CL-    CL-45494  21.657  12.304   3.190
78427CL-    CL-45495  17.066  22.510  11.875
78428CL-    CL-45496  35.419  35.475   4.690
78429CL-    CL-45497   4.798  32.043  14.352
78430CL-    CL-45498   0.907   4.917  13.050
78431CL-    CL-45499  23.680  33.970  14.422
78432CL-    CL-45500   3.908  40.524   0.838
78433CL-    CL-45501  18.758  33.910  10.549
78434CL-    CL-45502  33.435  10.278  12.826
78435CL-    CL-45503   3.747   5.824  10.895
78436CL-    CL-45504   5.234  20.622   1.415
78437CL-    CL-45505   5.819  31.418   0.930
78438CL-    CL-45506  37.459   8.790  14.380
78439CL-    CL-45507  13.710   6.851   3.274
78440CL-    CL-45508  44.985   7.727  14.024
78441CL-    CL-45509  43.882  16.263   0.806
78442CL-    CL-45510  26.202   3.933  14.820
78443CL-    CL-45511  20.669  21.697  12.860
78444CL-    CL-45512  39.883  34.976   2.724
78445CL-    CL-45513  22.525   9.382   0.800
78446CL-    CL-45514  32.474  38.996   3.835
78447CL-    CL-45515  24.043  32.993   2.371
78448CL-    CL-45516  14.792  21.616  14.428
78449CL-    CL-45517  12.235   1.803  11.869
78450CL-    CL-45518  34.372  22.741   3.294
78451CL-    CL-45519  27.973  37.438   3.335
78452CL-    CL-45520  10.259  41.023  13.980
78453CL-    CL-45521  17.618   7.172  14.834
78454CL-    CL-45522   0.984   6.217   2.189
78455CL-    CL-45523  17.580  25.095  12.889
78456CL-    CL-45524  12.123  33.092  12.570
78457CL-    CL-45525  38.437  16.237   1.369
78458CL-    CL-45526  32.130  21.263   1.753
78459CL-    CL-45527  18.546   6.299   3.825
78460CL-    CL-45528   7.391  19.281   3.660
78461CL-    CL-45529  22.087   1.879   2.688
78462CL-    CL-45530   8.816  34.607  10.436
78463CL-    CL-45531  12.758  29.502  11.952
78464CL-    CL-45532  21.154  18.623   3.319
78465CL-    CL-45533  19.177  36.050  13.397
78466CL-    CL-45534  20.646  17.793   1.866
78467CL-    CL-45535  12.790  18.739   0.824
78468CL-    CL-45536  41.534  35.571  14.512
78469CL-    CL-45537  43.364  17.722  14.403
78470CL-    CL-45538  23.033  18.680   0.388
78471CL-    CL-45539   0.252  28.113   2.707
78472CL-    CL-45540   9.209  24.021  13.020
78473CL-    CL-45541   2.840   1.851  14.941
78474CL-    CL-45542  22.061  25.641   2.248
78475CL-    CL-45543  36.958  20.170   1.239
78476CL-    CL-45544  39.466  12.675   1.386
78477CL-    CL-45545  11.278   2.328  10.153
78478CL-    CL-45546   8.247  35.416   2.367
78479CL-    CL-45547   8.212  10.649  14.799
78480CL-    CL-45548  22.207  21.603   3.271
78481CL-    CL-45549   5.325   5.219   0.376
78482CL-    CL-45550  16.276  28.081  13.516
78483CL-    CL-45551  19.689  25.979  13.542
78484CL-    CL-45552   2.776  30.491   3.168
78485CL-    CL-45553  34.401   6.254  12.350
78486CL-    CL-45554   8.291  10.871  13.968
78487CL-    CL-45555   2.283  12.266   0.768
78488CL-    CL-45556  41.485  44.006   0.329
78489CL-    CL-45557   7.180   1.393   4.230
78490CL-    CL-45558   5.776  17.672  12.387
78491CL-    CL-45559  43.277   5.822  12.878
78492CL-    CL-45560  43.502   6.311   0.928
78493CL-    CL-45561  28.180  22.076  10.462
78494CL-    CL-45562  33.998  24.547  14.847
78495CL-    CL-45563   7.328  43.908   4.751
78496CL-    CL-45564  18.700  28.566  13.969
78497CL-    CL-45565   5.387  35.107  12.472
78498CL-    CL-45566  42.462   3.254   0.419
78499CL-    CL-45567  20.161  35.023   4.660
78500CL-    CL-45568   5.419   8.820  12.348
78501CL-    CL-45569  12.640  38.943   1.337
78502CL-    CL-45570  27.127  21.138   4.123
78503CL-    CL-45571  12.240  13.623  11.054
78504CL-    CL-45572  16.610   1.284  10.512
78505CL-    CL-45573  22.548  41.339   2.398
78506CL-    CL-45574  14.701  13.622   3.387
78507CL-    CL-45575  19.741  35.906  12.917
78508CL-    CL-45576  14.828  28.482  10.946
78509CL-    CL-45577  24.557  39.476  12.881
78510CL-    CL-45578  27.691  18.738  13.499
78511CL-    CL-45579  43.871   1.965   4.822
78512CL-    CL-45580   7.696  10.152   1.834
78513CL-    CL-45581  38.556  18.643   1.719
78514CL-    CL-45582  35.561  15.806   3.657
78515CL-    CL-45583  21.226   6.406  14.436
78516CL-    CL-45584  29.424  30.997   0.787
78517CL-    CL-45585  31.999  38.516  13.853
78518CL-    CL-45586  18.071  31.534   5.309
78519CL-    CL-45587  27.687  34.926  10.543
78520CL-    CL-45588   4.333   8.305  10.964
78521CL-    CL-45589  31.939   8.801  13.354
78522CL-    CL-45590  14.811   0.337  13.013
78523CL-    CL-45591  16.584   6.876  12.560
78524CL-    CL-45592  30.094  22.550  11.052
78525CL-    CL-45593  36.085  25.048  12.509
78526CL-    CL-45594  28.680  43.821   2.833
78527CL-    CL-45595  21.147  41.433  10.627
78528CL-    CL-45596  43.846   5.388  11.511
78529CL-    CL-45597   1.869  29.011   0.311
78530CL-    CL-45598  37.862   7.278  11.440
78531CL-    CL-45599  16.200  25.637   1.748
78532CL-    CL-45600  19.704  32.419   1.369
78533CL-    CL-45601  10.678  35.487   2.704
78534CL-    CL-45602  30.543  10.768  14.905
78535CL-    CL-45603  10.363   1.445  11.897
78536CL-    CL-45604  18.272   5.231   0.342
78537CL-    CL-45605  11.653   5.314  14.911
78538CL-    CL-45606  13.639  20.727  11.084
78539CL-    CL-45607  23.701   2.396  13.501
78540CL-    CL-45608  19.605  12.181  10.920
78541CL-    CL-45609  32.031   0.799  14.431
78542CL-    CL-45610  30.442  18.618  11.873
78543CL-    CL-45611  21.055  31.998   3.808
78544CL-    CL-45612   9.834  39.931  12.929
78545CL-    CL-45613  42.884  16.078  14.851
78546CL-    CL-45614  31.973  38.986   3.205
78547CL-    CL-45615  33.112  25.046  13.434
78548CL-    CL-45616   1.856  38.945  10.439
78549CL-    CL-45617  20.555  10.377  11.065
78550CL-    CL-45618  19.060  26.645   1.312
78551CL-    CL-45619  11.349  40.341   1.881
78552CL-    CL-45620   8.203  12.233   2.709
78553CL-    CL-45621  20.179   2.845   2.679
78554CL-    CL-45622  43.866   2.871  10.551
78555CL-    CL-45623  33.021  28.142  11.907
78556CL-    CL-45624  38.046  27.946   0.774
78557CL-    CL-45625  38.874   3.887  14.396
78558CL-    CL-45626  32.471  42.016   4.310
78559CL-    CL-45627  23.208  11.826   2.884
78560CL-    CL-45628   4.738  29.925  12.996
78561CL-    CL-45629  24.683  10.325   3.706
78562CL-    CL-45630  18.145  40.440   1.377
78563CL-    CL-45631  10.359  16.276  11.379
78564CL-    CL-45632  10.694   7.888   4.719
78565CL-    CL-45633  19.067  15.819  11.044
78566CL-    CL-45634  32.115  25.607  11.046
78567CL-    CL-45635  43.414  41.518   1.721
78568CL-    CL-45636  38.449  12.132   3.760
78569CL-    CL-45637  31.053  22.665  14.428
78570CL-    CL-45638  12.748  34.109  13.960
78571CL-    CL-45639  34.014  37.868  14.772
78572CL-    CL-45640   2.848  13.836   3.830
78573CL-    CL-45641   0.897  21.627  11.486
78574CL-    CL-45642  14.799  16.242   3.770
78575CL-    CL-45643  23.647  31.526  14.774
78576CL-    CL-45644  27.059  13.161  11.401
78577CL-    CL-45645  44.984  20.226   4.718
78578CL-    CL-45646  44.261  12.841  11.041
78579CL-    CL-45647  24.495  38.509  12.071
78580CL-    CL-45648  28.138  29.649   4.769
78581CL-    CL-45649  43.782  37.485  12.991
78582CL-    CL-45650  21.545  18.256  14.008
78583CL-    CL-45651  27.448  25.003  13.889
78584CL-    CL-45652  38.510   6.274  11.914
78585CL-    CL-45653  13.689  38.837   2.808
78586CL-    CL-45654  35.558   6.373  13.037
78587CL-    CL-45655  34.914  19.681   4.718
78588CL-    CL-45656   5.706  33.110   1.812
78589CL-    CL-45657  29.999  19.096  11.386
78590CL-    CL-45658  16.299  10.876  14.993
78591CL-    CL-45659  21.674   2.452   1.824
78592CL-    CL-45660  39.531  33.599   0.900
78593CL-    CL-45661  18.122  14.670  12.981
78594CL-    CL-45662  33.488  25.025  11.964
78595CL-    CL-45663  32.895   5.914   4.793
78596CL-    CL-45664  29.548  23.705  11.027
78597CL-    CL-45665  23.145  17.139   2.703
78598CL-    CL-45666  20.614   4.774  14.883
78599CL-    CL-45667  12.263  30.613  12.913
78600CL-    CL-45668   6.898  22.735  12.856
78601CL-    CL-45669  30.024  13.179  13.529
78602CL-    CL-45670   1.278  23.589  11.924
78603CL-    CL-45671  40.328  24.708   4.271
78604CL-    CL-45672  32.015   8.889   1.236
78605CL-    CL-45673   1.830   0.420   2.771
78606CL-    CL-45674   1.412  29.650  11.947
78607CL-    CL-45675  14.158   2.376   4.340
78608CL-    CL-45676  13.605  16.695  14.839
78609CL-    CL-45677  11.802  38.047   2.874
78610CL-    CL-45678  43.360  38.943  12.045
78611CL-    CL-45679  43.784   0.376   3.730
78612CL-    CL-45680  27.538  44.472  11.377
78613CL-    CL-45681  18.275  25.680  11.024
78614CL-    CL-45682  30.928  44.802   1.934
78615CL-    CL-45683  17.246  12.225  14.869
78616CL-    CL-45684  32.039   2.345  13.357
78617CL-    CL-45685  23.055  30.532  11.545
78618CL-    CL-45686  18.061  35.911   4.316
78619CL-    CL-45687  29.000   8.692   4.149
78620CL-    CL-45688   0.922  32.592  13.840
78621CL-    CL-45689  44.860  37.500   4.181
78622CL-    CL-45690  23.527  21.630   0.414
78623CL-    CL-45691  21.696  31.959   1.781
78624CL-    CL-45692  18.785  31.958  14.017
78625CL-    CL-45693  25.001  13.620   4.247
78626CL-    CL-45694  22.168  15.755   4.632
78627CL-    CL-45695   0.849   6.207  11.051
78628CL-    CL-45696  32.597   1.405   3.825
78629CL-    CL-45697   4.246  31.916  10.571
78630CL-    CL-45698  42.524  24.632  14.323
78631CL-    CL-45699  43.400  13.694   1.245
78632CL-    CL-45700  35.898  31.452  11.114
78633CL-    CL-45701  16.205  21.758   3.330
78634CL-    CL-45702  18.117   9.184  14.001
78635CL-    CL-45703  27.503   1.910   4.704
78636CL-    CL-45704   4.714  38.387  12.470
78637CL-    CL-45705   5.268   9.358   4.711
78638CL-    CL-45706   3.364  21.559  11.503
78639CL-    CL-45707  28.596   1.465  12.416
78640CL-    CL-45708  15.138  17.563  11.498
78641CL-    CL-45709  43.360  31.061  11.584
78642CL-    CL-45710   4.352  42.908   4.625
78643CL-    CL-45711  28.659  16.313  13.375
78644CL-    CL-45712  34.116  43.846  14.503
78645CL-    CL-45713  31.975  35.487   2.412
78646CL-    CL-45714  10.145  38.991  14.512
78647CL-    CL-45715  24.082   7.722   2.234
78648CL-    CL-45716  21.036  37.346  12.564
78649CL-    CL-45717  42.527   4.917   1.931
78650CL-    CL-45718   5.851  27.492   2.785
78651CL-    CL-45719  39.508   6.406   4.237
78652CL-    CL-45720   3.786  36.948   1.906
78653CL-    CL-45721  15.766  17.594   2.860
78654CL-    CL-45722  31.632  15.628   4.240
78655CL-    CL-45723  13.340   0.788  14.827
78656CL-    CL-45724  22.551  34.551  11.521
78657CL-    CL-45725  43.382   1.799   5.168
78658CL-    CL-45726  33.068  12.225   4.348
78659CL-    CL-45727  33.532   3.401  11.542
78660CL-    CL-45728   6.327  26.990   0.871
78661CL-    CL-45729  16.570  39.874  14.906
78662CL-    CL-45730  15.260  35.459   3.191
78663CL-    CL-45731  16.082   7.736   2.227
78664CL-    CL-45732  22.062   4.324  12.371
78665CL-    CL-45733  41.418   9.870  13.843
78666CL-    CL-45734  12.826   7.889   4.274
78667CL-    CL-45735  21.546  18.747   4.625
78668CL-    CL-45736  41.860  40.867  12.446
78669CL-    CL-45737  22.185  30.421   1.826
78670CL-    CL-45738   8.727  28.591   4.603
78671CL-    CL-45739  37.986  21.251   2.227
78672CL-    CL-45740   7.743  21.109  10.578
78673CL-    CL-45741  26.065  30.071   0.463
78674CL-    CL-45742  24.194  19.754  11.016
78675CL-    CL-45743   2.877  20.129   0.855
78676CL-    CL-45744  38.370  11.368   1.403
78677CL-    CL-45745  19.670  22.678   5.184
78678CL-    CL-45746   9.195  21.118   1.802
78679CL-    CL-45747   0.772  26.198  12.380
78680CL-    CL-45748  26.964   3.820   4.613
78681CL-    CL-45749   1.318  18.188   0.838
78682CL-    CL-45750   8.716  34.433   4.218
78683CL-    CL-45751   9.870  18.624   1.406
78684CL-    CL-45752   7.769  37.947  14.861
78685CL-    CL-45753  26.084   5.860  14.464
78686CL-    CL-45754  31.571  20.204  11.987
78687CL-    CL-45755  21.545  13.235  12.341
78688CL-    CL-45756   7.353  28.583   2.764
78689CL-    CL-45757  30.122  19.550   4.620
78690CL-    CL-45758   0.900  15.784  12.377
78691CL-    CL-45759   1.899   8.345  10.927
78692CL-    CL-45760  25.621  10.678   3.274
78693CL-    CL-45761  37.488  13.251   1.710
78694CL-    CL-45762  24.030  16.708  10.633
78695CL-    CL-45763  27.078  28.121  11.580
78696CL-    CL-45764  35.857  20.169   3.234
78697CL-    CL-45765   1.774  13.130  11.000
78698CL-    CL-45766   3.723   2.447  12.946
78699CL-    CL-45767  33.965  13.350   1.910
78700CL-    CL-45768  37.865  36.521   1.229
78701CL-    CL-45769  24.043   8.704   1.858
78702CL-    CL-45770  40.838  31.938   3.758
78703CL-    CL-45771  38.467  37.493   2.839
78704CL-    CL-45772  16.139  34.397  11.420
78705CL-    CL-45773  39.030  28.448  10.968
78706CL-    CL-45774  22.117  43.446   4.254
78707CL-    CL-45775  34.893  20.637  14.904
78708CL-    CL-45776  15.165  27.953  12.880
78709CL-    CL-45777  27.574  34.026   2.817
78710CL-    CL-45778  37.538   3.779   5.246
78711CL-    CL-45779   0.357  20.136  14.019
78712CL-    CL-45780  23.067   6.218   2.419
78713CL-    CL-45781  19.638  21.546  12.062
78714CL-    CL-45782  42.462  43.002   3.654
78715CL-    CL-45783  36.911  28.553   0.877
78716CL-    CL-45784  19.624   7.845  12.416
78717CL-    CL-45785  19.132  15.805  14.322
78718CL-    CL-45786   6.690  11.245  11.538
78719CL-    CL-45787  15.188   3.921  14.784
78720CL-    CL-45788   0.792  20.050   3.870
78721CL-    CL-45789   4.370  30.118   2.257
78722CL-    CL-45790  28.587  19.621   1.934
78723CL-    CL-45791  12.308  18.073  14.361
78724CL-    CL-45792  11.161   6.811  11.897
78725CL-    CL-45793   4.303   9.680  10.889
78726CL-    CL-45794   8.371  42.965  10.643
78727CL-    CL-45795  44.376  28.055  11.859
78728CL-    CL-45796   1.787   0.454   0.396
78729CL-    CL-45797   8.755  41.332  10.948
78730CL-    CL-45798  16.133  44.405   4.305
78731CL-    CL-45799  34.386  22.627  13.973
78732CL-    CL-45800  18.790  14.115   3.785
78733CL-    CL-45801   0.485  37.427   3.264
78734CL-    CL-45802  37.485   4.402  13.361
78735CL-    CL-45803  26.109  38.457   0.938
78736CL-    CL-45804  33.489  29.570  13.346
78737CL-    CL-45805  36.005  30.048   3.245
78738CL-    CL-45806  37.988  44.881  10.460
78739CL-    CL-45807  23.650   3.360   0.285
78740CL-    CL-45808  38.982  33.620  10.638
78741CL-    CL-45809  17.084   3.344   1.320
78742CL-    CL-45810  16.574  26.506   2.336
78743CL-    CL-45811  31.488   9.651  13.370
78744CL-    CL-45812   8.834  44.944   5.239
78745CL-    CL-45813  27.972   7.376  10.955
78746CL-    CL-45814  22.596  34.452   2.403
78747CL-    CL-45815  16.317  11.666   4.820
78748CL-    CL-45816  36.910   9.370   2.778
78749CL-    CL-45817  24.146  37.491   3.211
78750CL-    CL-45818  18.630   4.708  13.025
78751CL-    CL-45819  22.566   5.411   0.799
78752CL-    CL-45820   8.267  36.476  13.980
78753CL-    CL-45821  10.817   9.838  11.107
78754CL-    CL-45822  29.175  13.744  12.427
78755CL-    CL-45823  41.864  40.490   0.804
78756CL-    CL-45824   5.323  29.123  11.612
78757CL-    CL-45825  43.907   4.415   2.260
78758CL-    CL-45826  26.529  10.163   4.633
78759CL-    CL-45827  23.648  38.564  11.371
78760CL-    CL-45828   8.356  23.082  14.484
78761CL-    CL-45829  43.919  15.823   2.295
78762CL-    CL-45830  25.207  38.875  11.494
78763CL-    CL-45831   0.804   5.930  10.491
78764CL-    CL-45832  28.090  36.967   3.665
78765CL-    CL-45833  24.220  11.801  13.834
78766CL-    CL-45834  43.326  19.275  14.875
78767CL-    CL-45835  22.559  36.956   2.715
78768CL-    CL-45836  32.073  33.955  11.508
78769CL-    CL-45837  30.539  23.679  13.931
78770CL-    CL-45838  23.528  13.167  11.882
78771CL-    CL-45839  16.220   1.280   0.765
78772CL-    CL-45840  24.032  14.325   0.388
78773CL-    CL-45841  24.203  43.972   2.764
78774CL-    CL-45842  11.256   3.799   3.639
78775CL-    CL-45843  44.485   6.846  14.835
78776CL-    CL-45844   5.894  21.563  13.505
78777CL-    CL-45845  38.456  43.004   3.735
78778CL-    CL-45846  10.265  18.720  11.580
78779CL-    CL-45847  26.068  36.387  11.418
78780CL-    CL-45848  27.478  15.106   1.244
78781CL-    CL-45849  25.186  38.956   2.419
78782CL-    CL-45850  38.824   2.762  14.312
78783CL-    CL-45851  32.464   4.853   2.890
78784CL-    CL-45852  27.975  18.703   3.245
78785CL-    CL-45853  36.505  44.413  11.924
78786CL-    CL-45854  39.845  23.571  12.490
78787CL-    CL-45855  15.252  40.499  12.574
78788CL-    CL-45856  38.341  43.441  11.965
78789CL-    CL-45857  39.015  17.565   2.406
78790CL-    CL-45858  21.530  25.641   4.653
78791CL-    CL-45859  22.073  43.411  14.445
78792CL-    CL-45860  32.087   2.405   4.264
78793CL-    CL-45861  42.859  43.811  14.869
78794CL-    CL-45862  38.560  11.246  14.343
78795CL-    CL-45863  18.270   2.795  13.855
78796CL-    CL-45864  38.955  30.961  10.592
78797CL-    CL-45865   0.796  37.906   0.369
78798CL-    CL-45866  14.718  19.275  14.777
78799CL-    CL-45867  36.080  22.518   1.930
78800CL-    CL-45868   9.655  19.181   3.315
78801CL-    CL-45869  10.715  12.262   0.461
78802CL-    CL-45870  19.152  44.275  13.862
78803CL-    CL-45871   2.342  20.180  13.491
78804CL-    CL-45872  13.672  43.315   2.280
78805CL-    CL-45873  21.623  33.484   2.339
78806CL-    CL-45874   5.875  18.674  13.053
78807CL-    CL-45875   5.435  25.071   0.475
78808CL-    CL-45876  25.620  12.308   2.741
78809CL-    CL-45877  21.232  24.664  12.482
78810CL-    CL-45878  36.017  40.529  12.359
78811CL-    CL-45879  29.941   5.750  11.095
78812CL-    CL-45880  37.065  40.511   2.398
78813CL-    CL-45881  19.717  31.640  10.629
78814CL-    CL-45882   7.256  29.632  10.470
78815CL-    CL-45883  25.512  28.473  13.045
78816CL-    CL-45884   2.316  17.207   2.872
78817CL-    CL-45885   7.813  33.552  14.485
78818CL-    CL-45886  15.731  31.563   2.198
78819CL-    CL-45887  30.494  41.938  12.405
78820CL-    CL-45888  39.816  36.943   3.280
78821CL-    CL-45889  31.005  18.614   2.893
78822CL-    CL-45890  36.004  19.069  14.783
78823CL-    CL-45891  32.908  34.015  12.977
78824CL-    CL-45892  43.341  22.117   0.814
78825CL-    CL-45893  20.676   0.341   3.284
78826CL-    CL-45894  17.631  13.110   1.892
78827CL-    CL-45895  11.725  11.239  14.296
78828CL-    CL-45896   2.908  18.624   0.921
78829CL-    CL-45897  33.390  21.226   4.767
78830CL-    CL-45898  21.024  39.464   3.648
78831CL-    CL-45899   5.766  12.622   3.814
78832CL-    CL-45900  36.429  26.499  12.444
78833CL-    CL-45901  36.381  38.549  14.867
78834CL-    CL-45902   3.876   6.312  10.060
78835CL-    CL-45903   4.738  18.589  14.843
78836CL-    CL-45904  18.704   4.717   4.256
78837CL-    CL-45905  11.794  39.955  14.386
78838CL-    CL-45906  25.169   0.755   0.906
78839CL-    CL-45907  19.238  13.195   4.186
78840CL-    CL-45908   3.873  40.896  13.359
78841CL-    CL-45909  13.653  12.209  11.006
78842CL-    CL-45910  10.286   0.442   1.783
78843CL-    CL-45911  41.819  25.199   4.795
78844CL-    CL-45912  42.961  37.469  10.952
78845CL-    CL-45913  42.790  20.085  12.502
78846CL-    CL-45914  39.045  21.213   0.290
78847CL-    CL-45915   8.693  42.359   3.202
78848CL-    CL-45916   7.873  12.120  12.823
78849CL-    CL-45917   8.842  22.684   2.364
78850CL-    CL-45918   0.492  31.430  11.565
78851CL-    CL-45919   2.766  27.670  11.449
78852CL-    CL-45920  29.100  22.040   4.187
78853CL-    CL-45921  31.040  29.456   4.784
78854CL-    CL-45922  29.995  19.143   0.942
78855CL-    CL-45923   2.289  41.987   1.420
78856CL-    CL-45924  14.722   1.322   1.926
78857CL-    CL-45925  22.204   9.877   3.811
78858CL-    CL-45926  17.670  13.737  14.367
78859CL-    CL-45927   8.160  30.639   3.677
78860CL-    CL-45928  29.566   4.870  14.872
78861CL-    CL-45929   5.290   1.321  14.424
78862CL-    CL-45930   9.208  19.045   3.313
78863CL-    CL-45931   2.431  42.791  13.907
78864CL-    CL-45932  18.605   0.809  11.048
78865CL-    CL-45933  14.112  42.496  12.387
78866CL-    CL-45934  19.283  39.398  11.488
78867CL-    CL-45935   0.786   9.865   4.218
78868CL-    CL-45936  26.050   1.812   1.851
78869CL-    CL-45937  32.098  24.625   1.774
78870CL-    CL-45938  31.957  42.813   3.380
78871CL-    CL-45939   4.704  22.672   2.718
78872CL-    CL-45940  40.459  37.357   3.309
78873CL-    CL-45941  26.641  28.615  12.960
78874CL-    CL-45942  26.966   3.304   1.294
78875CL-    CL-45943  24.723  41.814  13.895
78876CL-    CL-45944  10.327  22.634   1.285
78877CL-    CL-45945  13.344  11.683   2.725
78878CL-    CL-45946  18.729  36.012   4.832
78879CL-    CL-45947  11.624  29.532   2.782
78880CL-    CL-45948   0.754   3.847  14.882
78881CL-    CL-45949  20.056  25.965  10.642
78882CL-    CL-45950  15.817   9.224  12.056
78883CL-    CL-45951  23.155  29.634   3.222
78884CL-    CL-45952   8.761   7.409   0.340
78885CL-    CL-45953  34.959  41.999   4.797
78886CL-    CL-45954  31.954   0.834  11.400
78887CL-    CL-45955  23.621   1.942  13.318
78888CL-    CL-45956  29.946   5.798  14.764
78889CL-    CL-45957  16.222  27.140  12.921
78890CL-    CL-45958   8.307  31.607  11.485
78891CL-    CL-45959  30.078  40.968  10.927
78892CL-    CL-45960   0.823  11.369  10.984
78893CL-    CL-45961  26.641  41.878   4.700
78894CL-    CL-45962  17.125   3.429   0.309
78895CL-    CL-45963  40.893  43.811  12.049
78896CL-    CL-45964  19.775   0.338   1.921
78897CL-    CL-45965  38.858  36.499   4.758
78898CL-    CL-45966   2.267  23.003   4.133
78899CL-    CL-45967  32.908  34.024   2.769
78900CL-    CL-45968  40.461   8.244  13.382
78901CL-    CL-45969  43.844  25.665   4.724
78902CL-    CL-45970  34.543   8.672  12.849
78903CL-    CL-45971  38.479  22.650  13.326
78904CL-    CL-45972   5.873   0.464   1.715
78905CL-    CL-45973   0.911  32.976  11.591
78906CL-    CL-45974  29.004   7.873  10.596
78907CL-    CL-45975   1.383  40.825  10.619
78908CL-    CL-45976  10.721  14.264   4.794
78909CL-    CL-45977  35.572  29.985  13.310
78910CL-    CL-45978  21.050  15.255  10.500
78911CL-    CL-45979  30.555   7.392   0.766
78912CL-    CL-45980  31.975  35.875  12.863
78913CL-    CL-45981  15.281  16.699   0.842
78914CL-    CL-45982  37.426  41.858  12.980
78915CL-    CL-45983  41.485  20.753   4.244
78916CL-    CL-45984  13.745   3.952  10.978
78917CL-    CL-45985  17.560   1.879   3.383
78918CL-    CL-45986  31.975  41.307   1.219
78919CL-    CL-45987  15.184  28.180   2.384
78920CL-    CL-45988  20.630  37.065   2.339
78921CL-    CL-45989  17.174  11.330  11.001
78922CL-    CL-45990  15.617  34.024   1.733
78923CL-    CL-45991  19.082   3.839  13.414
78924CL-    CL-45992  35.405  33.493  10.985
78925CL-    CL-45993  24.503   4.796  14.332
78926CL-    CL-45994  29.435   1.916   2.216
78927CL-    CL-45995  16.138  14.834   0.315
78928CL-    CL-45996   3.305  14.323  13.517
78929CL-    CL-45997  34.909  38.959   2.878
78930CL-    CL-45998  37.427  15.116   0.744
78931CL-    CL-45999  22.165  35.943   3.321
78932CL-    CL-46000  37.026  42.507   1.783
78933CL-    CL-46001  10.181  33.061   3.186
78934CL-    CL-46002  28.587  15.810   3.655
78935CL-    CL-46003  44.958  17.661   0.754
78936CL-    CL-46004  42.483   4.902   3.305
78937CL-    CL-46005  35.514  43.796  13.461
78938CL-    CL-46006  26.156  35.910   3.221
78939CL-    CL-46007   5.314  21.625  13.385
78940CL-    CL-46008  44.473  24.187   3.691
78941CL-    CL-46009  37.526  25.586   3.165
78942CL-    CL-46010  22.521   7.698  13.020
78943CL-    CL-46011  19.540   8.895   1.847
78944CL-    CL-46012  43.862  16.800   3.221
78945CL-    CL-46013  44.321  12.798  14.445
78946CL-    CL-46014   9.750  24.709   0.281
78947CL-    CL-46015   4.342  32.519  13.037
78948CL-    CL-46016   1.964  30.591   3.808
78949CL-    CL-46017  41.392   0.445   4.732
78950CL-    CL-46018  11.731  13.309   4.602
78951CL-    CL-46019  15.727   3.892  12.446
78952CL-    CL-46020  26.994  15.217  12.445
78953CL-    CL-46021  33.557  32.945  13.964
78954CL-    CL-46022  33.415  10.749   4.733
78955CL-    CL-46023  25.628  23.511   3.273
78956CL-    CL-46024  36.038  34.530   0.251
78957CL-    CL-46025  43.866   1.937   3.713
78958CL-    CL-46026   2.759  41.933  14.021
78959CL-    CL-46027  42.320   5.361  14.890
78960CL-    CL-46028  40.839  16.731   4.202
78961CL-    CL-46029  35.464  24.701  13.047
78962CL-    CL-46030   0.368   1.850  13.462
78963CL-    CL-46031  44.482  31.450  13.034
78964CL-    CL-46032   1.425  13.287  14.309
78965CL-    CL-46033  18.740  42.000  12.508
78966CL-    CL-46034  11.323  13.610   2.857
78967CL-    CL-46035   8.337  21.103  12.995
78968CL-    CL-46036  24.107  38.885   1.914
78969CL-    CL-46037  27.953   9.356   4.266
78970CL-    CL-46038  28.443  18.649   2.758
78971CL-    CL-46039  13.141  34.459   1.892
78972CL-    CL-46040  12.695   3.733  11.604
78973CL-    CL-46041  28.574  21.586   0.754
78974CL-    CL-46042  43.358  17.152   4.598
78975CL-    CL-46043   7.753  36.089  11.927
78976CL-    CL-46044  29.583  25.635  11.935
78977CL-    CL-46045  28.951  30.596   4.780
78978CL-    CL-46046  16.284  19.712   2.809
78979CL-    CL-46047  38.053  23.107  12.087
78980CL-    CL-46048  40.513  39.034   2.737
78981CL-    CL-46049  40.839   3.843   4.314
78982CL-    CL-46050  25.972  23.708   2.873
78983CL-    CL-46051  32.017   6.340  12.870
78984CL-    CL-46052   5.284  23.078   2.821
78985CL-    CL-46053  16.592  23.207  11.031
78986CL-    CL-46054  12.269  25.705   0.943
78987CL-    CL-46055   7.839  40.330   1.827
78988CL-    CL-46056  37.849  14.245  10.451
78989CL-    CL-46057  32.928  43.496   2.829
78990CL-    CL-46058  19.280  17.120   0.847
78991CL-    CL-46059   4.773   8.330  11.609
78992CL-    CL-46060  30.094  24.997  13.427
78993CL-    CL-46061   9.820   8.805   2.263
78994CL-    CL-46062  18.660  38.851   1.802
78995CL-    CL-46063  43.490  37.451  13.995
78996CL-    CL-46064  18.251  12.186   1.368
78997CL-    CL-46065   3.848   8.220  11.461
78998CL-    CL-46066   0.753   9.787  13.471
78999CL-    CL-46067  18.706  18.569  10.991
79000CL-    CL-46068   0.822  10.874   0.297
79001CL-    CL-46069  27.669  29.156   2.194
79002CL-    CL-46070  23.212  27.469  10.961
79003CL-    CL-46071  37.453   4.882  12.828
79004CL-    CL-46072  42.450  25.214   3.257
79005CL-    CL-46073   8.823  17.143   5.084
79006CL-    CL-46074  10.359  11.203   1.841
79007CL-    CL-46075   3.342  36.906   1.790
79008CL-    CL-46076  33.381  42.802  14.770
79009CL-    CL-46077  29.590  17.104  12.425
79010CL-    CL-46078   7.324  20.206  13.310
79011CL-    CL-46079  25.178  33.091  14.505
79012CL-    CL-46080  38.537  14.118  13.495
79013CL-    CL-46081  24.646  30.097  13.791
79014CL-    CL-46082   8.792  22.734  10.959
79015CL-    CL-46083  14.254  14.273  14.514
79016CL-    CL-46084  14.755  15.086  14.973
79017CL-    CL-46085  13.148  13.795   2.332
79018CL-    CL-46086  26.568  24.222   3.864
79019CL-    CL-46087   0.338  43.008   0.437
79020CL-    CL-46088  26.555  10.728   2.229
79021CL-    CL-46089  40.482   5.423  14.433
79022CL-    CL-46090  17.787  28.650  13.796
79023CL-    CL-46091  27.516  29.099   0.854
79024CL-    CL-46092   2.936  25.648  13.030
79025CL-    CL-46093   9.158  20.042  11.550
79026CL-    CL-46094   6.753  17.766   2.755
79027CL-    CL-46095  26.031  31.998  12.967
79028CL-    CL-46096  31.012  37.008   4.682
79029CL-    CL-46097  37.472   5.694   4.701
79030CL-    CL-46098   1.906  16.081  11.390
79031CL-    CL-46099  13.165  11.342   2.861
79032CL-    CL-46100   4.904  35.916   3.656
79033CL-    CL-46101  41.510  10.848   2.683
79034CL-    CL-46102  34.407  21.575  13.434
79035CL-    CL-46103  44.829  35.444   2.235
79036CL-    CL-46104   8.360  24.554   3.376
79037CL-    CL-46105  29.433  24.530   0.836
79038CL-    CL-46106   4.762  31.473   1.279
79039CL-    CL-46107  15.302  12.648  10.576
79040CL-    CL-46108   9.298  31.569   2.184
79041CL-    CL-46109  24.583  10.842   1.738
79042CL-    CL-46110  27.628  10.317   0.849
79043CL-    CL-46111  33.122  20.247   2.312
79044CL-    CL-46112   9.335   6.831   1.215
79045CL-    CL-46113   4.903  23.614   0.913
79046CL-    CL-46114  28.480  25.646  12.000
79047CL-    CL-46115  15.311  32.464  12.523
79048CL-    CL-46116  14.602  41.338  10.115
79049CL-    CL-46117  20.684  25.505  14.976
79050CL-    CL-46118   8.759   1.338  10.433
79051CL-    CL-46119   0.751  10.285  10.957
79052CL-    CL-46120  36.996  17.683   3.799
79053CL-    CL-46121  18.097  27.166  10.030
79054CL-    CL-46122  30.561  20.083  11.075
79055CL-    CL-46123   6.684  27.999  11.873
79056CL-    CL-46124  20.095  25.698   3.652
79057CL-    CL-46125   2.893   2.881   2.323
79058CL-    CL-46126  10.211  11.189   2.716
79059CL-    CL-46127  21.260   6.301   3.640
79060CL-    CL-46128  20.135  31.545  14.841
79061CL-    CL-46129  29.452  38.560   2.201
79062CL-    CL-46130  15.095  31.082  13.825
79063CL-    CL-46131  29.587  13.665   1.370
79064CL-    CL-46132  26.698  11.668   0.858
79065CL-    CL-46133  31.568  21.563   0.758
79066CL-    CL-46134  23.569  10.657   4.188
79067CL-    CL-46135  37.017  35.391  10.983
79068CL-    CL-46136  30.464  44.319   0.730
79069CL-    CL-46137   5.246  16.658  11.080
79070CL-    CL-46138  22.177  10.690   0.357
79071CL-    CL-46139  31.092  41.355   4.354
79072CL-    CL-46140  36.949   9.830  11.499
79073CL-    CL-46141  25.020  20.105   4.148
79074CL-    CL-46142  41.318  27.093   2.688
79075CL-    CL-46143  36.366  19.584  11.880
79076CL-    CL-46144  23.651  11.203  11.935
79077CL-    CL-46145  12.731  19.670   3.175
79078CL-    CL-46146  12.785   4.894  11.906
79079CL-    CL-46147  18.590   9.160  12.429
79080CL-    CL-46148  39.559  15.784   0.957
79081CL-    CL-46149  16.236  10.723   1.883
79082CL-    CL-46150  22.224  36.012   3.777
79083CL-    CL-46151  44.375  15.808  11.465
79084CL-    CL-46152  36.352  15.799   5.166
79085CL-    CL-46153  28.941  27.069   0.761
79086CL-    CL-46154  16.252  35.980   4.691
79087CL-    CL-46155   2.390  19.270  14.482
79088CL-    CL-46156  37.401  29.008  11.979
79089CL-    CL-46157  31.585  21.021   1.420
79090CL-    CL-46158   6.329  22.110  10.607
79091CL-    CL-46159  22.698  13.187   4.115
79092CL-    CL-46160  29.627  16.115   1.793
79093CL-    CL-46161  11.728   1.391  14.885
79094CL-    CL-46162   6.267  15.709  13.038
79095CL-    CL-46163  12.277  39.558  14.803
79096CL-    CL-46164  15.578  35.943   1.773
79097CL-    CL-46165  12.217  19.772  11.381
79098CL-    CL-46166   0.355   5.808  13.414
79099CL-    CL-46167  20.054  35.033   1.329
79100CL-    CL-46168  22.226  22.228  12.409
79101CL-    CL-46169  31.471  28.033   1.351
79102CL-    CL-46170  25.633  27.677   2.319
79103CL-    CL-46171  24.717  37.853  13.889
79104CL-    CL-46172  18.630  37.530  10.457
79105CL-    CL-46173   8.797  34.927  10.942
79106CL-    CL-46174  21.129  20.083  11.061
79107CL-    CL-46175  38.954  35.920  14.952
79108CL-    CL-46176  11.650  41.440  14.933
79109CL-    CL-46177   4.854  42.970  12.940
79110CL-    CL-46178   6.232   8.701   2.399
79111CL-    CL-46179  18.648  28.960  14.460
79112CL-    CL-46180   9.724  23.198   2.243
79113CL-    CL-46181  20.211  38.468   4.145
79114CL-    CL-46182  11.215  18.644   3.858
79115CL-    CL-46183   3.356  11.304   1.795
79116CL-    CL-46184  17.188   8.248   4.263
79117CL-    CL-46185  24.180  31.426  12.046
79118CL-    CL-46186  29.978   7.403  11.987
79119CL-    CL-46187  37.556  34.452  13.419
79120CL-    CL-46188   9.772  31.485   2.251
79121CL-    CL-46189  28.473  19.591  13.409
79122CL-    CL-46190  23.206  12.643  11.099
79123CL-    CL-46191  17.186   5.755  11.010
79124CL-    CL-46192  35.952  33.059  12.451
79125CL-    CL-46193  14.313  12.786  11.561
79126CL-    CL-46194  15.303   0.352  11.548
79127CL-    CL-46195  35.508  44.444   4.115
79128CL-    CL-46196  13.702  26.611  14.504
79129CL-    CL-46197  35.363  35.988  10.910
79130CL-    CL-46198  15.701  32.439  14.494
79131CL-    CL-46199  11.835  30.630  11.960
79132CL-    CL-46200  42.029  22.071   4.832
79133CL-    CL-46201  18.217   3.815  10.986
79134CL-    CL-46202  33.889  42.959   1.751
79135CL-    CL-46203  10.792   1.308   2.851
79136CL-    CL-46204  16.769  20.588   2.712
79137CL-    CL-46205  24.586  23.498  12.362
79138CL-    CL-46206  10.237   0.900  13.878
79139CL-    CL-46207  19.229   9.792   4.208
79140CL-    CL-46208  24.197  25.559  12.013
79141CL-    CL-46209  43.402  29.151  10.575
79142CL-    CL-46210  29.957   8.820   0.880
79143CL-    CL-46211  37.046  21.625  13.547
79144CL-    CL-46212   3.346  18.050   3.763
79145CL-    CL-46213   5.331  26.007   3.836
79146CL-    CL-46214  21.758  34.463   0.846
79147CL-    CL-46215  34.614  37.041  14.974
79148CL-    CL-46216  44.474   2.962  13.021
79149CL-    CL-46217  20.105  15.242   0.440
79150CL-    CL-46218   3.241  32.484  13.353
79151CL-    CL-46219  27.980  28.993  14.418
79152CL-    CL-46220  12.839  23.505  11.510
79153CL-    CL-46221   9.322  24.482   4.806
79154CL-    CL-46222  30.650  19.246   1.720
79155CL-    CL-46223  33.906   1.258   3.172
79156CL-    CL-46224   4.286  36.380  12.411
79157CL-    CL-46225  28.517  39.378   2.347
79158CL-    CL-46226  14.763  29.954   2.744
79159CL-    CL-46227   0.826  44.893   3.818
79160CL-    CL-46228   5.236  31.403  12.437
79161CL-    CL-46229  27.452  11.256  13.408
79162CL-    CL-46230  40.032  31.129   3.186
79163CL-    CL-46231  11.154  34.081  12.508
79164CL-    CL-46232   8.781  30.544   4.787
79165CL-    CL-46233  29.538  28.538  13.994
79166CL-    CL-46234  42.857  31.957   0.260
79167CL-    CL-46235  43.882  11.751  12.536
79168CL-    CL-46236  12.136  14.765   2.370
79169CL-    CL-46237  22.017  14.713  12.977
79170CL-    CL-46238   5.304  41.897  13.878
79171CL-    CL-46239   4.831  35.012  12.506
79172CL-    CL-46240  30.129  26.107   0.843
79173CL-    CL-46241  37.349  10.243  13.454
79174CL-    CL-46242  31.089  41.887  13.035
79175CL-    CL-46243   2.916  30.555  11.126
79176CL-    CL-46244  28.658   7.234  10.946
79177CL-    CL-46245  44.765  11.368   4.329
79178CL-    CL-46246  41.846  37.520  12.505
79179CL-    CL-46247  35.856  34.606   3.349
79180CL-    CL-46248   9.853  20.050   2.695
79181CL-    CL-46249   7.682  17.617  12.501
79182CL-    CL-46250   8.369  20.759  13.016
79183CL-    CL-46251  15.689  23.130   3.639
79184CL-    CL-46252  13.804  13.325   1.694
79185CL-    CL-46253  41.508  39.477  11.111
79186CL-    CL-46254   2.819   6.866  12.361
79187CL-    CL-46255  14.625   9.337   0.796
79188CL-    CL-46256  28.120  39.336   0.728
79189CL-    CL-46257   5.333   0.889   1.748
79190CL-    CL-46258  14.211  18.096  14.400
79191CL-    CL-46259   1.895   7.192  13.452
79192CL-    CL-46260  37.854  22.108   1.781
79193CL-    CL-46261  32.037  36.464  13.338
79194CL-    CL-46262  31.118   6.367  11.874
79195CL-    CL-46263  44.310  11.212  14.949
79196CL-    CL-46264  36.026  37.051  14.010
79197CL-    CL-46265   3.840  36.031  13.980
79198CL-    CL-46266  21.261   9.719  11.048
79199CL-    CL-46267   1.847  38.569  10.999
79200CL-    CL-46268  12.852  20.675  14.315
79201CL-    CL-46269  37.853  10.644  10.999
79202CL-    CL-46270   4.379  26.150   0.312
79203CL-    CL-46271   4.449  20.115   5.157
79204CL-    CL-46272  32.919  21.682  12.492
79205CL-    CL-46273   8.767  31.591  12.425
79206CL-    CL-46274   1.865  27.187   4.329
79207CL-    CL-46275  39.996  42.916   1.355
79208CL-    CL-46276  31.455  30.418   3.838
79209CL-    CL-46277  19.772  28.470  14.833
79210CL-    CL-46278   2.925   6.246  10.477
79211CL-    CL-46279  35.034  16.608   1.871
79212CL-    CL-46280  14.728  28.129  12.025
79213CL-    CL-46281  28.040  34.614  14.026
79214CL-    CL-46282  24.697   7.322  13.829
79215CL-    CL-46283   9.302  21.142  11.452
79216CL-    CL-46284   8.678  15.749   5.196
79217CL-    CL-46285  39.989  42.409   3.382
79218CL-    CL-46286   4.797  13.152  11.507
79219CL-    CL-46287  42.432  27.558   3.761
79220CL-    CL-46288  11.292   9.842   0.727
79221CL-    CL-46289  30.571  43.841  14.820
79222CL-    CL-46290  30.598   0.849  12.888
79223CL-    CL-46291  26.161  26.623   4.170
79224CL-    CL-46292  15.815  26.017   0.880
79225CL-    CL-46293  25.000  10.307  14.450
79226CL-    CL-46294  25.022  20.048  12.834
79227CL-    CL-46295  18.202  20.046  14.012
79228CL-    CL-46296   6.299  11.735   3.290
79229CL-    CL-46297  22.507   5.371  14.283
79230CL-    CL-46298  13.264  23.706  12.426
79231CL-    CL-46299  43.501  29.994  14.951
79232CL-    CL-46300  18.215  15.194   0.925
79233CL-    CL-46301  23.700  12.729  10.945
79234CL-    CL-46302  11.751  25.141  12.837
79235CL-    CL-46303  32.090  14.119   2.724
79236CL-    CL-46304  16.110  23.660  10.530
79237CL-    CL-46305  31.070  19.733  12.348
79238CL-    CL-46306  22.644   6.395   3.206
79239CL-    CL-46307  36.962  44.479   3.750
79240CL-    CL-46308  42.493   6.772   2.323
79241CL-    CL-46309   0.297  14.749   2.700
79242CL-    CL-46310  13.257   4.919  11.090
79243CL-    CL-46311  23.059  14.657   2.694
79244CL-    CL-46312  22.169   5.720   1.423
79245CL-    CL-46313  20.208   1.408   4.152
79246CL-    CL-46314  40.544  19.144   0.910
79247CL-    CL-46315  24.622   5.300  10.562
79248CL-    CL-46316  13.221  23.008  13.442
79249CL-    CL-46317  28.185  27.561   1.330
79250CL-    CL-46318  16.129  30.487  12.517
79251CL-    CL-46319  23.215  42.872   4.736
79252CL-    CL-46320   8.209  17.129   2.347
79253CL-    CL-46321  10.815  18.103   2.221
79254CL-    CL-46322  28.951   9.737   0.887
79255CL-    CL-46323   6.889  17.167  10.923
79256CL-    CL-46324  40.502  23.075  14.280
79257CL-    CL-46325  19.112  18.750  13.001
79258CL-    CL-46326  26.100  35.377  14.481
79259CL-    CL-46327  23.545  43.289  11.022
79260CL-    CL-46328  25.564  17.594   1.367
79261CL-    CL-46329  16.742  19.141  14.976
79262CL-    CL-46330   8.170  33.443  14.876
79263CL-    CL-46331   5.733  33.095   3.677
79264CL-    CL-46332   7.810   9.358   3.313
79265CL-    CL-46333  21.599  24.557   2.374
79266CL-    CL-46334   8.808  29.011  13.972
79267CL-    CL-46335   8.751  18.561  13.034
79268CL-    CL-46336   9.202  35.067   2.714
79269CL-    CL-46337  12.249   9.806  13.540
79270CL-    CL-46338   2.331   2.802   3.387
79271CL-    CL-46339  31.483   5.905   0.883
79272CL-    CL-46340   7.376  19.123  11.463
79273CL-    CL-46341  19.610  41.920   1.343
79274CL-    CL-46342  11.714  25.042   1.264
79275CL-    CL-46343  28.666  15.166  10.142
79276CL-    CL-46344  10.694  19.043   3.638
79277CL-    CL-46345  44.850   4.396  13.389
79278CL-    CL-46346  23.688  39.850   3.271
79279CL-    CL-46347   3.265  28.129   1.713
79280CL-    CL-46348   2.736  11.699  14.870
79281CL-    CL-46349  15.143   6.219   4.837
79282CL-    CL-46350  10.291  38.909  13.920
79283CL-    CL-46351   4.412   3.453   1.238
79284CL-    CL-46352  26.202  20.072  12.999
79285CL-    CL-46353   2.850   3.414   1.270
79286CL-    CL-46354  41.522  41.023  12.422
79287CL-    CL-46355  22.623  41.015  12.034
79288CL-    CL-46356  37.553  17.258   0.935
79289CL-    CL-46357  17.281  15.246  13.891
79290CL-    CL-46358  38.835   3.762  13.423
79291CL-    CL-46359  10.779  30.046   3.315
79292CL-    CL-46360  22.609  20.258   0.418
79293CL-    CL-46361  18.627  21.638   0.915
79294CL-    CL-46362  22.739   0.371  14.759
79295CL-    CL-46363  26.507  25.107   1.740
79296CL-    CL-46364  43.958   8.728   1.236
79297CL-    CL-46365  42.033  25.591   2.661
79298CL-    CL-46366  21.746  34.995  13.312
79299CL-    CL-46367  17.096  35.977  10.075
79300CL-    CL-46368  43.976  24.090   3.165
79301CL-    CL-46369  18.602   9.678   0.322
79302CL-    CL-46370  16.220  13.182  11.407
79303CL-    CL-46371   8.786  26.164   2.679
79304CL-    CL-46372   2.777  21.657  11.972
79305CL-    CL-46373  13.284  28.013  13.497
79306CL-    CL-46374  36.348  20.624  14.859
79307CL-    CL-46375  37.379  44.771  10.600
79308CL-    CL-46376   4.772  17.578  10.549
79309CL-    CL-46377  15.615  44.805  12.412
79310CL-    CL-46378  15.636  18.292   1.421
79311CL-    CL-46379  16.271  20.127  10.935
79312CL-    CL-46380  36.887  34.075  13.911
79313CL-    CL-46381  33.904   2.758   4.344
79314CL-    CL-46382  17.275  19.248  14.977
79315CL-    CL-46383  32.984  32.523  13.337
79316CL-    CL-46384  24.543  38.027  10.541
79317CL-    CL-46385  28.960  37.843  13.479
79318CL-    CL-46386  31.566  22.663  10.905
79319CL-    CL-46387  28.075   1.739   1.265
79320CL-    CL-46388  44.911  35.537  11.533
79321CL-    CL-46389  33.486  25.020   3.794
79322CL-    CL-46390  37.507  30.585   2.708
79323CL-    CL-46391  25.681  27.573  11.577
79324CL-    CL-46392  17.655  30.653   0.380
79325CL-    CL-46393  28.157  41.310  10.415
79326CL-    CL-46394  30.519  10.823  11.508
79327CL-    CL-46395  33.509  20.187  12.467
79328CL-    CL-46396   5.927  11.272  12.957
79329CL-    CL-46397   1.781  27.037   0.386
79330CL-    CL-46398  14.832  38.931  14.324
79331CL-    CL-46399  39.488  34.895  14.023
79332CL-    CL-46400  35.473  18.053  10.484
79333CL-    CL-46401  18.741  12.831   1.277
79334CL-    CL-46402  15.748  39.421   0.877
79335CL-    CL-46403  16.074  28.678  10.600
79336CL-    CL-46404  19.237  22.179  12.448
79337CL-    CL-46405   0.387  26.470   2.717
79338CL-    CL-46406   1.365  33.076  12.837
79339CL-    CL-46407  15.599  39.842  13.415
79340CL-    CL-46408   8.897  40.495  12.081
79341CL-    CL-46409  23.074  10.859   4.195
79342CL-    CL-46410  36.458  36.347   3.723
79343CL-    CL-46411  41.499  32.931   0.447
79344CL-    CL-46412   8.885   9.295  10.620
79345CL-    CL-46413  33.521  37.832   3.709
79346CL-    CL-46414  32.048  15.586  11.887
79347CL-    CL-46415  10.154   7.868  12.451
79348CL-    CL-46416  16.668  12.754  11.573
79349CL-    CL-46417   0.298  21.618   2.863
79350CL-    CL-46418  41.883  12.718  14.774
79351CL-    CL-46419  25.171  18.166   2.819
79352CL-    CL-46420  44.780  33.975  10.966
79353CL-    CL-46421   5.792  40.528  13.400
79354CL-    CL-46422  35.404  37.991  13.897
79355CL-    CL-46423  34.118  18.110   1.246
79356CL-    CL-46424  39.455   3.875  10.924
79357CL-    CL-46425  15.701  10.316  13.845
79358CL-    CL-46426   8.254  26.145  10.620
79359CL-    CL-46427  29.952  41.016   1.269
79360CL-    CL-46428  11.693   9.838  12.384
79361CL-    CL-46429  17.165  34.073  12.089
79362CL-    CL-46430  20.218   9.653   0.941
79363CL-    CL-46431  11.776  26.961   4.280
79364CL-    CL-46432   6.804  29.621  11.862
79365CL-    CL-46433  10.139  36.919   2.381
79366CL-    CL-46434  29.126  16.643  13.477
79367CL-    CL-46435  12.334  37.541   1.361
79368CL-    CL-46436  42.913  22.556   1.901
79369CL-    CL-46437  34.560  44.915   2.360
79370CL-    CL-46438  42.859  29.619  14.509
79371CL-    CL-46439   7.370  35.556  10.502
79372CL-    CL-46440   3.454  30.629  13.365
79373CL-    CL-46441  36.374  43.442   0.419
79374CL-    CL-46442  24.107  15.789  13.465
79375CL-    CL-46443  42.925  31.043   3.783
79376CL-    CL-46444  29.135  17.127   2.687
79377CL-    CL-46445  30.652  41.366   0.273
79378CL-    CL-46446   8.805  28.122  10.412
79379CL-    CL-46447  32.505  31.913   1.305
79380CL-    CL-46448  16.304  35.997  11.006
79381CL-    CL-46449   9.861  43.891   3.688
79382CL-    CL-46450  13.650   2.762  11.911
79383CL-    CL-46451  41.310  38.934  12.044
79384CL-    CL-46452   7.771  17.642  13.825
79385CL-    CL-46453  13.223  30.108   0.789
79386CL-    CL-46454  22.032   3.900  14.873
79387CL-    CL-46455  30.416   1.837  12.487
79388CL-    CL-46456  25.006  43.346  14.930
79389CL-    CL-46457  27.502  13.778   2.243
79390CL-    CL-46458  35.421  10.193   0.469
79391CL-    CL-46459  39.825   2.955   3.173
79392CL-    CL-46460  29.427   3.787   4.221
79393CL-    CL-46461  40.343  14.186  13.046
79394CL-    CL-46462  22.732   8.342   2.674
79395CL-    CL-46463  40.843   5.347   2.704
79396CL-    CL-46464   6.851   8.320   0.402
79397CL-    CL-46465  18.283  30.080  11.034
79398CL-    CL-46466  26.501  12.351  13.859
79399CL-    CL-46467  32.507  17.737  12.580
79400CL-    CL-46468  43.480  15.754   4.642
79401CL-    CL-46469  42.390   0.882  14.390
79402CL-    CL-46470  41.366  12.646  14.905
79403CL-    CL-46471  28.113   0.985  10.429
79404CL-    CL-46472  13.191  19.089   3.643
79405CL-    CL-46473  26.044  30.105   2.235
79406CL-    CL-46474  36.513  14.761  14.997
79407CL-    CL-46475  10.197   5.309  10.946
79408CL-    CL-46476  10.292  41.959   1.711
79409CL-    CL-46477  34.011  34.538   0.252
79410CL-    CL-46478  43.329  44.951   4.781
79411CL-    CL-46479   7.191  21.648   4.786
79412CL-    CL-46480  42.005  13.690   4.706
79413CL-    CL-46481  22.161  31.987  13.487
79414CL-    CL-46482   7.841  22.144  13.547
79415CL-    CL-46483  24.657  25.518   3.366
79416CL-    CL-46484  39.038  34.383   2.397
79417CL-    CL-46485   0.772  16.132   1.424
79418CL-    CL-46486  26.039  20.677   1.235
79419CL-    CL-46487   2.307  24.980   0.292
79420CL-    CL-46488  38.414   5.288   3.192
79421CL-    CL-46489  16.309  19.153  13.947
79422CL-    CL-46490   8.699  33.517   0.243
79423CL-    CL-46491  22.678  14.131   0.308
79424CL-    CL-46492  15.671  10.833   9.663
79425CL-    CL-46493  31.445   8.205  10.473
79426CL-    CL-46494   5.798  23.984  11.093
79427CL-    CL-46495  38.537  13.750   1.853
79428CL-    CL-46496  35.366  28.983   0.955
79429CL-    CL-46497  24.552  37.897   1.433
79430CL-    CL-46498  21.126  38.844   4.678
79431CL-    CL-46499  28.631  31.912  12.459
79432CL-    CL-46500  42.922   6.300   1.240
79433CL-    CL-46501  26.640   2.230   0.892
79434CL-    CL-46502  28.116  27.035  11.913
79435CL-    CL-46503  26.667  26.052  14.323
79436CL-    CL-46504   4.246  31.426  11.464
79437CL-    CL-46505   0.318  17.654  13.308
79438CL-    CL-46506  20.212  22.641  10.507
79439CL-    CL-46507  34.942   2.737  10.888
79440CL-    CL-46508  43.451   1.326   2.774
79441CL-    CL-46509  34.985  13.791   0.329
79442CL-    CL-46510   7.887   8.860   2.346
79443CL-    CL-46511  27.523  12.684  12.505
79444CL-    CL-46512  41.957  26.578   4.822
79445CL-    CL-46513  27.494  24.126  13.896
79446CL-    CL-46514  31.523  17.600   2.735
79447CL-    CL-46515  26.585  10.645   1.234
79448CL-    CL-46516  20.574  26.594  10.466
79449CL-    CL-46517  25.496  40.304   0.825
79450CL-    CL-46518   5.873   4.445   3.174
79451CL-    CL-46519   1.470  37.865  14.362
79452CL-    CL-46520  15.107  43.886   3.664
79453CL-    CL-46521  38.071  17.687  12.922
79454CL-    CL-46522  11.228  35.025  11.959
79455CL-    CL-46523  19.086   9.208  13.392
79456CL-    CL-46524  35.097  15.609  13.998
79457CL-    CL-46525  44.325  37.567  11.545
79458CL-    CL-46526  34.399  39.905  12.863
79459CL-    CL-46527  22.719  43.974   1.259
79460CL-    CL-46528   5.226  27.457   0.383
79461CL-    CL-46529  27.121  32.415  10.935
79462CL-    CL-46530  37.564  12.850   2.795
79463CL-    CL-46531  11.727  17.566  11.413
79464CL-    CL-46532   6.335  27.089   4.291
79465CL-    CL-46533  38.875  41.939   2.735
79466CL-    CL-46534  26.523  35.369  12.580
79467CL-    CL-46535   2.377   5.814  12.094
79468CL-    CL-46536  29.987  13.112   9.656
79469CL-    CL-46537  14.787  15.714   0.954
79470CL-    CL-46538  37.987  36.887  13.040
79471CL-    CL-46539  25.001  19.745   0.351
79472CL-    CL-46540  32.964  35.046   3.858
79473CL-    CL-46541  24.220  42.905   4.320
79474CL-    CL-46542  17.636  23.596  11.388
79475CL-    CL-46543  33.389  12.260  11.376
79476CL-    CL-46544   2.430  14.687  11.479
79477CL-    CL-46545  42.011  44.941  13.526
79478CL-    CL-46546   4.774   1.439  11.950
79479CL-    CL-46547  41.952  18.692  14.995
79480CL-    CL-46548   9.206  20.127   0.253
79481CL-    CL-46549  11.369  32.525  13.835
79482CL-    CL-46550  22.108  27.617  14.764
79483CL-    CL-46551   2.867  32.408  13.525
79484CL-    CL-46552  28.953  31.538   2.729
79485CL-    CL-46553  44.946  35.554  14.373
79486CL-    CL-46554  29.462  44.410  11.447
79487CL-    CL-46555  26.611  12.267   3.282
79488CL-    CL-46556  40.958   6.222  11.103
79489CL-    CL-46557   8.276  42.286   1.337
79490CL-    CL-46558   8.708   4.804  14.380
79491CL-    CL-46559   4.777  44.353   2.732
79492CL-    CL-46560  17.120   8.204   5.277
79493CL-    CL-46561  21.252  33.462  11.088
79494CL-    CL-46562  17.108  42.502  13.321
79495CL-    CL-46563  35.374   8.659  13.541
79496CL-    CL-46564  36.586  12.618  12.888
79497CL-    CL-46565  17.597  43.437   4.285
79498CL-    CL-46566  26.617  27.455  14.322
79499CL-    CL-46567  36.389  43.939   2.348
79500CL-    CL-46568  29.118   4.835   1.280
79501CL-    CL-46569   3.723   3.357  11.024
79502CL-    CL-46570  44.317  23.158  12.463
79503CL-    CL-46571  42.393  25.029  11.579
79504CL-    CL-46572  36.568  44.797  13.041
79505CL-    CL-46573   0.811  25.528   1.337
79506CL-    CL-46574  44.821  39.437   4.661
79507CL-    CL-46575  19.764  34.064   4.725
79508CL-    CL-46576  37.533  30.143   1.378
79509CL-    CL-46577  43.857  23.239  13.339
79510CL-    CL-46578  34.467  20.160  13.802
79511CL-    CL-46579  40.487  35.502  12.390
79512CL-    CL-46580   6.348   2.912   3.149
79513CL-    CL-46581  41.395   9.703  12.867
79514CL-    CL-46582  28.679  18.705  12.858
79515CL-    CL-46583  44.949  36.973  13.871
79516CL-    CL-46584  16.253  38.950  13.318
79517CL-    CL-46585   0.978   3.321  14.828
79518CL-    CL-46586  10.671  27.659  14.828
79519CL-    CL-46587  23.073   8.349  11.086
79520CL-    CL-46588  13.760  43.506  10.915
79521CL-    CL-46589  29.058  38.552  13.355
79522CL-    CL-46590  14.333   9.782  13.003
79523CL-    CL-46591  42.476  43.470   1.924
79524CL-    CL-46592  20.081  13.714   2.370
79525CL-    CL-46593   4.878  15.762   1.385
79526CL-    CL-46594   3.907  24.698  12.048
79527CL-    CL-46595  24.057  26.135  11.904
79528CL-    CL-46596   0.957  34.594  14.765
79529CL-    CL-46597  36.399  25.054   4.655
79530CL-    CL-46598   8.175   3.367   0.935
79531CL-    CL-46599  36.081  12.824   3.816
79532CL-    CL-46600  18.725  31.022  14.797
79533CL-    CL-46601  42.364  17.184  12.067
79534CL-    CL-46602  36.372  11.664  11.374
79535CL-    CL-46603   8.664  13.337   5.227
79536CL-    CL-46604  17.240  12.237   4.322
79537CL-    CL-46605   4.847   8.348  13.377
79538CL-    CL-46606  25.507  21.099  10.943
79539CL-    CL-46607   9.149   3.311  10.097
79540CL-    CL-46608  37.564  26.108   0.800
79541CL-    CL-46609   3.900  16.599   2.875
79542CL-    CL-46610  11.247  28.588   3.250
79543CL-    CL-46611  19.106  44.269   2.224
79544CL-    CL-46612  41.905  28.087  12.580
79545CL-    CL-46613  11.641  30.927  13.533
79546CL-    CL-46614  13.221   2.261   2.755
79547CL-    CL-46615  34.435   7.733   1.225
79548CL-    CL-46616  13.840  15.258   2.321
79549CL-    CL-46617  37.951   0.418   0.915
79550CL-    CL-46618  30.934  11.649   3.212
79551CL-    CL-46619  24.648  33.508  12.996
79552CL-    CL-46620  41.912  26.197   2.872
79553CL-    CL-46621   2.842  18.753  11.433
79554CL-    CL-46622   8.709  34.487  11.415
79555CL-    CL-46623   8.296  11.230  10.611
79556CL-    CL-46624  41.436  28.930  12.898
79557CL-    CL-46625  32.455   5.292   2.329
79558CL-    CL-46626  17.179  21.255  13.372
79559CL-    CL-46627  30.642  21.525  13.420
79560CL-    CL-46628  14.183  27.169  14.914
79561CL-    CL-46629  39.463  22.568   0.454
79562CL-    CL-46630  34.441  40.343   0.856
79563CL-    CL-46631  35.950  22.016   0.360
79564CL-    CL-46632  21.046  24.496   2.705
79565CL-    CL-46633  42.334   7.276  11.000
79566CL-    CL-46634  27.496  21.674   3.320
79567CL-    CL-46635  32.445  34.993  13.022
79568CL-    CL-46636  22.137   4.250   0.864
79569CL-    CL-46637  36.927   2.266   0.733
79570CL-    CL-46638   8.382  35.048  13.453
79571CL-    CL-46639  27.588  40.972  11.471
  45.00000  45.00000  15.00000   0.00000   0.00000   0.00000   0.00000   0.00000   0.00000

